Title
43170
    1CHL1    C3    1   4.273   4.664   6.528  0.9612 -0.0204  0.3549
    1CHL1    H3    2   4.229   4.764   6.511 -1.9429 -0.9803  1.5452
    1CHL1    O3    3   4.237   4.639   6.668 -0.0210  0.2330  0.2653
    1CHL1   H3'    4   4.309   4.673   6.722 -0.6318  0.5712  0.8833
    1CHL1    C4    5   4.198   4.569   6.431  0.1491 -0.3255  0.0266
    1CHL1   H4A    6   4.212   4.467   6.474  2.0299  0.4650  1.4397
    1CHL1   H4B    7   4.090   4.586   6.452 -0.2731 -1.2206 -1.2874
    1CHL1    C5    8   4.225   4.587   6.277  0.6541  0.0887 -0.5641
    1CHL1    C6    9   4.118   4.615   6.201 -0.3552  0.2273  0.0819
    1CHL1    H6   10   4.017   4.619   6.244 -0.7919  1.4590 -0.9924
    1CHL1    C7   11   4.147   4.632   6.053  0.1322 -0.0857  0.4875
    1CHL1   H7A   12   4.071   4.584   5.987  1.2455 -0.0902 -0.8298
    1CHL1   H7B   13   4.150   4.742   6.034  1.2127 -0.2960 -0.6870
    1CHL1    C8   14   4.285   4.572   6.005  0.7247  0.1011 -0.4324
    1CHL1    H8   15   4.280   4.462   6.004  2.5340 -0.0177 -2.1287
    1CHL1   C14   16   4.311   4.604   5.863 -0.2801  0.4875  0.1257
    1CHL1   H14   17   4.325   4.715   5.863 -0.6954  0.6388 -3.3754
    1CHL1   C15   18   4.205   4.596   5.746 -0.8142 -0.6371  0.2199
    1CHL1  H15A   19   4.138   4.508   5.752  2.6982 -3.4448  1.7204
    1CHL1  H15B   20   4.148   4.692   5.749  1.7788  0.9940  0.4891
    1CHL1   C16   21   4.289   4.587   5.626  0.1406  0.3908  0.1583
    1CHL1  H16A   22   4.273   4.483   5.590 -0.9398 -0.0316  1.7506
    1CHL1  H16B   23   4.255   4.657   5.546 -0.6626 -0.3152 -0.1279
    1CHL1   C17   24   4.435   4.605   5.661  0.4338 -0.2885 -0.5773
    1CHL1   H17   25   4.455   4.714   5.670  1.7657 -0.6124  0.7800
    1CHL1   C13   26   4.445   4.552   5.806  0.2910  0.6395 -0.4867
    1CHL1   C18   27   4.448   4.394   5.805 -0.1776 -0.8091 -0.3928
    1CHL1  H18A   28   4.387   4.349   5.725  2.3476 -0.8717 -2.4217
    1CHL1  H18B   29   4.554   4.369   5.782  1.1325  1.4641  2.4141
    1CHL1  H18C   30   4.416   4.357   5.905 -0.1958  3.7775  1.5669
    1CHL1   C12   31   4.556   4.613   5.886 -0.3403  0.3477 -0.0060
    1CHL1  H12A   32   4.661   4.600   5.852 -0.8279  2.8977 -2.9402
    1CHL1  H12B   33   4.547   4.724   5.883 -0.7526  0.3024 -0.5894
    1CHL1   C11   34   4.541   4.579   6.036  0.7203  0.5781 -0.2544
    1CHL1  H11A   35   4.558   4.470   6.050  0.3023  0.7934  2.4317
    1CHL1  H11B   36   4.628   4.621   6.090  1.8280 -2.1073  0.2536
    1CHL1    C9   37   4.401   4.615   6.096  0.4177 -0.1634  0.4016
    1CHL1    H9   38   4.396   4.726   6.097 -1.8060 -0.1829 -0.8186
    1CHL1   C10   39   4.377   4.578   6.240 -0.4766  0.4407 -1.6060
    1CHL1   C19   40   4.419   4.428   6.271  0.2236  0.2957  0.0269
    1CHL1  H19A   41   4.411   4.397   6.377  0.4872 -0.6330 -0.2072
    1CHL1  H19B   42   4.344   4.359   6.226  0.3445  0.9662 -1.2699
    1CHL1  H19C   43   4.526   4.408   6.245 -0.2579 -1.6243 -0.6914
    1CHL1    C1   44   4.447   4.679   6.343 -0.4929  0.1371 -0.0687
    1CHL1   H1A   45   4.557   4.666   6.332 -0.1695 -0.2951  2.8875
    1CHL1   H1B   46   4.417   4.783   6.319 -2.9378 -0.2116  1.1093
    1CHL1    C2   47   4.416   4.660   6.493  0.6745  0.6381  0.0081
    1CHL1   H2A   48   4.464   4.739   6.554  0.9906  0.6083 -0.2037
    1CHL1   H2B   49   4.465   4.567   6.531 -0.1551  0.0259 -0.3763
    1CHL1   C20   50   4.525   4.557   5.541 -0.1631 -0.3534  0.0697
    1CHL1   H20   51   4.491   4.452   5.528  0.5119 -0.6428  0.6139
    1CHL1   C21   52   4.674   4.563   5.589  0.0958  0.4838 -0.4357
    1CHL1  H21A   53   4.688   4.659   5.643 -1.0494  0.1014  0.5910
    1CHL1  H21B   54   4.747   4.564   5.505  1.1724  0.8211  0.4748
    1CHL1  H21C   55   4.695   4.475   5.653 -1.4401  0.7637  0.5074
    1CHL1   C22   56   4.501   4.633   5.407  0.2059  0.2798  0.0021
    1CHL1  H22A   57   4.579   4.614   5.330 -0.8271  0.6161 -1.1562
    1CHL1  H22B   58   4.412   4.602   5.349  0.2946  1.6436 -0.9320
    1CHL1   C23   59   4.494   4.788   5.418  0.5162  0.1111 -0.5214
    1CHL1  H23A   60   4.438   4.825   5.507 -0.4613 -0.4474 -0.8845
    1CHL1  H23B   61   4.599   4.822   5.424  0.2455  0.8622  0.1876
    1CHL1   C24   62   4.412   4.847   5.298  0.1135 -0.0212 -0.0558
    1CHL1  H24A   63   4.471   4.819   5.208  0.1410 -0.1944  0.0156
    1CHL1  H24B   64   4.309   4.806   5.299  0.2644 -0.4609  1.7121
    1CHL1   C25   65   4.405   5.004   5.293 -1.0898  0.2609  0.2503
    1CHL1   H25   66   4.511   5.037   5.287 -0.8470 -0.5372 -0.1123
    1CHL1   C26   67   4.335   5.045   5.164  0.0734  0.0930 -0.3158
    1CHL1  H26A   68   4.229   5.014   5.170  0.0971  0.1829  0.7226
    1CHL1  H26B   69   4.339   5.152   5.136 -4.4657  0.1495 -1.5958
    1CHL1  H26C   70   4.379   4.987   5.080 -0.2120 -2.9884  1.5311
    1CHL1   C27   71   4.343   5.066   5.419  0.2637 -0.1213  0.0110
    1CHL1  H27A   72   4.237   5.031   5.418  0.4911 -0.8516  0.7146
    1CHL1  H27B   73   4.394   5.032   5.511 -0.8566  2.4421  1.6727
    1CHL1  H27C   74   4.338   5.177   5.414  1.3680 -0.0387  0.5895
    2CHL1    C3   75   6.345   4.866   6.528  0.2233 -0.0171 -0.5487
    2CHL1    H3   76   6.345   4.764   6.484  0.6153 -0.4800  0.4761
    2CHL1    O3   77   6.339   4.865   6.668  0.2537 -0.0597 -0.6051
    2CHL1   H3'   78   6.356   4.959   6.684  0.7613 -0.0104 -1.4047
    2CHL1    C4   79   6.476   4.929   6.491  0.2216  0.0203 -0.0777
    2CHL1   H4A   80   6.484   5.034   6.524  0.6138  0.1903 -0.7051
    2CHL1   H4B   81   6.559   4.877   6.543  1.0134  1.5221  0.2114
    2CHL1    C5   82   6.494   4.931   6.344  0.0409 -0.1283  0.9058
    2CHL1    C6   83   6.602   4.879   6.276 -0.8426  0.5382 -0.4488
    2CHL1    H6   84   6.675   4.832   6.343 -2.2634 -1.9365 -0.5320
    2CHL1    C7   85   6.624   4.886   6.130 -0.0767  0.1061 -0.1777
    2CHL1   H7A   86   6.725   4.932   6.118  0.1767  0.4306  2.6680
    2CHL1   H7B   87   6.619   4.786   6.082 -1.9111 -0.3981  0.9761
    2CHL1    C8   88   6.532   4.986   6.061 -0.2638  0.1164  0.5953
    2CHL1    H8   89   6.589   5.078   6.088  2.3889 -1.1575 -0.3639
    2CHL1   C14   90   6.542   4.972   5.911 -0.1499  0.3573 -0.5460
    2CHL1   H14   91   6.509   4.870   5.883  1.5940 -0.2075 -0.6611
    2CHL1   C15   92   6.680   4.982   5.847  0.3531  0.8692 -0.1549
    2CHL1  H15A   93   6.745   5.061   5.890  1.2263  1.2899 -2.1308
    2CHL1  H15B   94   6.737   4.888   5.862 -0.8797 -0.0364 -0.9694
    2CHL1   C16   95   6.656   5.022   5.704 -0.4899  0.8834 -0.3330
    2CHL1  H16A   96   6.716   5.111   5.677  2.6957 -1.0842 -0.2744
    2CHL1  H16B   97   6.681   4.944   5.629 -1.2825 -0.4708  0.7641
    2CHL1   C17   98   6.502   5.052   5.692 -0.3504 -0.1225 -0.2706
    2CHL1   H17   99   6.450   4.957   5.667  1.2532 -0.7710 -1.3032
    2CHL1   C13  100   6.455   5.075   5.842 -0.2193  0.5388 -0.5093
    2CHL1   C18  101   6.500   5.212   5.880 -0.8977 -0.2594 -0.4201
    2CHL1  H18A  102   6.433   5.287   5.832  0.0433  0.3861 -0.7590
    2CHL1  H18B  103   6.488   5.227   5.989 -0.2017  0.3371 -0.4192
    2CHL1  H18C  104   6.603   5.242   5.853 -0.0046 -1.3508  1.5855
    2CHL1   C12  105   6.310   5.049   5.880 -0.2189  0.1563  0.0081
    2CHL1  H12A  106   6.251   5.137   5.846 -0.3276  0.4913  1.0275
    2CHL1  H12B  107   6.270   4.953   5.841 -0.2735  0.2544 -0.1773
    2CHL1   C11  108   6.289   5.061   6.040 -0.6036 -0.8772 -0.0487
    2CHL1  H11A  109   6.289   5.170   6.060  1.0680 -0.7228 -0.7216
    2CHL1  H11B  110   6.189   5.017   6.059 -1.1854  0.6171  0.4719
    2CHL1    C9  111   6.391   4.979   6.121 -0.2276  0.9474 -0.0905
    2CHL1    H9  112   6.363   4.872   6.105  2.3566  0.3380 -1.0037
    2CHL1   C10  113   6.381   5.006   6.275  0.8012  0.2793 -0.1304
    2CHL1   C19  114   6.372   5.155   6.307  0.2884 -0.1050 -0.6734
    2CHL1  H19A  115   6.467   5.204   6.277  1.1111  0.4252  2.4206
    2CHL1  H19B  116   6.280   5.206   6.271  1.0134  3.4129  1.8221
    2CHL1  H19C  117   6.368   5.171   6.417 -0.0979  0.8671 -0.8178
    2CHL1    C1  118   6.237   4.947   6.327 -0.2004  0.2654  0.8315
    2CHL1   H1A  119   6.147   4.990   6.277 -0.2831 -1.2770 -0.4146
    2CHL1   H1B  120   6.224   4.845   6.284 -0.3123  0.8736 -0.6133
    2CHL1    C2  121   6.222   4.939   6.480 -0.5115 -0.1939  0.2282
    2CHL1   H2A  122   6.126   4.888   6.502 -1.6796  1.7597 -0.1212
    2CHL1   H2B  123   6.218   5.040   6.525  0.4799 -0.8308  1.8542
    2CHL1   C20  124   6.461   5.153   5.583  0.4422  0.0007  0.3522
    2CHL1   H20  125   6.485   5.253   5.626  1.4997 -0.0288 -0.1319
    2CHL1   C21  126   6.312   5.126   5.547 -0.2340  0.0481 -0.3577
    2CHL1  H21A  127   6.255   5.115   5.641 -0.7582 -0.0246 -0.6806
    2CHL1  H21B  128   6.289   5.030   5.495  0.1527  0.6665 -1.7096
    2CHL1  H21C  129   6.262   5.213   5.500 -2.0253 -0.3488  0.7256
    2CHL1   C22  130   6.552   5.151   5.461 -0.8047  0.2215 -0.4837
    2CHL1  H22A  131   6.657   5.169   5.491 -1.0195  0.5819  0.0737
    2CHL1  H22B  132   6.553   5.051   5.412 -0.8307  0.5542 -1.1764
    2CHL1   C23  133   6.523   5.256   5.346 -0.4709 -0.7093 -0.7998
    2CHL1  H23A  134   6.435   5.216   5.291 -1.8425 -1.1388  1.5476
    2CHL1  H23B  135   6.502   5.359   5.382 -0.6950 -1.0466  0.0528
    2CHL1   C24  136   6.632   5.265   5.247  0.1759  0.2491 -0.1603
    2CHL1  H24A  137   6.721   5.283   5.312  0.8182 -1.6730 -0.4461
    2CHL1  H24B  138   6.637   5.166   5.197  0.9436 -1.8069  3.6138
    2CHL1   C25  139   6.619   5.366   5.131 -0.2617  0.0636  0.3105
    2CHL1   H25  140   6.705   5.354   5.061 -0.0700  0.5714  0.4551
    2CHL1   C26  141   6.496   5.339   5.044 -0.5968  1.4077 -0.0368
    2CHL1  H26A  142   6.481   5.414   4.963 -0.5088  1.1853 -0.2609
    2CHL1  H26B  143   6.514   5.241   4.994  1.5654  1.6432  0.1882
    2CHL1  H26C  144   6.409   5.340   5.112  0.7380  0.6738  1.7728
    2CHL1   C27  145   6.615   5.513   5.174  0.4931 -0.0309  0.1965
    2CHL1  H27A  146   6.620   5.579   5.084  2.2915  1.5383  1.3858
    2CHL1  H27B  147   6.513   5.524   5.218 -0.7901  0.2706 -2.6069
    2CHL1  H27C  148   6.693   5.548   5.244  2.1629  0.8244 -1.9757
    3CHL1    C3  149   6.342   4.335   6.733  0.0104  0.7574  0.3506
    3CHL1    H3  150   6.390   4.435   6.733 -1.2218  1.3725  0.0122
    3CHL1    O3  151   6.328   4.292   6.868 -0.4422  0.5574 -0.2942
    3CHL1   H3'  152   6.417   4.263   6.890 -0.6660 -0.1240 -0.2716
    3CHL1    C4  153   6.198   4.346   6.678 -0.3062  0.5590 -0.1685
    3CHL1   H4A  154   6.143   4.250   6.675  0.9541 -0.1912 -0.1947
    3CHL1   H4B  155   6.124   4.411   6.729 -0.9234 -1.1021  1.1463
    3CHL1    C5  156   6.213   4.380   6.532  0.2103  0.3461  0.0600
    3CHL1    C6  157   6.162   4.491   6.482 -0.8642  0.4979 -0.5328
    3CHL1    H6  158   6.106   4.564   6.543  2.1213  1.2183  1.5793
    3CHL1    C7  159   6.187   4.535   6.340  0.9817 -0.1753 -0.5074
    3CHL1   H7A  160   6.091   4.573   6.299  0.7356  1.4993  1.4580
    3CHL1   H7B  161   6.254   4.624   6.339  0.7177  0.0788  1.1447
    3CHL1    C8  162   6.237   4.431   6.241  0.2151 -0.2907 -0.2105
    3CHL1    H8  163   6.170   4.342   6.233  0.4710 -0.7253  1.9689
    3CHL1   C14  164   6.277   4.489   6.108  0.3577 -0.2873 -0.4579
    3CHL1   H14  165   6.352   4.568   6.127  0.0617  0.1300 -0.9877
    3CHL1   C15  166   6.169   4.569   6.034  0.1090 -0.4903  0.3055
    3CHL1  H15A  167   6.071   4.533   6.071  0.0363  0.5370  1.1608
    3CHL1  H15B  168   6.183   4.674   6.068 -0.5531 -0.0456 -0.7523
    3CHL1   C16  169   6.206   4.558   5.883 -0.1458  0.0174  0.0539
    3CHL1  H16A  170   6.130   4.498   5.828 -0.8195 -0.9593  1.9461
    3CHL1  H16B  171   6.213   4.659   5.838  1.7359  0.0276  0.2809
    3CHL1   C17  172   6.339   4.474   5.881 -0.1890 -0.4294  0.2224
    3CHL1   H17  173   6.414   4.551   5.908  0.6760 -1.5532  1.1218
    3CHL1   C13  174   6.332   4.383   6.010 -0.0782  0.3696  0.1206
    3CHL1   C18  175   6.227   4.274   5.995 -0.2031 -0.2513  0.6003
    3CHL1  H18A  176   6.127   4.309   5.960 -0.1290 -0.8707 -0.2940
    3CHL1  H18B  177   6.264   4.201   5.919  0.7356  0.0187  0.7931
    3CHL1  H18C  178   6.209   4.206   6.081 -1.2796 -0.2638  0.3833
    3CHL1   C12  179   6.460   4.318   6.074  0.3103 -0.4282  0.7035
    3CHL1  H12A  180   6.498   4.244   6.000 -0.3485 -1.8997  1.7869
    3CHL1  H12B  181   6.543   4.389   6.094  0.2270 -0.1745  0.1538
    3CHL1   C11  182   6.430   4.258   6.216 -0.3869  0.0763  0.0543
    3CHL1  H11A  183   6.375   4.163   6.200  1.6912 -1.5769  2.0656
    3CHL1  H11B  184   6.521   4.212   6.261 -0.2666  1.1768  0.9756
    3CHL1    C9  185   6.354   4.350   6.310 -0.2632 -0.0197 -0.1238
    3CHL1    H9  186   6.429   4.430   6.329  0.8621  0.1568 -4.4274
    3CHL1   C10  187   6.302   4.284   6.435  0.4932 -0.5705 -0.0882
    3CHL1   C19  188   6.214   4.161   6.414 -0.3986 -0.1664  0.2993
    3CHL1  H19A  189   6.135   4.171   6.336 -0.3875 -0.1491  0.2902
    3CHL1  H19B  190   6.281   4.080   6.379 -0.5382 -0.5702  0.9435
    3CHL1  H19C  191   6.167   4.131   6.510 -1.0388  0.0009  0.0502
    3CHL1    C1  192   6.432   4.251   6.515  0.2818 -0.2329  0.5624
    3CHL1   H1A  193   6.484   4.159   6.479 -0.5903 -2.0329  3.5518
    3CHL1   H1B  194   6.504   4.335   6.507 -0.7754  0.6338 -0.0082
    3CHL1    C2  195   6.408   4.216   6.662  0.0315  0.0341  0.0968
    3CHL1   H2A  196   6.502   4.195   6.717 -0.9783 -0.7211  1.6147
    3CHL1   H2B  197   6.335   4.132   6.668 -1.3224  1.1301 -0.3663
    3CHL1   C20  198   6.383   4.415   5.746 -0.2775  0.5301 -0.4620
    3CHL1   H20  199   6.439   4.324   5.777 -0.5791  0.0831 -1.2136
    3CHL1   C21  200   6.475   4.507   5.686 -0.5139 -0.4037 -0.3788
    3CHL1  H21A  201   6.433   4.610   5.679  1.0202  0.4360  1.6570
    3CHL1  H21B  202   6.498   4.471   5.583  0.9728 -1.3715  0.2693
    3CHL1  H21C  203   6.572   4.524   5.737 -0.9866  0.6058  0.2266
    3CHL1   C22  204   6.265   4.369   5.656 -0.4479  0.2273 -0.1727
    3CHL1  H22A  205   6.209   4.305   5.727  1.9405 -0.1844  1.4684
    3CHL1  H22B  206   6.226   4.469   5.627  0.6578  0.1931 -1.8643
    3CHL1   C23  207   6.312   4.278   5.540 -0.2910 -0.5360 -0.3529
    3CHL1  H23A  208   6.252   4.280   5.447  1.1493  0.9211 -1.3013
    3CHL1  H23B  209   6.409   4.309   5.495  0.9142 -3.6974 -0.2014
    3CHL1   C24  210   6.330   4.140   5.596 -0.5245  0.1651 -0.4440
    3CHL1  H24A  211   6.414   4.145   5.669 -0.3391  1.5572 -0.7204
    3CHL1  H24B  212   6.236   4.117   5.650  0.4474 -4.2243 -0.2741
    3CHL1   C25  213   6.369   4.028   5.495 -0.4635  0.4426 -0.4566
    3CHL1   H25  214   6.437   4.082   5.426 -0.4442 -0.4554 -1.1508
    3CHL1   C26  215   6.458   3.914   5.559 -0.4629 -0.4133 -0.2568
    3CHL1  H26A  216   6.408   3.852   5.637  2.4199 -2.3794  0.1484
    3CHL1  H26B  217   6.488   3.847   5.476 -0.7573  0.4242 -1.0564
    3CHL1  H26C  218   6.544   3.964   5.609 -1.4820  0.4441  0.7054
    3CHL1   C27  219   6.248   3.976   5.414 -0.0573  0.4470  0.0420
    3CHL1  H27A  220   6.191   3.898   5.469  1.4588 -1.3443 -0.8252
    3CHL1  H27B  221   6.185   4.058   5.374 -1.1788  0.1830  1.2032
    3CHL1  H27C  222   6.283   3.920   5.324 -1.1378 -0.9186  0.4441
    4CHL1    C3  223   5.380   3.937   6.582 -0.2885 -0.3787 -0.0675
    4CHL1    H3  224   5.491   3.938   6.572 -0.2994  0.1997 -0.1261
    4CHL1    O3  225   5.360   3.933   6.728  0.3036 -0.1707  0.4332
    4CHL1   H3'  226   5.306   4.008   6.752 -1.5396  0.3904 -4.3570
    4CHL1    C4  227   5.313   4.065   6.523 -0.8864  0.8552 -0.0102
    4CHL1   H4A  228   5.206   4.065   6.556 -0.6608 -1.4767  0.9470
    4CHL1   H4B  229   5.355   4.156   6.571 -1.9440  1.5794 -0.4111
    4CHL1    C5  230   5.341   4.069   6.374  0.2531 -0.2418  0.4866
    4CHL1    C6  231   5.399   4.172   6.313  0.5220 -0.4340  0.2301
    4CHL1    H6  232   5.443   4.254   6.372  0.3920  0.1036 -0.3999
    4CHL1    C7  233   5.399   4.187   6.166  0.4585  0.7202  0.1836
    4CHL1   H7A  234   5.349   4.284   6.143  0.7180  0.8394  0.1149
    4CHL1   H7B  235   5.505   4.190   6.131  0.6549 -1.0119  0.5513
    4CHL1    C8  236   5.335   4.076   6.088  0.4926  0.0612 -0.1957
    4CHL1    H8  237   5.226   4.096   6.084  0.8308  1.8832 -1.6866
    4CHL1   C14  238   5.380   4.063   5.944  0.6505 -0.2964 -0.5683
    4CHL1   H14  239   5.489   4.051   5.959  0.8736  2.7003  0.8122
    4CHL1   C15  240   5.381   4.184   5.855 -0.1526 -0.0122 -0.1549
    4CHL1  H15A  241   5.282   4.225   5.883  0.9562  1.7872  1.3819
    4CHL1  H15B  242   5.452   4.265   5.881 -0.0411  0.2263 -1.1605
    4CHL1   C16  243   5.391   4.131   5.707 -0.0434  0.0348 -0.4136
    4CHL1  H16A  244   5.305   4.176   5.652 -0.2564  1.2190  0.8496
    4CHL1  H16B  245   5.496   4.152   5.679  0.5526 -2.5710 -0.4339
    4CHL1   C17  246   5.388   3.974   5.723  0.4333 -0.1727  0.4703
    4CHL1   H17  247   5.490   3.935   5.746 -0.9523 -2.4029  3.4797
    4CHL1   C13  248   5.321   3.948   5.861  0.1319  0.0231  0.0265
    4CHL1   C18  249   5.168   3.966   5.848  0.2426  0.1583  0.0205
    4CHL1  H18A  250   5.104   3.975   5.938 -0.3746 -0.6869 -0.3234
    4CHL1  H18B  251   5.143   4.047   5.776  0.5429  0.0028 -0.2622
    4CHL1  H18C  252   5.118   3.875   5.810 -2.2885  0.2225  2.8642
    4CHL1   C12  253   5.350   3.811   5.933  0.9159  0.6890  0.8883
    4CHL1  H12A  254   5.317   3.721   5.876  3.5662  0.6652 -0.7807
    4CHL1  H12B  255   5.457   3.786   5.954  0.3622 -1.9568  0.9414
    4CHL1   C11  256   5.287   3.816   6.076 -0.4787 -0.6783  0.5551
    4CHL1  H11A  257   5.177   3.820   6.057 -0.3786  0.5940  0.1107
    4CHL1  H11B  258   5.304   3.712   6.110 -0.0771 -0.9995 -0.5877
    4CHL1    C9  259   5.347   3.935   6.155 -0.4069 -0.1461  0.6131
    4CHL1    H9  260   5.457   3.918   6.154 -0.1214  0.8365  3.8299
    4CHL1   C10  261   5.296   3.943   6.301 -0.9995  0.0728 -0.6429
    4CHL1   C19  262   5.140   3.949   6.300 -0.4064  0.4943 -0.1504
    4CHL1  H19A  263   5.100   3.855   6.258  2.6297 -1.3308  0.7693
    4CHL1  H19B  264   5.105   3.942   6.405 -2.8171 -2.8726 -1.0377
    4CHL1  H19C  265   5.103   4.042   6.250  0.0811 -0.3593 -2.2004
    4CHL1    C1  266   5.335   3.810   6.384  0.5005 -0.3416  0.3424
    4CHL1   H1A  267   5.281   3.721   6.345 -0.2943  0.4906 -0.4891
    4CHL1   H1B  268   5.442   3.788   6.362  0.1787 -2.1999  0.4594
    4CHL1    C2  269   5.309   3.817   6.531 -0.1557  0.3903  0.5712
    4CHL1   H2A  270   5.345   3.728   6.587  1.4179  2.2162  2.6092
    4CHL1   H2B  271   5.199   3.815   6.549 -0.3155 -3.1634  0.0859
    4CHL1   C20  272   5.326   3.901   5.599  0.1816 -0.6130 -0.5428
    4CHL1   H20  273   5.221   3.937   5.587 -0.3955 -2.1130 -0.2814
    4CHL1   C21  274   5.322   3.747   5.624  0.1235  0.4185  0.1600
    4CHL1  H21A  275   5.236   3.705   5.681 -2.3701  2.2792 -2.0123
    4CHL1  H21B  276   5.424   3.720   5.657  1.4312  0.4714 -3.4554
    4CHL1  H21C  277   5.302   3.699   5.526  0.5779 -0.1310  0.3295
    4CHL1   C22  278   5.397   3.946   5.471 -0.1200 -0.0620  0.1068
    4CHL1  H22A  279   5.343   3.896   5.387  0.0477  0.4652 -0.3171
    4CHL1  H22B  280   5.386   4.056   5.460 -0.3446 -0.1205 -0.2591
    4CHL1   C23  281   5.542   3.894   5.457 -0.4370  0.0052  0.2930
    4CHL1  H23A  282   5.602   3.944   5.535  0.5502  2.4358 -1.8651
    4CHL1  H23B  283   5.542   3.785   5.481 -0.0573 -0.4361 -1.5284
    4CHL1   C24  284   5.598   3.926   5.316  0.1443 -0.3014 -0.9727
    4CHL1  H24A  285   5.566   3.849   5.243  1.1972 -0.1850 -1.5785
    4CHL1  H24B  286   5.550   4.019   5.279 -1.2810 -0.0054  1.3725
    4CHL1   C25  287   5.747   3.949   5.297 -0.0456 -0.0104  0.1182
    4CHL1   H25  288   5.760   3.973   5.190  1.7518 -0.0412  0.2835
    4CHL1   C26  289   5.799   4.070   5.378 -0.3073 -0.3676 -0.5899
    4CHL1  H26A  290   5.776   4.054   5.485 -2.8174  0.1259 -0.9920
    4CHL1  H26B  291   5.904   4.097   5.353 -0.3173  1.0314  0.7441
    4CHL1  H26C  292   5.747   4.162   5.343 -0.3258 -0.2989 -0.3820
    4CHL1   C27  293   5.825   3.824   5.328 -0.1881  0.2916 -0.8078
    4CHL1  H27A  294   5.932   3.825   5.295 -0.3489 -1.4077 -1.4729
    4CHL1  H27B  295   5.824   3.806   5.437  1.5124  4.3744  0.0772
    4CHL1  H27C  296   5.775   3.746   5.267  1.6391 -1.5792 -0.0241
    5CHL1    C3  297   3.377   6.133   6.737 -0.2225 -0.3225  0.3452
    5CHL1    H3  298   3.482   6.097   6.744  0.5592  2.1669  3.5752
    5CHL1    O3  299   3.344   6.171   6.868 -0.0705  0.4380 -0.2808
    5CHL1   H3'  300   3.374   6.103   6.929 -2.2268 -1.5691 -1.3466
    5CHL1    C4  301   3.365   6.258   6.646  0.0898  0.1459 -0.0017
    5CHL1   H4A  302   3.268   6.308   6.665 -0.5959 -0.8719 -0.6985
    5CHL1   H4B  303   3.447   6.326   6.679  2.8114 -2.9339  0.0665
    5CHL1    C5  304   3.366   6.211   6.505 -0.3261 -0.9067 -0.0148
    5CHL1    C6  305   3.457   6.275   6.416 -0.0926  0.1009  0.4249
    5CHL1    H6  306   3.521   6.354   6.458  0.4981 -0.6845  1.0087
    5CHL1    C7  307   3.448   6.257   6.269 -0.2203 -0.0113  0.2983
    5CHL1   H7A  308   3.447   6.358   6.221  1.3793  0.1135  0.4696
    5CHL1   H7B  309   3.545   6.218   6.232  0.7475 -1.6508  4.1256
    5CHL1    C8  310   3.330   6.172   6.213  0.2177 -0.5745  0.5658
    5CHL1    H8  311   3.233   6.225   6.198  0.0441 -0.7973  0.8934
    5CHL1   C14  312   3.363   6.108   6.083 -0.0398  1.1378  0.5338
    5CHL1   H14  313   3.443   6.034   6.106 -1.4163 -0.2453  1.0291
    5CHL1   C15  314   3.417   6.193   5.967  0.3392 -0.9009  0.1310
    5CHL1  H15A  315   3.338   6.266   5.940  1.0218  0.4116  1.5678
    5CHL1  H15B  316   3.504   6.251   6.003  1.4603 -1.9758 -0.7681
    5CHL1   C16  317   3.424   6.094   5.853  0.1503 -0.3138  0.5110
    5CHL1  H16A  318   3.397   6.144   5.757  1.9735  2.2723  1.2426
    5CHL1  H16B  319   3.524   6.048   5.839 -0.7801 -2.8026  1.5375
    5CHL1   C17  320   3.336   5.971   5.894  0.1636  0.0993 -0.1239
    5CHL1   H17  321   3.413   5.896   5.921  1.2268 -0.0936 -3.2726
    5CHL1   C13  322   3.255   6.015   6.017 -0.2110 -0.2335 -0.0932
    5CHL1   C18  323   3.131   6.094   5.968  0.3134 -0.1283 -0.4253
    5CHL1  H18A  324   3.066   6.044   5.894  1.3867 -0.1511 -1.3743
    5CHL1  H18B  325   3.074   6.122   6.060 -0.4661  0.2784 -1.0238
    5CHL1  H18C  326   3.158   6.186   5.912  0.2514  1.5882  2.1948
    5CHL1   C12  327   3.217   5.903   6.117 -0.7748 -0.3131  0.5632
    5CHL1  H12A  328   3.141   5.832   6.077  0.1725 -0.9581 -0.1403
    5CHL1  H12B  329   3.315   5.853   6.132 -0.9221 -0.8108 -0.1267
    5CHL1   C11  330   3.192   5.961   6.258  0.6920  0.0589 -0.0786
    5CHL1  H11A  331   3.097   6.017   6.240  0.9707  0.1469 -1.3712
    5CHL1  H11B  332   3.156   5.875   6.318 -0.8659 -0.4620 -1.6595
    5CHL1    C9  333   3.296   6.060   6.317  0.2548  0.5956  0.0437
    5CHL1    H9  334   3.387   5.997   6.328 -0.8817 -0.8587  1.7498
    5CHL1   C10  335   3.266   6.115   6.461 -0.2425 -0.7901 -0.1676
    5CHL1   C19  336   3.124   6.169   6.467 -0.5779 -0.2335 -0.1032
    5CHL1  H19A  337   3.099   6.252   6.396  0.2192  0.6637  0.6373
    5CHL1  H19B  338   3.048   6.090   6.448 -0.7379 -1.0182  3.1746
    5CHL1  H19C  339   3.099   6.212   6.567 -1.4919  0.1457 -0.4796
    5CHL1    C1  340   3.270   5.990   6.558 -0.6835 -0.5154 -0.8329
    5CHL1   H1A  341   3.170   5.943   6.548 -1.0696  0.1875 -0.3766
    5CHL1   H1B  342   3.353   5.923   6.527  0.2173  0.4354 -0.5188
    5CHL1    C2  343   3.276   6.021   6.710 -0.6136  0.1602  0.1383
    5CHL1   H2A  344   3.275   5.920   6.756  0.8914 -1.2844 -2.7122
    5CHL1   H2B  345   3.174   6.057   6.732 -0.5265  0.4958 -0.0038
    5CHL1   C20  346   3.272   5.908   5.771 -0.3169 -0.0742  0.6977
    5CHL1   H20  347   3.199   5.984   5.738  0.1214  0.2355  0.4379
    5CHL1   C21  348   3.208   5.768   5.795 -0.0889  0.0527  0.4324
    5CHL1  H21A  349   3.137   5.767   5.881 -0.4366 -2.5800  0.2118
    5CHL1  H21B  350   3.284   5.691   5.822 -1.0293 -0.2878  2.2407
    5CHL1  H21C  351   3.154   5.729   5.706  0.3970 -1.5081  0.7821
    5CHL1   C22  352   3.369   5.898   5.645  0.3714  0.4843 -0.0132
    5CHL1  H22A  353   3.447   5.977   5.641 -0.5425  1.4310  0.4863
    5CHL1  H22B  354   3.424   5.801   5.649  2.2623  1.5462  1.0444
    5CHL1   C23  355   3.297   5.902   5.506  0.7846 -0.1363 -0.1320
    5CHL1  H23A  356   3.211   5.835   5.526  0.5243  0.1172 -0.3775
    5CHL1  H23B  357   3.244   6.000   5.495  0.2968 -0.4814 -0.9317
    5CHL1   C24  358   3.388   5.884   5.383  0.0022  0.0732 -0.9292
    5CHL1  H24A  359   3.480   5.939   5.414  1.2296 -2.1028 -0.5246
    5CHL1  H24B  360   3.415   5.777   5.373  2.1069  0.6114 -1.5254
    5CHL1   C25  361   3.351   5.964   5.259  0.5271  0.2247 -0.2637
    5CHL1   H25  362   3.333   6.070   5.286  2.5407  0.8144 -1.0551
    5CHL1   C26  363   3.470   5.968   5.161 -0.5279  0.3265 -0.5879
    5CHL1  H26A  364   3.509   5.867   5.138 -0.0177  0.5383 -0.6746
    5CHL1  H26B  365   3.442   6.022   5.068 -0.8668  1.7190  0.2804
    5CHL1  H26C  366   3.551   6.030   5.208 -0.1325 -0.4187 -0.2641
    5CHL1   C27  367   3.215   5.916   5.201 -0.1080  0.0140 -0.3421
    5CHL1  H27A  368   3.181   5.985   5.120  1.0188  2.8713  1.4506
    5CHL1  H27B  369   3.226   5.812   5.165  3.0229 -0.6508  2.0804
    5CHL1  H27C  370   3.133   5.935   5.273 -0.6243 -0.3680 -0.8242
    6CHL1    C3  371   4.485   3.793   6.757 -0.0884  0.0868  0.6012
    6CHL1    H3  372   4.525   3.691   6.737  0.2571  0.2137  0.6298
    6CHL1    O3  373   4.456   3.800   6.895 -0.2025  0.4303  0.0504
    6CHL1   H3'  374   4.378   3.856   6.900 -0.9338 -0.6413  1.3028
    6CHL1    C4  375   4.578   3.909   6.725 -0.5330 -0.3232 -0.1198
    6CHL1   H4A  376   4.518   3.996   6.759 -0.4156 -0.5325  0.6432
    6CHL1   H4B  377   4.673   3.919   6.781 -1.2507 -0.6634  1.1944
    6CHL1    C5  378   4.605   3.922   6.567  0.2115  0.1737 -0.4636
    6CHL1    C6  379   4.728   3.921   6.516 -0.5387 -0.1369  0.1459
    6CHL1    H6  380   4.813   3.932   6.585 -0.6589  0.1585  0.2497
    6CHL1    C7  381   4.767   3.928   6.366  1.0715  0.3545  0.0001
    6CHL1   H7A  382   4.853   3.992   6.338  1.1012  0.7033  0.8581
    6CHL1   H7B  383   4.797   3.828   6.329 -1.9552 -1.9148  2.9856
    6CHL1    C8  384   4.639   3.965   6.281  0.6408  0.3813  0.6948
    6CHL1    H8  385   4.615   4.072   6.297  1.3741  0.6571  0.0196
    6CHL1   C14  386   4.671   3.928   6.138 -0.3698 -0.6659 -0.1861
    6CHL1   H14  387   4.681   3.818   6.133 -1.1647 -0.6886 -1.9690
    6CHL1   C15  388   4.798   3.977   6.077  0.1329  0.3110 -0.5528
    6CHL1  H15A  389   4.798   4.084   6.109 -0.0509  0.2397 -0.3081
    6CHL1  H15B  390   4.885   3.916   6.108 -0.4110 -0.2950 -0.1958
    6CHL1   C16  391   4.776   3.979   5.929 -0.2655  0.2811  0.2278
    6CHL1  H16A  392   4.789   4.080   5.884  1.1790  0.3213  0.7046
    6CHL1  H16B  393   4.836   3.901   5.877  0.1336  1.0509 -0.5031
    6CHL1   C17  394   4.627   3.925   5.911  0.3705 -0.5868  0.1415
    6CHL1   H17  395   4.635   3.814   5.906  4.5272 -0.4263 -0.3040
    6CHL1   C13  396   4.556   3.953   6.045  0.4814  0.3351  0.5213
    6CHL1   C18  397   4.514   4.103   6.045  0.4121  0.1075 -0.3066
    6CHL1  H18A  398   4.420   4.124   5.991  0.3868  0.8636  0.0237
    6CHL1  H18B  399   4.510   4.150   6.145 -0.4498  0.6037 -0.5706
    6CHL1  H18C  400   4.598   4.155   5.994  0.9511 -1.3547 -0.9973
    6CHL1   C12  401   4.443   3.861   6.089 -0.0859 -0.5778 -0.4296
    6CHL1  H12A  402   4.354   3.882   6.026 -0.4195  0.4003  0.3416
    6CHL1  H12B  403   4.473   3.754   6.084  0.5311 -0.5165  1.3831
    6CHL1   C11  404   4.402   3.896   6.230  0.0257 -0.8572 -0.2570
    6CHL1  H11A  405   4.358   3.998   6.227  1.0167 -0.4206 -0.4177
    6CHL1  H11B  406   4.325   3.822   6.259 -0.8809  1.1767  3.0059
    6CHL1    C9  407   4.520   3.892   6.334 -0.6579 -0.4983  0.0355
    6CHL1    H9  408   4.548   3.784   6.330  0.3798 -0.1991 -2.4185
    6CHL1   C10  409   4.479   3.923   6.481 -0.0420 -0.3248 -0.5636
    6CHL1   C19  410   4.393   4.051   6.496 -0.2044  0.4247  0.1695
    6CHL1  H19A  411   4.450   4.134   6.448 -2.4615  2.4244  0.7696
    6CHL1  H19B  412   4.294   4.047   6.446  0.0707 -0.4938 -0.3275
    6CHL1  H19C  413   4.378   4.069   6.605 -1.1993 -1.2962  0.3574
    6CHL1    C1  414   4.386   3.807   6.534 -0.2669  0.4339 -0.5326
    6CHL1   H1A  415   4.291   3.802   6.477 -0.6812 -2.2093  0.2387
    6CHL1   H1B  416   4.444   3.717   6.504  0.2939  0.7672 -0.4534
    6CHL1    C2  417   4.351   3.803   6.685  0.0746 -0.2800  0.5431
    6CHL1   H2A  418   4.297   3.708   6.703  1.3549 -0.8435  1.6096
    6CHL1   H2B  419   4.292   3.889   6.722  1.6878  2.6101 -3.0242
    6CHL1   C20  420   4.570   3.976   5.779  0.2486  0.5692  0.9692
    6CHL1   H20  421   4.560   4.087   5.780 -0.7274  0.5496 -1.2079
    6CHL1   C21  422   4.434   3.916   5.744 -0.2914  0.5861 -0.1826
    6CHL1  H21A  423   4.428   3.805   5.751 -1.4406  0.5197 -1.6641
    6CHL1  H21B  424   4.405   3.956   5.645 -0.7413 -0.7681 -0.6234
    6CHL1  H21C  425   4.377   3.955   5.831  0.3769 -1.9008  1.4655
    6CHL1   C22  426   4.664   3.948   5.655  0.3285 -0.5940 -0.5338
    6CHL1  H22A  427   4.599   3.972   5.568 -1.2554 -1.2791  0.4209
    6CHL1  H22B  428   4.750   4.018   5.656  0.1316 -0.3614  0.0094
    6CHL1   C23  429   4.709   3.804   5.647 -0.3864 -0.4624 -0.0001
    6CHL1  H23A  430   4.789   3.779   5.720 -0.1532 -1.8752 -0.7047
    6CHL1  H23B  431   4.615   3.748   5.667  0.1020 -1.3456 -0.1042
    6CHL1   C24  432   4.760   3.763   5.507  0.0690  0.1779 -0.6145
    6CHL1  H24A  433   4.674   3.790   5.442 -0.9754 -2.5780 -0.5237
    6CHL1  H24B  434   4.842   3.828   5.468  0.3082 -0.9014 -2.0237
    6CHL1   C25  435   4.789   3.618   5.483  0.2646  0.4910 -0.0452
    6CHL1   H25  436   4.699   3.577   5.533  0.3697  2.1919  1.6717
    6CHL1   C26  437   4.773   3.576   5.345  0.1016 -0.7886  0.2635
    6CHL1  H26A  438   4.840   3.633   5.276 -0.3247  0.3474  0.7641
    6CHL1  H26B  439   4.803   3.471   5.326  2.2472  0.2731 -3.2173
    6CHL1  H26C  440   4.665   3.578   5.322 -0.2773 -1.6951  1.8353
    6CHL1   C27  441   4.932   3.589   5.536 -0.4689  0.1324  0.3164
    6CHL1  H27A  442   5.006   3.646   5.477 -2.3849 -0.6626 -3.1212
    6CHL1  H27B  443   4.944   3.604   5.646 -1.4508 -2.5940  0.8908
    6CHL1  H27C  444   4.949   3.480   5.521 -0.3155  0.4052 -1.6841
    7CHL1    C3  445   0.825   3.485   6.748 -0.9067  0.1210  0.5208
    7CHL1    H3  446   0.901   3.534   6.684 -1.5660  3.3788  2.0459
    7CHL1    O3  447   0.868   3.444   6.877  0.0110 -0.5037 -0.0694
    7CHL1   H3'  448   0.793   3.435   6.937 -0.0922  3.9671  0.8541
    7CHL1    C4  449   0.716   3.591   6.759  0.3291 -0.5717 -0.1304
    7CHL1   H4A  450   0.642   3.549   6.829  0.3651  1.3531  1.1139
    7CHL1   H4B  451   0.758   3.677   6.814  0.7709 -0.9139  0.0739
    7CHL1    C5  452   0.652   3.636   6.623 -0.5029  0.2711 -0.4385
    7CHL1    C6  453   0.666   3.758   6.571  0.0649 -0.2172 -0.0178
    7CHL1    H6  454   0.711   3.835   6.635 -0.7999 -1.1766  1.8160
    7CHL1    C7  455   0.601   3.796   6.439  0.0607 -0.3897  0.3425
    7CHL1   H7A  456   0.541   3.889   6.449  0.7744  0.0002  1.1802
    7CHL1   H7B  457   0.692   3.805   6.376  0.4932 -2.6138  0.5853
    7CHL1    C8  458   0.510   3.685   6.373 -0.5061 -0.8404  0.1804
    7CHL1    H8  459   0.408   3.690   6.416 -0.1278 -2.7348  1.4368
    7CHL1   C14  460   0.500   3.719   6.224  0.2095  0.7091 -0.7000
    7CHL1   H14  461   0.605   3.700   6.194  0.1750 -2.0608  0.5950
    7CHL1   C15  462   0.473   3.859   6.178 -0.1297 -1.4524 -0.1508
    7CHL1  H15A  463   0.378   3.888   6.228 -0.2761  0.7501 -1.5704
    7CHL1  H15B  464   0.564   3.917   6.203  0.6335 -3.5068  2.1187
    7CHL1   C16  465   0.455   3.839   6.022  0.2179 -0.5236 -0.2771
    7CHL1  H16A  466   0.357   3.885   5.998 -0.2045  0.6836  3.2342
    7CHL1  H16B  467   0.541   3.864   5.957  0.5167  1.6255  0.8677
    7CHL1   C17  468   0.430   3.686   6.001 -0.3262 -0.1401  0.1556
    7CHL1   H17  469   0.526   3.646   5.962 -0.3736 -0.9469  0.8547
    7CHL1   C13  470   0.411   3.625   6.137  0.0374 -0.4243 -0.6761
    7CHL1   C18  471   0.261   3.633   6.187 -0.2427  0.2340  0.5140
    7CHL1  H18A  472   0.251   3.614   6.296 -0.0283  3.8006  1.2877
    7CHL1  H18B  473   0.226   3.734   6.155  0.9365  0.3981 -0.2978
    7CHL1  H18C  474   0.197   3.554   6.143  0.6197 -1.2208  1.7758
    7CHL1   C12  475   0.459   3.479   6.162 -0.1397  0.2366  0.5614
    7CHL1  H12A  476   0.388   3.403   6.123  0.3173  0.7987 -1.4396
    7CHL1  H12B  477   0.545   3.471   6.093  0.3312 -0.6734  1.2354
    7CHL1   C11  478   0.489   3.438   6.306 -0.3281  0.3406  0.2146
    7CHL1  H11A  479   0.392   3.422   6.358 -0.9632 -1.2647 -1.3664
    7CHL1  H11B  480   0.545   3.343   6.306  1.3334  1.2472 -0.9921
    7CHL1    C9  481   0.564   3.547   6.387  0.5336 -0.6315 -0.0331
    7CHL1    H9  482   0.665   3.550   6.341  0.0251 -1.0476 -1.2291
    7CHL1   C10  483   0.594   3.514   6.539  0.0354 -0.3153 -0.4208
    7CHL1   C19  484   0.461   3.478   6.612 -0.2467  1.0364  0.0724
    7CHL1  H19A  485   0.383   3.554   6.591 -1.8503 -0.6224 -0.2587
    7CHL1  H19B  486   0.422   3.379   6.579  1.1398 -0.0712  1.6009
    7CHL1  H19C  487   0.466   3.464   6.722  0.0365 -1.1203 -0.1631
    7CHL1    C1  488   0.705   3.401   6.543  0.3769  0.5090 -0.3661
    7CHL1   H1A  489   0.659   3.311   6.497  2.0860 -2.2094  2.8164
    7CHL1   H1B  490   0.794   3.420   6.480  0.5077  0.3797 -0.2187
    7CHL1    C2  491   0.764   3.366   6.675 -0.6874  0.1499 -0.4628
    7CHL1   H2A  492   0.852   3.301   6.655 -0.3662  0.9769 -1.8752
    7CHL1   H2B  493   0.689   3.312   6.737 -0.8578 -0.6533 -1.3420
    7CHL1   C20  494   0.339   3.657   5.873 -0.1559 -1.0324 -0.0009
    7CHL1   H20  495   0.244   3.708   5.899  0.0530 -0.4952 -0.2751
    7CHL1   C21  496   0.317   3.511   5.845 -0.3274  0.6510  0.4492
    7CHL1  H21A  497   0.248   3.469   5.921 -0.3694  0.6648  0.4185
    7CHL1  H21B  498   0.414   3.458   5.857  0.1512  1.4322  0.0932
    7CHL1  H21C  499   0.270   3.493   5.746  2.8430 -1.3109 -0.8534
    7CHL1   C22  500   0.397   3.721   5.738 -0.6464  0.4715 -0.6444
    7CHL1  H22A  501   0.460   3.809   5.765  2.3447 -0.6523 -3.3437
    7CHL1  H22B  502   0.469   3.657   5.683  0.3594  1.9279 -1.0899
    7CHL1   C23  503   0.285   3.763   5.648 -0.9363  0.0603  0.2371
    7CHL1  H23A  504   0.213   3.680   5.636 -1.4807  0.5678 -0.0635
    7CHL1  H23B  505   0.233   3.847   5.699 -1.2500  0.3688 -0.5678
    7CHL1   C24  506   0.336   3.820   5.514 -0.3647 -0.1838 -0.0427
    7CHL1  H24A  507   0.424   3.881   5.543 -0.3864 -0.1048 -0.1409
    7CHL1  H24B  508   0.373   3.742   5.445 -0.1025 -0.5199  0.4666
    7CHL1   C25  509   0.240   3.914   5.432 -0.0469  0.7091 -0.4786
    7CHL1   H25  510   0.247   4.006   5.494  0.6993  0.5110 -0.2665
    7CHL1   C26  511   0.293   3.942   5.294  0.6001  0.4955  0.5424
    7CHL1  H26A  512   0.282   3.852   5.230 -1.9313  0.6824  0.5912
    7CHL1  H26B  513   0.227   4.020   5.251 -0.5321 -0.3752  0.6291
    7CHL1  H26C  514   0.399   3.973   5.302 -0.0333  2.5627  1.4126
    7CHL1   C27  515   0.095   3.854   5.438  0.2380 -0.0049  0.2511
    7CHL1  H27A  516   0.092   3.750   5.398 -1.1131  0.2370 -0.3459
    7CHL1  H27B  517   0.053   3.858   5.541 -2.4311  0.9887 -0.7929
    7CHL1  H27C  518   0.041   3.927   5.375 -1.9605  0.4454  2.4861
    8CHL1    C3  519   3.575   3.235   6.683  0.2013 -0.2765 -0.1502
    8CHL1    H3  520   3.632   3.141   6.668  0.0459 -0.4857  0.5362
    8CHL1    O3  521   3.575   3.250   6.822  0.8855  0.8424  0.6104
    8CHL1   H3'  522   3.493   3.213   6.856 -0.1717  0.0938 -2.4148
    8CHL1    C4  523   3.646   3.359   6.620  0.2394  0.3428  0.5259
    8CHL1   H4A  524   3.601   3.443   6.677 -0.3272 -0.2099  0.9095
    8CHL1   H4B  525   3.752   3.355   6.651 -0.5476 -1.2766  3.4688
    8CHL1    C5  526   3.620   3.365   6.470  0.5192 -0.1491  0.7136
    8CHL1    C6  527   3.723   3.355   6.387  0.5712 -0.7268 -0.6449
    8CHL1    H6  528   3.820   3.335   6.435 -0.0252 -1.2311  0.4040
    8CHL1    C7  529   3.725   3.358   6.238  0.1051 -0.0046 -0.5558
    8CHL1   H7A  530   3.804   3.432   6.213  0.7281 -0.6274 -0.4796
    8CHL1   H7B  531   3.746   3.256   6.200 -3.0234 -1.0665  0.2531
    8CHL1    C8  532   3.585   3.398   6.179 -0.3338 -0.0669  0.8008
    8CHL1    H8  533   3.576   3.509   6.189  0.6773  0.2892 -1.4860
    8CHL1   C14  534   3.571   3.357   6.028  0.3017 -0.5376 -0.3200
    8CHL1   H14  535   3.573   3.247   6.019  1.3411 -0.4759 -1.0168
    8CHL1   C15  536   3.685   3.407   5.938  0.6215 -0.2128  0.4342
    8CHL1  H15A  537   3.714   3.509   5.969 -0.4280 -0.4390  2.2988
    8CHL1  H15B  538   3.779   3.346   5.939 -0.7214 -2.4316  2.4708
    8CHL1   C16  539   3.612   3.396   5.805  0.4703 -0.0044  0.2043
    8CHL1  H16A  540   3.611   3.497   5.760 -0.2974 -0.7518 -1.5617
    8CHL1  H16B  541   3.656   3.334   5.723  0.4220  0.5879 -0.2764
    8CHL1   C17  542   3.457   3.352   5.818 -0.5972 -0.0393 -0.3365
    8CHL1   H17  543   3.447   3.242   5.826 -1.1759 -0.1471 -2.0913
    8CHL1   C13  544   3.433   3.392   5.964 -0.2969 -0.8058 -0.4706
    8CHL1   C18  545   3.415   3.548   5.972 -0.2805 -0.2714  0.8281
    8CHL1  H18A  546   3.326   3.584   5.917  1.5703 -0.0298 -2.2183
    8CHL1  H18B  547   3.400   3.590   6.074 -0.9712  0.6101  0.3781
    8CHL1  H18C  548   3.493   3.599   5.912 -0.9049  0.3418  0.5253
    8CHL1   C12  549   3.325   3.322   6.044 -0.3131  0.2207  0.5653
    8CHL1  H12A  550   3.231   3.362   5.999 -1.0946 -0.0451  1.9265
    8CHL1  H12B  551   3.331   3.214   6.020 -0.6143  0.2327  0.4292
    8CHL1   C11  552   3.333   3.362   6.193 -0.5862  0.1970  0.0999
    8CHL1  H11A  553   3.295   3.466   6.200  0.1395  0.5215 -0.7376
    8CHL1  H11B  554   3.254   3.304   6.246 -0.5448 -0.1848 -0.2525
    8CHL1    C9  555   3.476   3.336   6.261  0.5664  0.2604  0.2322
    8CHL1    H9  556   3.487   3.227   6.244  1.3624  0.3156  0.3785
    8CHL1   C10  557   3.480   3.358   6.416 -0.5328 -0.0350  0.3106
    8CHL1   C19  558   3.394   3.484   6.446  0.4829  0.0748 -0.1284
    8CHL1  H19A  559   3.288   3.458   6.428  0.0570  1.3970  0.3121
    8CHL1  H19B  560   3.411   3.514   6.552  1.8044  0.4041 -0.4133
    8CHL1  H19C  561   3.429   3.575   6.393 -1.4752  1.4067  0.7415
    8CHL1    C1  562   3.417   3.232   6.482 -0.6758 -0.4589  0.1796
    8CHL1   H1A  563   3.311   3.225   6.452 -0.7167 -1.2261  0.4931
    8CHL1   H1B  564   3.471   3.142   6.447 -1.6819 -1.0764  0.1814
    8CHL1    C2  565   3.431   3.226   6.634  0.1335  0.0983  0.0235
    8CHL1   H2A  566   3.390   3.130   6.671 -0.7276  0.6883  0.6286
    8CHL1   H2B  567   3.378   3.315   6.675  0.4703  0.4983 -0.3997
    8CHL1   C20  568   3.367   3.400   5.704 -0.0603 -0.7824  0.0127
    8CHL1   H20  569   3.386   3.509   5.691 -2.3806 -0.3057  0.1793
    8CHL1   C21  570   3.211   3.404   5.741 -0.4143  0.3125 -0.5763
    8CHL1  H21A  571   3.149   3.435   5.654 -1.9075 -0.1597  0.2734
    8CHL1  H21B  572   3.184   3.477   5.820  0.4151  0.1619 -0.1376
    8CHL1  H21C  573   3.182   3.302   5.775  1.7000 -0.1166  0.0820
    8CHL1   C22  574   3.392   3.330   5.568 -0.0996  0.2266 -0.1189
    8CHL1  H22A  575   3.325   3.380   5.495 -3.9408 -1.1798  2.1379
    8CHL1  H22B  576   3.502   3.345   5.557 -0.0288  0.2423  0.5663
    8CHL1   C23  577   3.372   3.180   5.580  0.5059  0.3972  0.2284
    8CHL1  H23A  578   3.446   3.136   5.651  0.5588 -1.1594 -0.7660
    8CHL1  H23B  579   3.268   3.168   5.617 -0.2195  3.0080 -0.7440
    8CHL1   C24  580   3.390   3.111   5.443  0.1228 -0.1641  0.1315
    8CHL1  H24A  581   3.336   3.167   5.364  0.1222  1.1720  1.0471
    8CHL1  H24B  582   3.498   3.098   5.421 -0.0849 -1.3454 -0.2959
    8CHL1   C25  583   3.327   2.967   5.442  0.3127 -0.3571  0.3724
    8CHL1   H25  584   3.220   2.974   5.471  0.6426 -1.1935  1.8674
    8CHL1   C26  585   3.342   2.914   5.296 -0.5781  0.1495 -0.3890
    8CHL1  H26A  586   3.314   2.807   5.295  2.7320 -0.8704 -3.5300
    8CHL1  H26B  587   3.276   2.976   5.231  1.7557  1.4733 -1.6327
    8CHL1  H26C  588   3.447   2.922   5.261 -0.1183 -0.0666  0.8814
    8CHL1   C27  589   3.400   2.870   5.536  0.6620  0.9269 -0.0444
    8CHL1  H27A  590   3.506   2.880   5.505  1.1336  1.0807  1.5272
    8CHL1  H27B  591   3.398   2.904   5.642  1.6345  0.2576  0.2042
    8CHL1  H27C  592   3.367   2.764   5.533  0.9616  0.8515 -1.2676
    9CHL1    C3  593   0.047   5.270   6.863 -0.2850 -0.5120  0.2253
    9CHL1    H3  594   0.061   5.377   6.887 -0.0404 -0.1004 -1.6254
    9CHL1    O3  595  -0.008   5.213   6.978 -0.1560  0.1013 -0.1142
    9CHL1   H3'  596  -0.075   5.280   6.991  0.7382  1.3482 -1.5086
    9CHL1    C4  597  -0.062   5.262   6.756 -0.2371 -0.3243  0.3415
    9CHL1   H4A  598  -0.105   5.160   6.753 -0.1218 -0.3587 -1.3768
    9CHL1   H4B  599  -0.146   5.330   6.782  1.7178  1.7641  1.6030
    9CHL1    C5  600  -0.003   5.290   6.622 -0.0530  0.5233  0.7670
    9CHL1    C6  601  -0.060   5.389   6.550 -0.0879  0.9668  0.2930
    9CHL1    H6  602  -0.151   5.438   6.588 -2.0506 -0.0904 -2.6731
    9CHL1    C7  603  -0.018   5.445   6.420  0.0127  0.1272  0.0134
    9CHL1   H7A  604  -0.100   5.469   6.349 -1.5574  0.3709  1.8371
    9CHL1   H7B  605   0.042   5.538   6.434  0.5903 -0.1486 -0.5862
    9CHL1    C8  606   0.069   5.344   6.350 -0.3984  0.1425  0.5661
    9CHL1    H8  607   0.004   5.260   6.317 -0.3255 -1.0037  3.1551
    9CHL1   C14  608   0.136   5.405   6.226 -0.3409  0.0215  0.2877
    9CHL1   H14  609   0.192   5.491   6.268 -1.2047  0.0200  1.4990
    9CHL1   C15  610   0.048   5.452   6.114  0.1662  0.0130 -0.0069
    9CHL1  H15A  611  -0.024   5.375   6.077 -0.7027 -0.8697  3.2437
    9CHL1  H15B  612  -0.003   5.549   6.133 -2.4186 -0.7703 -2.2560
    9CHL1   C16  613   0.155   5.479   5.999 -0.5512 -0.0170 -0.2301
    9CHL1  H16A  614   0.104   5.441   5.908 -3.5530  0.6652  1.0424
    9CHL1  H16B  615   0.171   5.589   5.998  1.0092 -0.2108  0.4111
    9CHL1   C17  616   0.285   5.403   6.037  0.8664 -0.2542 -0.0284
    9CHL1   H17  617   0.344   5.488   6.075 -0.4797  3.1489 -4.6082
    9CHL1   C13  618   0.243   5.320   6.161 -0.5077 -0.6900 -0.6179
    9CHL1   C18  619   0.192   5.186   6.108  0.4659  1.4002 -0.3231
    9CHL1  H18A  620   0.154   5.122   6.190  0.7788  0.9034 -0.5640
    9CHL1  H18B  621   0.104   5.188   6.040 -1.2724 -3.5858  1.3418
    9CHL1  H18C  622   0.268   5.120   6.060 -1.0187 -0.4220 -0.2683
    9CHL1   C12  623   0.355   5.295   6.263 -1.3262 -0.4527  0.4233
    9CHL1  H12A  624   0.434   5.233   6.217 -0.0280  1.0380  0.5432
    9CHL1  H12B  625   0.404   5.391   6.292  0.9083 -1.2129 -0.6135
    9CHL1   C11  626   0.300   5.225   6.386  0.8549 -0.5986 -0.5927
    9CHL1  H11A  627   0.279   5.118   6.364  0.6969 -0.7470  0.2531
    9CHL1  H11B  628   0.375   5.227   6.468 -1.2440  0.0383  1.4194
    9CHL1    C9  629   0.177   5.300   6.448 -0.0943  0.0077 -0.2114
    9CHL1    H9  630   0.228   5.394   6.477  1.2759 -0.5178 -0.8243
    9CHL1   C10  631   0.130   5.226   6.574  0.0628  0.6091  0.0228
    9CHL1   C19  632   0.098   5.077   6.553 -0.1463  0.2088  0.8079
    9CHL1  H19A  633   0.064   5.023   6.644  1.3328 -3.2609 -0.5549
    9CHL1  H19B  634   0.014   5.067   6.481  0.0153  0.0708  0.6380
    9CHL1  H19C  635   0.187   5.020   6.520 -0.0935  0.4851  0.4737
    9CHL1    C1  636   0.235   5.245   6.693 -0.0991  0.0105  0.5474
    9CHL1   H1A  637   0.332   5.195   6.672  0.7914  1.8119  0.1375
    9CHL1   H1B  638   0.255   5.355   6.693 -2.6178  0.5385  1.3300
    9CHL1    C2  639   0.181   5.200   6.827 -0.0869 -0.2676 -0.3571
    9CHL1   H2A  640   0.262   5.217   6.901  2.1111 -0.6084 -2.5342
    9CHL1   H2B  641   0.174   5.090   6.819  3.3991 -0.6714  0.5681
    9CHL1   C20  642   0.360   5.334   5.924  0.0245 -0.0435 -0.6664
    9CHL1   H20  643   0.423   5.253   5.968 -1.6035 -0.7564  0.4304
    9CHL1   C21  644   0.453   5.440   5.867  0.2425  0.6789  0.3539
    9CHL1  H21A  645   0.411   5.540   5.846 -1.9882 -0.3475 -0.4060
    9CHL1  H21B  646   0.508   5.400   5.779 -0.5322 -2.5108  1.1632
    9CHL1  H21C  647   0.531   5.464   5.942  1.6755  0.7859 -1.1147
    9CHL1   C22  648   0.283   5.277   5.800 -0.1506 -0.1734  0.5644
    9CHL1  H22A  649   0.184   5.229   5.818 -0.5946 -0.1281 -1.5451
    9CHL1  H22B  650   0.253   5.372   5.751  1.3512  1.1144  2.0328
    9CHL1   C23  651   0.365   5.205   5.692 -0.1924  0.7107 -0.1851
    9CHL1  H23A  652   0.433   5.281   5.647 -0.9957  1.9785  0.7042
    9CHL1  H23B  653   0.430   5.129   5.741  0.9452 -0.1298 -2.7575
    9CHL1   C24  654   0.277   5.137   5.583  0.9149  0.2239 -0.6942
    9CHL1  H24A  655   0.235   5.048   5.635 -1.2149  2.3866  1.5366
    9CHL1  H24B  656   0.191   5.203   5.562  0.7065  1.0074  2.1409
    9CHL1   C25  657   0.341   5.084   5.451  0.8029 -0.4448  0.5584
    9CHL1   H25  658   0.394   5.175   5.415  0.0759  0.5973  2.0246
    9CHL1   C26  659   0.446   4.975   5.476  0.3112 -0.4498 -0.4014
    9CHL1  H26A  660   0.485   4.944   5.376 -2.1728 -0.7494 -1.3407
    9CHL1  H26B  661   0.526   5.006   5.547  1.3534 -0.0141 -1.7237
    9CHL1  H26C  662   0.391   4.892   5.524  1.4739 -2.9320 -3.0578
    9CHL1   C27  663   0.239   5.041   5.342 -0.5587  0.6450 -0.0460
    9CHL1  H27A  664   0.163   5.123   5.345  0.4067  1.5702 -0.2283
    9CHL1  H27B  665   0.272   5.017   5.238 -2.6817 -0.4712 -0.5358
    9CHL1  H27C  666   0.193   4.948   5.382 -0.6684 -0.2215 -2.0572
   10CHL1    C3  667   5.205   6.201   6.926  0.1840 -0.0514  0.2503
   10CHL1    H3  668   5.174   6.306   6.903 -0.9385 -0.2825  0.6551
   10CHL1    O3  669   5.135   6.181   7.051  0.4722  0.0717 -0.1473
   10CHL1   H3'  670   5.169   6.105   7.098 -0.3490  0.3138  0.8717
   10CHL1    C4  671   5.166   6.100   6.815  0.3127  1.3865 -0.9287
   10CHL1   H4A  672   5.189   6.001   6.859 -2.4440  0.2613 -1.7648
   10CHL1   H4B  673   5.055   6.098   6.807  0.2463 -0.4962 -0.0567
   10CHL1    C5  674   5.230   6.121   6.684  0.3454 -0.6452  0.0505
   10CHL1    C6  675   5.159   6.147   6.573  0.3541  0.6120 -0.0192
   10CHL1    H6  676   5.050   6.132   6.575  0.4650 -1.0080 -2.1007
   10CHL1    C7  677   5.220   6.173   6.433 -0.1763  0.0713 -0.0245
   10CHL1   H7A  678   5.168   6.103   6.363  0.6596 -0.8202  0.2333
   10CHL1   H7B  679   5.190   6.273   6.396  0.8554  0.6701  0.7396
   10CHL1    C8  680   5.375   6.149   6.432  0.1402  0.2045  0.3155
   10CHL1    H8  681   5.382   6.038   6.424 -2.0294  0.1256 -1.1969
   10CHL1   C14  682   5.447   6.218   6.313 -0.1331  0.1571 -0.1618
   10CHL1   H14  683   5.455   6.327   6.334  1.3196 -0.2139  1.4695
   10CHL1   C15  684   5.369   6.198   6.180 -0.1346 -0.0096  0.6532
   10CHL1  H15A  685   5.334   6.093   6.169 -0.6709  0.3466 -1.4534
   10CHL1  H15B  686   5.276   6.259   6.181 -0.6389 -0.7253 -0.4776
   10CHL1   C16  687   5.478   6.233   6.070  0.2801 -0.1931 -0.3627
   10CHL1  H16A  688   5.481   6.148   5.999  1.3332  0.3821 -1.0336
   10CHL1  H16B  689   5.457   6.331   6.023  2.8222  0.8558  0.4857
   10CHL1   C17  690   5.611   6.243   6.148 -0.9994  0.4136  0.4862
   10CHL1   H17  691   5.633   6.348   6.178 -1.1301  0.2761  1.0762
   10CHL1   C13  692   5.589   6.170   6.284 -0.1360  0.0450 -0.0960
   10CHL1   C18  693   5.594   6.014   6.262  0.1359 -0.1803 -0.4554
   10CHL1  H18A  694   5.699   5.979   6.256 -0.0077 -0.8305  0.5961
   10CHL1  H18B  695   5.553   5.954   6.346  0.9552  0.6893  0.5992
   10CHL1  H18C  696   5.555   5.981   6.163  1.4893 -1.4898 -0.5923
   10CHL1   C12  697   5.668   6.206   6.410  0.2493 -0.2486  0.5684
   10CHL1  H12A  698   5.769   6.161   6.400  0.9409  1.4624 -0.6665
   10CHL1  H12B  699   5.680   6.317   6.409 -1.4299  0.0084 -2.5389
   10CHL1   C11  700   5.600   6.161   6.540  0.3123  0.3899 -0.0593
   10CHL1  H11A  701   5.603   6.050   6.540  3.4133  0.3774 -0.4336
   10CHL1  H11B  702   5.653   6.190   6.634 -1.4866 -4.3086  2.7342
   10CHL1    C9  703   5.450   6.187   6.554 -0.3009  0.5052  0.1133
   10CHL1    H9  704   5.429   6.296   6.555  0.4448  0.6718 -0.7062
   10CHL1   C10  705   5.385   6.128   6.688  0.3984  0.2399  0.0987
   10CHL1   C19  706   5.432   5.985   6.714  0.2980  0.4597 -0.5160
   10CHL1  H19A  707   5.540   5.976   6.742 -0.1589 -0.6419  1.0266
   10CHL1  H19B  708   5.381   5.938   6.800  0.4124  1.6738  0.2411
   10CHL1  H19C  709   5.417   5.915   6.629  2.4194 -0.4217 -0.2374
   10CHL1    C1  710   5.421   6.225   6.799 -0.1989 -0.1345 -0.3740
   10CHL1   H1A  711   5.532   6.237   6.794 -0.0963 -0.8405  0.0665
   10CHL1   H1B  712   5.383   6.327   6.776  0.5349  0.0656 -0.7351
   10CHL1    C2  713   5.357   6.195   6.937  0.5587 -0.4168  0.5571
   10CHL1   H2A  714   5.404   6.259   7.014 -0.9694 -0.9362  1.9809
   10CHL1   H2B  715   5.384   6.092   6.968 -1.0186 -1.4570 -1.2634
   10CHL1   C20  716   5.728   6.188   6.065 -0.0468 -0.5322  0.1602
   10CHL1   H20  717   5.715   6.079   6.052  0.8778 -0.6668  0.2968
   10CHL1   C21  718   5.865   6.214   6.145  0.5295 -0.3941 -0.3267
   10CHL1  H21A  719   5.862   6.308   6.204 -2.5453 -1.3951  1.3648
   10CHL1  H21B  720   5.946   6.206   6.069 -0.6180 -0.4877 -1.5750
   10CHL1  H21C  721   5.879   6.128   6.214 -0.7353 -0.8612 -0.6385
   10CHL1   C22  722   5.737   6.265   5.927  0.1934  0.4138  0.0530
   10CHL1  H22A  723   5.646   6.328   5.911  1.2771  2.3934  1.3289
   10CHL1  H22B  724   5.820   6.337   5.918  0.7646 -0.0484  1.3588
   10CHL1   C23  725   5.757   6.157   5.819  0.1974 -0.0552  0.8657
   10CHL1  H23A  726   5.863   6.127   5.812  0.7773  2.2108 -3.2333
   10CHL1  H23B  727   5.694   6.067   5.836 -0.5650 -0.1067 -1.7896
   10CHL1   C24  728   5.708   6.198   5.679 -0.1826 -0.1543  0.1070
   10CHL1  H24A  729   5.729   6.119   5.604  0.8259 -1.0973  1.3452
   10CHL1  H24B  730   5.598   6.212   5.686 -0.3687 -2.0100  1.4569
   10CHL1   C25  731   5.773   6.319   5.615 -0.6813 -0.2168 -0.8706
   10CHL1   H25  732   5.758   6.416   5.667  2.1589 -1.2407  2.2271
   10CHL1   C26  733   5.928   6.296   5.617 -0.0531 -0.2376 -0.9481
   10CHL1  H26A  734   5.977   6.287   5.716 -0.1636 -0.4919 -0.9157
   10CHL1  H26B  735   5.952   6.204   5.560 -1.4899 -0.2620 -1.5711
   10CHL1  H26C  736   5.973   6.372   5.550 -0.2357 -0.0129 -0.8170
   10CHL1   C27  737   5.727   6.327   5.469  0.0557  0.2460 -0.2054
   10CHL1  H27A  738   5.770   6.239   5.416  0.8781  0.1047  0.6803
   10CHL1  H27B  739   5.619   6.321   5.446  0.5362 -0.0981 -2.6339
   10CHL1  H27C  740   5.765   6.416   5.413 -1.1803  1.7523  1.2415
   11CHL1    C3  741   3.803   1.552   6.573  0.2016 -0.3817  0.1427
   11CHL1    H3  742   3.736   1.465   6.557 -0.3629 -0.1730  1.2494
   11CHL1    O3  743   3.859   1.553   6.707  0.4075  0.2765 -0.5092
   11CHL1   H3'  744   3.925   1.622   6.697  0.7229 -0.2585 -2.6492
   11CHL1    C4  745   3.925   1.552   6.476  0.3058 -0.1386  0.0701
   11CHL1   H4A  746   3.993   1.631   6.514 -0.2501  1.0710 -1.3589
   11CHL1   H4B  747   3.977   1.455   6.486 -0.2077 -0.6123 -1.5177
   11CHL1    C5  748   3.897   1.590   6.333  0.5184  0.3433 -0.3857
   11CHL1    C6  749   3.940   1.511   6.238 -0.8995  0.2618  0.6867
   11CHL1    H6  750   3.983   1.415   6.272 -0.4868  1.1584  2.8659
   11CHL1    C7  751   3.927   1.542   6.093  0.1061  0.5812 -1.0077
   11CHL1   H7A  752   4.024   1.516   6.045  0.4971  0.9347 -0.4150
   11CHL1   H7B  753   3.854   1.468   6.055 -0.4867  1.3440 -1.3892
   11CHL1    C8  754   3.868   1.691   6.062  0.4593 -0.1015  0.4406
   11CHL1    H8  755   3.949   1.766   6.071  1.4296 -1.2875  1.9170
   11CHL1   C14  756   3.802   1.681   5.927  0.7780  0.1438  0.7357
   11CHL1   H14  757   3.714   1.615   5.936  2.2978 -1.8984  1.3619
   11CHL1   C15  758   3.880   1.630   5.811 -0.3232 -0.9722 -0.0415
   11CHL1  H15A  759   3.983   1.671   5.806 -1.1226  1.5196  1.8348
   11CHL1  H15B  760   3.877   1.519   5.806 -2.0933 -0.9210 -1.9315
   11CHL1   C16  761   3.805   1.690   5.687 -0.8662 -0.1095 -0.4729
   11CHL1  H16A  762   3.877   1.744   5.622 -2.9281 -2.4936 -5.2651
   11CHL1  H16B  763   3.754   1.613   5.626 -2.4394 -0.3265  1.0266
   11CHL1   C17  764   3.685   1.782   5.740 -0.6670 -0.2852  0.0148
   11CHL1   H17  765   3.590   1.725   5.754 -1.4005  1.5326  3.3995
   11CHL1   C13  766   3.730   1.811   5.883 -0.4301  0.5689  0.0773
   11CHL1   C18  767   3.838   1.921   5.894 -0.1730 -0.2784 -0.2313
   11CHL1  H18A  768   3.797   2.013   5.847  0.5988 -0.6351 -1.6764
   11CHL1  H18B  769   3.866   1.951   5.997 -1.9277  2.6793 -0.4892
   11CHL1  H18C  770   3.926   1.889   5.833 -0.6554  0.8800 -1.5929
   11CHL1   C12  771   3.620   1.833   5.992  0.3702 -0.7023  0.1224
   11CHL1  H12A  772   3.560   1.925   5.976  0.3248 -0.4622  1.5400
   11CHL1  H12B  773   3.542   1.754   5.987 -0.1955 -0.2066  0.7967
   11CHL1   C11  774   3.672   1.837   6.138  0.6592 -0.2936 -0.0625
   11CHL1  H11A  775   3.737   1.927   6.146 -1.3688  1.1857  0.6262
   11CHL1  H11B  776   3.592   1.854   6.213 -0.5103 -2.1687 -0.8325
   11CHL1    C9  777   3.762   1.717   6.167  0.2649 -0.7178 -0.0648
   11CHL1    H9  778   3.692   1.631   6.157 -0.8668  0.3209 -1.6620
   11CHL1   C10  779   3.811   1.715   6.307  0.0151  0.5172  0.7702
   11CHL1   C19  780   3.885   1.849   6.339 -0.0132 -0.3323  0.0821
   11CHL1  H19A  781   3.974   1.835   6.404  0.5526  0.8939 -0.3919
   11CHL1  H19B  782   3.932   1.898   6.251 -1.0884 -0.7071 -0.7328
   11CHL1  H19C  783   3.814   1.916   6.390 -0.1819 -1.8084  1.9152
   11CHL1    C1  784   3.686   1.710   6.407 -0.3202 -0.1021  0.2215
   11CHL1   H1A  785   3.637   1.810   6.405  3.3595  1.9660  1.5515
   11CHL1   H1B  786   3.612   1.639   6.365 -1.0540  0.1571  1.0498
   11CHL1    C2  787   3.728   1.683   6.552  0.7325 -0.3561  0.5966
   11CHL1   H2A  788   3.641   1.686   6.621  1.4404  2.6490  1.5167
   11CHL1   H2B  789   3.785   1.773   6.583  0.5169 -0.5310  1.5390
   11CHL1   C20  790   3.662   1.906   5.645 -0.5331  0.6661  0.2947
   11CHL1   H20  791   3.751   1.972   5.636 -1.1795  1.3336 -2.1008
   11CHL1   C21  792   3.548   2.000   5.697 -0.3747  0.2875  0.8003
   11CHL1  H21A  793   3.575   2.033   5.800  2.6486 -0.4178  0.3191
   11CHL1  H21B  794   3.448   1.951   5.705 -0.1417 -0.3030  0.1920
   11CHL1  H21C  795   3.533   2.087   5.630 -0.2837 -0.1962  0.1422
   11CHL1   C22  796   3.631   1.863   5.503  0.3702 -0.7007  1.0107
   11CHL1  H22A  797   3.713   1.799   5.463  1.5944  2.0064 -1.1585
   11CHL1  H22B  798   3.537   1.804   5.503  1.4251 -2.4978 -0.7273
   11CHL1   C23  799   3.616   1.982   5.404 -0.1891  0.0988  0.2378
   11CHL1  H23A  800   3.527   2.043   5.431 -0.6567 -0.2847 -0.4037
   11CHL1  H23B  801   3.707   2.046   5.397 -0.5721  0.4989 -1.6887
   11CHL1   C24  802   3.590   1.926   5.264  0.7334 -0.1356 -0.4408
   11CHL1  H24A  803   3.674   1.858   5.237  1.0524 -1.6893  3.7069
   11CHL1  H24B  804   3.499   1.862   5.264  0.1760  0.6360 -1.0117
   11CHL1   C25  805   3.562   2.027   5.140 -1.0936 -0.0460  0.0283
   11CHL1   H25  806   3.558   1.965   5.048 -1.2359  0.7765 -0.5199
   11CHL1   C26  807   3.432   2.097   5.141  0.7823 -0.1537  0.2644
   11CHL1  H26A  808   3.433   2.171   5.058  1.3533 -1.5077 -0.9817
   11CHL1  H26B  809   3.344   2.032   5.123  3.3060 -3.1104 -2.7825
   11CHL1  H26C  810   3.424   2.166   5.227  0.0918  2.3867 -1.7025
   11CHL1   C27  811   3.680   2.126   5.124  0.2498  0.7858  0.7917
   11CHL1  H27A  812   3.676   2.204   5.203 -0.7145  1.5585  0.0151
   11CHL1  H27B  813   3.779   2.077   5.120 -0.3357 -0.3555 -1.4188
   11CHL1  H27C  814   3.666   2.167   5.022 -2.0731  0.9088  1.1024
   12CHL1    C3  815   4.909   2.948   7.288  0.3058  0.3634 -0.1429
   12CHL1    H3  816   4.869   3.052   7.285 -0.4916  0.0432 -1.7012
   12CHL1    O3  817   4.947   2.911   7.422 -0.3013 -0.0379  0.2600
   12CHL1   H3'  818   4.987   2.824   7.415  0.3154  0.3711 -2.4795
   12CHL1    C4  819   4.811   2.852   7.225 -0.6164 -0.0092 -0.4953
   12CHL1   H4A  820   4.866   2.756   7.217 -0.7820 -0.2404  0.8511
   12CHL1   H4B  821   4.718   2.838   7.285 -1.8891  0.1788 -2.3255
   12CHL1    C5  822   4.774   2.900   7.089  0.9905 -0.5458  0.2235
   12CHL1    C6  823   4.641   2.945   7.055  0.7696  0.3006 -0.3473
   12CHL1    H6  824   4.560   2.935   7.129 -1.8360 -2.3827 -3.2606
   12CHL1    C7  825   4.607   2.997   6.921  0.6267 -0.3714 -0.3526
   12CHL1   H7A  826   4.510   2.958   6.885  0.7436 -0.7485 -0.2637
   12CHL1   H7B  827   4.603   3.107   6.929  0.5200 -0.4453  0.8568
   12CHL1    C8  828   4.716   2.956   6.810  0.0372 -0.1258 -0.3059
   12CHL1    H8  829   4.703   2.847   6.796  0.2980 -0.0234 -1.4796
   12CHL1   C14  830   4.689   3.029   6.678 -0.0959  0.3449 -0.1038
   12CHL1   H14  831   4.705   3.137   6.699  2.1230  0.1106 -0.3823
   12CHL1   C15  832   4.550   3.020   6.616  1.1595  0.1468  0.5534
   12CHL1  H15A  833   4.501   2.920   6.624 -1.5656  1.5375  3.2758
   12CHL1  H15B  834   4.473   3.088   6.658  0.0087 -0.5927 -0.2898
   12CHL1   C16  835   4.559   3.048   6.468  0.3443 -0.1304 -0.0827
   12CHL1  H16A  836   4.502   2.978   6.403  2.3084 -0.4456 -1.5679
   12CHL1  H16B  837   4.523   3.151   6.454 -1.6783 -0.9171 -0.9577
   12CHL1   C17  838   4.715   3.061   6.451  0.0940  0.1881  0.2805
   12CHL1   H17  839   4.744   3.165   6.478 -2.6655  1.1657 -0.2781
   12CHL1   C13  840   4.783   2.985   6.565 -0.0846  0.0770 -0.1008
   12CHL1   C18  841   4.771   2.833   6.537 -0.1547 -0.1575 -0.0140
   12CHL1  H18A  842   4.806   2.792   6.634  0.2595  1.7038  0.6550
   12CHL1  H18B  843   4.671   2.791   6.514 -0.2409  0.9385 -1.8518
   12CHL1  H18C  844   4.843   2.802   6.458 -0.1011 -3.0819  1.0546
   12CHL1   C12  845   4.926   3.025   6.606  0.0526  0.0466 -0.5885
   12CHL1  H12A  846   4.982   2.989   6.517 -0.4899 -1.1880 -0.4531
   12CHL1  H12B  847   4.945   3.134   6.616 -1.4205  0.2131  0.6888
   12CHL1   C11  848   4.967   2.977   6.753  0.4991  0.3006 -0.0466
   12CHL1  H11A  849   4.996   2.870   6.747  1.2970  0.3075  2.5040
   12CHL1  H11B  850   5.065   3.020   6.782  1.0160  1.2767 -2.9433
   12CHL1    C9  851   4.854   2.988   6.858  0.5244 -0.1012 -1.0319
   12CHL1    H9  852   4.861   3.097   6.878  0.6284 -0.4946  1.5105
   12CHL1   C10  853   4.895   2.913   6.997  0.1117  0.4714 -0.1281
   12CHL1   C19  854   4.951   2.769   6.967 -0.6909 -0.3243 -0.2606
   12CHL1  H19A  855   4.872   2.705   6.922  1.0512 -0.9535 -2.6467
   12CHL1  H19B  856   5.039   2.765   6.899 -0.4374 -1.1229  0.1033
   12CHL1  H19C  857   4.982   2.722   7.063 -1.2944 -1.3179 -0.5384
   12CHL1    C1  858   5.003   2.998   7.066 -0.5129  0.6287 -0.1586
   12CHL1   H1A  859   5.093   2.985   7.002 -0.1678 -1.3508  0.6377
   12CHL1   H1B  860   4.974   3.105   7.059  1.2028  1.3938  2.7745
   12CHL1    C2  861   5.039   2.950   7.207 -0.7739  0.4260 -0.0601
   12CHL1   H2A  862   5.116   3.007   7.263  1.2634 -0.8831 -1.3755
   12CHL1   H2B  863   5.088   2.850   7.201 -0.5916  0.5819 -1.5015
   12CHL1   C20  864   4.760   3.047   6.313 -0.4578 -0.0281  0.7776
   12CHL1   H20  865   4.868   3.023   6.319  0.5944  3.8537  0.1209
   12CHL1   C21  866   4.738   3.184   6.245  0.0182 -0.1318  0.6364
   12CHL1  H21A  867   4.793   3.264   6.298 -0.1372  2.1727 -2.4342
   12CHL1  H21B  868   4.628   3.194   6.242 -0.1172 -1.4178  0.6148
   12CHL1  H21C  869   4.764   3.180   6.137 -2.7343 -0.5732 -0.0755
   12CHL1   C22  870   4.701   2.931   6.227 -0.0095 -0.8987 -0.3418
   12CHL1  H22A  871   4.668   2.840   6.282 -1.2847 -0.6317 -0.6490
   12CHL1  H22B  872   4.610   2.975   6.183  0.4531  0.1920 -0.2411
   12CHL1   C23  873   4.795   2.893   6.114 -0.0544 -0.0238  0.7184
   12CHL1  H23A  874   4.856   2.977   6.073 -3.7480  2.7741  0.4521
   12CHL1  H23B  875   4.869   2.820   6.153 -2.5807 -3.7543 -0.9826
   12CHL1   C24  876   4.718   2.843   5.993 -0.4849  0.1855 -0.1673
   12CHL1  H24A  877   4.690   2.735   5.999 -0.9822  0.2849 -0.6486
   12CHL1  H24B  878   4.625   2.902   5.982 -1.5796 -1.1223  1.5773
   12CHL1   C25  879   4.794   2.849   5.865 -0.9045  0.1269  0.0203
   12CHL1   H25  880   4.817   2.956   5.843 -1.4924  0.1594 -0.4678
   12CHL1   C26  881   4.930   2.777   5.861  0.4010 -0.1377  0.0418
   12CHL1  H26A  882   4.980   2.774   5.762  1.2133 -1.9043  0.4527
   12CHL1  H26B  883   4.993   2.833   5.934 -1.8473  1.3350  0.9494
   12CHL1  H26C  884   4.924   2.668   5.884 -0.2694  0.1164  1.1069
   12CHL1   C27  885   4.698   2.808   5.751  0.5709  0.3118 -0.6976
   12CHL1  H27A  886   4.615   2.880   5.734 -0.3085 -0.4939  0.0715
   12CHL1  H27B  887   4.759   2.812   5.658 -1.7960  0.4121 -2.3463
   12CHL1  H27C  888   4.659   2.705   5.766  1.5133  0.1376  0.7906
   13CHL1    C3  889   4.255   2.558   7.098 -0.5006 -0.0771  0.4839
   13CHL1    H3  890   4.157   2.506   7.104 -0.3046 -0.6851 -0.9249
   13CHL1    O3  891   4.272   2.611   7.227  0.6308 -0.3763  0.2174
   13CHL1   H3'  892   4.194   2.667   7.230  1.0377  0.3188 -1.2454
   13CHL1    C4  893   4.363   2.454   7.069  0.5380 -0.2501 -0.0015
   13CHL1   H4A  894   4.460   2.485   7.112  0.9375 -2.3449  0.6902
   13CHL1   H4B  895   4.339   2.360   7.123 -0.9838 -0.1479 -0.4322
   13CHL1    C5  896   4.385   2.421   6.923  0.1674 -0.1910 -0.0352
   13CHL1    C6  897   4.388   2.296   6.874 -0.3007 -0.5330  0.3512
   13CHL1    H6  898   4.381   2.213   6.946 -2.4748 -0.3916  0.3787
   13CHL1    C7  899   4.433   2.257   6.740  0.4894 -0.3613  0.5470
   13CHL1   H7A  900   4.516   2.182   6.738  0.4534 -0.4080 -1.5233
   13CHL1   H7B  901   4.357   2.201   6.682  1.2274 -0.3101 -0.4986
   13CHL1    C8  902   4.479   2.371   6.647 -0.7063 -0.7271 -0.5893
   13CHL1    H8  903   4.584   2.378   6.682 -0.8412 -3.3421  0.5652
   13CHL1   C14  904   4.461   2.342   6.494  0.4108 -0.2692 -0.0127
   13CHL1   H14  905   4.352   2.329   6.477  0.7587 -2.1128 -1.0709
   13CHL1   C15  906   4.540   2.221   6.435  0.3155 -0.3286  0.5005
   13CHL1  H15A  907   4.641   2.230   6.480  0.2316 -0.6081  0.7452
   13CHL1  H15B  908   4.499   2.122   6.463  1.7421 -1.2165 -0.4458
   13CHL1   C16  909   4.517   2.246   6.286  0.0227  0.3184 -0.2189
   13CHL1  H16A  910   4.606   2.217   6.226  0.8291  0.7662  0.7344
   13CHL1  H16B  911   4.440   2.170   6.260 -0.1223  0.3738  0.0468
   13CHL1   C17  912   4.458   2.390   6.276 -0.2672  0.8869 -0.4503
   13CHL1   H17  913   4.350   2.365   6.263  0.2760 -0.5877 -2.9340
   13CHL1   C13  914   4.492   2.456   6.403  1.1616 -0.1225 -0.3242
   13CHL1   C18  915   4.642   2.491   6.422 -0.1884  0.0669  0.3631
   13CHL1  H18A  916   4.699   2.407   6.378  0.1973  0.3183  0.3832
   13CHL1  H18B  917   4.665   2.587   6.370 -0.0513 -0.1403  0.0324
   13CHL1  H18C  918   4.688   2.505   6.522  0.7109  0.5471 -0.1025
   13CHL1   C12  919   4.402   2.577   6.446 -0.3085 -0.8887  0.1139
   13CHL1  H12A  920   4.427   2.670   6.391  0.6861  0.4429  2.6898
   13CHL1  H12B  921   4.295   2.560   6.419 -0.5171  2.9728 -2.1803
   13CHL1   C11  922   4.420   2.621   6.590 -0.4155  0.3653 -0.4809
   13CHL1  H11A  923   4.529   2.644   6.598  0.3298 -2.4013 -1.3350
   13CHL1  H11B  924   4.367   2.716   6.612  1.0830  0.5577  2.9124
   13CHL1    C9  925   4.399   2.499   6.683 -0.0881 -0.7207 -0.2416
   13CHL1    H9  926   4.294   2.465   6.668 -1.7353  2.0163  3.4505
   13CHL1   C10  927   4.401   2.542   6.835  0.3137  0.3377  0.5299
   13CHL1   C19  928   4.537   2.615   6.863  0.5327  0.2480  0.1592
   13CHL1  H19A  929   4.533   2.714   6.813 -2.0327 -0.7854 -1.9428
   13CHL1  H19B  930   4.549   2.622   6.973  1.6100 -0.3405  0.0937
   13CHL1  H19C  931   4.624   2.560   6.822  0.5967  0.5643 -0.1340
   13CHL1    C1  932   4.278   2.645   6.853  0.3524 -0.1509 -0.7141
   13CHL1   H1A  933   4.303   2.740   6.802 -0.8183  1.4587  1.5178
   13CHL1   H1B  934   4.187   2.608   6.800  0.0092  0.6713 -0.7164
   13CHL1    C2  935   4.257   2.682   7.006  0.5545 -0.2988  0.2800
   13CHL1   H2A  936   4.169   2.748   7.022  0.7722  0.6068 -1.9863
   13CHL1   H2B  937   4.347   2.739   7.037  0.3962 -0.1012  0.3772
   13CHL1   C20  938   4.491   2.458   6.147  0.0336 -0.6299  0.0396
   13CHL1   H20  939   4.602   2.456   6.140  0.1802 -0.4793  1.8616
   13CHL1   C21  940   4.436   2.606   6.135  0.1007  0.3974 -0.6468
   13CHL1  H21A  941   4.462   2.644   6.034 -0.2758 -0.4338 -1.0648
   13CHL1  H21B  942   4.494   2.673   6.202  2.2182  0.6360 -2.6101
   13CHL1  H21C  943   4.326   2.615   6.150 -0.3586 -1.6614 -2.3705
   13CHL1   C22  944   4.453   2.374   6.021  0.1301  0.0650  0.3203
   13CHL1  H22A  945   4.509   2.279   6.034  0.2084 -0.2123 -1.7381
   13CHL1  H22B  946   4.345   2.347   6.027  0.2450 -0.9795 -1.6949
   13CHL1   C23  947   4.469   2.448   5.889 -0.6838  0.0020  0.5831
   13CHL1  H23A  948   4.397   2.530   5.874 -0.9365  0.2509  2.8246
   13CHL1  H23B  949   4.569   2.496   5.877 -1.3979  0.9929 -1.9702
   13CHL1   C24  950   4.457   2.362   5.764 -0.3874  0.0119  0.4712
   13CHL1  H24A  951   4.513   2.266   5.767 -2.0339 -0.9633  1.4167
   13CHL1  H24B  952   4.350   2.334   5.753 -0.6581  1.5281 -1.3094
   13CHL1   C25  953   4.501   2.433   5.634 -0.3543 -0.2631  0.2835
   13CHL1   H25  954   4.445   2.528   5.626 -2.0993 -1.3197 -0.6486
   13CHL1   C26  955   4.657   2.458   5.623 -0.1773 -0.1811 -0.2293
   13CHL1  H26A  956   4.719   2.373   5.590  2.1594 -0.0552  3.3161
   13CHL1  H26B  957   4.676   2.540   5.550  4.0819  1.6593  2.5653
   13CHL1  H26C  958   4.701   2.486   5.721  1.5424  1.3507 -1.3748
   13CHL1   C27  959   4.442   2.349   5.514  0.2614  0.2770 -0.2492
   13CHL1  H27A  960   4.474   2.243   5.511  0.9809  0.3926  1.8573
   13CHL1  H27B  961   4.332   2.344   5.525  0.2914 -3.1269 -0.4814
   13CHL1  H27C  962   4.452   2.401   5.416 -0.4846  0.8167 -0.0544
   14CHL1    C3  963   3.770   5.087   6.568 -0.9887 -0.6278  0.0999
   14CHL1    H3  964   3.831   5.177   6.590 -1.3945  0.4242 -2.5919
   14CHL1    O3  965   3.693   5.040   6.672  0.4364 -0.2223  0.3392
   14CHL1   H3'  966   3.633   4.980   6.627 -0.8301  0.0810  1.5709
   14CHL1    C4  967   3.669   5.129   6.459  0.5179 -0.3073  0.6958
   14CHL1   H4A  968   3.594   5.048   6.445 -0.2322  0.0467  2.4545
   14CHL1   H4B  969   3.614   5.213   6.506 -1.3724 -2.0812  1.7847
   14CHL1    C5  970   3.719   5.153   6.314  0.1477  0.3734 -0.6170
   14CHL1    C6  971   3.701   5.265   6.248  0.0904  0.1349  0.4973
   14CHL1    H6  972   3.635   5.346   6.282 -0.4804  0.4578 -1.2727
   14CHL1    C7  973   3.747   5.291   6.104 -0.6781  0.3880  0.2285
   14CHL1   H7A  974   3.693   5.367   6.043  0.4891  0.9281 -0.1608
   14CHL1   H7B  975   3.850   5.332   6.115 -0.6384  0.2810  0.2564
   14CHL1    C8  976   3.770   5.152   6.036  0.0171  0.2444 -0.1249
   14CHL1    H8  977   3.676   5.095   6.021 -1.9694  3.4999 -1.2361
   14CHL1   C14  978   3.829   5.174   5.900 -0.0934  0.1404  0.3117
   14CHL1   H14  979   3.917   5.242   5.910  1.3153 -1.8047  1.9772
   14CHL1   C15  980   3.734   5.239   5.796  0.2522  0.2487  0.2625
   14CHL1  H15A  981   3.628   5.205   5.798  0.4637 -0.5946 -1.4319
   14CHL1  H15B  982   3.746   5.350   5.795  2.0504  0.0954 -1.3635
   14CHL1   C16  983   3.779   5.196   5.656 -0.5483  0.5416 -0.2907
   14CHL1  H16A  984   3.687   5.148   5.616 -0.8599  0.2610  0.7299
   14CHL1  H16B  985   3.818   5.281   5.596  0.2139  1.5699  1.5918
   14CHL1   C17  986   3.896   5.101   5.680  0.9956 -0.2365  0.3465
   14CHL1   H17  987   3.990   5.161   5.681  0.9306 -0.0723 -1.1162
   14CHL1   C13  988   3.870   5.043   5.826 -0.4516 -0.1669 -0.1453
   14CHL1   C18  989   3.757   4.940   5.814  1.1256  0.3498  0.3290
   14CHL1  H18A  990   3.782   4.846   5.759 -1.7721 -0.4211  0.1935
   14CHL1  H18B  991   3.722   4.912   5.915  1.4358  2.0277  0.9302
   14CHL1  H18C  992   3.668   4.985   5.766 -0.0896 -0.9806  1.2489
   14CHL1   C12  993   3.989   4.985   5.910  0.3250 -0.3556 -0.1759
   14CHL1  H12A  994   4.007   4.884   5.867 -0.8354 -0.3402 -0.7614
   14CHL1  H12B  995   4.074   5.056   5.902  0.5867 -0.5408  0.8314
   14CHL1   C11  996   3.948   4.954   6.057 -0.3535  0.5008 -0.7367
   14CHL1  H11A  997   3.885   4.862   6.053 -0.2617  0.4678 -1.5676
   14CHL1  H11B  998   4.043   4.930   6.108 -0.5604 -1.6885 -1.2881
   14CHL1    C9  999   3.868   5.066   6.130  0.8567  1.0086  0.0663
   14CHL1    H9 1000   3.949   5.139   6.149 -0.8307  2.8657  0.4253
   14CHL1   C10 1001   3.811   5.034   6.276 -0.6225 -0.3228  0.3862
   14CHL1   C19 1002   3.740   4.900   6.267 -0.1389  0.1702  0.5212
   14CHL1  H19A 1003   3.802   4.808   6.256 -0.4999 -0.1609  1.1872
   14CHL1  H19B 1004   3.674   4.873   6.352  0.3194 -2.8803  0.0584
   14CHL1  H19C 1005   3.685   4.907   6.170  1.0672  2.6433 -0.0489
   14CHL1    C1 1006   3.926   5.012   6.383 -0.1082 -0.0294 -0.1922
   14CHL1   H1A 1007   4.000   4.936   6.350 -2.1893 -2.1507 -0.1739
   14CHL1   H1B 1008   3.971   5.112   6.405 -0.3550  0.5922 -2.2636
   14CHL1    C2 1009   3.872   4.978   6.525 -0.2075 -0.5911  0.8654
   14CHL1   H2A 1010   3.947   4.981   6.607  0.4422  1.4158  0.2590
   14CHL1   H2B 1011   3.827   4.876   6.526 -2.3867  0.1625 -2.6850
   14CHL1   C20 1012   3.905   4.996   5.567  0.7493  0.1505  0.5128
   14CHL1   H20 1013   3.825   4.919   5.570 -0.7008  1.3405 -2.9425
   14CHL1   C21 1014   4.045   4.930   5.578  0.2041  0.2888 -0.1076
   14CHL1  H21A 1015   4.122   4.989   5.633  0.0293 -0.0831  0.5484
   14CHL1  H21B 1016   4.094   4.896   5.485 -2.5099 -1.3250 -1.0620
   14CHL1  H21C 1017   4.023   4.839   5.638  1.5378  0.1284  0.1678
   14CHL1   C22 1018   3.874   5.067   5.427  0.4114  0.2080 -0.3265
   14CHL1  H22A 1019   3.770   5.106   5.421  0.4232  0.7885  2.1634
   14CHL1  H22B 1020   3.941   5.155   5.419  0.9701 -0.2625 -0.9295
   14CHL1   C23 1021   3.898   4.975   5.304 -0.1448 -0.3929 -0.8371
   14CHL1  H23A 1022   3.999   5.001   5.266 -0.1056  0.0186 -0.4527
   14CHL1  H23B 1023   3.902   4.868   5.332  0.5386 -0.6253 -1.7725
   14CHL1   C24 1024   3.803   4.987   5.187  0.2643 -0.0318  0.1159
   14CHL1  H24A 1025   3.698   4.966   5.217 -0.2310  1.5082 -0.4039
   14CHL1  H24B 1026   3.810   5.092   5.151 -1.4870 -0.6096 -2.1220
   14CHL1   C25 1027   3.828   4.895   5.071 -0.3118 -0.0226  0.1844
   14CHL1   H25 1028   3.774   4.799   5.087  1.0051 -0.8510 -0.1952
   14CHL1   C26 1029   3.762   4.967   4.956 -0.1908 -0.7074  0.1077
   14CHL1  H26A 1030   3.665   5.009   4.991  1.6126  3.0841  1.0686
   14CHL1  H26B 1031   3.817   5.052   4.910  1.6636 -1.5065  0.7705
   14CHL1  H26C 1032   3.734   4.899   4.873 -1.1293  1.2255 -1.2439
   14CHL1   C27 1033   3.977   4.871   5.033  0.3880  0.1029 -0.2175
   14CHL1  H27A 1034   4.032   4.826   5.118 -0.5048 -3.1958 -1.2607
   14CHL1  H27B 1035   3.996   4.816   4.938  1.0789  1.1990 -0.7506
   14CHL1  H27C 1036   4.028   4.969   5.022 -0.3254  0.3011 -2.1551
   15CHL1    C3 1037   3.625   0.168   6.969  0.1085 -0.3604 -0.0830
   15CHL1    H3 1038   3.526   0.217   6.976  1.7834  3.3623 -0.2789
   15CHL1    O3 1039   3.668   0.141   7.101 -0.2542 -1.1942  0.1552
   15CHL1   H3' 1040   3.677   0.223   7.150  0.4850 -0.6089 -0.9164
   15CHL1    C4 1041   3.630   0.034   6.895  0.2563 -0.0228  0.4532
   15CHL1   H4A 1042   3.732  -0.008   6.910 -0.0171 -1.4985 -1.4579
   15CHL1   H4B 1043   3.559  -0.037   6.941 -1.3527  1.2961  0.0970
   15CHL1    C5 1044   3.593   0.041   6.745 -0.5289  0.5574 -0.3909
   15CHL1    C6 1045   3.484  -0.014   6.682 -0.8001  0.7131  0.2736
   15CHL1    H6 1046   3.414  -0.084   6.731 -0.1378 -2.5666 -2.9981
   15CHL1    C7 1047   3.453  -0.006   6.532  0.2127  0.6165  0.3842
   15CHL1   H7A 1048   3.438  -0.109   6.495  2.1908  0.8009 -1.1159
   15CHL1   H7B 1049   3.366   0.062   6.522 -0.3518 -0.1449  0.0260
   15CHL1    C8 1050   3.576   0.052   6.450  0.1922  0.3428 -0.0155
   15CHL1    H8 1051   3.666  -0.012   6.461  2.1353  2.8855  0.0976
   15CHL1   C14 1052   3.537   0.077   6.310 -0.1390 -0.3631  0.7488
   15CHL1   H14 1053   3.449   0.145   6.312 -0.9922 -1.2806 -1.7403
   15CHL1   C15 1054   3.491  -0.045   6.225 -0.0996 -0.0942 -0.3574
   15CHL1  H15A 1055   3.549  -0.137   6.246 -1.1264 -0.9294 -1.0505
   15CHL1  H15B 1056   3.384  -0.070   6.241  0.0946 -1.0193 -0.4507
   15CHL1   C16 1057   3.515  -0.002   6.080 -0.3112 -0.4854  0.1348
   15CHL1  H16A 1058   3.589  -0.067   6.027 -1.8531 -2.6184  0.4846
   15CHL1  H16B 1059   3.421   0.000   6.021  0.4992  0.5238 -1.1920
   15CHL1   C17 1060   3.572   0.149   6.090 -0.3107  0.5324  0.6201
   15CHL1   H17 1061   3.486   0.219   6.102 -2.1640 -1.4686 -0.1751
   15CHL1   C13 1062   3.646   0.148   6.223 -0.8296 -0.5045 -0.3688
   15CHL1   C18 1063   3.770   0.062   6.209 -0.6069  0.0257  0.8503
   15CHL1  H18A 1064   3.759  -0.023   6.138  0.8767  1.2784 -0.9779
   15CHL1  H18B 1065   3.854   0.113   6.158 -1.0211 -1.0309 -0.9723
   15CHL1  H18C 1066   3.802   0.025   6.309 -2.0065  1.1619  1.7653
   15CHL1   C12 1067   3.675   0.285   6.292  0.6533 -0.1200  0.2173
   15CHL1  H12A 1068   3.761   0.326   6.235  1.4270 -1.9460  0.0151
   15CHL1  H12B 1069   3.584   0.349   6.297  1.8611  1.6085  0.8594
   15CHL1   C11 1070   3.725   0.258   6.433  0.2471 -1.0707 -0.0246
   15CHL1  H11A 1071   3.825   0.209   6.428  0.4150 -0.8045  0.6358
   15CHL1  H11B 1072   3.743   0.356   6.482  1.7462 -0.5184 -1.5771
   15CHL1    C9 1073   3.621   0.182   6.523  0.3318  0.2654 -0.4146
   15CHL1    H9 1074   3.532   0.248   6.535  1.5611  1.4074  4.0667
   15CHL1   C10 1075   3.675   0.146   6.667 -0.4948 -0.7839 -0.5648
   15CHL1   C19 1076   3.813   0.085   6.652 -0.9563 -0.4518 -0.7890
   15CHL1  H19A 1077   3.857   0.048   6.748 -1.3641 -2.0715 -1.1933
   15CHL1  H19B 1078   3.824   0.009   6.572  2.2976 -0.2245 -0.6844
   15CHL1  H19C 1079   3.874   0.170   6.614 -0.9785  0.5085  1.1950
   15CHL1    C1 1080   3.670   0.281   6.753 -0.4531 -0.3043 -0.1705
   15CHL1   H1A 1081   3.729   0.367   6.713 -2.3537  0.9046 -0.4711
   15CHL1   H1B 1082   3.563   0.307   6.764 -0.7030  0.0331 -2.7897
   15CHL1    C2 1083   3.715   0.271   6.899 -0.4974  0.8538 -0.2493
   15CHL1   H2A 1084   3.720   0.377   6.934  0.4144  0.1993  1.7873
   15CHL1   H2B 1085   3.823   0.246   6.909 -0.3574  1.8496  1.2653
   15CHL1   C20 1086   3.648   0.181   5.962 -0.2865 -0.1137  0.4077
   15CHL1   H20 1087   3.724   0.100   5.955 -0.0746 -0.0476  1.7355
   15CHL1   C21 1088   3.732   0.315   5.964 -0.4023  0.3820 -0.5983
   15CHL1  H21A 1089   3.669   0.405   5.982 -1.2271 -0.1736 -0.6270
   15CHL1  H21B 1090   3.798   0.328   5.876 -0.2092 -0.0461 -0.5199
   15CHL1  H21C 1091   3.811   0.298   6.040 -0.3922  0.9089 -0.4874
   15CHL1   C22 1092   3.563   0.186   5.835  0.9354  0.9487 -0.1320
   15CHL1  H22A 1093   3.477   0.116   5.839  1.3642  0.4623  1.0974
   15CHL1  H22B 1094   3.502   0.280   5.832 -0.3072  0.2732  2.0768
   15CHL1   C23 1095   3.640   0.164   5.700 -0.5162  0.2401 -0.3905
   15CHL1  H23A 1096   3.706   0.251   5.679 -1.2531  0.4260 -2.0446
   15CHL1  H23B 1097   3.707   0.076   5.706 -1.1092 -0.6634 -4.2731
   15CHL1   C24 1098   3.544   0.155   5.583  0.0961 -0.1662 -0.2239
   15CHL1  H24A 1099   3.462   0.080   5.596  0.8128 -0.7154  1.5114
   15CHL1  H24B 1100   3.501   0.257   5.576 -2.7062 -1.2217 -0.0587
   15CHL1   C25 1101   3.630   0.119   5.456 -1.1668  0.0692 -0.3556
   15CHL1   H25 1102   3.729   0.166   5.475 -1.4261  0.3257  0.4377
   15CHL1   C26 1103   3.648  -0.031   5.447  0.9199  0.0399  0.6112
   15CHL1  H26A 1104   3.696  -0.066   5.540  0.4867  0.2056  0.8976
   15CHL1  H26B 1105   3.552  -0.087   5.437 -0.1268  2.0520 -1.8244
   15CHL1  H26C 1106   3.710  -0.052   5.357  0.9613  0.3134  0.5762
   15CHL1   C27 1107   3.578   0.168   5.324  0.4555 -1.1038 -0.0327
   15CHL1  H27A 1108   3.479   0.122   5.302  1.0038 -1.6042 -1.5733
   15CHL1  H27B 1109   3.576   0.279   5.316  1.9441 -1.2116 -2.8934
   15CHL1  H27C 1110   3.642   0.126   5.244 -1.0397 -1.6490 -0.9934
   16CHL1    C3 1111   1.881   2.426   7.163  0.2678  0.0749 -0.0141
   16CHL1    H3 1112   1.825   2.331   7.149  0.2355  0.0991 -0.0487
   16CHL1    O3 1113   1.891   2.477   7.293 -0.0892 -0.1358  0.3281
   16CHL1   H3' 1114   1.919   2.568   7.280 -1.2355  0.2036  0.0978
   16CHL1    C4 1115   2.020   2.416   7.087 -0.1197 -0.2154 -0.6284
   16CHL1   H4A 1116   2.057   2.518   7.108 -1.2489 -0.2459  1.8904
   16CHL1   H4B 1117   2.082   2.342   7.141  0.8759  0.6024 -0.6247
   16CHL1    C5 1118   2.014   2.377   6.944  0.5778  0.4277 -0.4713
   16CHL1    C6 1119   2.080   2.264   6.898 -0.2822  0.3035  0.8146
   16CHL1    H6 1120   2.136   2.206   6.973 -0.3453 -0.9253 -0.0684
   16CHL1    C7 1121   2.079   2.220   6.754 -0.0152 -0.3263  0.2380
   16CHL1   H7A 1122   2.186   2.214   6.726  0.0029  0.9389  0.0047
   16CHL1   H7B 1123   2.034   2.118   6.751 -1.6973  0.3273  1.5422
   16CHL1    C8 1124   2.007   2.320   6.657 -0.0065  0.3916 -0.1329
   16CHL1    H8 1125   2.075   2.404   6.633  1.4624 -1.3620 -2.6315
   16CHL1   C14 1126   1.966   2.242   6.540 -0.0598 -0.1068  0.2845
   16CHL1   H14 1127   1.891   2.167   6.570  1.3208 -1.4240  0.5653
   16CHL1   C15 1128   2.068   2.149   6.472 -0.8698  0.1071  0.1826
   16CHL1  H15A 1129   2.169   2.194   6.470 -1.0272  0.4336 -0.9202
   16CHL1  H15B 1130   2.055   2.045   6.508  0.9625 -0.0065  0.5789
   16CHL1   C16 1131   2.018   2.149   6.326 -0.0300  0.0564  0.8678
   16CHL1  H16A 1132   2.093   2.200   6.262 -1.8396  0.3642 -1.1595
   16CHL1  H16B 1133   1.993   2.043   6.302 -0.0590  0.3018 -0.2402
   16CHL1   C17 1134   1.885   2.228   6.310  0.0813 -0.3006  0.1700
   16CHL1   H17 1135   1.794   2.168   6.328 -1.0214  1.1485 -0.4454
   16CHL1   C13 1136   1.890   2.329   6.431  0.1663  0.4132  0.2625
   16CHL1   C18 1137   1.983   2.447   6.387  0.1959 -0.2960  0.7723
   16CHL1  H18A 1138   2.072   2.416   6.328 -0.4868  0.2808 -0.5961
   16CHL1  H18B 1139   1.922   2.514   6.324  2.3064  0.8331 -0.1944
   16CHL1  H18C 1140   2.013   2.517   6.468  1.2210  2.4226 -1.7755
   16CHL1   C12 1141   1.759   2.383   6.493  0.5666  0.0208 -0.5606
   16CHL1  H12A 1142   1.706   2.462   6.435  0.5040 -0.5676 -1.3307
   16CHL1  H12B 1143   1.691   2.295   6.499  2.4418 -1.5827 -1.3076
   16CHL1   C11 1144   1.792   2.449   6.628  0.2027  0.3623  0.3402
   16CHL1  H11A 1145   1.845   2.543   6.599  2.7925 -0.7890  1.0616
   16CHL1  H11B 1146   1.695   2.466   6.681 -0.3202 -1.9231  0.1969
   16CHL1    C9 1147   1.885   2.377   6.727 -0.9774  0.5253  0.0273
   16CHL1    H9 1148   1.816   2.298   6.763 -1.2420 -0.3203 -2.1810
   16CHL1   C10 1149   1.916   2.458   6.858  0.1157  0.0766 -0.3874
   16CHL1   C19 1150   1.971   2.596   6.826 -0.2094  0.2092  0.3880
   16CHL1  H19A 1151   1.901   2.651   6.759 -1.3028 -1.6348 -0.0506
   16CHL1  H19B 1152   1.977   2.658   6.918  1.8876 -1.5318  1.5147
   16CHL1  H19C 1153   2.072   2.581   6.783 -0.7271  0.2069 -0.8684
   16CHL1    C1 1154   1.778   2.476   6.933 -0.0737  0.5302 -0.0851
   16CHL1   H1A 1155   1.709   2.544   6.878 -0.2548  0.5200  0.1262
   16CHL1   H1B 1156   1.724   2.379   6.939  2.1354 -0.9396 -2.2097
   16CHL1    C2 1157   1.796   2.528   7.077  0.1534 -0.3009 -0.0140
   16CHL1   H2A 1158   1.695   2.537   7.122  0.4979 -0.3397  0.7685
   16CHL1   H2B 1159   1.833   2.633   7.075  0.9755 -0.5861 -1.9196
   16CHL1   C20 1160   1.874   2.283   6.159 -0.0138  0.5932  0.6393
   16CHL1   H20 1161   1.954   2.354   6.128 -2.1787  2.1259 -1.8051
   16CHL1   C21 1162   1.751   2.375   6.148  0.0461 -0.5814 -0.4568
   16CHL1  H21A 1163   1.652   2.326   6.160  0.1065 -0.2604  1.8392
   16CHL1  H21B 1164   1.757   2.424   6.049 -1.9297  0.9855  0.1053
   16CHL1  H21C 1165   1.751   2.460   6.221 -3.7711  0.2114 -1.1391
   16CHL1   C22 1166   1.868   2.158   6.064 -0.0643  0.0358 -0.0473
   16CHL1  H22A 1167   1.967   2.107   6.061  0.4457  1.0215 -1.3420
   16CHL1  H22B 1168   1.797   2.083   6.105 -0.1014 -0.0935 -0.3479
   16CHL1   C23 1169   1.831   2.191   5.922  0.1677  0.3396  0.1167
   16CHL1  H23A 1170   1.744   2.257   5.898 -1.0820 -0.0998  3.0232
   16CHL1  H23B 1171   1.910   2.255   5.879  2.2203 -1.5678  0.8881
   16CHL1   C24 1172   1.834   2.066   5.835  0.6257  0.3487 -0.3105
   16CHL1  H24A 1173   1.836   2.097   5.728  0.0698 -1.6914 -0.9777
   16CHL1  H24B 1174   1.931   2.017   5.858  0.6811  0.5419 -0.1323
   16CHL1   C25 1175   1.710   1.971   5.851  0.2310 -0.9133  0.1597
   16CHL1   H25 1176   1.710   1.922   5.951  2.2549  0.4410  0.8953
   16CHL1   C26 1177   1.585   2.061   5.823  0.2717 -0.2538  0.0228
   16CHL1  H26A 1178   1.595   2.094   5.717 -0.8297 -0.8073 -0.2663
   16CHL1  H26B 1179   1.495   1.997   5.811  0.0534  0.1124 -0.2895
   16CHL1  H26C 1180   1.573   2.154   5.882 -0.6706 -0.0692 -0.4550
   16CHL1   C27 1181   1.718   1.866   5.741 -0.0178  0.2572 -0.0423
   16CHL1  H27A 1182   1.809   1.806   5.764 -0.2392 -1.0877 -2.3361
   16CHL1  H27B 1183   1.627   1.802   5.745  0.2198 -0.1708 -1.0855
   16CHL1  H27C 1184   1.726   1.919   5.643 -1.7153 -0.7543 -0.7635
   17CHL1    C3 1185   3.460   0.755   6.861  1.1344 -0.4250 -0.3403
   17CHL1    H3 1186   3.428   0.649   6.866  1.6791 -0.5465  1.3181
   17CHL1    O3 1187   3.492   0.769   7.000 -0.0957 -0.2669  0.1969
   17CHL1   H3' 1188   3.515   0.860   7.017 -0.7067 -0.3551  1.5918
   17CHL1    C4 1189   3.589   0.767   6.783  0.2051  0.3675  0.4716
   17CHL1   H4A 1190   3.639   0.864   6.808  1.3749 -0.1132  0.0630
   17CHL1   H4B 1191   3.659   0.691   6.823 -0.6685 -0.9401 -0.3979
   17CHL1    C5 1192   3.555   0.755   6.631 -0.3676 -0.0821  0.1157
   17CHL1    C6 1193   3.612   0.654   6.561 -0.0485 -0.3316  0.1393
   17CHL1    H6 1194   3.690   0.590   6.605  2.4983  3.4173  1.5917
   17CHL1    C7 1195   3.582   0.632   6.416  0.0962 -0.0457  0.1089
   17CHL1   H7A 1196   3.681   0.620   6.366  0.5983  1.7453  0.6034
   17CHL1   H7B 1197   3.531   0.534   6.405 -0.5923  0.0763  1.9195
   17CHL1    C8 1198   3.506   0.745   6.345 -0.1824 -0.0275 -0.0174
   17CHL1    H8 1199   3.572   0.834   6.336  0.3619 -0.5095 -0.9722
   17CHL1   C14 1200   3.466   0.703   6.206  0.5698 -0.1912  0.3138
   17CHL1   H14 1201   3.392   0.620   6.213 -0.9336  0.9825 -1.0033
   17CHL1   C15 1202   3.565   0.653   6.110 -0.7085  0.3625  0.6787
   17CHL1  H15A 1203   3.651   0.723   6.112  0.7781 -1.3425 -0.4857
   17CHL1  H15B 1204   3.595   0.548   6.133 -1.7945 -0.3479 -1.0401
   17CHL1   C16 1205   3.494   0.663   5.975  0.5776 -0.3949 -0.4207
   17CHL1  H16A 1206   3.565   0.727   5.918 -0.6490  1.9251  0.5312
   17CHL1  H16B 1207   3.483   0.560   5.936  2.6644 -0.4582 -0.9532
   17CHL1   C17 1208   3.353   0.733   5.995 -0.0767 -0.4630  0.0085
   17CHL1   H17 1209   3.283   0.648   6.006  1.0402 -1.2556  1.3981
   17CHL1   C13 1210   3.374   0.804   6.130  0.2791 -0.1211 -0.2102
   17CHL1   C18 1211   3.458   0.935   6.109  0.1051  0.6910  0.2582
   17CHL1  H18A 1212   3.551   0.924   6.049  1.1546  0.9293  1.7922
   17CHL1  H18B 1213   3.396   1.019   6.071  0.8346  0.9530 -0.3753
   17CHL1  H18C 1214   3.497   0.977   6.204  1.5850  1.2253 -0.5594
   17CHL1   C12 1215   3.252   0.831   6.225  0.4935 -0.3897  0.0998
   17CHL1  H12A 1216   3.181   0.904   6.181 -2.7078 -2.4411  1.4343
   17CHL1  H12B 1217   3.191   0.740   6.247  0.5757 -0.2648  0.8901
   17CHL1   C11 1218   3.295   0.895   6.356 -0.1878 -0.1644 -0.1220
   17CHL1  H11A 1219   3.349   0.990   6.336 -1.8398  0.8036 -0.1519
   17CHL1  H11B 1220   3.206   0.928   6.413  0.3489  0.9641  0.1030
   17CHL1    C9 1221   3.390   0.800   6.433 -0.2010  0.1809 -1.0924
   17CHL1    H9 1222   3.330   0.708   6.449 -0.2906  0.4125 -0.0452
   17CHL1   C10 1223   3.445   0.845   6.574 -0.7823  0.6931 -0.0828
   17CHL1   C19 1224   3.496   0.991   6.562  0.1192 -0.4332 -0.2331
   17CHL1  H19A 1225   3.586   0.987   6.497 -1.6464 -1.0212 -2.7895
   17CHL1  H19B 1226   3.420   1.059   6.518  1.0260 -0.0811 -1.3073
   17CHL1  H19C 1227   3.524   1.034   6.660  1.7103  0.0856 -0.8788
   17CHL1    C1 1228   3.321   0.835   6.668  0.0437 -0.1578 -1.0053
   17CHL1   H1A 1229   3.239   0.907   6.644 -0.5568 -0.7272 -0.7087
   17CHL1   H1B 1230   3.269   0.740   6.644  1.3638 -0.3735 -3.2613
   17CHL1    C2 1231   3.348   0.851   6.818  0.3921 -0.8982 -0.1772
   17CHL1   H2A 1232   3.259   0.822   6.878 -2.2280 -0.5623 -3.6266
   17CHL1   H2B 1233   3.393   0.949   6.846  1.9873 -1.4750 -0.5916
   17CHL1   C20 1234   3.307   0.826   5.880 -0.0645 -0.2161 -0.0207
   17CHL1   H20 1235   3.385   0.904   5.868 -2.2312  2.1899  0.7375
   17CHL1   C21 1236   3.167   0.876   5.901 -0.2089 -0.9048 -0.0824
   17CHL1  H21A 1237   3.137   0.948   5.822  2.4880  1.0619  0.5292
   17CHL1  H21B 1238   3.161   0.943   5.990 -0.0240 -1.5237  0.3986
   17CHL1  H21C 1239   3.095   0.792   5.906 -0.3774 -0.7356  0.3000
   17CHL1   C22 1240   3.304   0.748   5.745 -0.0542  0.1209  0.2626
   17CHL1  H22A 1241   3.396   0.686   5.741  0.8163  1.2578  1.6934
   17CHL1  H22B 1242   3.217   0.679   5.746  1.9716 -2.6605 -1.6891
   17CHL1   C23 1243   3.306   0.833   5.613  0.1780 -0.8441  0.3088
   17CHL1  H23A 1244   3.366   0.918   5.652 -0.8776 -0.7209  1.7016
   17CHL1  H23B 1245   3.354   0.782   5.526 -1.6507  1.5530 -2.2741
   17CHL1   C24 1246   3.169   0.883   5.543  0.3260 -0.3421 -0.0326
   17CHL1  H24A 1247   3.089   0.807   5.551 -0.6634  0.6863  0.1020
   17CHL1  H24B 1248   3.155   0.978   5.600  0.0063 -0.6252  0.3672
   17CHL1   C25 1249   3.189   0.911   5.385 -0.4480 -0.1542 -0.5545
   17CHL1   H25 1250   3.285   0.967   5.378 -1.2911  1.3935 -0.0800
   17CHL1   C26 1251   3.172   0.774   5.314  0.1229 -0.9427 -0.7092
   17CHL1  H26A 1252   3.228   0.791   5.220  2.6463  0.4081  0.9085
   17CHL1  H26B 1253   3.233   0.699   5.370  2.7142  1.9348  0.6455
   17CHL1  H26C 1254   3.072   0.736   5.285 -0.2590 -0.1622 -0.4479
   17CHL1   C27 1255   3.084   1.007   5.333 -0.0895  0.7340 -0.2441
   17CHL1  H27A 1256   2.982   0.968   5.356 -0.3037  0.7074 -1.1881
   17CHL1  H27B 1257   3.090   1.115   5.354 -0.4252  0.5224  0.9934
   17CHL1  H27C 1258   3.089   1.012   5.222 -1.4802 -2.0202 -0.5376
   18CHL1    C3 1259   3.993   2.314   6.865  0.7288  0.3340  0.3071
   18CHL1    H3 1260   4.074   2.390   6.876  0.3516  0.5236  2.2215
   18CHL1    O3 1261   3.933   2.282   6.990  0.0183  0.2891  0.4123
   18CHL1   H3' 1262   3.860   2.225   6.966  0.7985 -1.0450  1.1205
   18CHL1    C4 1263   3.878   2.388   6.791 -0.6640 -0.3063 -0.5873
   18CHL1   H4A 1264   3.780   2.337   6.801 -0.4997 -0.8519 -1.7103
   18CHL1   H4B 1265   3.868   2.485   6.845 -1.2581 -0.5883 -0.1808
   18CHL1    C5 1266   3.911   2.408   6.640 -0.2486 -0.0955 -0.0209
   18CHL1    C6 1267   3.932   2.528   6.586 -0.0672 -0.8813 -0.4118
   18CHL1    H6 1268   3.915   2.621   6.643 -0.1499  0.0025 -1.8145
   18CHL1    C7 1269   3.961   2.557   6.442 -0.5059 -0.3060  0.0556
   18CHL1   H7A 1270   3.887   2.631   6.405  2.3872  0.7237 -4.4234
   18CHL1   H7B 1271   4.060   2.603   6.421  0.2635 -3.0912 -3.5250
   18CHL1    C8 1272   3.942   2.436   6.349 -0.1555  0.3582 -0.8390
   18CHL1    H8 1273   3.832   2.422   6.348 -0.1016 -0.0959 -1.0847
   18CHL1   C14 1274   3.993   2.463   6.212 -0.1242  0.3906 -0.0156
   18CHL1   H14 1275   4.102   2.483   6.221 -0.4856  1.6315  2.5966
   18CHL1   C15 1276   3.942   2.583   6.133 -0.3507 -0.6351 -0.0766
   18CHL1  H15A 1277   3.831   2.584   6.133 -0.4659  2.3682  2.5468
   18CHL1  H15B 1278   3.977   2.680   6.176 -3.2514  0.1675  0.6690
   18CHL1   C16 1279   3.993   2.552   5.991 -0.1996  0.2510  0.1542
   18CHL1  H16A 1280   3.909   2.551   5.919 -0.2528 -1.8161  0.1834
   18CHL1  H16B 1281   4.077   2.616   5.956 -0.0294 -0.8732 -1.5758
   18CHL1   C17 1282   4.044   2.402   5.993  0.1076 -0.6819  0.6984
   18CHL1   H17 1283   4.151   2.425   6.015 -0.2860  0.5880  1.4214
   18CHL1   C13 1284   3.982   2.342   6.118 -0.5124 -0.6546  0.3948
   18CHL1   C18 1285   3.837   2.298   6.084  0.2643 -0.3620 -0.1739
   18CHL1  H18A 1286   3.781   2.268   6.175 -0.8729 -3.4150 -1.7560
   18CHL1  H18B 1287   3.779   2.373   6.026  2.6384 -0.0069 -2.2400
   18CHL1  H18C 1288   3.848   2.202   6.030  0.6516 -1.2663  1.4329
   18CHL1   C12 1289   4.056   2.220   6.171 -0.7084  0.3703 -0.9148
   18CHL1  H12A 1290   4.036   2.130   6.109  1.6523 -1.2296  0.4611
   18CHL1  H12B 1291   4.165   2.243   6.167 -0.7247  0.4002 -1.1961
   18CHL1   C11 1292   4.019   2.186   6.314 -0.3555 -0.1880  0.2407
   18CHL1  H11A 1293   3.916   2.145   6.312 -0.6987  0.5900  1.1944
   18CHL1  H11B 1294   4.109   2.125   6.340 -1.4057 -1.3721  1.2100
   18CHL1    C9 1295   4.007   2.314   6.411 -0.1949  0.0737  0.1705
   18CHL1    H9 1296   4.113   2.338   6.432  0.5409 -3.2913  0.9924
   18CHL1   C10 1297   3.957   2.284   6.552  0.4675  0.0335  0.3017
   18CHL1   C19 1298   3.830   2.191   6.533  0.5211 -0.4618 -0.2033
   18CHL1  H19A 1299   3.757   2.224   6.457  0.0190 -1.5506 -0.2087
   18CHL1  H19B 1300   3.871   2.093   6.502 -0.7464 -1.5403  1.3498
   18CHL1  H19C 1301   3.768   2.173   6.624 -1.3090  0.7777 -1.1400
   18CHL1    C1 1302   4.061   2.211   6.640  0.0251  0.4224  0.4980
   18CHL1   H1A 1303   4.080   2.115   6.588 -1.0930  1.7823 -2.7041
   18CHL1   H1B 1304   4.160   2.261   6.637  1.3186 -1.9168  1.8622
   18CHL1    C2 1305   4.025   2.187   6.786  0.0311  0.1864 -0.2642
   18CHL1   H2A 1306   4.115   2.140   6.832 -0.1055 -1.2066 -1.3172
   18CHL1   H2B 1307   3.948   2.109   6.804  0.2070 -0.0743 -0.6162
   18CHL1   C20 1308   4.026   2.328   5.852 -0.2247 -0.0239 -0.2831
   18CHL1   H20 1309   3.919   2.300   5.843  0.1984 -1.0507 -2.7829
   18CHL1   C21 1310   4.095   2.193   5.845 -0.2921  0.7395 -0.0296
   18CHL1  H21A 1311   4.105   2.166   5.738  1.7306 -0.1328  0.3371
   18CHL1  H21B 1312   4.035   2.114   5.894 -0.2378 -0.2125 -1.4582
   18CHL1  H21C 1313   4.202   2.184   5.875  0.0604 -2.8700 -1.8529
   18CHL1   C22 1314   4.069   2.413   5.734 -0.0097  0.7864  0.0999
   18CHL1  H22A 1315   4.048   2.521   5.747  2.3522  1.4377 -1.0649
   18CHL1  H22B 1316   4.178   2.407   5.714  0.1602  2.2163  0.4758
   18CHL1   C23 1317   3.989   2.373   5.608  0.0348  0.3499  0.0196
   18CHL1  H23A 1318   3.994   2.262   5.595 -1.3514  0.0274  1.8433
   18CHL1  H23B 1319   3.882   2.395   5.626  0.1091 -0.4732  1.7399
   18CHL1   C24 1320   4.029   2.453   5.483 -0.3521  0.6593  0.0529
   18CHL1  H24A 1321   4.049   2.559   5.509 -0.4205  0.7608 -0.3052
   18CHL1  H24B 1322   4.133   2.423   5.456  0.6282 -0.2595  4.1858
   18CHL1   C25 1323   3.935   2.426   5.365  0.5229 -0.1740 -0.1447
   18CHL1   H25 1324   3.837   2.459   5.406  0.7594  0.0347  0.2597
   18CHL1   C26 1325   3.969   2.524   5.248  0.2113 -0.1795 -0.0385
   18CHL1  H26A 1326   3.887   2.527   5.172  0.6232  2.1064 -0.4707
   18CHL1  H26B 1327   3.994   2.629   5.275  0.3428  0.0229 -0.9175
   18CHL1  H26C 1328   4.059   2.483   5.198  0.9133 -0.5829  1.5094
   18CHL1   C27 1329   3.933   2.284   5.313  0.1917  0.5375 -0.5350
   18CHL1  H27A 1330   3.890   2.210   5.383  1.7407  0.1946  0.0688
   18CHL1  H27B 1331   3.864   2.278   5.225 -0.0225 -0.9389 -0.2952
   18CHL1  H27C 1332   4.033   2.247   5.282  0.7735 -1.7194  3.3440
   19CHL1    C3 1333   3.180   1.200   6.765 -0.8916 -0.5319  0.5833
   19CHL1    H3 1334   3.238   1.110   6.737 -0.9988 -1.0422  1.9244
   19CHL1    O3 1335   3.155   1.180   6.904 -0.1105 -0.3629  0.0482
   19CHL1   H3' 1336   3.086   1.243   6.927  1.1902  1.2950 -0.3955
   19CHL1    C4 1337   3.257   1.330   6.732  0.4588 -0.5890 -0.3196
   19CHL1   H4A 1338   3.191   1.418   6.746 -1.2291 -2.1966  2.7569
   19CHL1   H4B 1339   3.351   1.345   6.790  0.9705  0.2874 -1.3341
   19CHL1    C5 1340   3.285   1.336   6.584 -0.2701 -0.5466  0.6267
   19CHL1    C6 1341   3.415   1.347   6.531  0.0721  0.5242 -0.1584
   19CHL1    H6 1342   3.497   1.353   6.604  0.5815 -0.0548 -0.6738
   19CHL1    C7 1343   3.450   1.356   6.390 -0.2397 -0.4880 -0.4371
   19CHL1   H7A 1344   3.531   1.430   6.374 -0.4531 -0.0015  0.6602
   19CHL1   H7B 1345   3.491   1.258   6.356 -0.1659 -0.6000 -0.0323
   19CHL1    C8 1346   3.335   1.391   6.309  0.3063 -0.1844 -0.3580
   19CHL1    H8 1347   3.307   1.497   6.329 -0.8553 -0.9262  2.5741
   19CHL1   C14 1348   3.362   1.379   6.154 -0.5060 -0.2751 -0.5508
   19CHL1   H14 1349   3.397   1.274   6.149 -1.3283 -0.5862 -0.1251
   19CHL1   C15 1350   3.469   1.467   6.086  0.0239 -0.4823  0.2996
   19CHL1  H15A 1351   3.449   1.575   6.101 -0.3601 -0.5915  0.5969
   19CHL1  H15B 1352   3.569   1.433   6.121  1.2133 -0.4078 -2.7349
   19CHL1   C16 1353   3.451   1.436   5.936  0.9434  0.1564  0.1911
   19CHL1  H16A 1354   3.452   1.527   5.872  0.6476 -0.7387 -1.1486
   19CHL1  H16B 1355   3.524   1.360   5.901 -0.3144 -0.4092 -1.3433
   19CHL1   C17 1356   3.314   1.357   5.919 -0.3130  0.2163 -0.0951
   19CHL1   H17 1357   3.342   1.250   5.928  1.3977  0.5151 -1.2712
   19CHL1   C13 1358   3.247   1.389   6.053 -0.4398  0.0473 -0.6668
   19CHL1   C18 1359   3.184   1.532   6.053 -0.0979  0.1960  0.2839
   19CHL1  H18A 1360   3.084   1.526   6.003 -0.6096 -3.8114  1.4180
   19CHL1  H18B 1361   3.183   1.570   6.157  2.0017  0.7609  0.1356
   19CHL1  H18C 1362   3.255   1.602   6.005  0.6328 -1.4271 -1.1188
   19CHL1   C12 1363   3.136   1.292   6.089 -0.2226  0.2940 -0.1229
   19CHL1  H12A 1364   3.050   1.317   6.023 -1.1487  0.6527  1.1805
   19CHL1  H12B 1365   3.162   1.185   6.073 -1.4446 -0.2417  1.2867
   19CHL1   C11 1366   3.099   1.316   6.241  0.5188  0.3569 -0.5106
   19CHL1  H11A 1367   3.058   1.419   6.252 -0.7190 -0.0876 -0.7235
   19CHL1  H11B 1368   3.017   1.243   6.257 -2.0431  3.2152  0.5208
   19CHL1    C9 1369   3.210   1.304   6.345  0.0904 -0.4242 -0.6718
   19CHL1    H9 1370   3.237   1.196   6.351 -0.1733 -0.4489  0.3888
   19CHL1   C10 1371   3.161   1.328   6.494  0.3118  0.0945  0.3567
   19CHL1   C19 1372   3.071   1.456   6.504  0.4250  0.2898  0.5169
   19CHL1  H19A 1373   3.039   1.468   6.610 -3.1139 -1.6942 -0.1534
   19CHL1  H19B 1374   3.130   1.543   6.468  0.0182 -0.4699 -2.2225
   19CHL1  H19C 1375   2.980   1.454   6.440 -0.5526  0.0737  1.8771
   19CHL1    C1 1376   3.074   1.204   6.533  0.1523  0.4051  0.1570
   19CHL1   H1A 1377   2.981   1.198   6.472  0.3144  1.1020 -0.1673
   19CHL1   H1B 1378   3.133   1.113   6.512  1.0840  1.2241 -0.8236
   19CHL1    C2 1379   3.049   1.193   6.683 -0.2239  0.1180  0.4627
   19CHL1   H2A 1380   2.991   1.102   6.707  1.7781 -0.9712  1.3799
   19CHL1   H2B 1381   2.988   1.283   6.707 -0.4743  0.4969 -1.4092
   19CHL1   C20 1382   3.225   1.388   5.795 -0.2977  0.1141 -0.2216
   19CHL1   H20 1383   3.117   1.389   5.821 -0.4110 -0.8722 -0.6218
   19CHL1   C21 1384   3.230   1.255   5.719 -0.8697 -0.2548 -0.3482
   19CHL1  H21A 1385   3.142   1.191   5.743  0.4136 -2.1649 -0.5112
   19CHL1  H21B 1386   3.319   1.189   5.730  0.6199  1.3308 -2.1017
   19CHL1  H21C 1387   3.217   1.281   5.611  0.5639  1.1234 -0.2175
   19CHL1   C22 1388   3.259   1.515   5.719  0.2263  0.1543 -0.6743
   19CHL1  H22A 1389   3.263   1.602   5.789 -1.5640  1.2312 -1.8402
   19CHL1  H22B 1390   3.360   1.505   5.675  0.2152 -2.7220 -0.2081
   19CHL1   C23 1391   3.166   1.557   5.605  0.5919  0.1542 -0.5518
   19CHL1  H23A 1392   3.175   1.482   5.524  0.8837  3.0415 -3.3894
   19CHL1  H23B 1393   3.058   1.565   5.632  0.2583  0.4674 -1.8880
   19CHL1   C24 1394   3.204   1.697   5.556 -0.1631  0.0674 -0.4857
   19CHL1  H24A 1395   3.177   1.762   5.643  1.9860  1.6150 -0.8832
   19CHL1  H24B 1396   3.311   1.707   5.530  0.1412 -1.0303  0.2820
   19CHL1   C25 1397   3.129   1.748   5.431  0.7083 -0.1247 -0.1674
   19CHL1   H25 1398   3.018   1.751   5.442  0.6892 -0.5234 -0.2635
   19CHL1   C26 1399   3.157   1.893   5.407  0.3232  0.2962  0.6113
   19CHL1  H26A 1400   3.264   1.921   5.400  0.2090  0.3825 -3.0327
   19CHL1  H26B 1401   3.121   1.932   5.309 -1.8464 -1.4459  0.6342
   19CHL1  H26C 1402   3.121   1.961   5.487 -0.0520 -0.6546  1.2566
   19CHL1   C27 1403   3.162   1.661   5.314 -0.5785  0.0020 -0.3202
   19CHL1  H27A 1404   3.101   1.694   5.227 -1.2632 -1.3271 -0.3686
   19CHL1  H27B 1405   3.268   1.665   5.281 -0.9145  0.8751 -1.3251
   19CHL1  H27C 1406   3.137   1.553   5.321  0.7987 -0.6519 -3.5424
   20CHL1    C3 1407   1.985   3.554   6.785 -0.0392  0.1740 -0.1076
   20CHL1    H3 1408   1.889   3.498   6.779  0.0062  0.1868 -1.1928
   20CHL1    O3 1409   2.024   3.548   6.922  0.3116  0.2709 -0.3444
   20CHL1   H3' 1410   2.104   3.600   6.935  0.3048 -0.3530  3.0505
   20CHL1    C4 1411   2.091   3.475   6.705  0.0389 -1.0924 -0.1986
   20CHL1   H4A 1412   2.187   3.527   6.722 -0.3290 -0.2180 -0.7465
   20CHL1   H4B 1413   2.093   3.372   6.747 -0.0856 -1.1960 -0.4459
   20CHL1    C5 1414   2.049   3.464   6.561  1.2400  0.1916 -0.6534
   20CHL1    C6 1415   2.025   3.352   6.499  0.7908  0.9818 -0.4528
   20CHL1    H6 1416   2.028   3.261   6.561 -0.4398  1.4877  0.3893
   20CHL1    C7 1417   1.967   3.334   6.358 -0.0555 -0.0630 -1.0837
   20CHL1   H7A 1418   2.012   3.252   6.299  1.8502  0.3047 -0.1891
   20CHL1   H7B 1419   1.858   3.314   6.350  0.3700 -2.6534 -1.2087
   20CHL1    C8 1420   1.995   3.462   6.270  0.3110 -0.2892  0.3584
   20CHL1    H8 1421   2.101   3.478   6.243 -0.1553  1.3654 -0.6597
   20CHL1   C14 1422   1.916   3.453   6.143 -0.0768 -1.0752 -0.2082
   20CHL1   H14 1423   1.808   3.442   6.169 -0.1021 -0.5386 -0.0925
   20CHL1   C15 1424   1.952   3.351   6.036 -0.7899  0.6304 -0.6412
   20CHL1  H15A 1425   2.058   3.350   6.004 -0.8172 -2.7589 -0.9479
   20CHL1  H15B 1426   1.925   3.247   6.064  0.7797 -0.2251 -2.1420
   20CHL1   C16 1427   1.867   3.395   5.915 -0.1216 -0.3803  0.0548
   20CHL1  H16A 1428   1.940   3.369   5.835  0.7554  0.5811  0.5047
   20CHL1  H16B 1429   1.769   3.345   5.924 -0.1457 -0.6295 -1.3114
   20CHL1   C17 1430   1.839   3.548   5.936  0.5681 -0.5715  0.6422
   20CHL1   H17 1431   1.735   3.553   5.975  0.9045 -0.4742  1.5565
   20CHL1   C13 1432   1.913   3.591   6.064 -0.0563  0.4899  0.2920
   20CHL1   C18 1433   2.048   3.644   6.028  0.5559 -0.1592  0.4272
   20CHL1  H18A 1434   2.097   3.571   5.960  0.7808  1.5494 -1.3243
   20CHL1  H18B 1435   2.043   3.736   5.966  3.2677 -0.3528 -0.2059
   20CHL1  H18C 1436   2.116   3.668   6.112 -1.7144  2.5350  1.6616
   20CHL1   C12 1437   1.842   3.692   6.154  0.2407 -0.1156  0.5703
   20CHL1  H12A 1438   1.842   3.791   6.103  1.0916 -0.3222  0.1394
   20CHL1  H12B 1439   1.742   3.659   6.189  0.7997 -1.9844  0.5367
   20CHL1   C11 1440   1.923   3.718   6.282  0.0711  0.6314  0.1427
   20CHL1  H11A 1441   2.016   3.773   6.254 -0.6685  2.0258  0.3533
   20CHL1  H11B 1442   1.874   3.795   6.344 -0.1737  0.1955  0.4895
   20CHL1    C9 1443   1.948   3.582   6.359  0.8891 -0.3639  0.4836
   20CHL1    H9 1444   1.842   3.560   6.385 -0.3262  2.5064 -1.4725
   20CHL1   C10 1445   2.016   3.606   6.498 -0.7943 -0.2826  0.0974
   20CHL1   C19 1446   2.147   3.678   6.473 -0.5260  0.0361  0.3366
   20CHL1  H19A 1447   2.131   3.788   6.466 -1.9123 -0.1987 -0.5173
   20CHL1  H19B 1448   2.212   3.658   6.561  0.3180 -2.5667 -0.7783
   20CHL1  H19C 1449   2.197   3.638   6.382 -2.9555 -3.6559  0.4367
   20CHL1    C1 1450   1.925   3.692   6.585  0.4110  0.2371 -0.2613
   20CHL1   H1A 1451   1.909   3.793   6.542 -1.4306 -0.1892 -0.6710
   20CHL1   H1B 1452   1.825   3.646   6.572 -0.0209  1.2855 -0.7328
   20CHL1    C2 1453   1.964   3.693   6.734 -0.1454 -0.6941 -0.0883
   20CHL1   H2A 1454   1.890   3.743   6.801  0.3480  4.9464 -3.1469
   20CHL1   H2B 1455   2.057   3.748   6.761 -1.9929  2.1768  0.9453
   20CHL1   C20 1456   1.841   3.642   5.818  0.0624  0.2147 -0.0890
   20CHL1   H20 1457   1.861   3.745   5.855  2.9153 -0.2872 -0.0564
   20CHL1   C21 1458   1.703   3.643   5.757 -0.3363  0.0196 -0.3336
   20CHL1  H21A 1459   1.673   3.541   5.723  1.7478 -0.7280 -0.0380
   20CHL1  H21B 1460   1.707   3.713   5.671  0.7165  0.9752  0.4704
   20CHL1  H21C 1461   1.623   3.685   5.822  0.0205 -1.5144  1.1594
   20CHL1   C22 1462   1.951   3.610   5.717  0.1417 -0.1535 -0.3611
   20CHL1  H22A 1463   2.034   3.559   5.771 -0.7392 -0.1328  1.0697
   20CHL1  H22B 1464   1.921   3.545   5.633 -1.9950 -0.2035  0.3774
   20CHL1   C23 1465   2.014   3.733   5.659 -0.0287 -0.1661  0.5588
   20CHL1  H23A 1466   1.948   3.808   5.609  1.3673  0.6288 -0.1282
   20CHL1  H23B 1467   2.049   3.788   5.749  1.4217  0.1211 -0.1561
   20CHL1   C24 1468   2.142   3.713   5.583  0.4168  0.4160 -1.3592
   20CHL1  H24A 1469   2.217   3.670   5.653 -1.0250  1.9170  1.2421
   20CHL1  H24B 1470   2.133   3.628   5.511  1.6274 -0.2669 -0.7317
   20CHL1   C25 1471   2.185   3.837   5.505  0.4087 -0.4115 -0.0139
   20CHL1   H25 1472   2.098   3.856   5.439 -2.2264 -4.1412  1.9815
   20CHL1   C26 1473   2.216   3.950   5.599  0.7581 -0.7478 -0.2726
   20CHL1  H26A 1474   2.245   4.046   5.550  0.2161  0.2116  1.2147
   20CHL1  H26B 1475   2.125   3.973   5.660  2.2474  0.4262  1.6116
   20CHL1  H26C 1476   2.292   3.919   5.673 -0.1526 -1.0739  0.5607
   20CHL1   C27 1477   2.300   3.802   5.406  0.7807 -0.2448  0.2146
   20CHL1  H27A 1478   2.308   3.878   5.326 -0.3554  0.2349  0.5255
   20CHL1  H27B 1479   2.400   3.794   5.452  1.1202 -0.9704 -0.6296
   20CHL1  H27C 1480   2.285   3.703   5.359 -0.2416 -0.1650  0.3486
   21CHL1    C3 1481   2.188   2.986   6.700 -0.0781 -0.0347 -0.5621
   21CHL1    H3 1482   2.143   3.088   6.699  2.6982  1.2844 -0.0323
   21CHL1    O3 1483   2.236   2.951   6.830 -0.2902  0.3563  0.1493
   21CHL1   H3' 1484   2.271   2.863   6.821 -0.3836  0.3667 -0.3581
   21CHL1    C4 1485   2.078   2.888   6.657 -0.4868  0.1823 -0.3154
   21CHL1   H4A 1486   2.105   2.783   6.683  0.8745  0.9529  1.7056
   21CHL1   H4B 1487   1.994   2.900   6.729  0.2363 -1.5881  0.9282
   21CHL1    C5 1488   2.041   2.900   6.513 -0.0751 -0.0190  0.5519
   21CHL1    C6 1489   1.911   2.912   6.480  0.1019  0.0369  0.6128
   21CHL1    H6 1490   1.835   2.908   6.560 -0.6122 -0.4482 -0.0683
   21CHL1    C7 1491   1.854   2.927   6.345 -0.3639 -0.0000 -0.5708
   21CHL1   H7A 1492   1.764   2.866   6.323  0.9935 -2.0073 -0.8987
   21CHL1   H7B 1493   1.831   3.036   6.342  1.3871  0.3833 -1.9856
   21CHL1    C8 1494   1.964   2.873   6.245  0.2992 -0.1927  0.5462
   21CHL1    H8 1495   1.987   2.765   6.255 -1.4443 -0.8607 -1.7702
   21CHL1   C14 1496   1.914   2.903   6.109 -0.1939 -0.3649  0.2995
   21CHL1   H14 1497   1.911   3.013   6.094  1.3239 -0.1546  1.3550
   21CHL1   C15 1498   1.782   2.836   6.063  0.2040  0.3267  1.0551
   21CHL1  H15A 1499   1.790   2.732   6.102  1.8819  0.6605  1.6997
   21CHL1  H15B 1500   1.692   2.885   6.106  0.8218  1.3803  1.1776
   21CHL1   C16 1501   1.794   2.848   5.910 -0.3093  0.1647  0.0648
   21CHL1  H16A 1502   1.775   2.752   5.857  4.3899  1.3896 -4.6732
   21CHL1  H16B 1503   1.715   2.911   5.864 -1.0310  0.2383  1.3458
   21CHL1   C17 1504   1.935   2.902   5.873  0.4581  0.7800 -0.0950
   21CHL1   H17 1505   1.926   3.013   5.867 -0.8184  0.6342 -1.6216
   21CHL1   C13 1506   2.012   2.868   5.994 -0.4379  0.1235 -0.0202
   21CHL1   C18 1507   2.042   2.710   6.001  0.3608 -0.6388 -0.1701
   21CHL1  H18A 1508   1.949   2.650   5.987 -0.8202  1.2224 -0.6458
   21CHL1  H18B 1509   2.108   2.685   5.916  0.3892  1.3546 -0.7735
   21CHL1  H18C 1510   2.100   2.689   6.094  0.5555  0.9065  0.0794
   21CHL1   C12 1511   2.141   2.955   6.018 -0.5594 -0.7055  1.2095
   21CHL1  H12A 1512   2.216   2.924   5.942 -0.1328  0.5438  1.0950
   21CHL1  H12B 1513   2.122   3.065   6.011  1.5927 -0.3459  0.2192
   21CHL1   C11 1514   2.204   2.926   6.157 -0.2853 -0.9014  0.9572
   21CHL1  H11A 1515   2.242   2.822   6.152 -0.1151 -0.8055 -0.0168
   21CHL1  H11B 1516   2.293   2.990   6.175  0.4619 -2.1816  1.9691
   21CHL1    C9 1517   2.101   2.944   6.270  0.1560  0.6753  0.0738
   21CHL1    H9 1518   2.089   3.054   6.262 -0.6364  0.5505 -0.5533
   21CHL1   C10 1519   2.157   2.903   6.411  0.1174  0.0508  0.4555
   21CHL1   C19 1520   2.223   2.765   6.404  0.1423 -0.2029  0.3031
   21CHL1  H19A 1521   2.318   2.770   6.346  2.1243  0.3664  3.3161
   21CHL1  H19B 1522   2.262   2.735   6.504  2.1549  1.4059  0.0692
   21CHL1  H19C 1523   2.155   2.689   6.360 -0.5721 -0.8195  2.3606
   21CHL1    C1 1524   2.262   3.008   6.460  0.9765 -0.4907  0.8943
   21CHL1   H1A 1525   2.354   3.008   6.398  1.5484  0.0656  1.7180
   21CHL1   H1B 1526   2.224   3.110   6.439  1.9322 -0.1105  0.9633
   21CHL1    C2 1527   2.301   2.989   6.603 -0.0036  0.3674  0.3330
   21CHL1   H2A 1528   2.369   3.075   6.622  0.2663  0.3951 -0.6994
   21CHL1   H2B 1529   2.364   2.899   6.620  0.5236  0.3999 -1.2721
   21CHL1   C20 1530   1.973   2.861   5.735 -1.0038  0.0434  0.1819
   21CHL1   H20 1531   1.976   2.750   5.730  0.0753  0.1121 -1.6310
   21CHL1   C21 1532   2.115   2.910   5.695  0.2683  0.0073  0.2841
   21CHL1  H21A 1533   2.133   3.019   5.706 -1.1350  0.1728  1.0928
   21CHL1  H21B 1534   2.130   2.893   5.586  0.5460 -1.5653  0.5465
   21CHL1  H21C 1535   2.199   2.864   5.751 -0.7139 -0.7186  1.1903
   21CHL1   C22 1536   1.868   2.897   5.633 -0.5588  0.5345 -0.0819
   21CHL1  H22A 1537   1.878   2.833   5.542 -2.5778 -0.6492  0.4491
   21CHL1  H22B 1538   1.767   2.868   5.669 -0.1813 -0.8082 -0.0460
   21CHL1   C23 1539   1.866   3.046   5.585 -0.1169 -0.5564 -0.6112
   21CHL1  H23A 1540   1.879   3.111   5.674  0.4393 -1.7390  0.1971
   21CHL1  H23B 1541   1.960   3.049   5.525  0.9632  2.6805  0.9834
   21CHL1   C24 1542   1.740   3.088   5.515 -0.3467 -0.2291  0.6691
   21CHL1  H24A 1543   1.693   3.018   5.442  0.6301  1.2257 -1.4660
   21CHL1  H24B 1544   1.662   3.101   5.593 -0.6725  0.1618  0.2857
   21CHL1   C25 1545   1.750   3.221   5.436  0.4498 -0.7361  0.3851
   21CHL1   H25 1546   1.658   3.232   5.373  0.1973 -0.9941  0.7020
   21CHL1   C26 1547   1.765   3.350   5.517  0.0634  0.2819  0.5682
   21CHL1  H26A 1548   1.863   3.359   5.568  0.5720  1.2966 -0.5261
   21CHL1  H26B 1549   1.771   3.433   5.443 -0.7043 -0.5855 -0.5150
   21CHL1  H26C 1550   1.690   3.352   5.599  0.3326  1.1932  0.8004
   21CHL1   C27 1551   1.863   3.204   5.323  0.5353 -0.2049 -0.0189
   21CHL1  H27A 1552   1.965   3.191   5.365 -0.1277 -0.9128  1.4390
   21CHL1  H27B 1553   1.840   3.108   5.273  0.9167 -0.4541  0.2754
   21CHL1  H27C 1554   1.857   3.288   5.251 -1.7176 -0.7275 -0.5350
   22CHL1    C3 1555   2.548   0.347   6.910 -0.8257  0.0875 -0.0467
   22CHL1    H3 1556   2.516   0.447   6.876 -2.0657 -0.4771 -0.5910
   22CHL1    O3 1557   2.552   0.336   7.051  0.5948  0.1593  0.0413
   22CHL1   H3' 1558   2.583   0.423   7.077  1.6422 -0.8981  2.7709
   22CHL1    C4 1559   2.466   0.233   6.865  0.3913  0.3772  0.2898
   22CHL1   H4A 1560   2.504   0.140   6.912  2.5984  1.3577  0.5823
   22CHL1   H4B 1561   2.363   0.251   6.902 -0.5839 -2.1479 -0.9622
   22CHL1    C5 1562   2.458   0.213   6.717  0.3820  0.1558  0.6918
   22CHL1    C6 1563   2.339   0.211   6.647 -0.2769  0.0897 -0.0383
   22CHL1    H6 1564   2.246   0.218   6.705 -0.6819 -2.9832 -0.1865
   22CHL1    C7 1565   2.336   0.192   6.492  0.2665  0.6051 -0.8707
   22CHL1   H7A 1566   2.261   0.115   6.465  0.5104  0.2477 -0.5469
   22CHL1   H7B 1567   2.312   0.290   6.446  0.2874 -0.0945 -2.4507
   22CHL1    C8 1568   2.475   0.148   6.425  0.2885 -0.7614  0.1700
   22CHL1    H8 1569   2.504   0.042   6.444  0.1024 -0.6278  1.2223
   22CHL1   C14 1570   2.483   0.192   6.278 -0.3857  0.4841 -0.4631
   22CHL1   H14 1571   2.465   0.301   6.273 -1.1171  0.4088  0.3088
   22CHL1   C15 1572   2.371   0.130   6.188  0.4444  0.3743 -0.6348
   22CHL1  H15A 1573   2.349   0.024   6.214 -3.3089  0.8189 -1.4835
   22CHL1  H15B 1574   2.274   0.181   6.201  0.4638  0.0181  1.1197
   22CHL1   C16 1575   2.427   0.136   6.041  0.4140 -0.4080  0.3925
   22CHL1  H16A 1576   2.426   0.036   5.993 -2.0546  1.0347 -2.9675
   22CHL1  H16B 1577   2.358   0.195   5.977  0.2761 -1.8832 -0.8629
   22CHL1   C17 1578   2.574   0.184   6.060 -0.3760  0.2535  0.6664
   22CHL1   H17 1579   2.576   0.295   6.062 -0.3105  0.2527  2.0752
   22CHL1   C13 1580   2.613   0.154   6.205 -0.2835 -0.0559 -0.0493
   22CHL1   C18 1581   2.637  -0.000   6.215  0.0735  0.1675 -0.0971
   22CHL1  H18A 1582   2.639  -0.042   6.318  1.7276 -1.2837 -0.6609
   22CHL1  H18B 1583   2.560  -0.057   6.159  0.9123 -0.4980 -0.6063
   22CHL1  H18C 1584   2.733  -0.032   6.170  0.5189 -0.9821  1.5371
   22CHL1   C12 1585   2.725   0.234   6.273 -0.4055 -0.1405  0.7707
   22CHL1  H12A 1586   2.827   0.207   6.239  0.1922  0.2719  2.1416
   22CHL1  H12B 1587   2.698   0.338   6.247  0.2953  0.0225  0.6571
   22CHL1   C11 1588   2.731   0.216   6.424  1.1795 -0.1800  1.2303
   22CHL1  H11A 1589   2.760   0.110   6.442  3.2955  0.4673  1.8813
   22CHL1  H11B 1590   2.803   0.291   6.464  0.8673  0.6417  0.2922
   22CHL1    C9 1591   2.591   0.230   6.491 -0.3772 -0.0064 -0.2650
   22CHL1    H9 1592   2.576   0.338   6.472  1.5811  0.3774  0.1314
   22CHL1   C10 1593   2.600   0.209   6.648  0.4920  0.2974 -0.8068
   22CHL1   C19 1594   2.659   0.067   6.666 -0.3195  0.7056  0.6058
   22CHL1  H19A 1595   2.770   0.067   6.655 -0.4657 -1.9148 -1.9444
   22CHL1  H19B 1596   2.646   0.024   6.768  3.1070 -2.4067 -0.0377
   22CHL1  H19C 1597   2.628  -0.022   6.607  0.6872  1.0065 -0.4126
   22CHL1    C1 1598   2.693   0.316   6.712 -0.4609 -0.1881  0.0618
   22CHL1   H1A 1599   2.798   0.290   6.686 -0.1156  0.0478  1.1528
   22CHL1   H1B 1600   2.678   0.416   6.666  1.0364 -0.4530 -1.0777
   22CHL1    C2 1601   2.691   0.330   6.866 -0.4273  0.9022  0.0033
   22CHL1   H2A 1602   2.756   0.416   6.892 -1.8349  1.3096  2.4381
   22CHL1   H2B 1603   2.734   0.247   6.926  0.2044  3.1261  2.8607
   22CHL1   C20 1604   2.669   0.143   5.944 -0.0604  0.1617  0.3080
   22CHL1   H20 1605   2.657   0.034   5.930 -0.3735  0.1937  0.3122
   22CHL1   C21 1606   2.817   0.158   5.978 -0.6414 -0.0998  0.3831
   22CHL1  H21A 1607   2.876   0.147   5.884  1.4661  1.9355  1.3830
   22CHL1  H21B 1608   2.868   0.089   6.048  2.0154 -0.8683 -2.1107
   22CHL1  H21C 1609   2.841   0.263   6.003 -0.2299 -0.5170  1.7836
   22CHL1   C22 1610   2.619   0.221   5.819  0.1893 -0.0513  0.4338
   22CHL1  H22A 1611   2.511   0.197   5.810  0.1762 -1.2712  2.9039
   22CHL1  H22B 1612   2.634   0.330   5.832  0.8389 -0.2826  1.8451
   22CHL1   C23 1613   2.692   0.184   5.685  0.1884  0.0124 -0.2141
   22CHL1  H23A 1614   2.637   0.236   5.604 -2.8961 -1.9682  0.4163
   22CHL1  H23B 1615   2.797   0.221   5.686  0.2761 -0.1698 -1.1057
   22CHL1   C24 1616   2.673   0.037   5.636 -0.3879 -0.6599  0.0284
   22CHL1  H24A 1617   2.713  -0.026   5.718 -0.3126 -1.7356 -0.8133
   22CHL1  H24B 1618   2.565   0.011   5.628 -1.2801  2.8871 -1.2381
   22CHL1   C25 1619   2.735   0.001   5.501 -0.2503  0.1441 -0.2200
   22CHL1   H25 1620   2.842   0.030   5.497 -0.4917  1.0107 -0.8127
   22CHL1   C26 1621   2.724  -0.153   5.481 -0.4004  0.5603  0.5399
   22CHL1  H26A 1622   2.750  -0.164   5.374  2.5855  3.1755  0.8418
   22CHL1  H26B 1623   2.805  -0.212   5.530 -0.8949 -0.6202 -0.0318
   22CHL1  H26C 1624   2.625  -0.197   5.506  0.3196 -0.5931  1.4878
   22CHL1   C27 1625   2.668   0.080   5.386  0.0835  0.3257  0.4245
   22CHL1  H27A 1626   2.673   0.191   5.393  2.3883  0.2562  0.6783
   22CHL1  H27B 1627   2.736   0.067   5.298  1.1908  1.1535  1.1167
   22CHL1  H27C 1628   2.567   0.040   5.367  0.5380  0.5217 -3.2489
   23CHL1    C3 1629   1.909   4.211   6.777  0.2473 -0.1889  0.1224
   23CHL1    H3 1630   1.830   4.286   6.757 -3.1674 -2.8535  2.4894
   23CHL1    O3 1631   1.884   4.180   6.914 -0.4000  0.3658 -0.1428
   23CHL1   H3' 1632   1.933   4.098   6.930 -1.5393 -0.3792 -0.3421
   23CHL1    C4 1633   1.909   4.080   6.692 -0.0863 -0.6794  0.1408
   23CHL1   H4A 1634   1.981   4.007   6.735  0.7170 -0.4462 -0.7716
   23CHL1   H4B 1635   1.807   4.038   6.704 -0.2815 -0.2424  0.0526
   23CHL1    C5 1636   1.927   4.110   6.545 -0.1164  0.1085 -0.1316
   23CHL1    C6 1637   1.845   4.068   6.447  0.2828 -0.3504  0.3290
   23CHL1    H6 1638   1.764   4.002   6.479  0.6056 -0.6629  0.5033
   23CHL1    C7 1639   1.854   4.091   6.299 -0.1537 -0.0837 -0.6251
   23CHL1   H7A 1640   1.819   4.004   6.238 -0.9936  0.5960 -1.1384
   23CHL1   H7B 1641   1.784   4.173   6.271 -0.7268  0.3700  1.8624
   23CHL1    C8 1642   1.999   4.121   6.260 -0.1012 -0.4163 -0.8136
   23CHL1    H8 1643   2.057   4.027   6.269 -2.3021 -1.7757 -0.0145
   23CHL1   C14 1644   1.995   4.182   6.126 -0.6366 -0.2910  0.2709
   23CHL1   H14 1645   1.947   4.282   6.133 -0.7758 -0.3255 -0.1561
   23CHL1   C15 1646   1.908   4.107   6.019  0.6010 -0.0682 -0.4503
   23CHL1  H15A 1647   1.913   3.996   6.031 -1.9686 -0.1413  0.7041
   23CHL1  H15B 1648   1.801   4.135   6.025  0.3672 -0.9083 -0.5959
   23CHL1   C16 1649   1.957   4.163   5.888 -0.1534 -0.1764  0.3352
   23CHL1  H16A 1650   1.991   4.092   5.810  1.7509  0.6890  0.2946
   23CHL1  H16B 1651   1.879   4.223   5.836  0.8696  1.1076  0.2185
   23CHL1   C17 1652   2.075   4.272   5.919 -0.3326  0.2631 -0.2097
   23CHL1   H17 1653   2.018   4.366   5.936 -3.2404 -1.2480 -0.8881
   23CHL1   C13 1654   2.131   4.227   6.054  0.2566 -0.0637 -0.0101
   23CHL1   C18 1655   2.228   4.113   6.031  1.1092  0.0698 -0.0807
   23CHL1  H18A 1656   2.324   4.164   6.011  1.3458 -1.0491 -2.0155
   23CHL1  H18B 1657   2.228   4.058   6.128 -3.5226  1.0775  0.7180
   23CHL1  H18C 1658   2.198   4.052   5.942  1.4831 -0.1411 -0.0647
   23CHL1   C12 1659   2.188   4.333   6.154  0.5187  0.0438 -0.4877
   23CHL1  H12A 1660   2.292   4.366   6.132  0.1092 -0.1310 -2.9661
   23CHL1  H12B 1661   2.126   4.424   6.138  0.2559  0.1640  1.0338
   23CHL1   C11 1662   2.190   4.284   6.302 -0.1325 -0.0872 -0.1779
   23CHL1  H11A 1663   2.259   4.197   6.307 -0.3555 -0.2482  3.7333
   23CHL1  H11B 1664   2.237   4.357   6.372  0.3964 -1.5830  1.0768
   23CHL1    C9 1665   2.054   4.234   6.358 -0.0466 -0.2812 -0.5057
   23CHL1    H9 1666   1.979   4.316   6.352  0.5896  0.2556 -1.4032
   23CHL1   C10 1667   2.054   4.190   6.508 -0.0669  0.4015  0.2132
   23CHL1   C19 1668   2.179   4.106   6.541 -0.2218 -0.4448  0.5431
   23CHL1  H19A 1669   2.270   4.169   6.543  1.1999 -2.2172 -1.9878
   23CHL1  H19B 1670   2.157   4.054   6.636  1.3405 -0.1294  1.1049
   23CHL1  H19C 1671   2.193   4.026   6.465  1.5950 -0.1282  0.4927
   23CHL1    C1 1672   2.064   4.320   6.604  0.0712 -0.0736  0.9405
   23CHL1   H1A 1673   2.163   4.369   6.592 -0.4261  0.9772  0.9986
   23CHL1   H1B 1674   1.990   4.397   6.574 -0.7722 -0.4137  2.0845
   23CHL1    C2 1675   2.043   4.280   6.750  0.2494 -0.4248 -0.7475
   23CHL1   H2A 1676   2.050   4.372   6.812  0.8022 -2.5196  2.5247
   23CHL1   H2B 1677   2.132   4.224   6.786  1.7160  2.5055  0.4618
   23CHL1   C20 1678   2.163   4.305   5.792 -0.3293  0.2518  0.1499
   23CHL1   H20 1679   2.230   4.218   5.776  2.3705  2.4031 -1.0447
   23CHL1   C21 1680   2.254   4.425   5.836  0.1559 -0.9429 -0.2963
   23CHL1  H21A 1681   2.335   4.389   5.903 -0.9820  1.4843  2.6465
   23CHL1  H21B 1682   2.187   4.507   5.871  1.1082  0.2209 -1.1084
   23CHL1  H21C 1683   2.310   4.474   5.753 -0.8065  0.2932 -0.2493
   23CHL1   C22 1684   2.079   4.329   5.668  0.1748 -0.1385 -0.7549
   23CHL1  H22A 1685   2.030   4.231   5.652  0.7603 -0.7831  1.0699
   23CHL1  H22B 1686   2.004   4.410   5.687  0.8730  0.5584 -0.9308
   23CHL1   C23 1687   2.165   4.371   5.545 -0.5292 -0.7216  0.6489
   23CHL1  H23A 1688   2.203   4.475   5.556 -0.0295 -0.8357 -0.0118
   23CHL1  H23B 1689   2.256   4.308   5.550  0.7539  1.0601  0.6636
   23CHL1   C24 1690   2.100   4.359   5.412  0.3123  0.1481  0.5382
   23CHL1  H24A 1691   2.165   4.330   5.326  0.4076  1.3363  0.1911
   23CHL1  H24B 1692   2.012   4.291   5.409 -0.4428  1.0665  1.3125
   23CHL1   C25 1693   2.036   4.487   5.355  0.5529 -0.1731  0.3110
   23CHL1   H25 1694   2.114   4.567   5.356  1.2779 -0.8777  0.9600
   23CHL1   C26 1695   1.987   4.478   5.209  0.3165  0.3705 -0.4099
   23CHL1  H26A 1696   1.926   4.386   5.198  0.6722 -0.0097  0.6619
   23CHL1  H26B 1697   1.943   4.573   5.171  0.2230  0.6262  0.3213
   23CHL1  H26C 1698   2.075   4.454   5.145  0.0513  1.3434 -1.1658
   23CHL1   C27 1699   1.927   4.538   5.447  0.0445  0.7198  0.5322
   23CHL1  H27A 1700   1.970   4.578   5.541  1.4959 -2.5869  1.4143
   23CHL1  H27B 1701   1.883   4.627   5.397 -1.8924 -0.7347 -0.4783
   23CHL1  H27C 1702   1.850   4.462   5.473  0.0581  0.5520  0.0762
   24CHL1    C3 1703   0.967   0.192   6.973 -0.4189  0.6833  0.8687
   24CHL1    H3 1704   1.048   0.269   6.971  0.4213 -0.1557  1.8219
   24CHL1    O3 1705   0.974   0.110   7.086  0.0568 -0.3758  0.1993
   24CHL1   H3' 1706   0.923   0.030   7.073  0.5176 -0.9894  1.8957
   24CHL1    C4 1707   0.822   0.251   6.973 -0.2801 -0.1672  0.5654
   24CHL1   H4A 1708   0.754   0.171   7.009  1.4393 -2.1178 -0.3572
   24CHL1   H4B 1709   0.828   0.325   7.057  1.7785  1.5071 -0.9292
   24CHL1    C5 1710   0.775   0.322   6.848 -0.6622 -0.1491  0.2674
   24CHL1    C6 1711   0.712   0.438   6.847 -0.6978  0.2706  0.1550
   24CHL1    H6 1712   0.699   0.492   6.942 -1.0692  2.0027 -0.8357
   24CHL1    C7 1713   0.648   0.503   6.727 -0.7099  0.6472  0.7254
   24CHL1   H7A 1714   0.546   0.539   6.755 -0.4092  0.1531  2.5593
   24CHL1   H7B 1715   0.701   0.593   6.690  0.4574 -0.5823 -0.6654
   24CHL1    C8 1716   0.638   0.407   6.604 -0.5913 -0.4802  0.8353
   24CHL1    H8 1717   0.546   0.346   6.621 -0.2726 -0.3856  3.0881
   24CHL1   C14 1718   0.625   0.492   6.482  0.3501  0.7666 -0.5106
   24CHL1   H14 1719   0.717   0.552   6.472  0.2724  1.4665  2.2140
   24CHL1   C15 1720   0.514   0.603   6.484  0.6440 -0.9970 -0.0854
   24CHL1  H15A 1721   0.417   0.574   6.532  0.7276 -0.3110  0.5179
   24CHL1  H15B 1722   0.556   0.684   6.547  2.0211 -1.0518 -0.9061
   24CHL1   C16 1723   0.503   0.632   6.338  1.0649  0.0046  0.6088
   24CHL1  H16A 1724   0.395   0.622   6.312  0.6653  2.5933  1.0523
   24CHL1  H16B 1725   0.535   0.733   6.305 -0.8281  0.6241  0.5192
   24CHL1   C17 1726   0.589   0.529   6.259  0.4513  0.0130  0.1923
   24CHL1   H17 1727   0.692   0.570   6.259  0.7649 -0.6823 -1.7152
   24CHL1   C13 1728   0.600   0.413   6.354 -0.5167  0.2235  0.0198
   24CHL1   C18 1729   0.453   0.345   6.361  0.0084  0.1395 -0.3201
   24CHL1  H18A 1730   0.434   0.297   6.263  0.1518  0.6502 -0.5993
   24CHL1  H18B 1731   0.449   0.268   6.441 -1.3567 -1.2142 -1.6286
   24CHL1  H18C 1732   0.373   0.421   6.364  0.8929  1.2896 -2.9734
   24CHL1   C12 1733   0.714   0.311   6.328  0.3933 -1.3552  0.2170
   24CHL1  H12A 1734   0.675   0.237   6.255  0.5766 -0.0208 -1.3031
   24CHL1  H12B 1735   0.807   0.366   6.302 -1.2056  1.6513  0.4236
   24CHL1   C11 1736   0.750   0.239   6.461  0.7145 -0.5850  0.2658
   24CHL1  H11A 1737   0.673   0.160   6.474  0.8181 -0.7891 -0.3514
   24CHL1  H11B 1738   0.852   0.197   6.449  1.7914  2.1906 -1.0734
   24CHL1    C9 1739   0.763   0.323   6.591  0.9860 -0.7073 -0.0013
   24CHL1    H9 1740   0.849   0.391   6.573  1.1185 -1.1722 -1.1466
   24CHL1   C10 1741   0.796   0.238   6.719 -0.1510  0.6200  0.3918
   24CHL1   C19 1742   0.697   0.118   6.722  0.1217  0.5546 -0.2914
   24CHL1  H19A 1743   0.694   0.069   6.821 -1.7458  3.3334  1.1527
   24CHL1  H19B 1744   0.594   0.159   6.707 -0.5958 -1.5749 -1.7071
   24CHL1  H19C 1745   0.703   0.053   6.632  0.7587  1.8858 -1.2463
   24CHL1    C1 1746   0.947   0.186   6.720  0.4164  0.6489  0.1573
   24CHL1   H1A 1747   0.949   0.120   6.630 -0.3375  0.4737  0.2618
   24CHL1   H1B 1748   1.015   0.272   6.705  2.0968 -0.2886  1.9388
   24CHL1    C2 1749   1.001   0.115   6.843  0.0179 -0.5807  0.2735
   24CHL1   H2A 1750   1.111   0.104   6.840  0.2317  1.3316 -0.3173
   24CHL1   H2B 1751   0.955   0.014   6.842 -2.1598  0.3478  0.3176
   24CHL1   C20 1752   0.531   0.523   6.111  1.3551 -0.5243  0.3716
   24CHL1   H20 1753   0.427   0.481   6.115  2.0570 -2.3197  1.2675
   24CHL1   C21 1754   0.617   0.424   6.035  0.8106 -0.7477 -0.1956
   24CHL1  H21A 1755   0.628   0.321   6.077 -1.1564 -0.6219  0.7420
   24CHL1  H21B 1756   0.721   0.464   6.033  0.1466  1.1596  1.1194
   24CHL1  H21C 1757   0.577   0.409   5.933 -1.1182 -0.6374  0.4973
   24CHL1   C22 1758   0.533   0.665   6.048  0.4365  0.0456 -0.0146
   24CHL1  H22A 1759   0.495   0.752   6.106  0.1334  0.4669 -0.8221
   24CHL1  H22B 1760   0.639   0.692   6.031 -0.1833  3.0045  0.2720
   24CHL1   C23 1761   0.455   0.677   5.912 -0.0301  0.4176 -0.2669
   24CHL1  H23A 1762   0.471   0.590   5.846  1.2938 -0.5068  1.2147
   24CHL1  H23B 1763   0.347   0.676   5.941  0.2443  0.8386  0.8224
   24CHL1   C24 1764   0.479   0.808   5.841 -0.4481  0.1622 -0.2530
   24CHL1  H24A 1765   0.464   0.893   5.912 -0.7776  1.0976 -1.4178
   24CHL1  H24B 1766   0.588   0.813   5.824 -0.2411  0.3942  1.0231
   24CHL1   C25 1767   0.400   0.826   5.710  0.0086  0.4167 -0.2001
   24CHL1   H25 1768   0.405   0.732   5.651  0.6229  1.2268 -1.4746
   24CHL1   C26 1769   0.247   0.846   5.733  0.1743 -0.1867 -0.2165
   24CHL1  H26A 1770   0.192   0.883   5.644 -0.4655  0.7720  0.5643
   24CHL1  H26B 1771   0.186   0.755   5.753  1.3673 -1.0412 -0.3691
   24CHL1  H26C 1772   0.228   0.921   5.813  0.8888  0.8006 -0.9457
   24CHL1   C27 1773   0.456   0.938   5.619  0.5167  0.6853 -0.6114
   24CHL1  H27A 1774   0.546   0.922   5.555  0.9891  1.9356 -0.2858
   24CHL1  H27B 1775   0.377   0.965   5.546  0.9272  0.5252 -1.1220
   24CHL1  H27C 1776   0.481   1.029   5.678  0.7965  0.0913  0.2172
   25CHL1    C3 1777   1.259   3.183   6.674 -0.6828 -0.2120  0.4430
   25CHL1    H3 1778   1.347   3.228   6.623 -1.3111  0.3505 -0.1726
   25CHL1    O3 1779   1.286   3.173   6.816  0.1101 -0.2031 -0.2341
   25CHL1   H3' 1780   1.243   3.093   6.850  0.1919  0.4551  1.5360
   25CHL1    C4 1781   1.134   3.276   6.656  0.4869  0.1432  0.0250
   25CHL1   H4A 1782   1.051   3.226   6.711  0.0995 -0.3319 -0.9622
   25CHL1   H4B 1783   1.148   3.371   6.711  3.1576 -0.0824 -0.1714
   25CHL1    C5 1784   1.111   3.285   6.507  0.4597 -0.3646  0.1315
   25CHL1    C6 1785   1.101   3.411   6.450 -0.5424  0.4806  0.8415
   25CHL1    H6 1786   1.128   3.502   6.507 -1.9613  1.0312  0.6764
   25CHL1    C7 1787   1.062   3.425   6.307 -0.4725  0.9276  0.2241
   25CHL1   H7A 1788   1.002   3.515   6.281 -0.6446  0.3838 -1.3780
   25CHL1   H7B 1789   1.152   3.435   6.242 -1.1837 -0.2185 -0.9932
   25CHL1    C8 1790   0.985   3.303   6.244 -0.5885 -0.5384 -0.3040
   25CHL1    H8 1791   0.881   3.293   6.283 -0.3849 -1.1189  0.1171
   25CHL1   C14 1792   0.972   3.327   6.094  0.1876  0.6979  0.1695
   25CHL1   H14 1793   1.077   3.321   6.059 -0.0069 -0.4993 -0.2488
   25CHL1   C15 1794   0.912   3.453   6.020  0.0852 -0.9735  0.6189
   25CHL1  H15A 1795   0.809   3.468   6.059  0.2440  0.1671  0.6124
   25CHL1  H15B 1796   0.977   3.543   6.020 -1.4917  0.3864 -3.0787
   25CHL1   C16 1797   0.901   3.406   5.876  0.0295  0.2608 -0.2174
   25CHL1  H16A 1798   0.803   3.438   5.833  0.5226  1.8348 -0.2103
   25CHL1  H16B 1799   0.979   3.454   5.813 -0.4828  0.7984 -0.4507
   25CHL1   C17 1800   0.921   3.254   5.879 -0.5807  0.2089  0.7222
   25CHL1   H17 1801   1.027   3.245   5.846 -1.2210  0.1853 -1.4699
   25CHL1   C13 1802   0.916   3.203   6.023 -0.3320  0.0154  0.1385
   25CHL1   C18 1803   0.772   3.185   6.062 -0.0226 -0.2505  0.4896
   25CHL1  H18A 1804   0.737   3.091   6.015  2.9371 -0.1545 -2.2185
   25CHL1  H18B 1805   0.758   3.180   6.173 -0.0703  1.1834  0.5769
   25CHL1  H18C 1806   0.711   3.267   6.017 -3.2465 -1.8700  1.6008
   25CHL1   C12 1807   1.009   3.080   6.052  0.3921  0.0226 -0.0952
   25CHL1  H12A 1808   0.986   2.986   5.997  0.1217  1.1770 -2.0512
   25CHL1  H12B 1809   1.111   3.105   6.015  0.0043  1.7858 -0.0455
   25CHL1   C11 1810   1.016   3.048   6.202 -0.4419 -0.2574  0.1969
   25CHL1  H11A 1811   0.915   3.026   6.243 -1.1624  0.5089 -1.0834
   25CHL1  H11B 1812   1.073   2.956   6.226  2.0510  0.7697 -1.3247
   25CHL1    C9 1813   1.065   3.174   6.280 -0.6601 -0.1512  0.1184
   25CHL1    H9 1814   1.168   3.190   6.241 -1.1313 -0.6456 -1.3671
   25CHL1   C10 1815   1.082   3.156   6.430  0.2467  0.2802 -0.4040
   25CHL1   C19 1816   0.947   3.088   6.479 -0.0825  0.1999 -0.6484
   25CHL1  H19A 1817   0.917   3.109   6.584 -2.5558  0.1671 -1.2764
   25CHL1  H19B 1818   0.858   3.131   6.428 -0.8721 -0.3331  0.2519
   25CHL1  H19C 1819   0.964   2.980   6.458  0.3298 -0.1506  1.3108
   25CHL1    C1 1820   1.204   3.062   6.460 -0.1273 -0.1078 -0.5935
   25CHL1   H1A 1821   1.202   2.960   6.417  1.8913 -1.4767  2.2220
   25CHL1   H1B 1822   1.290   3.115   6.413 -1.3573  1.3307 -1.3247
   25CHL1    C2 1823   1.238   3.045   6.611 -0.3418  0.3188  0.8429
   25CHL1   H2A 1824   1.331   2.984   6.618  0.0465  0.4504 -2.1212
   25CHL1   H2B 1825   1.160   2.979   6.654  0.6520 -0.9494  0.7624
   25CHL1   C20 1826   0.859   3.176   5.760 -0.4067 -0.2736  0.0916
   25CHL1   H20 1827   0.754   3.212   5.769 -0.1811  0.2932  0.5204
   25CHL1   C21 1828   0.865   3.026   5.778  0.4971  0.1916  0.1663
   25CHL1  H21A 1829   0.829   2.974   5.688  1.8177  0.9662 -0.8545
   25CHL1  H21B 1830   0.799   2.983   5.856  0.6161 -2.7989 -1.2306
   25CHL1  H21C 1831   0.969   2.988   5.790 -0.0642 -1.1744  0.8885
   25CHL1   C22 1832   0.911   3.227   5.626 -0.3265  0.5029 -0.0164
   25CHL1  H22A 1833   0.938   3.335   5.619 -1.7834  0.8271 -1.4129
   25CHL1  H22B 1834   1.008   3.175   5.616 -0.6859  0.1038 -1.9898
   25CHL1   C23 1835   0.830   3.192   5.491  0.8468 -0.2514  0.2434
   25CHL1  H23A 1836   0.824   3.081   5.486 -1.2134 -0.1888  0.1932
   25CHL1  H23B 1837   0.729   3.238   5.497  0.7062 -0.4854 -0.2459
   25CHL1   C24 1838   0.906   3.257   5.380  1.2742  0.3340 -0.4295
   25CHL1  H24A 1839   0.921   3.363   5.408 -2.2699  0.3910  1.7988
   25CHL1  H24B 1840   1.006   3.208   5.374  0.9458 -0.1770 -2.3749
   25CHL1   C25 1841   0.831   3.237   5.246 -0.2317  0.2378 -0.8294
   25CHL1   H25 1842   0.735   3.293   5.239  0.3872  1.3859 -0.3657
   25CHL1   C26 1843   0.914   3.291   5.136  0.6194 -0.1510  0.0950
   25CHL1  H26A 1844   1.006   3.232   5.118  0.9961  1.1025 -2.5609
   25CHL1  H26B 1845   0.858   3.288   5.040  2.2448  1.6960 -0.9875
   25CHL1  H26C 1846   0.942   3.397   5.155 -0.5095 -0.0411  1.2662
   25CHL1   C27 1847   0.809   3.086   5.221  0.5299  0.1669 -0.4316
   25CHL1  H27A 1848   0.729   3.053   5.290  0.5543 -0.1352 -0.5433
   25CHL1  H27B 1849   0.765   3.076   5.120 -0.5327 -0.5457  0.0904
   25CHL1  H27C 1850   0.892   3.013   5.235 -0.8113 -0.9720  2.2497
   26CHL1    C3 1851   4.455   1.155   6.738 -0.1565 -0.4025 -0.2222
   26CHL1    H3 1852   4.519   1.246   6.743 -0.0361 -0.5400  2.2088
   26CHL1    O3 1853   4.426   1.116   6.870  0.3609 -0.1221  0.0359
   26CHL1   H3' 1854   4.378   1.188   6.912  0.9869  1.3975 -1.6895
   26CHL1    C4 1855   4.327   1.206   6.665 -0.4311 -0.4021  0.2434
   26CHL1   H4A 1856   4.251   1.128   6.687 -4.9047  3.2107 -0.9808
   26CHL1   H4B 1857   4.288   1.301   6.706  1.6702  1.2582 -1.3781
   26CHL1    C5 1858   4.345   1.218   6.512 -0.4796  0.0750 -0.0378
   26CHL1    C6 1859   4.309   1.335   6.453  0.6640  0.6569 -0.1776
   26CHL1    H6 1860   4.267   1.417   6.514 -2.0881 -0.7102 -0.0844
   26CHL1    C7 1861   4.316   1.355   6.306 -0.0093 -0.5204 -0.2363
   26CHL1   H7A 1862   4.235   1.419   6.263 -0.6674  1.2603  3.3035
   26CHL1   H7B 1863   4.405   1.418   6.288 -0.1893 -0.9514 -3.1340
   26CHL1    C8 1864   4.333   1.233   6.218  0.1542  0.7363  0.4426
   26CHL1    H8 1865   4.238   1.176   6.210  0.9590 -0.6469  0.3356
   26CHL1   C14 1866   4.376   1.280   6.070 -0.1840 -0.1870 -0.4576
   26CHL1   H14 1867   4.469   1.341   6.069 -0.9680  1.0621 -0.3852
   26CHL1   C15 1868   4.279   1.370   5.999  0.1944 -0.0159 -0.5871
   26CHL1  H15A 1869   4.174   1.356   6.032  0.8553  0.1414  1.8276
   26CHL1  H15B 1870   4.315   1.475   6.010  3.4660 -0.5567 -3.9652
   26CHL1   C16 1871   4.298   1.336   5.852 -0.7630 -0.0607  0.6175
   26CHL1  H16A 1872   4.203   1.286   5.824 -0.5781 -0.2692  0.3573
   26CHL1  H16B 1873   4.316   1.425   5.788  0.3914 -1.6683 -1.4185
   26CHL1   C17 1874   4.408   1.232   5.843 -0.4625 -0.5528 -0.2716
   26CHL1   H17 1875   4.503   1.289   5.831 -2.5559  3.2792 -0.1642
   26CHL1   C13 1876   4.393   1.163   5.981 -0.1880  0.2823  0.7566
   26CHL1   C18 1877   4.267   1.077   5.976 -0.4028  0.5472 -0.1926
   26CHL1  H18A 1878   4.241   1.030   6.073 -1.8663  1.3559 -0.1734
   26CHL1  H18B 1879   4.178   1.130   5.939 -0.9996  0.6443  1.3331
   26CHL1  H18C 1880   4.291   0.995   5.904  2.3893  2.8268 -2.0780
   26CHL1   C12 1881   4.521   1.078   6.032 -0.4009  0.1430 -0.0279
   26CHL1  H12A 1882   4.567   0.995   5.975  2.0092  0.7696  0.8713
   26CHL1  H12B 1883   4.594   1.162   6.037 -1.3425  1.0713 -1.0493
   26CHL1   C11 1884   4.496   1.031   6.178  0.2958  0.3953 -0.7354
   26CHL1  H11A 1885   4.420   0.950   6.181 -1.0056  1.5948 -0.4633
   26CHL1  H11B 1886   4.598   1.002   6.212  0.6677  1.0771 -1.2451
   26CHL1    C9 1887   4.441   1.143   6.279 -0.3965  0.1428  0.2793
   26CHL1    H9 1888   4.526   1.214   6.281 -0.9124  1.0089 -2.9704
   26CHL1   C10 1889   4.408   1.098   6.424  0.3458 -1.0006  0.1185
   26CHL1   C19 1890   4.315   0.976   6.422 -0.0773  0.5901 -0.3399
   26CHL1  H19A 1891   4.220   0.996   6.368 -0.5200 -1.3849 -0.3837
   26CHL1  H19B 1892   4.355   0.886   6.369  0.0246 -0.0049  0.7248
   26CHL1  H19C 1893   4.296   0.934   6.523  0.3429 -1.3607 -1.0223
   26CHL1    C1 1894   4.538   1.063   6.502 -0.8360 -0.8489 -0.4743
   26CHL1   H1A 1895   4.591   0.977   6.455  0.1491 -0.9059  0.6783
   26CHL1   H1B 1896   4.610   1.148   6.501 -1.3511 -0.4064 -0.6988
   26CHL1    C2 1897   4.521   1.039   6.648  0.0510 -0.4849  0.1742
   26CHL1   H2A 1898   4.620   1.032   6.698  0.2224  1.3132  0.1484
   26CHL1   H2B 1899   4.471   0.941   6.664  1.2725 -1.2562 -0.6091
   26CHL1   C20 1900   4.393   1.151   5.711  0.1725 -0.4413  0.7215
   26CHL1   H20 1901   4.284   1.130   5.707  0.1267 -0.1258  0.1166
   26CHL1   C21 1902   4.481   1.025   5.719 -0.0732  0.0695  0.1690
   26CHL1  H21A 1903   4.470   0.969   5.624 -0.4322 -0.6937  0.6516
   26CHL1  H21B 1904   4.453   0.962   5.806  1.1194  0.0216  0.5376
   26CHL1  H21C 1905   4.588   1.053   5.731 -0.3346  0.5205  1.7485
   26CHL1   C22 1906   4.421   1.231   5.584 -0.5355 -0.0465  0.1742
   26CHL1  H22A 1907   4.357   1.322   5.580 -3.7690 -2.1578  0.0275
   26CHL1  H22B 1908   4.529   1.257   5.581 -0.1882 -1.5458 -1.2067
   26CHL1   C23 1909   4.382   1.159   5.454  0.0135  0.6729  0.1653
   26CHL1  H23A 1910   4.454   1.076   5.436  1.1790  1.8337 -0.6605
   26CHL1  H23B 1911   4.277   1.120   5.456  0.2580 -0.0733 -0.7174
   26CHL1   C24 1912   4.394   1.245   5.331 -0.9060  0.2947 -0.1106
   26CHL1  H24A 1913   4.333   1.338   5.332 -1.4509 -0.0604  0.7965
   26CHL1  H24B 1914   4.503   1.267   5.337 -0.5449 -1.7739  2.2246
   26CHL1   C25 1915   4.375   1.169   5.194  0.3310  0.1502  0.1176
   26CHL1   H25 1916   4.444   1.082   5.200  1.2253  0.6772 -1.8199
   26CHL1   C26 1917   4.227   1.119   5.189  0.1469 -0.1686 -0.3168
   26CHL1  H26A 1918   4.213   1.052   5.277  1.4392 -1.0366 -0.7474
   26CHL1  H26B 1919   4.164   1.210   5.199  2.2751  1.3543 -0.1526
   26CHL1  H26C 1920   4.195   1.055   5.104 -3.1374  2.5029 -1.3214
   26CHL1   C27 1921   4.396   1.248   5.071  0.5894  0.4326  0.7236
   26CHL1  H27A 1922   4.347   1.195   4.987  2.3714  0.6343 -0.4912
   26CHL1  H27B 1923   4.349   1.346   5.094  0.9003  0.3858  1.6016
   26CHL1  H27C 1924   4.501   1.276   5.046  0.3262  2.7622  1.8608
   27CHL1    C3 1925   2.685   6.393   7.021  0.0231  0.1705 -0.1898
   27CHL1    H3 1926   2.591   6.451   7.017 -0.2304 -0.2968 -2.0877
   27CHL1    O3 1927   2.735   6.386   7.151  0.1726  0.4240 -0.4103
   27CHL1   H3' 1928   2.810   6.327   7.156  0.8453  1.1708 -1.1675
   27CHL1    C4 1929   2.652   6.247   6.975  0.2957  0.8867 -0.2592
   27CHL1   H4A 1930   2.740   6.188   7.010 -1.4445 -1.9004 -0.3135
   27CHL1   H4B 1931   2.560   6.223   7.033 -0.7016  1.7608 -1.4215
   27CHL1    C5 1932   2.629   6.226   6.824 -0.1050 -0.3111 -0.7528
   27CHL1    C6 1933   2.525   6.150   6.782 -0.6431  0.4528  0.1215
   27CHL1    H6 1934   2.462   6.106   6.861 -0.4414  1.1133  0.6665
   27CHL1    C7 1935   2.495   6.124   6.636  0.0682  0.4631  0.1977
   27CHL1   H7A 1936   2.461   6.020   6.614  0.5691  0.1134  1.0515
   27CHL1   H7B 1937   2.403   6.183   6.612 -0.9750 -0.6581  1.2740
   27CHL1    C8 1938   2.616   6.167   6.546 -0.4693  0.3402  0.0430
   27CHL1    H8 1939   2.695   6.089   6.557 -0.1363  0.9757  3.0420
   27CHL1   C14 1940   2.574   6.168   6.398  0.0987 -0.0779  0.6182
   27CHL1   H14 1941   2.490   6.241   6.400 -1.1033 -1.3272 -0.9915
   27CHL1   C15 1942   2.500   6.049   6.336 -0.3774  0.1869  0.2608
   27CHL1  H15A 1943   2.558   5.965   6.379  0.0476  0.6777  0.6411
   27CHL1  H15B 1944   2.394   6.046   6.370  0.0558  1.4091  1.7844
   27CHL1   C16 1945   2.519   6.068   6.184  0.4190  0.0179  0.0229
   27CHL1  H16A 1946   2.583   5.988   6.142 -0.3680  0.5138 -2.2356
   27CHL1  H16B 1947   2.420   6.081   6.136  0.4611  1.3250  0.2427
   27CHL1   C17 1948   2.596   6.203   6.168 -0.1457  0.0117 -0.0986
   27CHL1   H17 1949   2.520   6.283   6.173  0.4761  0.7568 -1.7964
   27CHL1   C13 1950   2.679   6.211   6.298 -0.0681 -0.1623  0.6353
   27CHL1   C18 1951   2.801   6.102   6.293  0.0823 -0.6481  0.0378
   27CHL1  H18A 1952   2.842   6.101   6.396  2.0382  0.8541 -0.6739
   27CHL1  H18B 1953   2.768   6.004   6.253 -0.7235 -0.6035  0.5866
   27CHL1  H18C 1954   2.884   6.140   6.230  0.9588 -3.1922 -0.4748
   27CHL1   C12 1955   2.729   6.352   6.338  0.3550  0.9185  0.6655
   27CHL1  H12A 1956   2.814   6.379   6.272 -1.7491 -0.0987 -2.7712
   27CHL1  H12B 1957   2.654   6.432   6.321  0.3228  0.5648 -1.0941
   27CHL1   C11 1958   2.776   6.359   6.487 -0.2870 -0.4040  0.3850
   27CHL1  H11A 1959   2.866   6.295   6.478 -0.2172 -0.2120 -0.3547
   27CHL1  H11B 1960   2.803   6.466   6.502 -1.2328  0.0370 -0.9017
   27CHL1    C9 1961   2.673   6.303   6.585 -0.5626  0.7432  0.8109
   27CHL1    H9 1962   2.590   6.376   6.577  0.7191  2.1995  0.3859
   27CHL1   C10 1963   2.722   6.310   6.730 -0.1189  0.2725 -0.3539
   27CHL1   C19 1964   2.859   6.235   6.735 -0.7306 -0.7119  0.0518
   27CHL1  H19A 1965   2.945   6.286   6.686 -0.5519 -0.5412  0.5392
   27CHL1  H19B 1966   2.893   6.225   6.840 -0.9670  0.9825  0.3259
   27CHL1  H19C 1967   2.854   6.136   6.685 -0.7345 -0.1003 -1.2126
   27CHL1    C1 1968   2.739   6.454   6.788  0.7888  0.5696 -0.1956
   27CHL1   H1A 1969   2.806   6.504   6.715  0.4748  1.3548  0.0453
   27CHL1   H1B 1970   2.640   6.503   6.779 -0.3099 -1.5730 -0.4846
   27CHL1    C2 1971   2.784   6.457   6.928  0.0992 -0.2901 -0.6260
   27CHL1   H2A 1972   2.800   6.565   6.948  1.4771 -0.2372 -1.8164
   27CHL1   H2B 1973   2.884   6.409   6.935  1.2120  1.9609 -0.1312
   27CHL1   C20 1974   2.667   6.224   6.035 -0.2999 -0.1214 -0.1553
   27CHL1   H20 1975   2.767   6.176   6.038 -0.7806 -1.1462  2.2692
   27CHL1   C21 1976   2.686   6.376   6.013 -0.1987  0.4437 -0.4053
   27CHL1  H21A 1977   2.765   6.401   6.088  2.1069 -3.5887 -1.1876
   27CHL1  H21B 1978   2.592   6.433   6.026 -1.2505 -1.0813 -1.1102
   27CHL1  H21C 1979   2.733   6.403   5.916  0.6530 -0.5232 -0.2842
   27CHL1   C22 1980   2.589   6.152   5.919 -0.1626  0.4806 -0.3409
   27CHL1  H22A 1981   2.616   6.045   5.910  0.6399  0.7218 -0.8624
   27CHL1  H22B 1982   2.478   6.146   5.925 -0.1160 -1.4543 -0.7277
   27CHL1   C23 1983   2.630   6.198   5.777  0.3230  0.2104 -0.1741
   27CHL1  H23A 1984   2.596   6.303   5.764 -2.1565 -0.7429 -2.0965
   27CHL1  H23B 1985   2.740   6.195   5.766  0.3694 -1.0271  0.4581
   27CHL1   C24 1986   2.559   6.111   5.667 -0.2391  0.4749 -0.0447
   27CHL1  H24A 1987   2.612   6.143   5.574  0.4404 -2.1486 -0.6426
   27CHL1  H24B 1988   2.575   6.003   5.691 -0.7970  0.9843  3.0054
   27CHL1   C25 1989   2.409   6.143   5.651 -0.2270  0.3227  0.7676
   27CHL1   H25 1990   2.354   6.083   5.726 -2.6307  1.8565  0.3262
   27CHL1   C26 1991   2.363   6.291   5.651 -0.7073 -0.1561 -0.0542
   27CHL1  H26A 1992   2.409   6.366   5.583 -1.6317  2.4388  1.9907
   27CHL1  H26B 1993   2.254   6.308   5.633 -0.5955 -0.2846 -0.8784
   27CHL1  H26C 1994   2.392   6.320   5.754  0.3997  0.7861 -0.6105
   27CHL1   C27 1995   2.377   6.084   5.513  0.2615 -0.4278 -0.5406
   27CHL1  H27A 1996   2.273   6.098   5.477 -0.2322 -0.5609  0.7800
   27CHL1  H27B 1997   2.446   6.134   5.443  2.5538 -1.7986  0.6185
   27CHL1  H27C 1998   2.393   5.974   5.518 -0.8541 -0.7306 -2.5499
   28CHL1    C3 1999   1.453   1.329   7.007  0.4619 -0.9937  0.1507
   28CHL1    H3 2000   1.345   1.307   6.996  0.0524  0.9199 -0.0073
   28CHL1    O3 2001   1.493   1.338   7.143  0.1442 -0.3610 -0.7433
   28CHL1   H3' 2002   1.463   1.425   7.168 -1.0564 -0.8549 -0.3916
   28CHL1    C4 2003   1.538   1.213   6.945  0.3366 -0.2269 -0.6610
   28CHL1   H4A 2004   1.645   1.234   6.964  0.2635  0.6418 -1.1522
   28CHL1   H4B 2005   1.510   1.117   6.992 -3.0536  0.9838  0.1224
   28CHL1    C5 2006   1.513   1.204   6.798  0.4774  0.0731  0.6607
   28CHL1    C6 2007   1.453   1.089   6.749 -0.9621  0.6789 -0.2765
   28CHL1    H6 2008   1.440   0.999   6.810 -3.3683  0.1519 -1.4292
   28CHL1    C7 2009   1.415   1.070   6.605 -0.1829  0.5053  0.4619
   28CHL1   H7A 2010   1.461   0.978   6.563 -0.5707  0.1152  0.8848
   28CHL1   H7B 2011   1.305   1.063   6.593 -0.1204 -2.3361  0.8938
   28CHL1    C8 2012   1.458   1.189   6.517  0.3034 -0.0530 -0.3871
   28CHL1    H8 2013   1.566   1.174   6.500  0.0488  0.3169 -2.7203
   28CHL1   C14 2014   1.395   1.184   6.376  0.0043 -0.2157  0.5983
   28CHL1   H14 2015   1.287   1.205   6.387  0.0590 -0.5274  1.8401
   28CHL1   C15 2016   1.409   1.048   6.297 -0.4353  0.6023  0.4200
   28CHL1  H15A 2017   1.506   0.997   6.309 -0.4541  1.1081  3.4104
   28CHL1  H15B 2018   1.326   0.980   6.326  1.5466 -1.0839  2.4145
   28CHL1   C16 2019   1.385   1.083   6.144 -0.4239  0.0298 -0.4426
   28CHL1  H16A 2020   1.469   1.043   6.084  1.5391  1.0093  1.5086
   28CHL1  H16B 2021   1.290   1.034   6.112  0.2476 -1.2321 -0.5669
   28CHL1   C17 2022   1.374   1.234   6.153  0.3405 -0.8379 -0.5803
   28CHL1   H17 2023   1.268   1.261   6.174  0.5512  0.9496 -1.5558
   28CHL1   C13 2024   1.447   1.283   6.270  1.0357 -0.1697 -0.4825
   28CHL1   C18 2025   1.600   1.268   6.241 -0.1525 -0.5318 -0.5844
   28CHL1  H18A 2026   1.671   1.269   6.327 -1.2514  1.1640  0.3802
   28CHL1  H18B 2027   1.609   1.171   6.188 -0.3367 -0.7684 -0.1868
   28CHL1  H18C 2028   1.647   1.335   6.166 -0.1584 -1.1379 -1.1287
   28CHL1   C12 2029   1.407   1.423   6.331  0.7319  0.0341  0.1591
   28CHL1  H12A 2030   1.428   1.508   6.262  0.6734 -0.3286 -0.3085
   28CHL1  H12B 2031   1.298   1.431   6.347  0.6985  1.3652 -0.5224
   28CHL1   C11 2032   1.485   1.445   6.473 -0.8080  0.3573  0.4123
   28CHL1  H11A 2033   1.591   1.456   6.442 -0.7446 -0.5301  0.2813
   28CHL1  H11B 2034   1.459   1.543   6.518  1.5133  0.9199  0.6604
   28CHL1    C9 2035   1.449   1.330   6.575 -0.0688 -0.0244  0.1383
   28CHL1    H9 2036   1.341   1.339   6.596 -0.5317 -2.4725 -0.8529
   28CHL1   C10 2037   1.525   1.336   6.712  0.3844 -0.1348 -1.0190
   28CHL1   C19 2038   1.679   1.355   6.689 -0.2432 -0.1208 -0.6362
   28CHL1  H19A 2039   1.740   1.345   6.782 -0.3524  1.6497 -0.3448
   28CHL1  H19B 2040   1.720   1.281   6.617  0.2356  0.5191 -1.0317
   28CHL1  H19C 2041   1.700   1.459   6.657 -0.7920  0.1109 -0.2671
   28CHL1    C1 2042   1.466   1.456   6.793 -0.1951  0.0269 -0.2344
   28CHL1   H1A 2043   1.496   1.548   6.738 -3.5726  2.2510  1.2860
   28CHL1   H1B 2044   1.355   1.449   6.788 -0.2746  0.3456  0.9539
   28CHL1    C2 2045   1.493   1.463   6.940 -0.8945 -0.2164  0.1845
   28CHL1   H2A 2046   1.448   1.554   6.986 -3.5974 -1.2206 -0.3035
   28CHL1   H2B 2047   1.603   1.460   6.957 -1.0930 -1.8250  1.3835
   28CHL1   C20 2048   1.389   1.312   6.016  0.0611  0.9766 -0.1084
   28CHL1   H20 2049   1.411   1.413   6.055 -0.9010  0.8537  0.8115
   28CHL1   C21 2050   1.245   1.305   5.956  0.3150  0.0181  0.1086
   28CHL1  H21A 2051   1.223   1.201   5.920  0.1331 -0.2037  0.8526
   28CHL1  H21B 2052   1.243   1.373   5.868 -1.8647 -1.6621 -1.2674
   28CHL1  H21C 2053   1.161   1.332   6.023  0.1220 -0.7648  0.2009
   28CHL1   C22 2054   1.494   1.259   5.910 -0.0014  0.3000 -0.6458
   28CHL1  H22A 2055   1.595   1.245   5.955 -0.7473 -1.2793  0.6780
   28CHL1  H22B 2056   1.465   1.159   5.871  1.9895 -0.3539 -0.5840
   28CHL1   C23 2057   1.510   1.351   5.783 -0.0306  0.0985  0.0470
   28CHL1  H23A 2058   1.426   1.331   5.714 -1.3362  0.9672  1.3309
   28CHL1  H23B 2059   1.499   1.458   5.811 -2.6010 -0.8049  3.1841
   28CHL1   C24 2060   1.639   1.321   5.703  0.1157  0.9457 -0.5184
   28CHL1  H24A 2061   1.725   1.346   5.769 -1.0889 -0.4457  1.7051
   28CHL1  H24B 2062   1.630   1.212   5.683 -1.6748  1.3195 -2.0369
   28CHL1   C25 2063   1.656   1.381   5.562 -0.1346 -1.0675 -0.8911
   28CHL1   H25 2064   1.669   1.491   5.563 -1.3859 -0.8618  2.0126
   28CHL1   C26 2065   1.782   1.326   5.505  0.3110  0.6843  0.3910
   28CHL1  H26A 2066   1.780   1.216   5.487 -2.4838  1.0687 -2.4780
   28CHL1  H26B 2067   1.795   1.372   5.404 -1.3765 -0.8619 -0.5941
   28CHL1  H26C 2068   1.867   1.345   5.574  0.3965  0.3519  0.3798
   28CHL1   C27 2069   1.530   1.356   5.474  0.4986 -0.3871 -0.1068
   28CHL1  H27A 2070   1.516   1.249   5.446 -0.5429  0.3500 -2.6993
   28CHL1  H27B 2071   1.445   1.399   5.532  1.2821  1.1421 -0.0539
   28CHL1  H27C 2072   1.549   1.408   5.378 -0.3713  1.6144  0.7545
   29CHL1    C3 2073   3.876   5.786   3.445  0.4778  0.2112  0.1806
   29CHL1    H3 2074   3.972   5.841   3.446  0.5977  0.0014  1.0917
   29CHL1    O3 2075   3.841   5.770   3.303  0.1486  0.4197 -0.4211
   29CHL1   H3' 2076   3.792   5.688   3.305 -1.4777  1.3342 -0.3511
   29CHL1    C4 2077   3.899   5.645   3.507  0.3266 -0.0620  1.0749
   29CHL1   H4A 2078   3.805   5.588   3.492 -0.3113  0.4374  2.8546
   29CHL1   H4B 2079   3.969   5.579   3.451 -1.1186 -0.7335 -0.0095
   29CHL1    C5 2080   3.933   5.651   3.654  0.0199  0.1515  0.1488
   29CHL1    C6 2081   4.057   5.622   3.699 -0.2446 -0.3468 -0.1343
   29CHL1    H6 2082   4.129   5.574   3.631 -0.0703 -1.3613  0.7493
   29CHL1    C7 2083   4.105   5.630   3.844  0.4192 -0.1855  0.8167
   29CHL1   H7A 2084   4.153   5.531   3.863  3.4456  0.7871 -1.0565
   29CHL1   H7B 2085   4.170   5.717   3.864 -1.5140  2.1361 -2.2050
   29CHL1    C8 2086   3.989   5.646   3.933 -0.2859 -0.3102 -0.5457
   29CHL1    H8 2087   3.941   5.546   3.934  2.7681 -1.9114 -0.0594
   29CHL1   C14 2088   4.041   5.670   4.077 -0.1382  0.3731  0.6202
   29CHL1   H14 2089   4.098   5.766   4.079 -0.5666  0.6799 -1.0365
   29CHL1   C15 2090   4.140   5.571   4.132 -0.1289 -0.3612 -0.6499
   29CHL1  H15A 2091   4.104   5.467   4.122 -2.8005  0.3203  0.8484
   29CHL1  H15B 2092   4.239   5.576   4.082 -0.7726 -3.1323 -2.4356
   29CHL1   C16 2093   4.137   5.596   4.281  0.4970  0.0756 -0.3562
   29CHL1  H16A 2094   4.117   5.507   4.345 -1.3941  0.6092 -0.1471
   29CHL1  H16B 2095   4.237   5.622   4.322  0.7842 -1.7143  0.1740
   29CHL1   C17 2096   4.024   5.702   4.305 -0.9731  0.1615 -0.4470
   29CHL1   H17 2097   4.072   5.802   4.289  0.3399 -0.5442 -1.1123
   29CHL1   C13 2098   3.934   5.696   4.179  0.6033  0.6534 -0.6999
   29CHL1   C18 2099   3.839   5.575   4.201  0.2572  0.2072  0.1791
   29CHL1  H18A 2100   3.892   5.492   4.253  0.2665  1.1686  1.7725
   29CHL1  H18B 2101   3.748   5.609   4.255  0.5840  2.2484 -0.4637
   29CHL1  H18C 2102   3.804   5.533   4.104  0.6361 -0.6705  0.4162
   29CHL1   C12 2103   3.857   5.823   4.134 -0.0523  0.5032  0.3310
   29CHL1  H12A 2104   3.772   5.839   4.203  1.0992  1.6214  1.5378
   29CHL1  H12B 2105   3.931   5.906   4.142 -0.7497  1.2981 -1.0521
   29CHL1   C11 2106   3.799   5.806   3.995  1.3080 -0.1346 -0.3188
   29CHL1  H11A 2107   3.734   5.718   4.014 -0.1462  1.3502  2.0902
   29CHL1  H11B 2108   3.734   5.891   3.964 -0.1136 -1.0513  0.0468
   29CHL1    C9 2109   3.901   5.760   3.886 -0.5219  0.2208 -0.2728
   29CHL1    H9 2110   3.964   5.852   3.878 -0.9218  0.5746  0.5713
   29CHL1   C10 2111   3.837   5.726   3.744  1.0113  0.3959  0.4613
   29CHL1   C19 2112   3.706   5.639   3.761 -0.0346  1.1085  0.3203
   29CHL1  H19A 2113   3.673   5.597   3.664 -1.4247  0.8218  0.8885
   29CHL1  H19B 2114   3.719   5.555   3.833 -2.1074  0.4998  0.0533
   29CHL1  H19C 2115   3.626   5.709   3.793  0.7722  1.4105  1.7750
   29CHL1    C1 2116   3.811   5.871   3.680  0.8508  0.5174 -0.3510
   29CHL1   H1A 2117   3.725   5.917   3.732  1.9975  2.2009  0.1416
   29CHL1   H1B 2118   3.903   5.934   3.686  2.2164 -1.3805 -0.6545
   29CHL1    C2 2119   3.769   5.862   3.526  0.5515 -0.1875 -0.5203
   29CHL1   H2A 2120   3.758   5.961   3.477 -1.7144 -1.6841 -3.3757
   29CHL1   H2B 2121   3.676   5.801   3.525  0.7453 -0.6605  2.3306
   29CHL1   C20 2122   3.974   5.700   4.446  0.5024  0.8928  0.3043
   29CHL1   H20 2123   3.908   5.610   4.450  1.1984  0.1863 -2.2885
   29CHL1   C21 2124   3.883   5.824   4.478  0.1595  0.4521  1.0445
   29CHL1  H21A 2125   3.902   5.924   4.434  0.2603  1.1118  2.5140
   29CHL1  H21B 2126   3.870   5.845   4.586 -3.2461 -1.7935  1.2117
   29CHL1  H21C 2127   3.782   5.810   4.436  0.7893 -0.3913 -0.2531
   29CHL1   C22 2128   4.084   5.684   4.551  0.0441 -0.2096 -0.7291
   29CHL1  H22A 2129   4.183   5.642   4.522  0.6608 -0.2095  1.2432
   29CHL1  H22B 2130   4.112   5.789   4.575  1.1578 -0.9764  1.6542
   29CHL1   C23 2131   4.039   5.617   4.674  1.5264 -0.1859  0.1659
   29CHL1  H23A 2132   3.955   5.679   4.712  0.5869 -1.9161  0.9886
   29CHL1  H23B 2133   3.993   5.519   4.651  0.9872 -0.7064  3.1309
   29CHL1   C24 2134   4.147   5.602   4.779 -0.2172  0.0864 -0.4604
   29CHL1  H24A 2135   4.230   5.543   4.735 -0.5938 -2.1361  1.6324
   29CHL1  H24B 2136   4.171   5.703   4.819 -2.8070  1.6354 -2.4683
   29CHL1   C25 2137   4.107   5.531   4.901  0.8238  0.1071 -0.1943
   29CHL1   H25 2138   4.057   5.439   4.863 -0.0896  0.8113 -0.7385
   29CHL1   C26 2139   4.238   5.502   4.976  0.6220  0.4634  0.7623
   29CHL1  H26A 2140   4.294   5.595   4.997  1.3138  0.5597 -1.2573
   29CHL1  H26B 2141   4.218   5.439   5.065 -2.1589 -1.1982 -0.8536
   29CHL1  H26C 2142   4.304   5.442   4.910 -0.4484  0.2096 -0.1142
   29CHL1   C27 2143   4.005   5.615   4.985  0.1387 -0.6585  0.1478
   29CHL1  H27A 2144   3.923   5.556   5.031 -2.8583  0.8945 -2.7917
   29CHL1  H27B 2145   4.074   5.669   5.054 -0.9644 -0.8928  1.4851
   29CHL1  H27C 2146   3.949   5.692   4.928 -0.0427 -1.4567 -0.7715
   30CHL1    C3 2147   4.850   6.583   3.427 -1.2966  0.3450 -0.3222
   30CHL1    H3 2148   4.786   6.495   3.450 -2.4204  1.3731  0.6757
   30CHL1    O3 2149   4.830   6.634   3.299 -0.1892  0.2611  0.5242
   30CHL1   H3' 2150   4.847   6.728   3.299 -2.0665  0.7542 -2.5612
   30CHL1    C4 2151   4.826   6.699   3.518 -0.2180 -0.1366 -1.1722
   30CHL1   H4A 2152   4.904   6.774   3.494  0.9964 -1.1858 -0.5881
   30CHL1   H4B 2153   4.732   6.751   3.489  0.6912  2.3721  0.0885
   30CHL1    C5 2154   4.843   6.661   3.662 -0.3476  0.4518 -0.7649
   30CHL1    C6 2155   4.749   6.687   3.754  0.6831 -0.1268 -0.1591
   30CHL1    H6 2156   4.653   6.731   3.722 -0.3390 -0.3719  2.3998
   30CHL1    C7 2157   4.767   6.659   3.897 -0.2678 -0.6626 -0.1480
   30CHL1   H7A 2158   4.721   6.742   3.955  0.0878 -0.0707 -0.7052
   30CHL1   H7B 2159   4.706   6.571   3.928 -1.1655 -0.1466 -0.3941
   30CHL1    C8 2160   4.911   6.633   3.938 -0.5097  0.2340  0.1634
   30CHL1    H8 2161   4.948   6.738   3.928  0.3416 -0.1461 -0.9146
   30CHL1   C14 2162   4.918   6.584   4.081 -0.4745  0.1358  0.4714
   30CHL1   H14 2163   4.871   6.483   4.082 -1.9155  0.7798  0.1979
   30CHL1   C15 2164   4.831   6.662   4.185 -0.4716 -0.5160 -0.1614
   30CHL1  H15A 2165   4.835   6.772   4.170 -0.3126 -0.4722  0.1917
   30CHL1  H15B 2166   4.730   6.624   4.159 -0.8790  1.2428 -1.3257
   30CHL1   C16 2167   4.901   6.609   4.312  0.3439  0.2858  0.3052
   30CHL1  H16A 2168   4.935   6.695   4.374 -0.9915  1.9815 -1.1999
   30CHL1  H16B 2169   4.830   6.554   4.378  0.9367 -1.9764 -0.8742
   30CHL1   C17 2170   5.023   6.513   4.279 -0.0257 -0.1626  0.1491
   30CHL1   H17 2171   4.987   6.410   4.261  0.3667  0.0008 -1.8438
   30CHL1   C13 2172   5.070   6.562   4.139  0.6271 -0.2403 -0.1356
   30CHL1   C18 2173   5.150   6.697   4.144 -0.3708 -0.3830 -0.3775
   30CHL1  H18A 2174   5.252   6.678   4.183  0.3801  0.3298 -1.8875
   30CHL1  H18B 2175   5.147   6.754   4.049 -0.9902  0.4866  0.1465
   30CHL1  H18C 2176   5.113   6.767   4.223  4.9451 -1.8608  4.0185
   30CHL1   C12 2177   5.144   6.463   4.044 -0.1869 -0.7188 -0.3122
   30CHL1  H12A 2178   5.253   6.449   4.058  0.0518  0.4791 -0.9143
   30CHL1  H12B 2179   5.105   6.359   4.055  2.1029 -1.5216  1.0335
   30CHL1   C11 2180   5.123   6.507   3.899  0.1061  0.1620  0.2071
   30CHL1  H11A 2181   5.187   6.597   3.884 -1.4721  1.1548 -0.8338
   30CHL1  H11B 2182   5.167   6.427   3.836 -0.5718 -1.3735  1.6164
   30CHL1    C9 2183   4.982   6.538   3.842  0.3583  0.4372 -0.2255
   30CHL1    H9 2184   4.923   6.444   3.838  1.0046  0.0558 -3.1681
   30CHL1   C10 2185   4.978   6.594   3.697  0.1622 -0.7788 -0.8764
   30CHL1   C19 2186   5.088   6.699   3.679 -0.3787 -0.1101  0.0562
   30CHL1  H19A 2187   5.188   6.651   3.690  0.7470  2.2233  0.7005
   30CHL1  H19B 2188   5.092   6.743   3.577  0.0790 -0.9022 -0.2789
   30CHL1  H19C 2189   5.075   6.780   3.754  0.9419  0.3451 -0.1825
   30CHL1    C1 2190   5.006   6.481   3.599  0.3274  0.6066 -0.1405
   30CHL1   H1A 2191   5.110   6.446   3.617  0.4552  0.8473 -0.4096
   30CHL1   H1B 2192   4.933   6.399   3.620 -1.3187  1.5757 -1.7602
   30CHL1    C2 2193   4.991   6.516   3.450 -0.0872  0.9119 -0.1260
   30CHL1   H2A 2194   5.002   6.423   3.390  0.6893 -0.0108  1.3782
   30CHL1   H2B 2195   5.066   6.589   3.412  0.2647  0.0485 -1.1439
   30CHL1   C20 2196   5.139   6.504   4.385 -0.2471 -0.3372 -0.4464
   30CHL1   H20 2197   5.185   6.605   4.395  0.1124 -0.6748  2.0747
   30CHL1   C21 2198   5.243   6.400   4.338 -0.8367  0.3947 -0.1780
   30CHL1  H21A 2199   5.317   6.449   4.272 -1.2034  0.8213 -0.2756
   30CHL1  H21B 2200   5.204   6.306   4.293 -1.5597  0.3188  0.5856
   30CHL1  H21C 2201   5.310   6.375   4.424 -0.4845 -1.2388 -0.8779
   30CHL1   C22 2202   5.090   6.468   4.531 -0.7811 -0.3189  0.3393
   30CHL1  H22A 2203   5.002   6.525   4.566  1.9959  3.8192  1.2522
   30CHL1  H22B 2204   5.071   6.358   4.531 -0.7177 -0.3431 -0.9265
   30CHL1   C23 2205   5.202   6.486   4.639  0.1596  0.0934  0.6359
   30CHL1  H23A 2206   5.290   6.420   4.624 -0.2674 -0.1478 -0.9389
   30CHL1  H23B 2207   5.239   6.590   4.627  0.6376 -0.0256  1.0351
   30CHL1   C24 2208   5.131   6.481   4.776 -0.4837  0.2439  0.6855
   30CHL1  H24A 2209   5.049   6.555   4.784 -0.1181  0.9089 -1.1988
   30CHL1  H24B 2210   5.091   6.377   4.781  0.2114 -0.1125 -0.5606
   30CHL1   C25 2211   5.229   6.508   4.893  0.1159  0.6089  0.2132
   30CHL1   H25 2212   5.255   6.616   4.882 -3.0004  1.2916 -1.9406
   30CHL1   C26 2213   5.156   6.492   5.029  0.4310  0.6734 -0.2232
   30CHL1  H26A 2214   5.056   6.538   5.016 -0.0377 -0.5236 -0.9963
   30CHL1  H26B 2215   5.143   6.388   5.066  0.8453  0.7684  0.1951
   30CHL1  H26C 2216   5.207   6.554   5.106  1.8558  0.2998 -0.8245
   30CHL1   C27 2217   5.362   6.437   4.890 -0.4058 -0.0333  0.6361
   30CHL1  H27A 2218   5.346   6.329   4.910 -0.1204 -0.0249  0.9123
   30CHL1  H27B 2219   5.407   6.465   4.792 -2.8005  2.1039  0.0569
   30CHL1  H27C 2220   5.418   6.483   4.974 -0.2947  1.5675 -0.2579
   31CHL1    C3 2221   4.897   1.533   3.803 -0.6134 -0.0077  0.2830
   31CHL1    H3 2222   4.806   1.470   3.793 -0.0347 -0.8539  0.2305
   31CHL1    O3 2223   4.931   1.589   3.679 -0.2080  0.3879  0.1666
   31CHL1   H3' 2224   4.858   1.559   3.624 -0.5674 -1.1144  1.3915
   31CHL1    C4 2225   4.874   1.636   3.912 -0.3292 -0.3873  0.0762
   31CHL1   H4A 2226   4.960   1.707   3.914 -0.4559 -0.1982 -0.7382
   31CHL1   H4B 2227   4.791   1.703   3.879  0.8907  0.2956 -1.7575
   31CHL1    C5 2228   4.853   1.582   4.056 -0.6996 -0.4751 -0.2920
   31CHL1    C6 2229   4.750   1.613   4.131 -0.2030  0.0519 -0.3232
   31CHL1    H6 2230   4.687   1.699   4.101  0.7941  1.7184  2.0437
   31CHL1    C7 2231   4.723   1.558   4.264 -0.5340 -0.0875 -0.7375
   31CHL1   H7A 2232   4.665   1.621   4.336 -0.5183 -1.9861  1.0617
   31CHL1   H7B 2233   4.663   1.466   4.250  1.2005 -1.2868 -0.5818
   31CHL1    C8 2234   4.851   1.504   4.335 -0.2882  0.2336 -0.1624
   31CHL1    H8 2235   4.923   1.588   4.347  0.6633 -0.4617 -0.7770
   31CHL1   C14 2236   4.824   1.435   4.471 -0.2605 -0.8397  0.6784
   31CHL1   H14 2237   4.753   1.359   4.432  0.2990 -0.8478 -0.3717
   31CHL1   C15 2238   4.746   1.509   4.580  0.4891 -1.2070 -0.4966
   31CHL1  H15A 2239   4.781   1.614   4.584 -1.6240 -0.4677  0.3957
   31CHL1  H15B 2240   4.638   1.522   4.558  0.0107 -1.8432  1.3414
   31CHL1   C16 2241   4.770   1.427   4.710  0.3796  0.2837  0.3893
   31CHL1  H16A 2242   4.794   1.504   4.787 -1.0524  0.9594  0.1800
   31CHL1  H16B 2243   4.677   1.376   4.743 -0.4888  1.3010 -0.4083
   31CHL1   C17 2244   4.878   1.318   4.675 -0.6506 -0.4920  0.3765
   31CHL1   H17 2245   4.814   1.236   4.638 -1.9325  1.5148 -2.2188
   31CHL1   C13 2246   4.944   1.375   4.548 -0.3911 -0.3290  0.5041
   31CHL1   C18 2247   5.052   1.486   4.581 -0.4942 -0.5150 -0.3252
   31CHL1  H18A 2248   5.083   1.547   4.493 -0.0915  0.7822  0.6683
   31CHL1  H18B 2249   5.006   1.566   4.644 -1.8982 -1.0920 -0.5987
   31CHL1  H18C 2250   5.142   1.449   4.636 -0.9838 -1.6523 -0.2709
   31CHL1   C12 2251   5.005   1.278   4.445  0.0525  0.6801 -0.4568
   31CHL1  H12A 2252   5.102   1.243   4.488 -0.6209 -0.6374  0.0408
   31CHL1  H12B 2253   4.937   1.190   4.444  2.4325 -1.2707 -0.5365
   31CHL1   C11 2254   5.041   1.331   4.307 -0.7751 -0.3126 -0.1911
   31CHL1  H11A 2255   5.122   1.407   4.317 -0.7219 -0.3543 -0.3103
   31CHL1  H11B 2256   5.085   1.256   4.239  2.5024 -0.6557  2.0923
   31CHL1    C9 2257   4.922   1.408   4.239 -0.3946 -0.0399  0.1047
   31CHL1    H9 2258   4.858   1.319   4.223  1.5254 -1.3321 -0.6109
   31CHL1   C10 2259   4.961   1.484   4.105 -0.2876  0.3963  0.5045
   31CHL1   C19 2260   5.093   1.565   4.124 -0.2778  0.1665  0.0275
   31CHL1  H19A 2261   5.105   1.632   4.036 -1.6904  0.5039  0.0601
   31CHL1  H19B 2262   5.091   1.636   4.210 -1.0507  1.8047 -1.2760
   31CHL1  H19C 2263   5.177   1.494   4.137 -0.8091 -0.5100 -0.1850
   31CHL1    C1 2264   4.976   1.387   3.987 -0.0166  0.1723 -0.2817
   31CHL1   H1A 2265   5.052   1.310   4.013 -0.5540 -0.2688  0.0038
   31CHL1   H1B 2266   4.877   1.338   3.974 -0.3467  0.3209  1.5248
   31CHL1    C2 2267   5.017   1.441   3.852  0.2439 -0.4467  0.8572
   31CHL1   H2A 2268   5.015   1.354   3.783  0.5859  0.3306 -0.1652
   31CHL1   H2B 2269   5.118   1.487   3.846  0.0635  0.2605  2.7725
   31CHL1   C20 2270   4.951   1.262   4.799 -0.9416  0.5276 -0.0157
   31CHL1   H20 2271   5.009   1.347   4.842 -0.0452  0.1335 -0.4229
   31CHL1   C21 2272   5.051   1.146   4.752 -0.0537  0.6102 -0.1907
   31CHL1  H21A 2273   5.074   1.090   4.845 -1.9269 -1.2600 -0.7840
   31CHL1  H21B 2274   5.131   1.202   4.699 -1.4185  1.9136 -0.9616
   31CHL1  H21C 2275   4.995   1.073   4.690 -0.6764  0.4000  0.6067
   31CHL1   C22 2276   4.843   1.210   4.897 -0.6201 -0.0596 -0.0912
   31CHL1  H22A 2277   4.756   1.275   4.922 -1.9400 -2.0145  0.6826
   31CHL1  H22B 2278   4.796   1.124   4.844  0.5492 -1.1895  0.6431
   31CHL1   C23 2279   4.899   1.174   5.034 -0.1570  0.9332 -0.1994
   31CHL1  H23A 2280   4.954   1.078   5.024  1.3231  1.6207  1.0195
   31CHL1  H23B 2281   4.974   1.248   5.069 -0.3000  0.9196  0.1431
   31CHL1   C24 2282   4.796   1.160   5.151 -0.5313 -0.4848  0.5092
   31CHL1  H24A 2283   4.744   1.258   5.152  1.7494  0.7913  0.7095
   31CHL1  H24B 2284   4.718   1.081   5.139 -0.9411 -0.0266  0.1070
   31CHL1   C25 2285   4.855   1.122   5.286  0.6315 -0.1245  0.5193
   31CHL1   H25 2286   4.859   1.011   5.282 -0.9584 -0.1744 -0.4758
   31CHL1   C26 2287   4.990   1.190   5.309  0.1735 -0.2028 -0.0768
   31CHL1  H26A 2288   4.979   1.300   5.321  1.1546 -0.0031 -0.8990
   31CHL1  H26B 2289   5.036   1.159   5.404  2.0969  1.5414 -0.3543
   31CHL1  H26C 2290   5.060   1.178   5.223  0.3797  1.1330 -0.1243
   31CHL1   C27 2291   4.757   1.143   5.398 -0.2778  0.3767 -0.3050
   31CHL1  H27A 2292   4.667   1.078   5.388 -0.5603  0.1295  2.8661
   31CHL1  H27B 2293   4.805   1.107   5.492 -1.8072  1.5158  0.9704
   31CHL1  H27C 2294   4.711   1.244   5.409 -1.6437  0.1985 -3.4134
   32CHL1    C3 2295   2.788   5.170   3.485  0.0974 -0.5445 -0.0650
   32CHL1    H3 2296   2.872   5.243   3.483 -0.0708 -0.3502 -2.1581
   32CHL1    O3 2297   2.728   5.141   3.358 -0.2396 -0.0369  0.4296
   32CHL1   H3' 2298   2.648   5.194   3.359  0.7284  1.4891  2.3174
   32CHL1    C4 2299   2.845   5.043   3.547  0.3767  0.1518  1.7235
   32CHL1   H4A 2300   2.769   4.963   3.534  3.4671 -2.7160 -0.2315
   32CHL1   H4B 2301   2.922   5.000   3.481 -0.9292 -0.1653  0.3625
   32CHL1    C5 2302   2.881   5.056   3.693 -0.1170  0.1638  0.1167
   32CHL1    C6 2303   3.001   5.018   3.739  0.4865  0.1286  0.1114
   32CHL1    H6 2304   3.070   4.991   3.658  1.5211  0.5429  0.8359
   32CHL1    C7 2305   3.050   5.023   3.880  0.4687 -0.5309  0.1628
   32CHL1   H7A 2306   3.099   4.926   3.903 -0.0320 -1.6275 -2.8941
   32CHL1   H7B 2307   3.127   5.103   3.886 -1.9221  1.8914  0.6102
   32CHL1    C8 2308   2.928   5.058   3.979  0.1401 -0.2916  0.1179
   32CHL1    H8 2309   2.867   4.965   3.990  1.4079 -1.2636 -0.8113
   32CHL1   C14 2310   2.980   5.101   4.118 -0.3328  0.4818 -0.8227
   32CHL1   H14 2311   3.043   5.190   4.099  0.8077  0.0065  0.5935
   32CHL1   C15 2312   3.066   4.994   4.196  0.7813  0.6229 -0.1762
   32CHL1  H15A 2313   3.012   4.898   4.182 -1.1403  1.5511  0.4981
   32CHL1  H15B 2314   3.166   4.976   4.152  0.3611 -0.9528 -0.5565
   32CHL1   C16 2315   3.065   5.047   4.338  0.0075 -1.0824  0.5892
   32CHL1  H16A 2316   3.039   4.970   4.414 -2.1697  0.7715  1.8053
   32CHL1  H16B 2317   3.167   5.077   4.369  0.3422  0.8262 -2.0233
   32CHL1   C17 2318   2.967   5.173   4.346 -0.3461  0.3893  0.4822
   32CHL1   H17 2319   3.030   5.261   4.324  1.5087 -0.6357  1.4258
   32CHL1   C13 2320   2.878   5.155   4.216  0.6192  0.0478  0.2734
   32CHL1   C18 2321   2.771   5.053   4.244  0.0921 -0.1428 -0.1245
   32CHL1  H18A 2322   2.824   4.971   4.296 -0.7432 -0.0883  0.8417
   32CHL1  H18B 2323   2.696   5.097   4.313 -1.0771 -4.0919  1.4061
   32CHL1  H18C 2324   2.724   5.014   4.151  0.5185  0.1117 -0.4508
   32CHL1   C12 2325   2.812   5.279   4.148 -0.2638  0.9138 -0.5648
   32CHL1  H12A 2326   2.751   5.333   4.224 -2.0892  3.3575 -3.5203
   32CHL1  H12B 2327   2.900   5.343   4.125  1.6995 -1.4952 -0.0430
   32CHL1   C11 2328   2.740   5.241   4.018  0.2817  0.4934  0.2763
   32CHL1  H11A 2329   2.651   5.180   4.045  0.4382  0.5616  0.9554
   32CHL1  H11B 2330   2.691   5.336   3.987 -3.4015  0.3021  4.4900
   32CHL1    C9 2331   2.838   5.168   3.926 -0.5682 -0.3589 -0.1398
   32CHL1    H9 2332   2.920   5.240   3.902  0.6762 -1.4312  0.7824
   32CHL1   C10 2333   2.775   5.124   3.790 -0.7222  0.0682 -0.4400
   32CHL1   C19 2334   2.655   5.024   3.815  0.0378  0.2709  0.3009
   32CHL1  H19A 2335   2.577   5.061   3.884 -0.1712 -0.8066  0.6482
   32CHL1  H19B 2336   2.599   5.008   3.720 -0.7339 -0.3818  0.8569
   32CHL1  H19C 2337   2.690   4.926   3.853 -1.7745 -0.3304  0.5127
   32CHL1    C1 2338   2.721   5.252   3.719 -0.0985 -0.6832  0.8222
   32CHL1   H1A 2339   2.632   5.281   3.779 -1.4226 -2.0406 -0.3904
   32CHL1   H1B 2340   2.792   5.337   3.729 -0.5972 -0.3393  1.4849
   32CHL1    C2 2341   2.684   5.238   3.573 -0.7014  0.3085  0.0207
   32CHL1   H2A 2342   2.666   5.337   3.526 -0.8309 -0.6941 -2.1892
   32CHL1   H2B 2343   2.598   5.169   3.561 -0.7754  0.0602  1.8008
   32CHL1   C20 2344   2.903   5.189   4.483  0.0619 -0.2804 -0.3628
   32CHL1   H20 2345   2.827   5.109   4.489 -1.7760  1.4264  0.4095
   32CHL1   C21 2346   2.820   5.322   4.487  0.5916 -0.0190 -0.1066
   32CHL1  H21A 2347   2.784   5.358   4.586  2.0402  2.4680 -0.3873
   32CHL1  H21B 2348   2.729   5.303   4.425  1.5130 -0.5633 -1.3179
   32CHL1  H21C 2349   2.867   5.405   4.430 -1.3398  1.3164  0.1101
   32CHL1   C22 2350   2.994   5.184   4.605  0.6613 -0.5753  0.4104
   32CHL1  H22A 2351   3.047   5.086   4.605  0.4307 -0.7466 -1.9644
   32CHL1  H22B 2352   3.058   5.275   4.596 -2.5157  1.7648 -0.0850
   32CHL1   C23 2353   2.911   5.178   4.734  0.8038 -0.2554 -0.0100
   32CHL1  H23A 2354   2.865   5.277   4.752  0.3821 -0.5655  0.6618
   32CHL1  H23B 2355   2.831   5.102   4.731  0.4237  0.1656 -1.7435
   32CHL1   C24 2356   2.992   5.144   4.862  0.7693  0.5747 -0.8613
   32CHL1  H24A 2357   3.006   5.034   4.862 -1.2699  0.2624 -0.2910
   32CHL1  H24B 2358   3.088   5.197   4.850  2.1419 -0.7514  2.8350
   32CHL1   C25 2359   2.944   5.196   4.997 -0.1133  0.4715 -0.5621
   32CHL1   H25 2360   2.957   5.306   5.007  0.0742  0.6673 -2.5491
   32CHL1   C26 2361   2.795   5.154   5.020  0.3030 -0.2838 -0.9184
   32CHL1  H26A 2362   2.782   5.044   5.034 -0.8696  0.0991  1.5561
   32CHL1  H26B 2363   2.752   5.208   5.107 -0.2339 -1.0487 -0.6967
   32CHL1  H26C 2364   2.724   5.176   4.938 -1.4089 -1.9868  0.0386
   32CHL1   C27 2365   3.029   5.126   5.112  0.0684 -0.1108 -0.4596
   32CHL1  H27A 2366   2.984   5.153   5.210  1.4679  0.4877  0.0477
   32CHL1  H27B 2367   3.015   5.016   5.113  2.4017 -0.4550  0.2614
   32CHL1  H27C 2368   3.139   5.131   5.121  0.2722 -1.7107 -1.6079
   33CHL1    C3 2369   2.242   5.428   3.552  0.1238 -0.9181 -0.4344
   33CHL1    H3 2370   2.304   5.513   3.588  0.1189 -1.4031  0.7490
   33CHL1    O3 2371   2.276   5.403   3.417  0.1997 -0.0973 -0.1099
   33CHL1   H3' 2372   2.193   5.374   3.379  0.2580 -0.3742 -0.0285
   33CHL1    C4 2373   2.267   5.299   3.636 -0.4208  0.3977  0.5760
   33CHL1   H4A 2374   2.195   5.223   3.598 -0.0126 -0.4327  1.3914
   33CHL1   H4B 2375   2.367   5.251   3.621 -0.5742  0.5496 -1.0729
   33CHL1    C5 2376   2.249   5.322   3.783  0.0684 -0.3556  0.5468
   33CHL1    C6 2377   2.347   5.307   3.872  0.5802 -0.0796 -0.6805
   33CHL1    H6 2378   2.442   5.257   3.846  0.6631 -0.4458  0.2785
   33CHL1    C7 2379   2.337   5.344   4.016 -0.2515  0.4430  0.3471
   33CHL1   H7A 2380   2.390   5.275   4.086 -1.1717  1.3625  2.0038
   33CHL1   H7B 2381   2.384   5.445   4.020 -0.3907  0.4938  0.6920
   33CHL1    C8 2382   2.188   5.356   4.053 -0.3067 -0.0037  0.1204
   33CHL1    H8 2383   2.141   5.256   4.062 -1.7381  0.7739  2.2521
   33CHL1   C14 2384   2.173   5.411   4.196 -0.3963 -0.7570 -0.0269
   33CHL1   H14 2385   2.218   5.513   4.190 -0.3189 -0.7696  0.2945
   33CHL1   C15 2386   2.255   5.345   4.306  0.7784  0.1524  0.0190
   33CHL1  H15A 2387   2.227   5.237   4.299 -1.6684  0.7577 -5.5478
   33CHL1  H15B 2388   2.363   5.359   4.289  0.6730  0.8097 -0.1186
   33CHL1   C16 2389   2.196   5.405   4.432 -0.5598  0.5439 -0.0039
   33CHL1  H16A 2390   2.172   5.322   4.502 -1.2150  0.5945 -0.1632
   33CHL1  H16B 2391   2.265   5.479   4.478 -0.2518  0.4506 -0.3080
   33CHL1   C17 2392   2.062   5.473   4.395  0.0915 -0.6992 -0.5124
   33CHL1   H17 2393   2.093   5.579   4.383  0.6045 -0.8364 -0.4350
   33CHL1   C13 2394   2.033   5.424   4.252  0.6769  0.1031  0.1151
   33CHL1   C18 2395   1.960   5.281   4.264 -0.0592 -0.2108 -0.0219
   33CHL1  H18A 2396   1.861   5.287   4.313 -0.0997  0.4362 -0.1748
   33CHL1  H18B 2397   1.947   5.238   4.163 -0.9985  0.4392 -0.1882
   33CHL1  H18C 2398   2.024   5.212   4.324  0.2169 -1.7622 -2.0202
   33CHL1   C12 2399   1.963   5.528   4.160 -0.1661  0.0379  0.3356
   33CHL1  H12A 2400   1.857   5.542   4.190 -1.2752 -0.0665 -3.0886
   33CHL1  H12B 2401   2.018   5.624   4.148  1.0760 -0.6200  0.6123
   33CHL1   C11 2402   1.960   5.473   4.015 -0.1859 -0.2521 -0.0680
   33CHL1  H11A 2403   1.896   5.383   4.009  0.5128 -0.6621 -2.1736
   33CHL1  H11B 2404   1.916   5.551   3.949  1.8389  1.0708  0.0539
   33CHL1    C9 2405   2.103   5.449   3.962 -0.5866  0.3989  0.3493
   33CHL1    H9 2406   2.157   5.546   3.966  0.5077 -0.2088  0.8311
   33CHL1   C10 2407   2.113   5.393   3.821 -0.7837  0.1688  0.3579
   33CHL1   C19 2408   2.012   5.280   3.798  0.4073 -0.2662 -0.5754
   33CHL1  H19A 2409   2.030   5.213   3.886  1.2703  1.2030  0.4072
   33CHL1  H19B 2410   1.903   5.303   3.792  0.1470 -1.2172  0.1819
   33CHL1  H19C 2411   2.033   5.209   3.715  2.5043  0.4111 -0.6763
   33CHL1    C1 2412   2.065   5.499   3.715 -0.2745 -0.8404  0.5641
   33CHL1   H1A 2413   1.955   5.501   3.723 -0.2862  0.7546  0.4427
   33CHL1   H1B 2414   2.103   5.601   3.736 -2.0866  0.2611 -1.1656
   33CHL1    C2 2415   2.097   5.467   3.567 -0.2556 -0.3703 -0.5374
   33CHL1   H2A 2416   2.086   5.559   3.505 -1.4186  1.3037  1.9670
   33CHL1   H2B 2417   2.021   5.394   3.534  1.3344 -2.7092  0.7380
   33CHL1   C20 2418   1.950   5.469   4.501  0.3228 -0.1191 -0.3576
   33CHL1   H20 2419   1.894   5.373   4.497 -2.9674  1.6120  0.2156
   33CHL1   C21 2420   1.857   5.593   4.486  0.5358  0.4691 -0.0911
   33CHL1  H21A 2421   1.795   5.580   4.394 -2.6782  1.5011  1.7639
   33CHL1  H21B 2422   1.914   5.688   4.489  0.9053  0.2173  1.8038
   33CHL1  H21C 2423   1.783   5.603   4.568 -1.2221  0.6809 -1.6435
   33CHL1   C22 2424   2.009   5.469   4.652  0.5946  0.1181  0.3979
   33CHL1  H22A 2425   2.058   5.371   4.670  1.9886  0.5097 -1.0198
   33CHL1  H22B 2426   2.089   5.546   4.665 -0.1003  0.6382  1.7792
   33CHL1   C23 2427   1.907   5.491   4.760  0.0611  0.1827 -0.1091
   33CHL1  H23A 2428   1.875   5.598   4.759  0.6342  0.3815 -2.5199
   33CHL1  H23B 2429   1.814   5.433   4.745  1.7461 -2.8891  0.6372
   33CHL1   C24 2430   1.967   5.479   4.904  0.1887  0.0317  0.1962
   33CHL1  H24A 2431   2.031   5.389   4.917 -1.1384 -0.9013  0.4888
   33CHL1  H24B 2432   2.043   5.559   4.923 -1.5183  1.6986  0.3392
   33CHL1   C25 2433   1.859   5.486   5.019  0.0301 -0.8900  0.1121
   33CHL1   H25 2434   1.798   5.578   5.003 -0.1172 -1.0238 -0.1087
   33CHL1   C26 2435   1.779   5.354   5.027  0.1221  0.3674 -0.3836
   33CHL1  H26A 2436   1.748   5.314   4.928  0.8025  0.2290 -0.5475
   33CHL1  H26B 2437   1.845   5.274   5.068 -2.2138 -1.4959 -0.0687
   33CHL1  H26C 2438   1.694   5.353   5.097  0.2701  0.4142 -0.2033
   33CHL1   C27 2439   1.923   5.517   5.155  0.2736  0.3306  0.6784
   33CHL1  H27A 2440   1.859   5.473   5.235 -2.5735  0.3524 -1.4545
   33CHL1  H27B 2441   2.020   5.461   5.151 -0.3826 -0.8185 -3.0124
   33CHL1  H27C 2442   1.940   5.624   5.176  1.2550  0.4289 -0.5278
   34CHL1    C3 2443   6.028   1.057   3.572 -0.4560 -0.5401 -0.5433
   34CHL1    H3 2444   6.132   1.033   3.601 -0.4128  2.0182  1.9166
   34CHL1    O3 2445   6.006   1.063   3.435 -0.2555  0.2355  0.2332
   34CHL1   H3' 2446   5.913   1.083   3.420 -0.3847 -1.3994 -1.4711
   34CHL1    C4 2447   5.926   0.960   3.641  0.0601 -0.0630 -0.1033
   34CHL1   H4A 2448   5.827   0.998   3.607  0.6156  0.6738 -0.9477
   34CHL1   H4B 2449   5.931   0.862   3.588 -2.0707  0.6108 -1.7206
   34CHL1    C5 2450   5.939   0.960   3.788  0.5066 -0.1127 -0.7421
   34CHL1    C6 2451   5.939   0.835   3.844 -0.1162  0.0947 -0.1632
   34CHL1    H6 2452   5.947   0.740   3.790  0.9610 -1.2113  2.1549
   34CHL1    C7 2453   5.960   0.823   3.997  0.0144 -0.0498  0.3384
   34CHL1   H7A 2454   5.899   0.740   4.038 -0.6535  0.1485 -0.2402
   34CHL1   H7B 2455   6.064   0.791   4.018 -0.0183 -1.5755 -1.5276
   34CHL1    C8 2456   5.930   0.956   4.078 -0.3289  0.2086 -0.9514
   34CHL1    H8 2457   5.821   0.972   4.077 -0.3513  0.2690  0.3595
   34CHL1   C14 2458   5.994   0.950   4.220 -0.2676 -0.5251  0.5243
   34CHL1   H14 2459   6.102   0.948   4.193 -0.6937 -0.7904 -1.2931
   34CHL1   C15 2460   5.952   0.825   4.299  0.3680  0.2861 -0.1915
   34CHL1  H15A 2461   5.843   0.812   4.286 -0.0273  1.5182  1.5831
   34CHL1  H15B 2462   6.011   0.738   4.263  1.1897 -0.4258  2.5673
   34CHL1   C16 2463   5.992   0.866   4.447  0.2938  0.0714 -0.1669
   34CHL1  H16A 2464   5.904   0.859   4.514  0.8545 -0.6725  0.5134
   34CHL1  H16B 2465   6.073   0.806   4.494 -2.1832 -1.2217  2.7360
   34CHL1   C17 2466   6.042   1.011   4.435 -0.5166  0.3841  0.1182
   34CHL1   H17 2467   6.152   1.016   4.423 -0.3971  1.8490  1.5160
   34CHL1   C13 2468   5.979   1.073   4.306  0.2552 -0.0570 -0.2850
   34CHL1   C18 2469   5.826   1.090   4.340 -0.8264  0.5083  0.0553
   34CHL1  H18A 2470   5.796   1.027   4.426  1.1835  0.2964  0.6507
   34CHL1  H18B 2471   5.794   1.183   4.393 -0.1497 -1.6659  4.7976
   34CHL1  H18C 2472   5.757   1.083   4.253 -0.4235 -0.6582 -0.1915
   34CHL1   C12 2473   6.039   1.192   4.236  0.4419 -0.0846  0.1267
   34CHL1  H12A 2474   6.020   1.281   4.300 -1.6069 -0.1101 -0.3826
   34CHL1  H12B 2475   6.150   1.185   4.236  0.6573  2.3778 -0.8131
   34CHL1   C11 2476   5.975   1.204   4.094 -1.1112 -0.0115 -0.6295
   34CHL1  H11A 2477   5.868   1.224   4.114 -0.7335  0.8683  0.7074
   34CHL1  H11B 2478   6.019   1.293   4.044 -2.8690  2.5658  2.0279
   34CHL1    C9 2479   5.994   1.075   4.005  0.3610 -0.3320  0.7717
   34CHL1    H9 2480   6.104   1.056   4.002  0.7470  1.7912 -1.5390
   34CHL1   C10 2481   5.941   1.092   3.859 -0.8958 -0.4241 -0.1400
   34CHL1   C19 2482   5.800   1.154   3.883  0.4359  0.5711  0.2210
   34CHL1  H19A 2483   5.797   1.262   3.909  0.4514  0.4360  0.7862
   34CHL1  H19B 2484   5.749   1.155   3.784 -2.2900 -1.3698  1.4817
   34CHL1  H19C 2485   5.731   1.094   3.945 -0.1865 -1.3591 -2.1552
   34CHL1    C1 2486   6.037   1.186   3.784 -0.4393  0.1860 -0.2454
   34CHL1   H1A 2487   6.033   1.290   3.822 -2.4833 -0.2309  0.8294
   34CHL1   H1B 2488   6.136   1.136   3.784 -0.4490  0.0667 -2.3012
   34CHL1    C2 2489   6.001   1.194   3.632 -0.2248 -0.4528  0.0617
   34CHL1   H2A 2490   6.078   1.263   3.592  0.8508 -1.0217  1.0606
   34CHL1   H2B 2491   5.905   1.241   3.602 -1.1167 -1.5894  1.0548
   34CHL1   C20 2492   6.022   1.083   4.576  0.6821  0.4516  0.4174
   34CHL1   H20 2493   5.911   1.087   4.582  0.6347 -0.0346 -0.0769
   34CHL1   C21 2494   6.078   1.219   4.569 -1.0982 -0.6043  0.1059
   34CHL1  H21A 2495   6.071   1.260   4.672 -0.3005 -0.4619  0.1044
   34CHL1  H21B 2496   6.027   1.290   4.500  1.5067  0.4171 -0.8826
   34CHL1  H21C 2497   6.184   1.228   4.538 -1.4421  1.6394 -0.6186
   34CHL1   C22 2498   6.070   0.996   4.694 -0.0782 -0.9421 -0.1073
   34CHL1  H22A 2499   6.048   0.887   4.682 -1.0232 -0.6364 -1.4186
   34CHL1  H22B 2500   6.180   1.012   4.699 -0.0829  0.1036 -2.3819
   34CHL1   C23 2501   6.018   1.026   4.841  0.4276 -0.3421  0.4492
   34CHL1  H23A 2502   6.037   1.133   4.865  0.0213  0.0839 -0.9795
   34CHL1  H23B 2503   5.910   1.007   4.853  0.1504 -0.8594 -2.2622
   34CHL1   C24 2504   6.086   0.937   4.945  0.0372 -0.3579  0.0534
   34CHL1  H24A 2505   6.039   0.836   4.940 -1.2530  0.2494 -0.6673
   34CHL1  H24B 2506   6.195   0.939   4.925 -0.1220  2.1106 -1.0040
   34CHL1   C25 2507   6.067   0.987   5.090 -0.0149  0.4069  0.3928
   34CHL1   H25 2508   5.960   1.010   5.104 -0.7028 -1.0739 -1.8664
   34CHL1   C26 2509   6.087   0.874   5.193 -0.3821 -0.0075 -0.5281
   34CHL1  H26A 2510   6.050   0.913   5.290  0.1094  1.1525 -0.7840
   34CHL1  H26B 2511   6.037   0.777   5.172  0.6907 -1.3266  2.4541
   34CHL1  H26C 2512   6.196   0.856   5.207 -0.3900 -0.6598 -1.2287
   34CHL1   C27 2513   6.150   1.108   5.129  0.0222  0.1689  0.4499
   34CHL1  H27A 2514   6.164   1.122   5.238 -0.6958  0.9625  0.4494
   34CHL1  H27B 2515   6.244   1.091   5.073 -0.6911 -2.7583  0.0115
   34CHL1  H27C 2516   6.093   1.186   5.074  0.4830 -0.1519 -0.5011
   35CHL1    C3 2517   1.690   0.177   3.790  0.6149 -0.3708  0.5833
   35CHL1    H3 2518   1.611   0.100   3.805  0.8315 -0.8847 -0.7903
   35CHL1    O3 2519   1.689   0.230   3.660 -0.4326  0.7481 -0.2770
   35CHL1   H3' 2520   1.721   0.151   3.616  0.7682  1.2031 -0.2502
   35CHL1    C4 2521   1.669   0.301   3.885  0.2704 -0.0218 -0.4093
   35CHL1   H4A 2522   1.727   0.388   3.848  0.8874  0.4093  1.4546
   35CHL1   H4B 2523   1.565   0.330   3.861  0.6333  2.0597  0.3234
   35CHL1    C5 2524   1.702   0.277   4.029 -0.1883 -0.2854 -1.0050
   35CHL1    C6 2525   1.610   0.304   4.123  0.1036  0.2080 -0.4831
   35CHL1    H6 2526   1.509   0.337   4.095  0.9739  3.3893 -0.2286
   35CHL1    C7 2527   1.637   0.287   4.272  0.3650 -0.3926  0.0414
   35CHL1   H7A 2528   1.594   0.368   4.335 -0.8125 -1.0692  0.1533
   35CHL1   H7B 2529   1.597   0.187   4.300 -1.2804  0.1032 -0.4224
   35CHL1    C8 2530   1.800   0.287   4.301  0.3267  0.2254 -0.5818
   35CHL1    H8 2531   1.831   0.390   4.275 -0.7628  1.1644  1.5476
   35CHL1   C14 2532   1.828   0.235   4.441 -0.1705 -0.5618 -0.6276
   35CHL1   H14 2533   1.783   0.134   4.453  0.1540 -0.4008  3.1019
   35CHL1   C15 2534   1.761   0.323   4.556  0.3060  0.3818  0.1336
   35CHL1  H15A 2535   1.770   0.432   4.533 -1.6975  0.6987  0.6961
   35CHL1  H15B 2536   1.653   0.300   4.565  0.1074  1.5561  1.0540
   35CHL1   C16 2537   1.837   0.290   4.679 -0.0734  0.5631 -0.8521
   35CHL1  H16A 2538   1.881   0.385   4.716  0.4732 -0.6709  2.0041
   35CHL1  H16B 2539   1.775   0.252   4.763  0.1825  1.7123 -0.1170
   35CHL1   C17 2540   1.962   0.210   4.631 -0.0318  0.2766  0.5120
   35CHL1   H17 2541   1.937   0.102   4.643  2.0659 -0.2547  0.6285
   35CHL1   C13 2542   1.975   0.230   4.477 -0.5706 -0.1745  0.4367
   35CHL1   C18 2543   2.044   0.366   4.463 -0.1646  0.3149  0.7572
   35CHL1  H18A 2544   2.152   0.345   4.472 -0.2903 -0.9802 -0.4374
   35CHL1  H18B 2545   2.024   0.404   4.361 -0.4723 -1.6627  0.0490
   35CHL1  H18C 2546   2.001   0.445   4.529 -0.1741  0.3073  0.7601
   35CHL1   C12 2547   2.041   0.128   4.392  0.1455 -0.4780 -0.3220
   35CHL1  H12A 2548   2.149   0.133   4.415 -0.2225 -0.9506  1.6771
   35CHL1  H12B 2549   2.005   0.026   4.418 -0.1496 -0.2573  0.1446
   35CHL1   C11 2550   2.012   0.158   4.250 -0.6853 -0.1370  0.5346
   35CHL1  H11A 2551   2.075   0.246   4.226  3.2723 -2.2725  2.1571
   35CHL1  H11B 2552   2.039   0.067   4.192 -0.9211 -1.9588  3.0949
   35CHL1    C9 2553   1.866   0.183   4.206  0.4064 -0.0545  0.1033
   35CHL1    H9 2554   1.816   0.086   4.229 -0.8457  0.8903  1.5310
   35CHL1   C10 2555   1.841   0.221   4.056  1.1316 -0.0904  0.6794
   35CHL1   C19 2556   1.943   0.326   4.004 -0.5971  0.4716  0.5056
   35CHL1  H19A 2557   1.973   0.396   4.085 -0.4791  1.6136 -0.5160
   35CHL1  H19B 2558   2.036   0.271   3.979 -1.2928 -0.7193  0.4619
   35CHL1  H19C 2559   1.918   0.374   3.907  1.9646 -0.6133 -0.7904
   35CHL1    C1 2560   1.847   0.089   3.967 -0.3224 -0.9618  0.0408
   35CHL1   H1A 2561   1.948   0.045   3.974 -0.1478 -0.3559  1.9598
   35CHL1   H1B 2562   1.775   0.011   4.001 -2.1624  1.0747  1.0705
   35CHL1    C2 2563   1.820   0.107   3.815 -0.2552  0.3338 -0.0448
   35CHL1   H2A 2564   1.818   0.002   3.779  1.8429  0.7352 -1.5506
   35CHL1   H2B 2565   1.910   0.157   3.772 -1.9322  1.5138 -2.3887
   35CHL1   C20 2566   2.088   0.214   4.722 -0.4530 -0.2055 -1.3251
   35CHL1   H20 2567   2.136   0.314   4.714  1.0990 -0.6579  1.2507
   35CHL1   C21 2568   2.193   0.107   4.690  0.5159 -0.3305  0.1845
   35CHL1  H21A 2569   2.145   0.017   4.647 -2.5367 -0.4469  3.3430
   35CHL1  H21B 2570   2.261   0.080   4.774  0.6867 -2.7413 -0.6611
   35CHL1  H21C 2571   2.257   0.145   4.608  0.3352 -0.7204 -0.1370
   35CHL1   C22 2572   2.048   0.199   4.872  0.9546  0.4337 -0.0120
   35CHL1  H22A 2573   2.138   0.202   4.937 -0.5775 -2.5572  2.5451
   35CHL1  H22B 2574   1.975   0.278   4.899 -0.0219 -0.1411 -0.9157
   35CHL1   C23 2575   1.984   0.061   4.917 -0.7304 -0.1254 -0.4565
   35CHL1  H23A 2576   1.887   0.038   4.868 -1.3529  0.2660  0.5689
   35CHL1  H23B 2577   2.062  -0.014   4.893 -0.8864 -0.3713 -0.2029
   35CHL1   C24 2578   1.970   0.045   5.066  0.3628  0.3043  0.2840
   35CHL1  H24A 2579   2.071   0.069   5.106 -0.3502 -1.3036  3.4092
   35CHL1  H24B 2580   1.908   0.131   5.101 -0.3627 -0.6020  1.2867
   35CHL1   C25 2581   1.906  -0.083   5.117 -0.2922 -0.3044  0.7430
   35CHL1   H25 2582   1.965  -0.163   5.066 -0.1306  0.8323 -0.9336
   35CHL1   C26 2583   1.931  -0.090   5.269  0.4661  0.2176  0.8924
   35CHL1  H26A 2584   1.868  -0.016   5.323  0.5170  0.2207  0.9470
   35CHL1  H26B 2585   1.916  -0.194   5.306  0.5889  0.0488  0.4739
   35CHL1  H26C 2586   2.038  -0.064   5.282  0.4260  0.4674  0.7323
   35CHL1   C27 2587   1.754  -0.101   5.098  0.1544 -0.3547 -1.0047
   35CHL1  H27A 2588   1.697  -0.012   5.129 -0.4511 -1.1561  0.2480
   35CHL1  H27B 2589   1.733  -0.105   4.988 -3.8350  2.4743 -0.5612
   35CHL1  H27C 2590   1.722  -0.196   5.146  3.5444 -1.5660 -0.8502
   36CHL1    C3 2591   3.633   2.703   3.862 -0.0467  0.0949  0.0633
   36CHL1    H3 2592   3.536   2.678   3.909  0.2206  0.8105  1.0239
   36CHL1    O3 2593   3.613   2.705   3.721 -0.2066 -0.6750 -0.2567
   36CHL1   H3' 2594   3.701   2.728   3.691 -0.3372  1.4206  0.7761
   36CHL1    C4 2595   3.700   2.838   3.910 -0.2897  1.4001  0.2051
   36CHL1   H4A 2596   3.770   2.872   3.830  0.5204  1.0698  0.7654
   36CHL1   H4B 2597   3.610   2.904   3.916 -2.4689 -1.4642  1.3177
   36CHL1    C5 2598   3.775   2.840   4.047  0.5074  0.7197  0.3867
   36CHL1    C6 2599   3.758   2.945   4.131  0.9688  0.9980  0.4043
   36CHL1    H6 2600   3.692   3.025   4.094  0.1620 -0.7186 -2.1846
   36CHL1    C7 2601   3.822   2.950   4.266 -0.0921 -0.2459  0.3068
   36CHL1   H7A 2602   3.870   3.048   4.289  2.2076 -0.5848 -2.4730
   36CHL1   H7B 2603   3.738   2.932   4.336  0.2851 -1.8631  0.3811
   36CHL1    C8 2604   3.935   2.844   4.296 -0.7529  0.1772 -0.3569
   36CHL1    H8 2605   4.027   2.882   4.246 -0.2490  0.5945  0.8494
   36CHL1   C14 2606   3.958   2.835   4.447  0.2075  0.0151  0.1155
   36CHL1   H14 2607   3.860   2.793   4.478  0.7299 -2.4696 -1.3580
   36CHL1   C15 2608   3.988   2.958   4.535 -0.3556 -0.0718 -0.4295
   36CHL1  H15A 2609   4.057   3.032   4.490  0.0736  2.0587  3.2803
   36CHL1  H15B 2610   3.896   3.021   4.545 -0.1761  0.0607  0.4906
   36CHL1   C16 2611   4.050   2.905   4.667  0.0233 -0.4535 -0.0136
   36CHL1  H16A 2612   4.152   2.946   4.682  0.2345 -0.5456 -1.0966
   36CHL1  H16B 2613   3.978   2.931   4.748  0.3794  0.0533  0.1388
   36CHL1   C17 2614   4.054   2.750   4.647 -0.2497 -0.2687  0.3382
   36CHL1   H17 2615   3.957   2.710   4.684  0.7129 -0.4076  2.9511
   36CHL1   C13 2616   4.056   2.737   4.490 -0.4048  0.2700 -0.1845
   36CHL1   C18 2617   4.194   2.779   4.431 -0.4284  0.2653 -0.6860
   36CHL1  H18A 2618   4.209   2.784   4.321 -0.0961 -3.1154 -0.9086
   36CHL1  H18B 2619   4.230   2.868   4.487 -0.6373  1.5561 -2.5209
   36CHL1  H18C 2620   4.259   2.697   4.468 -0.8900  0.0801 -0.2760
   36CHL1   C12 2621   4.009   2.599   4.439 -0.2927  0.7282 -0.6635
   36CHL1  H12A 2622   4.091   2.526   4.451 -1.1702 -0.6128 -2.3108
   36CHL1  H12B 2623   3.918   2.570   4.497  0.2501 -3.1135 -1.4835
   36CHL1   C11 2624   3.993   2.599   4.288 -0.0256  0.3147  1.0039
   36CHL1  H11A 2625   4.091   2.604   4.235 -1.6715  0.8518 -2.2201
   36CHL1  H11B 2626   3.954   2.497   4.267  1.2729 -0.3421  1.6227
   36CHL1    C9 2627   3.890   2.710   4.243  0.0834 -0.2988  0.3848
   36CHL1    H9 2628   3.800   2.680   4.300 -0.3371 -1.2653 -0.7489
   36CHL1   C10 2629   3.857   2.717   4.086  0.7886  0.4019  0.2024
   36CHL1   C19 2630   3.997   2.731   4.014 -0.0982  0.5526 -0.4750
   36CHL1  H19A 2631   4.066   2.807   4.056  0.4984 -0.5504  0.6096
   36CHL1  H19B 2632   4.053   2.635   4.014 -0.1870  0.4753  0.7880
   36CHL1  H19C 2633   3.979   2.763   3.909  2.3426  3.3232 -0.2071
   36CHL1    C1 2634   3.774   2.586   4.040 -0.2008  0.2171 -0.1239
   36CHL1   H1A 2635   3.825   2.498   4.085 -0.7731 -0.0463  0.0168
   36CHL1   H1B 2636   3.677   2.598   4.092  0.4406 -1.8971  1.7240
   36CHL1    C2 2637   3.732   2.585   3.894 -0.4148  0.4525 -0.2755
   36CHL1   H2A 2638   3.670   2.493   3.882  0.7313 -1.0599  3.8172
   36CHL1   H2B 2639   3.824   2.588   3.832 -0.3024 -3.9881 -0.6118
   36CHL1   C20 2640   4.162   2.688   4.736  1.2100 -0.4425  0.3796
   36CHL1   H20 2641   4.262   2.729   4.713  0.5944  1.1955  0.4944
   36CHL1   C21 2642   4.160   2.539   4.705 -0.7774  0.1987  0.2004
   36CHL1  H21A 2643   4.220   2.490   4.785 -0.5563 -0.2489 -0.2288
   36CHL1  H21B 2644   4.219   2.525   4.612  1.3807 -1.5828  1.7136
   36CHL1  H21C 2645   4.058   2.500   4.685 -0.2108 -1.1803 -0.1527
   36CHL1   C22 2646   4.130   2.712   4.884 -0.0958 -0.5651 -0.3944
   36CHL1  H22A 2647   4.159   2.817   4.906  3.9314 -1.6264  0.1706
   36CHL1  H22B 2648   4.026   2.686   4.914 -0.7638  2.0394 -0.2056
   36CHL1   C23 2649   4.224   2.641   4.982  0.2192  0.7730 -0.3648
   36CHL1  H23A 2650   4.183   2.540   5.001 -0.4058  0.4939 -2.9019
   36CHL1  H23B 2651   4.325   2.628   4.939  1.0102  1.1953  1.2826
   36CHL1   C24 2652   4.251   2.710   5.121 -0.0700  0.9101 -0.1686
   36CHL1  H24A 2653   4.294   2.812   5.107 -1.4003  1.5381  0.2082
   36CHL1  H24B 2654   4.152   2.725   5.169  0.3503  1.9235  0.4155
   36CHL1   C25 2655   4.333   2.622   5.220  0.1989  0.2211 -0.7104
   36CHL1   H25 2656   4.286   2.523   5.239  3.3298 -1.2636 -0.1053
   36CHL1   C26 2657   4.485   2.587   5.169  0.5524  0.3104  0.5208
   36CHL1  H26A 2658   4.557   2.671   5.172  0.6518  0.2290  0.4248
   36CHL1  H26B 2659   4.533   2.516   5.240 -0.6834  1.1085  2.2190
   36CHL1  H26C 2660   4.478   2.547   5.065 -1.8564  0.2893  0.6323
   36CHL1   C27 2661   4.347   2.708   5.352 -0.0720 -0.0455  0.7201
   36CHL1  H27A 2662   4.392   2.804   5.318  1.4509 -1.4130 -1.3772
   36CHL1  H27B 2663   4.252   2.728   5.406  0.1392  1.5587  0.5575
   36CHL1  H27C 2664   4.424   2.653   5.410  0.2603 -2.3849 -1.7064
   37CHL1    C3 2665   6.150   0.661   3.326 -0.6093 -0.5895 -0.7871
   37CHL1    H3 2666   6.227   0.728   3.370 -0.5787  1.0751 -3.2036
   37CHL1    O3 2667   6.141   0.690   3.188 -0.5044  0.0582 -0.5163
   37CHL1   H3' 2668   6.206   0.633   3.147  0.3163  0.4629  0.1941
   37CHL1    C4 2669   6.200   0.514   3.331  0.3124  0.3559  0.1850
   37CHL1   H4A 2670   6.130   0.457   3.267  0.7938 -0.6338  0.5301
   37CHL1   H4B 2671   6.305   0.511   3.294  0.7776  1.0876  1.3895
   37CHL1    C5 2672   6.194   0.455   3.474 -0.5035 -0.0353  0.3157
   37CHL1    C6 2673   6.301   0.392   3.525  0.0903 -0.2324  0.9444
   37CHL1    H6 2674   6.389   0.377   3.460 -1.4569 -2.7464 -0.7718
   37CHL1    C7 2675   6.304   0.343   3.661 -0.2107  0.3670 -0.1381
   37CHL1   H7A 2676   6.358   0.247   3.650 -0.4215  0.2412 -0.0858
   37CHL1   H7B 2677   6.363   0.401   3.735 -2.8689 -0.6146  2.9729
   37CHL1    C8 2678   6.161   0.323   3.730 -0.0033 -0.5867 -0.3568
   37CHL1    H8 2679   6.114   0.227   3.699 -1.0856  0.0836 -0.8432
   37CHL1   C14 2680   6.181   0.308   3.880  0.7408 -0.5538  0.7327
   37CHL1   H14 2681   6.210   0.408   3.919 -2.0332  0.7464 -0.3019
   37CHL1   C15 2682   6.275   0.205   3.934 -0.3474  0.9379 -0.8088
   37CHL1  H15A 2683   6.265   0.113   3.873  1.9720  0.1273 -0.0670
   37CHL1  H15B 2684   6.381   0.235   3.914 -0.2063  1.4569  0.6229
   37CHL1   C16 2685   6.244   0.200   4.081  0.2386  0.2672  0.2218
   37CHL1  H16A 2686   6.220   0.095   4.109 -0.0832  0.4688  0.7248
   37CHL1  H16B 2687   6.326   0.234   4.148  0.7264  0.3068 -0.3897
   37CHL1   C17 2688   6.114   0.282   4.103 -0.6925  0.1989  0.4639
   37CHL1   H17 2689   6.150   0.380   4.140 -0.2622  0.8326 -1.5022
   37CHL1   C13 2690   6.052   0.294   3.962  0.1646  0.2141 -0.0538
   37CHL1   C18 2691   5.973   0.165   3.920  0.1083 -0.8108  0.4303
   37CHL1  H18A 2692   5.868   0.169   3.956 -0.2517  2.8358 -0.6058
   37CHL1  H18B 2693   5.959   0.162   3.810 -2.3550  0.1818  0.6563
   37CHL1  H18C 2694   6.026   0.071   3.944 -0.3049 -1.7979 -2.1853
   37CHL1   C12 2695   5.962   0.417   3.931 -0.6641 -0.1836  0.3770
   37CHL1  H12A 2696   5.865   0.414   3.985 -1.1042 -2.5572 -0.4254
   37CHL1  H12B 2697   6.009   0.509   3.973 -1.5357  0.7428 -0.5900
   37CHL1   C11 2698   5.936   0.435   3.776  0.2320 -0.5264 -0.8265
   37CHL1  H11A 2699   5.874   0.347   3.749 -1.3930  0.7122 -1.3080
   37CHL1  H11B 2700   5.874   0.525   3.758  0.7488  0.5059  2.0725
   37CHL1    C9 2701   6.071   0.445   3.708 -0.1094 -0.4025 -0.1910
   37CHL1    H9 2702   6.128   0.525   3.759  1.3450 -1.0153 -0.8016
   37CHL1   C10 2703   6.067   0.475   3.553  0.0039  0.6899 -0.3033
   37CHL1   C19 2704   5.962   0.379   3.497 -0.0816  0.0467  0.0692
   37CHL1  H19A 2705   5.860   0.411   3.526 -0.3566  3.1097 -3.5296
   37CHL1  H19B 2706   5.959   0.380   3.386  1.6840 -1.4663 -0.0354
   37CHL1  H19C 2707   5.971   0.270   3.514 -1.6171 -0.2974 -1.1099
   37CHL1    C1 2708   6.024   0.621   3.545  0.5961  0.1945 -0.3561
   37CHL1   H1A 2709   5.924   0.635   3.590  1.1364  0.7677  0.6926
   37CHL1   H1B 2710   6.103   0.682   3.595  1.5616  0.5253 -2.1867
   37CHL1    C2 2711   6.017   0.669   3.394 -0.1320  0.4972 -0.3575
   37CHL1   H2A 2712   5.982   0.774   3.385 -5.1681 -1.0419 -1.8495
   37CHL1   H2B 2713   5.946   0.605   3.338  0.2770 -1.0905  0.8857
   37CHL1   C20 2714   6.015   0.229   4.208  0.4165  0.7805 -0.9881
   37CHL1   H20 2715   5.946   0.156   4.161  1.0810 -0.6356  0.1858
   37CHL1   C21 2716   5.921   0.345   4.256 -0.5247 -0.3886 -0.4700
   37CHL1  H21A 2717   5.983   0.437   4.255  0.0039 -0.7405 -1.9750
   37CHL1  H21B 2718   5.882   0.329   4.359 -0.5355 -0.4708 -0.4874
   37CHL1  H21C 2719   5.834   0.344   4.186  0.5386 -1.2409 -1.8217
   37CHL1   C22 2720   6.067   0.146   4.328 -0.1079  0.0061  0.5520
   37CHL1  H22A 2721   5.973   0.113   4.378  0.0810 -0.8486  0.3505
   37CHL1  H22B 2722   6.117   0.054   4.290  1.8074  1.4382 -0.5869
   37CHL1   C23 2723   6.154   0.234   4.417 -0.1711 -0.3271 -0.0350
   37CHL1  H23A 2724   6.252   0.267   4.375 -1.2267 -0.7311 -3.0586
   37CHL1  H23B 2725   6.094   0.325   4.440  1.2021  0.4045  0.8021
   37CHL1   C24 2726   6.179   0.168   4.556  0.1248 -0.3315 -0.6603
   37CHL1  H24A 2727   6.077   0.154   4.597 -0.2238 -1.8797 -1.9455
   37CHL1  H24B 2728   6.216   0.063   4.547 -0.9796 -0.6884 -1.2096
   37CHL1   C25 2729   6.262   0.245   4.664 -0.0473 -0.0084 -0.0652
   37CHL1   H25 2730   6.367   0.254   4.630 -0.0131  2.1810  0.4985
   37CHL1   C26 2731   6.213   0.387   4.691  0.4532  0.5493 -0.1869
   37CHL1  H26A 2732   6.212   0.451   4.601 -1.4021  1.8227  0.6790
   37CHL1  H26B 2733   6.112   0.396   4.736 -0.1196 -0.3853 -1.2430
   37CHL1  H26C 2734   6.276   0.435   4.769 -1.4204  1.3587  0.8941
   37CHL1   C27 2735   6.270   0.157   4.789  0.0446  0.3752 -0.4683
   37CHL1  H27A 2736   6.322   0.218   4.866 -4.0068  1.0866  2.0338
   37CHL1  H27B 2737   6.172   0.130   4.835 -0.2837 -1.2658 -2.0137
   37CHL1  H27C 2738   6.324   0.062   4.771 -0.4524 -0.2539  1.1682
   38CHL1    C3 2739   2.717   6.549   3.336 -0.0116  0.4161 -0.3330
   38CHL1    H3 2740   2.679   6.450   3.370 -4.3249  1.1257 -2.4381
   38CHL1    O3 2741   2.654   6.584   3.217 -0.5062  0.1768  0.2723
   38CHL1   H3' 2742   2.684   6.674   3.201  0.3067  0.1753  1.6358
   38CHL1    C4 2743   2.690   6.662   3.442 -0.1544  0.4076  0.3878
   38CHL1   H4A 2744   2.721   6.758   3.395 -1.0798  1.0904  1.1366
   38CHL1   H4B 2745   2.580   6.671   3.442 -0.0333  2.6374 -1.1563
   38CHL1    C5 2746   2.746   6.618   3.573  0.2799 -0.2588 -0.1580
   38CHL1    C6 2747   2.669   6.592   3.681 -0.3227  0.0773  0.7852
   38CHL1    H6 2748   2.561   6.616   3.678 -0.7121 -0.9268  3.7513
   38CHL1    C7 2749   2.723   6.554   3.812  0.2273  0.1083  0.6645
   38CHL1   H7A 2750   2.684   6.618   3.894 -0.1145  2.3427 -1.1499
   38CHL1   H7B 2751   2.709   6.447   3.839  0.4888 -0.0588  0.1452
   38CHL1    C8 2752   2.876   6.573   3.830  0.0015  0.2131 -0.2735
   38CHL1    H8 2753   2.905   6.680   3.829  0.2925  0.1363 -1.2665
   38CHL1   C14 2754   2.924   6.492   3.949  0.4322  0.2086 -0.5954
   38CHL1   H14 2755   2.903   6.384   3.942 -0.5688  0.2760  0.8236
   38CHL1   C15 2756   2.867   6.530   4.082  0.2980  0.0862  0.0561
   38CHL1  H15A 2757   2.877   6.641   4.089  3.3510 -0.1211  0.3684
   38CHL1  H15B 2758   2.763   6.494   4.090  0.0428 -0.3209 -3.3896
   38CHL1   C16 2759   2.965   6.474   4.182  0.0735  0.4954 -0.8075
   38CHL1  H16A 2760   2.986   6.549   4.261 -1.6449 -2.9345  3.3334
   38CHL1  H16B 2761   2.933   6.383   4.238  1.2681  0.2582 -0.4799
   38CHL1   C17 2762   3.096   6.436   4.102  0.0871 -0.1460  0.1329
   38CHL1   H17 2763   3.090   6.330   4.070 -0.2999 -0.6078  1.6619
   38CHL1   C13 2764   3.078   6.504   3.967  0.1198  0.2157  0.4549
   38CHL1   C18 2765   3.128   6.648   3.986 -0.3512 -0.2107  0.0965
   38CHL1  H18A 2766   3.075   6.685   4.076  1.3356  0.4650  0.8600
   38CHL1  H18B 2767   3.239   6.641   3.993 -0.3364 -1.6915 -1.0602
   38CHL1  H18C 2768   3.086   6.707   3.902  1.1741 -1.9643 -1.9969
   38CHL1   C12 2769   3.151   6.435   3.846 -0.5630 -0.4877  0.0376
   38CHL1  H12A 2770   3.260   6.453   3.852 -0.5648  1.1587 -2.9917
   38CHL1  H12B 2771   3.130   6.326   3.847  1.4994 -0.9277 -0.5509
   38CHL1   C11 2772   3.094   6.497   3.715  0.6737  0.0550  0.0529
   38CHL1  H11A 2773   3.140   6.598   3.719  0.0905  0.3968 -1.3226
   38CHL1  H11B 2774   3.127   6.437   3.628  0.1095 -2.2392  1.3347
   38CHL1    C9 2775   2.941   6.510   3.703  0.1339  0.1231 -0.0049
   38CHL1    H9 2776   2.897   6.408   3.708 -0.1790  0.2329 -0.3955
   38CHL1   C10 2777   2.899   6.584   3.574 -0.1494  0.0611 -0.1405
   38CHL1   C19 2778   2.970   6.715   3.558  0.2185  0.5337 -0.2520
   38CHL1  H19A 2779   2.951   6.778   3.648  2.4780 -0.2887  0.9037
   38CHL1  H19B 2780   3.081   6.710   3.548  0.0373 -2.8507 -1.9702
   38CHL1  H19C 2781   2.927   6.764   3.469 -2.3197 -0.1334  0.5106
   38CHL1    C1 2782   2.935   6.494   3.460 -0.3689  0.6956 -0.2900
   38CHL1   H1A 2783   3.038   6.468   3.428 -0.3369  1.6000 -0.9621
   38CHL1   H1B 2784   2.886   6.398   3.485 -0.9455 -0.0693 -3.8396
   38CHL1    C2 2785   2.871   6.539   3.325  0.2134 -0.3115  0.5247
   38CHL1   H2A 2786   2.882   6.470   3.238 -1.6212  2.4235 -2.0928
   38CHL1   H2B 2787   2.908   6.639   3.295 -0.6161  0.2046  1.1664
   38CHL1   C20 2788   3.223   6.452   4.186 -0.0081 -0.0978 -1.0070
   38CHL1   H20 2789   3.240   6.559   4.211 -0.4291 -0.7399  2.5019
   38CHL1   C21 2790   3.336   6.398   4.097  0.5127 -0.6551 -0.3129
   38CHL1  H21A 2791   3.313   6.308   4.035  1.7034 -0.9479 -0.3547
   38CHL1  H21B 2792   3.424   6.374   4.161  0.4915  1.1309  0.4528
   38CHL1  H21C 2793   3.364   6.474   4.021  0.9829 -0.1255  0.3804
   38CHL1   C22 2794   3.206   6.382   4.325  0.7240 -0.3523  0.7341
   38CHL1  H22A 2795   3.120   6.426   4.380  0.4241 -0.5287  0.4027
   38CHL1  H22B 2796   3.181   6.274   4.314 -1.0871  0.1768 -0.7322
   38CHL1   C23 2797   3.318   6.392   4.425 -0.1004  0.6009 -0.1161
   38CHL1  H23A 2798   3.412   6.339   4.401  0.8871  0.8231  2.8163
   38CHL1  H23B 2799   3.358   6.495   4.433  1.6566 -0.0660 -0.0735
   38CHL1   C24 2800   3.293   6.310   4.554  0.2236  0.9622 -0.5466
   38CHL1  H24A 2801   3.194   6.334   4.598 -0.6754  0.2519 -2.1168
   38CHL1  H24B 2802   3.288   6.204   4.520 -0.3705  0.8245 -0.0538
   38CHL1   C25 2803   3.404   6.328   4.659 -0.4673  0.8316  0.0344
   38CHL1   H25 2804   3.503   6.307   4.611 -1.0942 -0.2677 -0.8337
   38CHL1   C26 2805   3.419   6.477   4.694  0.0681 -0.2032  0.3436
   38CHL1  H26A 2806   3.507   6.501   4.756 -1.0280  2.5175  0.9793
   38CHL1  H26B 2807   3.435   6.543   4.606  0.7228 -2.0914 -1.0218
   38CHL1  H26C 2808   3.330   6.512   4.751  0.7344 -0.8011  1.7784
   38CHL1   C27 2809   3.379   6.231   4.772  0.1937  0.7914 -0.1320
   38CHL1  H27A 2810   3.281   6.245   4.822 -0.2207 -1.9938 -0.0273
   38CHL1  H27B 2811   3.369   6.129   4.730 -0.1046  1.2639 -1.2546
   38CHL1  H27C 2812   3.466   6.228   4.841  1.1146  0.8246 -1.2533
   39CHL1    C3 2813   3.881   6.297   3.393  0.2294  0.1763  0.5125
   39CHL1    H3 2814   3.857   6.188   3.395  2.8753 -0.7905 -4.2644
   39CHL1    O3 2815   3.882   6.349   3.262  0.5568  0.0001 -0.5431
   39CHL1   H3' 2816   3.822   6.293   3.212  2.3518 -2.0431 -0.5508
   39CHL1    C4 2817   3.770   6.368   3.484  0.8375 -0.2160  0.0428
   39CHL1   H4A 2818   3.785   6.477   3.471  0.3645 -0.2847 -1.3288
   39CHL1   H4B 2819   3.672   6.350   3.435  1.3911 -0.7726 -0.9152
   39CHL1    C5 2820   3.769   6.313   3.622 -0.1159  0.6561  0.2197
   39CHL1    C6 2821   3.653   6.274   3.685  0.0872 -0.2968  0.4615
   39CHL1    H6 2822   3.556   6.278   3.634  1.2173 -1.6405 -1.9819
   39CHL1    C7 2823   3.654   6.237   3.832  0.0113 -0.3158 -0.2205
   39CHL1   H7A 2824   3.565   6.289   3.874 -0.4916 -0.5514 -0.9770
   39CHL1   H7B 2825   3.643   6.128   3.848 -1.1708 -0.3064 -0.8774
   39CHL1    C8 2826   3.787   6.289   3.902  0.5328  0.0037  1.0880
   39CHL1    H8 2827   3.769   6.399   3.907  2.5213  0.4561 -0.2969
   39CHL1   C14 2828   3.792   6.236   4.040  0.2464  0.8016 -0.4453
   39CHL1   H14 2829   3.806   6.127   4.027  0.3993  0.5982  1.2026
   39CHL1   C15 2830   3.665   6.247   4.133  0.0009 -0.5356  0.0643
   39CHL1  H15A 2831   3.616   6.345   4.113 -1.8177 -0.7089  3.1279
   39CHL1  H15B 2832   3.602   6.157   4.117 -2.8090  1.4973 -1.0781
   39CHL1   C16 2833   3.719   6.247   4.277 -0.7980  0.4359 -0.0935
   39CHL1  H16A 2834   3.697   6.337   4.338 -2.2824 -0.5513  0.8893
   39CHL1  H16B 2835   3.674   6.161   4.331 -0.0607  0.1835  0.1346
   39CHL1   C17 2836   3.878   6.226   4.261 -0.2868 -0.5301 -0.0165
   39CHL1   H17 2837   3.898   6.117   4.262  0.8502 -0.3727 -1.4483
   39CHL1   C13 2838   3.920   6.279   4.120 -0.0686 -0.7195  1.0641
   39CHL1   C18 2839   3.925   6.436   4.125  0.4577  0.2409 -0.7858
   39CHL1  H18A 2840   3.938   6.476   4.022  0.0001  1.8023 -0.2794
   39CHL1  H18B 2841   3.827   6.474   4.163 -0.3174 -1.0006 -1.4762
   39CHL1  H18C 2842   4.005   6.482   4.186 -0.8777  1.8932 -0.1994
   39CHL1   C12 2843   4.041   6.217   4.044  0.7447 -0.3163  0.1679
   39CHL1  H12A 2844   4.130   6.238   4.108  0.5653 -2.5068  1.2228
   39CHL1  H12B 2845   4.051   6.106   4.041  1.0081 -0.2679 -1.8955
   39CHL1   C11 2846   4.052   6.274   3.902 -0.3031  0.4444 -0.4769
   39CHL1  H11A 2847   4.090   6.377   3.913  1.8869 -0.4139  0.5031
   39CHL1  H11B 2848   4.138   6.223   3.853  0.3138 -0.8147  1.8032
   39CHL1    C9 2849   3.910   6.248   3.827 -0.3953 -0.0900  0.3386
   39CHL1    H9 2850   3.902   6.141   3.798 -1.0965  0.2306 -0.7110
   39CHL1   C10 2851   3.911   6.321   3.687  0.1297  0.1750  0.5719
   39CHL1   C19 2852   3.958   6.468   3.708  0.1214  0.7420  0.3129
   39CHL1  H19A 2853   4.066   6.466   3.733 -0.2157  0.1475  1.7931
   39CHL1  H19B 2854   3.951   6.536   3.621  1.2071  0.5955  0.0906
   39CHL1  H19C 2855   3.909   6.526   3.788  2.8157  1.4724  1.5319
   39CHL1    C1 2856   4.014   6.249   3.597  0.1623  0.1033  0.4468
   39CHL1   H1A 2857   4.113   6.249   3.647 -0.5204 -0.2382  1.8497
   39CHL1   H1B 2858   3.974   6.145   3.601  2.0493 -0.6286  1.6035
   39CHL1    C2 2859   4.019   6.304   3.457  0.0355 -0.2925 -0.4096
   39CHL1   H2A 2860   4.090   6.244   3.397  0.1056 -0.1973 -0.4235
   39CHL1   H2B 2861   4.042   6.413   3.455 -3.5030  0.5930  0.1256
   39CHL1   C20 2862   3.952   6.285   4.382 -0.0505  0.3338 -0.5760
   39CHL1   H20 2863   3.933   6.394   4.382 -0.3952  0.2839  0.4121
   39CHL1   C21 2864   4.098   6.247   4.374 -0.5779 -0.2906 -0.0446
   39CHL1  H21A 2865   4.152   6.269   4.468  0.4729 -0.9553 -0.4713
   39CHL1  H21B 2866   4.161   6.302   4.300  1.8251 -0.5107  1.7109
   39CHL1  H21C 2867   4.108   6.141   4.341 -1.0423 -1.4804  3.2757
   39CHL1   C22 2868   3.891   6.220   4.519  0.6604 -0.0377  0.5517
   39CHL1  H22A 2869   3.780   6.223   4.515  0.6429  2.6587  1.1277
   39CHL1  H22B 2870   3.915   6.112   4.527 -1.0633 -0.4685  0.2403
   39CHL1   C23 2871   3.932   6.288   4.649 -0.0663 -0.5901  0.0240
   39CHL1  H23A 2872   4.028   6.249   4.689 -0.8253 -4.2257 -1.2775
   39CHL1  H23B 2873   3.945   6.397   4.631 -0.2192 -0.7766 -1.3044
   39CHL1   C24 2874   3.825   6.270   4.760  0.4038  0.5377 -0.0394
   39CHL1  H24A 2875   3.821   6.353   4.833 -1.9440 -0.3129  0.8922
   39CHL1  H24B 2876   3.720   6.267   4.723  0.3290  1.7676  0.0526
   39CHL1   C25 2877   3.847   6.135   4.845  1.1281 -0.7656 -0.1845
   39CHL1   H25 2878   3.847   6.051   4.773 -0.7626 -0.1967 -0.9067
   39CHL1   C26 2879   3.973   6.134   4.930 -0.0569 -0.4559 -0.4192
   39CHL1  H26A 2880   4.060   6.179   4.878  0.3296 -0.5206  0.1621
   39CHL1  H26B 2881   3.950   6.186   5.025 -1.6725 -2.6037  0.4629
   39CHL1  H26C 2882   3.994   6.027   4.951 -2.9849 -1.7855 -3.3351
   39CHL1   C27 2883   3.725   6.121   4.942 -1.0206 -0.0791 -0.0800
   39CHL1  H27A 2884   3.762   6.059   5.026  0.1871 -0.8586 -1.1322
   39CHL1  H27B 2885   3.686   6.217   4.980 -0.1625 -0.3361  1.5245
   39CHL1  H27C 2886   3.639   6.070   4.894 -2.0096  1.0779  0.4354
   40CHL1    C3 2887   1.024   2.563   3.459 -0.2451 -0.6233 -0.3685
   40CHL1    H3 2888   0.940   2.494   3.478  0.5011 -2.1734 -2.3569
   40CHL1    O3 2889   1.054   2.535   3.325 -0.5027 -0.1340 -0.2867
   40CHL1   H3' 2890   0.974   2.550   3.273 -0.1592  0.7189 -0.5800
   40CHL1    C4 2891   0.997   2.708   3.497 -0.0025  0.0923 -0.1018
   40CHL1   H4A 2892   1.070   2.773   3.444 -0.1284 -0.6485 -1.2151
   40CHL1   H4B 2893   0.906   2.736   3.441 -0.1320  0.5936  0.3513
   40CHL1    C5 2894   0.975   2.736   3.647 -0.1301  0.0950  1.0210
   40CHL1    C6 2895   0.869   2.803   3.690  0.2455  0.7091 -0.8711
   40CHL1    H6 2896   0.783   2.824   3.625 -0.6400 -2.4313 -0.8825
   40CHL1    C7 2897   0.846   2.829   3.835  0.5509 -0.0477  1.1337
   40CHL1   H7A 2898   0.834   2.939   3.848 -1.8560 -0.1238  0.0885
   40CHL1   H7B 2899   0.750   2.788   3.871 -0.8734  2.0269 -0.0481
   40CHL1    C8 2900   0.966   2.787   3.927  0.0112 -0.4686  0.2893
   40CHL1    H8 2901   1.037   2.873   3.928  0.3552 -0.7579  1.2456
   40CHL1   C14 2902   0.914   2.767   4.070  0.5601  0.4155 -0.2464
   40CHL1   H14 2903   0.859   2.670   4.065  0.6081  0.2202  1.9997
   40CHL1   C15 2904   0.824   2.875   4.132  0.4273  0.7135  0.1877
   40CHL1  H15A 2905   0.852   2.980   4.109  0.3095  0.3318 -1.9149
   40CHL1  H15B 2906   0.722   2.860   4.091 -1.0220  1.7866  3.1319
   40CHL1   C16 2907   0.815   2.824   4.277 -0.5195  0.0400 -0.0188
   40CHL1  H16A 2908   0.829   2.905   4.352  3.8483  1.5733 -2.1512
   40CHL1  H16B 2909   0.722   2.772   4.307 -0.4224  1.1728  2.4964
   40CHL1   C17 2910   0.930   2.720   4.296 -0.0242 -0.6115 -0.5750
   40CHL1   H17 2911   0.885   2.619   4.289 -3.3992  0.8066 -1.3427
   40CHL1   C13 2912   1.018   2.743   4.179  0.3580  0.6341 -0.5717
   40CHL1   C18 2913   1.107   2.873   4.187  0.2033 -0.8318 -0.1480
   40CHL1  H18A 2914   1.157   2.902   4.093 -1.7616  2.1499 -0.3984
   40CHL1  H18B 2915   1.041   2.958   4.214 -1.2977 -1.2669 -2.2199
   40CHL1  H18C 2916   1.179   2.861   4.271  1.2944 -0.8389 -1.0721
   40CHL1   C12 2917   1.100   2.624   4.135  0.1183 -0.3933 -0.7710
   40CHL1  H12A 2918   1.186   2.621   4.206 -2.6225 -2.1606  2.7572
   40CHL1  H12B 2919   1.040   2.532   4.144  1.7909 -1.5478 -0.8931
   40CHL1   C11 2920   1.157   2.631   3.989  0.0895 -0.1158  0.0156
   40CHL1  H11A 2921   1.233   2.711   3.976  0.3306 -0.2505  0.5616
   40CHL1  H11B 2922   1.208   2.535   3.965  2.8875  0.6643  2.2724
   40CHL1    C9 2923   1.043   2.665   3.881 -0.0627  0.4949 -0.4769
   40CHL1    H9 2924   0.961   2.590   3.889 -2.0152  2.5718 -0.0190
   40CHL1   C10 2925   1.083   2.679   3.734 -0.4224  0.1873  0.0758
   40CHL1   C19 2926   1.212   2.762   3.727 -0.1767 -0.0995  0.4420
   40CHL1  H19A 2927   1.205   2.868   3.762  3.2444  1.1026 -2.0310
   40CHL1  H19B 2928   1.293   2.716   3.787  2.0156  3.1912  0.2785
   40CHL1  H19C 2929   1.246   2.762   3.621  0.5699 -1.7070  0.6573
   40CHL1    C1 2930   1.126   2.537   3.693  0.7151 -0.1232 -0.2652
   40CHL1   H1A 2931   1.211   2.499   3.754  0.5327  0.1625  0.1773
   40CHL1   H1B 2932   1.045   2.475   3.736  0.8028  1.5026  2.5315
   40CHL1    C2 2933   1.144   2.512   3.545  0.4974 -0.6396  0.2250
   40CHL1   H2A 2934   1.156   2.404   3.527 -1.1219 -1.2216  2.2483
   40CHL1   H2B 2935   1.245   2.556   3.527  1.4128 -2.7248 -0.0226
   40CHL1   C20 2936   0.995   2.725   4.435 -0.2225 -0.5407 -0.6032
   40CHL1   H20 2937   1.054   2.819   4.438 -0.5751 -0.1281 -3.6420
   40CHL1   C21 2938   1.083   2.604   4.468 -0.9294  0.1912 -0.0990
   40CHL1  H21A 2939   1.025   2.509   4.468 -1.0457  0.1568  3.3123
   40CHL1  H21B 2940   1.141   2.611   4.562 -2.6546 -0.0802  1.0453
   40CHL1  H21C 2941   1.161   2.592   4.390 -0.1161  0.7613  0.6124
   40CHL1   C22 2942   0.895   2.722   4.549 -0.8505  0.6042 -0.0459
   40CHL1  H22A 2943   0.802   2.776   4.524 -2.9949 -2.8296 -0.1082
   40CHL1  H22B 2944   0.863   2.616   4.558  1.6785 -0.3008 -0.6055
   40CHL1   C23 2945   0.951   2.757   4.688 -0.1187  0.1584  0.0143
   40CHL1  H23A 2946   0.858   2.750   4.748 -0.3155 -1.1035 -0.4196
   40CHL1  H23B 2947   1.008   2.673   4.733 -0.9310 -0.5857 -0.3274
   40CHL1   C24 2948   1.017   2.895   4.694  0.2452 -0.7028  0.0769
   40CHL1  H24A 2949   1.111   2.908   4.635 -1.2317  1.3860 -1.9840
   40CHL1  H24B 2950   0.943   2.974   4.670  1.2019  1.4846  3.5599
   40CHL1   C25 2951   1.062   2.936   4.837  0.0852  0.0123  0.4503
   40CHL1   H25 2952   0.966   2.935   4.894  0.5956 -0.5358  1.3350
   40CHL1   C26 2953   1.159   2.822   4.897  0.4028 -0.4478 -0.5272
   40CHL1  H26A 2954   1.247   2.814   4.830  0.7999 -1.6665  0.0910
   40CHL1  H26B 2955   1.197   2.854   4.996 -0.3946 -0.5324 -0.1896
   40CHL1  H26C 2956   1.118   2.719   4.906 -0.1738 -0.4117 -2.2957
   40CHL1   C27 2957   1.125   3.075   4.858 -0.0141 -0.3725  0.1076
   40CHL1  H27A 2958   1.185   3.090   4.951  1.8735 -0.4434 -1.0285
   40CHL1  H27B 2959   1.188   3.099   4.770 -0.6789  4.4053  0.7121
   40CHL1  H27C 2960   1.053   3.159   4.852  0.9673  0.4470 -0.6259
   41CHL1    C3 2961   4.528   1.833   3.480 -0.3222 -0.4492  0.4633
   41CHL1    H3 2962   4.578   1.907   3.547 -0.0526  2.3587 -2.5431
   41CHL1    O3 2963   4.591   1.837   3.349 -0.6739 -0.2214  0.1398
   41CHL1   H3' 2964   4.589   1.930   3.326  1.8523  0.2637  1.5397
   41CHL1    C4 2965   4.533   1.692   3.540  0.3840 -0.0635  0.5656
   41CHL1   H4A 2966   4.490   1.616   3.471  1.3265  1.8002 -2.2258
   41CHL1   H4B 2967   4.639   1.664   3.555  0.9889  1.4068 -0.7130
   41CHL1    C5 2968   4.463   1.686   3.672 -0.3072 -0.0645  0.8047
   41CHL1    C6 2969   4.530   1.661   3.787  0.2935 -0.8738  0.0210
   41CHL1    H6 2970   4.638   1.644   3.780  0.5940  0.8438  0.0034
   41CHL1    C7 2971   4.466   1.655   3.921  0.1940 -1.3287 -0.2825
   41CHL1   H7A 2972   4.517   1.572   3.975  1.5723 -0.4652 -0.2028
   41CHL1   H7B 2973   4.500   1.745   3.976 -1.6507 -0.4978 -0.4285
   41CHL1    C8 2974   4.312   1.649   3.912  0.1567  0.0782  0.0021
   41CHL1    H8 2975   4.282   1.548   3.879 -0.9697 -0.4278  2.3983
   41CHL1   C14 2976   4.259   1.660   4.051  0.6633  0.0006  0.0659
   41CHL1   H14 2977   4.288   1.764   4.079  1.1219 -0.0160 -0.3314
   41CHL1   C15 2978   4.307   1.576   4.166  0.0383  0.4106 -0.0309
   41CHL1  H15A 2979   4.314   1.468   4.140  1.4352 -0.0596  2.0157
   41CHL1  H15B 2980   4.413   1.593   4.197  0.4163 -3.6001  1.5542
   41CHL1   C16 2981   4.211   1.599   4.276  0.3721 -0.3235  0.0275
   41CHL1  H16A 2982   4.174   1.501   4.315 -1.9408  0.0560 -1.0323
   41CHL1  H16B 2983   4.254   1.667   4.353 -0.3500 -0.3667  0.4868
   41CHL1   C17 2984   4.085   1.665   4.214 -0.8702 -0.2059 -0.7135
   41CHL1   H17 2985   4.085   1.770   4.250  0.1542 -0.6787  0.7262
   41CHL1   C13 2986   4.108   1.653   4.061  0.2218  0.8495  0.4738
   41CHL1   C18 2987   4.052   1.511   4.003  1.0404 -0.0539  0.4037
   41CHL1  H18A 2988   3.942   1.519   4.018  0.9653  0.6741 -0.4348
   41CHL1  H18B 2989   4.075   1.486   3.898 -2.0208 -0.7760 -0.1912
   41CHL1  H18C 2990   4.092   1.429   4.066 -0.1275  0.6046  2.0852
   41CHL1   C12 2991   4.041   1.761   3.971 -0.4789  0.3302  0.1026
   41CHL1  H12A 2992   3.932   1.749   3.961 -0.3205  0.7489 -3.6463
   41CHL1  H12B 2993   4.057   1.864   4.011 -0.2733  0.4808 -0.3549
   41CHL1   C11 2994   4.088   1.759   3.831 -0.2491  0.3028  0.8691
   41CHL1  H11A 2995   4.042   1.669   3.784 -0.5501  0.4989  0.7864
   41CHL1  H11B 2996   4.056   1.845   3.769  0.0979 -0.2509 -0.1056
   41CHL1    C9 2997   4.249   1.751   3.816  0.3871  0.1724 -0.4168
   41CHL1    H9 2998   4.286   1.849   3.853  0.1030 -0.6951  2.3780
   41CHL1   C10 2999   4.311   1.735   3.670 -0.2763 -0.4645  0.4483
   41CHL1   C19 3000   4.228   1.634   3.583  0.7505  0.1124  0.0690
   41CHL1  H19A 3001   4.203   1.540   3.636 -2.3550  0.6617 -0.2408
   41CHL1  H19B 3002   4.137   1.686   3.546 -0.2842 -1.2895  0.5646
   41CHL1  H19C 3003   4.284   1.591   3.496 -2.1967 -0.7048 -1.5522
   41CHL1    C1 3004   4.307   1.869   3.600  0.7637  0.1692  0.4302
   41CHL1   H1A 3005   4.198   1.887   3.585  1.0231  0.6152 -1.0778
   41CHL1   H1B 3006   4.328   1.967   3.649 -2.8029  1.2355  0.0990
   41CHL1    C2 3007   4.386   1.887   3.472 -0.0517 -0.3692  0.1883
   41CHL1   H2A 3008   4.388   1.997   3.452 -1.3046 -0.3167  0.2880
   41CHL1   H2B 3009   4.328   1.854   3.383  0.0692  3.2696 -1.4339
   41CHL1   C20 3010   3.954   1.614   4.281 -0.6129  0.3909 -0.4756
   41CHL1   H20 3011   3.925   1.513   4.246 -1.3027  0.8290 -1.1992
   41CHL1   C21 3012   3.834   1.702   4.253  0.0449 -0.1579 -0.1640
   41CHL1  H21A 3013   3.789   1.665   4.159 -2.8124  0.1997  0.9497
   41CHL1  H21B 3014   3.851   1.811   4.254  1.4849 -0.3637 -0.3788
   41CHL1  H21C 3015   3.744   1.682   4.316  0.9956  2.0148  2.0712
   41CHL1   C22 3016   3.964   1.593   4.436  1.2810  0.1660 -0.8388
   41CHL1  H22A 3017   3.857   1.585   4.467  0.6629  1.5194 -2.4153
   41CHL1  H22B 3018   4.013   1.497   4.460  0.5341  0.2974  1.3979
   41CHL1   C23 3019   4.012   1.716   4.517  0.2857  0.3731  0.0266
   41CHL1  H23A 3020   4.123   1.703   4.518  0.2543  0.1280  0.3829
   41CHL1  H23B 3021   3.988   1.809   4.461 -0.0459 -0.2218 -0.8403
   41CHL1   C24 3022   3.946   1.720   4.658  0.1639  0.2059  0.0566
   41CHL1  H24A 3023   3.836   1.707   4.644 -0.2420  2.9195  0.0780
   41CHL1  H24B 3024   3.959   1.633   4.725  1.9775 -0.1940 -0.7598
   41CHL1   C25 3025   3.966   1.859   4.727  0.5959  0.4054  0.5071
   41CHL1   H25 3026   4.072   1.882   4.706 -0.0018  1.6563 -1.4742
   41CHL1   C26 3027   3.865   1.963   4.659  0.1540  0.3965 -0.4077
   41CHL1  H26A 3028   3.891   2.068   4.685  2.1717 -0.2828  0.5496
   41CHL1  H26B 3029   3.858   1.955   4.549  2.3195  2.0173 -0.7499
   41CHL1  H26C 3030   3.762   1.947   4.697  0.0490  1.6885 -0.0767
   41CHL1   C27 3031   3.943   1.855   4.874  0.1964 -0.3461  0.2424
   41CHL1  H27A 3032   3.836   1.852   4.905 -0.1282  1.5055 -0.5112
   41CHL1  H27B 3033   3.988   1.771   4.929 -0.6093  0.5239  2.3223
   41CHL1  H27C 3034   3.984   1.950   4.914  1.1612 -0.6384 -0.0330
   42CHL1    C3 3035   1.473   6.020   3.689  0.1956  0.0051 -0.1416
   42CHL1    H3 3036   1.413   5.928   3.704 -0.9665  0.8726  0.6459
   42CHL1    O3 3037   1.478   6.050   3.551 -0.5401 -0.3555  0.0625
   42CHL1   H3' 3038   1.404   6.110   3.535  0.6242  1.4959  1.1748
   42CHL1    C4 3039   1.424   6.142   3.776 -0.3312 -0.3654 -1.0259
   42CHL1   H4A 3040   1.501   6.219   3.755 -0.7447  0.0067 -1.2028
   42CHL1   H4B 3041   1.337   6.179   3.717 -0.9793 -0.1965  0.0119
   42CHL1    C5 3042   1.416   6.124   3.927 -0.4951  0.2997 -1.3026
   42CHL1    C6 3043   1.307   6.156   3.998 -0.1473 -0.4900 -0.5082
   42CHL1    H6 3044   1.214   6.194   3.953 -0.6261 -2.7447 -1.5599
   42CHL1    C7 3045   1.297   6.127   4.145 -0.3724 -0.0131 -0.1925
   42CHL1   H7A 3046   1.250   6.218   4.187  0.3347  1.3389 -2.1999
   42CHL1   H7B 3047   1.221   6.047   4.159 -2.6832  1.9664 -0.9507
   42CHL1    C8 3048   1.439   6.098   4.215 -0.0323 -0.4343 -0.1583
   42CHL1    H8 3049   1.505   6.186   4.232 -1.6664  0.9492 -0.7576
   42CHL1   C14 3050   1.408   6.029   4.350  0.7938 -0.0663  0.0118
   42CHL1   H14 3051   1.354   5.936   4.321  1.3773  0.2792 -2.4246
   42CHL1   C15 3052   1.307   6.096   4.461 -0.1962  0.5175  0.6449
   42CHL1  H15A 3053   1.350   6.197   4.477 -2.4507  1.6832 -0.0985
   42CHL1  H15B 3054   1.199   6.113   4.437  0.0482  0.6208 -0.4380
   42CHL1   C16 3055   1.334   6.008   4.585 -0.4056  0.4783 -0.4219
   42CHL1  H16A 3056   1.360   6.069   4.674 -0.7154 -0.9401  0.6642
   42CHL1  H16B 3057   1.252   5.936   4.609  0.7126 -0.8485 -0.4791
   42CHL1   C17 3058   1.458   5.920   4.551 -0.6449  0.1016  0.4328
   42CHL1   H17 3059   1.427   5.824   4.506  0.5059  0.4617 -1.2381
   42CHL1   C13 3060   1.535   5.983   4.435  1.5383 -0.1105 -0.4018
   42CHL1   C18 3061   1.611   6.114   4.480  0.2986  0.2035  0.3266
   42CHL1  H18A 3062   1.698   6.084   4.542  0.5145  2.1317  1.0101
   42CHL1  H18B 3063   1.657   6.177   4.401 -1.5225 -1.2719 -2.0753
   42CHL1  H18C 3064   1.546   6.169   4.552 -2.8606 -2.9696  0.2107
   42CHL1   C12 3065   1.615   5.895   4.336  0.3401 -0.3247  0.8780
   42CHL1  H12A 3066   1.707   5.853   4.382 -0.0433 -0.5754  1.4286
   42CHL1  H12B 3067   1.543   5.811   4.322 -1.4323  1.4686 -1.7029
   42CHL1   C11 3068   1.655   5.970   4.204  0.9088  0.2940  0.0215
   42CHL1  H11A 3069   1.720   6.050   4.244  2.2919 -0.9888  0.4403
   42CHL1  H11B 3070   1.710   5.894   4.144  0.8161 -0.4823  0.8869
   42CHL1    C9 3071   1.525   6.002   4.119 -0.0709  0.1259 -0.5367
   42CHL1    H9 3072   1.475   5.904   4.099  1.6866 -0.7133 -1.0464
   42CHL1   C10 3073   1.546   6.059   3.983 -0.0769  0.4921 -0.5886
   42CHL1   C19 3074   1.653   6.178   4.006 -0.1858  0.0675 -0.2166
   42CHL1  H19A 3075   1.654   6.243   3.916  0.9858 -0.1422 -0.3780
   42CHL1  H19B 3076   1.630   6.246   4.090  0.2445  0.7452 -0.6348
   42CHL1  H19C 3077   1.755   6.139   4.026 -0.6462 -0.3603  1.4370
   42CHL1    C1 3078   1.610   5.952   3.887 -0.5137 -0.1384 -0.3776
   42CHL1   H1A 3079   1.715   5.940   3.922 -0.9320 -1.6330  0.4818
   42CHL1   H1B 3080   1.561   5.857   3.918 -0.8737  0.3395  0.5499
   42CHL1    C2 3081   1.615   5.978   3.741 -0.6546 -1.2668  0.2142
   42CHL1   H2A 3082   1.653   5.895   3.676  0.8975  0.6094 -1.4289
   42CHL1   H2B 3083   1.680   6.067   3.729 -0.6902 -1.3399 -0.6129
   42CHL1   C20 3084   1.533   5.884   4.683  0.3712 -0.1379 -0.0572
   42CHL1   H20 3085   1.544   5.975   4.747 -0.8716  0.6052 -0.8498
   42CHL1   C21 3086   1.672   5.830   4.661 -0.6557 -0.0216 -0.2599
   42CHL1  H21A 3087   1.665   5.744   4.590  2.3009 -2.1503  1.7966
   42CHL1  H21B 3088   1.728   5.797   4.750  1.3148  0.8163 -1.1343
   42CHL1  H21C 3089   1.743   5.899   4.611 -0.7195 -0.7030 -1.3374
   42CHL1   C22 3090   1.438   5.781   4.754  0.2231  1.3418 -0.4134
   42CHL1  H22A 3091   1.336   5.823   4.759  0.3426  1.5822  0.1336
   42CHL1  H22B 3092   1.434   5.684   4.700  1.9102  1.5288 -0.9566
   42CHL1   C23 3093   1.472   5.772   4.905 -0.1065  0.3959 -0.6525
   42CHL1  H23A 3094   1.577   5.734   4.914 -0.5612 -1.7746 -3.2694
   42CHL1  H23B 3095   1.466   5.873   4.951  2.1668  0.2072  0.1918
   42CHL1   C24 3096   1.384   5.670   4.990  0.3070  0.8967 -0.4890
   42CHL1  H24A 3097   1.282   5.714   4.995 -1.1215 -2.2327  0.4755
   42CHL1  H24B 3098   1.367   5.579   4.929  1.6176  0.5824 -0.4231
   42CHL1   C25 3099   1.420   5.634   5.130  0.2081  0.5110  0.4397
   42CHL1   H25 3100   1.523   5.591   5.125 -0.2601 -0.7106  0.9649
   42CHL1   C26 3101   1.427   5.761   5.210  0.4285  0.0609 -0.1336
   42CHL1  H26A 3102   1.436   5.741   5.319  1.4309  1.9551  0.1688
   42CHL1  H26B 3103   1.514   5.822   5.178 -0.2727  0.0672 -2.2088
   42CHL1  H26C 3104   1.334   5.817   5.186  0.1110 -0.4217 -0.0466
   42CHL1   C27 3105   1.328   5.527   5.193  0.6537  0.2089 -0.5190
   42CHL1  H27A 3106   1.302   5.441   5.127 -0.0589  0.1517 -0.1812
   42CHL1  H27B 3107   1.374   5.492   5.288  0.8180  0.7119 -0.4139
   42CHL1  H27C 3108   1.231   5.575   5.219  1.4275  2.5110 -1.6789
   43CHL1    C3 3109   2.100   1.115   3.725 -0.7004  0.4277  0.5810
   43CHL1    H3 3110   2.122   1.014   3.683 -2.2398  0.2037  0.2566
   43CHL1    O3 3111   2.065   1.196   3.613  0.1638 -0.2467  0.0880
   43CHL1   H3' 3112   2.145   1.210   3.561  0.6472  2.0336  1.3041
   43CHL1    C4 3113   1.984   1.087   3.820  0.3174 -0.6057 -0.6151
   43CHL1   H4A 3114   1.952   1.194   3.826 -1.2703 -1.0016 -1.3603
   43CHL1   H4B 3115   1.906   1.029   3.766 -0.6656  0.4105 -0.3316
   43CHL1    C5 3116   2.018   1.038   3.958 -0.7582  0.4538 -0.2651
   43CHL1    C6 3117   1.958   0.925   4.009 -0.5854  0.1700  0.3514
   43CHL1    H6 3118   1.874   0.889   3.949 -0.4879  1.1338 -0.3967
   43CHL1    C7 3119   1.988   0.857   4.136  0.0501  0.2684 -0.0929
   43CHL1   H7A 3120   1.895   0.854   4.197 -1.3036  1.1258 -1.9908
   43CHL1   H7B 3121   2.005   0.748   4.130  0.0288  0.2153  0.7518
   43CHL1    C8 3122   2.089   0.934   4.224 -0.4878  0.2897  0.3706
   43CHL1    H8 3123   2.027   1.009   4.278  1.2971  0.9831  1.5570
   43CHL1   C14 3124   2.138   0.849   4.338 -0.1273 -0.4468 -1.2439
   43CHL1   H14 3125   2.193   0.761   4.296 -0.3194 -1.1039 -0.1414
   43CHL1   C15 3126   2.032   0.785   4.436 -0.4263  0.0816 -0.7274
   43CHL1  H15A 3127   1.958   0.863   4.463 -2.4685 -1.5334 -1.3967
   43CHL1  H15B 3128   1.993   0.694   4.385 -2.6169  0.6724 -0.1787
   43CHL1   C16 3129   2.127   0.740   4.545 -0.5919 -1.6218 -1.3259
   43CHL1  H16A 3130   2.077   0.768   4.640 -0.1169  1.1526 -1.8145
   43CHL1  H16B 3131   2.147   0.631   4.547  1.1251 -1.3159  0.1686
   43CHL1   C17 3132   2.260   0.819   4.534  0.4542 -0.4019 -0.6666
   43CHL1   H17 3133   2.326   0.747   4.479  2.6296  1.5221 -0.7320
   43CHL1   C13 3134   2.235   0.929   4.430  0.0534 -0.0306  0.2634
   43CHL1   C18 3135   2.171   1.051   4.503 -0.2950  0.3817 -0.2654
   43CHL1  H18A 3136   2.128   1.121   4.427 -0.5878 -0.1976 -0.6481
   43CHL1  H18B 3137   2.094   1.009   4.571  0.8616 -0.6761  0.4336
   43CHL1  H18C 3138   2.251   1.100   4.562 -1.1463 -1.3266  2.5182
   43CHL1   C12 3139   2.347   0.984   4.347 -0.2539  0.4700  0.9433
   43CHL1  H12A 3140   2.424   1.027   4.414  1.1951  0.2197 -0.5121
   43CHL1  H12B 3141   2.388   0.892   4.300 -1.7600  0.0505  0.3716
   43CHL1   C11 3142   2.302   1.071   4.229 -0.1481  0.3931 -0.9561
   43CHL1  H11A 3143   2.261   1.148   4.297 -0.7202 -2.2256  1.8857
   43CHL1  H11B 3144   2.400   1.099   4.184  0.0750 -0.7848 -1.2583
   43CHL1    C9 3145   2.197   0.998   4.140 -0.4526 -0.8770  0.2008
   43CHL1    H9 3146   2.237   0.912   4.082 -1.2723 -0.8416 -0.4344
   43CHL1   C10 3147   2.143   1.093   4.025 -0.3752 -0.5528  0.2805
   43CHL1   C19 3148   2.115   1.226   4.092 -0.4588  0.0807 -0.3230
   43CHL1  H19A 3149   2.056   1.205   4.184  1.1075  0.0595  0.7117
   43CHL1  H19B 3150   2.210   1.271   4.128 -0.6598  2.3902 -2.4728
   43CHL1  H19C 3151   2.065   1.296   4.022 -0.4933  0.5137  0.1253
   43CHL1    C1 3152   2.260   1.113   3.917  1.0131  0.1526 -0.3809
   43CHL1   H1A 3153   2.339   1.167   3.974  1.9803 -2.0180  0.4460
   43CHL1   H1B 3154   2.293   1.009   3.899 -2.7701 -1.3602  0.4375
   43CHL1    C2 3155   2.222   1.182   3.791  1.1158  0.0765  0.1915
   43CHL1   H2A 3156   2.306   1.174   3.719  1.1762 -2.0132  0.4339
   43CHL1   H2B 3157   2.191   1.286   3.811  0.1576  0.5008 -2.9784
   43CHL1   C20 3158   2.316   0.859   4.667  0.5014 -0.1933 -0.2699
   43CHL1   H20 3159   2.249   0.936   4.710 -0.6852 -1.1771 -0.3212
   43CHL1   C21 3160   2.464   0.923   4.651 -0.2950  0.0942 -0.0855
   43CHL1  H21A 3161   2.524   0.941   4.743 -0.0399  1.6318 -0.5236
   43CHL1  H21B 3162   2.461   1.021   4.598  1.0679 -0.0861 -0.5419
   43CHL1  H21C 3163   2.516   0.845   4.591 -2.1510  1.0341 -3.1425
   43CHL1   C22 3164   2.318   0.753   4.773  0.3419 -0.4675 -0.5639
   43CHL1  H22A 3165   2.294   0.654   4.730  0.1893 -2.1579  3.0159
   43CHL1  H22B 3166   2.421   0.736   4.812  0.2320 -0.9143 -0.4714
   43CHL1   C23 3167   2.228   0.782   4.892 -0.3443 -0.4878 -0.4664
   43CHL1  H23A 3168   2.274   0.863   4.954 -0.1605 -0.7948 -0.1975
   43CHL1  H23B 3169   2.124   0.807   4.864 -1.6696 -4.9937 -0.3176
   43CHL1   C24 3170   2.241   0.662   4.986 -0.0512  0.9406 -0.3940
   43CHL1  H24A 3171   2.166   0.589   4.949 -0.0016 -0.4979  2.1385
   43CHL1  H24B 3172   2.338   0.609   4.986 -0.2756  0.5232 -0.5957
   43CHL1   C25 3173   2.198   0.682   5.135  0.1857 -0.0953  0.1582
   43CHL1   H25 3174   2.094   0.721   5.143  0.4988  0.5382  1.4986
   43CHL1   C26 3175   2.186   0.541   5.197  0.2068  0.1221 -0.5475
   43CHL1  H26A 3176   2.098   0.487   5.156 -0.5786  1.0358 -0.1328
   43CHL1  H26B 3177   2.282   0.487   5.189 -1.4931 -3.3473  0.4617
   43CHL1  H26C 3178   2.175   0.555   5.307  2.4686  0.8127 -0.3654
   43CHL1   C27 3179   2.285   0.780   5.218 -0.4358 -0.0577  0.1227
   43CHL1  H27A 3180   2.390   0.745   5.213  0.4270  2.1813  1.1052
   43CHL1  H27B 3181   2.265   0.886   5.192  0.3693  1.0427  3.4085
   43CHL1  H27C 3182   2.252   0.774   5.324  0.1919  0.6109  0.3639
   44CHL1    C3 3183   0.161   0.300   3.475  0.4868 -0.1428 -0.8166
   44CHL1    H3 3184   0.244   0.374   3.474  1.0476 -0.7000  0.8190
   44CHL1    O3 3185   0.139   0.254   3.346  0.0618 -0.0961  0.0676
   44CHL1   H3' 3186   0.080   0.179   3.346  0.7225 -0.6270  0.4698
   44CHL1    C4 3187   0.228   0.172   3.554 -0.0268 -0.7083  0.7236
   44CHL1   H4A 3188   0.148   0.094   3.551 -1.3505  0.6184  0.0964
   44CHL1   H4B 3189   0.323   0.139   3.507 -1.3167 -0.3846 -2.3732
   44CHL1    C5 3190   0.246   0.219   3.697  0.6002  0.5778  0.5434
   44CHL1    C6 3191   0.356   0.198   3.771 -0.6810  0.9390  1.1487
   44CHL1    H6 3192   0.442   0.154   3.719 -2.5241 -1.9968  0.3738
   44CHL1    C7 3193   0.374   0.234   3.918 -0.5510 -0.2754  0.0304
   44CHL1   H7A 3194   0.436   0.155   3.967 -2.6261 -1.8882  0.2226
   44CHL1   H7B 3195   0.431   0.328   3.932 -0.2134 -0.6031  0.9847
   44CHL1    C8 3196   0.242   0.233   3.990  0.0250  0.2020 -0.8575
   44CHL1    H8 3197   0.198   0.130   3.987 -0.6278  0.3845  1.0472
   44CHL1   C14 3198   0.251   0.281   4.136 -0.7935 -0.3976  1.0926
   44CHL1   H14 3199   0.289   0.385   4.128 -0.6403 -0.5913 -1.8953
   44CHL1   C15 3200   0.352   0.203   4.217 -0.8229  0.1832 -0.2502
   44CHL1  H15A 3201   0.341   0.095   4.197 -1.7732  0.2860 -0.3208
   44CHL1  H15B 3202   0.458   0.231   4.200 -0.7407  0.9216  1.2965
   44CHL1   C16 3203   0.306   0.236   4.359 -0.2783  0.1101  0.6770
   44CHL1  H16A 3204   0.294   0.138   4.411  0.7223  0.6344  1.9613
   44CHL1  H16B 3205   0.375   0.291   4.426  0.4764 -1.6818  1.4663
   44CHL1   C17 3206   0.167   0.308   4.363  0.5413 -0.8515  0.2166
   44CHL1   H17 3207   0.188   0.416   4.372 -0.9854 -0.6335  1.6280
   44CHL1   C13 3208   0.125   0.286   4.216 -0.4606 -0.8166 -0.4589
   44CHL1   C18 3209   0.055   0.147   4.214 -0.1574  0.1375 -0.3263
   44CHL1  H18A 3210  -0.040   0.141   4.270 -0.0142 -1.1815 -0.2082
   44CHL1  H18B 3211   0.029   0.111   4.112  0.7291 -0.4217 -0.3658
   44CHL1  H18C 3212   0.130   0.072   4.247  0.9838  1.4342  0.1149
   44CHL1   C12 3213   0.031   0.397   4.147 -0.5939  0.4034 -0.6392
   44CHL1  H12A 3214  -0.058   0.394   4.213  0.8531  1.0242  1.4611
   44CHL1  H12B 3215   0.080   0.497   4.154  0.8335 -0.2880 -0.2684
   44CHL1   C11 3216   0.011   0.351   3.998 -0.2884 -0.0567  0.3528
   44CHL1  H11A 3217  -0.064   0.270   4.008 -0.8907  0.7162  3.0986
   44CHL1  H11B 3218  -0.035   0.437   3.944  1.0787  1.1437  1.0370
   44CHL1    C9 3219   0.143   0.320   3.911 -0.8231 -0.4838 -0.1583
   44CHL1    H9 3220   0.203   0.412   3.897  1.1761 -2.0160 -2.4852
   44CHL1   C10 3221   0.121   0.270   3.772 -0.1402 -0.7246 -0.7384
   44CHL1   C19 3222   0.013   0.167   3.782 -0.0489  0.3713  0.3324
   44CHL1  H19A 3223   0.015   0.112   3.878 -2.1710 -0.5601 -0.1074
   44CHL1  H19B 3224  -0.085   0.218   3.792 -1.1514 -1.7217  0.8619
   44CHL1  H19C 3225   0.001   0.101   3.693 -1.5931  1.4080 -0.2747
   44CHL1    C1 3226   0.062   0.394   3.694  0.0042 -0.8604 -0.7093
   44CHL1   H1A 3227  -0.028   0.436   3.744  0.4947 -0.2475 -0.3281
   44CHL1   H1B 3228   0.136   0.477   3.700  1.9482 -2.5750  0.4310
   44CHL1    C2 3229   0.038   0.362   3.545 -0.4273  0.0279  0.3085
   44CHL1   H2A 3230   0.010   0.453   3.487  3.5465  0.7269 -0.8352
   44CHL1   H2B 3231  -0.045   0.290   3.536 -0.0688 -0.1614 -2.4427
   44CHL1   C20 3232   0.073   0.277   4.482  0.1722 -0.4238  0.4538
   44CHL1   H20 3233   0.040   0.172   4.470  0.1803 -0.2659 -1.2587
   44CHL1   C21 3234  -0.043   0.381   4.479 -0.3169  0.4055  0.0933
   44CHL1  H21A 3235  -0.114   0.353   4.399 -0.9240 -0.2546  0.8451
   44CHL1  H21B 3236  -0.016   0.488   4.473 -1.8038  0.7758 -0.4278
   44CHL1  H21C 3237  -0.100   0.362   4.573 -1.4006  0.2245 -0.5820
   44CHL1   C22 3238   0.150   0.276   4.622  0.1026 -0.1270 -0.1209
   44CHL1  H22A 3239   0.246   0.222   4.612  1.1223  1.3647  1.1193
   44CHL1  H22B 3240   0.183   0.381   4.637 -0.4592  0.1238 -0.6033
   44CHL1   C23 3241   0.066   0.209   4.740  0.2634 -0.2981 -0.2547
   44CHL1  H23A 3242  -0.030   0.262   4.757  0.2369 -0.9468  1.9521
   44CHL1  H23B 3243   0.046   0.106   4.704 -0.9777 -0.7119  1.5143
   44CHL1   C24 3244   0.153   0.201   4.870 -0.0033 -0.2458 -0.5743
   44CHL1  H24A 3245   0.245   0.145   4.844  0.8545  0.1744  1.3077
   44CHL1  H24B 3246   0.186   0.303   4.900  0.5129 -0.0711 -1.7265
   44CHL1   C25 3247   0.075   0.142   4.991 -0.6451  0.2847 -0.4334
   44CHL1   H25 3248   0.014   0.054   4.960 -1.8493  0.4284  1.3623
   44CHL1   C26 3249   0.174   0.110   5.111 -0.4832  0.4617 -0.1935
   44CHL1  H26A 3250   0.243   0.031   5.075  0.8194  2.0921 -1.4046
   44CHL1  H26B 3251   0.239   0.195   5.141  0.3722  0.2743 -1.4238
   44CHL1  H26C 3252   0.119   0.078   5.203  3.7540  1.5393  3.0607
   44CHL1   C27 3253  -0.029   0.250   5.034  0.6383 -0.2933 -0.0099
   44CHL1  H27A 3254   0.010   0.332   5.099 -0.3141 -1.4788  2.1816
   44CHL1  H27B 3255  -0.068   0.299   4.942  1.4054  0.4514  0.0514
   44CHL1  H27C 3256  -0.112   0.203   5.090  0.6590 -0.5357 -0.1815
   45CHL1    C3 3257   0.776   6.062   3.620 -0.0613  0.7510 -0.5403
   45CHL1    H3 3258   0.763   5.957   3.652  0.6382  0.7158 -0.3514
   45CHL1    O3 3259   0.770   6.063   3.477 -0.6383  0.3308  0.5226
   45CHL1   H3' 3260   0.819   6.140   3.448  0.4019  0.0209  1.3906
   45CHL1    C4 3261   0.671   6.147   3.683  0.4545  0.2572 -0.0499
   45CHL1   H4A 3262   0.656   6.250   3.645 -1.3342  0.0961  0.1295
   45CHL1   H4B 3263   0.580   6.095   3.646 -0.3359  2.9992 -2.2650
   45CHL1    C5 3264   0.675   6.133   3.837  0.4681 -0.0502  0.7068
   45CHL1    C6 3265   0.571   6.095   3.913 -0.7253  0.3823 -0.0307
   45CHL1    H6 3266   0.470   6.081   3.870 -0.7191  0.3160 -0.0242
   45CHL1    C7 3267   0.568   6.091   4.063  0.4041 -0.1758 -0.2336
   45CHL1   H7A 3268   0.482   6.145   4.107  1.0805  0.1878  0.6750
   45CHL1   H7B 3269   0.552   5.988   4.102  2.4847 -2.0482 -3.7080
   45CHL1    C8 3270   0.688   6.169   4.124  0.8867  0.1092 -0.0030
   45CHL1    H8 3271   0.663   6.276   4.109  0.5447  0.1717  0.9265
   45CHL1   C14 3272   0.699   6.127   4.265  0.0676 -0.0883  0.4451
   45CHL1   H14 3273   0.723   6.018   4.266 -0.6435 -0.2462  1.7981
   45CHL1   C15 3274   0.582   6.146   4.372 -0.1803 -0.5359  0.3638
   45CHL1  H15A 3275   0.541   6.249   4.366 -2.0478 -0.9773  3.4832
   45CHL1  H15B 3276   0.504   6.068   4.354 -0.0991 -0.2838 -1.2023
   45CHL1   C16 3277   0.642   6.127   4.506  0.0517 -0.2168  0.5832
   45CHL1  H16A 3278   0.633   6.223   4.561 -1.4671 -0.2659  0.4735
   45CHL1  H16B 3279   0.598   6.047   4.571 -0.6475  0.6077  1.1470
   45CHL1   C17 3280   0.788   6.121   4.479 -0.9218 -0.8093 -0.4885
   45CHL1   H17 3281   0.815   6.016   4.458 -1.2119 -1.1172  0.6092
   45CHL1   C13 3282   0.813   6.192   4.345  0.2416  0.1202 -0.5178
   45CHL1   C18 3283   0.792   6.340   4.366 -1.0341 -0.2971  0.3994
   45CHL1  H18A 3284   0.782   6.405   4.276 -1.1615 -0.6849  0.1349
   45CHL1  H18B 3285   0.708   6.361   4.435 -1.7559 -1.7769 -0.0006
   45CHL1  H18C 3286   0.876   6.387   4.422 -0.7233 -0.4748  0.0888
   45CHL1   C12 3287   0.943   6.160   4.273 -0.1119 -0.2991  0.3281
   45CHL1  H12A 3288   1.028   6.209   4.325 -0.1199  0.9500 -0.7786
   45CHL1  H12B 3289   0.960   6.050   4.278 -2.5126 -0.9493 -2.5893
   45CHL1   C11 3290   0.940   6.204   4.124  0.0606  0.1193  1.0909
   45CHL1  H11A 3291   0.925   6.313   4.109  0.8580  0.0001 -0.8666
   45CHL1  H11B 3292   1.033   6.176   4.070  0.8154  2.0629  1.3224
   45CHL1    C9 3293   0.816   6.138   4.049 -0.3452  0.4627 -0.8021
   45CHL1    H9 3294   0.829   6.028   4.057 -1.0700  0.3675 -0.8726
   45CHL1   C10 3295   0.811   6.176   3.900 -0.4304 -0.2444 -0.3375
   45CHL1   C19 3296   0.839   6.330   3.879 -0.3574  0.1883 -0.0949
   45CHL1  H19A 3297   0.947   6.354   3.888 -0.0120 -1.7365  1.7296
   45CHL1  H19B 3298   0.795   6.352   3.780 -1.1021 -1.7770 -0.2447
   45CHL1  H19C 3299   0.781   6.404   3.937 -1.3938 -1.6722  1.3839
   45CHL1    C1 3300   0.924   6.107   3.820 -0.2590  0.1212  0.5035
   45CHL1   H1A 3301   1.024   6.150   3.839  0.4186 -1.0125 -0.3900
   45CHL1   H1B 3302   0.925   6.001   3.853  0.6852 -0.0404 -0.0066
   45CHL1    C2 3303   0.911   6.123   3.663  0.1284  0.2797 -0.2516
   45CHL1   H2A 3304   0.998   6.068   3.619 -0.0879  0.3723 -0.8029
   45CHL1   H2B 3305   0.931   6.229   3.635  4.0026  0.7927  3.4457
   45CHL1   C20 3306   0.899   6.166   4.590 -0.0666  0.7068  0.6289
   45CHL1   H20 3307   0.988   6.202   4.536 -1.1230  1.0956 -0.9250
   45CHL1   C21 3308   0.948   6.041   4.672  0.3591 -0.3419 -0.4078
   45CHL1  H21A 3309   0.996   5.971   4.601 -0.8412 -3.3829  1.5777
   45CHL1  H21B 3310   0.872   5.993   4.737  0.5697 -1.4536 -0.9472
   45CHL1  H21C 3311   1.010   6.082   4.754 -0.8796  1.3640 -0.2739
   45CHL1   C22 3312   0.848   6.271   4.688 -0.3850 -0.1959  0.0940
   45CHL1  H22A 3313   0.787   6.348   4.635  0.4350  0.9995  0.8619
   45CHL1  H22B 3314   0.776   6.228   4.761 -2.3191  1.2650 -0.8320
   45CHL1   C23 3315   0.957   6.356   4.757  0.0609  0.2003 -0.1677
   45CHL1  H23A 3316   1.041   6.288   4.783 -0.5193 -0.8394 -0.9336
   45CHL1  H23B 3317   0.991   6.446   4.701  0.2493 -1.4729 -2.9674
   45CHL1   C24 3318   0.912   6.409   4.896  0.0556  0.1624  0.5320
   45CHL1  H24A 3319   0.811   6.453   4.881 -0.4454 -1.0647  0.1553
   45CHL1  H24B 3320   0.896   6.319   4.959 -1.6833 -0.2510 -0.4326
   45CHL1   C25 3321   1.011   6.516   4.950  0.2373 -0.7644  0.5467
   45CHL1   H25 3322   1.117   6.486   4.962  1.3294  1.2064 -2.6659
   45CHL1   C26 3323   1.008   6.642   4.863 -0.7492 -0.7651 -0.5591
   45CHL1  H26A 3324   1.030   6.725   4.934  0.0912 -0.4358 -1.1847
   45CHL1  H26B 3325   1.083   6.636   4.782 -0.4493 -0.1611 -0.3363
   45CHL1  H26C 3326   0.909   6.676   4.823  0.1246  4.3877  0.8415
   45CHL1   C27 3327   0.972   6.549   5.092  0.2690  0.2220 -0.3514
   45CHL1  H27A 3328   0.881   6.607   5.119  2.1085  2.0396  2.6042
   45CHL1  H27B 3329   0.977   6.459   5.158  0.6734  1.0717  0.8129
   45CHL1  H27C 3330   1.043   6.623   5.135 -0.3824 -0.2489  1.6260
   46CHL1    C3 3331   5.110   2.966   3.719 -0.6209  0.5157 -0.1349
   46CHL1    H3 3332   5.186   3.044   3.704 -0.7903  0.1137 -3.8464
   46CHL1    O3 3333   5.080   2.905   3.589  0.5164 -1.0531 -0.1606
   46CHL1   H3' 3334   5.030   2.824   3.601 -0.7934 -0.1581  0.6888
   46CHL1    C4 3335   5.159   2.860   3.814 -0.3526 -0.1950  0.3485
   46CHL1   H4A 3336   5.088   2.775   3.803 -0.7357  0.3780 -2.2175
   46CHL1   H4B 3337   5.259   2.831   3.776 -0.4927  1.6319 -1.5685
   46CHL1    C5 3338   5.162   2.907   3.962 -0.0027 -0.5856  0.4641
   46CHL1    C6 3339   5.269   2.894   4.040  0.0384  0.4040 -0.3877
   46CHL1    H6 3340   5.355   2.841   3.997  1.2712  1.7194  0.3310
   46CHL1    C7 3341   5.270   2.929   4.186 -0.4554  1.0790 -0.1940
   46CHL1   H7A 3342   5.325   2.857   4.250 -0.2485  0.4215 -1.0814
   46CHL1   H7B 3343   5.323   3.024   4.206 -0.6754  0.9881  0.8847
   46CHL1    C8 3344   5.124   2.943   4.247 -0.1745  0.2135  1.0122
   46CHL1    H8 3345   5.072   2.845   4.248 -1.4232  0.8587  2.1707
   46CHL1   C14 3346   5.132   2.998   4.387  0.4661 -0.4780 -0.6653
   46CHL1   H14 3347   5.197   3.089   4.389 -0.4956  0.2417 -1.1947
   46CHL1   C15 3348   5.196   2.902   4.489 -0.0492  0.2558 -0.5085
   46CHL1  H15A 3349   5.163   2.800   4.464  0.3764 -0.4776  1.6882
   46CHL1  H15B 3350   5.306   2.904   4.473 -0.3608  0.1174 -2.9048
   46CHL1   C16 3351   5.158   2.954   4.622 -0.5054 -0.2526  0.8138
   46CHL1  H16A 3352   5.099   2.875   4.673  0.1345 -0.7705  0.7574
   46CHL1  H16B 3353   5.244   2.995   4.678  1.4247  0.1696 -2.2470
   46CHL1   C17 3354   5.049   3.055   4.606  0.2895 -0.5789 -0.1970
   46CHL1   H17 3355   5.106   3.150   4.594 -1.3163  0.3906 -0.3201
   46CHL1   C13 3356   4.997   3.029   4.462 -0.4979 -0.0153  1.2025
   46CHL1   C18 3357   4.903   2.904   4.472  0.5903 -0.8456 -0.5977
   46CHL1  H18A 3358   4.950   2.818   4.525 -0.4965 -1.6785 -0.9433
   46CHL1  H18B 3359   4.808   2.920   4.528  0.6383 -0.2537 -0.6755
   46CHL1  H18C 3360   4.887   2.850   4.377 -2.0527  1.3500 -1.5349
   46CHL1   C12 3361   4.934   3.149   4.372  0.4252 -0.0892 -0.1274
   46CHL1  H12A 3362   4.838   3.172   4.423 -0.3671 -0.2014 -1.5297
   46CHL1  H12B 3363   5.003   3.236   4.369  1.9333 -1.2258  0.3470
   46CHL1   C11 3364   4.909   3.097   4.231  0.3763 -0.0555 -0.3246
   46CHL1  H11A 3365   4.829   3.021   4.240  1.5276 -1.0345  2.5625
   46CHL1  H11B 3366   4.875   3.183   4.169  0.9414 -0.7724 -1.6738
   46CHL1    C9 3367   5.043   3.040   4.160 -0.3138  0.2653  0.3281
   46CHL1    H9 3368   5.122   3.118   4.148  0.8399 -1.0871 -1.5040
   46CHL1   C10 3369   5.033   2.976   4.017  0.6862  0.0061 -0.1775
   46CHL1   C19 3370   4.922   2.859   4.019 -0.7301 -0.1235  0.0764
   46CHL1  H19A 3371   4.912   2.799   3.927  0.4659 -1.1293  0.5887
   46CHL1  H19B 3372   4.956   2.795   4.103  0.3183  0.4075  0.0746
   46CHL1  H19C 3373   4.824   2.901   4.053  0.1717  3.0638 -0.9356
   46CHL1    C1 3374   4.991   3.081   3.913  0.2970 -0.3937  0.5679
   46CHL1   H1A 3375   4.895   3.118   3.955  0.5554 -0.7262  1.4662
   46CHL1   H1B 3376   5.070   3.160   3.913 -0.1103  0.0600 -1.4059
   46CHL1    C2 3377   4.980   3.031   3.770 -0.3195  0.0784 -0.3304
   46CHL1   H2A 3378   4.950   3.115   3.703  0.7301  0.4701 -0.3231
   46CHL1   H2B 3379   4.904   2.952   3.754  0.0635 -0.6540  1.2574
   46CHL1   C20 3380   4.952   3.071   4.717  0.0120 -0.0903 -0.4217
   46CHL1   H20 3381   4.881   2.988   4.737  1.7924 -1.2078  1.7055
   46CHL1   C21 3382   4.875   3.199   4.692  0.7395  0.6561 -0.4138
   46CHL1  H21A 3383   4.805   3.204   4.605  1.2224  2.4262 -0.7417
   46CHL1  H21B 3384   4.942   3.287   4.685  2.2338 -0.4254 -0.2732
   46CHL1  H21C 3385   4.803   3.219   4.775  0.8047  0.1124 -0.2242
   46CHL1   C22 3386   5.034   3.083   4.851 -0.7840 -0.2777  0.2794
   46CHL1  H22A 3387   5.119   3.014   4.870 -0.8458 -0.8070 -1.2212
   46CHL1  H22B 3388   5.095   3.176   4.847  2.6060 -2.3345 -0.1608
   46CHL1   C23 3389   4.947   3.079   4.986 -0.8789 -0.5228  0.3972
   46CHL1  H23A 3390   4.859   3.146   4.976  0.8124  1.8390  0.2711
   46CHL1  H23B 3391   4.913   2.974   4.999 -1.8225 -0.3193 -0.3655
   46CHL1   C24 3392   5.032   3.120   5.108  0.2652 -0.0643  0.2720
   46CHL1  H24A 3393   4.964   3.117   5.196  1.7734 -2.4580  1.4494
   46CHL1  H24B 3394   5.120   3.057   5.132  0.2494 -0.6755 -1.1692
   46CHL1   C25 3395   5.082   3.264   5.106 -0.2280 -0.3338 -0.1870
   46CHL1   H25 3396   5.155   3.278   5.023  0.9657  1.8075  1.1553
   46CHL1   C26 3397   4.976   3.367   5.084 -0.3179 -0.3834 -0.3704
   46CHL1  H26A 3398   4.974   3.390   4.975  2.1542 -1.7877 -0.8003
   46CHL1  H26B 3399   4.876   3.335   5.118 -0.5245  2.1292  1.7085
   46CHL1  H26C 3400   5.001   3.468   5.123  0.2802  0.2072 -2.1785
   46CHL1   C27 3401   5.143   3.291   5.252  0.1948 -0.0720 -0.2458
   46CHL1  H27A 3402   5.066   3.298   5.332  0.9313 -1.7870  0.6685
   46CHL1  H27B 3403   5.212   3.209   5.281  1.1208  1.0972  0.9241
   46CHL1  H27C 3404   5.202   3.384   5.242 -1.9825  1.1961 -2.6481
   47CHL1    C3 3405   2.137   3.218   3.816 -1.1917 -0.4745  0.2210
   47CHL1    H3 3406   2.141   3.115   3.858  0.7662 -0.6701 -0.3233
   47CHL1    O3 3407   2.142   3.200   3.677  0.0714 -0.2720  0.0592
   47CHL1   H3' 3408   2.136   3.287   3.637 -0.5181 -1.5890 -2.9888
   47CHL1    C4 3409   1.993   3.267   3.850 -0.4268  0.6539  0.3738
   47CHL1   H4A 3410   1.971   3.366   3.804 -0.2853  1.3522  1.7376
   47CHL1   H4B 3411   1.929   3.194   3.798  0.3042  0.7126 -0.6377
   47CHL1    C5 3412   1.964   3.281   3.997  0.5678  0.1771 -1.0306
   47CHL1    C6 3413   1.868   3.209   4.065  0.8740 -0.1492  0.2570
   47CHL1    H6 3414   1.816   3.129   4.011 -0.3128  0.9350 -0.2542
   47CHL1    C7 3415   1.831   3.219   4.213  1.1148 -0.1170 -0.5695
   47CHL1   H7A 3416   1.724   3.238   4.238  1.6873  0.3250  1.8074
   47CHL1   H7B 3417   1.862   3.132   4.275 -1.8527 -2.0529 -1.5865
   47CHL1    C8 3418   1.881   3.352   4.267  0.1972 -1.3616  0.5202
   47CHL1    H8 3419   1.829   3.443   4.230  0.3952 -0.7548  1.6819
   47CHL1   C14 3420   1.889   3.342   4.421  0.7302  0.9317  0.0352
   47CHL1   H14 3421   1.952   3.252   4.437 -0.2501 -0.6478 -3.8770
   47CHL1   C15 3422   1.749   3.309   4.492  0.1824 -0.3724  0.3110
   47CHL1  H15A 3423   1.658   3.341   4.437 -0.0049  0.5501  1.1301
   47CHL1  H15B 3424   1.741   3.199   4.507 -0.0983 -0.4415 -0.3169
   47CHL1   C16 3425   1.758   3.378   4.629 -0.4244  0.4542  0.4210
   47CHL1  H16A 3426   1.693   3.467   4.633 -0.4707  0.4104  0.6238
   47CHL1  H16B 3427   1.745   3.306   4.712  2.5111 -1.4110 -0.5613
   47CHL1   C17 3428   1.904   3.441   4.636 -0.2247 -0.1453 -0.2610
   47CHL1   H17 3429   1.972   3.361   4.674 -1.0194 -0.4879  0.4548
   47CHL1   C13 3430   1.951   3.463   4.493 -0.5003 -0.0144 -0.3502
   47CHL1   C18 3431   1.886   3.601   4.450 -0.6674 -0.3498 -0.4082
   47CHL1  H18A 3432   1.780   3.606   4.482 -1.5229 -2.9435 -2.5182
   47CHL1  H18B 3433   1.952   3.681   4.490  1.0619 -0.7035 -2.3800
   47CHL1  H18C 3434   1.887   3.624   4.342 -0.0457  0.1518 -0.2995
   47CHL1   C12 3435   2.095   3.473   4.463 -0.3474  0.2243 -0.1917
   47CHL1  H12A 3436   2.154   3.556   4.508  4.0445 -2.5553 -0.2101
   47CHL1  H12B 3437   2.145   3.381   4.500 -0.4256  0.0915 -0.4147
   47CHL1   C11 3438   2.121   3.468   4.307 -0.1079 -0.8251 -0.7758
   47CHL1  H11A 3439   2.095   3.569   4.269  1.9604 -0.8288 -2.3967
   47CHL1  H11B 3440   2.228   3.443   4.291 -0.2420 -0.4714 -2.4039
   47CHL1    C9 3441   2.033   3.362   4.226 -0.7036 -0.0953  0.5621
   47CHL1    H9 3442   2.076   3.263   4.254  1.2011  0.0978 -1.3898
   47CHL1   C10 3443   2.051   3.376   4.072  0.1524  0.7247  0.1845
   47CHL1   C19 3444   2.014   3.518   4.026 -0.2100  0.4554  0.2526
   47CHL1  H19A 3445   1.921   3.560   4.069  0.4055  1.0938  1.0000
   47CHL1  H19B 3446   2.091   3.593   4.058  0.7732 -0.6864  0.6422
   47CHL1  H19C 3447   2.008   3.532   3.916  1.8767  2.3776  0.2902
   47CHL1    C1 3448   2.206   3.346   4.034  0.4502  0.0820 -0.5686
   47CHL1   H1A 3449   2.271   3.420   4.086 -0.8218  0.4529  0.5404
   47CHL1   H1B 3450   2.236   3.256   4.092  0.1595 -0.6799 -1.5688
   47CHL1    C2 3451   2.240   3.311   3.885  0.9128 -0.3824 -0.0432
   47CHL1   H2A 3452   2.345   3.278   3.874  0.5855 -1.3983 -0.2204
   47CHL1   H2B 3453   2.252   3.410   3.836  1.8022  0.0652  1.0430
   47CHL1   C20 3454   1.901   3.556   4.732 -0.3684  0.0072 -0.0876
   47CHL1   H20 3455   1.834   3.635   4.693  0.3244  0.7141  0.1320
   47CHL1   C21 3456   2.045   3.622   4.758 -0.1093 -0.1964 -0.6928
   47CHL1  H21A 3457   2.043   3.716   4.817  1.3290 -0.2376 -0.5412
   47CHL1  H21B 3458   2.083   3.662   4.662 -0.2406  1.3337 -0.1400
   47CHL1  H21C 3459   2.116   3.546   4.798  0.9609  0.2587 -1.6979
   47CHL1   C22 3460   1.835   3.507   4.867 -0.3797  0.2181 -0.3989
   47CHL1  H22A 3461   1.734   3.472   4.840  0.3389  0.6550 -4.1446
   47CHL1  H22B 3462   1.900   3.426   4.908 -0.0143  0.7166  0.0350
   47CHL1   C23 3463   1.813   3.622   4.968  0.5177 -0.3880 -0.1484
   47CHL1  H23A 3464   1.909   3.645   5.019  0.1498 -0.7429  0.7143
   47CHL1  H23B 3465   1.767   3.714   4.924 -1.4933 -0.8852  0.7889
   47CHL1   C24 3466   1.722   3.585   5.093  0.2475 -0.1289  0.5873
   47CHL1  H24A 3467   1.617   3.593   5.057  0.7791  2.3496 -0.6313
   47CHL1  H24B 3468   1.751   3.483   5.125  1.0630 -0.4506 -1.1103
   47CHL1   C25 3469   1.749   3.678   5.210 -0.6683  0.3111 -1.1532
   47CHL1   H25 3470   1.746   3.784   5.179 -2.9312  1.0264  1.1543
   47CHL1   C26 3471   1.631   3.666   5.313 -0.1038 -0.4949  0.3252
   47CHL1  H26A 3472   1.550   3.723   5.263 -0.3029 -2.1003 -1.3092
   47CHL1  H26B 3473   1.600   3.560   5.326 -1.0191 -0.4885 -1.5235
   47CHL1  H26C 3474   1.646   3.708   5.415 -1.2791 -1.1968  0.7995
   47CHL1   C27 3475   1.886   3.657   5.285  0.1301 -0.3980 -0.2488
   47CHL1  H27A 3476   1.900   3.761   5.321 -2.5233  0.5208 -1.6016
   47CHL1  H27B 3477   1.879   3.583   5.368 -2.6397 -0.2591 -0.2627
   47CHL1  H27C 3478   1.965   3.633   5.211 -0.9407 -1.9501 -0.9392
   48CHL1    C3 3479   0.450   3.823   3.243  0.0360  0.0108  0.2910
   48CHL1    H3 3480   0.356   3.768   3.263  0.3040 -1.0930 -1.3205
   48CHL1    O3 3481   0.473   3.836   3.103 -0.3632 -0.1316  0.0849
   48CHL1   H3' 3482   0.561   3.872   3.091 -0.0041 -1.4037 -1.5489
   48CHL1    C4 3483   0.428   3.960   3.303 -0.7067 -0.3258  0.4495
   48CHL1   H4A 3484   0.506   4.032   3.274  1.1415 -2.0073  1.0387
   48CHL1   H4B 3485   0.345   4.003   3.242  0.5406 -1.8905 -2.5645
   48CHL1    C5 3486   0.417   3.965   3.452 -0.7343  0.8779  0.2324
   48CHL1    C6 3487   0.311   4.031   3.500 -0.0356  0.3188  0.4550
   48CHL1    H6 3488   0.234   4.070   3.432  0.0989 -1.8765 -1.0594
   48CHL1    C7 3489   0.300   4.061   3.647 -0.4113  0.5864  0.1367
   48CHL1   H7A 3490   0.282   4.169   3.665  1.0760  0.7567  0.8198
   48CHL1   H7B 3491   0.220   3.992   3.681 -0.4722 -1.7237 -4.0716
   48CHL1    C8 3492   0.426   4.022   3.733  0.3537 -0.1823  0.0661
   48CHL1    H8 3493   0.492   4.111   3.728  1.4162 -0.9872 -0.9391
   48CHL1   C14 3494   0.385   3.997   3.875  0.1729  0.0146 -0.1391
   48CHL1   H14 3495   0.332   3.899   3.875  0.6789 -0.4130  3.5190
   48CHL1   C15 3496   0.285   4.094   3.942  0.1508  0.4192 -0.2454
   48CHL1  H15A 3497   0.301   4.201   3.917  0.7439  0.1091 -1.3048
   48CHL1  H15B 3498   0.178   4.069   3.931 -0.0386  1.6184 -1.4368
   48CHL1   C16 3499   0.322   4.076   4.090  0.3987 -0.0403  0.0102
   48CHL1  H16A 3500   0.382   4.163   4.123  1.3342 -0.7124  0.1006
   48CHL1  H16B 3501   0.244   4.038   4.159 -0.8884  0.7103 -0.9591
   48CHL1   C17 3502   0.425   3.959   4.104  0.2604  0.3700 -0.9850
   48CHL1   H17 3503   0.365   3.866   4.099  1.3224 -0.2634 -4.3241
   48CHL1   C13 3504   0.504   3.970   3.968 -0.2380  0.2775 -0.4006
   48CHL1   C18 3505   0.599   4.092   3.957 -1.1251 -0.0449 -0.4781
   48CHL1  H18A 3506   0.636   4.106   3.853 -0.8484  1.9387 -0.1545
   48CHL1  H18B 3507   0.551   4.188   3.986 -0.7743 -0.7066  2.6010
   48CHL1  H18C 3508   0.688   4.070   4.019 -2.2247 -0.6083  0.9803
   48CHL1   C12 3509   0.570   3.833   3.927  0.0037  0.2842 -0.2227
   48CHL1  H12A 3510   0.657   3.804   3.989 -0.0392 -0.7837 -0.6561
   48CHL1  H12B 3511   0.489   3.757   3.934 -0.3384  0.7420  1.1602
   48CHL1   C11 3512   0.604   3.840   3.776 -0.6886  0.2300  0.7003
   48CHL1  H11A 3513   0.692   3.906   3.757 -0.6339 -0.3215 -1.0765
   48CHL1  H11B 3514   0.618   3.733   3.750 -2.4952 -0.1482  1.1783
   48CHL1    C9 3515   0.499   3.892   3.679  0.3705 -0.3353 -0.4098
   48CHL1    H9 3516   0.420   3.814   3.682 -0.5403  0.5967  1.4520
   48CHL1   C10 3517   0.537   3.900   3.526 -0.2482  0.1979  0.3371
   48CHL1   C19 3518   0.662   3.992   3.506 -0.2634 -0.4717 -0.3658
   48CHL1  H19A 3519   0.685   4.016   3.400  0.9562  1.7110  0.3302
   48CHL1  H19B 3520   0.654   4.083   3.569 -0.8157 -0.2521 -0.7419
   48CHL1  H19C 3521   0.757   3.946   3.541  1.5086  2.7203 -0.5947
   48CHL1    C1 3522   0.554   3.757   3.466  0.2819  0.0992  0.4349
   48CHL1   H1A 3523   0.647   3.713   3.508  0.0678 -0.0466  0.7599
   48CHL1   H1B 3524   0.472   3.691   3.503 -1.2722  1.4759 -0.4482
   48CHL1    C2 3525   0.566   3.748   3.312  0.2919 -0.1532  0.7309
   48CHL1   H2A 3526   0.577   3.640   3.289 -0.3962 -0.2123  0.6582
   48CHL1   H2B 3527   0.662   3.796   3.286 -0.7556  0.8886 -1.5015
   48CHL1   C20 3528   0.500   3.956   4.241  0.3430 -1.7105  0.1159
   48CHL1   H20 3529   0.572   4.041   4.232 -1.2329 -0.1637  1.4020
   48CHL1   C21 3530   0.570   3.824   4.275  0.2189  0.0776  0.7425
   48CHL1  H21A 3531   0.627   3.792   4.185 -0.1852  0.7972  0.2171
   48CHL1  H21B 3532   0.492   3.750   4.305  0.8071 -0.1492  1.7351
   48CHL1  H21C 3533   0.643   3.840   4.357  0.9090 -0.9958  0.3608
   48CHL1   C22 3534   0.416   4.008   4.363  0.9819  0.3038 -0.6376
   48CHL1  H22A 3535   0.371   4.107   4.341  1.3805  0.6552  0.0992
   48CHL1  H22B 3536   0.331   3.937   4.370  1.4672 -0.2349 -0.1224
   48CHL1   C23 3537   0.481   4.007   4.503  0.6445 -0.1495 -0.4562
   48CHL1  H23A 3538   0.485   3.900   4.532  0.2989 -0.6130 -1.9812
   48CHL1  H23B 3539   0.586   4.037   4.485  0.3135  1.4344  0.1085
   48CHL1   C24 3540   0.405   4.082   4.615  0.0270 -0.5318  0.3208
   48CHL1  H24A 3541   0.383   4.189   4.600  0.6516 -0.3368  0.7560
   48CHL1  H24B 3542   0.307   4.029   4.622  1.4143 -3.2657  0.4581
   48CHL1   C25 3543   0.464   4.065   4.757 -0.7239 -0.5773  0.7583
   48CHL1   H25 3544   0.568   4.104   4.746 -0.9566 -0.5467 -2.2140
   48CHL1   C26 3545   0.390   4.149   4.854  0.6287 -0.3098 -0.2993
   48CHL1  H26A 3546   0.451   4.149   4.947 -0.0147 -0.1941  0.1281
   48CHL1  H26B 3547   0.372   4.252   4.816 -1.1116  0.3496  2.0535
   48CHL1  H26C 3548   0.294   4.101   4.882  1.4052 -1.0339  1.2506
   48CHL1   C27 3549   0.493   3.923   4.812 -0.0219 -0.1428  0.5248
   48CHL1  H27A 3550   0.402   3.860   4.811 -1.4592  1.8362 -0.7057
   48CHL1  H27B 3551   0.577   3.878   4.756 -0.3412  1.2424 -1.1461
   48CHL1  H27C 3552   0.528   3.933   4.917 -3.3297 -2.8147  2.0764
   49CHL1    C3 3553   0.388   1.970   3.762  0.6894 -0.1390 -0.4336
   49CHL1    H3 3554   0.304   2.042   3.763  0.3622 -0.5217 -0.3537
   49CHL1    O3 3555   0.427   1.960   3.624 -0.3544  0.5727 -0.2450
   49CHL1   H3' 3556   0.496   1.894   3.620 -0.3405  0.5503  0.3003
   49CHL1    C4 3557   0.504   2.025   3.849 -0.5806 -0.1388  0.2894
   49CHL1   H4A 3558   0.599   1.976   3.818  0.5762  1.7916  0.6459
   49CHL1   H4B 3559   0.516   2.132   3.824 -0.2372  0.2449  1.9857
   49CHL1    C5 3560   0.489   2.007   3.999  0.1951 -0.3726 -0.3183
   49CHL1    C6 3561   0.499   2.110   4.084 -0.4241  0.8797  0.7939
   49CHL1    H6 3562   0.528   2.208   4.042  0.9507  0.0979 -0.1275
   49CHL1    C7 3563   0.496   2.091   4.231  0.3630  0.0987 -0.1297
   49CHL1   H7A 3564   0.580   2.152   4.271 -0.0639  0.1098  0.7760
   49CHL1   H7B 3565   0.401   2.130   4.273 -1.1593 -3.5718  0.2329
   49CHL1    C8 3566   0.510   1.947   4.274  0.2918 -0.7559 -0.5354
   49CHL1    H8 3567   0.616   1.919   4.256  0.6948  0.6849 -0.5678
   49CHL1   C14 3568   0.482   1.935   4.426  0.2237 -0.1050  0.7101
   49CHL1   H14 3569   0.372   1.951   4.434 -0.0301 -1.2031 -0.2437
   49CHL1   C15 3570   0.549   2.034   4.528 -0.0343 -0.0233  0.2499
   49CHL1  H15A 3571   0.657   2.051   4.505 -0.4048  0.0146 -1.6123
   49CHL1  H15B 3572   0.481   2.122   4.531  0.9341  0.9931 -3.1941
   49CHL1   C16 3573   0.534   1.953   4.659  0.0322 -0.1027 -0.3488
   49CHL1  H16A 3574   0.637   1.944   4.698 -0.4835  3.8166  2.4814
   49CHL1  H16B 3575   0.478   2.003   4.741  1.6883 -0.4480  1.0416
   49CHL1   C17 3576   0.471   1.814   4.629  1.0710  0.2796 -0.5137
   49CHL1   H17 3577   0.363   1.834   4.646  0.9792 -0.4078 -0.2602
   49CHL1   C13 3578   0.488   1.789   4.477 -0.1843  1.1976 -0.4277
   49CHL1   C18 3579   0.636   1.732   4.459 -0.2078  0.2027 -0.5886
   49CHL1  H18A 3580   0.678   1.729   4.357 -0.1126  1.8771 -0.6290
   49CHL1  H18B 3581   0.699   1.795   4.526 -0.2627  0.7711 -1.0655
   49CHL1  H18C 3582   0.633   1.622   4.477  2.6632 -0.3809 -3.0159
   49CHL1   C12 3583   0.391   1.694   4.399 -0.1486 -0.6251  0.7699
   49CHL1  H12A 3584   0.406   1.587   4.426 -2.6914 -0.8620  1.4897
   49CHL1  H12B 3585   0.282   1.715   4.408 -0.2569 -1.3430  1.3065
   49CHL1   C11 3586   0.435   1.708   4.248  0.6463 -0.4942 -0.0406
   49CHL1  H11A 3587   0.534   1.660   4.232 -0.5133 -3.0083 -0.1456
   49CHL1  H11B 3588   0.360   1.644   4.198  0.3409 -0.7557  0.7304
   49CHL1    C9 3589   0.424   1.855   4.193  0.1687  0.0242  0.4612
   49CHL1    H9 3590   0.322   1.896   4.212 -0.0794 -0.7377  0.8044
   49CHL1   C10 3591   0.454   1.868   4.044 -0.2312  0.1176  0.4607
   49CHL1   C19 3592   0.582   1.789   4.010  0.2309 -0.0378  0.0360
   49CHL1  H19A 3593   0.656   1.828   4.083 -0.3250  2.1777 -0.4923
   49CHL1  H19B 3594   0.576   1.679   4.022  1.1541  0.0104  1.0061
   49CHL1  H19C 3595   0.616   1.800   3.905 -1.9079 -1.7989 -0.9222
   49CHL1    C1 3596   0.328   1.824   3.970  0.7687 -0.9840  0.0193
   49CHL1   H1A 3597   0.307   1.717   3.995  0.3491 -0.8588  0.2097
   49CHL1   H1B 3598   0.236   1.864   4.016  1.5913  0.6571  0.3038
   49CHL1    C2 3599   0.327   1.833   3.815 -0.2336 -0.2842 -0.0509
   49CHL1   H2A 3600   0.227   1.822   3.768 -0.8727  1.4178  0.8141
   49CHL1   H2B 3601   0.383   1.742   3.785  1.2821  0.8924 -0.8914
   49CHL1   C20 3602   0.519   1.707   4.733  0.2017 -0.0543  0.1045
   49CHL1   H20 3603   0.626   1.678   4.722  1.1797  1.7040  3.4124
   49CHL1   C21 3604   0.414   1.592   4.714 -0.1473 -0.3226 -0.3115
   49CHL1  H21A 3605   0.431   1.538   4.619 -2.5457  1.3495 -1.8020
   49CHL1  H21B 3606   0.313   1.636   4.700  0.4899  0.8133 -1.4878
   49CHL1  H21C 3607   0.416   1.522   4.800  0.8104 -1.0931 -0.9316
   49CHL1   C22 3608   0.512   1.756   4.887  0.3636  0.4663  0.4838
   49CHL1  H22A 3609   0.551   1.670   4.946 -1.4460 -1.6750 -1.2592
   49CHL1  H22B 3610   0.587   1.837   4.886 -0.0479  1.1567 -5.0170
   49CHL1   C23 3611   0.379   1.807   4.938  0.2844 -0.2318  0.3541
   49CHL1  H23A 3612   0.361   1.914   4.913  2.2159 -0.0763 -0.5961
   49CHL1  H23B 3613   0.301   1.742   4.892  1.7190 -1.2436 -0.7658
   49CHL1   C24 3614   0.359   1.786   5.094 -0.2371 -0.4699  0.7756
   49CHL1  H24A 3615   0.252   1.785   5.123 -0.3314 -1.1591  0.4319
   49CHL1  H24B 3616   0.386   1.685   5.132 -0.0104  0.0074  1.9227
   49CHL1   C25 3617   0.438   1.888   5.178 -0.1861  0.5950 -0.5893
   49CHL1   H25 3618   0.534   1.909   5.126  1.6457 -1.2277  1.8345
   49CHL1   C26 3619   0.366   2.029   5.182 -0.1342 -0.3599  0.7269
   49CHL1  H26A 3620   0.274   2.031   5.243  0.7389  1.9236  2.1165
   49CHL1  H26B 3621   0.443   2.099   5.223  0.2292 -0.4379  0.1957
   49CHL1  H26C 3622   0.355   2.060   5.076  1.3970 -1.9925  0.0347
   49CHL1   C27 3623   0.458   1.847   5.322 -0.2868  0.4374 -0.0865
   49CHL1  H27A 3624   0.370   1.859   5.388 -0.3470 -0.3869 -0.0105
   49CHL1  H27B 3625   0.501   1.745   5.322 -1.7679 -0.2483 -1.4407
   49CHL1  H27C 3626   0.535   1.917   5.361  2.3034 -0.1517 -3.6088
   50CHL1    C3 3627   5.834   4.027   3.446 -0.7980 -0.0845 -0.2793
   50CHL1    H3 3628   5.749   3.956   3.446  1.3128 -2.8267  0.7823
   50CHL1    O3 3629   5.905   4.013   3.319 -0.1499 -0.2141 -0.5087
   50CHL1   H3' 3630   5.973   4.082   3.317  2.2418 -2.4260 -2.0479
   50CHL1    C4 3631   5.788   4.170   3.472 -0.1706 -0.0635 -0.4903
   50CHL1   H4A 3632   5.882   4.229   3.475  0.3820 -0.9242  2.2886
   50CHL1   H4B 3633   5.721   4.203   3.390 -1.4743 -0.9132  0.1959
   50CHL1    C5 3634   5.712   4.193   3.604 -0.1826  0.1029  0.6903
   50CHL1    C6 3635   5.585   4.245   3.609 -0.3205 -0.0237  0.5888
   50CHL1    H6 3636   5.524   4.271   3.521 -1.6428 -0.5007  1.3500
   50CHL1    C7 3637   5.517   4.273   3.743 -0.2749 -0.4484  0.6005
   50CHL1   H7A 3638   5.496   4.382   3.743  1.0655 -0.1058 -1.9288
   50CHL1   H7B 3639   5.422   4.217   3.758 -0.1227 -1.4943 -1.7771
   50CHL1    C8 3640   5.610   4.255   3.863  0.2432  0.4910  0.0854
   50CHL1    H8 3641   5.673   4.346   3.858  0.5622  0.2209 -1.6216
   50CHL1   C14 3642   5.526   4.237   3.992  0.7481 -0.8042  0.5440
   50CHL1   H14 3643   5.477   4.138   3.979  0.9025 -1.1565  2.3863
   50CHL1   C15 3644   5.411   4.343   4.010  0.2289  0.4541 -0.1494
   50CHL1  H15A 3645   5.451   4.446   3.996  0.8855  0.3521  0.8908
   50CHL1  H15B 3646   5.319   4.327   3.950  0.3930  0.0890 -0.3031
   50CHL1   C16 3647   5.375   4.322   4.159  1.1325 -0.6803  0.0502
   50CHL1  H16A 3648   5.382   4.421   4.210  2.1553  0.5857 -2.3733
   50CHL1  H16B 3649   5.277   4.275   4.182  1.4956 -1.6297 -0.3119
   50CHL1   C17 3650   5.486   4.229   4.227  0.4299 -0.2034  0.6353
   50CHL1   H17 3651   5.439   4.128   4.220 -0.8728  0.4861 -3.9536
   50CHL1   C13 3652   5.598   4.228   4.123 -0.3449  0.0168 -0.4143
   50CHL1   C18 3653   5.684   4.359   4.134  0.2420  0.1377 -0.6713
   50CHL1  H18A 3654   5.774   4.360   4.068  0.8787 -3.2689 -0.0468
   50CHL1  H18B 3655   5.623   4.449   4.114  2.5449  2.1445  0.7847
   50CHL1  H18C 3656   5.732   4.368   4.234 -0.8660  2.1715 -0.2667
   50CHL1   C12 3657   5.686   4.105   4.110  0.5475 -0.4352  0.5936
   50CHL1  H12A 3658   5.754   4.118   4.197  0.3360  0.0212  0.6988
   50CHL1  H12B 3659   5.632   4.009   4.122 -2.2583  1.1137  1.3352
   50CHL1   C11 3660   5.771   4.097   3.982  0.5178  0.0403  0.4028
   50CHL1  H11A 3661   5.849   4.174   4.001  1.7281 -1.1949  0.5857
   50CHL1  H11B 3662   5.818   3.997   3.979 -0.3495 -0.3786 -2.6901
   50CHL1    C9 3663   5.696   4.127   3.847 -0.1750 -0.7114  0.0781
   50CHL1    H9 3664   5.627   4.045   3.819 -0.2517 -0.5621 -0.1737
   50CHL1   C10 3665   5.785   4.135   3.724  0.9386  0.2782  0.1243
   50CHL1   C19 3666   5.903   4.232   3.749  0.7274  0.2384  0.3056
   50CHL1  H19A 3667   5.976   4.240   3.665  0.4661 -0.3762  0.0127
   50CHL1  H19B 3668   5.868   4.335   3.770 -0.0624  0.1985 -0.7483
   50CHL1  H19C 3669   5.960   4.204   3.840  0.9192  1.2632  0.5104
   50CHL1    C1 3670   5.853   3.995   3.697 -0.2570 -0.1269  0.5574
   50CHL1   H1A 3671   5.924   3.993   3.783  0.8571 -0.5080 -0.3476
   50CHL1   H1B 3672   5.798   3.898   3.700  1.7847 -1.3184  2.1286
   50CHL1    C2 3673   5.926   3.986   3.560 -0.0845 -0.2853 -0.1535
   50CHL1   H2A 3674   5.971   3.885   3.556 -1.0149 -0.7690  1.2207
   50CHL1   H2B 3675   6.007   4.061   3.545  0.0823 -0.5708 -0.7240
   50CHL1   C20 3676   5.519   4.270   4.374 -0.3624  0.6077 -0.2533
   50CHL1   H20 3677   5.551   4.376   4.382 -4.2233  1.9094 -0.1028
   50CHL1   C21 3678   5.635   4.180   4.427 -0.6250  0.5052 -0.1563
   50CHL1  H21A 3679   5.640   4.176   4.537  0.1090  0.1352 -0.2006
   50CHL1  H21B 3680   5.734   4.221   4.398 -0.5903 -0.0216 -0.8134
   50CHL1  H21C 3681   5.623   4.074   4.397 -1.4676  0.6308 -0.2905
   50CHL1   C22 3682   5.388   4.267   4.459  0.0381 -0.1138  0.1901
   50CHL1  H22A 3683   5.320   4.344   4.416  1.4302  0.7168 -0.5945
   50CHL1  H22B 3684   5.343   4.166   4.444  0.6982 -1.0195  3.5770
   50CHL1   C23 3685   5.411   4.286   4.611 -0.3057 -0.1421 -0.5917
   50CHL1  H23A 3686   5.475   4.206   4.653 -1.4010 -0.1315  1.1861
   50CHL1  H23B 3687   5.462   4.382   4.636 -1.5139  0.5618 -0.7708
   50CHL1   C24 3688   5.285   4.276   4.697 -0.0520 -0.5610 -0.2678
   50CHL1  H24A 3689   5.204   4.336   4.651 -0.1176  0.2105  0.8187
   50CHL1  H24B 3690   5.252   4.170   4.705  2.3063 -1.5824 -2.6865
   50CHL1   C25 3691   5.313   4.320   4.842 -0.2680  0.3885 -0.0376
   50CHL1   H25 3692   5.401   4.261   4.877 -1.0923 -1.5689 -1.0975
   50CHL1   C26 3693   5.315   4.477   4.863 -0.6329 -0.1122 -0.3715
   50CHL1  H26A 3694   5.383   4.524   4.789 -1.6896  1.1530 -0.5585
   50CHL1  H26B 3695   5.219   4.523   4.832 -2.7474 -2.1564  2.5230
   50CHL1  H26C 3696   5.338   4.512   4.966  2.3712  0.2267 -1.0444
   50CHL1   C27 3697   5.209   4.269   4.941 -0.0969  0.3132  0.0839
   50CHL1  H27A 3698   5.115   4.298   4.890 -0.2209  1.5785  0.9701
   50CHL1  H27B 3699   5.213   4.159   4.957 -1.2522  0.5428  2.4557
   50CHL1  H27C 3700   5.232   4.324   5.035  2.1678  0.3280 -0.3998
   51CHL1    C3 3701   1.262   6.497   3.749 -0.4084 -0.0378  0.8075
   51CHL1    H3 3702   1.233   6.391   3.768 -0.0467  0.0319  1.7708
   51CHL1    O3 3703   1.238   6.521   3.615  0.1933  0.2626  0.5241
   51CHL1   H3' 3704   1.289   6.595   3.583 -1.4691  0.5538 -1.7197
   51CHL1    C4 3705   1.184   6.599   3.833  0.2593 -0.0914  0.5763
   51CHL1   H4A 3706   1.222   6.697   3.797 -2.2102 -0.3793 -3.2765
   51CHL1   H4B 3707   1.079   6.592   3.798  0.6569  0.5823 -0.7993
   51CHL1    C5 3708   1.218   6.582   3.981 -0.4374 -0.0516  0.1577
   51CHL1    C6 3709   1.123   6.541   4.072 -0.3155 -0.3016  0.6674
   51CHL1    H6 3710   1.022   6.526   4.032  0.5355  0.5842 -2.1139
   51CHL1    C7 3711   1.145   6.534   4.216  0.1023 -0.4516 -0.3996
   51CHL1   H7A 3712   1.068   6.592   4.270  0.4053 -1.3345  1.0255
   51CHL1   H7B 3713   1.132   6.430   4.253  0.2670 -0.3129  0.0482
   51CHL1    C8 3714   1.285   6.585   4.256 -0.4498 -0.7280  0.1071
   51CHL1    H8 3715   1.288   6.697   4.255  1.0870 -0.7282 -2.3972
   51CHL1   C14 3716   1.311   6.536   4.398  1.5050  0.4248  0.8468
   51CHL1   H14 3717   1.311   6.426   4.388  0.1861  0.4169  0.7744
   51CHL1   C15 3718   1.200   6.549   4.502 -0.1835  0.4171  0.1801
   51CHL1  H15A 3719   1.154   6.650   4.508 -0.2745  0.5451 -1.9067
   51CHL1  H15B 3720   1.126   6.466   4.490  0.5907 -0.2293 -0.2072
   51CHL1   C16 3721   1.275   6.524   4.634 -1.1088  0.6457  0.3231
   51CHL1  H16A 3722   1.262   6.604   4.709 -0.3396  0.8549  0.2462
   51CHL1  H16B 3723   1.236   6.432   4.681 -1.5790  1.7138  2.1295
   51CHL1   C17 3724   1.429   6.518   4.599  0.8282 -0.2770  0.7541
   51CHL1   H17 3725   1.466   6.415   4.582  0.0043 -0.1946 -2.1325
   51CHL1   C13 3726   1.438   6.578   4.461  0.3860 -1.2111  0.0278
   51CHL1   C18 3727   1.430   6.728   4.478 -0.0997 -0.2229  0.3746
   51CHL1  H18A 3728   1.430   6.774   4.377  2.5158 -1.7245 -0.4191
   51CHL1  H18B 3729   1.343   6.757   4.540  0.2512  1.6211  0.0478
   51CHL1  H18C 3730   1.523   6.764   4.527 -0.0698 -1.4500  1.2807
   51CHL1   C12 3731   1.556   6.535   4.370  0.1224 -0.2320  0.1881
   51CHL1  H12A 3732   1.658   6.569   4.396  1.2052 -1.0025 -2.7767
   51CHL1  H12B 3733   1.570   6.427   4.390 -0.3152 -0.2751  0.2791
   51CHL1   C11 3734   1.532   6.572   4.217 -0.4673  0.6285 -0.3387
   51CHL1  H11A 3735   1.547   6.681   4.204 -2.0931  0.8178 -0.8567
   51CHL1  H11B 3736   1.607   6.511   4.162 -1.0253 -0.7173  0.3384
   51CHL1    C9 3737   1.394   6.540   4.161 -0.0718 -0.1697 -0.1065
   51CHL1    H9 3738   1.393   6.429   4.155  0.3914 -0.0897 -1.9393
   51CHL1   C10 3739   1.370   6.598   4.013  0.5037 -0.4387 -0.7820
   51CHL1   C19 3740   1.402   6.753   3.998 -0.0872  0.3133  0.0898
   51CHL1  H19A 3741   1.367   6.801   3.904 -1.3554 -0.3680  0.1948
   51CHL1  H19B 3742   1.381   6.811   4.091  0.2130 -1.9110  1.6337
   51CHL1  H19C 3743   1.512   6.758   3.987 -0.0274  1.6654  1.0100
   51CHL1    C1 3744   1.458   6.509   3.921 -0.0345  0.3729 -0.2486
   51CHL1   H1A 3745   1.567   6.531   3.925  0.1023  0.4952 -2.9091
   51CHL1   H1B 3746   1.443   6.400   3.940  4.4030 -1.0610 -3.3102
   51CHL1    C2 3747   1.410   6.521   3.773  0.3491 -0.0322  1.0335
   51CHL1   H2A 3748   1.474   6.453   3.712 -1.7486  0.5784 -2.0738
   51CHL1   H2B 3749   1.439   6.624   3.745  0.0042 -0.0232  0.7089
   51CHL1   C20 3750   1.509   6.576   4.710 -0.1588 -0.0519  0.2841
   51CHL1   H20 3751   1.497   6.686   4.711 -0.6871 -0.1015 -0.2771
   51CHL1   C21 3752   1.658   6.562   4.677 -0.0645  0.3209 -0.5796
   51CHL1  H21A 3753   1.665   6.459   4.636 -4.8381 -1.1942  1.7684
   51CHL1  H21B 3754   1.717   6.571   4.771  0.0128  0.2550 -0.6217
   51CHL1  H21C 3755   1.701   6.634   4.604  0.4286  0.2124 -0.4054
   51CHL1   C22 3756   1.489   6.520   4.853  0.1520  0.2143  0.1972
   51CHL1  H22A 3757   1.545   6.578   4.928 -0.1364  0.5319  0.1707
   51CHL1  H22B 3758   1.383   6.540   4.879  0.4913  0.0908  1.7794
   51CHL1   C23 3759   1.528   6.369   4.872 -0.2991  0.4555  0.2950
   51CHL1  H23A 3760   1.479   6.304   4.795  0.4165  1.3427 -0.9535
   51CHL1  H23B 3761   1.637   6.371   4.851 -0.6095  2.3177 -1.5447
   51CHL1   C24 3762   1.507   6.318   5.017 -0.8072  0.5963  0.6737
   51CHL1  H24A 3763   1.561   6.222   5.028 -0.5993  0.7167  0.7163
   51CHL1  H24B 3764   1.551   6.392   5.088 -0.6984 -0.8354  2.1382
   51CHL1   C25 3765   1.358   6.301   5.049 -0.4097  0.0010  0.8598
   51CHL1   H25 3766   1.312   6.402   5.037  0.8546  0.7408  1.9536
   51CHL1   C26 3767   1.293   6.203   4.959  0.8314 -0.0207 -0.1575
   51CHL1  H26A 3768   1.185   6.196   4.982  0.5056  0.8661 -1.3388
   51CHL1  H26B 3769   1.286   6.243   4.856 -2.6369 -2.8342 -1.2211
   51CHL1  H26C 3770   1.340   6.102   4.960 -1.1428 -1.1545  4.3104
   51CHL1   C27 3771   1.338   6.255   5.188  0.1811  0.4720  0.7697
   51CHL1  H27A 3772   1.394   6.308   5.268  2.9577  0.0722 -0.7573
   51CHL1  H27B 3773   1.232   6.261   5.221  0.7448 -1.3180  3.2419
   51CHL1  H27C 3774   1.356   6.145   5.192 -2.3944 -0.0928 -0.8482
   52CHL1    C3 3775   0.160   3.576   3.374 -0.6853 -0.9812 -0.3483
   52CHL1    H3 3776   0.261   3.619   3.359 -0.9447 -0.6564 -1.2107
   52CHL1    O3 3777   0.129   3.521   3.251  0.7283  0.0144  0.0193
   52CHL1   H3' 3778   0.053   3.568   3.216 -0.3372 -1.3029  0.4276
   52CHL1    C4 3779   0.170   3.457   3.478 -0.2569  0.2798 -0.2379
   52CHL1   H4A 3780   0.075   3.400   3.474 -1.0532  1.2223  2.9903
   52CHL1   H4B 3781   0.261   3.396   3.456 -0.6638 -0.4976  0.1777
   52CHL1    C5 3782   0.182   3.513   3.619 -0.0733  0.1755  0.1251
   52CHL1    C6 3783   0.284   3.478   3.701 -0.4068  0.5235  0.1024
   52CHL1    H6 3784   0.357   3.403   3.666 -1.1613  0.8372 -2.3486
   52CHL1    C7 3785   0.281   3.517   3.841  0.0142 -0.1399 -0.5713
   52CHL1   H7A 3786   0.327   3.436   3.902 -1.0894  2.7290  4.6923
   52CHL1   H7B 3787   0.359   3.594   3.859  1.7805 -2.2818  1.7819
   52CHL1    C8 3788   0.144   3.553   3.895 -0.0908 -0.1229  0.7707
   52CHL1    H8 3789   0.078   3.464   3.900 -2.0619  1.3230  1.7919
   52CHL1   C14 3790   0.166   3.614   4.035  0.0434 -0.0814 -0.1903
   52CHL1   H14 3791   0.234   3.699   4.014  0.4017  0.1865  1.8912
   52CHL1   C15 3792   0.235   3.524   4.143 -0.8594 -0.2401 -0.2772
   52CHL1  H15A 3793   0.191   3.421   4.137 -1.1640 -0.2153  1.1597
   52CHL1  H15B 3794   0.344   3.519   4.125 -0.9324 -0.1326 -0.7877
   52CHL1   C16 3795   0.185   3.590   4.274 -0.0003  0.2684  0.4533
   52CHL1  H16A 3796   0.142   3.521   4.350 -1.5519  1.7497  0.9603
   52CHL1  H16B 3797   0.277   3.641   4.311 -0.3828 -0.0746  1.9391
   52CHL1   C17 3798   0.081   3.700   4.242 -0.0843  0.5035  0.2826
   52CHL1   H17 3799   0.144   3.790   4.229 -0.1187  0.2040 -2.7748
   52CHL1   C13 3800   0.039   3.664   4.101  0.2800 -0.7344 -0.5767
   52CHL1   C18 3801  -0.067   3.546   4.114 -0.1621 -0.3381  0.5189
   52CHL1  H18A 3802  -0.166   3.584   4.147  0.1039  1.8100 -0.9764
   52CHL1  H18B 3803  -0.071   3.482   4.023 -0.2975  0.3912  0.0060
   52CHL1  H18C 3804  -0.030   3.482   4.197 -1.1278 -0.4324  0.8993
   52CHL1   C12 3805  -0.009   3.781   4.011 -0.0336  0.0143  0.1997
   52CHL1  H12A 3806  -0.105   3.822   4.051  0.1317 -1.3369  2.1585
   52CHL1  H12B 3807   0.067   3.860   4.026  2.1952 -2.3935  2.6417
   52CHL1   C11 3808  -0.035   3.736   3.863  0.3284  0.1326 -0.1063
   52CHL1  H11A 3809  -0.122   3.668   3.870  1.2334 -1.3019 -2.0172
   52CHL1  H11B 3810  -0.073   3.818   3.799 -0.1324  0.2859  0.3495
   52CHL1    C9 3811   0.086   3.660   3.798 -0.1437 -0.3419 -0.2371
   52CHL1    H9 3812   0.167   3.735   3.790  0.8315 -1.5503 -2.3685
   52CHL1   C10 3813   0.070   3.605   3.651  0.2308 -1.0467  0.2431
   52CHL1   C19 3814  -0.072   3.549   3.648  0.0683  0.1682 -0.6409
   52CHL1  H19A 3815  -0.146   3.628   3.675  0.2744 -0.7517  3.2701
   52CHL1  H19B 3816  -0.101   3.501   3.552 -1.0984  0.6919 -0.5635
   52CHL1  H19C 3817  -0.078   3.468   3.723  1.2385 -0.3689 -1.0908
   52CHL1    C1 3818   0.077   3.727   3.562  0.0550 -0.1869 -0.2000
   52CHL1   H1A 3819   0.001   3.805   3.580 -1.7503 -1.9531  0.1343
   52CHL1   H1B 3820   0.176   3.777   3.563 -0.1539  0.2386 -0.6734
   52CHL1    C2 3821   0.057   3.683   3.414  0.6903  0.0637  0.0137
   52CHL1   H2A 3822   0.071   3.779   3.361 -1.5864  1.1625  1.2625
   52CHL1   H2B 3823  -0.048   3.650   3.398 -0.9276  3.3425  2.6233
   52CHL1   C20 3824  -0.023   3.730   4.348  0.4517  0.2220 -0.1061
   52CHL1   H20 3825  -0.088   3.640   4.354  1.7055 -0.9063 -2.1551
   52CHL1   C21 3826  -0.108   3.852   4.312  0.1220 -0.3202  0.2087
   52CHL1  H21A 3827  -0.044   3.935   4.276  1.8506 -1.4338  0.6369
   52CHL1  H21B 3828  -0.173   3.880   4.398  0.9928 -0.9575  1.0909
   52CHL1  H21C 3829  -0.180   3.838   4.228 -0.9470  1.5045  0.7622
   52CHL1   C22 3830   0.033   3.766   4.490  0.3732  0.5529  0.0975
   52CHL1  H22A 3831   0.123   3.704   4.512  0.3384  0.6088  0.3934
   52CHL1  H22B 3832   0.084   3.865   4.486  1.0269  0.2689  0.9448
   52CHL1   C23 3833  -0.074   3.739   4.604 -0.4533 -0.4767  0.7747
   52CHL1  H23A 3834  -0.152   3.813   4.577  1.0824  0.7450 -0.5677
   52CHL1  H23B 3835  -0.120   3.638   4.593 -2.2527  0.3915 -0.1915
   52CHL1   C24 3836  -0.030   3.778   4.749 -0.1157  0.3948  0.2470
   52CHL1  H24A 3837   0.044   3.700   4.776 -2.7319 -2.4902 -0.2277
   52CHL1  H24B 3838   0.010   3.881   4.747 -1.3280  0.8776 -1.7477
   52CHL1   C25 3839  -0.146   3.774   4.847  0.2983 -0.1984  0.1704
   52CHL1   H25 3840  -0.226   3.837   4.804 -0.6368 -0.0322  2.0598
   52CHL1   C26 3841  -0.204   3.635   4.878 -0.6940  0.1345  0.6341
   52CHL1  H26A 3842  -0.253   3.597   4.786 -2.6414  1.8303  0.8842
   52CHL1  H26B 3843  -0.114   3.576   4.905 -0.9148  0.4538  2.1698
   52CHL1  H26C 3844  -0.273   3.639   4.965 -2.2616  1.3587 -0.6037
   52CHL1   C27 3845  -0.106   3.829   4.989 -0.1672  0.5792  0.0934
   52CHL1  H27A 3846  -0.189   3.809   5.059 -2.0622  0.8830 -1.9446
   52CHL1  H27B 3847  -0.014   3.777   5.024 -0.5294 -1.0269 -1.2251
   52CHL1  H27C 3848  -0.097   3.940   4.988  0.0312  0.5846  1.3524
   53CHL1    C3 3849   1.634   2.001   3.633 -0.2680  0.2758  0.2776
   53CHL1    H3 3850   1.737   1.960   3.634 -0.0766  0.7360  1.4803
   53CHL1    O3 3851   1.609   2.031   3.498 -0.2796 -0.2044 -0.6599
   53CHL1   H3' 3852   1.612   2.127   3.493  1.3867 -0.1143  0.7624
   53CHL1    C4 3853   1.533   1.906   3.691 -0.4858  0.1179  0.1922
   53CHL1   H4A 3854   1.433   1.942   3.657 -0.9124 -0.2509  1.0302
   53CHL1   H4B 3855   1.546   1.811   3.637  3.0946  0.3104  0.4879
   53CHL1    C5 3856   1.543   1.880   3.846  0.3533 -0.2612  0.1739
   53CHL1    C6 3857   1.544   1.755   3.892  0.2675  0.7289  0.2834
   53CHL1    H6 3858   1.536   1.679   3.813 -2.3634  1.7827 -0.5773
   53CHL1    C7 3859   1.551   1.715   4.041  0.4260 -1.0889 -0.3536
   53CHL1   H7A 3860   1.487   1.626   4.059 -0.7707 -0.5038 -1.6088
   53CHL1   H7B 3861   1.657   1.685   4.061 -0.4987 -2.4705  3.2167
   53CHL1    C8 3862   1.518   1.831   4.131  0.3280  0.1526  0.1596
   53CHL1    H8 3863   1.409   1.854   4.129  0.2955 -0.0044 -1.5153
   53CHL1   C14 3864   1.573   1.805   4.271  0.6269 -0.5905 -0.3803
   53CHL1   H14 3865   1.681   1.778   4.266  0.3226 -1.9287 -0.1198
   53CHL1   C15 3866   1.507   1.684   4.337 -0.0410  0.2014 -0.5790
   53CHL1  H15A 3867   1.397   1.684   4.319 -0.3934  0.1008  1.4042
   53CHL1  H15B 3868   1.548   1.587   4.301 -2.2368 -1.4820  1.1585
   53CHL1   C16 3869   1.549   1.710   4.482 -0.4704 -0.0029 -0.1189
   53CHL1  H16A 3870   1.459   1.702   4.546  0.7159 -0.4825  1.5481
   53CHL1  H16B 3871   1.621   1.636   4.522  1.5937  2.9089  2.0402
   53CHL1   C17 3872   1.609   1.850   4.493 -0.4047 -0.4690 -0.6929
   53CHL1   H17 3873   1.720   1.843   4.491 -0.2887  0.7489  0.2690
   53CHL1   C13 3874   1.565   1.926   4.369  0.2961  0.1495  0.5831
   53CHL1   C18 3875   1.422   1.985   4.390  0.3453  0.0642  0.6705
   53CHL1  H18A 3876   1.431   2.072   4.458  0.0397 -1.1274  2.3217
   53CHL1  H18B 3877   1.380   2.022   4.294  0.2188 -0.1536  0.6407
   53CHL1  H18C 3878   1.351   1.910   4.432 -2.7840  1.0043 -2.4948
   53CHL1   C12 3879   1.656   2.040   4.316 -0.5865  0.9053 -0.3623
   53CHL1  H12A 3880   1.664   2.123   4.390  0.6947 -0.0790  0.6436
   53CHL1  H12B 3881   1.760   2.003   4.310 -0.9085 -0.6084  1.9886
   53CHL1   C11 3882   1.604   2.070   4.180 -0.3397 -0.0511 -0.1863
   53CHL1  H11A 3883   1.505   2.120   4.193 -0.9273 -1.0248 -0.7853
   53CHL1  H11B 3884   1.666   2.144   4.127  1.3743 -1.3688 -0.0893
   53CHL1    C9 3885   1.595   1.953   4.080 -0.1770  0.3789  0.4309
   53CHL1    H9 3886   1.698   1.912   4.074  1.6294  4.3985  0.7231
   53CHL1   C10 3887   1.554   2.002   3.933  0.1551  0.3520 -0.2010
   53CHL1   C19 3888   1.404   2.066   3.943 -0.1340 -0.1620 -0.0658
   53CHL1  H19A 3889   1.371   2.089   3.839  0.8200  1.8553  0.0379
   53CHL1  H19B 3890   1.328   1.993   3.978  0.4445 -1.6217 -1.7363
   53CHL1  H19C 3891   1.416   2.160   4.001 -1.9486  0.0058  0.1071
   53CHL1    C1 3892   1.653   2.108   3.868 -0.1605  0.8373  0.5065
   53CHL1   H1A 3893   1.638   2.206   3.918 -0.4484  0.2904  1.5144
   53CHL1   H1B 3894   1.755   2.066   3.881  0.0717  0.2959 -2.3112
   53CHL1    C2 3895   1.640   2.132   3.715  0.1019 -0.2834 -0.4043
   53CHL1   H2A 3896   1.713   2.211   3.688  0.3123 -0.0765  0.7051
   53CHL1   H2B 3897   1.541   2.180   3.704 -0.1781 -0.0960  2.3416
   53CHL1   C20 3898   1.590   1.902   4.639  0.3735  0.1446 -0.3139
   53CHL1   H20 3899   1.484   1.917   4.667 -0.3319 -1.8388 -1.6399
   53CHL1   C21 3900   1.677   2.031   4.660  0.2007  0.1240  0.0193
   53CHL1  H21A 3901   1.786   2.014   4.648  0.6939 -0.7396  4.0804
   53CHL1  H21B 3902   1.676   2.064   4.766  2.1698  0.8936 -0.1698
   53CHL1  H21C 3903   1.643   2.114   4.594  0.2673  0.9801  1.0173
   53CHL1   C22 3904   1.621   1.792   4.750  0.4094 -0.8360  0.1989
   53CHL1  H22A 3905   1.546   1.711   4.733  0.6212 -0.9249 -0.3192
   53CHL1  H22B 3906   1.727   1.767   4.728  1.5770  3.1093  0.5599
   53CHL1   C23 3907   1.591   1.847   4.896 -0.9453  0.3472  0.1507
   53CHL1  H23A 3908   1.669   1.925   4.912  0.0521 -0.5126 -0.4373
   53CHL1  H23B 3909   1.489   1.891   4.901 -1.7493 -1.5542  2.6614
   53CHL1   C24 3910   1.611   1.742   5.010  0.1702  1.0620 -0.0561
   53CHL1  H24A 3911   1.549   1.653   4.985  3.0808 -0.7461 -1.3547
   53CHL1  H24B 3912   1.713   1.699   5.002  0.0266  0.6776  0.1356
   53CHL1   C25 3913   1.571   1.778   5.157 -0.2888 -0.0124  0.0571
   53CHL1   H25 3914   1.568   1.685   5.216  0.1884  0.1988  0.4196
   53CHL1   C26 3915   1.681   1.868   5.210 -0.3513 -0.0869 -0.2387
   53CHL1  H26A 3916   1.786   1.838   5.187 -0.4266 -0.3865 -0.2039
   53CHL1  H26B 3917   1.663   1.972   5.175 -2.0101 -0.1165  0.4228
   53CHL1  H26C 3918   1.684   1.880   5.321  0.6746 -2.6718  0.0800
   53CHL1   C27 3919   1.437   1.850   5.163 -0.4386  0.4054  0.0584
   53CHL1  H27A 3920   1.351   1.796   5.117 -2.1532  1.5136  1.8117
   53CHL1  H27B 3921   1.406   1.888   5.262 -0.1856  1.8280 -0.3805
   53CHL1  H27C 3922   1.464   1.946   5.114  0.1822  0.4593  0.4925
   54CHL1    C3 3923   0.698   1.119   3.611 -0.1494  0.1581 -0.1773
   54CHL1    H3 3924   0.755   1.025   3.623 -1.0843 -0.2634  1.3104
   54CHL1    O3 3925   0.689   1.141   3.474 -0.1170 -0.3037 -0.6427
   54CHL1   H3' 3926   0.688   1.051   3.441  1.2434  0.0163 -1.6609
   54CHL1    C4 3927   0.562   1.092   3.685  0.0970  0.2923 -0.7801
   54CHL1   H4A 3928   0.501   1.181   3.658  1.0155  1.8199  1.8282
   54CHL1   H4B 3929   0.522   0.997   3.644 -0.3643 -0.6768  1.7259
   54CHL1    C5 3930   0.586   1.099   3.838 -0.4901 -0.4781 -0.5697
   54CHL1    C6 3931   0.543   0.999   3.915 -0.2768 -0.4269 -0.3349
   54CHL1    H6 3932   0.490   0.914   3.869 -1.0300 -0.3080  0.2979
   54CHL1    C7 3933   0.549   0.994   4.068  0.6708 -0.1802 -0.1474
   54CHL1   H7A 3934   0.448   0.960   4.100  0.4189 -1.4409 -2.0922
   54CHL1   H7B 3935   0.619   0.914   4.102  2.1731  0.5938 -1.2980
   54CHL1    C8 3936   0.596   1.129   4.122  0.6558  0.1480 -0.3567
   54CHL1    H8 3937   0.507   1.195   4.117 -0.2989 -1.1310 -0.9996
   54CHL1   C14 3938   0.642   1.111   4.266 -0.2591  0.0734 -0.3629
   54CHL1   H14 3939   0.728   1.044   4.245  0.2135  0.6840 -0.3903
   54CHL1   C15 3940   0.546   1.031   4.367  0.0270  0.3284  0.1904
   54CHL1  H15A 3941   0.440   1.064   4.354  0.1455  0.5076 -0.3720
   54CHL1  H15B 3942   0.554   0.922   4.346 -0.7814 -0.0914  1.8519
   54CHL1   C16 3943   0.607   1.059   4.504 -0.3849 -0.3250 -0.6000
   54CHL1  H16A 3944   0.536   1.109   4.573  0.1534 -0.1636 -0.1484
   54CHL1  H16B 3945   0.649   0.966   4.549  2.3381  0.2696 -1.7137
   54CHL1   C17 3946   0.722   1.172   4.480  0.2937  0.3431 -0.1663
   54CHL1   H17 3947   0.820   1.121   4.467 -0.0806 -0.3608 -0.2425
   54CHL1   C13 3948   0.684   1.236   4.343 -0.4474 -0.1133  0.3958
   54CHL1   C18 3949   0.559   1.323   4.355 -1.0529 -0.8123 -0.7076
   54CHL1  H18A 3950   0.513   1.347   4.256  0.3761 -2.2284 -1.7701
   54CHL1  H18B 3951   0.482   1.274   4.419  0.4787 -3.1387 -0.4978
   54CHL1  H18C 3952   0.588   1.413   4.412  2.1824 -2.4509  0.4816
   54CHL1   C12 3953   0.804   1.295   4.265 -0.2493 -0.1268 -0.3411
   54CHL1  H12A 3954   0.834   1.393   4.308  1.1716 -0.9063  0.5102
   54CHL1  H12B 3955   0.886   1.220   4.270 -2.2395 -2.3770  0.3697
   54CHL1   C11 3956   0.763   1.319   4.120  0.0534  0.2653 -0.2035
   54CHL1  H11A 3957   0.684   1.397   4.126  0.4441  0.6031  0.6549
   54CHL1  H11B 3958   0.846   1.364   4.062 -0.9581  1.9636 -0.3995
   54CHL1    C9 3959   0.710   1.193   4.047 -0.7020  0.7254 -0.0112
   54CHL1    H9 3960   0.785   1.111   4.040 -1.2327  0.1938  0.4656
   54CHL1   C10 3961   0.672   1.220   3.891  0.2505 -0.4596  0.2627
   54CHL1   C19 3962   0.588   1.350   3.886  0.5356 -0.4081 -0.0702
   54CHL1  H19A 3963   0.563   1.373   3.780 -0.4450 -0.2181  0.1909
   54CHL1  H19B 3964   0.485   1.328   3.923  0.2007 -2.6397 -2.0700
   54CHL1  H19C 3965   0.647   1.435   3.926  1.5199 -1.4056  0.6683
   54CHL1    C1 3966   0.803   1.242   3.811  0.9926 -0.0133 -0.0895
   54CHL1   H1A 3967   0.855   1.332   3.849  1.0942  0.4357 -1.2564
   54CHL1   H1B 3968   0.877   1.160   3.826  1.4097  0.7596  2.6689
   54CHL1    C2 3969   0.766   1.246   3.662 -0.3330  0.3656 -0.1371
   54CHL1   H2A 3970   0.865   1.257   3.611 -0.3437 -1.6133 -0.6482
   54CHL1   H2B 3971   0.704   1.337   3.652 -2.5594 -0.9022  1.5002
   54CHL1   C20 3972   0.744   1.260   4.608 -0.0671 -0.0600  0.3133
   54CHL1   H20 3973   0.643   1.298   4.636  0.0537  0.4800  0.0274
   54CHL1   C21 3974   0.855   1.375   4.594 -0.4551  0.0986  1.0703
   54CHL1  H21A 3975   0.942   1.343   4.533 -1.4770 -0.7159 -0.0155
   54CHL1  H21B 3976   0.893   1.407   4.693 -1.5824  1.5540  1.0611
   54CHL1  H21C 3977   0.809   1.467   4.553 -0.0071  0.4334  1.3184
   54CHL1   C22 3978   0.777   1.181   4.738 -0.0003 -0.1453  0.0934
   54CHL1  H22A 3979   0.711   1.092   4.729 -0.5690  0.3461 -0.7315
   54CHL1  H22B 3980   0.884   1.154   4.731  0.6736  2.3869 -0.5225
   54CHL1   C23 3981   0.724   1.253   4.863 -0.4827 -0.2883 -0.2571
   54CHL1  H23A 3982   0.755   1.359   4.879 -2.7833  0.5940 -1.1629
   54CHL1  H23B 3983   0.614   1.252   4.846 -0.4860  0.3459 -0.3030
   54CHL1   C24 3984   0.747   1.177   5.004 -0.4944  1.2744 -0.1639
   54CHL1  H24A 3985   0.661   1.201   5.071  0.8608  1.6298  1.5006
   54CHL1  H24B 3986   0.750   1.067   4.990  0.0682  1.1529  0.8496
   54CHL1   C25 3987   0.887   1.208   5.073  0.4153  0.4796 -0.2231
   54CHL1   H25 3988   0.965   1.220   4.994  0.0315  2.4597 -0.3637
   54CHL1   C26 3989   0.880   1.347   5.133  0.9646  0.6804 -0.2514
   54CHL1  H26A 3990   0.792   1.347   5.200  0.6856  0.2778 -0.6177
   54CHL1  H26B 3991   0.969   1.364   5.198 -0.1521  0.9914  1.2406
   54CHL1  H26C 3992   0.880   1.425   5.055  2.4575  0.1189 -0.8621
   54CHL1   C27 3993   0.919   1.104   5.183  0.9011  1.1558  0.6912
   54CHL1  H27A 3994   0.910   1.004   5.134  3.2254  1.0023  0.4624
   54CHL1  H27B 3995   1.025   1.114   5.216  1.1918  2.2719 -0.5034
   54CHL1  H27C 3996   0.841   1.112   5.261  1.0993  2.0499  0.8034
   55CHL1    C3 3997   5.689   3.063   3.638 -0.0961 -0.2662  1.0629
   55CHL1    H3 3998   5.639   3.162   3.649 -0.5580 -0.2305 -0.9024
   55CHL1    O3 3999   5.703   3.024   3.501  0.1026 -0.1881 -0.3708
   55CHL1   H3' 4000   5.694   3.105   3.451  0.1785  1.0788  1.5400
   55CHL1    C4 4001   5.829   3.059   3.698 -0.1803 -0.1527  0.8743
   55CHL1   H4A 4002   5.881   2.967   3.664  0.6785 -1.0023  4.1318
   55CHL1   H4B 4003   5.887   3.143   3.653 -1.5762  0.9617  1.0901
   55CHL1    C5 4004   5.835   3.075   3.848 -0.4474  0.1653 -0.3050
   55CHL1    C6 4005   5.901   3.177   3.913 -0.5992 -0.0515  0.7962
   55CHL1    H6 4006   5.955   3.251   3.853 -0.1954 -1.5488 -0.7791
   55CHL1    C7 4007   5.914   3.192   4.065  0.1463 -0.5570  0.6587
   55CHL1   H7A 4008   6.020   3.211   4.091  1.0451 -1.8810 -1.6957
   55CHL1   H7B 4009   5.855   3.282   4.092  1.5991  0.6966 -0.2042
   55CHL1    C8 4010   5.856   3.066   4.144  0.4692 -0.0485 -0.0188
   55CHL1    H8 4011   5.942   2.997   4.144  0.8806  0.4561  0.1015
   55CHL1   C14 4012   5.811   3.110   4.287 -0.0391 -0.6170  0.5049
   55CHL1   H14 4013   5.731   3.187   4.276 -0.3887 -1.3273 -3.1011
   55CHL1   C15 4014   5.925   3.181   4.367 -0.0466 -0.2391 -0.0153
   55CHL1  H15A 4015   6.011   3.112   4.364 -0.9463 -1.3934 -2.8524
   55CHL1  H15B 4016   5.946   3.285   4.332 -2.2064  0.0892 -0.4904
   55CHL1   C16 4017   5.868   3.169   4.513 -0.1270 -0.2228  0.2356
   55CHL1  H16A 4018   5.949   3.128   4.577  1.4759  0.3695 -1.3467
   55CHL1  H16B 4019   5.838   3.272   4.543  0.3083 -0.2957  0.9430
   55CHL1   C17 4020   5.744   3.079   4.512 -0.4792 -0.5094  0.2738
   55CHL1   H17 4021   5.667   3.156   4.492 -0.0007 -0.0704  0.0975
   55CHL1   C13 4022   5.755   2.999   4.376  0.0121  0.2940 -1.4101
   55CHL1   C18 4023   5.855   2.885   4.388 -0.6511  0.0427  0.0816
   55CHL1  H18A 4024   5.962   2.900   4.413  0.1115 -1.5489 -1.9825
   55CHL1  H18B 4025   5.803   2.811   4.453 -0.8642  1.5274  1.6971
   55CHL1  H18C 4026   5.867   2.838   4.288  2.2886  0.3998  0.1908
   55CHL1   C12 4027   5.624   2.950   4.306 -0.2328  0.4384  0.5542
   55CHL1  H12A 4028   5.584   2.863   4.361 -1.7804  0.8779  0.1611
   55CHL1  H12B 4029   5.544   3.027   4.304  0.9047  1.7088 -2.0868
   55CHL1   C11 4030   5.653   2.903   4.161  0.3604  1.2512  0.0403
   55CHL1  H11A 4031   5.717   2.812   4.157  0.9908  1.6134  1.3277
   55CHL1  H11B 4032   5.553   2.883   4.116 -0.0403  2.9825  0.0828
   55CHL1    C9 4033   5.730   3.015   4.075  0.2769  0.0632 -0.2979
   55CHL1    H9 4034   5.658   3.100   4.076  0.3318  0.1128  0.4384
   55CHL1   C10 4035   5.752   2.968   3.921  0.1559  0.0289  0.1620
   55CHL1   C19 4036   5.809   2.824   3.923 -0.1697 -0.1053 -0.2795
   55CHL1  H19A 4037   5.728   2.749   3.921  0.1249 -0.4966  1.3285
   55CHL1  H19B 4038   5.866   2.815   3.828  3.7616  0.3114  1.7857
   55CHL1  H19C 4039   5.874   2.802   4.010 -0.4565  2.3225  0.6451
   55CHL1    C1 4040   5.614   2.960   3.860  0.4446 -1.4099  0.3030
   55CHL1   H1A 4041   5.542   2.883   3.894 -2.4344 -1.2028 -4.4960
   55CHL1   H1B 4042   5.574   3.059   3.892 -2.3151 -2.5990  0.8384
   55CHL1    C2 4043   5.610   2.950   3.709  0.5191  0.0855 -0.8183
   55CHL1   H2A 4044   5.508   2.956   3.665  0.6412 -1.0144 -1.2883
   55CHL1   H2B 4045   5.646   2.848   3.680  1.7850  0.4481 -0.5786
   55CHL1   C20 4046   5.708   3.012   4.635  0.4769 -0.1406  0.8226
   55CHL1   H20 4047   5.786   2.936   4.659 -1.0547 -1.0706  3.2857
   55CHL1   C21 4048   5.570   2.938   4.622  0.2954 -0.4411 -0.2499
   55CHL1  H21A 4049   5.582   2.840   4.573  2.0059 -0.5979  0.3890
   55CHL1  H21B 4050   5.494   3.010   4.585 -0.1442 -0.1321  1.1687
   55CHL1  H21C 4051   5.532   2.915   4.724  0.5439  1.0509  0.2099
   55CHL1   C22 4052   5.713   3.105   4.763  0.0539 -0.6134  0.1647
   55CHL1  H22A 4053   5.708   3.213   4.739 -1.5913 -0.5192  0.8146
   55CHL1  H22B 4054   5.622   3.081   4.821 -1.0634  3.2334  0.2241
   55CHL1   C23 4055   5.834   3.080   4.851  0.4479  0.2669  0.4229
   55CHL1  H23A 4056   5.834   2.975   4.888  3.0956  0.2608  0.5895
   55CHL1  H23B 4057   5.927   3.096   4.793  2.2824 -0.5527  2.9996
   55CHL1   C24 4058   5.829   3.186   4.963 -0.3261  0.9369 -0.6696
   55CHL1  H24A 4059   5.840   3.293   4.935  1.5583  1.1531  0.7332
   55CHL1  H24B 4060   5.743   3.179   5.033  0.4797  2.4356  0.5252
   55CHL1   C25 4061   5.940   3.161   5.072  0.3938 -0.6815  0.1232
   55CHL1   H25 4062   6.034   3.158   5.013 -1.0543  0.3082 -2.4156
   55CHL1   C26 4063   5.939   3.285   5.170 -0.3970  0.8096  0.0200
   55CHL1  H26A 4064   5.990   3.273   5.268  0.9505 -1.4676 -0.8616
   55CHL1  H26B 4065   5.967   3.382   5.125 -0.8057  0.3991 -1.1639
   55CHL1  H26C 4066   5.831   3.300   5.190 -0.3849 -0.3547  1.1110
   55CHL1   C27 4067   5.917   3.033   5.153  0.6303  0.1570  0.0789
   55CHL1  H27A 4068   5.887   2.945   5.091  0.1606 -0.6563  1.4245
   55CHL1  H27B 4069   6.006   3.002   5.210  0.4232  0.0046  0.3197
   55CHL1  H27C 4070   5.829   3.047   5.220 -0.6334 -0.7739 -1.3060
   56CHL1    C3 4071   5.756   1.954   4.011 -0.0872 -0.6406  0.3678
   56CHL1    H3 4072   5.866   1.960   3.997 -0.2798  0.8781 -0.6580
   56CHL1    O3 4073   5.701   1.942   3.883  0.2084  0.3188  0.0378
   56CHL1   H3' 4074   5.770   1.955   3.817  0.1672  0.4406  0.0189
   56CHL1    C4 4075   5.712   1.829   4.091 -0.3992  0.4686  0.1708
   56CHL1   H4A 4076   5.602   1.812   4.080 -0.9552  1.6114  3.0422
   56CHL1   H4B 4077   5.755   1.737   4.047  0.1908  0.0802  1.5138
   56CHL1    C5 4078   5.750   1.846   4.233 -0.4907 -0.5001  1.2285
   56CHL1    C6 4079   5.839   1.756   4.295 -0.0200 -0.3328  0.0968
   56CHL1    H6 4080   5.880   1.674   4.234  2.8490  0.8045  0.3544
   56CHL1    C7 4081   5.878   1.771   4.441 -0.2855 -0.2985 -0.2287
   56CHL1   H7A 4082   5.879   1.676   4.499  1.9385 -0.9361 -1.1884
   56CHL1   H7B 4083   5.975   1.822   4.461 -0.5673  0.0169  0.3463
   56CHL1    C8 4084   5.769   1.858   4.519  0.2044 -0.6357  0.0358
   56CHL1    H8 4085   5.678   1.794   4.524  0.7171 -1.3663  0.2196
   56CHL1   C14 4086   5.815   1.892   4.662 -0.3175  0.2196 -0.2364
   56CHL1   H14 4087   5.904   1.958   4.656 -0.1672 -0.0782 -1.5868
   56CHL1   C15 4088   5.862   1.777   4.750 -0.1416  0.1663  0.1328
   56CHL1  H15A 4089   5.781   1.701   4.744 -1.5383  1.5163  0.9654
   56CHL1  H15B 4090   5.959   1.734   4.715  0.3029  1.8222 -0.7636
   56CHL1   C16 4091   5.878   1.836   4.893  1.4040  0.3960 -0.0533
   56CHL1  H16A 4092   5.831   1.764   4.963 -2.0971  2.8898  0.4517
   56CHL1  H16B 4093   5.985   1.860   4.912  1.6588 -0.6568 -0.0995
   56CHL1   C17 4094   5.784   1.965   4.892 -0.8038 -0.0040  0.7393
   56CHL1   H17 4095   5.845   2.057   4.899 -1.4021  0.4297  0.4026
   56CHL1   C13 4096   5.711   1.966   4.751 -0.0929  0.1143  0.5522
   56CHL1   C18 4097   5.577   1.880   4.766  0.4974 -0.3363  1.1787
   56CHL1  H18A 4098   5.582   1.791   4.832 -0.2698 -1.2046  0.0941
   56CHL1  H18B 4099   5.501   1.953   4.800 -0.5801  0.7864 -3.0893
   56CHL1  H18C 4100   5.537   1.840   4.671  1.3144 -0.3598  0.8287
   56CHL1   C12 4101   5.694   2.105   4.680  0.4653  0.4593 -0.2861
   56CHL1  H12A 4102   5.614   2.159   4.737 -0.0973  1.2888 -1.8077
   56CHL1  H12B 4103   5.787   2.166   4.685 -0.7943  2.5597 -1.0962
   56CHL1   C11 4104   5.643   2.082   4.538  0.0292 -0.6807  0.0058
   56CHL1  H11A 4105   5.542   2.037   4.543 -0.2885 -0.0325 -0.4392
   56CHL1  H11B 4106   5.626   2.178   4.486  0.5929 -0.9635 -0.7264
   56CHL1    C9 4107   5.739   1.989   4.451  0.2302 -0.3731 -0.2794
   56CHL1    H9 4108   5.839   2.036   4.459 -0.7590  1.7779  0.1969
   56CHL1   C10 4109   5.688   1.979   4.301 -1.0958 -0.0285  0.5473
   56CHL1   C19 4110   5.534   1.984   4.291  0.0576 -0.1360  0.9297
   56CHL1  H19A 4111   5.486   1.914   4.362  0.2823  0.6532  1.8845
   56CHL1  H19B 4112   5.493   2.088   4.298 -1.2421 -0.3895 -1.5808
   56CHL1  H19C 4113   5.501   1.948   4.191  0.2287  1.6355  0.1917
   56CHL1    C1 4114   5.738   2.097   4.224  0.2968  0.2556  0.7450
   56CHL1   H1A 4115   5.682   2.188   4.256 -0.4152  0.8205 -1.8601
   56CHL1   H1B 4116   5.849   2.098   4.228  0.3879 -0.0475 -0.8936
   56CHL1    C2 4117   5.711   2.087   4.070  0.6189 -0.4814  0.2860
   56CHL1   H2A 4118   5.765   2.170   4.019 -1.9140  2.5418  2.1684
   56CHL1   H2B 4119   5.603   2.099   4.048  0.5654  0.4270  0.9696
   56CHL1   C20 4120   5.706   1.980   5.020  0.4970  0.4488  1.2623
   56CHL1   H20 4121   5.630   1.899   5.021  0.1711  0.7181 -0.1572
   56CHL1   C21 4122   5.638   2.118   5.021 -0.3667 -0.0552 -0.2744
   56CHL1  H21A 4123   5.713   2.200   5.020 -1.8427  1.3773  0.6379
   56CHL1  H21B 4124   5.579   2.137   5.113  0.2386  0.4112  0.0287
   56CHL1  H21C 4125   5.580   2.126   4.927  0.9820  1.0114 -1.0543
   56CHL1   C22 4126   5.790   1.957   5.153  0.9790  0.4530  0.8870
   56CHL1  H22A 4127   5.842   1.861   5.136 -1.3022 -0.5335 -1.1590
   56CHL1  H22B 4128   5.863   2.040   5.158  0.5907  0.7885  1.1057
   56CHL1   C23 4129   5.717   1.943   5.293  0.1439 -0.2497  0.1769
   56CHL1  H23A 4130   5.648   2.029   5.305  1.4612  0.5718  2.5214
   56CHL1  H23B 4131   5.661   1.848   5.289  1.7009 -1.4440  3.5100
   56CHL1   C24 4132   5.813   1.935   5.413  0.2431 -0.0142 -0.8038
   56CHL1  H24A 4133   5.893   1.863   5.388  0.0014  0.4674 -3.2901
   56CHL1  H24B 4134   5.872   2.028   5.428  0.4871  0.0869 -2.2258
   56CHL1   C25 4135   5.752   1.885   5.548  0.1748  0.4232  0.2696
   56CHL1   H25 4136   5.731   1.778   5.526 -0.9110  1.1165 -2.4894
   56CHL1   C26 4137   5.858   1.901   5.659  0.2246  0.7465 -0.1857
   56CHL1  H26A 4138   5.952   1.855   5.620 -1.0482 -2.1578 -0.0921
   56CHL1  H26B 4139   5.876   2.005   5.692  2.1931 -0.1724  1.9381
   56CHL1  H26C 4140   5.818   1.846   5.747  1.8757 -0.8802 -0.3822
   56CHL1   C27 4141   5.627   1.964   5.578 -0.6764  0.8355  0.1594
   56CHL1  H27A 4142   5.599   1.927   5.679  1.2328 -0.3257  0.3176
   56CHL1  H27B 4143   5.645   2.073   5.572 -1.0588  0.8262 -2.8620
   56CHL1  H27C 4144   5.555   1.929   5.501  0.5702 -0.6771 -0.3861
   57SAPC     N 4145   1.116   3.289   7.177 -0.0975 -0.3672 -0.2950
   57SAPC   C12 4146   1.011   3.391   7.221 -1.4391  0.0729  1.0804
   57SAPC  H12A 4147   0.920   3.335   7.238 -0.7690 -1.5539 -0.3638
   57SAPC  H12B 4148   0.989   3.462   7.142 -0.5361 -0.6114  0.1874
   57SAPC   C13 4149   1.076   3.259   7.033 -0.9147 -0.1086 -0.4341
   57SAPC  H13A 4150   1.072   3.352   6.977 -3.0482  1.9295  2.7397
   57SAPC  H13B 4151   1.149   3.190   6.994  0.8860  0.2931  2.0110
   57SAPC  H13C 4152   0.977   3.217   7.038 -1.4340  1.0704 -0.3143
   57SAPC   C14 4153   1.251   3.343   7.184 -0.2775  0.1261 -0.1952
   57SAPC  H14A 4154   1.317   3.286   7.119 -0.5204  1.2232 -1.4470
   57SAPC  H14B 4155   1.258   3.436   7.129 -1.7808 -0.3910 -1.3460
   57SAPC  H14C 4156   1.289   3.360   7.283 -0.1474  1.1270 -0.4092
   57SAPC   C15 4157   1.095   3.167   7.261  0.7064 -0.6435  0.2493
   57SAPC  H15A 4158   1.010   3.110   7.227 -0.1227  1.3883 -1.2755
   57SAPC  H15B 4159   1.170   3.092   7.244  1.4620  0.5244 -1.8596
   57SAPC  H15C 4160   1.086   3.176   7.368 -0.7101 -0.7498  0.1593
   57SAPC   C11 4161   1.040   3.472   7.352 -0.3407 -1.2903  0.0208
   57SAPC  H11A 4162   1.124   3.543   7.365 -1.3923 -0.4979  3.7816
   57SAPC  H11B 4163   1.070   3.407   7.437  0.9430 -0.1252  0.4949
   57SAPC     P 4164   0.923   3.702   7.393 -0.1808 -0.0893 -0.0253
   57SAPC   O13 4165   0.886   3.740   7.533 -0.1645 -0.4759 -0.1563
   57SAPC   O14 4166   1.050   3.755   7.335 -0.4606 -0.5529 -0.2790
   57SAPC   O12 4167   0.922   3.537   7.386 -0.1808  0.2443 -0.3021
   57SAPC   O11 4168   0.798   3.741   7.304  0.0904 -0.1319  0.6844
   57SAPC    C1 4169   0.797   3.728   7.159 -0.4414  0.1571  0.3656
   57SAPC    HA 4170   0.884   3.675   7.115  1.1574  1.0544  2.2433
   57SAPC    HB 4171   0.709   3.671   7.124  0.8510 -0.0731 -2.8622
   57SAPC    C2 4172   0.786   3.858   7.083  0.4523 -0.2627 -0.0579
   57SAPC    HS 4173   0.800   3.849   6.973 -0.7949 -0.4920 -0.2168
   57SAPC   O21 4174   0.882   3.962   7.123 -0.0760 -0.2365 -0.1081
   57SAPC   C21 4175   1.010   3.934   7.086  0.3817  0.0594  0.7057
   57SAPC   O22 4176   1.041   3.830   7.026 -0.3661  0.2353 -0.0173
   57SAPC   C22 4177   1.104   4.050   7.137  0.7512  0.1243 -0.3476
   57SAPC   H2R 4178   1.053   4.141   7.100  0.6974  0.6691  1.0203
   57SAPC   H2S 4179   1.088   4.044   7.247 -0.4254  3.4765 -0.2466
   57SAPC    C3 4180   0.643   3.916   7.106 -0.4369 -0.1609  0.6109
   57SAPC    HX 4181   0.626   3.936   7.214  0.5043 -1.0700  0.9490
   57SAPC    HY 4182   0.568   3.837   7.083  0.8186 -1.1707 -0.1885
   57SAPC   O31 4183   0.604   4.039   7.032 -0.5262  0.1307 -0.2335
   57SAPC   C31 4184   0.575   4.019   6.907  0.2896  0.1445  0.2472
   57SAPC   O32 4185   0.598   3.919   6.839 -0.2283  0.2062  0.1321
   57SAPC   C32 4186   0.507   4.145   6.852  0.0865  0.6779  0.5845
   57SAPC   H2X 4187   0.556   4.238   6.887 -0.4404  0.8160  0.9700
   57SAPC   H2Y 4188   0.411   4.142   6.908  1.3029  1.0691  2.7922
   57SAPC   C23 4189   1.251   4.028   7.098 -0.8367 -0.2777  0.5652
   57SAPC   H3R 4190   1.259   4.043   6.989  1.9820 -0.2774  0.7082
   57SAPC   H3S 4191   1.276   3.921   7.114  2.3523  0.3579  0.4240
   57SAPC   C24 4192   1.350   4.118   7.172  0.1427 -0.0075  0.2807
   57SAPC   H4R 4193   1.338   4.103   7.281  1.3399 -0.9684  0.3001
   57SAPC   H4S 4194   1.308   4.218   7.145  0.6899  0.5453  1.4251
   57SAPC   C25 4195   1.494   4.116   7.136 -1.1070 -0.5960  0.6456
   57SAPC   H5R 4196   1.565   4.056   7.195  2.0538  1.7741 -0.4593
   57SAPC   C26 4197   1.550   4.189   7.044  0.2419 -0.2122 -0.2931
   57SAPC   H6R 4198   1.657   4.175   7.026  0.9429 -1.6322  3.8526
   57SAPC   C27 4199   1.481   4.279   6.946 -0.1026  0.2227 -0.3563
   57SAPC   H7R 4200   1.371   4.261   6.942 -0.1561  0.2863  0.5528
   57SAPC   H7S 4201   1.505   4.243   6.844  1.5074  1.4533 -0.4442
   57SAPC   C28 4202   1.514   4.421   6.965  0.0645  0.3911  1.3470
   57SAPC   H8R 4203   1.525   4.466   7.065 -0.4231  1.5654  0.8864
   57SAPC   C29 4204   1.507   4.508   6.865 -0.0087  0.1473  0.0709
   57SAPC   H9R 4205   1.535   4.612   6.886  2.1580 -0.5413  0.8259
   57SAPC  C210 4206   1.476   4.477   6.719 -0.1229 -0.2465  0.4360
   57SAPC  H10R 4207   1.446   4.565   6.658 -0.7308 -0.9621 -0.3205
   57SAPC  H10S 4208   1.381   4.421   6.730  1.0060 -1.9546  2.2034
   57SAPC  C211 4209   1.569   4.383   6.648 -0.1343  0.7159  0.4536
   57SAPC  H11R 4210   1.644   4.334   6.712  1.9636  2.8298 -0.2415
   57SAPC  C212 4211   1.565   4.343   6.519  0.2269 -0.2960 -0.9912
   57SAPC  H12R 4212   1.649   4.284   6.479  1.0996  0.9609 -1.0842
   57SAPC  C213 4213   1.465   4.390   6.415  0.0873 -0.5777  0.0114
   57SAPC  H13R 4214   1.510   4.453   6.336 -0.9664  0.0859 -0.0696
   57SAPC  H13S 4215   1.380   4.446   6.458  2.1122  1.6143  1.4081
   57SAPC  C214 4216   1.405   4.263   6.357 -0.4412 -0.5077  0.1932
   57SAPC  H14R 4217   1.388   4.190   6.437  1.4446 -0.1911  0.9295
   57SAPC  C215 4218   1.380   4.220   6.236  0.7348 -0.2252  0.4079
   57SAPC  H15R 4219   1.343   4.119   6.217  0.5543  0.0529 -0.8218
   57SAPC  C216 4220   1.398   4.302   6.105 -0.5147 -0.1433 -0.1785
   57SAPC  H16R 4221   1.460   4.387   6.139 -2.7051  0.8872  1.5153
   57SAPC  H16S 4222   1.303   4.348   6.071  0.9727  4.1031  0.7986
   57SAPC  C217 4223   1.465   4.231   5.979 -0.1593  0.3848  0.0770
   57SAPC  H17R 4224   1.573   4.211   6.000  0.8358  2.4457 -2.5946
   57SAPC  H17S 4225   1.473   4.304   5.896  1.0684  1.4699  1.1044
   57SAPC  C218 4226   1.385   4.110   5.924 -0.2563 -0.5127  0.3089
   57SAPC  H18R 4227   1.277   4.125   5.900  0.0168 -1.7994 -1.9365
   57SAPC  H18S 4228   1.373   4.036   6.007 -1.0621  1.1016  1.7123
   57SAPC  C219 4229   1.449   4.061   5.797  0.0108  0.2891  0.7464
   57SAPC  H19R 4230   1.446   4.140   5.719  3.2825  0.4752  0.6885
   57SAPC  H19S 4231   1.392   3.969   5.769 -1.0559  1.5228 -1.4300
   57SAPC  C220 4232   1.595   4.020   5.816  0.8639  0.2402  0.4263
   57SAPC  H20R 4233   1.656   4.113   5.824 -0.2850  1.0724 -0.1923
   57SAPC  H20S 4234   1.629   3.951   5.736 -1.6110 -2.2297  1.3547
   57SAPC  H20T 4235   1.598   3.963   5.912  0.1318  1.0449  0.9446
   57SAPC   C33 4236   0.490   4.140   6.703  0.4868 -0.2879  0.6318
   57SAPC   H3X 4237   0.405   4.072   6.680  0.0135  0.4078  0.2956
   57SAPC   H3Y 4238   0.574   4.094   6.646 -2.0540 -2.0079 -2.0192
   57SAPC   C34 4239   0.456   4.288   6.641  0.1024 -0.1667 -0.6572
   57SAPC   H4X 4240   0.541   4.345   6.682 -0.8397  1.5403 -0.9703
   57SAPC   H4Y 4241   0.359   4.325   6.682 -0.1163 -0.6652 -0.7156
   57SAPC   C35 4242   0.448   4.294   6.489 -0.1516  0.5490 -0.1487
   57SAPC   H5X 4243   0.421   4.401   6.473  1.3376  1.1560  1.1148
   57SAPC   H5Y 4244   0.361   4.235   6.452  0.7867  0.1607 -1.8092
   57SAPC   C36 4245   0.569   4.240   6.414 -0.7853  0.2263 -0.0361
   57SAPC   H6X 4246   0.605   4.142   6.453 -0.6875 -0.7422 -2.4176
   57SAPC   H6Y 4247   0.651   4.309   6.443  0.7561 -1.4271 -0.2614
   57SAPC   C37 4248   0.553   4.207   6.267 -0.5232 -0.3762 -0.1399
   57SAPC   H7X 4249   0.468   4.140   6.241 -1.0268  1.1859 -2.8309
   57SAPC   H7Y 4250   0.646   4.166   6.222  0.6562  1.1996  0.7699
   57SAPC   C38 4251   0.522   4.331   6.188  0.1994  0.2577 -0.2132
   57SAPC   H8X 4252   0.585   4.415   6.224  0.1356  0.0079  0.4854
   57SAPC   H8Y 4253   0.417   4.364   6.203  0.6414  2.0935 -0.9036
   57SAPC   C39 4254   0.536   4.315   6.033  0.1198  0.3590 -0.0134
   57SAPC   H9X 4255   0.644   4.325   6.010  0.0725 -0.6190 -0.7379
   57SAPC   H9Y 4256   0.498   4.411   5.993  0.6365  0.5138 -0.1408
   57SAPC  C310 4257   0.481   4.187   5.968 -0.7523  0.0830 -0.5446
   57SAPC  H10X 4258   0.370   4.187   5.971 -0.8482  2.4460 -1.4204
   57SAPC  H10Y 4259   0.520   4.102   6.027  2.9846  1.4445 -0.7386
   57SAPC  C311 4260   0.519   4.167   5.825 -0.6934 -0.4741 -0.1111
   57SAPC  H11X 4261   0.460   4.080   5.788 -2.1859  0.9486 -1.1858
   57SAPC  H11Y 4262   0.629   4.150   5.815 -0.5094  1.6116 -3.2442
   57SAPC  C312 4263   0.476   4.283   5.733 -0.5791 -0.2744 -0.4872
   57SAPC  H12X 4264   0.532   4.377   5.753 -0.6887  0.2177 -2.3639
   57SAPC  H12Y 4265   0.367   4.291   5.751  0.0121  1.0473  3.5643
   57SAPC  C313 4266   0.488   4.255   5.586 -0.3231 -0.2142 -0.0121
   57SAPC  H13X 4267   0.413   4.176   5.569  0.1063 -0.6908  0.2720
   57SAPC  H13Y 4268   0.590   4.218   5.560 -0.4947  0.6775 -2.1013
   57SAPC  C314 4269   0.465   4.382   5.500  0.5826 -0.4129 -0.8699
   57SAPC  H14X 4270   0.529   4.458   5.551  0.8611 -0.9351 -0.4402
   57SAPC  H14Y 4271   0.360   4.417   5.512  0.7703 -0.2815  0.5557
   57SAPC  C315 4272   0.502   4.374   5.359 -0.0596 -0.9746  0.5871
   57SAPC  H15X 4273   0.451   4.287   5.313 -0.5850  1.1703 -3.3985
   57SAPC  H15Y 4274   0.610   4.349   5.353  0.0269 -0.7133  1.0107
   57SAPC  C316 4275   0.482   4.507   5.279 -0.5883 -0.6232  0.0720
   57SAPC  H16X 4276   0.375   4.539   5.280 -0.3358  0.5054  3.1956
   57SAPC  H16Y 4277   0.499   4.495   5.170  0.0007  1.2027 -0.0561
   57SAPC  C317 4278   0.570   4.618   5.321 -0.7574 -1.0655  0.6099
   57SAPC  H17X 4279   0.674   4.580   5.314 -0.5508 -0.2164 -2.6916
   57SAPC  H17Y 4280   0.540   4.643   5.425 -1.8471 -0.5827  0.1977
   57SAPC  C318 4281   0.564   4.744   5.237  0.2557 -0.4324 -1.1996
   57SAPC  H18X 4282   0.626   4.825   5.281 -1.1077  0.3501 -0.6263
   57SAPC  H18Y 4283   0.463   4.787   5.219  0.0466  0.2624  1.2155
   57SAPC  H18Z 4284   0.611   4.720   5.140  1.0868 -1.2932 -0.5993
   58SAPC     N 4285   3.734   2.016   7.334  0.0748 -0.1025  0.2876
   58SAPC   C12 4286   3.689   2.154   7.278  0.4085  1.0736  0.7351
   58SAPC  H12A 4287   3.600   2.138   7.218  0.7238 -0.6622  0.6691
   58SAPC  H12B 4288   3.763   2.164   7.200 -0.2414  0.5315  0.0222
   58SAPC   C13 4289   3.612   1.955   7.403  0.4587  0.4309 -0.3281
   58SAPC  H13A 4290   3.639   1.866   7.459  0.5267  0.6217 -0.0554
   58SAPC  H13B 4291   3.563   2.030   7.464  2.1998  0.9940  0.4390
   58SAPC  H13C 4292   3.539   1.924   7.329 -0.6636  1.3568  0.3587
   58SAPC   C14 4293   3.774   1.917   7.230 -0.0572 -0.1792  0.9040
   58SAPC  H14A 4294   3.687   1.862   7.198 -0.3686  0.3628  0.8041
   58SAPC  H14B 4295   3.822   1.971   7.150 -2.8346 -0.2207 -0.9197
   58SAPC  H14C 4296   3.834   1.838   7.273  0.5538 -1.2178 -1.7117
   58SAPC   C15 4297   3.843   2.031   7.433 -0.2590 -0.3062 -0.6444
   58SAPC  H15A 4298   3.811   2.071   7.528 -3.0238  1.4054 -2.1823
   58SAPC  H15B 4299   3.887   1.935   7.454  1.1397 -0.0913 -2.2880
   58SAPC  H15C 4300   3.923   2.080   7.378 -1.0283 -1.9255 -3.4053
   58SAPC   C11 4301   3.672   2.272   7.370 -1.1086 -0.5222 -0.0448
   58SAPC  H11A 4302   3.658   2.360   7.304  0.7728  0.9947  1.4679
   58SAPC  H11B 4303   3.769   2.285   7.421 -1.4139 -0.6271  0.5677
   58SAPC     P 4304   3.413   2.254   7.435  0.2646 -0.1167 -0.1521
   58SAPC   O13 4305   3.362   2.148   7.525  0.5877  0.4093 -0.3968
   58SAPC   O14 4306   3.348   2.384   7.447 -0.5338  0.0469 -0.1885
   58SAPC   O12 4307   3.568   2.269   7.465  0.1580  0.5019  0.2670
   58SAPC   O11 4308   3.404   2.207   7.286 -0.6687 -0.4873  0.4353
   58SAPC    C1 4309   3.285   2.212   7.210 -0.1838  0.0016  0.6955
   58SAPC    HA 4310   3.265   2.107   7.177  3.2863 -1.3815  2.5282
   58SAPC    HB 4311   3.194   2.231   7.271  0.0397 -1.4444  1.5354
   58SAPC    C2 4312   3.292   2.315   7.103 -0.4618 -0.2621  0.1006
   58SAPC    HS 4313   3.331   2.410   7.145 -0.5612 -0.2772  0.2283
   58SAPC   O21 4314   3.158   2.322   7.048 -0.2114 -0.1543  0.0802
   58SAPC   C21 4315   3.123   2.447   7.004 -0.2625  0.4511 -0.2343
   58SAPC   O22 4316   3.194   2.547   7.011 -0.7598  0.2592 -0.6442
   58SAPC   C22 4317   2.991   2.452   6.932  1.2984  0.0109  0.5313
   58SAPC   H2R 4318   2.914   2.402   6.994 -2.2915  2.1590 -1.8424
   58SAPC   H2S 4319   2.971   2.561   6.917  2.0977 -0.0241 -1.0572
   58SAPC    C3 4320   3.385   2.271   6.990 -0.7162 -0.1511 -0.6799
   58SAPC    HX 4321   3.342   2.183   6.936 -0.0947 -2.0427  1.7370
   58SAPC    HY 4322   3.482   2.235   7.029 -0.6949 -0.0376 -0.6291
   58SAPC   O31 4323   3.408   2.376   6.899  0.0567 -0.3509  0.0852
   58SAPC   C31 4324   3.499   2.467   6.933 -0.0171 -0.3850  0.0336
   58SAPC   O32 4325   3.557   2.478   7.038 -0.9978  0.4820  0.2662
   58SAPC   C32 4326   3.513   2.568   6.813 -0.6917 -0.4018 -0.0489
   58SAPC   H2X 4327   3.411   2.604   6.788  0.2237  1.8502 -0.8135
   58SAPC   H2Y 4328   3.557   2.518   6.724  2.4063 -1.7846  2.0600
   58SAPC   C23 4329   3.001   2.380   6.790 -0.0574 -0.4357 -0.5450
   58SAPC   H3R 4330   3.012   2.270   6.798  0.5837 -0.5643 -2.5846
   58SAPC   H3S 4331   3.087   2.429   6.739  1.2601 -1.9702  0.1263
   58SAPC   C24 4332   2.871   2.411   6.703  0.6768 -0.5691 -0.1332
   58SAPC   H4R 4333   2.851   2.519   6.687 -1.4849 -1.0289 -0.9641
   58SAPC   H4S 4334   2.782   2.374   6.758  0.2008  1.3836  0.4780
   58SAPC   C25 4335   2.879   2.328   6.575  0.1724 -0.5838  0.2074
   58SAPC   H5R 4336   2.823   2.234   6.588 -1.3756  0.2422 -0.2309
   58SAPC   C26 4337   2.915   2.364   6.446  0.0078 -0.4170  0.1390
   58SAPC   H6R 4338   2.920   2.285   6.369 -1.1422 -0.0892 -0.2974
   58SAPC   C27 4339   2.983   2.489   6.400  0.1695  0.3880  0.7878
   58SAPC   H7R 4340   3.080   2.469   6.349 -0.0453  2.6096 -0.6314
   58SAPC   H7S 4341   3.027   2.547   6.484  0.0379  2.6211 -0.5989
   58SAPC   C28 4342   2.896   2.579   6.317 -0.3484 -0.5084 -0.6969
   58SAPC   H8R 4343   2.831   2.639   6.382 -1.1695 -0.2033 -1.7767
   58SAPC   C29 4344   2.873   2.573   6.184  0.5316  0.4153  0.0971
   58SAPC   H9R 4345   2.780   2.615   6.141  0.8435  0.8108 -0.1907
   58SAPC  C210 4346   2.945   2.475   6.092 -0.0164 -0.9235 -0.0188
   58SAPC  H10R 4347   2.874   2.392   6.069  0.4554 -0.5174 -3.6589
   58SAPC  H10S 4348   3.038   2.436   6.138  0.4438  1.4630  1.2196
   58SAPC  C211 4349   2.990   2.525   5.958  0.0401  0.3882 -0.9297
   58SAPC  H11R 4350   3.005   2.634   5.958 -0.0704  0.4236  0.6075
   58SAPC  C212 4351   3.024   2.458   5.847  0.0983 -0.6769  0.1424
   58SAPC  H12R 4352   3.030   2.513   5.752  0.8260  0.7047  0.9550
   58SAPC  C213 4353   3.004   2.312   5.825 -0.0398 -0.2493  0.4148
   58SAPC  H13R 4354   2.921   2.289   5.754 -2.1002 -0.2122  2.6853
   58SAPC  H13S 4355   2.983   2.263   5.923 -1.6201  0.1851  0.3185
   58SAPC  C214 4356   3.132   2.260   5.764  0.3981  0.2608 -0.1845
   58SAPC  H14R 4357   3.168   2.326   5.684  3.3338 -1.2121 -0.2314
   58SAPC  C215 4358   3.196   2.146   5.793  0.2786  0.4388  0.2413
   58SAPC  H15R 4359   3.284   2.122   5.731  0.8766 -1.5453  1.7445
   58SAPC  C216 4360   3.161   2.039   5.899  0.0076 -0.1275  0.2040
   58SAPC  H16R 4361   3.181   1.938   5.858 -0.1213 -0.1398  0.1709
   58SAPC  H16S 4362   3.057   2.052   5.936  0.6154  0.5078  1.8026
   58SAPC  C217 4363   3.247   2.045   6.028  0.3201  0.4895 -1.1188
   58SAPC  H17R 4364   3.199   2.117   6.098  2.6438  0.1331  0.9816
   58SAPC  H17S 4365   3.352   2.077   6.009  0.2916  0.7565 -0.8297
   58SAPC  C218 4366   3.237   1.911   6.095  0.2251 -0.3996 -0.2190
   58SAPC  H18R 4367   3.284   1.850   6.016 -0.5860 -0.2691 -0.8199
   58SAPC  H18S 4368   3.129   1.884   6.099 -0.0437  0.5023 -0.9275
   58SAPC  C219 4369   3.286   1.917   6.239 -0.0431 -0.0415  0.0900
   58SAPC  H19R 4370   3.213   1.987   6.285 -0.7782  0.4713 -1.7307
   58SAPC  H19S 4371   3.388   1.958   6.244  0.2836 -0.9420  1.4554
   58SAPC  C220 4372   3.288   1.785   6.314 -0.5523  0.7206  0.4294
   58SAPC  H20R 4373   3.318   1.819   6.416 -2.2424  3.8105  0.0234
   58SAPC  H20S 4374   3.354   1.710   6.265 -2.1658  1.2129 -2.7181
   58SAPC  H20T 4375   3.187   1.739   6.318  1.3752 -3.9940  0.8527
   58SAPC   C33 4376   3.595   2.698   6.847  0.4711  0.7511 -0.5711
   58SAPC   H3X 4377   3.705   2.679   6.840  0.7687  2.2616 -0.3153
   58SAPC   H3Y 4378   3.564   2.749   6.940  0.4613  3.0123 -1.7397
   58SAPC   C34 4379   3.573   2.804   6.742 -0.6965 -0.6946 -0.0929
   58SAPC   H4X 4380   3.626   2.896   6.776  2.0400 -2.1114 -0.3113
   58SAPC   H4Y 4381   3.470   2.846   6.743  0.6203  2.9130 -0.4086
   58SAPC   C35 4382   3.601   2.763   6.595  0.1812  0.6807  0.3674
   58SAPC   H5X 4383   3.521   2.692   6.564  1.1195  0.5676 -2.0672
   58SAPC   H5Y 4384   3.694   2.702   6.592 -1.1128 -1.4960  1.5306
   58SAPC   C36 4385   3.618   2.878   6.485  0.3665  0.3111 -0.9001
   58SAPC   H6X 4386   3.708   2.935   6.515  1.4214 -1.9167  0.3722
   58SAPC   H6Y 4387   3.522   2.933   6.498  0.4030 -0.2994  3.4502
   58SAPC   C37 4388   3.629   2.827   6.342  0.0904  0.4984 -0.0367
   58SAPC   H7X 4389   3.530   2.782   6.318  0.6814 -0.6767 -0.3212
   58SAPC   H7Y 4390   3.705   2.746   6.332  0.5010  0.9557 -0.6645
   58SAPC   C38 4391   3.650   2.941   6.244 -0.6953 -0.1688  0.2357
   58SAPC   H8X 4392   3.722   3.020   6.274 -0.1012 -0.7705  0.4228
   58SAPC   H8Y 4393   3.554   2.995   6.232 -2.4973 -3.4500 -1.5172
   58SAPC   C39 4394   3.684   2.878   6.105 -0.0090 -0.4576 -0.1189
   58SAPC   H9X 4395   3.615   2.792   6.088 -1.0235  0.4138 -0.4679
   58SAPC   H9Y 4396   3.790   2.847   6.113  1.0171  3.1592  2.7721
   58SAPC  C310 4397   3.671   2.972   5.987  0.1274 -0.2670 -0.2743
   58SAPC  H10X 4398   3.742   3.056   5.976  0.9615 -0.6709  1.5607
   58SAPC  H10Y 4399   3.572   3.020   6.004  1.5705  2.5862  0.6476
   58SAPC  C311 4400   3.671   2.909   5.849 -0.3195 -0.3207 -0.2504
   58SAPC  H11X 4401   3.664   2.985   5.768  3.9799  1.2532  0.5877
   58SAPC  H11Y 4402   3.596   2.829   5.837  0.4854 -1.0265 -0.6792
   58SAPC  C312 4403   3.807   2.835   5.824 -0.7243 -0.1141 -0.1698
   58SAPC  H12X 4404   3.823   2.751   5.895 -0.9426  1.0226  1.2740
   58SAPC  H12Y 4405   3.889   2.907   5.845 -0.7864  0.4848 -1.8271
   58SAPC  C313 4406   3.823   2.794   5.684 -0.5820 -0.3011  0.0857
   58SAPC  H13X 4407   3.732   2.736   5.658 -2.1037  1.4986  1.1510
   58SAPC  H13Y 4408   3.908   2.724   5.669 -0.8191 -0.5120 -0.2937
   58SAPC  C314 4409   3.853   2.901   5.576 -0.3187 -0.0848 -0.1443
   58SAPC  H14X 4410   3.961   2.925   5.578 -0.8851  2.9257 -0.7680
   58SAPC  H14Y 4411   3.802   2.996   5.602  1.0273  0.1800  1.7370
   58SAPC  C315 4412   3.831   2.866   5.426  0.2238 -0.2741 -0.6735
   58SAPC  H15X 4413   3.723   2.872   5.404  0.6858 -0.9948 -3.4431
   58SAPC  H15Y 4414   3.855   2.758   5.416 -0.0299 -0.3865 -0.0904
   58SAPC  C316 4415   3.915   2.952   5.326 -0.4601  0.1468  0.0191
   58SAPC  H16X 4416   4.024   2.952   5.346 -0.2023  0.4362 -1.2673
   58SAPC  H16Y 4417   3.876   3.056   5.324  1.4396  0.9029 -0.2398
   58SAPC  C317 4418   3.890   2.892   5.184  0.7623 -0.4819 -0.6326
   58SAPC  H17X 4419   3.782   2.885   5.157  0.3890 -0.1336  0.7066
   58SAPC  H17Y 4420   3.935   2.791   5.180  1.4859 -0.1427 -1.3124
   58SAPC  C318 4421   3.954   2.985   5.073  0.3128 -0.7671 -0.0450
   58SAPC  H18X 4422   3.900   3.078   5.046  1.0913 -0.0578  0.8165
   58SAPC  H18Y 4423   3.952   2.923   4.980 -0.4792  0.8349 -1.1518
   58SAPC  H18Z 4424   4.055   3.013   5.108  0.5722 -1.0121 -0.5747
   59SAPC     N 4425   2.593   6.116   7.376  0.4434  0.1708  0.1800
   59SAPC   C12 4426   2.669   6.030   7.278 -0.5762 -0.0445  0.2657
   59SAPC  H12A 4427   2.728   5.956   7.330 -0.3015 -1.3522 -1.8163
   59SAPC  H12B 4428   2.736   6.084   7.213  0.1421  0.2569  1.2248
   59SAPC   C13 4429   2.516   6.036   7.475  0.3232 -0.1594 -0.1050
   59SAPC  H13A 4430   2.462   5.957   7.425 -0.6022  1.1924 -1.2998
   59SAPC  H13B 4431   2.582   5.990   7.547 -1.0340  1.6755  2.4584
   59SAPC  H13C 4432   2.445   6.095   7.532 -0.7962  0.2541 -1.8627
   59SAPC   C14 4433   2.688   6.203   7.450  1.0112 -1.0455  0.5439
   59SAPC  H14A 4434   2.636   6.253   7.530 -0.4543 -1.2619 -0.2517
   59SAPC  H14B 4435   2.760   6.134   7.491 -0.0528 -3.8851 -1.9484
   59SAPC  H14C 4436   2.746   6.264   7.382  2.4277 -4.1794 -1.3006
   59SAPC   C15 4437   2.495   6.208   7.314  0.2805 -0.5220  0.0996
   59SAPC  H15A 4438   2.545   6.277   7.249 -0.9678 -0.1194 -0.4753
   59SAPC  H15B 4439   2.408   6.161   7.270 -1.1734  2.9922 -1.1509
   59SAPC  H15C 4440   2.450   6.264   7.394 -0.1278 -2.5719  1.3840
   59SAPC   C11 4441   2.573   5.951   7.189 -0.5259  0.3014  0.3741
   59SAPC  H11A 4442   2.638   5.887   7.126 -2.3824  0.3553 -1.7333
   59SAPC  H11B 4443   2.522   6.015   7.113  1.0680 -1.0961 -1.9824
   59SAPC     P 4444   2.338   5.835   7.205  0.0614  0.0754 -0.1107
   59SAPC   O13 4445   2.279   5.724   7.291 -0.6898 -0.4628  0.3803
   59SAPC   O14 4446   2.269   5.964   7.214  0.0362 -0.4293  0.7802
   59SAPC   O12 4447   2.484   5.859   7.258 -0.1747 -0.1285 -0.2115
   59SAPC   O11 4448   2.356   5.787   7.052 -0.1253 -0.4802 -0.4339
   59SAPC    C1 4449   2.434   5.674   7.014 -0.4958  0.1251 -0.6800
   59SAPC    HA 4450   2.501   5.714   6.935 -1.9809  1.3627 -1.3465
   59SAPC    HB 4451   2.495   5.636   7.099  0.6777 -0.7844 -1.8895
   59SAPC    C2 4452   2.354   5.565   6.946  0.3981  0.3927 -0.3131
   59SAPC    HS 4453   2.433   5.500   6.903 -1.3065 -1.1439 -1.2162
   59SAPC   O21 4454   2.255   5.618   6.849  0.5894  0.2354 -0.8858
   59SAPC   C21 4455   2.302   5.661   6.740  0.3081  0.2422  0.1436
   59SAPC   O22 4456   2.420   5.645   6.708 -0.2081 -0.1218 -0.3089
   59SAPC   C22 4457   2.193   5.736   6.662 -0.6964  1.1414 -0.5116
   59SAPC   H2R 4458   2.170   5.673   6.573 -1.3605  1.1756 -0.3643
   59SAPC   H2S 4459   2.097   5.731   6.718 -1.3417 -1.8061 -1.6661
   59SAPC    C3 4460   2.265   5.489   7.050 -0.2139  0.5052 -0.8753
   59SAPC    HX 4461   2.187   5.557   7.092 -2.0178 -1.4991 -0.8057
   59SAPC    HY 4462   2.335   5.469   7.133 -1.2889 -1.2860 -0.3352
   59SAPC   O31 4463   2.220   5.360   6.999  0.5653  0.1294  0.5582
   59SAPC   C31 4464   2.086   5.344   6.984  0.0726 -0.1848 -0.2254
   59SAPC   O32 4465   2.008   5.439   7.001  0.4562 -0.2244  0.3804
   59SAPC   C32 4466   2.049   5.202   6.937 -0.8870 -0.2704 -0.1192
   59SAPC   H2X 4467   2.013   5.226   6.835 -1.3693  0.0477  0.1224
   59SAPC   H2Y 4468   1.972   5.162   7.005 -0.0065 -0.3627  0.8533
   59SAPC   C23 4469   2.245   5.877   6.640  0.4055 -0.7071  0.3148
   59SAPC   H3R 4470   2.316   5.861   6.556 -1.2738 -1.1366 -1.0886
   59SAPC   H3S 4471   2.302   5.919   6.726  1.3634 -1.9029  0.2975
   59SAPC   C24 4472   2.130   5.975   6.599 -0.4906  1.2296 -0.4801
   59SAPC   H4R 4473   2.069   5.914   6.529 -0.2021 -2.0062  1.8637
   59SAPC   H4S 4474   2.169   6.059   6.537  0.9035  0.1779 -1.0955
   59SAPC   C25 4475   2.045   6.039   6.708 -0.6314  0.4695  0.4471
   59SAPC   H5R 4476   2.100   6.095   6.786  0.6587 -2.2136  1.5755
   59SAPC   C26 4477   1.911   6.015   6.715  0.3124 -0.4954 -0.4685
   59SAPC   H6R 4478   1.853   6.063   6.795  1.4579 -0.0928  0.1372
   59SAPC   C27 4479   1.826   5.922   6.636  0.0182  0.1094 -0.1041
   59SAPC   H7R 4480   1.804   5.841   6.708  2.2052 -0.7803 -0.3593
   59SAPC   H7S 4481   1.889   5.875   6.557  0.1924  0.6231 -0.2797
   59SAPC   C28 4482   1.691   5.979   6.594 -0.4573 -0.8818  0.0171
   59SAPC   H8R 4483   1.640   6.032   6.676  3.2449  0.0685  1.9132
   59SAPC   C29 4484   1.622   5.946   6.480 -0.2821 -0.7366 -0.0438
   59SAPC   H9R 4485   1.523   5.990   6.468 -0.4195 -0.7091  1.1063
   59SAPC  C210 4486   1.673   5.858   6.365  0.8746 -0.3240  0.6311
   59SAPC  H10R 4487   1.783   5.862   6.377  0.7776  0.0859  1.4718
   59SAPC  H10S 4488   1.651   5.901   6.266 -1.7579  1.1865  1.7623
   59SAPC  C211 4489   1.624   5.709   6.384 -0.2015  0.4084  0.6127
   59SAPC  H11R 4490   1.590   5.677   6.484 -1.7553 -1.4628 -0.4509
   59SAPC  C212 4491   1.617   5.621   6.286  0.6793  0.5032  0.0517
   59SAPC  H12R 4492   1.590   5.521   6.323 -0.8504  0.9810  0.3300
   59SAPC  C213 4493   1.649   5.642   6.136  0.2592 -0.2433  0.5254
   59SAPC  H13R 4494   1.707   5.552   6.103  0.3984  0.3682 -0.9858
   59SAPC  H13S 4495   1.725   5.722   6.127 -0.1738 -0.0259 -1.9396
   59SAPC  C214 4496   1.528   5.671   6.051 -0.2630 -0.5140  0.2514
   59SAPC  H14R 4497   1.435   5.624   6.085 -0.0425 -0.3564  1.1109
   59SAPC  C215 4498   1.522   5.730   5.932 -0.0283  0.2311  1.0210
   59SAPC  H15R 4499   1.427   5.723   5.877 -0.5702 -0.1809  1.9858
   59SAPC  C216 4500   1.629   5.789   5.847  0.5730 -0.6688 -0.1755
   59SAPC  H16R 4501   1.720   5.822   5.901 -0.1702 -0.2776  0.8828
   59SAPC  H16S 4502   1.585   5.881   5.802  0.5695 -1.0887 -1.0508
   59SAPC  C217 4503   1.685   5.703   5.735 -0.1713 -0.1020 -0.2432
   59SAPC  H17R 4504   1.771   5.762   5.696  0.1631 -1.0580 -1.0018
   59SAPC  H17S 4505   1.612   5.700   5.652 -0.2575  3.4765 -0.4723
   59SAPC  C218 4506   1.720   5.562   5.764 -0.1258 -0.0226  0.0184
   59SAPC  H18R 4507   1.633   5.504   5.802 -0.1922 -0.4169 -0.7016
   59SAPC  H18S 4508   1.785   5.567   5.853 -0.1110 -2.8351  0.2568
   59SAPC  C219 4509   1.778   5.482   5.648 -0.3857 -0.7375 -0.0649
   59SAPC  H19R 4510   1.709   5.455   5.566 -0.1534  0.9057 -0.8476
   59SAPC  H19S 4511   1.836   5.394   5.684  1.6965 -0.4439 -2.4177
   59SAPC  C220 4512   1.886   5.556   5.568 -0.0881  0.6948  0.3316
   59SAPC  H20R 4513   1.935   5.492   5.491 -0.0256  1.0106  0.1101
   59SAPC  H20S 4514   1.948   5.617   5.637  1.1640 -0.5585  0.3603
   59SAPC  H20T 4515   1.828   5.634   5.514 -2.4313 -0.7536  0.5929
   59SAPC   C33 4516   2.169   5.096   6.939  0.1284  0.5700 -0.3061
   59SAPC   H3X 4517   2.173   5.049   7.039  1.1079  0.0983 -0.5612
   59SAPC   H3Y 4518   2.268   5.134   6.908  0.8621 -1.8830 -1.2413
   59SAPC   C34 4519   2.144   4.979   6.841  0.3711  0.2347 -0.3738
   59SAPC   H4X 4520   2.222   4.900   6.837  0.7524  0.5988 -0.3396
   59SAPC   H4Y 4521   2.142   5.017   6.736 -1.3228  0.3768 -0.3046
   59SAPC   C35 4522   2.012   4.912   6.865  0.6587 -0.5122  0.4805
   59SAPC   H5X 4523   1.939   4.995   6.876  1.5678  0.5699 -1.1530
   59SAPC   H5Y 4524   2.018   4.841   6.950  4.8477  0.1469  0.9648
   59SAPC   C36 4525   1.973   4.829   6.743 -0.0169 -0.7336  0.2923
   59SAPC   H6X 4526   2.048   4.754   6.709  1.3950  0.2041  1.2244
   59SAPC   H6Y 4527   1.960   4.903   6.662 -2.2220 -1.2708  0.0952
   59SAPC   C37 4528   1.833   4.760   6.757 -0.2313  0.1503 -0.3473
   59SAPC   H7X 4529   1.750   4.835   6.760 -1.1029 -0.5345 -3.3512
   59SAPC   H7Y 4530   1.832   4.701   6.850 -0.8248 -0.6836 -0.8730
   59SAPC   C38 4531   1.816   4.654   6.638 -0.2210  0.1916  0.1926
   59SAPC   H8X 4532   1.740   4.577   6.664 -0.8364  0.3054 -1.2137
   59SAPC   H8Y 4533   1.918   4.610   6.639 -1.0025 -1.7196 -0.0373
   59SAPC   C39 4534   1.790   4.718   6.504  1.0974 -0.3292 -0.5236
   59SAPC   H9X 4535   1.855   4.804   6.477 -0.2356  0.5379 -1.0668
   59SAPC   H9Y 4536   1.691   4.767   6.495  2.0016  1.2407 -3.3681
   59SAPC  C310 4537   1.780   4.625   6.379  0.1882 -0.4305 -0.4453
   59SAPC  H10X 4538   1.679   4.578   6.379 -0.2240  0.2782  2.5306
   59SAPC  H10Y 4539   1.863   4.553   6.387 -1.0207 -1.6861  1.4203
   59SAPC  C311 4540   1.796   4.686   6.237 -0.3747  0.1750  0.1492
   59SAPC  H11X 4541   1.881   4.756   6.227  0.1658 -0.7068 -2.0722
   59SAPC  H11Y 4542   1.703   4.746   6.223  0.4988  1.4800 -0.2101
   59SAPC  C312 4543   1.792   4.573   6.128  0.3274 -0.2317  0.0072
   59SAPC  H12X 4544   1.691   4.532   6.149  0.3504  0.1088  0.8258
   59SAPC  H12Y 4545   1.869   4.494   6.142 -0.2924 -0.7494  0.5806
   59SAPC  C313 4546   1.790   4.633   5.986 -0.0575 -0.4867  0.0673
   59SAPC  H13X 4547   1.889   4.620   5.937 -0.2890  2.5486 -1.4396
   59SAPC  H13Y 4548   1.772   4.742   5.982 -0.2134 -0.5347 -2.2969
   59SAPC  C314 4549   1.698   4.576   5.889  0.1690  0.2281  0.9999
   59SAPC  H14X 4550   1.616   4.530   5.949 -0.3396 -2.0432 -1.2380
   59SAPC  H14Y 4551   1.744   4.491   5.836  0.0423  0.4344  0.5583
   59SAPC  C315 4552   1.629   4.662   5.785 -0.2893 -0.0005 -0.0416
   59SAPC  H15X 4553   1.687   4.755   5.766  1.4174 -1.5058 -2.7375
   59SAPC  H15Y 4554   1.526   4.688   5.818  0.3005  3.2312 -0.4439
   59SAPC  C316 4555   1.603   4.601   5.641 -0.6267 -0.0312  0.7421
   59SAPC  H16X 4556   1.697   4.561   5.597 -2.3570 -1.1943 -2.1415
   59SAPC  H16Y 4557   1.581   4.684   5.571  0.9839  1.4662  1.8967
   59SAPC  C317 4558   1.500   4.490   5.648 -0.1503 -0.3081  0.1081
   59SAPC  H17X 4559   1.402   4.533   5.678 -0.9544 -1.5055 -0.7368
   59SAPC  H17Y 4560   1.541   4.428   5.730  0.4142  2.1901  1.8300
   59SAPC  C318 4561   1.472   4.412   5.522 -0.0374 -0.2031  0.2427
   59SAPC  H18X 4562   1.442   4.479   5.438  1.9622  0.5580  0.0812
   59SAPC  H18Y 4563   1.386   4.346   5.545 -0.0210 -0.5025 -0.5136
   59SAPC  H18Z 4564   1.558   4.356   5.480  0.0299  1.4761 -2.0676
   60SAPC     N 4565   1.982   5.807   7.453 -0.3297 -0.7309 -0.4380
   60SAPC   C12 4566   1.843   5.803   7.517 -0.1174 -0.0366 -0.3768
   60SAPC  H12A 4567   1.837   5.851   7.614 -2.1200 -0.4747 -0.2423
   60SAPC  H12B 4568   1.816   5.700   7.539 -0.0738 -0.2604 -1.3428
   60SAPC   C13 4569   1.991   5.714   7.334  0.3235 -0.0314  0.0390
   60SAPC  H13A 4570   1.936   5.759   7.253  1.2047  2.3835  0.6877
   60SAPC  H13B 4571   2.094   5.710   7.301  0.0566  0.4729 -0.9082
   60SAPC  H13C 4572   1.948   5.617   7.352  1.2932 -0.2828  1.1050
   60SAPC   C14 4573   2.014   5.952   7.404  0.1318 -0.0052  0.4949
   60SAPC  H14A 4574   2.096   5.956   7.333  0.5584  4.2391  1.0019
   60SAPC  H14B 4575   1.935   5.983   7.337  0.4436  1.4220  0.7654
   60SAPC  H14C 4576   2.021   6.032   7.476 -1.5700  0.5309  0.1085
   60SAPC   C15 4577   2.086   5.758   7.551  0.4016 -0.2708  0.5504
   60SAPC  H15A 4578   2.189   5.767   7.522  0.2356  2.1637  0.4702
   60SAPC  H15B 4579   2.083   5.818   7.641  0.6796 -0.1391  0.4710
   60SAPC  H15C 4580   2.065   5.659   7.588  1.6798 -1.4348 -1.6575
   60SAPC   C11 4581   1.733   5.880   7.433  0.4079  0.4666  0.0463
   60SAPC  H11A 4582   1.733   5.826   7.336 -0.5797 -3.2009  1.9226
   60SAPC  H11B 4583   1.750   5.989   7.425  1.1457  0.2606 -1.7310
   60SAPC     P 4584   1.476   5.893   7.412 -0.1892  0.5507  0.4261
   60SAPC   O13 4585   1.361   5.929   7.505 -0.3827  0.3867  0.0337
   60SAPC   O14 4586   1.502   5.992   7.302 -0.8012  0.5181 -0.3738
   60SAPC   O12 4587   1.608   5.862   7.498  0.2696  0.2264  0.4360
   60SAPC   O11 4588   1.435   5.752   7.357 -0.0545  0.2989  0.5284
   60SAPC    C1 4589   1.530   5.656   7.320 -0.8170  0.2742  0.1587
   60SAPC    HA 4590   1.622   5.651   7.383 -0.5778 -1.6335 -0.2751
   60SAPC    HB 4591   1.488   5.553   7.331  0.3841 -0.4003 -1.2456
   60SAPC    C2 4592   1.565   5.672   7.166  0.3315  0.5769  0.3159
   60SAPC    HS 4593   1.627   5.764   7.161  0.4639  0.6747  2.6469
   60SAPC   O21 4594   1.448   5.687   7.095 -0.2548 -0.1775 -0.2641
   60SAPC   C21 4595   1.450   5.749   6.975 -0.5650  0.6189 -0.3972
   60SAPC   O22 4596   1.535   5.829   6.941 -0.2155 -0.0459 -0.6651
   60SAPC   C22 4597   1.348   5.692   6.881 -0.0801  0.1569 -0.2024
   60SAPC   H2R 4598   1.335   5.582   6.895 -3.6117  0.3088 -1.3207
   60SAPC   H2S 4599   1.253   5.739   6.912  0.5803  1.0185  0.5387
   60SAPC    C3 4600   1.635   5.543   7.125  0.2733 -0.1008  0.6507
   60SAPC    HX 4601   1.570   5.454   7.119 -0.4156  0.2835  2.1266
   60SAPC    HY 4602   1.702   5.524   7.212 -0.4480 -0.2949  1.1667
   60SAPC   O31 4603   1.730   5.566   7.017  0.6609 -0.2620 -0.3468
   60SAPC   C31 4604   1.705   5.479   6.915  0.1043  0.2532 -0.4779
   60SAPC   O32 4605   1.658   5.369   6.921  0.2461  0.0125  0.7641
   60SAPC   C32 4606   1.740   5.558   6.789  0.3104 -0.1867  0.0798
   60SAPC   H2X 4607   1.772   5.661   6.813 -1.1367  0.5481 -0.9822
   60SAPC   H2Y 4608   1.649   5.551   6.724  1.4298  1.9542 -1.8354
   60SAPC   C23 4609   1.362   5.751   6.737 -0.3992 -0.3467 -0.3863
   60SAPC   H3R 4610   1.450   5.699   6.692 -0.0687 -0.6919  0.6463
   60SAPC   H3S 4611   1.396   5.856   6.749  0.7424 -0.5979 -1.2341
   60SAPC   C24 4612   1.244   5.769   6.642 -0.8687 -0.5340  0.1410
   60SAPC   H4R 4613   1.287   5.762   6.541  2.0373 -2.0891  1.3795
   60SAPC   H4S 4614   1.187   5.864   6.654  0.5965  0.6558 -1.7038
   60SAPC   C25 4615   1.161   5.646   6.666 -0.9830 -0.0530 -0.5696
   60SAPC   H5R 4616   1.091   5.657   6.750 -0.9759 -0.7375 -0.4650
   60SAPC   C26 4617   1.171   5.531   6.603  0.9251  0.2602 -0.2861
   60SAPC   H6R 4618   1.103   5.451   6.636  0.5283  0.7430  0.0702
   60SAPC   C27 4619   1.263   5.496   6.494  0.6201  0.1569  0.2977
   60SAPC   H7R 4620   1.278   5.386   6.498 -0.8727 -0.0979 -0.4558
   60SAPC   H7S 4621   1.357   5.550   6.517 -1.3005  2.6499  3.0858
   60SAPC   C28 4622   1.213   5.527   6.352 -0.2446  0.3460 -0.0571
   60SAPC   H8R 4623   1.130   5.599   6.349 -0.6802 -0.1830 -2.5091
   60SAPC   C29 4624   1.248   5.471   6.240 -0.2064 -0.5825  0.3333
   60SAPC   H9R 4625   1.187   5.492   6.150 -1.6039  1.3595  1.6706
   60SAPC  C210 4626   1.347   5.363   6.222  0.0466 -0.1996  0.6803
   60SAPC  H10R 4627   1.412   5.357   6.312  0.4899 -2.5151  0.2774
   60SAPC  H10S 4628   1.404   5.405   6.137 -2.3392  0.6513 -0.5931
   60SAPC  C211 4629   1.297   5.226   6.181 -0.3185  0.1375  0.2647
   60SAPC  H11R 4630   1.204   5.193   6.230 -0.4692  0.2438  0.0540
   60SAPC  C212 4631   1.356   5.151   6.086  0.7380 -0.4780  0.1508
   60SAPC  H12R 4632   1.312   5.052   6.069 -2.5083  0.8879 -0.0684
   60SAPC  C213 4633   1.487   5.181   6.021 -0.3400 -0.5352  0.2938
   60SAPC  H13R 4634   1.548   5.254   6.078 -2.9208  1.4216  0.7669
   60SAPC  H13S 4635   1.463   5.224   5.921 -2.8335 -1.8219  0.2634
   60SAPC  C214 4636   1.578   5.060   6.001 -0.0641 -0.0145 -0.3457
   60SAPC  H14R 4637   1.558   4.993   6.086 -1.2972  1.5668  0.6888
   60SAPC  C215 4638   1.669   5.035   5.911 -0.7513 -0.6491  0.1485
   60SAPC  H15R 4639   1.731   4.945   5.926  0.6663 -0.1838 -2.2868
   60SAPC  C216 4640   1.704   5.129   5.800 -0.0204  0.2086  0.6081
   60SAPC  H16R 4641   1.814   5.144   5.804 -0.0411  0.8477 -0.8650
   60SAPC  H16S 4642   1.658   5.228   5.818  0.2995  0.4373  0.1816
   60SAPC  C217 4643   1.682   5.070   5.656 -0.0496 -0.6715 -0.1523
   60SAPC  H17R 4644   1.642   5.158   5.602 -0.6697  0.2481  1.7043
   60SAPC  H17S 4645   1.607   4.989   5.665 -0.8630  0.2255  1.6174
   60SAPC  C218 4646   1.814   5.057   5.574 -0.4527 -0.1455 -0.1843
   60SAPC  H18R 4647   1.870   4.966   5.606  0.0836 -0.3208 -1.5158
   60SAPC  H18S 4648   1.883   5.142   5.594 -1.0782  0.3212  0.0060
   60SAPC  C219 4649   1.783   5.032   5.424 -0.2537 -0.3977  0.3940
   60SAPC  H19R 4650   1.706   4.952   5.420 -3.0171  1.9321  2.3481
   60SAPC  H19S 4651   1.885   5.015   5.382  0.6465 -0.3461  2.4407
   60SAPC  C220 4652   1.718   5.153   5.352 -0.4968  0.3232 -0.0686
   60SAPC  H20R 4653   1.716   5.143   5.241  1.6867 -3.3038  0.0291
   60SAPC  H20S 4654   1.773   5.246   5.374  2.2266 -0.6589 -2.0890
   60SAPC  H20T 4655   1.613   5.157   5.388 -0.2223  0.0475  0.7680
   60SAPC   C33 4656   1.853   5.487   6.712 -0.2200  0.3700  0.5638
   60SAPC   H3X 4657   1.850   5.377   6.716  0.6825  0.3161  0.0381
   60SAPC   H3Y 4658   1.957   5.514   6.742 -0.2376 -0.4538  1.4002
   60SAPC   C34 4659   1.841   5.513   6.558 -0.0916 -0.0559  0.3650
   60SAPC   H4X 4660   1.844   5.622   6.537 -1.6880  0.9459  4.3093
   60SAPC   H4Y 4661   1.739   5.483   6.527  0.1665 -2.2636  1.4504
   60SAPC   C35 4662   1.948   5.422   6.484  0.1090 -0.9070 -0.0752
   60SAPC   H5X 4663   1.947   5.317   6.518  0.9455 -0.8549  0.1253
   60SAPC   H5Y 4664   2.050   5.464   6.489 -0.7788  1.6369 -1.3437
   60SAPC   C36 4665   1.922   5.417   6.327  0.8172 -0.1596  0.4886
   60SAPC   H6X 4666   1.942   5.517   6.283  1.5603 -0.0930  0.9558
   60SAPC   H6Y 4667   1.811   5.410   6.318  0.6641  1.5961  0.6367
   60SAPC   C37 4668   2.004   5.312   6.257 -0.0142  0.4557  0.0295
   60SAPC   H7X 4669   2.113   5.333   6.247 -0.1551  1.7742  0.9078
   60SAPC   H7Y 4670   1.961   5.318   6.155 -1.3539  1.3576  0.6211
   60SAPC   C38 4671   1.987   5.169   6.316  0.1990  0.6891 -0.4345
   60SAPC   H8X 4672   1.879   5.143   6.312 -0.5146  3.0930  1.0167
   60SAPC   H8Y 4673   2.028   5.168   6.419  0.8032  0.0179 -0.6761
   60SAPC   C39 4674   2.068   5.067   6.241  0.6179  0.2324  0.2379
   60SAPC   H9X 4675   2.046   4.964   6.276  1.7592 -0.2021 -0.2792
   60SAPC   H9Y 4676   2.178   5.078   6.248  0.6207  2.7299 -1.8685
   60SAPC  C310 4677   2.039   5.063   6.089 -0.4077  1.0442  0.4479
   60SAPC  H10X 4678   2.084   5.148   6.033  1.8244  0.2995  1.0051
   60SAPC  H10Y 4679   1.930   5.082   6.073 -0.7337 -1.7858 -1.4428
   60SAPC  C311 4680   2.083   4.928   6.016 -0.1798 -0.7728  0.1492
   60SAPC  H11X 4681   2.010   4.853   6.052 -0.5512 -0.2943  0.3977
   60SAPC  H11Y 4682   2.184   4.907   6.058 -0.1093 -0.9904 -0.1232
   60SAPC  C312 4683   2.104   4.945   5.861 -0.2814  0.2197  0.7989
   60SAPC  H12X 4684   2.180   5.026   5.853  0.9695 -0.9109  0.8996
   60SAPC  H12Y 4685   2.010   4.978   5.812 -0.5520 -2.5485 -0.7470
   60SAPC  C313 4686   2.148   4.814   5.798 -0.2053  0.6943 -0.1549
   60SAPC  H13X 4687   2.056   4.756   5.774 -0.6328  1.5927 -0.7479
   60SAPC  H13Y 4688   2.201   4.749   5.870 -0.7595  2.1886  1.6709
   60SAPC  C314 4689   2.225   4.838   5.671 -0.2792  0.5802  0.8470
   60SAPC  H14X 4690   2.287   4.750   5.643  3.0506  2.8207  0.6784
   60SAPC  H14Y 4691   2.304   4.915   5.679  1.5795 -0.8693 -1.9079
   60SAPC  C315 4692   2.137   4.877   5.545  0.2075  0.0179  0.5341
   60SAPC  H15X 4693   2.077   4.969   5.562 -1.0954 -0.6495 -0.3271
   60SAPC  H15Y 4694   2.073   4.792   5.515  1.5590 -0.0305 -2.6294
   60SAPC  C316 4695   2.232   4.887   5.424  0.2815 -0.0802  0.1809
   60SAPC  H16X 4696   2.285   4.789   5.430 -0.5645 -0.5064  0.9586
   60SAPC  H16Y 4697   2.298   4.974   5.445  1.4296 -0.1733 -2.5461
   60SAPC  C317 4698   2.149   4.896   5.296  0.3745 -0.0447  0.2871
   60SAPC  H17X 4699   2.083   4.985   5.294  2.0320  1.3894 -4.2193
   60SAPC  H17Y 4700   2.093   4.801   5.294  0.6780 -0.2504 -2.1599
   60SAPC  C318 4701   2.235   4.898   5.174 -0.5654 -0.4300 -0.5087
   60SAPC  H18X 4702   2.291   4.802   5.178 -1.4877 -0.9454  0.7926
   60SAPC  H18Y 4703   2.308   4.982   5.174 -0.9448 -0.0851  0.7387
   60SAPC  H18Z 4704   2.167   4.900   5.086 -0.6522 -1.8923 -0.5050
   61SAPC     N 4705   6.048   6.192   7.852  1.1830  1.2376 -0.1762
   61SAPC   C12 4706   6.187   6.231   7.884 -0.3698 -0.2126 -0.2414
   61SAPC  H12A 4707   6.254   6.146   7.887 -0.9164 -0.6448  0.0579
   61SAPC  H12B 4708   6.194   6.280   7.980  0.2066  2.2817 -1.4619
   61SAPC   C13 4709   5.952   6.304   7.885 -0.1355  0.3210  0.2236
   61SAPC  H13A 4710   5.952   6.314   7.992  0.1526  0.2603  0.2288
   61SAPC  H13B 4711   5.984   6.393   7.833  0.7353  0.1201  0.4064
   61SAPC  H13C 4712   5.855   6.277   7.845 -0.1492  0.2218  0.3225
   61SAPC   C14 4713   6.027   6.145   7.717  0.0204 -0.6095  0.3248
   61SAPC  H14A 4714   6.045   6.227   7.649 -0.0386  0.1944  1.2516
   61SAPC  H14B 4715   6.087   6.060   7.689  2.1828  1.0940 -0.4361
   61SAPC  H14C 4716   5.921   6.128   7.699  0.2240  0.1258 -1.9672
   61SAPC   C15 4717   6.000   6.084   7.943 -0.2871  0.0554  0.6305
   61SAPC  H15A 4718   6.005   6.127   8.042  0.9847  1.2179  0.0935
   61SAPC  H15B 4719   5.897   6.057   7.923 -0.8109  1.6707  0.9358
   61SAPC  H15C 4720   6.066   6.000   7.933  0.9870  1.1532 -0.7475
   61SAPC   C11 4721   6.257   6.329   7.784  0.6088  0.2646  0.4985
   61SAPC  H11A 4722   6.276   6.284   7.684  1.0144  0.2400  0.5830
   61SAPC  H11B 4723   6.358   6.351   7.824  1.5309  1.1345 -2.0761
   61SAPC     P 4724   6.214   6.579   7.696 -0.4152  0.1353 -0.3723
   61SAPC   O13 4725   6.101   6.670   7.716  0.0365  0.5380 -0.3029
   61SAPC   O14 4726   6.349   6.621   7.734 -0.3034 -0.5653  0.1862
   61SAPC   O12 4727   6.180   6.445   7.772  0.6706  0.2691 -0.2411
   61SAPC   O11 4728   6.214   6.528   7.547  0.4223 -1.0022 -0.7023
   61SAPC    C1 4729   6.089   6.473   7.494  0.5636  0.1337 -0.3516
   61SAPC    HA 4730   6.105   6.366   7.466 -0.4562 -0.5477  1.5215
   61SAPC    HB 4731   6.006   6.481   7.567  0.6341  1.5990 -0.4023
   61SAPC    C2 4732   6.041   6.542   7.359  0.3008 -0.4081 -0.7735
   61SAPC    HS 4733   5.937   6.509   7.340  0.3643 -0.9885 -0.1680
   61SAPC   O21 4734   6.124   6.513   7.252 -0.6946  0.3473 -0.1456
   61SAPC   C21 4735   6.143   6.394   7.203  0.5885 -0.1894 -1.1531
   61SAPC   O22 4736   6.082   6.295   7.245 -0.1871  0.4899 -0.6656
   61SAPC   C22 4737   6.241   6.397   7.092 -0.0051 -0.2018  0.7185
   61SAPC   H2R 4738   6.266   6.503   7.070  2.1051 -0.9603 -0.8985
   61SAPC   H2S 4739   6.334   6.350   7.129 -0.4159  1.4742  4.2593
   61SAPC    C3 4740   6.037   6.698   7.387  0.4241  0.1144  0.0275
   61SAPC    HX 4741   6.115   6.742   7.454  0.0485  0.4186  0.2659
   61SAPC    HY 4742   5.946   6.720   7.446 -0.3575  0.7599 -1.3771
   61SAPC   O31 4743   6.027   6.769   7.266 -0.3588  0.1864 -0.4554
   61SAPC   C31 4744   6.146   6.810   7.216 -0.2192 -0.2215  0.2156
   61SAPC   O32 4745   6.255   6.787   7.264 -0.6594  0.2257  0.2910
   61SAPC   C32 4746   6.138   6.886   7.086  0.5151 -0.4257 -0.0970
   61SAPC   H2X 4747   6.231   6.944   7.069 -0.0185 -0.0457 -2.0686
   61SAPC   H2Y 4748   6.051   6.956   7.092  1.3777  0.5739  1.3920
   61SAPC   C23 4749   6.207   6.321   6.961  0.4590  0.5205  1.2818
   61SAPC   H3R 4750   6.159   6.222   6.974  2.0316 -0.3460  0.7673
   61SAPC   H3S 4751   6.306   6.299   6.918 -0.1317 -0.8086  0.5619
   61SAPC   C24 4752   6.142   6.407   6.845 -0.1652 -0.2496  0.7300
   61SAPC   H4R 4753   6.185   6.510   6.838 -1.3498  0.3541  1.8709
   61SAPC   H4S 4754   6.043   6.450   6.870  0.0177  0.7741 -0.1841
   61SAPC   C25 4755   6.138   6.343   6.706  0.0681 -0.3576 -0.1707
   61SAPC   H5R 4756   6.050   6.281   6.683 -0.5652  0.8416 -1.0830
   61SAPC   C26 4757   6.218   6.377   6.606  0.3108 -0.1087  0.0348
   61SAPC   H6R 4758   6.188   6.347   6.505 -1.4944  0.8638  0.2409
   61SAPC   C27 4759   6.334   6.469   6.613 -0.4703  0.5904 -0.1083
   61SAPC   H7R 4760   6.317   6.537   6.699  0.2845  1.6696 -0.7992
   61SAPC   H7S 4761   6.343   6.530   6.521  1.3104 -1.3880 -1.3314
   61SAPC   C28 4762   6.468   6.402   6.636  0.1566 -0.0417 -0.2935
   61SAPC   H8R 4763   6.498   6.390   6.741 -0.9647 -0.7156 -0.0265
   61SAPC   C29 4764   6.554   6.357   6.538 -0.4331 -0.1788 -0.3263
   61SAPC   H9R 4765   6.652   6.318   6.569  0.9507  3.4665  0.4455
   61SAPC  C210 4766   6.531   6.364   6.388  0.5715 -0.4324  0.9129
   61SAPC  H10R 4767   6.431   6.411   6.376  2.0634  2.8218  0.1494
   61SAPC  H10S 4768   6.509   6.265   6.343 -2.0327 -0.5900  2.3415
   61SAPC  C211 4769   6.624   6.454   6.310  0.2589 -0.1041  0.3698
   61SAPC  H11R 4770   6.693   6.520   6.364  0.1033  0.0817  0.3427
   61SAPC  C212 4771   6.597   6.482   6.183  0.6212  0.6025  0.4624
   61SAPC  H12R 4772   6.677   6.531   6.125 -0.7788  1.3869 -0.8881
   61SAPC  C213 4773   6.491   6.421   6.093 -0.5528  0.4384 -0.4936
   61SAPC  H13R 4774   6.429   6.509   6.069 -2.4348 -1.2379 -2.2280
   61SAPC  H13S 4775   6.420   6.354   6.146 -0.6026  0.7243 -0.1995
   61SAPC  C214 4776   6.546   6.341   5.970  0.9041  0.5862  0.1853
   61SAPC  H14R 4777   6.577   6.239   5.998 -1.6775 -0.3291 -0.0443
   61SAPC  C215 4778   6.569   6.385   5.845  0.4175  0.4230 -0.6747
   61SAPC  H15R 4779   6.618   6.323   5.768  0.5928 -0.1066 -0.1461
   61SAPC  C216 4780   6.529   6.515   5.797 -0.3081 -0.7347  0.2584
   61SAPC  H16R 4781   6.611   6.574   5.750 -3.0303  3.1784 -0.1274
   61SAPC  H16S 4782   6.476   6.584   5.865 -1.9899 -1.4626 -0.2683
   61SAPC  C217 4783   6.434   6.507   5.674  0.5947 -0.0634 -0.3769
   61SAPC  H17R 4784   6.412   6.613   5.646  0.5997 -0.1765 -0.8076
   61SAPC  H17S 4785   6.343   6.452   5.704  0.7519 -0.4510 -0.6131
   61SAPC  C218 4786   6.506   6.463   5.547  0.3703  0.1252  1.3348
   61SAPC  H18R 4787   6.509   6.357   5.514 -1.1587  0.4717 -0.0559
   61SAPC  H18S 4788   6.607   6.509   5.544 -0.9460  3.2810  1.2293
   61SAPC  C219 4789   6.424   6.525   5.426 -0.3720 -0.0319 -0.4422
   61SAPC  H19R 4790   6.479   6.504   5.331  0.7795 -0.5205  0.3127
   61SAPC  H19S 4791   6.425   6.636   5.438  0.1734  0.0430 -1.0899
   61SAPC  C220 4792   6.277   6.479   5.426  0.7014  0.0116  0.9408
   61SAPC  H20R 4793   6.226   6.536   5.345  1.1715 -0.3592  0.3697
   61SAPC  H20S 4794   6.223   6.501   5.520  0.0779 -0.1642  0.6316
   61SAPC  H20T 4795   6.285   6.369   5.408  0.8379  0.2917 -0.9439
   61SAPC   C33 4796   6.123   6.792   6.972  0.2694 -0.1597  0.5409
   61SAPC   H3X 4797   6.040   6.718   6.985 -0.3367  0.1228 -1.3726
   61SAPC   H3Y 4798   6.215   6.730   6.969  0.5266  0.0708  2.4241
   61SAPC   C34 4799   6.073   6.861   6.847 -0.4389 -0.3966  0.0337
   61SAPC   H4X 4800   6.152   6.935   6.822  0.9856 -1.2484  1.7812
   61SAPC   H4Y 4801   5.977   6.912   6.872 -0.3938  0.6305 -1.6755
   61SAPC   C35 4802   6.053   6.772   6.727  0.4474  1.1932  0.3671
   61SAPC   H5X 4803   5.979   6.695   6.762  0.0481  1.6078  0.4455
   61SAPC   H5Y 4804   6.145   6.717   6.699 -1.0806 -1.6101  0.4243
   61SAPC   C36 4805   6.012   6.845   6.596  0.1564 -0.2823  0.4663
   61SAPC   H6X 4806   6.079   6.927   6.561 -1.3880  1.1845  0.7891
   61SAPC   H6Y 4807   5.918   6.903   6.611  0.9494  1.2122 -0.0722
   61SAPC   C37 4808   5.993   6.755   6.470  0.1973  0.2100  0.4575
   61SAPC   H7X 4809   5.929   6.806   6.395  0.5008 -1.0463 -0.6831
   61SAPC   H7Y 4810   5.954   6.655   6.498 -0.2909  0.1119 -0.5421
   61SAPC   C38 4811   6.128   6.724   6.404  0.3390 -0.0146  0.2205
   61SAPC   H8X 4812   6.196   6.679   6.480  1.8164 -0.7892 -1.4688
   61SAPC   H8Y 4813   6.176   6.821   6.380 -1.9558  0.9470 -0.7709
   61SAPC   C39 4814   6.125   6.631   6.274 -0.0215 -0.4406  0.2504
   61SAPC   H9X 4815   6.079   6.536   6.310 -1.9121  0.3408  0.0588
   61SAPC   H9Y 4816   6.230   6.608   6.250 -0.3537 -2.3372  0.4098
   61SAPC  C310 4817   6.058   6.672   6.149 -0.2640 -0.5273 -0.2862
   61SAPC  H10X 4818   6.090   6.777   6.130 -3.6258  0.6892  0.0331
   61SAPC  H10Y 4819   5.948   6.660   6.149 -0.4096  0.3978 -2.2590
   61SAPC  C311 4820   6.101   6.586   6.030  0.3245  0.3265 -0.5938
   61SAPC  H11X 4821   6.058   6.484   6.043  0.5341  0.2754 -0.2856
   61SAPC  H11Y 4822   6.210   6.567   6.039  0.4691  1.1094 -0.6531
   61SAPC  C312 4823   6.067   6.637   5.894 -0.5111 -0.4639  0.4551
   61SAPC  H12X 4824   5.964   6.675   5.876  0.5018  1.0818 -2.7895
   61SAPC  H12Y 4825   6.077   6.556   5.819 -2.4387 -0.9427  0.6563
   61SAPC  C313 4826   6.147   6.761   5.841  0.1332 -0.0206 -0.5536
   61SAPC  H13X 4827   6.238   6.772   5.904  2.1325  0.5803 -3.3336
   61SAPC  H13Y 4828   6.095   6.857   5.861  0.5942  1.0230 -3.6815
   61SAPC  C314 4829   6.162   6.763   5.688  0.3255 -0.0915  0.2844
   61SAPC  H14X 4830   6.188   6.660   5.656  1.1375 -0.6467  2.5207
   61SAPC  H14Y 4831   6.249   6.829   5.672  0.1950 -0.1076 -0.5249
   61SAPC  C315 4832   6.037   6.818   5.618 -0.8241 -0.8336 -0.2728
   61SAPC  H15X 4833   6.022   6.922   5.655  0.8507 -0.3064 -1.0186
   61SAPC  H15Y 4834   5.948   6.755   5.643 -0.3377 -1.9358 -1.2244
   61SAPC  C316 4835   6.059   6.808   5.472  1.0434  0.1236 -0.0178
   61SAPC  H16X 4836   6.060   6.699   5.453 -1.7992 -0.7280  3.5303
   61SAPC  H16Y 4837   6.164   6.835   5.446  1.8631 -2.5384  0.2338
   61SAPC  C317 4838   5.961   6.870   5.374  0.2764 -0.5196  0.9695
   61SAPC  H17X 4839   5.950   6.977   5.399 -0.2495 -0.0209 -1.1505
   61SAPC  H17Y 4840   5.857   6.832   5.386 -0.6304  1.0520 -1.2356
   61SAPC  C318 4841   5.990   6.876   5.218  0.3810 -0.5867  0.1720
   61SAPC  H18X 4842   6.078   6.943   5.204  0.1124 -0.1789  0.4001
   61SAPC  H18Y 4843   5.907   6.922   5.160  1.5673  1.0893 -0.2905
   61SAPC  H18Z 4844   6.015   6.775   5.181  0.7135  0.2633 -2.1273
   62SAPC     N 4845   3.103   3.636   7.961 -1.1133 -0.9294 -0.6853
   62SAPC   C12 4846   3.000   3.639   7.855  0.3844  0.3754 -0.5353
   62SAPC  H12A 4847   2.964   3.740   7.845  0.0862  0.1900 -1.4136
   62SAPC  H12B 4848   2.917   3.578   7.887  1.1959  0.6719  2.4764
   62SAPC   C13 4849   3.045   3.719   8.080  0.1993 -0.6855 -0.5482
   62SAPC  H13A 4850   3.109   3.728   8.167  0.5714  0.2806 -0.9047
   62SAPC  H13B 4851   3.016   3.815   8.040 -1.6041 -0.5748  0.9287
   62SAPC  H13C 4852   2.953   3.674   8.113 -0.2138 -2.1546 -3.3879
   62SAPC   C14 4853   3.133   3.501   8.022 -0.7562  0.5257  0.7539
   62SAPC  H14A 4854   3.163   3.433   7.943 -2.2938  1.6506 -0.8787
   62SAPC  H14B 4855   3.212   3.505   8.095 -1.7278  0.9057  1.8047
   62SAPC  H14C 4856   3.050   3.451   8.071 -0.0075 -1.0050  0.5322
   62SAPC   C15 4857   3.231   3.697   7.920 -0.5643  0.5352 -0.1427
   62SAPC  H15A 4858   3.304   3.700   7.999 -0.2927 -0.8263 -0.3262
   62SAPC  H15B 4859   3.280   3.646   7.839  1.3371 -0.8078  1.7548
   62SAPC  H15C 4860   3.213   3.792   7.873 -2.2127 -0.1954 -1.0738
   62SAPC   C11 4861   3.036   3.582   7.715  0.3553 -0.3178 -0.4703
   62SAPC  H11A 4862   3.103   3.655   7.665  3.7036 -3.9105 -1.6556
   62SAPC  H11B 4863   2.941   3.571   7.658 -0.1508  0.6065  0.1750
   62SAPC     P 4864   3.240   3.422   7.667 -0.1676  0.0387 -0.0996
   62SAPC   O13 4865   3.328   3.544   7.694 -0.2449  0.1231 -0.0797
   62SAPC   O14 4866   3.278   3.305   7.748  0.3054 -0.1324 -0.3927
   62SAPC   O12 4867   3.093   3.454   7.712  0.0161 -0.0359 -0.0729
   62SAPC   O11 4868   3.241   3.383   7.514 -0.3544  0.2219 -0.0572
   62SAPC    C1 4869   3.134   3.423   7.431  0.5229  0.1305 -0.3084
   62SAPC    HA 4870   3.046   3.356   7.442  1.4126 -0.8406  1.2879
   62SAPC    HB 4871   3.095   3.522   7.463 -0.3985 -0.7168  1.2944
   62SAPC    C2 4872   3.176   3.431   7.281 -0.7988  0.1555 -0.2399
   62SAPC    HS 4873   3.200   3.326   7.255  3.5571  0.4619  1.6417
   62SAPC   O21 4874   3.289   3.530   7.276 -0.2756 -0.4285 -0.0233
   62SAPC   C21 4875   3.389   3.486   7.193 -0.1816 -0.5735  0.6631
   62SAPC   O22 4876   3.409   3.372   7.158 -0.6096  0.1110 -0.0397
   62SAPC   C22 4877   3.471   3.604   7.155  0.2483  0.1414  0.2102
   62SAPC   H2R 4878   3.489   3.657   7.251  0.0657 -1.3002  1.0747
   62SAPC   H2S 4879   3.571   3.570   7.121 -0.3199  0.0767 -1.4566
   62SAPC    C3 4880   3.069   3.485   7.183  0.1381 -0.3443  0.2943
   62SAPC    HX 4881   3.068   3.592   7.213  1.8278 -0.3674  0.5035
   62SAPC    HY 4882   2.971   3.435   7.197  0.6441 -1.9581 -1.5100
   62SAPC   O31 4883   3.117   3.479   7.048 -0.5422  0.4189  0.0358
   62SAPC   C31 4884   3.099   3.356   6.990 -0.1163  0.4449 -0.1573
   62SAPC   O32 4885   3.044   3.263   7.046  0.2025  0.0564  0.0499
   62SAPC   C32 4886   3.143   3.361   6.843 -0.0974 -0.2441 -0.2055
   62SAPC   H2X 4887   3.190   3.263   6.819  0.9984  0.7044 -2.2880
   62SAPC   H2Y 4888   3.221   3.438   6.830 -1.0629  0.5467 -1.5834
   62SAPC   C23 4889   3.407   3.690   7.043 -0.1512  0.0572 -0.1639
   62SAPC   H3R 4890   3.455   3.789   7.055 -0.8597  0.3946 -0.1123
   62SAPC   H3S 4891   3.297   3.702   7.050 -0.3927 -2.0253  0.2605
   62SAPC   C24 4892   3.445   3.644   6.899  0.5378  0.7203 -0.5490
   62SAPC   H4R 4893   3.423   3.538   6.876 -0.1787  0.6610  0.3791
   62SAPC   H4S 4894   3.553   3.661   6.875  0.4281 -0.4429 -2.0106
   62SAPC   C25 4895   3.357   3.734   6.810  0.2301 -0.3554 -0.0235
   62SAPC   H5R 4896   3.253   3.698   6.803 -0.7855  1.9952  1.5863
   62SAPC   C26 4897   3.406   3.815   6.713 -0.3605  0.0820 -0.2420
   62SAPC   H6R 4898   3.343   3.870   6.642  1.5628  2.2463 -0.3747
   62SAPC   C27 4899   3.548   3.861   6.714 -0.3422 -0.8431 -0.2956
   62SAPC   H7R 4900   3.609   3.790   6.654 -1.1539 -1.1465 -0.7738
   62SAPC   H7S 4901   3.600   3.857   6.812  2.0150  2.2913 -1.2828
   62SAPC   C28 4902   3.579   4.008   6.679 -0.3059 -0.3803  0.3058
   62SAPC   H8R 4903   3.582   4.073   6.768  0.4059 -0.0761  0.0612
   62SAPC   C29 4904   3.578   4.061   6.553 -1.4751 -0.4695  0.2965
   62SAPC   H9R 4905   3.599   4.169   6.542 -0.3966 -0.7602 -0.5857
   62SAPC  C210 4906   3.572   3.976   6.424  0.7868  1.3852 -0.1032
   62SAPC  H10R 4907   3.486   3.908   6.441 -0.3869  2.9025  0.2338
   62SAPC  H10S 4908   3.659   3.908   6.420 -1.3851 -1.6565  0.6927
   62SAPC  C211 4909   3.548   4.049   6.293 -0.0449  0.0829 -0.0679
   62SAPC  H11R 4910   3.622   4.017   6.218 -1.0459 -1.9050 -0.2605
   62SAPC  C212 4911   3.451   4.136   6.260  0.1015 -0.3691 -0.0284
   62SAPC  H12R 4912   3.458   4.192   6.166 -0.2229  0.6914  0.5626
   62SAPC  C213 4913   3.327   4.178   6.338 -0.1026  0.1428 -0.3079
   62SAPC  H13R 4914   3.303   4.099   6.413  3.5261 -2.8781 -1.9808
   62SAPC  H13S 4915   3.242   4.184   6.266 -1.8897 -2.4371  1.3957
   62SAPC  C214 4916   3.346   4.313   6.398  0.7497  0.0258 -0.2174
   62SAPC  H14R 4917   3.395   4.318   6.497 -1.5689  1.3047  0.9576
   62SAPC  C215 4918   3.294   4.434   6.349  0.0852 -0.1315  0.9574
   62SAPC  H15R 4919   3.310   4.531   6.397  0.1952  1.0488 -1.3467
   62SAPC  C216 4920   3.242   4.444   6.206 -0.1708  0.0698  0.0554
   62SAPC  H16R 4921   3.137   4.479   6.200 -0.9069 -1.4610  2.6417
   62SAPC  H16S 4922   3.256   4.346   6.156  1.9358 -1.1842  2.7698
   62SAPC  C217 4923   3.333   4.542   6.124 -0.0141  0.8297  0.0047
   62SAPC  H17R 4924   3.309   4.540   6.016  0.9586 -1.0492 -0.2157
   62SAPC  H17S 4925   3.437   4.512   6.151  0.3085  1.2387 -0.7373
   62SAPC  C218 4926   3.310   4.691   6.160  0.1611  0.1294  0.2432
   62SAPC  H18R 4927   3.323   4.679   6.270  1.5344 -1.5434 -0.0768
   62SAPC  H18S 4928   3.209   4.728   6.133  0.2935  0.7737  0.6093
   62SAPC  C219 4929   3.413   4.789   6.106  0.4760  0.0091 -0.5662
   62SAPC  H19R 4930   3.417   4.750   6.002 -0.8050 -0.5819 -0.4135
   62SAPC  H19S 4931   3.508   4.785   6.163  0.2939 -0.2338 -0.2749
   62SAPC  C220 4932   3.354   4.935   6.108  0.3054 -0.0407  0.2454
   62SAPC  H20R 4933   3.336   4.958   6.215 -0.5154 -1.1790  0.3781
   62SAPC  H20S 4934   3.254   4.920   6.062  0.4647  1.6741 -0.7049
   62SAPC  H20T 4935   3.423   5.005   6.057 -0.3707  0.0611 -0.5454
   62SAPC   C33 4936   3.027   3.394   6.747  0.4056  0.7361  0.5370
   62SAPC   H3X 4937   2.995   3.501   6.749  0.7508  0.8765 -0.5508
   62SAPC   H3Y 4938   2.938   3.339   6.783  0.2129  1.4717  1.2027
   62SAPC   C34 4939   3.044   3.354   6.601  0.3235 -0.6653  0.2086
   62SAPC   H4X 4940   3.086   3.251   6.605 -1.3284 -1.4897 -1.7048
   62SAPC   H4Y 4941   3.117   3.417   6.546 -0.6001 -0.2622 -0.5730
   62SAPC   C35 4942   2.908   3.361   6.529  0.2164  0.7670  0.4010
   62SAPC   H5X 4943   2.863   3.463   6.528 -1.9388 -0.1144 -1.3669
   62SAPC   H5Y 4944   2.838   3.292   6.581  0.4843  0.8297  0.8524
   62SAPC   C36 4945   2.943   3.333   6.386  0.5249 -0.2225 -0.6989
   62SAPC   H6X 4946   2.996   3.236   6.378  1.6777  0.3748 -0.4579
   62SAPC   H6Y 4947   3.018   3.410   6.357  0.1544  1.1734  1.7418
   62SAPC   C37 4948   2.832   3.349   6.283  0.1067  0.4276 -0.0106
   62SAPC   H7X 4949   2.771   3.442   6.287 -1.7556 -0.7369 -0.3529
   62SAPC   H7Y 4950   2.757   3.267   6.289  0.0311  0.5386  0.6304
   62SAPC   C38 4951   2.898   3.325   6.145  0.0444  0.0565 -0.2145
   62SAPC   H8X 4952   2.954   3.229   6.144 -0.2672 -0.1352 -1.8972
   62SAPC   H8Y 4953   2.974   3.406   6.140 -0.8386  0.8625 -0.7784
   62SAPC   C39 4954   2.812   3.332   6.028  0.6402  0.4041 -0.4429
   62SAPC   H9X 4955   2.762   3.431   6.018 -2.0217 -0.8244 -0.1723
   62SAPC   H9Y 4956   2.733   3.253   6.032  0.0130  1.0583  0.6810
   62SAPC  C310 4957   2.903   3.305   5.899 -0.4467 -0.5793 -0.0896
   62SAPC  H10X 4958   2.970   3.217   5.903 -1.5030 -1.5446 -2.0072
   62SAPC  H10Y 4959   2.966   3.397   5.894 -1.3355  0.1065  0.8394
   62SAPC  C311 4960   2.809   3.288   5.779  0.7551 -0.6467  0.2059
   62SAPC  H11X 4961   2.755   3.385   5.784 -0.3871 -1.1610 -1.4567
   62SAPC  H11Y 4962   2.736   3.206   5.798  1.1469 -1.1028 -0.2428
   62SAPC  C312 4963   2.860   3.306   5.638 -0.2369  0.8063 -0.0435
   62SAPC  H12X 4964   2.916   3.402   5.629 -2.1461  1.9123 -0.7652
   62SAPC  H12Y 4965   2.775   3.310   5.566 -0.5776 -1.9545  0.1076
   62SAPC  C313 4966   2.945   3.184   5.588 -0.1343 -0.3633 -0.4965
   62SAPC  H13X 4967   2.887   3.089   5.593  0.3520 -0.6266  0.4091
   62SAPC  H13Y 4968   3.027   3.165   5.661 -1.2485 -2.4876  0.3148
   62SAPC  C314 4969   3.006   3.200   5.450  0.2072 -0.1680  0.3753
   62SAPC  H14X 4970   3.083   3.124   5.424 -1.6002 -0.9584 -3.2143
   62SAPC  H14Y 4971   3.053   3.300   5.453  2.3241 -1.1179  1.3399
   62SAPC  C315 4972   2.899   3.202   5.337 -0.0188 -0.7336  0.9273
   62SAPC  H15X 4973   2.942   3.270   5.260 -0.5894 -0.9432  0.4097
   62SAPC  H15Y 4974   2.812   3.263   5.370  0.1857 -0.8294  1.6425
   62SAPC  C316 4975   2.866   3.065   5.276 -0.1440  0.0000 -0.3503
   62SAPC  H16X 4976   2.767   3.074   5.228  0.5978  1.3317 -1.7094
   62SAPC  H16Y 4977   2.863   2.987   5.356  1.0908  0.6400  0.3557
   62SAPC  C317 4978   2.946   3.015   5.153  0.2651  0.3821  0.8412
   62SAPC  H17X 4979   3.049   3.005   5.192  0.2229 -0.1925  0.8089
   62SAPC  H17Y 4980   2.933   3.108   5.093  0.7114  0.6099  1.0977
   62SAPC  C318 4981   2.895   2.901   5.071 -0.2250  0.9387  0.0050
   62SAPC  H18X 4982   2.963   2.869   4.989 -1.6470  1.8841 -1.6135
   62SAPC  H18Y 4983   2.799   2.906   5.015  0.3901  0.0867 -1.1636
   62SAPC  H18Z 4984   2.886   2.810   5.134  3.1984 -1.3843 -2.5266
   63SAPC     N 4985   2.779   0.892   7.972 -0.2004 -0.0837 -0.0737
   63SAPC   C12 4986   2.679   0.785   7.943 -0.1445 -0.0223  0.4818
   63SAPC  H12A 4987   2.659   0.728   8.032 -3.6468  1.9322  1.1242
   63SAPC  H12B 4988   2.729   0.721   7.872  0.3748  0.9194 -0.0210
   63SAPC   C13 4989   2.907   0.842   8.021  0.5509 -0.0429  0.3866
   63SAPC  H13A 4990   2.963   0.794   7.943  1.6937  1.3127  0.3390
   63SAPC  H13B 4991   2.966   0.926   8.055  1.4351 -0.2440 -0.5994
   63SAPC  H13C 4992   2.895   0.773   8.103 -0.3594 -0.7788 -0.3408
   63SAPC   C14 4993   2.801   0.967   7.844 -0.4590  0.2371 -0.5725
   63SAPC  H14A 4994   2.715   0.998   7.786 -2.4726 -2.4580  0.7228
   63SAPC  H14B 4995   2.866   1.049   7.866 -0.2016 -0.5217  1.7263
   63SAPC  H14C 4996   2.851   0.896   7.780 -1.6520  0.1435 -1.4372
   63SAPC   C15 4997   2.722   0.987   8.077 -1.1434 -0.2401 -0.1008
   63SAPC  H15A 4998   2.790   1.065   8.109  0.9993 -2.2137  0.4075
   63SAPC  H15B 4999   2.638   1.039   8.035 -0.1164 -0.2062 -2.2335
   63SAPC  H15C 5000   2.696   0.937   8.170 -2.1711  0.0408 -0.2265
   63SAPC   C11 5001   2.545   0.831   7.895  0.2348 -0.0329 -0.1403
   63SAPC  H11A 5002   2.512   0.921   7.951  0.4252 -0.4903  0.7246
   63SAPC  H11B 5003   2.469   0.758   7.930 -0.3154  1.3340  1.6608
   63SAPC     P 5004   2.576   0.760   7.649 -0.1557  0.0778  0.6507
   63SAPC   O13 5005   2.716   0.709   7.668 -0.2184 -0.1303 -0.1992
   63SAPC   O14 5006   2.466   0.658   7.653  0.1415 -0.6985  0.5654
   63SAPC   O12 5007   2.545   0.870   7.755  0.6828  0.2501  0.5722
   63SAPC   O11 5008   2.562   0.841   7.516  0.0836  0.1343 -0.2787
   63SAPC    C1 5009   2.444   0.925   7.497  0.2288  0.2663  0.5624
   63SAPC    HA 5010   2.348   0.883   7.535  0.7298 -1.6061 -0.1656
   63SAPC    HB 5011   2.464   1.019   7.553  1.6083  0.6119 -0.4608
   63SAPC    C2 5012   2.430   0.965   7.338 -0.1132  0.0372 -0.1765
   63SAPC    HS 5013   2.339   1.029   7.333 -0.8291 -1.0076 -0.9117
   63SAPC   O21 5014   2.425   0.855   7.246  0.4221 -0.0495 -0.1691
   63SAPC   C21 5015   2.322   0.774   7.275  0.0970  0.0708  0.0555
   63SAPC   O22 5016   2.216   0.806   7.327 -0.8425  0.7396  0.0129
   63SAPC   C22 5017   2.367   0.632   7.248  0.3250 -0.0040 -0.1181
   63SAPC   H2R 5018   2.429   0.612   7.158  0.9419  0.2738  0.2377
   63SAPC   H2S 5019   2.418   0.595   7.340  1.6719 -0.7711 -1.1246
   63SAPC    C3 5020   2.549   1.058   7.311  0.4790  0.2318 -0.6946
   63SAPC    HX 5021   2.633   0.993   7.343 -1.2755 -1.7557  0.0818
   63SAPC    HY 5022   2.547   1.142   7.384  0.5181 -1.2535  1.0844
   63SAPC   O31 5023   2.560   1.102   7.170  0.0931  0.1961 -0.7651
   63SAPC   C31 5024   2.453   1.176   7.132 -0.8640  0.2788 -0.0819
   63SAPC   O32 5025   2.370   1.220   7.212  0.1114  0.5493  0.5321
   63SAPC   C32 5026   2.444   1.198   6.989 -0.2392  0.0852 -0.0233
   63SAPC   H2X 5027   2.549   1.207   6.952 -0.8859 -1.1169 -2.3358
   63SAPC   H2Y 5028   2.392   1.294   6.968 -0.7192 -0.4721 -1.5429
   63SAPC   C23 5029   2.253   0.529   7.247 -0.3045 -0.1404 -0.1456
   63SAPC   H3R 5030   2.175   0.570   7.314  1.1205  0.7203  1.0385
   63SAPC   H3S 5031   2.297   0.430   7.274  0.3314  0.0265 -0.5427
   63SAPC   C24 5032   2.186   0.502   7.113 -0.4323  0.5867  0.3467
   63SAPC   H4R 5033   2.102   0.431   7.128  0.2677 -0.1834  0.6779
   63SAPC   H4S 5034   2.263   0.461   7.044  1.2418  3.8766  0.0717
   63SAPC   C25 5035   2.140   0.632   7.040  0.3325  0.6045  0.9628
   63SAPC   H5R 5036   2.093   0.706   7.106 -2.5589 -0.1894 -0.0747
   63SAPC   C26 5037   2.153   0.666   6.906  0.4239  0.3043 -0.2406
   63SAPC   H6R 5038   2.110   0.761   6.870 -1.4888 -1.0207 -1.6477
   63SAPC   C27 5039   2.211   0.588   6.796 -0.2540 -0.3345  0.4734
   63SAPC   H7R 5040   2.286   0.513   6.828 -0.7031  0.1889  2.9041
   63SAPC   H7S 5041   2.278   0.657   6.739 -1.7378 -1.9259 -3.6070
   63SAPC   C28 5042   2.118   0.528   6.704 -0.0892  1.0951 -0.3852
   63SAPC   H8R 5043   2.059   0.449   6.754  1.2869  1.4188  1.9001
   63SAPC   C29 5044   2.112   0.537   6.570 -0.0379 -0.4900 -0.5507
   63SAPC   H9R 5045   2.048   0.468   6.513 -0.6921  1.1298 -1.8685
   63SAPC  C210 5046   2.186   0.631   6.478 -0.0588 -0.3430  0.0666
   63SAPC  H10R 5047   2.205   0.717   6.545  4.3547 -1.5818  0.7049
   63SAPC  H10S 5048   2.130   0.664   6.387  0.7564 -0.0844 -0.3506
   63SAPC  C211 5049   2.333   0.597   6.445 -0.3997 -0.1262 -0.2649
   63SAPC  H11R 5050   2.398   0.598   6.534 -0.5735 -2.9597 -0.0251
   63SAPC  C212 5051   2.379   0.596   6.321 -0.2072  0.3350  0.5539
   63SAPC  H12R 5052   2.487   0.581   6.315 -0.2355 -0.0172  0.9117
   63SAPC  C213 5053   2.295   0.600   6.194 -0.0385  0.5943 -0.5176
   63SAPC  H13R 5054   2.195   0.553   6.208  1.0478 -1.3591  1.2232
   63SAPC  H13S 5055   2.344   0.527   6.126 -0.4117 -1.8349  1.6813
   63SAPC  C214 5056   2.291   0.731   6.132  0.0755  0.6906 -0.5451
   63SAPC  H14R 5057   2.304   0.815   6.201 -1.8705  1.9408 -1.6114
   63SAPC  C215 5058   2.256   0.752   6.005 -0.3794  0.4821  0.6660
   63SAPC  H15R 5059   2.265   0.858   5.978 -0.3875  0.0955 -0.9670
   63SAPC  C216 5060   2.231   0.645   5.900  0.4926 -0.3213  0.0636
   63SAPC  H16R 5061   2.131   0.668   5.857  0.2417 -1.0342  0.2501
   63SAPC  H16S 5062   2.235   0.539   5.932 -0.3773 -1.1697 -2.3698
   63SAPC  C217 5063   2.336   0.669   5.786  0.4456 -0.0350  0.8786
   63SAPC  H17R 5064   2.434   0.623   5.811  1.2051 -0.0023 -1.7455
   63SAPC  H17S 5065   2.351   0.778   5.770 -1.4166 -0.0738 -1.8126
   63SAPC  C218 5066   2.312   0.598   5.653 -0.6992 -0.1834  0.3753
   63SAPC  H18R 5067   2.357   0.657   5.571  0.4757 -0.8467  0.5258
   63SAPC  H18S 5068   2.204   0.605   5.626 -0.7522  0.5631  0.7536
   63SAPC  C219 5069   2.349   0.448   5.653 -0.3651 -0.4593  0.3423
   63SAPC  H19R 5070   2.259   0.384   5.663 -1.0219 -0.0131 -2.0643
   63SAPC  H19S 5071   2.410   0.431   5.744  0.4654  1.9947  0.2980
   63SAPC  C220 5072   2.427   0.396   5.528 -0.0508  0.1590  0.4032
   63SAPC  H20R 5073   2.446   0.290   5.554 -0.0402  0.4974  1.8529
   63SAPC  H20S 5074   2.530   0.438   5.526  0.5265 -0.8979  3.4496
   63SAPC  H20T 5075   2.368   0.408   5.434 -1.6640 -1.2516  1.1838
   63SAPC   C33 5076   2.371   1.072   6.925 -1.2729 -0.5820  0.0076
   63SAPC   H3X 5077   2.270   1.050   6.965 -0.9416 -1.1283  0.5653
   63SAPC   H3Y 5078   2.439   0.988   6.951 -0.2971  0.4402  0.8748
   63SAPC   C34 5079   2.357   1.103   6.774  0.1354  0.5249 -0.4825
   63SAPC   H4X 5080   2.447   1.155   6.734  2.0573 -1.4206  1.0063
   63SAPC   H4Y 5081   2.279   1.178   6.754 -0.0847 -0.0010 -1.6583
   63SAPC   C35 5082   2.345   0.979   6.686  0.7239 -0.2636  0.1503
   63SAPC   H5X 5083   2.260   0.919   6.725 -2.1593  1.5108 -2.8607
   63SAPC   H5Y 5084   2.436   0.918   6.696 -1.0517 -2.8838  1.4522
   63SAPC   C36 5085   2.316   1.025   6.543  0.3816  0.2753 -0.2584
   63SAPC   H6X 5086   2.237   1.103   6.547  1.8691  1.7985  1.0547
   63SAPC   H6Y 5087   2.288   0.933   6.488  0.2304 -1.8929  3.1675
   63SAPC   C37 5088   2.448   1.075   6.474 -0.4045 -0.3036  0.2888
   63SAPC   H7X 5089   2.528   1.000   6.489 -0.4274 -0.2796  0.5259
   63SAPC   H7Y 5090   2.468   1.175   6.518 -2.6881  0.6151 -0.5935
   63SAPC   C38 5091   2.428   1.101   6.325  0.2901 -0.2659 -0.8533
   63SAPC   H8X 5092   2.363   1.189   6.309 -0.4830 -0.7346 -0.3143
   63SAPC   H8Y 5093   2.386   1.009   6.279  0.7576 -2.2767  2.4293
   63SAPC   C39 5094   2.568   1.116   6.261 -0.8650 -0.1172  0.8321
   63SAPC   H9X 5095   2.630   1.028   6.288  1.3174  0.5078 -1.6773
   63SAPC   H9Y 5096   2.627   1.196   6.310  2.1059 -1.1608 -0.8257
   63SAPC  C310 5097   2.570   1.116   6.105 -1.0017 -0.1658  0.1487
   63SAPC  H10X 5098   2.500   1.195   6.071 -3.0451 -1.0125  2.1400
   63SAPC  H10Y 5099   2.520   1.020   6.077  1.3963 -1.8427  1.2374
   63SAPC  C311 5100   2.716   1.141   6.046 -0.7725 -0.9302 -0.2163
   63SAPC  H11X 5101   2.779   1.067   6.099 -2.6596 -1.9590  0.7261
   63SAPC  H11Y 5102   2.750   1.244   6.070 -0.6247 -0.9796 -0.2150
   63SAPC  C312 5103   2.731   1.142   5.891 -0.8141  1.0486  0.4832
   63SAPC  H12X 5104   2.667   1.224   5.853 -2.9564 -1.3482 -1.3911
   63SAPC  H12Y 5105   2.665   1.063   5.850 -0.5341  1.1770 -0.2162
   63SAPC  C313 5106   2.871   1.156   5.832  0.3155  0.1777 -0.2588
   63SAPC  H13X 5107   2.921   1.065   5.872 -0.9196 -1.3121 -1.9220
   63SAPC  H13Y 5108   2.923   1.252   5.849 -2.1352  1.7142 -0.8961
   63SAPC  C314 5109   2.860   1.138   5.679  0.5325  0.6896 -0.8044
   63SAPC  H14X 5110   2.770   1.080   5.650  1.1957 -0.1658 -1.2003
   63SAPC  H14Y 5111   2.946   1.077   5.645  0.0507 -3.3596  4.0600
   63SAPC  C315 5112   2.858   1.270   5.599 -0.5741  0.8180 -0.0876
   63SAPC  H15X 5113   2.959   1.314   5.615  0.4853 -1.4911 -0.0301
   63SAPC  H15Y 5114   2.785   1.342   5.640 -1.5239 -0.0472 -0.2108
   63SAPC  C316 5115   2.843   1.253   5.447  0.4026 -0.7107  0.5468
   63SAPC  H16X 5116   2.735   1.234   5.428  0.8019 -1.5648 -1.1083
   63SAPC  H16Y 5117   2.903   1.177   5.393  3.1222  2.7755 -1.7849
   63SAPC  C317 5118   2.907   1.372   5.374 -0.2932  0.1324 -0.5773
   63SAPC  H17X 5119   3.012   1.358   5.405  0.1554 -0.8670 -2.4198
   63SAPC  H17Y 5120   2.864   1.463   5.421 -3.5909 -1.7764  0.4217
   63SAPC  C318 5121   2.904   1.360   5.222  0.6166  0.0699  0.3565
   63SAPC  H18X 5122   2.801   1.339   5.187  1.0186  0.0575 -0.8747
   63SAPC  H18Y 5123   2.972   1.278   5.192  0.5802  0.5002 -0.9429
   63SAPC  H18Z 5124   2.934   1.453   5.169  0.2460  0.3340  0.6014
   64SAPC     N 5125   2.552   1.841   7.608 -0.7174  0.0156  0.5899
   64SAPC   C12 5126   2.420   1.774   7.593  0.0479  0.5035  0.2168
   64SAPC  H12A 5127   2.435   1.669   7.614  0.6141  0.2686 -1.3179
   64SAPC  H12B 5128   2.397   1.790   7.489  2.4149 -0.8064 -0.5772
   64SAPC   C13 5129   2.597   1.838   7.756 -0.7940 -0.1132 -0.2351
   64SAPC  H13A 5130   2.684   1.902   7.764  0.8232 -2.4160  1.8157
   64SAPC  H13B 5131   2.519   1.876   7.821 -1.3488  0.4528 -1.1988
   64SAPC  H13C 5132   2.630   1.742   7.793  2.3621  0.5443 -1.0114
   64SAPC   C14 5133   2.659   1.777   7.525  0.1472  0.2728 -0.8079
   64SAPC  H14A 5134   2.660   1.671   7.546 -2.3419  0.3308 -0.1462
   64SAPC  H14B 5135   2.640   1.788   7.420  1.2317  0.2229 -1.0260
   64SAPC  H14C 5136   2.757   1.818   7.547 -0.6068  1.8822 -0.3153
   64SAPC   C15 5137   2.541   1.986   7.561 -0.0533  0.7302  0.2656
   64SAPC  H15A 5138   2.464   2.029   7.624 -1.6693 -0.8338 -0.5561
   64SAPC  H15B 5139   2.635   2.039   7.565 -0.3317  1.1697  1.7250
   64SAPC  H15C 5140   2.503   1.988   7.460  1.0490 -0.3012 -0.1903
   64SAPC   C11 5141   2.305   1.828   7.678 -0.2415  0.4168  0.5547
   64SAPC  H11A 5142   2.339   1.854   7.780 -1.8187  1.3468  0.8790
   64SAPC  H11B 5143   2.222   1.755   7.683  0.0718 -0.0729 -0.8468
   64SAPC     P 5144   2.153   2.043   7.669  0.1389  0.1393  0.2048
   64SAPC   O13 5145   2.022   1.968   7.663  0.2617 -0.2749 -0.1634
   64SAPC   O14 5146   2.192   2.094   7.800 -0.3985  0.5868 -0.2335
   64SAPC   O12 5147   2.263   1.952   7.603  0.1353  0.7135 -0.8512
   64SAPC   O11 5148   2.134   2.168   7.574  0.0247 -0.7166  0.2421
   64SAPC    C1 5149   2.226   2.217   7.475  0.3086 -0.1979  0.5296
   64SAPC    HA 5150   2.188   2.311   7.428  0.9967 -0.1473  0.0595
   64SAPC    HB 5151   2.326   2.249   7.509 -0.2567  0.9733  1.1694
   64SAPC    C2 5152   2.220   2.125   7.349  0.2445 -0.1456  0.2360
   64SAPC    HS 5153   2.259   2.026   7.381  0.9970 -0.4588 -1.5185
   64SAPC   O21 5154   2.293   2.187   7.239  1.1434  0.0467 -0.1030
   64SAPC   C21 5155   2.414   2.157   7.216  0.7250  0.6861 -0.3349
   64SAPC   O22 5156   2.476   2.071   7.277  0.2251 -0.7570 -0.4907
   64SAPC   C22 5157   2.464   2.228   7.086  0.6745 -0.2487  0.2735
   64SAPC   H2R 5158   2.372   2.265   7.037  0.8856 -1.7233 -1.3119
   64SAPC   H2S 5159   2.520   2.318   7.120 -0.4318  1.1938 -1.5423
   64SAPC    C3 5160   2.071   2.094   7.308  0.8278  0.7090  0.3918
   64SAPC    HX 5161   2.022   2.194   7.304  0.6820  0.6822  1.1979
   64SAPC    HY 5162   2.018   2.036   7.386  1.0346 -0.8592 -0.6014
   64SAPC   O31 5163   2.062   2.034   7.176  0.2187  0.7376  0.0336
   64SAPC   C31 5164   2.072   1.899   7.178 -0.1715 -0.9159  0.0099
   64SAPC   O32 5165   2.090   1.831   7.279  1.4380 -0.4934 -0.1475
   64SAPC   C32 5166   2.048   1.855   7.034 -0.4428  0.3512  0.0420
   64SAPC   H2X 5167   2.063   1.942   6.967  1.8557  0.1692  0.2466
   64SAPC   H2Y 5168   1.944   1.816   7.038 -0.3893  0.2458  0.4526
   64SAPC   C23 5169   2.550   2.142   6.981  0.4816  0.3928 -0.9277
   64SAPC   H3R 5170   2.601   2.055   7.028 -1.5301 -0.0804  0.5365
   64SAPC   H3S 5171   2.630   2.208   6.941  1.1896  0.2496  0.2075
   64SAPC   C24 5172   2.476   2.104   6.853 -0.3728 -0.0147 -0.1788
   64SAPC   H4R 5173   2.443   2.192   6.794 -0.6312  1.8204  2.5193
   64SAPC   H4S 5174   2.388   2.042   6.878 -0.2873 -0.2136 -0.3700
   64SAPC   C25 5175   2.564   2.019   6.766 -0.0831 -0.0687  0.2097
   64SAPC   H5R 5176   2.668   2.023   6.800 -0.0266  1.8037 -0.0889
   64SAPC   C26 5177   2.529   1.979   6.635 -0.1266  0.1638 -0.6903
   64SAPC   H6R 5178   2.610   1.927   6.582 -1.4254 -0.6400 -1.9650
   64SAPC   C27 5179   2.394   1.993   6.571 -0.1625 -0.2202 -0.3185
   64SAPC   H7R 5180   2.397   2.069   6.490 -2.7964 -0.9425 -1.1954
   64SAPC   H7S 5181   2.325   2.040   6.643 -0.2954  0.4553 -0.8832
   64SAPC   C28 5182   2.331   1.863   6.525  0.1384  0.9156  0.6244
   64SAPC   H8R 5183   2.320   1.786   6.602  1.4097  0.2663  0.1737
   64SAPC   C29 5184   2.297   1.825   6.397 -0.8716 -0.1323 -0.3862
   64SAPC   H9R 5185   2.242   1.731   6.385  1.2680 -1.6745  1.1723
   64SAPC  C210 5186   2.299   1.904   6.273  0.1715  1.0412 -0.0869
   64SAPC  H10R 5187   2.376   1.984   6.282 -0.8675  1.8816  2.2011
   64SAPC  H10S 5188   2.200   1.949   6.252 -0.9579 -1.4419 -0.4030
   64SAPC  C211 5189   2.335   1.814   6.159  0.3738 -0.0480  0.0094
   64SAPC  H11R 5190   2.418   1.749   6.190 -0.8531 -1.9270 -0.4991
   64SAPC  C212 5191   2.299   1.816   6.029 -0.7449 -0.6356 -0.4426
   64SAPC  H12R 5192   2.354   1.746   5.964  1.5350  0.7836 -0.1608
   64SAPC  C213 5193   2.190   1.897   5.969 -0.3046  0.5504  0.3298
   64SAPC  H13R 5194   2.117   1.913   6.051 -0.3499 -1.4263  0.7408
   64SAPC  H13S 5195   2.133   1.821   5.911  0.5271  0.2530 -0.1129
   64SAPC  C214 5196   2.214   2.006   5.870  1.1912 -0.1916  0.2642
   64SAPC  H14R 5197   2.226   2.104   5.919  2.7958 -1.1538  1.9062
   64SAPC  C215 5198   2.227   1.991   5.737  0.6278  0.4368 -0.2834
   64SAPC  H15R 5199   2.217   2.084   5.679  1.4893  1.4383  1.1050
   64SAPC  C216 5200   2.227   1.871   5.652 -0.2844 -0.6169  0.0633
   64SAPC  H16R 5201   2.228   1.782   5.718  0.0284 -1.1441 -0.6449
   64SAPC  H16S 5202   2.327   1.866   5.604 -0.0760 -0.0612  0.4227
   64SAPC  C217 5203   2.119   1.859   5.542  0.2676  0.3515 -0.4360
   64SAPC  H17R 5204   2.122   1.946   5.473  0.7751  0.6719 -0.0129
   64SAPC  H17S 5205   2.020   1.862   5.592 -1.0640 -0.3175 -2.8272
   64SAPC  C218 5206   2.137   1.731   5.459  0.0766  0.0386  0.8977
   64SAPC  H18R 5207   2.150   1.650   5.534 -0.5166  1.2393  2.3409
   64SAPC  H18S 5208   2.234   1.730   5.405  0.7198 -1.7068  1.9832
   64SAPC  C219 5209   2.022   1.705   5.358 -0.7390  0.1614  0.5292
   64SAPC  H19R 5210   2.059   1.616   5.303  1.1540 -0.1131  2.1299
   64SAPC  H19S 5211   1.998   1.787   5.287  0.1388 -0.3481 -0.3782
   64SAPC  C220 5212   1.892   1.666   5.427 -0.1196  0.1404  0.1560
   64SAPC  H20R 5213   1.808   1.648   5.356 -1.4615 -0.3754  1.8037
   64SAPC  H20S 5214   1.870   1.745   5.502 -0.4303  0.2252 -0.0225
   64SAPC  H20T 5215   1.912   1.572   5.483  1.0378  0.2237 -0.0945
   64SAPC   C33 5216   2.143   1.742   6.996  0.1403  0.0367  0.6300
   64SAPC   H3X 5217   2.098   1.653   7.045  0.8854 -0.0674  1.1328
   64SAPC   H3Y 5218   2.249   1.769   7.016 -0.0487  2.2223 -0.9506
   64SAPC   C34 5219   2.134   1.701   6.842  0.1783 -0.0320  0.2614
   64SAPC   H4X 5220   2.219   1.645   6.796  0.0494 -0.0341  0.0228
   64SAPC   H4Y 5221   2.131   1.796   6.784  1.1213  0.9541  1.7525
   64SAPC   C35 5222   2.009   1.623   6.810  0.0888 -0.4785 -0.3388
   64SAPC   H5X 5223   1.922   1.667   6.863 -0.9565 -2.0950 -0.6643
   64SAPC   H5Y 5224   2.025   1.529   6.867 -0.3897  0.4855  1.4534
   64SAPC   C36 5225   1.965   1.608   6.666  0.0218  0.4839 -0.6387
   64SAPC   H6X 5226   1.968   1.710   6.622  4.2694  0.9348  0.2616
   64SAPC   H6Y 5227   1.858   1.578   6.666 -0.3447  1.7169  0.3026
   64SAPC   C37 5228   2.052   1.517   6.581 -0.2432 -0.2661  0.1772
   64SAPC   H7X 5229   2.036   1.411   6.610 -2.0508 -0.0313  0.2059
   64SAPC   H7Y 5230   2.161   1.535   6.588 -0.3458 -0.2787  2.6924
   64SAPC   C38 5231   2.015   1.516   6.429  0.8643 -0.4005  0.5117
   64SAPC   H8X 5232   2.015   1.619   6.386 -1.4280 -0.0837  1.1484
   64SAPC   H8Y 5233   1.906   1.496   6.422  0.8584 -0.6963  1.3483
   64SAPC   C39 5234   2.090   1.424   6.332 -0.0538 -0.4922  0.2197
   64SAPC   H9X 5235   2.028   1.332   6.325  2.1135 -2.0848  0.7959
   64SAPC   H9Y 5236   2.177   1.377   6.382 -0.3948  0.8532  2.2144
   64SAPC  C310 5237   2.124   1.493   6.200 -0.5678  0.1173  0.3954
   64SAPC  H10X 5238   2.200   1.571   6.221  0.4744 -1.1156  1.4209
   64SAPC  H10Y 5239   2.031   1.543   6.167 -0.2665 -0.1500 -0.9067
   64SAPC  C311 5240   2.166   1.395   6.088 -0.7573 -0.1577  0.5514
   64SAPC  H11X 5241   2.074   1.342   6.056 -1.9819  0.9166  2.1537
   64SAPC  H11Y 5242   2.229   1.317   6.137  0.5063  1.0612  0.9390
   64SAPC  C312 5243   2.239   1.464   5.964 -0.1658 -0.0803 -0.5096
   64SAPC  H12X 5244   2.342   1.490   5.996 -0.5678  1.3375 -0.3055
   64SAPC  H12Y 5245   2.193   1.565   5.962  1.2828  0.7545  2.4099
   64SAPC  C313 5246   2.225   1.399   5.836  0.6919  0.0781 -0.7063
   64SAPC  H13X 5247   2.122   1.410   5.798  0.6076  1.0673 -0.2107
   64SAPC  H13Y 5248   2.265   1.296   5.847 -1.1099 -0.7025 -1.1701
   64SAPC  C314 5249   2.312   1.471   5.722 -0.4443  0.5466 -0.2355
   64SAPC  H14X 5250   2.411   1.494   5.766 -0.2841  0.8874 -0.7624
   64SAPC  H14Y 5251   2.261   1.569   5.709 -1.6480  0.2859  2.0485
   64SAPC  C315 5252   2.323   1.395   5.588 -0.0179 -0.8456  0.3339
   64SAPC  H15X 5253   2.362   1.465   5.511 -0.9625  1.8013  2.1213
   64SAPC  H15Y 5254   2.218   1.378   5.556 -0.3068  1.2574 -0.0191
   64SAPC  C316 5255   2.405   1.268   5.593 -0.1816  0.0805  0.4256
   64SAPC  H16X 5256   2.359   1.198   5.666 -1.3658  0.2630 -0.1254
   64SAPC  H16Y 5257   2.507   1.287   5.633 -0.4653 -0.9473  1.7301
   64SAPC  C317 5258   2.410   1.193   5.457 -0.5817 -0.6339 -0.4206
   64SAPC  H17X 5259   2.453   1.265   5.385 -1.9348 -0.0445 -0.6719
   64SAPC  H17Y 5260   2.308   1.161   5.428 -0.3332 -0.5257 -1.4514
   64SAPC  C318 5261   2.501   1.068   5.448  0.7008  0.2245  0.1775
   64SAPC  H18X 5262   2.591   1.090   5.510  0.7659  0.0645  0.1397
   64SAPC  H18Y 5263   2.527   1.055   5.341 -2.2450  0.9086 -0.7106
   64SAPC  H18Z 5264   2.442   0.979   5.479  2.5210 -0.5879  1.5439
   65SAPC     N 5265   1.613   1.796   3.151 -1.0126  0.2442 -0.3049
   65SAPC   C12 5266   1.523   1.836   3.268 -0.4218  0.0106 -0.0603
   65SAPC  H12A 5267   1.484   1.937   3.259  0.1937  0.3081  0.5480
   65SAPC  H12B 5268   1.592   1.838   3.351  0.8329 -2.3213 -0.9703
   65SAPC   C13 5269   1.715   1.905   3.138 -0.1592  0.0264 -0.1745
   65SAPC  H13A 5270   1.784   1.874   3.061  1.9409  1.6372  0.9792
   65SAPC  H13B 5271   1.672   1.997   3.103  0.8076 -0.0735 -1.7287
   65SAPC  H13C 5272   1.777   1.917   3.225 -0.3939  0.2578 -0.0359
   65SAPC   C14 5273   1.677   1.662   3.179 -0.3983 -0.2857 -0.9056
   65SAPC  H14A 5274   1.731   1.656   3.272  1.4276  0.2276 -1.8859
   65SAPC  H14B 5275   1.610   1.576   3.178  0.1210 -0.7654  1.1128
   65SAPC  H14C 5276   1.755   1.647   3.106  1.8318  1.8642  0.8735
   65SAPC   C15 5277   1.535   1.785   3.025  0.1826  0.2723  0.2806
   65SAPC  H15A 5278   1.459   1.709   3.038  0.2963 -0.1106 -1.1587
   65SAPC  H15B 5279   1.497   1.880   2.992  1.0705 -0.0581 -1.8019
   65SAPC  H15C 5280   1.599   1.740   2.951  1.0458  0.9219  0.6205
   65SAPC   C11 5281   1.404   1.755   3.314  0.4043  0.0797 -0.5092
   65SAPC  H11A 5282   1.365   1.810   3.402  0.4833  0.1658 -0.5278
   65SAPC  H11B 5283   1.441   1.652   3.335  2.6435  0.8003 -0.6561
   65SAPC     P 5284   1.199   1.855   3.199 -0.1485  0.1355  0.1351
   65SAPC   O13 5285   1.225   1.974   3.285 -0.3408  0.4836  0.0449
   65SAPC   O14 5286   1.184   1.886   3.058 -0.4450 -0.0616  0.3769
   65SAPC   O12 5287   1.306   1.740   3.220 -0.0036 -0.6935 -0.3632
   65SAPC   O11 5288   1.066   1.779   3.247  0.5403  0.4280  0.9969
   65SAPC    C1 5289   1.076   1.690   3.362 -0.9250 -0.0447  0.6620
   65SAPC    HA 5290   1.100   1.588   3.326 -1.3263  0.7327 -2.0904
   65SAPC    HB 5291   1.150   1.736   3.431 -1.1783  1.6376 -0.1261
   65SAPC    C2 5292   0.947   1.674   3.449  0.7929  0.7800  0.2381
   65SAPC    HS 5293   0.875   1.638   3.373  2.1123 -1.1206 -0.1879
   65SAPC   O21 5294   0.904   1.802   3.514 -0.7204  0.1215  0.0755
   65SAPC   C21 5295   0.818   1.882   3.448 -0.3065 -0.4028 -0.1156
   65SAPC   O22 5296   0.746   1.846   3.357 -0.3025  0.3826  0.1718
   65SAPC   C22 5297   0.825   2.026   3.506 -0.4498 -0.1353  0.2919
   65SAPC   H2R 5298   0.820   2.091   3.415  1.2563  1.2334  1.1141
   65SAPC   H2S 5299   0.730   2.047   3.560 -1.1817 -1.0592 -0.6065
   65SAPC    C3 5300   0.965   1.567   3.560  0.1367  0.0547 -0.1223
   65SAPC    HX 5301   1.031   1.487   3.521 -0.5623  0.3306 -1.9687
   65SAPC    HY 5302   0.866   1.523   3.582 -0.1153 -0.2157 -1.6511
   65SAPC   O31 5303   1.029   1.620   3.684 -0.3044  0.4133 -0.2708
   65SAPC   C31 5304   0.946   1.658   3.778  0.6863  1.1355  0.1454
   65SAPC   O32 5305   0.825   1.654   3.766 -0.0103 -0.2380  0.1385
   65SAPC   C32 5306   1.025   1.713   3.902 -0.1265  0.2888 -0.6795
   65SAPC   H2X 5307   0.958   1.677   3.983 -0.6393  0.7477 -0.8937
   65SAPC   H2Y 5308   1.019   1.823   3.893 -0.7227  0.1977 -1.5079
   65SAPC   C23 5309   0.944   2.057   3.598  0.5233 -0.3816 -0.4967
   65SAPC   H3R 5310   1.035   2.039   3.538  0.6213 -2.0899  0.0947
   65SAPC   H3S 5311   0.934   1.981   3.679  1.9282  0.2376  0.3050
   65SAPC   C24 5312   0.949   2.196   3.665  0.6155  0.6662  0.3688
   65SAPC   H4R 5313   0.848   2.229   3.698 -0.8282 -1.5869 -1.5236
   65SAPC   H4S 5314   0.978   2.268   3.585  1.6962 -0.5307 -0.3447
   65SAPC   C25 5315   1.052   2.189   3.773  0.3161 -0.1450 -0.5730
   65SAPC   H5R 5316   1.158   2.175   3.745  0.8138  1.0581  0.6230
   65SAPC   C26 5317   1.026   2.187   3.910 -0.8200  0.2157 -0.1655
   65SAPC   H6R 5318   1.110   2.158   3.975  3.0178  2.6853 -3.5046
   65SAPC   C27 5319   0.889   2.201   3.972 -1.1301 -0.2685 -0.8677
   65SAPC   H7R 5320   0.816   2.197   3.889  0.9664 -1.5054 -2.7891
   65SAPC   H7S 5321   0.869   2.305   4.005 -0.5852  0.1456 -1.8192
   65SAPC   C28 5322   0.866   2.110   4.093  0.5609  0.3407 -0.0950
   65SAPC   H8R 5323   0.813   2.017   4.068  0.3746  1.0364 -2.5297
   65SAPC   C29 5324   0.923   2.135   4.215  0.7073 -0.0030  0.1830
   65SAPC   H9R 5325   0.896   2.059   4.289  1.1980  0.1126  0.4788
   65SAPC  C210 5326   0.992   2.259   4.255  0.3445 -0.5558  0.4851
   65SAPC  H10R 5327   0.924   2.322   4.316  0.2178  0.5255 -0.7427
   65SAPC  H10S 5328   1.028   2.322   4.171 -0.2942 -0.1618  0.5014
   65SAPC  C211 5329   1.111   2.238   4.344 -1.0012  0.1772 -0.4066
   65SAPC  H11R 5330   1.209   2.254   4.297 -0.2988  1.1714  1.3184
   65SAPC  C212 5331   1.103   2.216   4.479  0.0609  0.3515  0.0199
   65SAPC  H12R 5332   1.193   2.197   4.539  1.2718  0.0426 -1.8015
   65SAPC  C213 5333   0.981   2.215   4.569  0.4209 -0.1952 -0.5762
   65SAPC  H13R 5334   0.950   2.124   4.623 -2.4547  0.6859 -0.5707
   65SAPC  H13S 5335   0.887   2.239   4.514 -0.0405  0.7856  0.5818
   65SAPC  C214 5336   0.995   2.327   4.671  0.3300  0.1804  0.4313
   65SAPC  H14R 5337   1.077   2.399   4.659 -0.3641  1.1561  1.3280
   65SAPC  C215 5338   0.909   2.346   4.775  0.0590  0.7021 -0.8680
   65SAPC  H15R 5339   0.923   2.436   4.837 -0.8006  0.2738 -0.0255
   65SAPC  C216 5340   0.793   2.255   4.808  0.4311 -0.3594  0.4264
   65SAPC  H16R 5341   0.779   2.171   4.737 -1.5526 -0.6184  1.0460
   65SAPC  H16S 5342   0.697   2.308   4.827  1.1670 -0.0072  3.7968
   65SAPC  C217 5343   0.837   2.186   4.938 -0.5292 -0.1553  0.3358
   65SAPC  H17R 5344   0.932   2.132   4.918 -0.2452  0.4804 -0.0613
   65SAPC  H17S 5345   0.760   2.106   4.949 -0.8278  0.1348  0.3820
   65SAPC  C218 5346   0.844   2.278   5.057 -0.1621  0.6039  0.0505
   65SAPC  H18R 5347   0.752   2.340   5.066 -1.0354 -0.7080  0.3284
   65SAPC  H18S 5348   0.924   2.355   5.048  0.0111  0.2879 -1.2358
   65SAPC  C219 5349   0.854   2.199   5.185 -0.0553 -0.2261 -0.2931
   65SAPC  H19R 5350   0.898   2.260   5.266  0.0829 -0.2327 -0.3620
   65SAPC  H19S 5351   0.926   2.115   5.171 -1.6029 -1.5406 -0.6696
   65SAPC  C220 5352   0.729   2.131   5.248 -0.2394 -0.0958  0.0458
   65SAPC  H20R 5353   0.703   2.042   5.187 -2.0285 -1.5439  2.7290
   65SAPC  H20S 5354   0.639   2.196   5.256  0.0110  0.8650 -3.2253
   65SAPC  H20T 5355   0.758   2.093   5.348  1.5659  0.1187 -0.3541
   65SAPC   C33 5356   1.176   1.672   3.920 -0.3507 -0.0724  0.2385
   65SAPC   H3X 5357   1.224   1.733   3.999 -0.1289  0.5395 -0.3567
   65SAPC   H3Y 5358   1.242   1.687   3.832  0.4931 -0.9606  0.7000
   65SAPC   C34 5359   1.190   1.521   3.948 -0.5959 -0.0868 -0.7428
   65SAPC   H4X 5360   1.299   1.499   3.954 -0.5094  0.5262  0.2419
   65SAPC   H4Y 5361   1.151   1.462   3.863  0.5712 -0.6666 -0.8982
   65SAPC   C35 5362   1.123   1.467   4.081 -1.2092 -0.3799  0.0717
   65SAPC   H5X 5363   1.137   1.358   4.096 -1.4490 -0.4448 -0.1456
   65SAPC   H5Y 5364   1.016   1.487   4.058 -0.9476 -1.2568 -2.2234
   65SAPC   C36 5365   1.181   1.547   4.200  0.4073 -0.1122 -0.5516
   65SAPC   H6X 5366   1.178   1.657   4.181  1.5199 -0.1033 -0.7347
   65SAPC   H6Y 5367   1.284   1.514   4.224  0.5170  1.4496  1.3339
   65SAPC   C37 5368   1.094   1.518   4.323 -0.1147 -0.8282  0.3614
   65SAPC   H7X 5369   1.152   1.518   4.418  0.1026 -1.7747  0.2366
   65SAPC   H7Y 5370   1.055   1.416   4.301 -0.9796 -0.2526 -0.9049
   65SAPC   C38 5371   0.984   1.619   4.351 -0.3636  0.1910  0.1456
   65SAPC   H8X 5372   0.922   1.592   4.439 -0.4964 -0.3430 -0.1109
   65SAPC   H8Y 5373   0.918   1.616   4.262 -0.6262  0.3065  0.3340
   65SAPC   C39 5374   1.031   1.758   4.379  0.7372 -0.6782  0.2921
   65SAPC   H9X 5375   0.939   1.814   4.404  0.4604  0.6299 -3.1013
   65SAPC   H9Y 5376   1.078   1.820   4.299  0.3717  1.2597  1.5232
   65SAPC  C310 5377   1.124   1.778   4.496 -0.2037 -0.2950  0.0338
   65SAPC  H10X 5378   1.141   1.888   4.501 -1.7115 -0.0006 -0.6730
   65SAPC  H10Y 5379   1.220   1.726   4.476  0.8363  1.2567  0.7894
   65SAPC  C311 5380   1.092   1.736   4.643 -0.1717 -0.4175  0.0739
   65SAPC  H11X 5381   1.185   1.760   4.700  0.1010  0.0141 -0.5422
   65SAPC  H11Y 5382   1.082   1.626   4.647  0.6684 -0.5076 -0.2187
   65SAPC  C312 5383   0.965   1.800   4.696 -0.1628  0.5539 -0.2360
   65SAPC  H12X 5384   0.882   1.758   4.636 -0.2574 -0.4761  0.6003
   65SAPC  H12Y 5385   0.967   1.912   4.693 -0.7647  0.5566 -0.7698
   65SAPC  C313 5386   0.936   1.774   4.849  0.0651  0.6479  0.4783
   65SAPC  H13X 5387   0.922   1.664   4.850  0.3357  0.6030 -0.4415
   65SAPC  H13Y 5388   0.833   1.810   4.873 -0.7460 -0.9781 -0.4011
   65SAPC  C314 5389   1.035   1.828   4.946  0.4539 -0.7909  1.1968
   65SAPC  H14X 5390   1.070   1.929   4.916 -0.9543 -0.5181  0.3854
   65SAPC  H14Y 5391   1.119   1.758   4.966  1.4976  1.1484  4.1898
   65SAPC  C315 5392   0.964   1.850   5.079  0.0771  0.1301  0.8327
   65SAPC  H15X 5393   0.888   1.930   5.065  0.4504  0.5652  1.2715
   65SAPC  H15Y 5394   1.032   1.903   5.149 -0.1752 -1.1475  2.0761
   65SAPC  C316 5395   0.899   1.724   5.143  0.1939  0.4631 -0.2656
   65SAPC  H16X 5396   0.988   1.658   5.136  0.5714  1.1583 -3.8573
   65SAPC  H16Y 5397   0.818   1.674   5.086 -0.8216  2.3156 -0.5397
   65SAPC  C317 5398   0.847   1.765   5.283 -0.2254 -0.9212  0.3346
   65SAPC  H17X 5399   0.774   1.849   5.278 -0.5748 -1.1598  1.1519
   65SAPC  H17Y 5400   0.929   1.800   5.350  0.2377 -1.0948 -0.1378
   65SAPC  C318 5401   0.775   1.653   5.357  0.1122  0.5883  0.1405
   65SAPC  H18X 5402   0.847   1.574   5.386  1.4602  1.0268 -1.7725
   65SAPC  H18Y 5403   0.696   1.609   5.293  0.6635  0.5103 -0.4876
   65SAPC  H18Z 5404   0.719   1.698   5.443 -0.0977 -0.9690  0.8425
   66SAPC     N 5405   0.187   4.900   2.670  0.1467 -0.3590  0.6543
   66SAPC   C12 5406   0.174   4.750   2.706 -0.3640  0.0297  0.0720
   66SAPC  H12A 5407   0.152   4.683   2.625 -2.2171 -0.5785  1.0266
   66SAPC  H12B 5408   0.095   4.746   2.779 -1.3581  1.5266 -0.8951
   66SAPC   C13 5409   0.307   4.925   2.582 -0.8009 -0.1696 -0.3477
   66SAPC  H13A 5410   0.296   4.882   2.483  0.5666 -1.6851  0.1206
   66SAPC  H13B 5411   0.327   5.031   2.579  1.3458 -0.5608 -1.4752
   66SAPC  H13C 5412   0.393   4.875   2.624  1.1552  1.3711 -2.2456
   66SAPC   C14 5413   0.075   4.956   2.592  0.7259  0.1933  0.1076
   66SAPC  H14A 5414   0.060   4.900   2.501 -2.6744  0.9751  0.0633
   66SAPC  H14B 5415  -0.015   4.943   2.650  0.8464 -2.0077 -0.1246
   66SAPC  H14C 5416   0.077   5.062   2.568 -2.1770  1.6271  4.9468
   66SAPC   C15 5417   0.203   4.980   2.793 -0.1780 -0.0724 -0.0134
   66SAPC  H15A 5418   0.278   4.928   2.852 -1.2862  1.3779  2.8986
   66SAPC  H15B 5419   0.217   5.085   2.776 -0.2859  0.3743  2.2668
   66SAPC  H15C 5420   0.114   4.975   2.854 -1.0002 -2.5077 -1.3037
   66SAPC   C11 5421   0.299   4.684   2.770 -0.0816 -0.6286 -0.2260
   66SAPC  H11A 5422   0.272   4.587   2.816  1.1755 -0.5169  0.7944
   66SAPC  H11B 5423   0.344   4.740   2.854 -0.2086  1.3746 -1.4217
   66SAPC     P 5424   0.404   4.550   2.567  0.0327 -0.4237  0.0544
   66SAPC   O13 5425   0.280   4.546   2.484  0.1759 -0.1617  0.7139
   66SAPC   O14 5426   0.526   4.560   2.478  0.4196  0.5736  0.1883
   66SAPC   O12 5427   0.408   4.668   2.675  0.0078 -0.2824  0.0261
   66SAPC   O11 5428   0.395   4.414   2.646  0.4185 -0.4606 -0.5273
   66SAPC    C1 5429   0.454   4.404   2.778  0.3332  0.2511 -0.0614
   66SAPC    HA 5430   0.554   4.358   2.764 -0.2709 -0.6480 -1.5385
   66SAPC    HB 5431   0.493   4.501   2.817 -0.6612  0.5349  0.2426
   66SAPC    C2 5432   0.381   4.312   2.878  0.2374 -0.0405  0.4039
   66SAPC    HS 5433   0.340   4.240   2.804 -0.2745 -1.0921  1.6599
   66SAPC   O21 5434   0.275   4.392   2.942 -0.4115  0.4689 -0.4772
   66SAPC   C21 5435   0.187   4.315   3.011  0.3815 -0.1989 -0.1833
   66SAPC   O22 5436   0.161   4.200   2.995 -0.1094  0.2390  0.1226
   66SAPC   C22 5437   0.109   4.413   3.105  0.5048  0.0573  0.3709
   66SAPC   H2R 5438   0.185   4.458   3.172 -0.2742 -0.7691  1.8525
   66SAPC   H2S 5439   0.075   4.497   3.040  0.6557 -1.3812 -1.6803
   66SAPC    C3 5440   0.470   4.240   2.977 -0.0631  0.0660 -0.1097
   66SAPC    HX 5441   0.531   4.171   2.914 -0.9354  0.1224 -1.0329
   66SAPC    HY 5442   0.415   4.177   3.051 -0.7024  0.4110 -0.2877
   66SAPC   O31 5443   0.565   4.327   3.049 -0.0153  0.1407  0.0326
   66SAPC   C31 5444   0.532   4.348   3.170  1.0863 -0.0117  0.2205
   66SAPC   O32 5445   0.423   4.322   3.224 -0.0458 -0.3306  0.4564
   66SAPC   C32 5446   0.649   4.385   3.256  0.2592  0.1259 -0.2881
   66SAPC   H2X 5447   0.675   4.488   3.227 -0.7906 -0.1210 -2.2552
   66SAPC   H2Y 5448   0.725   4.312   3.220 -0.2036 -0.1013 -0.8321
   66SAPC   C23 5449   0.004   4.346   3.192 -0.5309 -0.2304 -0.8757
   66SAPC   H3R 5450  -0.070   4.288   3.134 -0.9580  0.0239 -0.5913
   66SAPC   H3S 5451  -0.051   4.437   3.225 -1.5707 -0.5675 -1.6176
   66SAPC   C24 5452   0.071   4.250   3.297  0.5862 -0.4467  1.0818
   66SAPC   H4R 5453   0.142   4.180   3.246 -0.2630  0.9907 -2.3808
   66SAPC   H4S 5454  -0.005   4.180   3.339 -0.8774  0.0047 -0.6846
   66SAPC   C25 5455   0.137   4.323   3.409 -0.1193 -0.5681 -0.3217
   66SAPC   H5R 5456   0.239   4.362   3.392 -0.9978  1.5951 -1.0005
   66SAPC   C26 5457   0.084   4.349   3.531 -0.6634 -0.5680  0.6124
   66SAPC   H6R 5458   0.143   4.399   3.610  0.7893 -0.8394 -0.2630
   66SAPC   C27 5459  -0.053   4.315   3.572  0.6885  0.1600 -0.2366
   66SAPC   H7R 5460  -0.117   4.280   3.488  0.1456 -1.7999  0.9274
   66SAPC   H7S 5461  -0.100   4.408   3.610 -2.1950 -1.2954  0.0881
   66SAPC   C28 5462  -0.051   4.209   3.679  0.5459  0.0822 -0.8964
   66SAPC   H8R 5463  -0.035   4.110   3.634  0.7806 -0.1826 -0.2529
   66SAPC   C29 5464  -0.041   4.223   3.810  0.4115  0.2637  1.1307
   66SAPC   H9R 5465  -0.040   4.133   3.873  1.8689 -0.8517 -0.3727
   66SAPC  C210 5466  -0.049   4.351   3.877  0.6745 -1.0217  0.4745
   66SAPC  H10R 5467  -0.155   4.383   3.874  1.6520  2.7383  0.0663
   66SAPC  H10S 5468  -0.001   4.435   3.822 -0.9492  0.0864  0.6817
   66SAPC  C211 5469   0.000   4.357   4.018 -0.4681  0.0603  0.1990
   66SAPC  H11R 5470   0.103   4.396   4.027 -0.2549 -0.4819  0.1267
   66SAPC  C212 5471  -0.072   4.315   4.124  0.4298 -0.3820  0.4371
   66SAPC  H12R 5472  -0.038   4.330   4.228  1.8082 -1.1940  0.1360
   66SAPC  C213 5473  -0.206   4.244   4.131 -0.5914 -0.2878 -0.4543
   66SAPC  H13R 5474  -0.177   4.137   4.145 -0.6782  0.0130  2.6350
   66SAPC  H13S 5475  -0.265   4.248   4.037 -0.7406 -1.0707 -0.4074
   66SAPC  C214 5476  -0.286   4.292   4.251  0.2254  0.3442 -0.3392
   66SAPC  H14R 5477  -0.362   4.368   4.228  0.4672  0.8440  0.4789
   66SAPC  C215 5478  -0.273   4.252   4.384  0.0476  0.2448  0.1725
   66SAPC  H15R 5479  -0.339   4.308   4.451 -0.0046 -0.0288  0.3508
   66SAPC  C216 5480  -0.166   4.167   4.441 -0.2684  0.8944  0.0284
   66SAPC  H16R 5481  -0.105   4.132   4.355 -0.0803 -1.1894  0.9449
   66SAPC  H16S 5482  -0.204   4.074   4.489 -1.4534  1.3377 -0.0169
   66SAPC  C217 5483  -0.057   4.225   4.532  0.5865  0.2230  0.2095
   66SAPC  H17R 5484  -0.027   4.322   4.488 -0.2247 -0.1504 -1.2397
   66SAPC  H17S 5485   0.024   4.153   4.554 -1.1518 -1.2582  2.1614
   66SAPC  C218 5486  -0.118   4.243   4.676  0.4882 -0.8146  0.2445
   66SAPC  H18R 5487  -0.156   4.146   4.715  3.1777 -2.4640 -0.9797
   66SAPC  H18S 5488  -0.198   4.320   4.665 -0.8553 -1.6922  2.8964
   66SAPC  C219 5489  -0.002   4.303   4.770  0.3107 -0.7953 -0.1072
   66SAPC  H19R 5490   0.074   4.230   4.803 -1.1677 -1.0154  3.0883
   66SAPC  H19S 5491  -0.065   4.333   4.856  0.1923  4.1149 -1.5940
   66SAPC  C220 5492   0.069   4.433   4.729 -0.5354  0.2226 -0.5183
   66SAPC  H20R 5493   0.105   4.427   4.624  0.0082  0.3637 -0.3462
   66SAPC  H20S 5494   0.152   4.463   4.796 -0.1115 -1.1453 -0.4023
   66SAPC  H20T 5495  -0.003   4.516   4.716 -0.3876  0.2010 -1.6740
   66SAPC   C33 5496   0.621   4.367   3.407  0.3232  0.3238 -0.6423
   66SAPC   H3X 5497   0.718   4.352   3.459  0.1329 -2.3650 -0.9368
   66SAPC   H3Y 5498   0.559   4.277   3.426  0.3508  0.3947 -0.1935
   66SAPC   C34 5499   0.540   4.485   3.458 -0.6095 -0.2712  0.4214
   66SAPC   H4X 5500   0.456   4.512   3.391 -0.1272 -0.8017 -0.4109
   66SAPC   H4Y 5501   0.615   4.567   3.454  0.7115 -1.3902 -4.1508
   66SAPC   C35 5502   0.493   4.465   3.602  0.1793 -0.6843 -0.2902
   66SAPC   H5X 5503   0.568   4.424   3.673 -1.8420 -0.9880  1.7827
   66SAPC   H5Y 5504   0.414   4.387   3.598  1.2283 -1.8110  0.0912
   66SAPC   C36 5505   0.424   4.591   3.654 -0.0488  0.7648  0.4138
   66SAPC   H6X 5506   0.353   4.628   3.577  1.2464 -0.1289 -1.3064
   66SAPC   H6Y 5507   0.492   4.679   3.656 -1.2289  1.6911  0.6339
   66SAPC   C37 5508   0.350   4.584   3.790  0.2244  1.0484 -0.2621
   66SAPC   H7X 5509   0.414   4.518   3.852  0.4574 -0.0947 -1.6736
   66SAPC   H7Y 5510   0.254   4.529   3.791  0.0974  1.2659 -0.2618
   66SAPC   C38 5511   0.350   4.723   3.843 -0.3599  0.2139 -0.0749
   66SAPC   H8X 5512   0.453   4.760   3.858  1.0334 -2.9256 -1.0521
   66SAPC   H8Y 5513   0.309   4.714   3.946  0.8991 -1.1130  0.3403
   66SAPC   C39 5514   0.270   4.824   3.756  0.2281 -0.3237  0.5255
   66SAPC   H9X 5515   0.182   4.779   3.705  1.3856  0.2177 -2.0901
   66SAPC   H9Y 5516   0.339   4.859   3.677  2.8563 -2.6415  1.6125
   66SAPC  C310 5517   0.210   4.950   3.827  0.2371 -0.0765 -0.1991
   66SAPC  H10X 5518   0.289   5.016   3.868  1.5215 -0.8555 -1.3145
   66SAPC  H10Y 5519   0.161   4.905   3.915 -1.0385  1.0839 -0.2783
   66SAPC  C311 5520   0.111   5.039   3.745 -0.0534 -0.3522  0.0910
   66SAPC  H11X 5521   0.059   5.107   3.816 -1.3595 -0.8256 -0.3679
   66SAPC  H11Y 5522   0.044   4.954   3.716  0.6292 -0.6584 -0.6429
   66SAPC  C312 5523   0.168   5.111   3.624 -0.0330 -0.3653 -0.7183
   66SAPC  H12X 5524   0.085   5.138   3.556 -1.0425 -0.0646  0.5974
   66SAPC  H12Y 5525   0.220   5.029   3.570  0.4054 -1.9943  1.9491
   66SAPC  C313 5526   0.238   5.239   3.650 -0.5281 -0.9135  0.5493
   66SAPC  H13X 5527   0.319   5.242   3.727  1.2292  0.0854 -1.2542
   66SAPC  H13Y 5528   0.156   5.311   3.668  0.7382  0.7015  0.0718
   66SAPC  C314 5529   0.303   5.288   3.522 -0.7988 -0.2634 -0.5064
   66SAPC  H14X 5530   0.327   5.396   3.516  2.0669 -0.8481 -1.5472
   66SAPC  H14Y 5531   0.248   5.253   3.432 -1.3596  2.0156 -1.0932
   66SAPC  C315 5532   0.447   5.221   3.511  0.0374 -0.4079 -0.2429
   66SAPC  H15X 5533   0.490   5.228   3.408  1.1095 -0.2878  0.1959
   66SAPC  H15Y 5534   0.442   5.110   3.522 -0.8861 -0.6438 -2.3915
   66SAPC  C316 5535   0.562   5.283   3.597  0.7392  0.2106 -0.5798
   66SAPC  H16X 5536   0.536   5.273   3.704  0.2574  0.9633 -0.6174
   66SAPC  H16Y 5537   0.550   5.391   3.577 -0.2224  0.3691  0.7452
   66SAPC  C317 5538   0.703   5.240   3.561 -1.1435  0.5680  0.9213
   66SAPC  H17X 5539   0.723   5.280   3.460  0.6807 -0.0431  1.0059
   66SAPC  H17Y 5540   0.712   5.130   3.557 -0.9413  0.5138  2.3297
   66SAPC  C318 5541   0.823   5.298   3.639  0.3613  0.0933 -0.3188
   66SAPC  H18X 5542   0.911   5.242   3.601 -0.3968 -1.4586  0.1216
   66SAPC  H18Y 5543   0.817   5.281   3.749  2.0773 -0.8508 -0.3285
   66SAPC  H18Z 5544   0.829   5.409   3.628  1.2464  0.0933  0.0771
   67SAPC     N 5545   3.399   5.024   2.725 -0.1592 -0.0201 -0.6875
   67SAPC   C12 5546   3.347   4.990   2.868 -0.2345 -0.3028 -0.0918
   67SAPC  H12A 5547   3.408   5.029   2.948 -1.7735 -0.4784  1.2226
   67SAPC  H12B 5548   3.340   4.883   2.876  0.4850 -0.5527 -2.0714
   67SAPC   C13 5549   3.528   4.956   2.701 -0.9286 -0.1922 -0.4047
   67SAPC  H13A 5550   3.525   4.855   2.663  0.4677 -0.0137 -1.0520
   67SAPC  H13B 5551   3.582   4.995   2.616  0.4931 -1.4183 -0.1061
   67SAPC  H13C 5552   3.579   4.966   2.795  0.1465  0.0452 -1.0044
   67SAPC   C14 5553   3.300   4.973   2.615 -0.0427  0.2161  0.1372
   67SAPC  H14A 5554   3.282   4.867   2.625 -1.5225  0.4605  0.2603
   67SAPC  H14B 5555   3.207   5.028   2.619 -0.8795 -1.1624  0.2493
   67SAPC  H14C 5556   3.354   4.989   2.523  2.2457 -1.8425  0.9979
   67SAPC   C15 5557   3.418   5.172   2.713 -0.3814  0.2942  0.4768
   67SAPC  H15A 5558   3.510   5.202   2.760  0.0010 -1.7292  1.1322
   67SAPC  H15B 5559   3.423   5.207   2.611  0.1881  1.6815  0.9570
   67SAPC  H15C 5560   3.331   5.228   2.743 -1.2875  0.3604 -1.9828
   67SAPC   C11 5561   3.204   5.042   2.909  0.7756 -0.4215 -0.5098
   67SAPC  H11A 5562   3.175   4.991   3.004  0.5184 -3.5219 -2.1187
   67SAPC  H11B 5563   3.124   5.011   2.838  0.3453  0.3532 -0.3725
   67SAPC     P 5564   3.232   5.273   3.050 -0.0703  0.1303 -0.2531
   67SAPC   O13 5565   3.297   5.395   3.003  0.2340 -0.0122 -0.0503
   67SAPC   O14 5566   3.110   5.277   3.136  0.4989 -0.3922  0.2332
   67SAPC   O12 5567   3.211   5.185   2.917 -0.1910  0.2637  0.1793
   67SAPC   O11 5568   3.342   5.182   3.120  0.4371 -0.0413 -0.8792
   67SAPC    C1 5569   3.366   5.217   3.255 -0.3573  0.1932 -0.8862
   67SAPC    HA 5570   3.473   5.193   3.269 -0.7857 -0.4861  1.7160
   67SAPC    HB 5571   3.358   5.325   3.281 -1.3704  0.3686 -1.8284
   67SAPC    C2 5572   3.282   5.136   3.363  0.0106  0.2891  0.5372
   67SAPC    HS 5573   3.185   5.189   3.380 -1.2987 -1.8485  0.1929
   67SAPC   O21 5574   3.362   5.118   3.478  0.2537  0.2754 -0.2021
   67SAPC   C21 5575   3.401   5.224   3.550  0.2482  0.5295 -0.3914
   67SAPC   O22 5576   3.358   5.337   3.550  0.0120 -0.4645 -0.1128
   67SAPC   C22 5577   3.514   5.166   3.644  0.2762  0.1919 -0.1444
   67SAPC   H2R 5578   3.602   5.165   3.576  0.8114  1.0991  0.5005
   67SAPC   H2S 5579   3.530   5.234   3.731 -3.3810  0.5280  0.4016
   67SAPC    C3 5580   3.234   4.996   3.317 -0.2692 -0.4004 -0.3249
   67SAPC    HX 5581   3.318   4.939   3.270 -1.4913 -1.0769 -1.7606
   67SAPC    HY 5582   3.161   5.006   3.234 -0.0602  0.6710 -0.3914
   67SAPC   O31 5583   3.180   4.925   3.428  0.2923 -0.2298 -0.1653
   67SAPC   C31 5584   3.232   4.809   3.455 -0.2747  0.4325 -0.2911
   67SAPC   O32 5585   3.339   4.763   3.417  0.1237 -0.1886 -0.1785
   67SAPC   C32 5586   3.145   4.732   3.548 -0.3562  0.4969 -0.1383
   67SAPC   H2X 5587   3.127   4.628   3.513 -1.0274 -0.0095  1.5863
   67SAPC   H2Y 5588   3.043   4.774   3.559  0.2482  1.9854 -0.0506
   67SAPC   C23 5589   3.489   5.027   3.707  0.2500 -0.3420 -0.3922
   67SAPC   H3R 5590   3.593   5.000   3.738  1.0520  1.0927 -1.6997
   67SAPC   H3S 5591   3.450   4.961   3.626  0.0073 -0.5082 -0.1402
   67SAPC   C24 5592   3.415   5.033   3.844 -0.1632 -0.6282  0.2406
   67SAPC   H4R 5593   3.387   4.927   3.860  1.7067 -1.2775 -0.3950
   67SAPC   H4S 5594   3.322   5.091   3.831 -0.0759 -0.6870 -0.7875
   67SAPC   C25 5595   3.494   5.075   3.964  0.1720 -0.7244  0.5570
   67SAPC   H5R 5596   3.546   5.172   3.960 -2.1159  0.6763  2.3164
   67SAPC   C26 5597   3.534   4.995   4.067  0.1196 -0.5282  0.7366
   67SAPC   H6R 5598   3.595   5.034   4.150  0.0918 -0.9313  0.9506
   67SAPC   C27 5599   3.512   4.847   4.092 -0.4811 -0.3434  0.6289
   67SAPC   H7R 5600   3.519   4.795   3.995  2.2974  0.2708  0.4205
   67SAPC   H7S 5601   3.419   4.826   4.150 -0.0060 -0.8972  1.2165
   67SAPC   C28 5602   3.628   4.790   4.167  0.0740  0.0894  0.7971
   67SAPC   H8R 5603   3.732   4.812   4.141 -0.1771 -1.4418 -1.8301
   67SAPC   C29 5604   3.616   4.713   4.282 -0.7379  0.0367  0.3245
   67SAPC   H9R 5605   3.709   4.685   4.334 -0.7385 -1.3156 -0.3747
   67SAPC  C210 5606   3.502   4.663   4.362  0.2098 -0.6181 -0.2245
   67SAPC  H10R 5607   3.407   4.704   4.322  0.5365  1.6951  1.1589
   67SAPC  H10S 5608   3.514   4.705   4.464  1.9974 -2.6467  0.4747
   67SAPC  C211 5609   3.495   4.512   4.388  0.1061 -0.2587  0.5012
   67SAPC  H11R 5610   3.519   4.455   4.297 -1.1260 -0.3029  0.1861
   67SAPC  C212 5611   3.485   4.447   4.508  0.1460 -0.0899 -0.2369
   67SAPC  H12R 5612   3.485   4.337   4.504  1.6081 -0.0956 -0.4988
   67SAPC  C213 5613   3.448   4.500   4.644 -0.5532 -0.2128 -0.4581
   67SAPC  H13R 5614   3.413   4.418   4.710 -0.5444  1.0317  1.1647
   67SAPC  H13S 5615   3.362   4.571   4.648  0.0652  0.5386 -0.3624
   67SAPC  C214 5616   3.570   4.557   4.715  0.0457 -0.1388  0.4193
   67SAPC  H14R 5617   3.627   4.621   4.647  0.2097  0.9573  1.5483
   67SAPC  C215 5618   3.615   4.537   4.842 -0.1358  0.2634  0.1702
   67SAPC  H15R 5619   3.696   4.600   4.882  1.8841 -1.7553 -0.5769
   67SAPC  C216 5620   3.542   4.476   4.955  0.2913 -0.0793 -0.7250
   67SAPC  H16R 5621   3.602   4.384   4.976  0.3835  0.4392  1.4922
   67SAPC  H16S 5622   3.439   4.441   4.934 -1.4386  1.4891  3.8884
   67SAPC  C217 5623   3.548   4.553   5.082  0.3798  0.0937  0.4740
   67SAPC  H17R 5624   3.654   4.558   5.116  0.4847 -2.2878  0.6076
   67SAPC  H17S 5625   3.490   4.501   5.161 -3.3836  2.6293 -0.3095
   67SAPC  C218 5626   3.484   4.693   5.064 -0.9493  1.0700 -0.1570
   67SAPC  H18R 5627   3.380   4.669   5.034 -1.6191  0.6362  2.2654
   67SAPC  H18S 5628   3.537   4.750   4.985 -0.4850  0.8466 -0.0168
   67SAPC  C219 5629   3.463   4.765   5.190 -0.6477 -0.3302  0.0296
   67SAPC  H19R 5630   3.560   4.790   5.237 -1.2917 -0.1971  1.3443
   67SAPC  H19S 5631   3.416   4.683   5.249 -0.7474 -0.6600 -0.4990
   67SAPC  C220 5632   3.377   4.893   5.193  0.3151  0.5306  0.2013
   67SAPC  H20R 5633   3.362   4.913   5.301  0.1521 -0.7519  0.4355
   67SAPC  H20S 5634   3.279   4.869   5.146  0.6782 -1.7395  0.4483
   67SAPC  H20T 5635   3.441   4.973   5.150  0.6251  0.4953  0.5964
   67SAPC   C33 5636   3.220   4.715   3.691 -0.2065 -0.0868 -0.6325
   67SAPC   H3X 5637   3.238   4.816   3.734 -1.2323  0.2080 -0.8661
   67SAPC   H3Y 5638   3.320   4.668   3.689  0.8709  1.8911  1.6388
   67SAPC   C34 5639   3.142   4.641   3.799 -0.0101 -0.7796  0.6448
   67SAPC   H4X 5640   3.127   4.536   3.766 -0.8042 -0.3737 -0.3204
   67SAPC   H4Y 5641   3.041   4.686   3.807 -0.5128 -1.8987  0.7789
   67SAPC   C35 5642   3.194   4.640   3.944 -0.0639 -1.1701  0.5645
   67SAPC   H5X 5643   3.180   4.738   3.994  0.4054 -0.0883 -1.3384
   67SAPC   H5Y 5644   3.304   4.635   3.958  0.1558 -1.0104 -0.9759
   67SAPC   C36 5645   3.125   4.531   4.033  0.2491 -0.2520 -0.3281
   67SAPC   H6X 5646   3.153   4.430   3.995 -2.1079 -0.1647 -2.6120
   67SAPC   H6Y 5647   3.014   4.535   4.026  0.2739  0.9181 -0.1351
   67SAPC   C37 5648   3.156   4.534   4.180 -1.0723 -0.3612  0.5739
   67SAPC   H7X 5649   3.130   4.638   4.210  0.6055 -0.4787  2.6726
   67SAPC   H7Y 5650   3.265   4.523   4.195 -1.0477 -1.1714 -0.1667
   67SAPC   C38 5651   3.073   4.440   4.262  1.1179  0.3210 -0.2600
   67SAPC   H8X 5652   3.116   4.338   4.262 -0.0744 -0.2108 -1.0284
   67SAPC   H8Y 5653   2.968   4.455   4.230  0.4622  0.0385  1.6101
   67SAPC   C39 5654   3.072   4.474   4.409  0.3658  0.1016  0.4884
   67SAPC   H9X 5655   3.060   4.584   4.423  3.6717  0.7919 -1.1605
   67SAPC   H9Y 5656   3.166   4.458   4.464 -0.1850  1.7177  1.9904
   67SAPC  C310 5657   2.965   4.395   4.484  0.1883  0.2954 -0.3557
   67SAPC  H10X 5658   2.981   4.285   4.482 -0.0714  0.2435 -2.9825
   67SAPC  H10Y 5659   2.872   4.418   4.427 -0.1728 -2.0832 -0.8411
   67SAPC  C311 5660   2.962   4.440   4.631  0.0231 -0.3031 -0.4403
   67SAPC  H11X 5661   2.874   4.389   4.676 -0.3215 -0.2234 -1.0098
   67SAPC  H11Y 5662   2.952   4.551   4.635 -2.2031 -0.4112 -1.6182
   67SAPC  C312 5663   3.079   4.396   4.720 -0.2078  0.8729  0.0843
   67SAPC  H12X 5664   3.164   4.467   4.716  1.0533 -0.4287  2.0217
   67SAPC  H12Y 5665   3.115   4.297   4.685  0.3493  0.1620  2.5104
   67SAPC  C313 5666   3.039   4.382   4.868  0.8744  0.5355  0.7521
   67SAPC  H13X 5667   3.119   4.330   4.923  2.7667  0.6686 -1.7175
   67SAPC  H13Y 5668   2.937   4.342   4.888  0.5005  0.2531 -1.4232
   67SAPC  C314 5669   3.036   4.522   4.940 -0.4843  0.0073  1.7733
   67SAPC  H14X 5670   2.976   4.593   4.879  0.1367  1.0193  2.3105
   67SAPC  H14Y 5671   3.143   4.551   4.930 -0.6904  0.1298 -0.5486
   67SAPC  C315 5672   2.993   4.528   5.081  0.2823 -0.4595 -0.1698
   67SAPC  H15X 5673   3.037   4.446   5.141 -0.0582  0.0450  0.7940
   67SAPC  H15Y 5674   2.885   4.516   5.099 -0.1338  0.6715 -1.6461
   67SAPC  C316 5675   3.055   4.649   5.149  1.1954  0.6649 -0.1197
   67SAPC  H16X 5676   3.006   4.741   5.111  1.4542  1.6301  1.7533
   67SAPC  H16Y 5677   3.159   4.673   5.117  0.8077 -0.6611 -2.5962
   67SAPC  C317 5678   3.034   4.639   5.296  0.3065 -0.6125  0.2907
   67SAPC  H17X 5679   3.080   4.549   5.341 -3.3169 -2.0640  1.4577
   67SAPC  H17Y 5680   2.924   4.627   5.310  0.4623 -1.7858  0.6116
   67SAPC  C318 5681   3.085   4.766   5.373  0.4789  0.8307 -0.7163
   67SAPC  H18X 5682   3.057   4.774   5.480  1.2147  2.3344 -0.5981
   67SAPC  H18Y 5683   3.034   4.852   5.326  0.3046  1.4048  0.4882
   67SAPC  H18Z 5684   3.195   4.776   5.356  0.3884 -0.7328 -2.5258
   68SAPC     N 5685   3.385   5.956   2.728 -0.4186  0.7623 -0.8127
   68SAPC   C12 5686   3.441   5.825   2.790  0.3583 -0.0042 -0.3001
   68SAPC  H12A 5687   3.466   5.762   2.705 -3.3052  1.1892 -2.4726
   68SAPC  H12B 5688   3.363   5.778   2.847 -0.6527  1.0538 -0.7885
   68SAPC   C13 5689   3.259   5.935   2.642  0.6742  0.5094  0.3274
   68SAPC  H13A 5690   3.175   5.908   2.704 -1.0515  1.0498 -1.6630
   68SAPC  H13B 5691   3.232   6.022   2.584 -0.4558 -0.1579 -0.1856
   68SAPC  H13C 5692   3.290   5.865   2.565  0.6378  0.3372  0.4706
   68SAPC   C14 5693   3.343   6.044   2.842 -1.5474 -0.3114 -0.2698
   68SAPC  H14A 5694   3.315   6.142   2.807  0.0284  0.3020  0.1057
   68SAPC  H14B 5695   3.280   5.999   2.917 -1.7722 -0.4023 -0.5129
   68SAPC  H14C 5696   3.427   6.076   2.902 -3.6746  2.2558  1.5243
   68SAPC   C15 5697   3.493   6.022   2.653 -0.5101  0.1999 -0.5399
   68SAPC  H15A 5698   3.516   5.957   2.570 -1.4582  0.1418 -0.7799
   68SAPC  H15B 5699   3.459   6.117   2.613  2.7045  2.3507  1.4099
   68SAPC  H15C 5700   3.572   6.037   2.724  0.0967 -0.7276 -0.9986
   68SAPC   C11 5701   3.571   5.832   2.878  0.7591  0.6971  0.1948
   68SAPC  H11A 5702   3.596   5.737   2.928 -0.4761  0.4091  0.3148
   68SAPC  H11B 5703   3.557   5.909   2.957  0.6347 -1.0434  1.9323
   68SAPC     P 5704   3.774   5.780   2.719  0.0198  0.1557 -0.1455
   68SAPC   O13 5705   3.688   5.687   2.640 -0.4290  0.0190 -0.8100
   68SAPC   O14 5706   3.876   5.857   2.644 -0.0351  0.0606 -0.3010
   68SAPC   O12 5707   3.682   5.877   2.800 -0.0860 -0.8394 -0.2023
   68SAPC   O11 5708   3.846   5.697   2.832 -0.3385 -0.6315 -0.5464
   68SAPC    C1 5709   3.883   5.737   2.964  0.4540 -0.3670 -0.0340
   68SAPC    HA 5710   3.916   5.843   2.972 -0.1855 -0.2359  1.1084
   68SAPC    HB 5711   3.795   5.732   3.031  0.5710  0.0056  0.1501
   68SAPC    C2 5712   3.998   5.647   3.016  0.4024  0.6021 -0.2434
   68SAPC    HS 5713   3.997   5.668   3.125  1.4306  1.0122 -0.3062
   68SAPC   O21 5714   4.120   5.667   2.947  0.4368 -0.5737  0.2919
   68SAPC   C21 5715   4.227   5.674   3.030 -0.1269 -0.5406 -0.4500
   68SAPC   O22 5716   4.220   5.649   3.150  0.1369  0.0617 -0.5049
   68SAPC   C22 5717   4.359   5.686   2.948 -0.1043 -0.4833 -0.9496
   68SAPC   H2R 5718   4.348   5.766   2.872 -4.3646 -1.7125 -1.9242
   68SAPC   H2S 5719   4.440   5.691   3.024 -0.6063 -1.5006 -0.3313
   68SAPC    C3 5720   3.949   5.495   2.996 -0.0162  0.3121  0.3686
   68SAPC    HX 5721   3.937   5.467   2.889  1.4969 -2.1641  0.7827
   68SAPC    HY 5722   3.846   5.497   3.037 -0.6042  0.6252 -1.0456
   68SAPC   O31 5723   4.036   5.409   3.065 -0.0169  0.0822 -0.0950
   68SAPC   C31 5724   4.013   5.397   3.199  0.2570  0.1083 -0.3112
   68SAPC   O32 5725   3.912   5.447   3.247  0.4864 -0.1914 -0.0107
   68SAPC   C32 5726   4.130   5.336   3.277 -0.1929  0.3100  0.1274
   68SAPC   H2X 5727   4.164   5.416   3.346  2.5927 -1.7121  1.2913
   68SAPC   H2Y 5728   4.215   5.323   3.207 -1.2808  0.7786 -1.3276
   68SAPC   C23 5729   4.389   5.567   2.857 -0.2169 -0.2036 -0.5701
   68SAPC   H3R 5730   4.489   5.586   2.813 -0.2773 -0.2059 -0.7073
   68SAPC   H3S 5731   4.317   5.558   2.773  0.4729  0.3567 -1.2311
   68SAPC   C24 5732   4.393   5.436   2.938 -0.8353  0.0186  0.0266
   68SAPC   H4R 5733   4.299   5.432   2.996 -1.2448  0.6746 -0.5722
   68SAPC   H4S 5734   4.476   5.446   3.012 -1.2845  0.3739  0.4892
   68SAPC   C25 5735   4.409   5.312   2.853  1.1280 -0.8747 -0.3118
   68SAPC   H5R 5736   4.343   5.310   2.764  0.0129  2.3698  0.2959
   68SAPC   C26 5737   4.477   5.195   2.876 -0.7392  0.0397 -0.7979
   68SAPC   H6R 5738   4.475   5.113   2.803 -0.3602 -2.7329  2.1075
   68SAPC   C27 5739   4.569   5.158   2.991  0.3816 -0.2219  0.0896
   68SAPC   H7R 5740   4.548   5.222   3.079  0.3700 -1.4176  0.9719
   68SAPC   H7S 5741   4.678   5.166   2.974  0.5467 -0.3709  1.0268
   68SAPC   C28 5742   4.532   5.014   3.034 -1.1958  0.3380  0.7696
   68SAPC   H8R 5743   4.521   4.947   2.948 -0.9521 -0.0986  1.0762
   68SAPC   C29 5744   4.504   4.971   3.153 -0.3936  0.7153 -0.8927
   68SAPC   H9R 5745   4.460   4.871   3.151  2.9863 -0.8983 -1.3561
   68SAPC  C210 5746   4.518   5.034   3.290  0.3519 -0.4955 -0.7583
   68SAPC  H10R 5747   4.432   4.992   3.345 -0.1476  0.1353 -1.0476
   68SAPC  H10S 5748   4.511   5.144   3.277  0.3348 -0.5147 -0.9158
   68SAPC  C211 5749   4.647   4.981   3.356  1.0429  0.2141 -0.6839
   68SAPC  H11R 5750   4.722   4.947   3.282  1.2458 -1.2463  0.1584
   68SAPC  C212 5751   4.679   4.951   3.484  0.3812  0.4042 -0.5712
   68SAPC  H12R 5752   4.774   4.897   3.494 -0.2026 -0.4164  0.7808
   68SAPC  C213 5753   4.584   4.969   3.604  0.0806 -0.8915  1.0657
   68SAPC  H13R 5754   4.495   5.030   3.580  1.4686  1.0337  0.5304
   68SAPC  H13S 5755   4.639   5.034   3.676 -1.6016  1.8077  0.0381
   68SAPC  C214 5756   4.540   4.844   3.677 -0.3865  0.5072  0.2704
   68SAPC  H14R 5757   4.508   4.763   3.610 -0.4335 -0.3938  1.3583
   68SAPC  C215 5758   4.566   4.813   3.806 -0.4518 -0.7093 -0.4964
   68SAPC  H15R 5759   4.527   4.718   3.847  0.1568 -0.4673  0.6740
   68SAPC  C216 5760   4.615   4.894   3.919 -0.2588 -0.7768 -0.3429
   68SAPC  H16R 5761   4.619   4.999   3.883 -1.3320 -0.7613 -0.4323
   68SAPC  H16S 5762   4.718   4.854   3.934  0.7228  1.4741 -0.6335
   68SAPC  C217 5763   4.552   4.879   4.056  0.0703 -0.0962 -0.4022
   68SAPC  H17R 5764   4.442   4.889   4.044 -0.2260 -0.1505  1.8452
   68SAPC  H17S 5765   4.583   4.962   4.122 -1.3329  0.2363 -0.1209
   68SAPC  C218 5766   4.587   4.755   4.137  0.3581 -0.5622 -0.2506
   68SAPC  H18R 5767   4.698   4.744   4.145  0.4842  0.2546 -0.8101
   68SAPC  H18S 5768   4.532   4.667   4.096  0.2235 -0.7801  0.3933
   68SAPC  C219 5769   4.528   4.786   4.279  0.4345  0.0231 -0.0173
   68SAPC  H19R 5770   4.422   4.819   4.275  0.6114  0.5344 -0.5014
   68SAPC  H19S 5771   4.572   4.881   4.315  1.1335 -0.2522 -0.1335
   68SAPC  C220 5772   4.562   4.681   4.379 -0.3758 -0.1021  0.2803
   68SAPC  H20R 5773   4.671   4.662   4.376  0.0337  1.7513  1.8452
   68SAPC  H20S 5774   4.508   4.588   4.349  3.7317 -2.3930 -0.8239
   68SAPC  H20T 5775   4.536   4.704   4.484  0.2181 -0.9372  0.6171
   68SAPC   C33 5776   4.075   5.225   3.372 -0.3850  0.1956  0.3034
   68SAPC   H3X 5777   4.171   5.181   3.406  1.8962  2.8161 -2.1988
   68SAPC   H3Y 5778   4.020   5.146   3.315  1.7066 -1.3721  0.3449
   68SAPC   C34 5779   4.006   5.277   3.496 -0.5062  0.1783  0.2185
   68SAPC   H4X 5780   3.902   5.293   3.461 -0.1592 -2.3507 -2.3804
   68SAPC   H4Y 5781   4.046   5.370   3.541 -1.6469  1.1592 -0.7382
   68SAPC   C35 5782   3.994   5.179   3.617 -0.4387  1.0239 -0.0611
   68SAPC   H5X 5783   4.096   5.140   3.640  0.4184  3.1170 -0.1618
   68SAPC   H5Y 5784   3.921   5.101   3.584  0.4386 -0.8810  2.2036
   68SAPC   C36 5785   3.937   5.250   3.741 -0.8659 -0.3787  0.0412
   68SAPC   H6X 5786   3.830   5.275   3.726 -1.1209 -2.5248 -2.5010
   68SAPC   H6Y 5787   3.997   5.340   3.765 -0.0754 -0.9217  0.1519
   68SAPC   C37 5788   3.939   5.151   3.857 -0.0475 -0.1994 -0.9315
   68SAPC   H7X 5789   4.035   5.106   3.888  0.1739  2.5359  3.2437
   68SAPC   H7Y 5790   3.878   5.065   3.823  0.6774 -1.2684  0.3972
   68SAPC   C38 5791   3.890   5.223   3.987 -0.6710  0.3680 -0.2142
   68SAPC   H8X 5792   3.790   5.266   3.966 -0.2861  0.3053 -2.4591
   68SAPC   H8Y 5793   3.953   5.311   4.014  0.5563 -0.0733 -1.5150
   68SAPC   C39 5794   3.890   5.124   4.105 -0.2043  0.4242 -0.7224
   68SAPC   H9X 5795   3.993   5.085   4.120  0.7314  2.8661 -0.2994
   68SAPC   H9Y 5796   3.822   5.047   4.062 -0.1410  0.5588 -1.0653
   68SAPC  C310 5797   3.849   5.190   4.235  0.2408 -0.5901 -0.0406
   68SAPC  H10X 5798   3.758   5.251   4.213 -0.6067 -2.3413 -1.6273
   68SAPC  H10Y 5799   3.932   5.258   4.263 -0.5154  1.0479 -1.5529
   68SAPC  C311 5800   3.819   5.091   4.352 -0.0923  0.1970 -0.0687
   68SAPC  H11X 5801   3.911   5.030   4.362  0.7698  1.4945  0.1575
   68SAPC  H11Y 5802   3.743   5.016   4.324 -1.4218  0.9672  1.2987
   68SAPC  C312 5803   3.780   5.163   4.475  0.7505  0.0344  0.5136
   68SAPC  H12X 5804   3.697   5.229   4.443  0.8563 -0.0505  0.0520
   68SAPC  H12Y 5805   3.865   5.233   4.492  0.8680 -0.0059  0.0970
   68SAPC  C313 5806   3.753   5.071   4.593 -0.0181  0.2149 -0.0728
   68SAPC  H13X 5807   3.752   5.132   4.686 -0.2152 -0.9265  0.6947
   68SAPC  H13Y 5808   3.845   5.010   4.605  0.0680  0.3140 -0.2212
   68SAPC  C314 5809   3.621   4.991   4.572  0.9344 -0.8516  0.1135
   68SAPC  H14X 5810   3.625   4.919   4.656  0.6917 -1.8676 -0.7126
   68SAPC  H14Y 5811   3.619   4.938   4.474 -0.2452  0.2815 -0.5053
   68SAPC  C315 5812   3.494   5.076   4.573  0.3603 -0.3509  0.1831
   68SAPC  H15X 5813   3.474   5.139   4.484  0.0503  0.0100  0.5065
   68SAPC  H15Y 5814   3.474   5.132   4.667 -1.7150 -2.8767  1.3779
   68SAPC  C316 5815   3.367   4.993   4.584  0.5017  0.3674 -0.2103
   68SAPC  H16X 5816   3.348   4.915   4.507  2.0217  0.0912 -0.3382
   68SAPC  H16Y 5817   3.282   5.063   4.570  0.8875  0.7247 -0.7603
   68SAPC  C317 5818   3.334   4.920   4.720  0.3102  1.1677  0.4518
   68SAPC  H17X 5819   3.327   4.988   4.808 -1.8704  1.0975  0.4008
   68SAPC  H17Y 5820   3.421   4.853   4.731  0.0105  0.7925  0.5663
   68SAPC  C318 5821   3.210   4.829   4.710 -0.5038 -0.1035  0.0923
   68SAPC  H18X 5822   3.120   4.883   4.672 -1.1189 -1.9527 -1.1715
   68SAPC  H18Y 5823   3.183   4.783   4.808 -0.4559  0.7441  0.5145
   68SAPC  H18Z 5824   3.221   4.753   4.630  0.9784  0.0309  0.1437
   69SAPC     N 5825   2.766   1.784   3.249 -0.1054 -0.1254 -0.6500
   69SAPC   C12 5826   2.887   1.750   3.169  0.4641 -0.2914  0.4645
   69SAPC  H12A 5827   2.940   1.842   3.150 -1.6284  1.0933  0.9464
   69SAPC  H12B 5828   2.865   1.700   3.075  0.1918  4.3368 -2.2293
   69SAPC   C13 5829   2.809   1.849   3.381  0.2791 -0.0577 -0.2798
   69SAPC  H13A 5830   2.830   1.951   3.355  1.2558 -0.2712 -0.3854
   69SAPC  H13B 5831   2.735   1.851   3.459 -0.0982  2.4571 -0.6336
   69SAPC  H13C 5832   2.899   1.810   3.428 -1.0698 -0.3597  2.2164
   69SAPC   C14 5833   2.680   1.885   3.180  0.0231 -0.3708 -0.0803
   69SAPC  H14A 5834   2.619   1.848   3.099 -2.1083 -0.2328  1.3734
   69SAPC  H14B 5835   2.607   1.917   3.253 -0.8037 -1.2785 -0.4740
   69SAPC  H14C 5836   2.723   1.975   3.139 -0.6462 -1.6766 -4.0310
   69SAPC   C15 5837   2.677   1.671   3.286  0.0546 -0.6887  0.0511
   69SAPC  H15A 5838   2.653   1.605   3.205 -0.9607  0.2571 -0.4423
   69SAPC  H15B 5839   2.728   1.603   3.353  1.5409 -0.3283 -0.6757
   69SAPC  H15C 5840   2.585   1.704   3.333  0.3386  0.0298  0.1203
   69SAPC   C11 5841   2.999   1.658   3.228  0.2349  0.2393 -0.5979
   69SAPC  H11A 5842   3.044   1.722   3.307 -0.9972  1.4635 -0.8375
   69SAPC  H11B 5843   3.091   1.643   3.168  1.0014 -1.3341  0.9100
   69SAPC     P 5844   2.943   1.419   3.155  0.1080  0.3594  0.0952
   69SAPC   O13 5845   2.820   1.339   3.189 -0.1561 -0.4826 -0.3718
   69SAPC   O14 5846   2.947   1.484   3.017  0.6020  0.3976  0.4803
   69SAPC   O12 5847   2.956   1.528   3.268  0.2955  0.1479  0.1616
   69SAPC   O11 5848   3.062   1.320   3.165 -0.3467  0.0851  0.0392
   69SAPC    C1 5849   3.195   1.365   3.203  0.0785  0.4181 -0.2595
   69SAPC    HA 5850   3.268   1.323   3.130 -1.1958  0.8551 -1.8490
   69SAPC    HB 5851   3.202   1.476   3.200 -0.6667  0.4708 -0.2960
   69SAPC    C2 5852   3.241   1.316   3.348  0.3646  0.3829 -0.1316
   69SAPC    HS 5853   3.348   1.343   3.362 -0.0714  2.2569 -0.0849
   69SAPC   O21 5854   3.220   1.176   3.354 -0.2922  0.4007 -0.1881
   69SAPC   C21 5855   3.313   1.109   3.291  0.7472 -0.1256  0.2464
   69SAPC   O22 5856   3.411   1.160   3.238 -0.0445  0.0612 -0.3578
   69SAPC   C22 5857   3.291   0.961   3.321  0.6478 -0.1793  0.3674
   69SAPC   H2R 5858   3.191   0.926   3.288  0.6305  0.7202 -0.5666
   69SAPC   H2S 5859   3.363   0.906   3.257 -1.4463 -1.1322 -1.2581
   69SAPC    C3 5860   3.166   1.381   3.467  0.0136  0.4658 -0.7995
   69SAPC    HX 5861   3.061   1.344   3.469  0.7705 -1.8551  0.0052
   69SAPC    HY 5862   3.153   1.490   3.453  0.3074  0.3876 -1.7676
   69SAPC   O31 5863   3.232   1.361   3.596 -0.2481 -0.1752  0.3860
   69SAPC   C31 5864   3.183   1.262   3.669 -0.6348 -0.4867 -0.4241
   69SAPC   O32 5865   3.084   1.199   3.645  0.4473 -0.2639  0.2139
   69SAPC   C32 5866   3.274   1.238   3.791 -0.1537  0.5368 -0.4927
   69SAPC   H2X 5867   3.277   1.336   3.843  1.5519  1.1679 -1.6907
   69SAPC   H2Y 5868   3.375   1.206   3.755 -1.3355 -3.6452 -0.6729
   69SAPC   C23 5869   3.316   0.915   3.465 -0.5864 -0.2917 -0.6030
   69SAPC   H3R 5870   3.323   0.805   3.479 -1.8675 -0.4518 -1.0657
   69SAPC   H3S 5871   3.241   0.963   3.532 -1.0754  1.1510 -2.1120
   69SAPC   C24 5872   3.455   0.965   3.521  0.0366 -0.1902  0.6410
   69SAPC   H4R 5873   3.461   0.964   3.632  2.6275  0.5893  0.5671
   69SAPC   H4S 5874   3.468   1.068   3.484  1.8584 -0.8618 -0.7066
   69SAPC   C25 5875   3.570   0.878   3.469  0.7171 -0.0943 -0.2650
   69SAPC   H5R 5876   3.567   0.838   3.366  3.2836  0.6898 -0.7222
   69SAPC   C26 5877   3.672   0.824   3.536 -0.1710 -0.1094  0.1371
   69SAPC   H6R 5878   3.738   0.759   3.477 -0.8587 -0.5752 -0.1364
   69SAPC   C27 5879   3.711   0.850   3.682  0.6534 -0.3195  0.6928
   69SAPC   H7R 5880   3.663   0.771   3.744 -2.3097 -0.2561 -1.3636
   69SAPC   H7S 5881   3.662   0.941   3.723  1.9549  0.6007  0.2844
   69SAPC   C28 5882   3.859   0.857   3.704 -0.3007 -0.0199  0.3561
   69SAPC   H8R 5883   3.923   0.822   3.622  0.9569  3.0534 -0.0891
   69SAPC   C29 5884   3.921   0.884   3.820 -0.4252  0.2564  0.3326
   69SAPC   H9R 5885   4.029   0.864   3.822  0.0594  1.5228 -3.9042
   69SAPC  C210 5886   3.846   0.919   3.943 -0.0206  0.0381  0.2853
   69SAPC  H10R 5887   3.748   0.959   3.911  0.9776  1.0474 -1.7169
   69SAPC  H10S 5888   3.905   1.000   3.991 -0.5977 -0.0186  1.1030
   69SAPC  C211 5889   3.811   0.815   4.047 -0.8078 -0.5626  1.1107
   69SAPC  H11R 5890   3.779   0.720   4.001  0.0297 -0.5727  0.5422
   69SAPC  C212 5891   3.798   0.829   4.178  0.1679 -0.5679  0.1354
   69SAPC  H12R 5892   3.765   0.745   4.241  1.4904 -0.3579  1.1512
   69SAPC  C213 5893   3.811   0.949   4.267  0.2969 -0.5478  0.2140
   69SAPC  H13R 5894   3.770   0.914   4.365 -0.6541 -0.5367 -0.1712
   69SAPC  H13S 5895   3.737   1.020   4.224 -0.3137 -0.5659  1.2008
   69SAPC  C214 5896   3.935   1.032   4.268 -0.7483 -0.4119 -0.2312
   69SAPC  H14R 5897   3.981   1.060   4.172 -0.4832 -1.3993 -0.4054
   69SAPC  C215 5898   3.983   1.095   4.372 -0.4216  0.2447  0.2213
   69SAPC  H15R 5899   4.052   1.179   4.351  2.1064 -2.2023 -2.1883
   69SAPC  C216 5900   3.920   1.089   4.511  0.1633  0.8936  0.1413
   69SAPC  H16R 5901   3.885   0.986   4.532  2.0095  0.0591 -0.6496
   69SAPC  H16S 5902   3.843   1.168   4.500 -0.6331  0.2348  0.8408
   69SAPC  C217 5903   4.006   1.144   4.628  0.8185 -0.0681  0.0333
   69SAPC  H17R 5904   4.038   1.248   4.605  0.3139  0.2022  0.5435
   69SAPC  H17S 5905   4.097   1.080   4.630  0.3216 -0.8234 -0.7988
   69SAPC  C218 5906   3.932   1.134   4.763 -0.2894 -0.0150 -0.1908
   69SAPC  H18R 5907   3.908   1.027   4.782  1.4730 -0.3084  0.6218
   69SAPC  H18S 5908   3.846   1.203   4.760 -0.0002  0.6081  2.7653
   69SAPC  C219 5909   4.025   1.161   4.883  0.2865  0.2088  0.1611
   69SAPC  H19R 5910   4.119   1.105   4.866 -0.9061 -1.7648 -0.2909
   69SAPC  H19S 5911   3.967   1.128   4.972  0.1453  0.3971  0.1405
   69SAPC  C220 5912   4.043   1.312   4.898  0.5222 -0.0822 -0.1031
   69SAPC  H20R 5913   4.094   1.349   4.807  0.7686 -1.1514 -0.4180
   69SAPC  H20S 5914   4.110   1.345   4.980  2.0848 -0.1269 -1.3212
   69SAPC  H20T 5915   3.948   1.370   4.895  1.2263  1.0609 -2.3166
   69SAPC   C33 5916   3.219   1.117   3.869  0.3933 -0.1724  0.0088
   69SAPC   H3X 5917   3.228   1.028   3.803 -1.8176  0.1802 -0.8465
   69SAPC   H3Y 5918   3.110   1.132   3.886  0.4250  3.0697 -1.7151
   69SAPC   C34 5919   3.291   1.109   3.997 -0.5709 -0.5099  0.4763
   69SAPC   H4X 5920   3.255   1.201   4.047  1.4061 -0.6067  2.2113
   69SAPC   H4Y 5921   3.402   1.113   3.988 -0.6555  1.6809  0.0530
   69SAPC   C35 5922   3.253   0.989   4.095 -0.3331  0.0696  0.3753
   69SAPC   H5X 5923   3.293   0.898   4.044  0.1683  0.3574  0.2555
   69SAPC   H5Y 5924   3.142   0.988   4.109 -0.1234  1.8127  2.7570
   69SAPC   C36 5925   3.301   1.004   4.241 -0.0057  0.1292 -0.8598
   69SAPC   H6X 5926   3.270   1.099   4.290 -1.2201 -0.1122 -1.1194
   69SAPC   H6Y 5927   3.412   0.997   4.240 -0.0428 -1.3538  1.1545
   69SAPC   C37 5928   3.243   0.891   4.324 -0.7542  0.6894 -0.5832
   69SAPC   H7X 5929   3.266   0.790   4.285  0.6779  0.5559  0.5185
   69SAPC   H7Y 5930   3.133   0.902   4.318 -0.8080  0.0552 -0.7884
   69SAPC   C38 5931   3.285   0.902   4.471 -1.0427  0.1260 -0.5625
   69SAPC   H8X 5932   3.224   0.832   4.532  0.4023 -0.4144  0.2906
   69SAPC   H8Y 5933   3.256   1.006   4.499  0.4940  0.3557  0.2582
   69SAPC   C39 5934   3.423   0.859   4.509  0.4048 -0.2748 -0.2692
   69SAPC   H9X 5935   3.493   0.943   4.488  0.3203 -0.0153  0.4741
   69SAPC   H9Y 5936   3.463   0.774   4.449 -0.0040  0.3668 -1.5039
   69SAPC  C310 5937   3.433   0.837   4.663 -0.1873 -0.9944  0.1262
   69SAPC  H10X 5938   3.357   0.761   4.692 -2.8171  1.1968 -0.5872
   69SAPC  H10Y 5939   3.398   0.937   4.697 -0.8841 -1.7828  1.8986
   69SAPC  C311 5940   3.569   0.807   4.719  0.1801  0.5779 -0.5570
   69SAPC  H11X 5941   3.636   0.892   4.692 -0.1091  0.1612 -2.7358
   69SAPC  H11Y 5942   3.597   0.714   4.666  2.2648  1.6100 -1.3918
   69SAPC  C312 5943   3.568   0.806   4.876  0.0313  0.0982  0.4211
   69SAPC  H12X 5944   3.642   0.733   4.914  0.0142  0.6752  1.6311
   69SAPC  H12Y 5945   3.467   0.768   4.905 -0.0336 -1.0516 -1.2079
   69SAPC  C313 5946   3.591   0.949   4.940 -0.1043  0.6216 -0.2221
   69SAPC  H13X 5947   3.518   1.019   4.896  0.7179  1.6365 -0.0324
   69SAPC  H13Y 5948   3.691   0.980   4.902  0.7143 -0.6269  0.7856
   69SAPC  C314 5949   3.580   0.958   5.090  0.2395  0.4035 -1.0043
   69SAPC  H14X 5950   3.485   0.912   5.124  0.9484 -2.2539 -2.3869
   69SAPC  H14Y 5951   3.590   1.064   5.124  0.2558  0.0343  0.1763
   69SAPC  C315 5952   3.688   0.873   5.156  0.6490  0.7015  0.5805
   69SAPC  H15X 5953   3.790   0.910   5.133  0.9480 -0.4730 -0.0452
   69SAPC  H15Y 5954   3.684   0.771   5.113 -0.2929  0.5183  1.0657
   69SAPC  C316 5955   3.670   0.855   5.308  0.4807  0.4403  0.6874
   69SAPC  H16X 5956   3.563   0.831   5.330 -0.5940  0.5755 -3.5085
   69SAPC  H16Y 5957   3.694   0.953   5.356  3.7274  0.6261 -1.0461
   69SAPC  C317 5958   3.765   0.752   5.362 -0.6852 -0.1550 -0.0258
   69SAPC  H17X 5959   3.869   0.775   5.332 -0.9753 -0.5879 -1.4383
   69SAPC  H17Y 5960   3.744   0.660   5.302  1.0477 -0.8340  0.3464
   69SAPC  C318 5961   3.739   0.706   5.506  0.0530 -0.5057  0.2097
   69SAPC  H18X 5962   3.632   0.679   5.516 -0.3574  0.5475 -1.0052
   69SAPC  H18Y 5963   3.782   0.775   5.582  0.1703 -1.1085  0.6949
   69SAPC  H18Z 5964   3.790   0.610   5.530 -0.9622 -0.7376  1.5317
   70SAPC     N 5965   4.837   0.662   2.373  0.5137 -0.4599  0.3658
   70SAPC   C12 5966   4.860   0.671   2.528  0.0150 -0.3977 -0.1755
   70SAPC  H12A 5967   4.886   0.772   2.555  2.7821 -0.8779 -0.7125
   70SAPC  H12B 5968   4.949   0.615   2.553 -0.0261 -0.7557 -0.7904
   70SAPC   C13 5969   4.819   0.528   2.327  0.4672  0.6385  0.4434
   70SAPC  H13A 5970   4.778   0.545   2.228 -2.1665  1.0872  1.5293
   70SAPC  H13B 5971   4.916   0.481   2.320  1.2643  1.8406  2.4500
   70SAPC  H13C 5972   4.750   0.472   2.387 -1.8057  0.7208 -1.9523
   70SAPC   C14 5973   4.718   0.749   2.345  0.2228 -0.3644 -0.5004
   70SAPC  H14A 5974   4.741   0.842   2.394  1.0326 -2.5231  3.6238
   70SAPC  H14B 5975   4.703   0.769   2.240 -2.6726 -1.7155 -0.4529
   70SAPC  H14C 5976   4.622   0.711   2.376 -1.0760  2.3158 -0.9146
   70SAPC   C15 5977   4.959   0.721   2.302 -0.6078  0.2488 -0.0150
   70SAPC  H15A 5978   4.979   0.819   2.343 -3.2065  0.4615  1.0018
   70SAPC  H15B 5979   5.045   0.656   2.303 -2.2052 -2.0140 -0.5461
   70SAPC  H15C 5980   4.939   0.738   2.197 -1.1526  0.0840  0.0557
   70SAPC   C11 5981   4.757   0.618   2.630  0.2320 -0.8787  0.1425
   70SAPC  H11A 5982   4.654   0.641   2.594  0.6306 -0.7481 -0.9706
   70SAPC  H11B 5983   4.763   0.659   2.733 -0.0723 -5.0689  2.0391
   70SAPC     P 5984   4.642   0.378   2.672  0.1188  0.0514  0.1524
   70SAPC   O13 5985   4.510   0.424   2.615  0.4927 -0.2622 -0.2499
   70SAPC   O14 5986   4.670   0.234   2.659  0.3964 -0.3370 -0.5273
   70SAPC   O12 5987   4.768   0.478   2.641  0.4168  0.0313  0.0298
   70SAPC   O11 5988   4.645   0.411   2.823 -0.3320  0.5611  0.2657
   70SAPC    C1 5989   4.763   0.379   2.896 -0.8539  0.5173  0.1513
   70SAPC    HA 5990   4.858   0.370   2.839 -1.3660  3.7996 -1.4872
   70SAPC    HB 5991   4.784   0.457   2.972 -2.2118 -0.0140  1.1091
   70SAPC    C2 5992   4.752   0.255   2.982  0.3982 -0.0165 -0.4930
   70SAPC    HS 5993   4.694   0.178   2.926  0.9058 -1.7335  1.2668
   70SAPC   O21 5994   4.679   0.283   3.106  0.1017  0.0303 -0.1482
   70SAPC   C21 5995   4.608   0.176   3.157  0.6413  0.6734  0.0918
   70SAPC   O22 5996   4.590   0.072   3.100 -0.0807  0.4298  0.2864
   70SAPC   C22 5997   4.552   0.213   3.297  0.0308 -0.7765 -0.0509
   70SAPC   H2R 5998   4.633   0.207   3.372 -0.0134  0.0845  0.0763
   70SAPC   H2S 5999   4.518   0.318   3.283 -0.1318 -0.8190  0.0130
   70SAPC    C3 6000   4.882   0.197   3.019 -0.3611  0.3811 -0.2365
   70SAPC    HX 6001   4.951   0.176   2.935 -0.0377 -1.1929  0.4048
   70SAPC    HY 6002   4.864   0.095   3.058  1.5751 -0.4058 -1.2789
   70SAPC   O31 6003   4.957   0.288   3.106  0.3752  0.0747 -0.0505
   70SAPC   C31 6004   4.941   0.264   3.240  0.0781 -0.2031  0.3338
   70SAPC   O32 6005   4.885   0.168   3.288  0.0642 -0.0272 -0.4052
   70SAPC   C32 6006   4.999   0.376   3.328  0.3427 -0.7308 -0.4583
   70SAPC   H2X 6007   4.909   0.436   3.357 -0.1568 -2.7747  2.6403
   70SAPC   H2Y 6008   5.072   0.432   3.265  0.5290 -1.0696 -0.5426
   70SAPC   C23 6009   4.441   0.117   3.340  0.5822  0.7821  0.1222
   70SAPC   H3R 6010   4.482   0.028   3.393 -2.9604 -0.7955  0.5093
   70SAPC   H3S 6011   4.383   0.079   3.253 -0.6667  0.1926  1.1647
   70SAPC   C24 6012   4.341   0.177   3.445  0.4053 -0.1779 -0.8114
   70SAPC   H4R 6013   4.299   0.266   3.394 -1.0699  0.3592  1.2238
   70SAPC   H4S 6014   4.397   0.214   3.534  1.4741 -2.8033 -0.3007
   70SAPC   C25 6015   4.222   0.093   3.474 -0.6465  0.0645  0.3681
   70SAPC   H5R 6016   4.151   0.077   3.391 -1.7150  0.7922  1.1199
   70SAPC   C26 6017   4.189   0.056   3.599 -0.6509 -0.5940 -0.9889
   70SAPC   H6R 6018   4.102  -0.006   3.620 -1.2476  0.1836 -1.1152
   70SAPC   C27 6019   4.281   0.055   3.717 -0.3862  0.4218  0.2942
   70SAPC   H7R 6020   4.387   0.050   3.684 -0.2467  1.7097  0.4935
   70SAPC   H7S 6021   4.268  -0.041   3.771 -0.4468  0.5964  0.5973
   70SAPC   C28 6022   4.281   0.178   3.808 -0.3231  0.2931  0.1997
   70SAPC   H8R 6023   4.242   0.268   3.758  0.9050  0.4148 -0.5938
   70SAPC   C29 6024   4.306   0.176   3.944 -0.6255 -0.3079  0.6852
   70SAPC   H9R 6025   4.305   0.275   3.990  0.8683  1.3677 -2.5703
   70SAPC  C210 6026   4.350   0.052   4.032 -0.9623 -0.4195  0.1616
   70SAPC  H10R 6027   4.391  -0.029   3.967  0.8728 -1.0787  2.0099
   70SAPC  H10S 6028   4.255   0.017   4.077 -1.3633  1.7278  1.0924
   70SAPC  C211 6029   4.448   0.080   4.143  0.0761 -0.1701  0.4028
   70SAPC  H11R 6030   4.515   0.165   4.123  1.8242 -1.2774  1.3053
   70SAPC  C212 6031   4.472   0.012   4.256 -0.5497 -0.1292 -0.1830
   70SAPC  H12R 6032   4.556   0.049   4.317 -0.8653 -0.0713  0.2172
   70SAPC  C213 6033   4.406  -0.115   4.294  0.4067 -0.5482 -0.3925
   70SAPC  H13R 6034   4.484  -0.193   4.307 -0.0435 -1.3275 -2.0024
   70SAPC  H13S 6035   4.345  -0.156   4.211  0.9660 -0.4878 -0.8417
   70SAPC  C214 6036   4.324  -0.109   4.420 -0.3059 -0.5791  0.7039
   70SAPC  H14R 6037   4.241  -0.038   4.414  0.4820  0.3551  0.5398
   70SAPC  C215 6038   4.343  -0.172   4.536 -0.2194 -0.2667  0.2233
   70SAPC  H15R 6039   4.265  -0.160   4.613  1.2042 -0.3645  1.7500
   70SAPC  C216 6040   4.457  -0.265   4.560 -0.1948  0.2177  0.4532
   70SAPC  H16R 6041   4.536  -0.259   4.482  0.8826 -0.1500  1.4823
   70SAPC  H16S 6042   4.424  -0.371   4.568 -1.2992  0.4342 -0.9015
   70SAPC  C217 6043   4.527  -0.219   4.689  0.0566  0.2175 -0.4407
   70SAPC  H17R 6044   4.445  -0.220   4.764 -0.5483 -0.0492 -1.0973
   70SAPC  H17S 6045   4.562  -0.114   4.685  0.4223  0.0705 -1.6071
   70SAPC  C218 6046   4.637  -0.306   4.744 -0.0805 -0.2557  1.0773
   70SAPC  H18R 6047   4.718  -0.312   4.668 -3.0774 -0.6758 -2.3424
   70SAPC  H18S 6048   4.609  -0.412   4.763  1.6671 -0.7740  0.9564
   70SAPC  C219 6049   4.684  -0.242   4.870 -0.6858  0.1577  0.2496
   70SAPC  H19R 6050   4.611  -0.245   4.954 -0.0092  1.0892  0.8892
   70SAPC  H19S 6051   4.704  -0.136   4.845  2.3183 -0.5226 -0.7037
   70SAPC  C220 6052   4.820  -0.292   4.920 -0.3459  0.3818 -0.4172
   70SAPC  H20R 6053   4.859  -0.227   5.001  0.7989  0.4965 -1.0275
   70SAPC  H20S 6054   4.896  -0.300   4.839  1.4032 -1.3063  1.2716
   70SAPC  H20T 6055   4.813  -0.391   4.969  1.1719  0.2841 -0.3512
   70SAPC   C33 6056   5.053   0.311   3.456  0.1235 -0.1510 -0.3954
   70SAPC   H3X 6057   5.089   0.206   3.449 -1.0378 -0.5737 -0.3206
   70SAPC   H3Y 6058   4.971   0.305   3.531  0.5812 -0.3675  0.0924
   70SAPC   C34 6059   5.158   0.401   3.517 -0.7379 -0.4329  0.0638
   70SAPC   H4X 6060   5.120   0.505   3.508  2.1398  0.8919  2.0226
   70SAPC   H4Y 6061   5.244   0.396   3.448 -1.3180  1.4102 -0.8681
   70SAPC   C35 6062   5.220   0.359   3.653  0.1495  0.3228 -0.8675
   70SAPC   H5X 6063   5.316   0.414   3.668  1.3362 -1.7100 -0.6949
   70SAPC   H5Y 6064   5.242   0.250   3.650  1.4050  0.5344 -0.3238
   70SAPC   C36 6065   5.126   0.391   3.766  0.0162  0.0527  0.6407
   70SAPC   H6X 6066   5.038   0.324   3.761 -0.6855  0.9345  0.8204
   70SAPC   H6Y 6067   5.090   0.495   3.746 -0.5058 -0.7087 -3.0919
   70SAPC   C37 6068   5.182   0.374   3.909  0.2704  0.2919  0.0894
   70SAPC   H7X 6069   5.183   0.265   3.929  1.1480  0.7831  3.1522
   70SAPC   H7Y 6070   5.287   0.410   3.904 -0.4929  2.6929 -0.1567
   70SAPC   C38 6071   5.120   0.475   4.004  0.2944  0.2267 -0.3880
   70SAPC   H8X 6072   5.010   0.461   4.000  0.4768 -1.1106 -1.3985
   70SAPC   H8Y 6073   5.135   0.579   3.968  0.3519  0.6939  0.9339
   70SAPC   C39 6074   5.167   0.473   4.151 -0.0469 -0.0824  0.5348
   70SAPC   H9X 6075   5.105   0.551   4.201 -0.7986 -0.9713  1.0054
   70SAPC   H9Y 6076   5.271   0.509   4.164 -0.0446 -0.4439  1.7173
   70SAPC  C310 6077   5.143   0.338   4.217 -0.1609  0.1447  0.7551
   70SAPC  H10X 6078   5.222   0.274   4.172 -0.3053 -0.1926  0.9724
   70SAPC  H10Y 6079   5.046   0.293   4.188 -1.3783  1.9810  1.7534
   70SAPC  C311 6080   5.148   0.342   4.370  0.1999  0.7682  0.0299
   70SAPC  H11X 6081   5.089   0.423   4.418  2.4013  1.2925  2.0690
   70SAPC  H11Y 6082   5.251   0.378   4.391  0.4555  0.3476 -0.4676
   70SAPC  C312 6083   5.120   0.204   4.434  0.2251 -0.8979  0.4879
   70SAPC  H12X 6084   5.198   0.128   4.412  1.7666  1.0341 -1.1870
   70SAPC  H12Y 6085   5.021   0.166   4.403  0.6511 -1.5088 -0.1416
   70SAPC  C313 6086   5.112   0.215   4.594 -0.1382  0.3155  0.1887
   70SAPC  H13X 6087   5.060   0.126   4.635  0.4493  0.2051  0.7146
   70SAPC  H13Y 6088   5.046   0.301   4.615  1.2328  1.1630  1.2035
   70SAPC  C314 6089   5.246   0.241   4.651  0.0568 -0.1246  0.3017
   70SAPC  H14X 6090   5.297   0.337   4.624  0.8213 -0.3924  0.7591
   70SAPC  H14Y 6091   5.307   0.153   4.622 -2.6021 -2.1832  0.5860
   70SAPC  C315 6092   5.247   0.237   4.803 -0.2456 -0.1432  0.2544
   70SAPC  H15X 6093   5.202   0.141   4.837  1.1309 -1.3369 -1.1275
   70SAPC  H15Y 6094   5.191   0.326   4.837  1.4852  1.1147 -0.0586
   70SAPC  C316 6095   5.391   0.230   4.856  0.3588  0.4343  0.0498
   70SAPC  H16X 6096   5.448   0.317   4.817 -0.4916  1.3085  0.7380
   70SAPC  H16Y 6097   5.436   0.137   4.815  0.4587  0.5408 -0.0840
   70SAPC  C317 6098   5.411   0.242   5.008 -0.0044 -0.0550  0.2998
   70SAPC  H17X 6099   5.520   0.239   5.031  0.4044  1.0367 -1.3253
   70SAPC  H17Y 6100   5.360   0.163   5.068 -0.8579  0.9391  0.9223
   70SAPC  C318 6101   5.351   0.372   5.068  0.0648 -0.8246 -0.4185
   70SAPC  H18X 6102   5.424   0.454   5.052 -1.1212  0.7128  1.4873
   70SAPC  H18Y 6103   5.349   0.372   5.179 -0.9816  3.8606 -0.2563
   70SAPC  H18Z 6104   5.247   0.396   5.036 -0.0768  1.3326  1.4125
   71SAPC     N 6105   5.402   3.281   2.786 -0.1163  0.1772 -0.2667
   71SAPC   C12 6106   5.430   3.243   2.930  0.2169 -0.1507  0.1431
   71SAPC  H12A 6107   5.392   3.143   2.945 -1.6144  0.3109 -1.0894
   71SAPC  H12B 6108   5.369   3.306   2.994  0.5775 -0.5800  0.9207
   71SAPC   C13 6109   5.265   3.310   2.756 -0.4152  1.1445  0.4767
   71SAPC  H13A 6110   5.191   3.241   2.794 -1.2938  0.0452 -2.8069
   71SAPC  H13B 6111   5.227   3.406   2.785 -2.7308  0.7743 -1.0701
   71SAPC  H13C 6112   5.262   3.306   2.648  0.0170 -1.8201  0.4923
   71SAPC   C14 6113   5.484   3.403   2.749  0.1351  0.0186  0.6828
   71SAPC  H14A 6114   5.472   3.435   2.647  0.5586 -0.6710  0.4102
   71SAPC  H14B 6115   5.471   3.488   2.814  0.2116  0.2787  0.3556
   71SAPC  H14C 6116   5.587   3.371   2.756 -0.0733 -1.0106 -0.5488
   71SAPC   C15 6117   5.456   3.173   2.699  0.0673  0.2467 -0.1451
   71SAPC  H15A 6118   5.393   3.085   2.701  0.6724 -0.3010 -2.1321
   71SAPC  H15B 6119   5.463   3.203   2.595  0.3561  1.4874  0.2171
   71SAPC  H15C 6120   5.558   3.147   2.724 -0.0331 -0.7714 -0.7364
   71SAPC   C11 6121   5.579   3.250   2.985  0.3515 -1.2341 -0.1349
   71SAPC  H11A 6122   5.565   3.215   3.090 -1.2102 -2.8914 -0.8516
   71SAPC  H11B 6123   5.612   3.356   2.978 -2.9540 -0.0647  0.2994
   71SAPC     P 6124   5.800   3.168   2.865 -0.2747  0.0645 -0.0704
   71SAPC   O13 6125   5.838   3.042   2.803  0.6805  0.3582  0.5278
   71SAPC   O14 6126   5.814   3.293   2.789 -0.0257  0.3422 -0.3903
   71SAPC   O12 6127   5.659   3.154   2.925 -0.0791 -0.4941  0.6736
   71SAPC   O11 6128   5.897   3.191   2.988 -0.3135  0.3392 -0.2707
   71SAPC    C1 6129   5.866   3.109   3.107  0.0792  0.0415 -0.3248
   71SAPC    HA 6130   5.757   3.098   3.125 -0.9052  3.1280 -3.2783
   71SAPC    HB 6131   5.897   3.004   3.092 -0.9828 -0.1091 -1.7258
   71SAPC    C2 6132   5.940   3.168   3.235  0.2923 -0.1548 -0.0633
   71SAPC    HS 6133   5.909   3.107   3.323 -0.8114  0.1638 -0.2175
   71SAPC   O21 6134   5.913   3.307   3.248 -0.2688  0.0227  0.1831
   71SAPC   C21 6135   5.799   3.339   3.308  0.3067 -0.1471 -0.0749
   71SAPC   O22 6136   5.729   3.268   3.379 -0.4343 -0.4943 -0.4428
   71SAPC   C22 6137   5.762   3.485   3.276  0.4162  0.1458  0.0847
   71SAPC   H2R 6138   5.851   3.544   3.246  0.0815  1.1695  1.0535
   71SAPC   H2S 6139   5.684   3.486   3.196 -1.4801  0.5173  1.8331
   71SAPC    C3 6140   6.093   3.162   3.227 -0.9175 -0.0086 -0.3842
   71SAPC    HX 6141   6.128   3.248   3.166  3.6746 -1.0622  0.3923
   71SAPC    HY 6142   6.127   3.071   3.174 -1.8925 -0.7140  0.1740
   71SAPC   O31 6143   6.154   3.172   3.357 -0.0687 -0.5699 -0.3240
   71SAPC   C31 6144   6.237   3.277   3.387 -0.0507  0.4408  0.4945
   71SAPC   O32 6145   6.269   3.369   3.318  0.2147  0.0208 -0.4983
   71SAPC   C32 6146   6.265   3.260   3.534  0.1497  0.9398 -0.1925
   71SAPC   H2X 6147   6.359   3.203   3.548 -1.0550 -0.5285  2.9957
   71SAPC   H2Y 6148   6.187   3.190   3.571  0.4299  0.0323 -1.2618
   71SAPC   C23 6149   5.694   3.570   3.388  0.4493 -0.4107 -0.0250
   71SAPC   H3R 6150   5.628   3.500   3.442  2.7608 -3.8393 -1.2645
   71SAPC   H3S 6151   5.624   3.642   3.341  2.0475  0.2985 -1.4701
   71SAPC   C24 6152   5.795   3.642   3.474 -0.2428  0.1781  0.5012
   71SAPC   H4R 6153   5.743   3.719   3.536 -0.5061  0.6389 -0.2798
   71SAPC   H4S 6154   5.858   3.708   3.411 -1.2459  0.3560 -0.3496
   71SAPC   C25 6155   5.878   3.544   3.546  0.1661  0.2714 -0.7504
   71SAPC   H5R 6156   5.953   3.493   3.483  0.1497  0.4870 -0.9437
   71SAPC   C26 6157   5.863   3.512   3.679 -0.2498 -0.0500  0.6399
   71SAPC   H6R 6158   5.926   3.432   3.721  0.2067  0.7570  1.5246
   71SAPC   C27 6159   5.758   3.579   3.763  0.3195  0.6176 -0.4486
   71SAPC   H7R 6160   5.661   3.577   3.709 -0.0861 -0.1388  0.2828
   71SAPC   H7S 6161   5.785   3.686   3.778  0.9769  0.4295 -0.2183
   71SAPC   C28 6162   5.735   3.502   3.891 -0.3408  0.2008  0.5640
   71SAPC   H8R 6163   5.711   3.396   3.875  0.2910  0.2497 -0.7907
   71SAPC   C29 6164   5.737   3.553   4.016  0.1884  0.0916 -0.1639
   71SAPC   H9R 6165   5.716   3.481   4.097 -0.7310  1.2204  0.6368
   71SAPC  C210 6166   5.750   3.700   4.053  0.0610  0.1769  0.0195
   71SAPC  H10R 6167   5.653   3.748   4.079 -0.3518 -0.0089 -1.1080
   71SAPC  H10S 6168   5.792   3.757   3.967  3.2099  0.5360  1.6406
   71SAPC  C211 6169   5.847   3.722   4.173 -0.0349 -0.5467 -0.5069
   71SAPC  H11R 6170   5.950   3.719   4.135  0.2307  4.1269 -0.7279
   71SAPC  C212 6171   5.808   3.753   4.304  0.0339 -0.5459 -0.4616
   71SAPC  H12R 6172   5.885   3.763   4.381 -0.6706  1.5393  0.0202
   71SAPC  C213 6173   5.671   3.756   4.363  0.2406  0.3584 -0.0532
   71SAPC  H13R 6174   5.601   3.741   4.278  0.1490  2.2741 -0.3540
   71SAPC  H13S 6175   5.647   3.859   4.394 -0.1657 -0.4330  2.4445
   71SAPC  C214 6176   5.657   3.663   4.477  0.8833 -0.5438 -0.5318
   71SAPC  H14R 6177   5.602   3.571   4.451 -2.1913  0.8909  0.3248
   71SAPC  C215 6178   5.690   3.687   4.605  1.1608  0.6007 -0.2630
   71SAPC  H15R 6179   5.681   3.610   4.684 -0.2161  1.7310  0.7404
   71SAPC  C216 6180   5.752   3.815   4.649  0.1177 -0.1899  0.4109
   71SAPC  H16R 6181   5.810   3.866   4.569  0.5426  1.0940  1.5058
   71SAPC  H16S 6182   5.821   3.793   4.733  3.4876  0.0881 -2.0784
   71SAPC  C217 6183   5.643   3.910   4.713 -0.7666 -0.5041  0.3899
   71SAPC  H17R 6184   5.553   3.910   4.648 -0.3626 -1.9540 -0.1904
   71SAPC  H17S 6185   5.692   4.010   4.710  0.6268 -1.1423 -2.4398
   71SAPC  C218 6186   5.611   3.877   4.862  0.2672 -0.5474 -0.5101
   71SAPC  H18R 6187   5.690   3.926   4.923 -1.0000  0.5727  0.2873
   71SAPC  H18S 6188   5.609   3.766   4.860  2.7636 -0.6451 -0.5461
   71SAPC  C219 6189   5.465   3.935   4.904 -0.1723 -0.1156  0.1969
   71SAPC  H19R 6190   5.457   4.041   4.873 -1.0166  0.6031  2.6142
   71SAPC  H19S 6191   5.474   3.916   5.014 -2.4395  0.2753  0.4929
   71SAPC  C220 6192   5.335   3.867   4.846 -0.0132 -0.3379  0.0800
   71SAPC  H20R 6193   5.315   3.903   4.743 -0.3687  0.7268  0.5080
   71SAPC  H20S 6194   5.247   3.897   4.908  0.4858 -0.4687  0.8749
   71SAPC  H20T 6195   5.355   3.758   4.839  1.0537 -0.2523  1.2619
   71SAPC   C33 6196   6.257   3.394   3.607  0.2932 -0.2606 -0.0804
   71SAPC   H3X 6197   6.162   3.450   3.596  0.9962  1.0734  0.3822
   71SAPC   H3Y 6198   6.339   3.457   3.566  0.9468 -1.5214 -0.7641
   71SAPC   C34 6199   6.257   3.367   3.759  0.1644  0.5281  0.6378
   71SAPC   H4X 6200   6.345   3.304   3.781  1.5316  2.3237  0.5039
   71SAPC   H4Y 6201   6.161   3.314   3.778 -0.1885  1.0081  0.2196
   71SAPC   C35 6202   6.267   3.492   3.849  0.2091 -0.4739  0.9383
   71SAPC   H5X 6203   6.183   3.558   3.820  0.2456 -1.1155 -0.7544
   71SAPC   H5Y 6204   6.365   3.542   3.834 -0.2025  0.7028  2.0482
   71SAPC   C36 6205   6.238   3.460   3.996  0.0809 -0.6407 -0.7822
   71SAPC   H6X 6206   6.310   3.383   4.032 -0.8593 -1.2769 -0.2229
   71SAPC   H6Y 6207   6.144   3.404   4.016 -0.1341  0.0144  0.1217
   71SAPC   C37 6208   6.235   3.582   4.086 -0.2368  0.0955  0.5409
   71SAPC   H7X 6209   6.152   3.653   4.066 -1.2663 -1.6805 -2.0468
   71SAPC   H7Y 6210   6.329   3.638   4.063  0.0010 -0.7599 -0.6744
   71SAPC   C38 6211   6.239   3.544   4.235  0.1828  0.0996  0.6013
   71SAPC   H8X 6212   6.338   3.501   4.258  1.2044  0.6091 -2.4170
   71SAPC   H8Y 6213   6.165   3.462   4.250  0.4100 -0.2302 -0.0586
   71SAPC   C39 6214   6.218   3.659   4.331  0.7814 -0.7308  0.7587
   71SAPC   H9X 6215   6.121   3.700   4.297  0.3044 -1.5231  1.1353
   71SAPC   H9Y 6216   6.295   3.736   4.306  0.7033 -0.2273  1.9782
   71SAPC  C310 6217   6.218   3.617   4.477 -0.1602 -0.6388  0.0083
   71SAPC  H10X 6218   6.194   3.710   4.532  0.7368  0.6574 -1.7074
   71SAPC  H10Y 6219   6.325   3.595   4.496 -0.1719  1.2066  2.7628
   71SAPC  C311 6220   6.113   3.511   4.507 -0.0236  0.1730 -0.4577
   71SAPC  H11X 6221   6.129   3.415   4.452 -3.3315 -1.8716  1.7760
   71SAPC  H11Y 6222   6.016   3.552   4.474  0.6033  2.3571  0.2656
   71SAPC  C312 6223   6.119   3.485   4.665 -0.9918  0.0181  0.4730
   71SAPC  H12X 6224   6.221   3.481   4.709 -1.9465  0.3033  2.8862
   71SAPC  H12Y 6225   6.066   3.388   4.679 -0.5200 -0.2812  0.1980
   71SAPC  C313 6226   6.035   3.590   4.746  0.1828  0.0381 -0.1773
   71SAPC  H13X 6227   5.928   3.559   4.743  0.8293 -2.5609  0.9246
   71SAPC  H13Y 6228   6.067   3.689   4.706  1.2190  0.0958  0.7603
   71SAPC  C314 6229   6.066   3.580   4.897  0.1008  0.2805  0.7654
   71SAPC  H14X 6230   6.175   3.595   4.917  0.2858 -1.1689  0.9504
   71SAPC  H14Y 6231   6.033   3.485   4.942  0.4070  0.4335  1.3330
   71SAPC  C315 6232   5.990   3.688   4.968 -1.0194 -0.3336  0.3703
   71SAPC  H15X 6233   6.010   3.663   5.074 -0.3058  0.5040  0.4434
   71SAPC  H15Y 6234   5.881   3.684   4.945 -0.4859  1.0906 -3.0733
   71SAPC  C316 6235   6.037   3.832   4.945  0.2895 -1.2230 -0.6065
   71SAPC  H16X 6236   5.959   3.890   4.998  1.2522 -1.2277  0.8593
   71SAPC  H16Y 6237   6.030   3.863   4.838 -1.1130 -0.7967 -0.4052
   71SAPC  C317 6238   6.176   3.857   4.998  0.3296 -0.2566  0.2245
   71SAPC  H17X 6239   6.247   3.789   4.946 -1.1223 -1.8243  0.2206
   71SAPC  H17Y 6240   6.165   3.826   5.104 -0.4356  1.5504  0.7190
   71SAPC  C318 6241   6.238   3.992   4.984  0.2786 -0.2587 -0.5300
   71SAPC  H18X 6242   6.305   4.024   5.067  1.2936 -1.1254 -1.0003
   71SAPC  H18Y 6243   6.158   4.069   4.974 -0.1474 -0.7167 -0.7049
   71SAPC  H18Z 6244   6.303   3.996   4.894  1.0741  0.6385  0.0774
   72SAPC     N 6245   4.450   4.437   2.335  0.3644  0.0318  0.4267
   72SAPC   C12 6246   4.448   4.562   2.419 -0.2461 -0.5265 -0.6325
   72SAPC  H12A 6247   4.357   4.619   2.402  1.2726  2.5100  0.6475
   72SAPC  H12B 6248   4.524   4.631   2.383 -2.5250  2.0986 -0.8015
   72SAPC   C13 6249   4.333   4.347   2.363  0.3852  0.0455  0.0899
   72SAPC  H13A 6250   4.343   4.300   2.460  1.1406  2.5524  1.3325
   72SAPC  H13B 6251   4.247   4.411   2.379  0.7565  0.3840  0.7672
   72SAPC  H13C 6252   4.314   4.276   2.284 -0.9539  1.2834 -0.7504
   72SAPC   C14 6253   4.444   4.478   2.185  0.7536 -0.0244 -0.1934
   72SAPC  H14A 6254   4.509   4.562   2.162 -1.0345  1.6944  0.7019
   72SAPC  H14B 6255   4.481   4.396   2.126 -1.5471 -0.1985 -1.4905
   72SAPC  H14C 6256   4.342   4.495   2.153  0.9110 -0.6037 -1.0417
   72SAPC   C15 6257   4.569   4.359   2.359 -0.8089 -0.7919  0.2673
   72SAPC  H15A 6258   4.667   4.403   2.345 -1.0255 -0.7540 -1.2309
   72SAPC  H15B 6259   4.559   4.320   2.460 -3.4941  3.0242  1.7180
   72SAPC  H15C 6260   4.576   4.276   2.291 -0.6106  0.4963 -1.3404
   72SAPC   C11 6261   4.430   4.548   2.572 -0.2182  0.4814  0.3915
   72SAPC  H11A 6262   4.329   4.514   2.606 -0.2370  0.7279  0.5793
   72SAPC  H11B 6263   4.444   4.655   2.598  2.5414  0.1833  0.4347
   72SAPC     P 6264   4.508   4.364   2.747 -0.0334  0.5259 -0.1716
   72SAPC   O13 6265   4.433   4.253   2.680  0.4664  0.0775 -0.1279
   72SAPC   O14 6266   4.635   4.319   2.810 -0.3320 -1.4955 -0.0166
   72SAPC   O12 6267   4.535   4.478   2.637  0.0351 -0.0731  0.1770
   72SAPC   O11 6268   4.417   4.426   2.857  0.6444 -0.1700  0.4930
   72SAPC    C1 6269   4.443   4.549   2.922 -0.6243 -0.5130 -0.0311
   72SAPC    HA 6270   4.520   4.607   2.867  1.3556 -1.8648  1.1837
   72SAPC    HB 6271   4.348   4.605   2.926 -0.0019  0.4925  2.3161
   72SAPC    C2 6272   4.501   4.539   3.060  0.2259 -0.4777 -0.3588
   72SAPC    HS 6273   4.497   4.645   3.094 -0.4613 -0.3997 -0.6771
   72SAPC   O21 6274   4.635   4.486   3.064 -0.1108 -0.4744 -0.0812
   72SAPC   C21 6275   4.729   4.569   3.037 -0.0473  0.2036 -0.3186
   72SAPC   O22 6276   4.718   4.682   2.987  0.2645  0.2170 -0.1236
   72SAPC   C22 6277   4.857   4.494   3.086  0.5770 -0.7317  0.7861
   72SAPC   H2R 6278   4.857   4.393   3.041 -0.5783 -0.5393  0.3095
   72SAPC   H2S 6279   4.948   4.553   3.065  1.0833 -1.4584  0.9208
   72SAPC    C3 6280   4.420   4.453   3.154 -0.5932  0.3634 -0.2206
   72SAPC    HX 6281   4.423   4.348   3.119 -0.4245  0.5245 -0.7012
   72SAPC    HY 6282   4.314   4.484   3.151 -0.9587 -0.9016 -1.2384
   72SAPC   O31 6283   4.478   4.471   3.289 -0.3644  0.3408 -0.3274
   72SAPC   C31 6284   4.516   4.366   3.349 -0.8300  0.3119  0.5641
   72SAPC   O32 6285   4.539   4.254   3.304  0.2311 -0.0856 -0.3579
   72SAPC   C32 6286   4.544   4.409   3.490 -0.4263  0.0174 -0.2776
   72SAPC   H2X 6287   4.447   4.448   3.525  0.2622  2.0322 -0.4517
   72SAPC   H2Y 6288   4.626   4.485   3.500 -0.2840 -0.3228  1.3604
   72SAPC   C23 6289   4.859   4.474   3.239  0.2166 -0.5579  0.1329
   72SAPC   H3R 6290   4.795   4.385   3.258  1.9745 -1.6003  1.4860
   72SAPC   H3S 6291   4.825   4.552   3.310  1.2911 -1.5805  1.8617
   72SAPC   C24 6292   5.001   4.438   3.286 -0.3335  0.5210 -0.6487
   72SAPC   H4R 6293   5.050   4.538   3.282  1.6273 -0.2489  1.9106
   72SAPC   H4S 6294   5.048   4.366   3.215  0.2711 -1.4046  1.5740
   72SAPC   C25 6295   4.996   4.378   3.427  0.1727  0.7109 -0.1572
   72SAPC   H5R 6296   4.924   4.296   3.432  1.0099  0.0584  2.6961
   72SAPC   C26 6297   5.018   4.440   3.543  0.1962  0.4742 -0.0556
   72SAPC   H6R 6298   5.004   4.385   3.637  1.4471 -0.5480 -0.4436
   72SAPC   C27 6299   5.097   4.567   3.568  0.6338 -0.3329 -0.7977
   72SAPC   H7R 6300   5.069   4.605   3.669 -0.0631  0.2591 -1.2126
   72SAPC   H7S 6301   5.075   4.651   3.499 -2.4217 -0.8869 -0.6132
   72SAPC   C28 6302   5.243   4.527   3.553 -0.2389  0.7142 -0.3811
   72SAPC   H8R 6303   5.268   4.427   3.515  1.5450  0.8459  0.3612
   72SAPC   C29 6304   5.350   4.598   3.597  1.2060 -0.1657 -0.4341
   72SAPC   H9R 6305   5.457   4.573   3.587  2.0739  2.8283  0.3181
   72SAPC  C210 6306   5.328   4.731   3.661  0.0357 -0.6913  0.6519
   72SAPC  H10R 6307   5.424   4.743   3.715  0.9814  0.3519 -1.1794
   72SAPC  H10S 6308   5.250   4.737   3.740  1.3776 -0.0283  1.9678
   72SAPC  C211 6309   5.315   4.850   3.571 -0.3091 -0.3836 -0.7241
   72SAPC  H11R 6310   5.235   4.846   3.495  0.7945  0.1868 -1.9605
   72SAPC  C212 6311   5.379   4.967   3.585 -0.0760  0.0141 -0.1809
   72SAPC  H12R 6312   5.366   5.046   3.509  1.6145 -1.8510 -2.5903
   72SAPC  C213 6313   5.501   4.993   3.672  0.1956 -0.6909  0.6698
   72SAPC  H13R 6314   5.590   5.015   3.609  0.4784  1.5023  1.7399
   72SAPC  H13S 6315   5.526   4.902   3.729  2.9334  0.7766  1.9737
   72SAPC  C214 6316   5.483   5.107   3.756  0.1498 -0.4527 -0.2249
   72SAPC  H14R 6317   5.515   5.203   3.714 -2.0625  0.5913  0.3194
   72SAPC  C215 6318   5.440   5.122   3.883 -0.1792  0.2985  0.3031
   72SAPC  H15R 6319   5.435   5.224   3.923 -1.6235  0.5199 -0.3426
   72SAPC  C216 6320   5.397   5.010   3.970  0.0231  0.1797 -0.1476
   72SAPC  H16R 6321   5.456   4.922   3.934 -1.6137  0.2457 -3.3164
   72SAPC  H16S 6322   5.288   5.000   3.952 -0.3061 -0.5536  1.9738
   72SAPC  C217 6323   5.432   5.035   4.118  0.0809 -0.1625 -0.1805
   72SAPC  H17R 6324   5.540   5.061   4.128 -0.2691  1.0641  0.6784
   72SAPC  H17S 6325   5.414   4.945   4.181 -1.2527 -0.3176 -0.7508
   72SAPC  C218 6326   5.354   5.155   4.183 -0.5382  0.1249  0.9934
   72SAPC  H18R 6327   5.248   5.124   4.175  0.1322 -2.1083 -0.0549
   72SAPC  H18S 6328   5.383   5.248   4.129  1.2466 -1.0033 -0.0650
   72SAPC  C219 6329   5.378   5.176   4.331 -0.1493  0.4247 -1.0703
   72SAPC  H19R 6330   5.486   5.166   4.355 -0.6733 -0.6847  1.1476
   72SAPC  H19S 6331   5.339   5.083   4.378  1.3669  0.9226  1.3503
   72SAPC  C220 6332   5.307   5.294   4.391  0.0737  0.5128 -0.6274
   72SAPC  H20R 6333   5.204   5.302   4.350  0.5509  2.4167 -1.5745
   72SAPC  H20S 6334   5.355   5.386   4.350 -0.6130  0.0089 -2.6947
   72SAPC  H20T 6335   5.300   5.283   4.501 -2.4302 -0.6373 -0.8358
   72SAPC   C33 6336   4.574   4.301   3.598 -0.0642 -0.1566 -0.0396
   72SAPC   H3X 6337   4.670   4.249   3.577  1.8482  2.2250  2.1802
   72SAPC   H3Y 6338   4.488   4.231   3.590  0.2077 -0.5490  0.4068
   72SAPC   C34 6339   4.572   4.347   3.744  0.2418 -1.2013 -0.3719
   72SAPC   H4X 6340   4.572   4.249   3.796  0.7781 -1.8205 -1.5093
   72SAPC   H4Y 6341   4.481   4.403   3.775  0.9099 -0.8168  0.9997
   72SAPC   C35 6342   4.698   4.427   3.788 -0.1261 -0.3183 -0.9768
   72SAPC   H5X 6343   4.695   4.530   3.745  1.3840  0.2614  0.2186
   72SAPC   H5Y 6344   4.781   4.383   3.730  1.4659  1.7475 -0.3810
   72SAPC   C36 6345   4.735   4.428   3.936 -0.6135  0.1708 -0.5088
   72SAPC   H6X 6346   4.760   4.324   3.962  0.9840  0.3913 -1.0470
   72SAPC   H6Y 6347   4.650   4.471   3.994 -0.2851 -0.1501  0.2247
   72SAPC   C37 6348   4.865   4.505   3.967  0.3161 -0.2750  0.2399
   72SAPC   H7X 6349   4.848   4.613   3.945 -0.6188 -0.5179 -0.2627
   72SAPC   H7Y 6350   4.945   4.473   3.897 -0.4726 -0.1090 -0.7613
   72SAPC   C38 6351   4.902   4.504   4.114 -0.5206 -0.0264  0.0661
   72SAPC   H8X 6352   4.904   4.403   4.160 -2.9176  0.2844  1.0138
   72SAPC   H8Y 6353   4.824   4.560   4.170 -0.7418 -0.2935  0.0309
   72SAPC   C39 6354   5.042   4.556   4.127 -0.2475  0.0184  0.1072
   72SAPC   H9X 6355   5.059   4.619   4.037 -0.2162 -2.1199 -1.4428
   72SAPC   H9Y 6356   5.127   4.486   4.139  0.6691  1.2700  1.2616
   72SAPC  C310 6357   5.051   4.662   4.241  0.1838 -0.1258 -0.1835
   72SAPC  H10X 6358   5.006   4.620   4.333 -0.4676  0.1170 -0.3867
   72SAPC  H10Y 6359   4.979   4.744   4.222 -0.9338 -0.9744  0.3224
   72SAPC  C311 6360   5.197   4.711   4.272 -0.3977 -0.1053  0.2529
   72SAPC  H11X 6361   5.235   4.745   4.173 -0.5894 -1.1967 -0.2061
   72SAPC  H11Y 6362   5.257   4.627   4.311 -1.1448  0.6706  3.3222
   72SAPC  C312 6363   5.207   4.828   4.378  0.2634  0.2226  0.2096
   72SAPC  H12X 6364   5.175   4.925   4.335  2.8772  0.5592 -1.2275
   72SAPC  H12Y 6365   5.317   4.844   4.381  0.2928 -0.0203  0.4540
   72SAPC  C313 6366   5.135   4.820   4.511  0.0540  0.2612  0.5199
   72SAPC  H13X 6367   5.177   4.738   4.573  1.3018  0.9275  0.5940
   72SAPC  H13Y 6368   5.028   4.797   4.489  0.5700 -0.0843 -1.9199
   72SAPC  C314 6369   5.152   4.958   4.583 -0.3174 -0.5828  0.3167
   72SAPC  H14X 6370   5.122   5.037   4.511 -2.5127 -1.4773  0.1930
   72SAPC  H14Y 6371   5.261   4.976   4.598 -0.2245 -0.0324 -0.8984
   72SAPC  C315 6372   5.074   4.971   4.716 -0.6439  0.2207  0.3054
   72SAPC  H15X 6373   4.974   4.939   4.680  0.3603 -1.1578 -1.4644
   72SAPC  H15Y 6374   5.081   5.078   4.747  0.3135 -0.2635  1.9312
   72SAPC  C316 6375   5.139   4.889   4.823  0.4110 -0.5814  0.0965
   72SAPC  H16X 6376   5.165   4.788   4.784 -0.8388 -0.7090 -0.4371
   72SAPC  H16Y 6377   5.069   4.871   4.907  1.3823  1.2840  1.3849
   72SAPC  C317 6378   5.247   4.971   4.893  0.0019  0.3989  0.1183
   72SAPC  H17X 6379   5.197   5.056   4.945 -1.9139 -0.7420  0.2208
   72SAPC  H17Y 6380   5.318   5.018   4.822 -1.5986  1.2571 -0.9790
   72SAPC  C318 6381   5.318   4.894   5.002  0.2377  0.2228 -0.2510
   72SAPC  H18X 6382   5.364   4.800   4.964  0.4723  0.0601  0.4271
   72SAPC  H18Y 6383   5.246   4.865   5.081  1.0156 -0.4330  0.2236
   72SAPC  H18Z 6384   5.402   4.951   5.046 -0.0700  0.6406 -0.2014
   73SLPC     N 6385   6.634   5.133   7.379 -0.1573 -0.2484  0.0583
   73SLPC   C13 6386   6.723   5.244   7.325  0.2985  0.0967 -0.3939
   73SLPC  H13A 6387   6.694   5.344   7.353  0.4778  0.1324 -0.3318
   73SLPC  H13B 6388   6.824   5.242   7.364 -0.2409  4.0591  1.7023
   73SLPC  H13C 6389   6.735   5.236   7.218  1.3921  0.4636 -0.3078
   73SLPC   C14 6390   6.606   5.156   7.526  0.4893  0.3971  0.1945
   73SLPC  H14A 6391   6.560   5.067   7.567  3.7102 -0.1327  3.1075
   73SLPC  H14B 6392   6.693   5.158   7.590  0.3373 -0.2078  0.4232
   73SLPC  H14C 6393   6.540   5.239   7.547  0.6097  0.2492  1.2128
   73SLPC   C15 6394   6.717   5.008   7.373  1.0717  0.1777 -0.1535
   73SLPC  H15A 6395   6.752   4.993   7.272 -1.0280 -0.1724 -0.8751
   73SLPC  H15B 6396   6.809   5.023   7.428 -0.1450  0.6174  1.8660
   73SLPC  H15C 6397   6.666   4.919   7.406  0.5738  0.9223  1.1438
   73SLPC   C12 6398   6.519   5.099   7.288 -0.3222 -0.3542  0.0823
   73SLPC  H12A 6399   6.496   4.995   7.306  2.2935 -0.8598  0.8298
   73SLPC  H12B 6400   6.551   5.100   7.185 -2.6528  0.3944 -0.7017
   73SLPC   C11 6401   6.395   5.189   7.301  0.0851 -0.0869 -0.5413
   73SLPC  H11A 6402   6.369   5.197   7.408  0.8400  1.8366 -0.4589
   73SLPC  H11B 6403   6.301   5.140   7.271 -0.2930 -0.0445  0.5479
   73SLPC     P 6404   6.412   5.343   7.086 -0.5409 -0.3420 -0.0811
   73SLPC   O13 6405   6.542   5.402   7.053 -0.0015 -0.2818 -0.1094
   73SLPC   O14 6406   6.375   5.222   7.016  0.3092 -0.6906 -0.2567
   73SLPC   O12 6407   6.409   5.318   7.239 -0.3998 -0.0105 -0.3644
   73SLPC   O11 6408   6.302   5.458   7.062  0.6200 -0.2067  0.7392
   73SLPC    C1 6409   6.287   5.506   6.926 -0.5145  0.4329 -1.2383
   73SLPC    HA 6410   6.264   5.614   6.936 -0.1311  0.3199  1.8910
   73SLPC    HB 6411   6.373   5.491   6.858  0.6017 -0.2219  0.2586
   73SLPC    C2 6412   6.162   5.445   6.857 -1.1620  0.2308  0.8799
   73SLPC    HS 6413   6.179   5.336   6.845 -0.2547 -0.0572  3.8700
   73SLPC   O21 6414   6.150   5.522   6.733  0.0652 -0.3998  0.2200
   73SLPC   C21 6415   6.242   5.502   6.638  0.4478 -0.0713 -0.1251
   73SLPC   O22 6416   6.325   5.413   6.636  0.1503  0.4305  0.0665
   73SLPC   C22 6417   6.220   5.597   6.522  0.0306 -0.0188 -0.3862
   73SLPC   H2R 6418   6.113   5.630   6.522 -0.2912 -0.9908  0.7111
   73SLPC   H2S 6419   6.279   5.688   6.544 -1.2972  0.6568  0.5561
   73SLPC    C3 6420   6.034   5.457   6.941  0.1154 -0.4207 -0.2415
   73SLPC    HX 6421   5.998   5.562   6.934 -1.0854 -0.7996 -0.0550
   73SLPC    HY 6422   6.041   5.431   7.048 -3.6524  0.7190  0.4373
   73SLPC   O31 6423   5.932   5.393   6.867  0.5660 -0.3986 -0.0941
   73SLPC   C31 6424   5.904   5.268   6.889 -0.4529  0.1009 -1.0025
   73SLPC   O32 6425   5.962   5.196   6.971 -0.1590  0.7091  0.2145
   73SLPC   C32 6426   5.792   5.219   6.798  0.2218  0.0043 -0.8420
   73SLPC   H2X 6427   5.733   5.308   6.768 -0.7053 -0.7835 -1.4222
   73SLPC   H2Y 6428   5.727   5.149   6.854  2.7813 -2.8839 -1.2188
   73SLPC   C23 6429   6.266   5.538   6.387 -0.4484  0.0894  0.1582
   73SLPC   H3R 6430   6.195   5.466   6.341  1.3225 -0.6886 -1.4663
   73SLPC   H3S 6431   6.364   5.487   6.403 -0.3625  0.2177  0.0411
   73SLPC   C24 6432   6.286   5.638   6.276 -0.8733  0.0400  0.2393
   73SLPC   H4R 6433   6.365   5.711   6.301 -0.5568 -0.4534  0.7024
   73SLPC   H4S 6434   6.193   5.693   6.251 -0.8208  0.1587  0.3070
   73SLPC   C25 6435   6.337   5.564   6.146  0.9963  0.2294 -0.0829
   73SLPC   H5R 6436   6.270   5.479   6.122  0.7872  0.9534 -2.2341
   73SLPC   H5S 6437   6.432   5.513   6.172 -0.5767 -2.8157  0.1093
   73SLPC   C26 6438   6.351   5.650   6.025 -0.0683 -0.2733  0.1215
   73SLPC   H6R 6439   6.398   5.746   6.056 -0.3950  0.3765 -1.2789
   73SLPC   H6S 6440   6.252   5.681   5.984 -0.3453 -0.5802  0.5565
   73SLPC   C27 6441   6.436   5.585   5.920  0.0351 -0.2385  0.3093
   73SLPC   H7R 6442   6.383   5.493   5.889  0.3320 -0.5127  0.6055
   73SLPC   H7S 6443   6.528   5.555   5.974  0.1830  0.8357  0.6761
   73SLPC   C28 6444   6.492   5.658   5.796  0.8995 -0.5136  0.2870
   73SLPC   H8R 6445   6.554   5.744   5.829  0.2191  0.6032 -1.2373
   73SLPC   H8S 6446   6.407   5.690   5.732 -0.7398 -1.8193  1.7059
   73SLPC   C29 6447   6.580   5.564   5.718  0.2717 -0.0221 -0.5558
   73SLPC   H9R 6448   6.527   5.477   5.675 -0.6459  0.5713 -0.6648
   73SLPC  C210 6449   6.707   5.594   5.687  0.1159 -0.5017  0.0458
   73SLPC  H10R 6450   6.766   5.534   5.616 -0.1185  1.4183 -1.8743
   73SLPC  C211 6451   6.788   5.712   5.734 -0.3799 -0.1431  0.0929
   73SLPC  H11R 6452   6.882   5.657   5.753 -1.7227 -1.8101  2.4266
   73SLPC  H11S 6453   6.756   5.728   5.839 -0.5553 -4.1173  0.8270
   73SLPC  C212 6454   6.793   5.836   5.649  0.3100  0.5643 -0.4724
   73SLPC  H12R 6455   6.716   5.913   5.667 -0.4899 -0.4803  0.6985
   73SLPC  C213 6456   6.896   5.854   5.558 -0.8399  0.3696  0.0439
   73SLPC  H13R 6457   6.897   5.944   5.496  0.8624  0.6246  0.3789
   73SLPC  C214 6458   7.005   5.752   5.520  0.4106 -0.6872  0.4015
   73SLPC  H14R 6459   6.992   5.702   5.421 -0.9668 -1.7674  1.0864
   73SLPC  H14S 6460   7.010   5.670   5.595  1.4763 -2.6139 -1.6251
   73SLPC  C215 6461   7.140   5.831   5.519 -0.0042  0.6211 -0.0521
   73SLPC  H15R 6462   7.149   5.884   5.616 -0.5289  1.0391 -0.2301
   73SLPC  H15S 6463   7.126   5.912   5.444 -1.0430  0.1480 -0.3841
   73SLPC  C216 6464   7.274   5.751   5.495 -0.3466 -0.1249  0.6355
   73SLPC  H16R 6465   7.348   5.829   5.465 -0.1227 -0.2416  0.8743
   73SLPC  H16S 6466   7.263   5.701   5.397  0.1162 -0.0211  0.5269
   73SLPC  C217 6467   7.315   5.647   5.600  0.1955 -0.2228  0.6003
   73SLPC  H17R 6468   7.405   5.587   5.578  0.2035 -1.8639  4.3520
   73SLPC  H17S 6469   7.232   5.573   5.601 -1.5695  1.4233 -3.3528
   73SLPC  C218 6470   7.340   5.716   5.738  0.0071  0.3965  0.2656
   73SLPC  H18R 6471   7.239   5.744   5.775  1.1614  0.5860  3.5628
   73SLPC  H18S 6472   7.397   5.811   5.746  1.6596 -0.4415 -0.7797
   73SLPC  H18T 6473   7.379   5.635   5.804 -3.6060  0.5119  2.7959
   73SLPC   C33 6474   5.833   5.149   6.663 -0.0473 -0.4679  0.1534
   73SLPC   H3X 6475   5.741   5.111   6.614  1.4173 -1.3574 -2.0524
   73SLPC   H3Y 6476   5.901   5.063   6.680 -2.3291 -2.4120  0.0231
   73SLPC   C34 6477   5.890   5.257   6.569 -0.5611 -1.2440  0.6284
   73SLPC   H4X 6478   5.992   5.279   6.608 -1.0797  0.1414  1.2818
   73SLPC   H4Y 6479   5.842   5.357   6.572  1.1327 -0.4122  1.4445
   73SLPC   C35 6480   5.883   5.219   6.417 -0.3897  0.5027 -0.4848
   73SLPC   H5X 6481   5.778   5.234   6.384  0.1601 -0.8773 -3.1934
   73SLPC   H5Y 6482   5.913   5.113   6.407  0.7256  0.6996  0.5457
   73SLPC   C36 6483   5.971   5.305   6.318  0.1217  0.2852 -0.4039
   73SLPC   H6X 6484   6.078   5.285   6.339 -0.1650 -0.8660  0.0595
   73SLPC   H6Y 6485   5.947   5.413   6.323  0.2073  0.3739 -1.5745
   73SLPC   C37 6486   5.940   5.261   6.175  0.1973 -0.8406 -0.4292
   73SLPC   H7X 6487   5.832   5.276   6.153 -0.0625 -0.6034  0.9569
   73SLPC   H7Y 6488   5.959   5.153   6.153  0.1038 -0.9222 -0.1079
   73SLPC   C38 6489   6.026   5.336   6.073  0.6134 -0.0604  0.5194
   73SLPC   H8X 6490   6.127   5.292   6.076  1.1846  1.0141 -1.3209
   73SLPC   H8Y 6491   6.040   5.441   6.107  0.8183  0.2919 -0.6349
   73SLPC   C39 6492   5.973   5.347   5.932 -0.1647  0.1012  0.6089
   73SLPC   H9X 6493   5.893   5.425   5.929  0.0585  0.3194 -2.1456
   73SLPC   H9Y 6494   5.952   5.245   5.894 -1.9229  1.0671 -1.1945
   73SLPC  C310 6495   6.082   5.397   5.840  0.0366  0.0996 -0.0715
   73SLPC  H10X 6496   6.168   5.326   5.837  1.1639  1.4242 -0.6077
   73SLPC  H10Y 6497   6.121   5.490   5.886 -0.2264  0.6451 -0.9211
   73SLPC  C311 6498   6.032   5.432   5.698 -0.2665  0.2308 -0.2594
   73SLPC  H11X 6499   5.960   5.516   5.708  0.7441  1.0441  0.3529
   73SLPC  H11Y 6500   5.986   5.341   5.654 -0.7075  1.4512 -2.4985
   73SLPC  C312 6501   6.153   5.471   5.613 -0.2149  0.1334 -0.0826
   73SLPC  H12X 6502   6.226   5.388   5.611 -1.3519 -0.9144  0.4705
   73SLPC  H12Y 6503   6.205   5.554   5.665  1.3267 -0.3543 -0.7923
   73SLPC  C313 6504   6.128   5.520   5.469  0.0089  0.0507  0.1388
   73SLPC  H13X 6505   6.077   5.617   5.456  0.6834  0.3318 -0.4564
   73SLPC  H13Y 6506   6.074   5.438   5.416 -3.1457  0.8570  1.8619
   73SLPC  C314 6507   6.258   5.552   5.393 -0.3709  0.2278 -0.3653
   73SLPC  H14X 6508   6.303   5.451   5.400  0.5846  0.7932  3.1538
   73SLPC  H14Y 6509   6.323   5.612   5.459 -3.1860  1.1614  1.7665
   73SLPC  C315 6510   6.239   5.619   5.263  1.1054  0.5677 -0.0617
   73SLPC  H15X 6511   6.339   5.639   5.219  1.6645  0.1772  1.0079
   73SLPC  H15Y 6512   6.195   5.719   5.278 -1.2295 -0.0043 -2.3381
   73SLPC  C316 6513   6.154   5.532   5.168  0.2030  0.2613  0.0788
   73SLPC  H16X 6514   6.057   5.508   5.217  1.5011 -1.9958  1.7562
   73SLPC  H16Y 6515   6.198   5.433   5.141 -1.9109 -1.0638  1.1509
   73SLPC  C317 6516   6.129   5.608   5.037  0.3909  0.0550  0.5555
   73SLPC  H17X 6517   6.225   5.627   4.985  1.4079 -0.0024  2.3295
   73SLPC  H17Y 6518   6.086   5.708   5.056  0.5946 -0.0806  1.8197
   73SLPC  C318 6519   6.032   5.538   4.933 -0.7030 -0.6119  0.2709
   73SLPC  H18X 6520   5.932   5.544   4.981 -0.1270  1.4677  1.3116
   73SLPC  H18Y 6521   6.061   5.431   4.931  0.2612 -0.3483 -1.0704
   73SLPC  H18Z 6522   6.035   5.588   4.834 -2.6183  0.8200  0.8742
   74SLPC     N 6523   4.208   3.770   7.244  0.2101 -0.1866 -0.4730
   74SLPC   C13 6524   4.086   3.859   7.272  0.4086  0.1275 -0.2195
   74SLPC  H13A 6525   4.010   3.815   7.335  0.4775  1.3257  0.7184
   74SLPC  H13B 6526   4.121   3.942   7.332 -2.0331 -0.6577  2.5266
   74SLPC  H13C 6527   4.050   3.894   7.176 -0.1816  2.6603  0.8511
   74SLPC   C14 6528   4.195   3.666   7.140 -0.0419 -0.0032 -0.3577
   74SLPC  H14A 6529   4.281   3.602   7.127  0.4701  0.8018 -1.0708
   74SLPC  H14B 6530   4.106   3.605   7.134 -0.6360  0.1923  3.7241
   74SLPC  H14C 6531   4.178   3.722   7.049 -4.3825 -0.8577 -0.2590
   74SLPC   C15 6532   4.247   3.693   7.362  0.6733 -0.4630  0.3280
   74SLPC  H15A 6533   4.339   3.643   7.336 -0.0466 -0.9028 -1.5958
   74SLPC  H15B 6534   4.244   3.755   7.450 -0.8010  1.7834 -1.2090
   74SLPC  H15C 6535   4.171   3.620   7.386 -1.6579  1.3942 -0.9154
   74SLPC   C12 6536   4.329   3.864   7.215 -0.5694  0.8625  0.1893
   74SLPC  H12A 6537   4.330   3.915   7.120 -0.6732  1.1321  0.3319
   74SLPC  H12B 6538   4.413   3.796   7.217 -1.6612 -0.5857 -0.8279
   74SLPC   C11 6539   4.356   3.963   7.323 -0.1807  0.0661 -0.4571
   74SLPC  H11A 6540   4.463   3.988   7.337  0.2542 -2.2924  0.9406
   74SLPC  H11B 6541   4.326   3.924   7.422 -1.7375  3.2711  0.4666
   74SLPC     P 6542   4.301   4.203   7.216 -0.4229  0.1307 -0.3256
   74SLPC   O13 6543   4.172   4.273   7.222 -0.1427  0.3096 -0.1207
   74SLPC   O14 6544   4.424   4.273   7.258  0.1771 -0.0811 -0.5058
   74SLPC   O12 6545   4.266   4.074   7.314 -0.3992  0.8308  0.1657
   74SLPC   O11 6546   4.314   4.144   7.076  0.5419  0.1211  0.1927
   74SLPC    C1 6547   4.388   4.198   6.968  0.1720  0.1917  0.0053
   74SLPC    HA 6548   4.480   4.253   6.996  0.1306  0.4833 -0.4226
   74SLPC    HB 6549   4.422   4.110   6.908  3.7454  0.9989  0.6302
   74SLPC    C2 6550   4.304   4.296   6.881 -0.4481  0.4373  0.3194
   74SLPC    HS 6551   4.254   4.365   6.953  0.6728  0.9875  0.5917
   74SLPC   O21 6552   4.215   4.227   6.781 -0.1366  0.1577  0.0463
   74SLPC   C21 6553   4.090   4.230   6.814 -0.0980  0.4548 -0.2571
   74SLPC   O22 6554   4.043   4.266   6.922 -0.1131  0.0277  0.0721
   74SLPC   C22 6555   4.008   4.186   6.688  0.1259 -0.0230 -0.0517
   74SLPC   H2R 6556   4.034   4.079   6.673  1.2686  0.4793 -1.9837
   74SLPC   H2S 6557   3.900   4.182   6.713  0.1565  0.7293  0.2422
   74SLPC    C3 6558   4.398   4.384   6.788 -0.2320  0.0278  0.0303
   74SLPC    HX 6559   4.440   4.464   6.853  0.2787 -1.5801  1.7940
   74SLPC    HY 6560   4.329   4.434   6.717 -1.0585 -1.1722 -0.0515
   74SLPC   O31 6561   4.497   4.300   6.725 -0.5260  0.2465 -0.1594
   74SLPC   C31 6562   4.617   4.355   6.724 -0.0978 -0.6712  0.7590
   74SLPC   O32 6563   4.654   4.448   6.787 -0.1856  0.5119  0.1567
   74SLPC   C32 6564   4.700   4.285   6.611  0.6909 -0.0204  0.2817
   74SLPC   H2X 6565   4.637   4.214   6.554  1.4016  1.7385 -2.9442
   74SLPC   H2Y 6566   4.781   4.223   6.655  0.4583  0.1956  1.0311
   74SLPC   C23 6567   4.044   4.257   6.560  0.1485 -0.4415 -0.1165
   74SLPC   H3R 6568   4.151   4.287   6.564  0.2280 -0.8114  0.6323
   74SLPC   H3S 6569   3.987   4.351   6.545  2.0967  0.7868 -0.1243
   74SLPC   C24 6570   4.018   4.171   6.439 -0.4243  0.6672  0.3777
   74SLPC   H4R 6571   3.909   4.147   6.437 -1.2136  3.8800  0.2771
   74SLPC   H4S 6572   4.062   4.069   6.443 -0.7651  0.5592  1.6858
   74SLPC   C25 6573   4.055   4.245   6.306  0.8413 -0.0305 -0.4057
   74SLPC   H5R 6574   4.160   4.279   6.314  0.7496  0.4054 -0.9622
   74SLPC   H5S 6575   3.989   4.334   6.294  1.0245 -0.0726 -1.9342
   74SLPC   C26 6576   4.038   4.148   6.185  0.4293  0.8062  0.8384
   74SLPC   H6R 6577   3.934   4.120   6.158  1.2687 -1.8260  0.0555
   74SLPC   H6S 6578   4.086   4.050   6.207 -2.1764 -0.3465  1.7772
   74SLPC   C27 6579   4.090   4.218   6.052 -0.6288  0.2885 -0.8103
   74SLPC   H7R 6580   4.198   4.232   6.076 -0.1958 -2.9141 -0.4680
   74SLPC   H7S 6581   4.032   4.312   6.041 -0.5122  0.2992 -1.4037
   74SLPC   C28 6582   4.077   4.131   5.932 -0.7177 -0.2851 -0.2889
   74SLPC   H8R 6583   3.974   4.103   5.900 -0.1147  1.1998 -4.0991
   74SLPC   H8S 6584   4.141   4.043   5.953 -2.2020 -0.9225  1.8978
   74SLPC   C29 6585   4.128   4.207   5.810  0.1463  0.4593  0.1084
   74SLPC   H9R 6586   4.217   4.270   5.818  0.1829  0.9003 -2.7298
   74SLPC  C210 6587   4.066   4.198   5.686  0.1432  0.4098  0.0469
   74SLPC  H10R 6588   4.108   4.255   5.602  0.5620 -0.0814 -0.0845
   74SLPC  C211 6589   3.937   4.113   5.660  0.4855 -0.6477  0.0303
   74SLPC  H11R 6590   3.846   4.159   5.703 -0.2355 -1.5842 -0.4673
   74SLPC  H11S 6591   3.946   4.013   5.708 -0.9649 -0.9531 -0.2851
   74SLPC  C212 6592   3.899   4.114   5.519  0.1319 -0.2973  0.2353
   74SLPC  H12R 6593   3.827   4.193   5.493 -1.6097 -2.0410 -0.5083
   74SLPC  C213 6594   3.923   4.022   5.422  0.7135  0.5280 -0.6372
   74SLPC  H13R 6595   3.908   4.052   5.318  0.0485  0.4129 -0.5751
   74SLPC  C214 6596   4.001   3.896   5.444  0.1190  0.3733 -0.2791
   74SLPC  H14R 6597   3.970   3.804   5.389 -1.3031  0.1224  0.8835
   74SLPC  H14S 6598   4.003   3.855   5.547 -2.8154  0.8871  0.0709
   74SLPC  C215 6599   4.142   3.926   5.401  0.1837 -0.2142  0.4731
   74SLPC  H15R 6600   4.174   4.014   5.461  0.4908  0.1990 -0.2931
   74SLPC  H15S 6601   4.145   3.954   5.294  2.8822  0.3388  0.6121
   74SLPC  C216 6602   4.252   3.818   5.447  0.0201  0.1606 -0.1609
   74SLPC  H16R 6603   4.208   3.761   5.531  0.7989  0.6296  0.5691
   74SLPC  H16S 6604   4.355   3.854   5.470 -0.5177  3.0144 -1.7413
   74SLPC  C217 6605   4.285   3.716   5.344 -0.0785 -0.1622 -0.3496
   74SLPC  H17R 6606   4.329   3.772   5.259 -0.5508 -0.1087 -0.5636
   74SLPC  H17S 6607   4.192   3.682   5.293 -0.2582  1.2990 -1.0376
   74SLPC  C218 6608   4.375   3.607   5.402  0.0513  0.0218 -0.6746
   74SLPC  H18R 6609   4.401   3.538   5.319 -0.6731 -1.4452  0.2827
   74SLPC  H18S 6610   4.312   3.554   5.477 -0.8857  2.8758  0.7008
   74SLPC  H18T 6611   4.469   3.638   5.451 -0.4142  0.5984 -0.1215
   74SLPC   C33 6612   4.754   4.390   6.508 -0.4558 -0.3185  0.4688
   74SLPC   H3X 6613   4.824   4.465   6.550 -0.6278 -0.5473  1.1753
   74SLPC   H3Y 6614   4.659   4.428   6.466 -0.4196 -2.5014 -1.8011
   74SLPC   C34 6615   4.837   4.326   6.392  0.2567 -0.2304 -0.7622
   74SLPC   H4X 6616   4.790   4.243   6.336 -1.0634  0.3113 -0.4849
   74SLPC   H4Y 6617   4.929   4.279   6.434 -2.4583 -3.8947  1.6105
   74SLPC   C35 6618   4.850   4.425   6.272  0.1570 -0.2027  0.5440
   74SLPC   H5X 6619   4.891   4.527   6.287 -1.4285  0.6183 -0.3608
   74SLPC   H5Y 6620   4.750   4.450   6.231  0.1272 -0.3151  0.5471
   74SLPC   C36 6621   4.936   4.363   6.150 -0.2845 -0.3206  0.0213
   74SLPC   H6X 6622   4.966   4.258   6.172  0.9013  0.4278  2.2018
   74SLPC   H6Y 6623   5.024   4.429   6.162 -1.9250  2.0338 -0.2421
   74SLPC   C37 6624   4.887   4.371   6.007 -0.1515 -0.2022 -0.1917
   74SLPC   H7X 6625   4.887   4.481   5.993  0.8366 -0.5375 -3.8687
   74SLPC   H7Y 6626   4.783   4.332   6.003 -0.7926  1.4061  0.0427
   74SLPC   C38 6627   4.979   4.302   5.903 -0.5164 -0.4361  0.0714
   74SLPC   H8X 6628   4.975   4.192   5.918  1.9515 -0.6378 -0.3172
   74SLPC   H8Y 6629   5.084   4.333   5.920  0.0240 -1.6563 -0.8627
   74SLPC   C39 6630   4.945   4.338   5.755 -0.2989 -0.3044 -0.5629
   74SLPC   H9X 6631   4.966   4.447   5.745  0.8603 -0.5809 -1.3019
   74SLPC   H9Y 6632   4.835   4.321   5.747 -0.4881  0.4574  0.2423
   74SLPC  C310 6633   5.031   4.268   5.647 -0.0581 -0.6136  0.8279
   74SLPC  H10X 6634   5.008   4.160   5.647 -0.3868 -0.5447  0.6922
   74SLPC  H10Y 6635   5.141   4.279   5.662  0.6406 -1.1198 -3.0044
   74SLPC  C311 6636   4.991   4.326   5.512 -0.0084  0.6387  0.3852
   74SLPC  H11X 6637   5.019   4.433   5.508 -0.8534  0.8755  0.5632
   74SLPC  H11Y 6638   4.880   4.314   5.508  0.1787 -1.0006 -0.9085
   74SLPC  C312 6639   5.066   4.254   5.394  0.1284  1.6392  0.3373
   74SLPC  H12X 6640   5.169   4.239   5.433 -0.1771 -1.2506  0.2051
   74SLPC  H12Y 6641   5.059   4.304   5.295 -0.9723  0.9342  0.0444
   74SLPC  C313 6642   4.985   4.120   5.365 -0.7347  0.2065 -0.2457
   74SLPC  H13X 6643   4.894   4.150   5.309 -0.9841 -1.5047 -0.8116
   74SLPC  H13Y 6644   4.953   4.067   5.457  0.9366 -2.3128 -1.0136
   74SLPC  C314 6645   5.070   4.025   5.279  0.8458  0.3757 -0.3812
   74SLPC  H14X 6646   5.135   3.962   5.343  1.8180  0.3140 -1.3841
   74SLPC  H14Y 6647   5.144   4.070   5.209 -0.0027  0.4136 -1.2720
   74SLPC  C315 6648   4.979   3.932   5.206  0.5098 -0.6362  0.4655
   74SLPC  H15X 6649   4.899   3.984   5.149  0.3271  0.2963  1.5385
   74SLPC  H15Y 6650   4.912   3.874   5.273 -0.0578  0.2810  0.7111
   74SLPC  C316 6651   5.033   3.820   5.115  0.3016  0.0406 -0.0232
   74SLPC  H16X 6652   5.108   3.755   5.163 -0.3040  0.7437  1.9894
   74SLPC  H16Y 6653   5.094   3.871   5.038  0.7111 -0.9312 -0.3526
   74SLPC  C317 6654   4.926   3.752   5.033  0.0253  0.2640 -0.6089
   74SLPC  H17X 6655   4.846   3.827   5.017  0.2468  1.0489  1.6457
   74SLPC  H17Y 6656   4.862   3.683   5.091 -2.4143  2.5201 -0.4395
   74SLPC  C318 6657   4.983   3.691   4.912 -0.4365 -0.4287 -0.5922
   74SLPC  H18X 6658   5.074   3.633   4.938 -0.3159 -0.0750 -0.2179
   74SLPC  H18Y 6659   5.014   3.770   4.840 -0.7620  0.9681  0.7555
   74SLPC  H18Z 6660   4.915   3.620   4.860 -0.2394 -1.2526  0.2588
   75SLPC     N 6661   6.025   5.521   7.448 -0.0552  0.1912 -0.0338
   75SLPC   C13 6662   5.894   5.524   7.524 -0.7688 -0.6222  0.1442
   75SLPC  H13A 6663   5.882   5.462   7.612  1.2952 -0.8120  0.3367
   75SLPC  H13B 6664   5.879   5.628   7.550  0.6470 -0.1720 -0.7341
   75SLPC  H13C 6665   5.814   5.494   7.457 -0.4341 -0.9257 -0.1204
   75SLPC   C14 6666   6.071   5.380   7.430  0.1476  0.1539 -0.5026
   75SLPC  H14A 6667   5.985   5.318   7.409  1.1478 -0.9569 -1.4811
   75SLPC  H14B 6668   6.136   5.373   7.344 -1.4261  0.5323 -1.7721
   75SLPC  H14C 6669   6.116   5.343   7.521 -0.7427 -1.7867 -0.7949
   75SLPC   C15 6670   6.123   5.607   7.528 -0.1711  0.6916 -0.0960
   75SLPC  H15A 6671   6.139   5.581   7.631 -0.9594  2.4241  0.5200
   75SLPC  H15B 6672   6.219   5.614   7.480  1.3463 -0.2235  2.6091
   75SLPC  H15C 6673   6.082   5.708   7.526 -1.3959  0.2096 -1.4990
   75SLPC   C12 6674   6.004   5.600   7.318 -0.5885 -0.3728 -0.4352
   75SLPC  H12A 6675   5.956   5.693   7.346  0.5820  0.4132 -0.9788
   75SLPC  H12B 6676   5.940   5.547   7.249 -0.8133 -0.5089 -0.1244
   75SLPC   C11 6677   6.128   5.642   7.245  0.5708  0.5128  0.2203
   75SLPC  H11A 6678   6.106   5.652   7.137  0.4089 -1.3445  0.0512
   75SLPC  H11B 6679   6.207   5.564   7.246  0.7894  0.6366 -1.8557
   75SLPC     P 6680   6.316   5.818   7.252 -0.2328 -0.1951 -0.2745
   75SLPC   O13 6681   6.336   5.949   7.314  0.0175 -0.0577 -0.0894
   75SLPC   O14 6682   6.411   5.712   7.288 -0.3815  0.4459  0.1895
   75SLPC   O12 6683   6.174   5.766   7.301  0.0107  0.0783 -0.1383
   75SLPC   O11 6684   6.288   5.837   7.101 -0.1869 -0.1080  0.1073
   75SLPC    C1 6685   6.324   5.955   7.030  0.0880  0.4242  0.1892
   75SLPC    HA 6686   6.245   6.030   7.007  2.4724  2.7335 -1.0282
   75SLPC    HB 6687   6.397   6.015   7.089 -2.4708  1.4747  2.5300
   75SLPC    C2 6688   6.391   5.919   6.893  0.7395 -0.2483 -0.2127
   75SLPC    HS 6689   6.331   5.834   6.855  0.9734  0.0205 -1.2080
   75SLPC   O21 6690   6.523   5.865   6.927 -0.3705 -0.6060 -0.0197
   75SLPC   C21 6691   6.564   5.765   6.855 -0.8291 -0.5689  0.5652
   75SLPC   O22 6692   6.511   5.715   6.762  0.4180  0.0832 -0.5386
   75SLPC   C22 6693   6.698   5.710   6.918 -0.2854 -0.1119  1.2139
   75SLPC   H2R 6694   6.737   5.790   6.984 -1.6896 -0.7400  2.8784
   75SLPC   H2S 6695   6.678   5.619   6.980  0.1741 -1.8048 -0.9952
   75SLPC    C3 6696   6.408   6.036   6.789 -0.1346  0.9748 -0.2520
   75SLPC    HX 6697   6.494   6.101   6.816 -1.2816  2.6276 -0.4065
   75SLPC    HY 6698   6.318   6.098   6.811  0.1414  0.7041  1.8051
   75SLPC   O31 6699   6.410   5.981   6.654 -0.0503 -0.3348 -0.6036
   75SLPC   C31 6700   6.523   6.004   6.579  0.0768 -0.7751  0.1801
   75SLPC   O32 6701   6.620   6.067   6.620 -0.1988  0.0305  0.5374
   75SLPC   C32 6702   6.502   5.942   6.440 -0.0022 -0.4792 -0.0688
   75SLPC   H2X 6703   6.402   5.946   6.392  0.5875 -0.5300 -1.3454
   75SLPC   H2Y 6704   6.518   5.834   6.463 -0.1101 -0.4598  0.1006
   75SLPC   C23 6705   6.801   5.662   6.809 -0.4376  0.4454  0.4705
   75SLPC   H3R 6706   6.742   5.601   6.738  0.6494 -0.5084  0.3655
   75SLPC   H3S 6707   6.869   5.597   6.868 -1.4034 -0.1365  0.9675
   75SLPC   C24 6708   6.866   5.784   6.735 -0.5593  0.3617 -0.0766
   75SLPC   H4R 6709   6.925   5.852   6.800  0.5696  1.0699 -1.7852
   75SLPC   H4S 6710   6.788   5.837   6.677 -0.3407  0.6236 -0.1359
   75SLPC   C25 6711   6.973   5.742   6.635 -0.1216  0.2727  0.3389
   75SLPC   H5R 6712   6.934   5.651   6.585  1.7360 -1.4120  1.8065
   75SLPC   H5S 6713   7.067   5.703   6.680  0.4660 -0.3416 -1.3326
   75SLPC   C26 6714   6.995   5.842   6.521  0.5926  0.1866 -0.5940
   75SLPC   H6R 6715   7.034   5.935   6.567 -0.1214 -0.0005  0.4412
   75SLPC   H6S 6716   6.893   5.868   6.486  0.8429  0.3528 -1.2184
   75SLPC   C27 6717   7.074   5.780   6.410  0.1148  0.1566  0.2302
   75SLPC   H7R 6718   7.005   5.700   6.377 -2.0611  1.9549  0.1725
   75SLPC   H7S 6719   7.165   5.732   6.451  0.5179  1.2681  0.6861
   75SLPC   C28 6720   7.128   5.879   6.308 -0.2683 -0.3363 -0.5476
   75SLPC   H8R 6721   7.211   5.941   6.349 -0.5149 -1.1515  1.2796
   75SLPC   H8S 6722   7.045   5.951   6.294 -0.0967 -0.0755 -0.2505
   75SLPC   C29 6723   7.149   5.816   6.176 -0.0345  0.5689  0.8008
   75SLPC   H9R 6724   7.082   5.731   6.157 -0.5650  1.1968 -0.2274
   75SLPC  C210 6725   7.218   5.871   6.071 -0.5826  0.2690 -0.6799
   75SLPC  H10R 6726   7.230   5.804   5.984  1.6149 -1.4061  0.8123
   75SLPC  C211 6727   7.290   6.002   6.083 -0.5696  0.4466  0.0627
   75SLPC  H11R 6728   7.380   5.987   6.146 -0.2103 -0.5906 -0.6752
   75SLPC  H11S 6729   7.223   6.081   6.124 -1.0903  0.3168 -0.5260
   75SLPC  C212 6730   7.332   6.057   5.949 -0.2319 -0.1225  0.1874
   75SLPC  H12R 6731   7.283   6.014   5.860 -1.3337  0.5438  0.4502
   75SLPC  C213 6732   7.437   6.138   5.931  0.7569 -0.3083  0.5825
   75SLPC  H13R 6733   7.458   6.176   5.829 -1.5570  1.7139  0.7646
   75SLPC  C214 6734   7.519   6.200   6.039 -0.5461 -0.1749  0.0026
   75SLPC  H14R 6735   7.522   6.136   6.130  1.4221 -1.9447 -1.1898
   75SLPC  H14S 6736   7.461   6.289   6.072 -1.3756 -1.2023  1.4112
   75SLPC  C215 6737   7.670   6.233   6.009 -0.0016  0.2972 -0.5263
   75SLPC  H15R 6738   7.717   6.132   6.007 -0.1320  0.2423 -0.9019
   75SLPC  H15S 6739   7.705   6.297   6.093 -2.4774  0.5476  0.3934
   75SLPC  C216 6740   7.709   6.302   5.881  0.4724 -0.4698 -0.0219
   75SLPC  H16R 6741   7.705   6.243   5.787  0.8552  0.8955 -0.9288
   75SLPC  H16S 6742   7.818   6.321   5.890  0.2541  0.7475  0.2408
   75SLPC  C217 6743   7.623   6.422   5.844  0.3038 -1.0039 -0.3169
   75SLPC  H17R 6744   7.617   6.494   5.929 -0.0037 -1.5419  0.1213
   75SLPC  H17S 6745   7.520   6.395   5.814  0.0257 -2.1524  1.5086
   75SLPC  C218 6746   7.689   6.499   5.729  0.3362 -0.4031 -0.1993
   75SLPC  H18R 6747   7.708   6.424   5.650 -0.5162  1.9729 -2.8322
   75SLPC  H18S 6748   7.786   6.544   5.758 -0.5604  0.4214  1.7003
   75SLPC  H18T 6749   7.608   6.567   5.695  0.8246  0.2618 -0.0480
   75SLPC   C33 6750   6.611   5.989   6.338 -0.0884  0.0101 -0.3317
   75SLPC   H3X 6751   6.699   6.032   6.391  0.0650  0.4635 -0.9480
   75SLPC   H3Y 6752   6.574   6.071   6.273 -2.6598 -2.3522 -2.0590
   75SLPC   C34 6753   6.652   5.866   6.259  0.3022 -0.3371  0.2320
   75SLPC   H4X 6754   6.567   5.815   6.208 -0.2842  1.3370 -0.5468
   75SLPC   H4Y 6755   6.681   5.788   6.332 -0.6668 -1.0203 -0.0881
   75SLPC   C35 6756   6.774   5.896   6.168 -0.5489  0.6966  0.3199
   75SLPC   H5X 6757   6.838   5.806   6.155 -0.3842  1.0004 -1.1960
   75SLPC   H5Y 6758   6.835   5.976   6.215  0.3487  1.7335 -2.3998
   75SLPC   C36 6759   6.720   5.957   6.045 -0.0333 -0.1556  0.3493
   75SLPC   H6X 6760   6.654   6.043   6.070 -0.6266 -0.5078  0.0317
   75SLPC   H6Y 6761   6.669   5.877   5.986  0.5256  1.4755 -2.5564
   75SLPC   C37 6762   6.825   6.006   5.938  0.5651 -0.0191 -0.0699
   75SLPC   H7X 6763   6.760   6.046   5.856  1.3614 -0.2575 -0.8351
   75SLPC   H7Y 6764   6.887   5.928   5.889 -0.2754 -0.4247 -0.5120
   75SLPC   C38 6765   6.908   6.116   5.989 -0.0465  0.7240  0.1932
   75SLPC   H8X 6766   6.967   6.080   6.075 -1.2968 -1.0038  0.3849
   75SLPC   H8Y 6767   6.845   6.193   6.037  0.0453 -0.7770  2.9459
   75SLPC   C39 6768   6.995   6.174   5.877  0.0414  0.9426  0.3694
   75SLPC   H9X 6769   7.004   6.096   5.799 -0.1018  1.0938  0.2010
   75SLPC   H9Y 6770   7.094   6.191   5.924  1.8473 -2.2479 -1.8954
   75SLPC  C310 6771   6.928   6.302   5.809 -0.3496 -0.2908  0.1509
   75SLPC  H10X 6772   6.976   6.397   5.840 -1.5464  0.1084  0.8553
   75SLPC  H10Y 6773   6.824   6.327   5.841 -1.1806 -1.2211 -1.6217
   75SLPC  C311 6774   6.928   6.287   5.656  0.4451 -0.5927  0.1237
   75SLPC  H11X 6775   6.845   6.217   5.633  0.6679 -1.4033  1.6686
   75SLPC  H11Y 6776   7.024   6.248   5.616  1.7548  1.1522  1.4030
   75SLPC  C312 6777   6.920   6.424   5.580  0.2036 -0.0725  0.2384
   75SLPC  H12X 6778   7.020   6.467   5.601  0.0222  0.4124  0.1187
   75SLPC  H12Y 6779   6.848   6.500   5.617  0.2704  0.1077 -0.0025
   75SLPC  C313 6780   6.926   6.404   5.426 -0.0770 -0.0011  0.2036
   75SLPC  H13X 6781   7.014   6.338   5.406  0.0125  0.0648  0.3812
   75SLPC  H13Y 6782   6.947   6.505   5.384 -0.4748  0.7188  1.6766
   75SLPC  C314 6783   6.799   6.356   5.364 -0.1907  0.2166  0.3843
   75SLPC  H14X 6784   6.711   6.407   5.408  1.0216  1.6303  1.2691
   75SLPC  H14Y 6785   6.789   6.250   5.394 -1.2747 -0.3714 -1.8126
   75SLPC  C315 6786   6.805   6.350   5.213  1.0533 -0.0015  1.4124
   75SLPC  H15X 6787   6.910   6.348   5.177 -0.1805 -1.5005 -2.6540
   75SLPC  H15Y 6788   6.767   6.448   5.177  0.6200 -0.0529  1.7273
   75SLPC  C316 6789   6.714   6.244   5.148  0.3759  0.1526 -0.2371
   75SLPC  H16X 6790   6.687   6.272   5.044 -3.1525  1.1027  0.8183
   75SLPC  H16Y 6791   6.619   6.228   5.204  0.6625  1.3415  0.6175
   75SLPC  C317 6792   6.784   6.105   5.127  0.0265 -0.8694  0.1950
   75SLPC  H17X 6793   6.867   6.126   5.057  1.2507  2.8645  2.4818
   75SLPC  H17Y 6794   6.714   6.037   5.073  1.7156 -1.5866 -1.1669
   75SLPC  C318 6795   6.834   6.029   5.250  0.2333 -0.0018  0.1480
   75SLPC  H18X 6796   6.753   6.011   5.323 -1.0112  0.8553 -0.9742
   75SLPC  H18Y 6797   6.921   6.074   5.302  0.7279 -0.4654 -0.2706
   75SLPC  H18Z 6798   6.866   5.931   5.208 -3.3100 -1.2224 -0.0215
   76SLPC     N 6799   0.668   5.313   7.777  0.5672 -0.0185 -0.3675
   76SLPC   C13 6800   0.668   5.430   7.683  0.1761  0.0769 -0.2851
   76SLPC  H13A 6801   0.764   5.448   7.636  0.6010 -1.2164  0.0188
   76SLPC  H13B 6802   0.589   5.412   7.613 -1.0731 -1.5887  1.4607
   76SLPC  H13C 6803   0.640   5.521   7.734 -1.0836 -1.6395  2.2890
   76SLPC   C14 6804   0.790   5.318   7.856  0.4672  0.0632  0.4502
   76SLPC  H14A 6805   0.811   5.408   7.912  2.4203 -1.8767  3.0655
   76SLPC  H14B 6806   0.792   5.242   7.932 -0.8036  0.2866  0.7297
   76SLPC  H14C 6807   0.874   5.303   7.789  2.8160  1.0993  2.9453
   76SLPC   C15 6808   0.667   5.186   7.695  0.0389 -0.2611 -0.4652
   76SLPC  H15A 6809   0.749   5.196   7.626  0.0908  0.9619 -0.2483
   76SLPC  H15B 6810   0.679   5.092   7.747  1.6768 -1.4867 -2.8925
   76SLPC  H15C 6811   0.571   5.188   7.645 -2.0152 -0.3278  3.1566
   76SLPC   C12 6812   0.537   5.312   7.863 -0.7650  0.1550 -0.0790
   76SLPC  H12A 6813   0.553   5.392   7.934  0.2085 -1.5947  1.7536
   76SLPC  H12B 6814   0.527   5.224   7.925 -2.0488  0.7351  0.5699
   76SLPC   C11 6815   0.406   5.333   7.785 -0.5830  0.1809 -0.0493
   76SLPC  H11A 6816   0.408   5.429   7.729 -0.7779 -0.0136 -0.3916
   76SLPC  H11B 6817   0.329   5.345   7.864 -0.1740 -0.4794  0.4616
   76SLPC     P 6818   0.246   5.232   7.623 -0.2187 -0.2505 -0.0762
   76SLPC   O13 6819   0.236   5.118   7.523  0.1352 -0.6300 -0.4213
   76SLPC   O14 6820   0.132   5.247   7.711  0.4572  0.4121  0.4859
   76SLPC   O12 6821   0.374   5.217   7.707 -0.3435 -0.7795 -0.0272
   76SLPC   O11 6822   0.264   5.364   7.543  0.4163 -0.0852  0.1751
   76SLPC    C1 6823   0.346   5.369   7.428  0.0072 -0.1646 -0.5025
   76SLPC    HA 6824   0.453   5.362   7.458  0.3683  2.8528 -0.8145
   76SLPC    HB 6825   0.325   5.290   7.353  2.1335  0.7012 -2.1246
   76SLPC    C2 6826   0.338   5.504   7.351  0.5509  0.0660  0.6823
   76SLPC    HS 6827   0.239   5.511   7.301  1.0144 -1.8036 -0.6415
   76SLPC   O21 6828   0.440   5.514   7.249 -0.7552  0.2467  0.5318
   76SLPC   C21 6829   0.433   5.436   7.152 -0.0587  0.2198 -0.3674
   76SLPC   O22 6830   0.347   5.352   7.133 -0.4079  0.2678  0.0590
   76SLPC   C22 6831   0.533   5.479   7.038  0.5571  0.4243  0.0135
   76SLPC   H2R 6832   0.547   5.588   7.054  0.2110  0.2716  1.4540
   76SLPC   H2S 6833   0.627   5.425   7.064  0.2784 -0.5429 -0.9066
   76SLPC    C3 6834   0.357   5.610   7.449  0.3805 -0.3213 -0.3367
   76SLPC    HX 6835   0.437   5.588   7.524  0.9228  0.2247 -0.7423
   76SLPC    HY 6836   0.266   5.621   7.511 -1.0656 -1.1370 -2.2276
   76SLPC   O31 6837   0.390   5.732   7.388  0.4532 -0.4363 -0.7891
   76SLPC   C31 6838   0.509   5.771   7.354  0.3253 -0.7030  0.5386
   76SLPC   O32 6839   0.614   5.725   7.387  0.2416 -0.9200 -0.1332
   76SLPC   C32 6840   0.497   5.893   7.247 -0.1623  0.2610 -0.3342
   76SLPC   H2X 6841   0.589   5.953   7.263  0.5494 -1.0109  0.5252
   76SLPC   H2Y 6842   0.400   5.945   7.261 -1.7918 -0.9372 -5.1212
   76SLPC   C23 6843   0.480   5.448   6.895  0.2610 -0.1194  1.0038
   76SLPC   H3R 6844   0.385   5.504   6.884  0.8980  0.9133  0.6037
   76SLPC   H3S 6845   0.476   5.337   6.881 -1.3507  0.1641 -1.3417
   76SLPC   C24 6846   0.577   5.512   6.795 -0.8487 -0.5736 -0.2823
   76SLPC   H4R 6847   0.682   5.498   6.828 -0.5728  0.9621 -0.4486
   76SLPC   H4S 6848   0.559   5.620   6.809  0.9609 -0.0425 -1.6149
   76SLPC   C25 6849   0.554   5.478   6.646 -0.6042 -1.1957 -0.2935
   76SLPC   H5R 6850   0.462   5.523   6.603 -0.4556 -0.9187 -0.3266
   76SLPC   H5S 6851   0.549   5.367   6.652 -0.6951 -1.1452  0.6636
   76SLPC   C26 6852   0.682   5.519   6.573 -0.1709 -0.0943 -0.6211
   76SLPC   H6R 6853   0.766   5.473   6.629 -0.8450 -0.9453 -0.2956
   76SLPC   H6S 6854   0.682   5.630   6.577  0.9318  0.0119 -2.4280
   76SLPC   C27 6855   0.672   5.477   6.426 -0.4210 -0.4761  0.0531
   76SLPC   H7R 6856   0.579   5.526   6.390 -0.0334  0.2395  0.0073
   76SLPC   H7S 6857   0.649   5.370   6.440 -3.2878  0.2237  1.4436
   76SLPC   C28 6858   0.796   5.496   6.332 -0.2297  0.1069  0.3129
   76SLPC   H8R 6859   0.751   5.464   6.236 -1.4804  1.7953  0.3070
   76SLPC   H8S 6860   0.870   5.424   6.373 -3.2138 -0.9227  4.5908
   76SLPC   C29 6861   0.845   5.634   6.325  0.1557 -0.0038 -0.9885
   76SLPC   H9R 6862   0.852   5.681   6.424  0.3799 -0.0363 -0.9893
   76SLPC  C210 6863   0.861   5.716   6.219  0.2995 -0.0319  0.3292
   76SLPC  H10R 6864   0.891   5.819   6.241  0.9911 -0.3454  0.8757
   76SLPC  C211 6865   0.846   5.677   6.069 -0.3718  0.0054  0.3518
   76SLPC  H11R 6866   0.809   5.754   5.999 -2.4595 -0.5140  0.8112
   76SLPC  H11S 6867   0.767   5.600   6.058  0.2712 -0.3627 -2.2464
   76SLPC  C212 6868   0.978   5.612   6.029  0.0816 -1.0183  0.4343
   76SLPC  H12R 6869   0.990   5.516   6.079 -3.9794 -0.9266  1.9921
   76SLPC  C213 6870   1.081   5.670   5.961 -0.6217 -0.1331 -0.5747
   76SLPC  H13R 6871   1.173   5.613   5.942  0.1936 -0.0411  2.4947
   76SLPC  C214 6872   1.072   5.809   5.891  0.1378  0.2007 -0.2174
   76SLPC  H14R 6873   1.169   5.858   5.869 -0.5677  0.0857 -4.4794
   76SLPC  H14S 6874   1.011   5.882   5.949 -1.6308  0.0866 -1.8285
   76SLPC  C215 6875   1.012   5.812   5.754 -0.2978 -0.0806 -0.7462
   76SLPC  H15R 6876   0.919   5.754   5.736 -0.1589 -0.0050 -1.7475
   76SLPC  H15S 6877   1.084   5.771   5.681 -1.2464  1.3208 -2.5594
   76SLPC  C216 6878   0.993   5.960   5.697  1.1120  0.0777 -0.3381
   76SLPC  H16R 6879   1.083   6.021   5.720  0.9865  1.8071 -3.7970
   76SLPC  H16S 6880   0.907   6.008   5.748 -0.1822 -1.1781 -1.2597
   76SLPC  C217 6881   0.988   5.956   5.543  0.1689 -0.1899  0.0721
   76SLPC  H17R 6882   0.893   5.907   5.512 -0.4090 -0.9866  2.7966
   76SLPC  H17S 6883   1.075   5.900   5.504 -0.6108  0.5834 -3.1160
   76SLPC  C218 6884   0.998   6.093   5.484 -0.2562  0.3808  0.3060
   76SLPC  H18R 6885   1.009   6.094   5.374 -2.1660  2.6726  0.0675
   76SLPC  H18S 6886   1.081   6.153   5.528  0.4442  0.9412 -1.6912
   76SLPC  H18T 6887   0.900   6.136   5.512 -0.4614  0.5258 -0.6226
   76SLPC   C33 6888   0.508   5.849   7.095 -0.0839 -0.0630  0.1003
   76SLPC   H3X 6889   0.409   5.812   7.062  0.6559 -3.0710  0.9673
   76SLPC   H3Y 6890   0.591   5.776   7.086  0.9013  0.9716  0.4890
   76SLPC   C34 6891   0.567   5.959   7.007 -0.0740 -0.3867 -0.1988
   76SLPC   H4X 6892   0.676   5.959   7.030 -0.2733 -1.5358  0.8770
   76SLPC   H4Y 6893   0.541   6.064   7.034  1.7852  0.1907 -0.4637
   76SLPC   C35 6894   0.528   5.930   6.858 -0.2543  0.2702 -0.2471
   76SLPC   H5X 6895   0.419   5.947   6.852 -1.1965 -3.5876  2.2425
   76SLPC   H5Y 6896   0.546   5.820   6.850 -2.5835 -0.5436  3.4051
   76SLPC   C36 6897   0.599   6.008   6.759 -0.2462 -0.5278 -1.1897
   76SLPC   H6X 6898   0.665   6.076   6.818 -1.2210 -1.1063  0.6238
   76SLPC   H6Y 6899   0.519   6.058   6.699 -0.2536  0.1132 -0.6582
   76SLPC   C37 6900   0.697   5.938   6.650  0.5107 -0.3629 -0.1145
   76SLPC   H7X 6901   0.623   5.885   6.587 -1.9420 -0.5408  2.6523
   76SLPC   H7Y 6902   0.750   5.854   6.701 -0.1814 -0.4853  0.4306
   76SLPC   C38 6903   0.784   6.041   6.572  0.8198 -0.2737 -0.0147
   76SLPC   H8X 6904   0.818   6.118   6.644  1.5570  0.4256 -1.0851
   76SLPC   H8Y 6905   0.727   6.101   6.498  1.2910  2.3020  1.5946
   76SLPC   C39 6906   0.914   5.969   6.528  0.2337  0.4975 -0.2136
   76SLPC   H9X 6907   0.881   5.877   6.476  1.6280 -0.6525  0.8265
   76SLPC   H9Y 6908   0.977   5.946   6.617  1.1638  1.8876 -0.4746
   76SLPC  C310 6909   0.999   6.051   6.429 -0.5490 -0.5535  0.0420
   76SLPC  H10X 6910   1.039   6.126   6.500 -2.0375  0.3175  0.0222
   76SLPC  H10Y 6911   0.940   6.110   6.355  0.1900  0.5592  0.3025
   76SLPC  C311 6912   1.109   5.977   6.351 -0.1717 -0.3198 -0.1679
   76SLPC  H11X 6913   1.059   5.911   6.276  1.3385 -0.3408 -1.1972
   76SLPC  H11Y 6914   1.168   5.916   6.422  0.5795  0.1206 -0.4007
   76SLPC  C312 6915   1.200   6.074   6.272 -0.3247  0.2112 -0.0007
   76SLPC  H12X 6916   1.238   6.155   6.339 -0.5080 -0.5635  1.0577
   76SLPC  H12Y 6917   1.132   6.124   6.199 -0.7241  1.7198  1.3346
   76SLPC  C313 6918   1.313   5.988   6.216 -0.1003  0.3053  0.0812
   76SLPC  H13X 6919   1.271   5.911   6.148 -0.8426 -1.2129  2.1569
   76SLPC  H13Y 6920   1.352   5.932   6.303 -1.2773 -2.6251 -1.1447
   76SLPC  C314 6921   1.422   6.064   6.142  0.3299  0.2951  0.0847
   76SLPC  H14X 6922   1.514   6.003   6.142  0.2163  0.1091  0.8626
   76SLPC  H14Y 6923   1.444   6.153   6.205  0.6183 -0.6229  1.3129
   76SLPC  C315 6924   1.374   6.100   6.003  0.2493  0.1286  0.4881
   76SLPC  H15X 6925   1.275   6.149   6.015  0.3293  0.2327  0.7336
   76SLPC  H15Y 6926   1.355   6.004   5.949 -0.5204 -0.1890  1.3085
   76SLPC  C316 6927   1.476   6.185   5.923 -0.0768  0.6852 -0.2744
   76SLPC  H16X 6928   1.571   6.133   5.902 -0.5019  0.2198 -1.1262
   76SLPC  H16Y 6929   1.494   6.274   5.987 -0.8893  0.2942  0.5259
   76SLPC  C317 6930   1.401   6.223   5.791 -0.1843  0.0499  0.1449
   76SLPC  H17X 6931   1.462   6.309   5.757  1.7107 -0.9447  0.8760
   76SLPC  H17Y 6932   1.296   6.251   5.812 -0.5691 -2.2804  1.8301
   76SLPC  C318 6933   1.405   6.103   5.690 -0.5499 -1.3380  0.2635
   76SLPC  H18X 6934   1.396   6.149   5.589 -1.3190 -0.0744  0.8816
   76SLPC  H18Y 6935   1.314   6.042   5.707 -1.0170 -0.7478 -0.0904
   76SLPC  H18Z 6936   1.507   6.059   5.691  1.0869  2.0719  0.5921
   77SLPC     N 6937   1.274   4.934   7.426  0.1924 -0.4983 -0.1130
   77SLPC   C13 6938   1.282   5.050   7.324  0.4828  0.9420  0.0705
   77SLPC  H13A 6939   1.381   5.083   7.298  0.7605  0.5354  0.5905
   77SLPC  H13B 6940   1.221   5.013   7.242  1.9202 -0.3918 -0.4556
   77SLPC  H13C 6941   1.207   5.123   7.351 -2.0929 -0.3731 -2.8893
   77SLPC   C14 6942   1.349   4.815   7.373  0.7865 -0.2412  0.1142
   77SLPC  H14A 6943   1.296   4.778   7.287  0.7996 -1.2740  0.5403
   77SLPC  H14B 6944   1.451   4.841   7.348  0.0856  0.6001 -2.1125
   77SLPC  H14C 6945   1.346   4.732   7.442  3.9503 -0.2186  0.4316
   77SLPC   C15 6946   1.133   4.891   7.431 -0.3881 -0.4513  0.4228
   77SLPC  H15A 6947   1.084   4.876   7.336  3.6401  0.7311 -2.0930
   77SLPC  H15B 6948   1.114   4.816   7.507 -2.1852 -0.4379  0.0456
   77SLPC  H15C 6949   1.077   4.964   7.488  0.7741  1.3258 -0.6335
   77SLPC   C12 6950   1.328   4.981   7.561 -0.2385 -0.3816 -0.0347
   77SLPC  H12A 6951   1.426   5.025   7.549 -0.8128  1.4575  1.4471
   77SLPC  H12B 6952   1.340   4.899   7.630 -0.2680 -0.5187 -0.1918
   77SLPC   C11 6953   1.250   5.096   7.640 -0.6568 -0.3774 -0.2979
   77SLPC  H11A 6954   1.319   5.134   7.718 -3.6745  1.0447  1.8729
   77SLPC  H11B 6955   1.166   5.057   7.699 -0.2782 -0.0688  0.4566
   77SLPC     P 6956   1.298   5.334   7.522  0.2467 -0.0557 -0.1562
   77SLPC   O13 6957   1.244   5.453   7.584  0.2267  0.0304 -0.6202
   77SLPC   O14 6958   1.439   5.311   7.556 -0.2119  0.5058  0.4056
   77SLPC   O12 6959   1.210   5.209   7.558  0.2569 -0.5383  0.0113
   77SLPC   O11 6960   1.292   5.338   7.362 -0.1893 -0.1516 -0.5747
   77SLPC    C1 6961   1.177   5.399   7.311  0.0778 -0.0034  0.2270
   77SLPC    HA 6962   1.087   5.353   7.357  0.6404 -1.5878 -0.1652
   77SLPC    HB 6963   1.180   5.506   7.342 -1.0002  0.3499 -0.8269
   77SLPC    C2 6964   1.168   5.382   7.161 -0.2800  0.0686  0.0474
   77SLPC    HS 6965   1.135   5.482   7.124  1.2768  0.4554 -0.3485
   77SLPC   O21 6966   1.070   5.277   7.139 -0.0649 -0.1843 -0.7145
   77SLPC   C21 6967   0.999   5.281   7.029  0.5081 -0.1284  0.5237
   77SLPC   O22 6968   0.985   5.369   6.946  0.0011 -0.2608  0.6889
   77SLPC   C22 6969   0.916   5.156   7.022 -0.1763 -0.7385 -0.5848
   77SLPC   H2R 6970   0.966   5.076   7.080  1.6377  1.9119  1.7893
   77SLPC   H2S 6971   0.815   5.168   7.068 -0.3576 -0.4698 -1.0388
   77SLPC    C3 6972   1.302   5.344   7.107 -0.1869 -0.1863  0.2731
   77SLPC    HX 6973   1.352   5.262   7.162  1.9948  2.2368  2.1423
   77SLPC    HY 6974   1.360   5.437   7.125  0.1240 -0.5881  1.4171
   77SLPC   O31 6975   1.287   5.332   6.966  0.5190 -0.4138 -0.1294
   77SLPC   C31 6976   1.297   5.207   6.924 -0.1843 -0.0534  0.6986
   77SLPC   O32 6977   1.299   5.106   6.992 -0.1384 -0.0413 -0.6039
   77SLPC   C32 6978   1.299   5.210   6.773  0.4611 -0.3119 -0.1406
   77SLPC   H2X 6979   1.372   5.285   6.736  0.6127 -0.7543 -0.7422
   77SLPC   H2Y 6980   1.199   5.244   6.736 -1.1222 -1.1686  3.0080
   77SLPC   C23 6981   0.907   5.113   6.874  0.1094  0.1602  1.0935
   77SLPC   H3R 6982   0.918   5.004   6.855  0.8300  0.9460 -4.9051
   77SLPC   H3S 6983   1.002   5.151   6.830 -0.6651  2.5338  1.3323
   77SLPC   C24 6984   0.784   5.159   6.794 -0.4186  0.1301 -0.8681
   77SLPC   H4R 6985   0.792   5.267   6.769  0.5478  0.0944 -0.7494
   77SLPC   H4S 6986   0.701   5.138   6.864 -0.6473  1.0178 -0.8605
   77SLPC   C25 6987   0.764   5.074   6.669  0.1715 -0.1290 -0.9950
   77SLPC   H5R 6988   0.657   5.100   6.653 -0.0251  0.9572  1.6467
   77SLPC   H5S 6989   0.769   4.964   6.687 -0.7193 -0.0710 -0.2610
   77SLPC   C26 6990   0.853   5.123   6.556 -0.1362  0.3475 -0.6720
   77SLPC   H6R 6991   0.957   5.103   6.591 -0.8108 -1.3571  0.5047
   77SLPC   H6S 6992   0.851   5.234   6.547  2.8439  0.5518  0.0958
   77SLPC   C27 6993   0.821   5.071   6.420 -0.3597 -0.1582  1.0382
   77SLPC   H7R 6994   0.750   5.145   6.377 -1.8915 -2.5723 -0.8413
   77SLPC   H7S 6995   0.757   4.980   6.429  0.9457 -0.9488  2.9951
   77SLPC   C28 6996   0.944   5.051   6.327  0.0839 -0.3729  0.5930
   77SLPC   H8R 6997   1.003   4.973   6.379  1.2583  0.1605  0.1093
   77SLPC   H8S 6998   1.002   5.146   6.330  0.1555 -0.4395  1.4707
   77SLPC   C29 6999   0.909   5.007   6.183  0.0428  0.3152  0.9194
   77SLPC   H9R 7000   0.888   4.899   6.184  0.2653  0.2709  1.9641
   77SLPC  C210 7001   0.913   5.076   6.065 -0.8400  0.7702 -0.2664
   77SLPC  H10R 7002   0.892   5.020   5.973 -1.0705  0.8738 -0.2789
   77SLPC  C211 7003   0.951   5.217   6.044  0.6504  0.7930  0.1512
   77SLPC  H11R 7004   1.061   5.229   6.035  1.1945 -2.0870  1.9154
   77SLPC  H11S 7005   0.926   5.263   6.142 -0.7213 -0.7707  0.5706
   77SLPC  C212 7006   0.865   5.280   5.938 -0.3755 -0.7098  0.1802
   77SLPC  H12R 7007   0.764   5.314   5.962  0.3194  0.9066  0.9628
   77SLPC  C213 7008   0.911   5.297   5.809 -0.2541 -0.4048 -0.0783
   77SLPC  H13R 7009   0.840   5.349   5.742 -1.1663  0.8764  1.7682
   77SLPC  C214 7010   1.039   5.233   5.759 -0.3068 -0.0318  0.4231
   77SLPC  H14R 7011   1.032   5.200   5.653 -3.0570  1.3466  0.1086
   77SLPC  H14S 7012   1.060   5.136   5.810 -0.3252 -0.1717  0.1686
   77SLPC  C215 7013   1.160   5.332   5.772  0.1950  0.2198 -0.0669
   77SLPC  H15R 7014   1.246   5.270   5.739 -1.0490 -2.4709  1.4115
   77SLPC  H15S 7015   1.168   5.366   5.877 -1.1710  1.7089 -0.4050
   77SLPC  C216 7016   1.158   5.454   5.684  0.1526  0.3510 -0.7513
   77SLPC  H16R 7017   1.077   5.521   5.721  0.0577  0.6174 -1.4252
   77SLPC  H16S 7018   1.127   5.430   5.580  0.5678  1.5623 -1.1708
   77SLPC  C217 7019   1.295   5.526   5.682  0.2845 -0.0780  0.1191
   77SLPC  H17R 7020   1.370   5.446   5.662  0.7835  0.0370  1.4178
   77SLPC  H17S 7021   1.312   5.554   5.789 -2.7564  0.1254  0.6277
   77SLPC  C218 7022   1.305   5.638   5.580 -0.0415  0.2098 -0.1343
   77SLPC  H18R 7023   1.410   5.672   5.569 -0.7974  3.0873  0.7890
   77SLPC  H18S 7024   1.251   5.730   5.610  0.0110  0.2731 -0.2354
   77SLPC  H18T 7025   1.267   5.604   5.481 -2.1500  2.2552 -0.1035
   77SLPC   C33 7026   1.329   5.063   6.728 -0.2058 -0.4006 -0.0107
   77SLPC   H3X 7027   1.244   4.996   6.754 -3.4566  1.7515 -3.9442
   77SLPC   H3Y 7028   1.416   5.024   6.784  1.6025  0.2160 -2.2556
   77SLPC   C34 7029   1.358   5.054   6.577  0.5346  0.1291 -0.0192
   77SLPC   H4X 7030   1.447   5.120   6.562  1.2179 -0.6846  0.3877
   77SLPC   H4Y 7031   1.275   5.093   6.514 -2.0829 -1.9055  1.9724
   77SLPC   C35 7032   1.386   4.913   6.525 -0.6481 -0.0240 -1.3615
   77SLPC   H5X 7033   1.346   4.829   6.586  1.6709 -0.0026  0.3639
   77SLPC   H5Y 7034   1.496   4.899   6.534 -0.9790 -1.2856  2.2450
   77SLPC   C36 7035   1.344   4.880   6.383  0.1041  0.1222  0.0630
   77SLPC   H6X 7036   1.401   4.941   6.310 -0.7571 -2.0942 -2.5999
   77SLPC   H6Y 7037   1.233   4.894   6.381  0.1421  0.3564 -0.9062
   77SLPC   C37 7038   1.364   4.730   6.337 -0.8636  0.1421  0.5431
   77SLPC   H7X 7039   1.300   4.652   6.384 -0.1125 -1.7969 -1.5055
   77SLPC   H7Y 7040   1.471   4.706   6.356 -0.7477  1.3773  1.6009
   77SLPC   C38 7041   1.359   4.708   6.183 -0.3935 -0.0485 -0.5267
   77SLPC   H8X 7042   1.407   4.610   6.165  1.0754  0.3495  0.9744
   77SLPC   H8Y 7043   1.425   4.776   6.124  0.4535 -0.5205 -0.1414
   77SLPC   C39 7044   1.219   4.712   6.124  0.4513  0.3673  0.3172
   77SLPC   H9X 7045   1.157   4.794   6.164 -0.6054 -0.4623  0.4290
   77SLPC   H9Y 7046   1.156   4.635   6.173 -2.0555  2.6025  0.8223
   77SLPC  C310 7047   1.213   4.700   5.971  0.6590  0.0174 -0.6321
   77SLPC  H10X 7048   1.103   4.696   5.953  0.3394  0.5785  1.0630
   77SLPC  H10Y 7049   1.248   4.600   5.935 -1.7989 -1.6861  1.3370
   77SLPC  C311 7050   1.281   4.813   5.899  0.2046 -0.0743 -0.1927
   77SLPC  H11X 7051   1.390   4.794   5.906 -0.1045 -1.6539  1.0865
   77SLPC  H11Y 7052   1.251   4.907   5.950  1.0733  0.3002 -0.3561
   77SLPC  C312 7053   1.232   4.816   5.748 -0.7267 -0.0810 -0.4101
   77SLPC  H12X 7054   1.121   4.818   5.748 -0.7432  1.3418  1.5366
   77SLPC  H12Y 7055   1.286   4.730   5.703  1.9702  2.0545 -1.5763
   77SLPC  C313 7056   1.280   4.936   5.665 -0.7054  0.0803  0.1254
   77SLPC  H13X 7057   1.390   4.945   5.660 -0.6115  0.1867  1.7291
   77SLPC  H13Y 7058   1.245   5.037   5.698 -1.1339  0.4906 -1.4633
   77SLPC  C314 7059   1.229   4.926   5.517  0.4224  1.3503 -0.0436
   77SLPC  H14X 7060   1.215   5.030   5.479 -1.5012  1.4509  0.8425
   77SLPC  H14Y 7061   1.123   4.894   5.514  0.8136  0.0524 -1.1149
   77SLPC  C315 7062   1.325   4.845   5.431  0.4316  0.1324  0.5144
   77SLPC  H15X 7063   1.345   4.748   5.482  0.6043 -0.2680 -0.2968
   77SLPC  H15Y 7064   1.419   4.904   5.426  0.2653  0.3052 -0.9982
   77SLPC  C316 7065   1.284   4.817   5.287  0.3165  0.0487  0.8028
   77SLPC  H16X 7066   1.261   4.914   5.238  0.9367  0.4253  1.2369
   77SLPC  H16Y 7067   1.189   4.760   5.293  0.0839  0.0183 -1.9484
   77SLPC  C317 7068   1.381   4.730   5.207 -0.4912 -0.0444 -0.2448
   77SLPC  H17X 7069   1.345   4.730   5.102  1.0663  0.6634 -0.8065
   77SLPC  H17Y 7070   1.398   4.627   5.245 -0.6869 -0.6532 -1.7728
   77SLPC  C318 7071   1.517   4.800   5.192 -0.4044 -0.6700 -0.8839
   77SLPC  H18X 7072   1.518   4.903   5.232 -1.0327 -1.1136  0.3136
   77SLPC  H18Y 7073   1.573   4.788   5.097 -0.6327  2.2655 -1.4962
   77SLPC  H18Z 7074   1.585   4.747   5.263 -2.0665  0.5129  1.7417
   78SLPC     N 7075   3.204   1.375   7.330 -0.2306  0.3806 -0.1494
   78SLPC   C13 7076   3.123   1.398   7.211 -0.5406 -0.5763 -0.4684
   78SLPC  H13A 7077   3.131   1.501   7.179 -0.6554  0.0983  1.5584
   78SLPC  H13B 7078   3.152   1.329   7.134  0.7741 -1.0601  0.4374
   78SLPC  H13C 7079   3.018   1.394   7.234 -0.3519  1.7285  1.2035
   78SLPC   C14 7080   3.178   1.239   7.394 -0.7452 -0.4396  0.7280
   78SLPC  H14A 7081   3.223   1.234   7.492 -1.3923 -1.2713  0.9881
   78SLPC  H14B 7082   3.073   1.215   7.397 -1.5040  2.1802 -1.2501
   78SLPC  H14C 7083   3.234   1.165   7.338 -0.0162  0.0154  0.8312
   78SLPC   C15 7084   3.161   1.475   7.436  0.6321  0.6765 -0.2440
   78SLPC  H15A 7085   3.180   1.579   7.415 -0.5303  1.1873  1.0357
   78SLPC  H15B 7086   3.053   1.466   7.446  0.5765 -1.0234 -1.8836
   78SLPC  H15C 7087   3.199   1.442   7.532 -0.3699 -0.2806 -0.1455
   78SLPC   C12 7088   3.345   1.409   7.295 -0.5520 -0.3527  0.0082
   78SLPC  H12A 7089   3.391   1.319   7.259 -0.3279  1.6639 -5.8225
   78SLPC  H12B 7090   3.392   1.442   7.387 -0.2314  2.8305 -1.1412
   78SLPC   C11 7091   3.372   1.525   7.190  0.8491  0.7907  0.1725
   78SLPC  H11A 7092   3.328   1.505   7.090 -1.8699  4.5520  0.3887
   78SLPC  H11B 7093   3.482   1.537   7.191  0.6971  2.4964  0.9489
   78SLPC     P 7094   3.311   1.774   7.158  0.4685  0.5903 -0.2040
   78SLPC   O13 7095   3.216   1.858   7.235 -0.2168 -0.3520 -0.2745
   78SLPC   O14 7096   3.442   1.825   7.132 -0.6251  0.7993 -0.1981
   78SLPC   O12 7097   3.314   1.644   7.238  0.3280 -0.4344 -0.3549
   78SLPC   O11 7098   3.240   1.730   7.020  0.2621  0.2728 -0.3516
   78SLPC    C1 7099   3.306   1.717   6.903 -0.8157  0.4805  0.2223
   78SLPC    HA 7100   3.410   1.677   6.909 -0.8312  0.5999  1.9546
   78SLPC    HB 7101   3.248   1.652   6.835  0.2809  1.8420 -2.1248
   78SLPC    C2 7102   3.320   1.846   6.818 -0.0166 -0.4135 -0.0370
   78SLPC    HS 7103   3.348   1.925   6.890  1.4795 -1.0434  0.1163
   78SLPC   O21 7104   3.194   1.865   6.749  0.4435 -0.0740 -0.0146
   78SLPC   C21 7105   3.115   1.941   6.814 -0.0798  0.1255 -0.0848
   78SLPC   O22 7106   3.133   1.995   6.924  0.3898  0.4886  0.3893
   78SLPC   C22 7107   2.989   1.960   6.730  0.0314  0.2407  0.1619
   78SLPC   H2R 7108   2.927   1.872   6.758  0.5184 -0.5462 -1.1449
   78SLPC   H2S 7109   2.944   2.054   6.770 -1.8215 -1.5963  2.6777
   78SLPC    C3 7110   3.443   1.846   6.724  0.3858  0.5310 -0.1394
   78SLPC    HX 7111   3.459   1.743   6.686 -1.3091 -0.8156  2.4675
   78SLPC    HY 7112   3.532   1.869   6.785 -0.0302  0.3087  0.5569
   78SLPC   O31 7113   3.432   1.934   6.610  0.4853 -0.5080 -0.5522
   78SLPC   C31 7114   3.464   2.063   6.632 -0.5191  0.1389 -0.1219
   78SLPC   O32 7115   3.507   2.098   6.740 -0.6540 -0.1103 -0.8184
   78SLPC   C32 7116   3.440   2.150   6.509  0.2191 -1.0471 -0.1088
   78SLPC   H2X 7117   3.359   2.098   6.452  0.9165 -0.5939 -1.5684
   78SLPC   H2Y 7118   3.529   2.157   6.443  0.4218  1.8945  0.3433
   78SLPC   C23 7119   3.004   1.963   6.572 -0.2235 -0.3431 -0.1425
   78SLPC   H3R 7120   3.070   1.876   6.549  0.4774  0.0714  0.2784
   78SLPC   H3S 7121   3.058   2.054   6.542  0.6582 -0.9836 -0.5349
   78SLPC   C24 7122   2.872   1.967   6.496 -0.8092 -0.3772 -0.0669
   78SLPC   H4R 7123   2.817   2.059   6.528  0.0808  0.8793 -1.9922
   78SLPC   H4S 7124   2.814   1.873   6.511 -1.6505  0.2551  0.7849
   78SLPC   C25 7125   2.892   1.998   6.341 -0.1760  0.2319 -1.2725
   78SLPC   H5R 7126   2.947   1.910   6.300  0.5215  0.8967 -1.7854
   78SLPC   H5S 7127   2.969   2.077   6.330 -0.2158  0.0560 -3.2365
   78SLPC   C26 7128   2.758   2.023   6.266 -0.5346  0.3401  0.1540
   78SLPC   H6R 7129   2.706   2.101   6.325 -0.4119 -0.4267  1.3069
   78SLPC   H6S 7130   2.703   1.927   6.260  1.8067 -1.0275 -0.8139
   78SLPC   C27 7131   2.801   2.085   6.126 -0.1956 -0.5847 -0.1229
   78SLPC   H7R 7132   2.867   2.018   6.068 -0.3515  0.3170 -1.3693
   78SLPC   H7S 7133   2.854   2.180   6.149 -0.0447 -0.2200 -1.8646
   78SLPC   C28 7134   2.689   2.123   6.032 -0.3628 -0.0737  0.8463
   78SLPC   H8R 7135   2.717   2.179   5.940  3.0525 -1.5735  0.8593
   78SLPC   H8S 7136   2.616   2.185   6.088  0.2294  0.0543  1.4800
   78SLPC   C29 7137   2.623   1.995   5.980  0.7544 -0.1605 -0.0834
   78SLPC   H9R 7138   2.596   1.933   6.067  1.6321  0.9419  1.0073
   78SLPC  C210 7139   2.601   1.956   5.854  0.4057  0.3327 -0.0932
   78SLPC  H10R 7140   2.550   1.859   5.840  0.3560  0.3140  0.2076
   78SLPC  C211 7141   2.617   2.036   5.730 -0.2049 -0.7632  0.3271
   78SLPC  H11R 7142   2.603   2.144   5.754 -1.9048 -0.7703 -0.4714
   78SLPC  H11S 7143   2.541   2.010   5.653 -0.5785  1.8965 -0.3042
   78SLPC  C212 7144   2.756   2.013   5.673  0.2314  0.2030  0.6147
   78SLPC  H12R 7145   2.833   2.090   5.688 -0.9636  1.7575 -0.8267
   78SLPC  C213 7146   2.800   1.902   5.616  0.6702 -0.0812  0.0670
   78SLPC  H13R 7147   2.906   1.895   5.587  0.7106 -2.9236  0.6460
   78SLPC  C214 7148   2.731   1.771   5.574 -0.0233  0.2427  0.2049
   78SLPC  H14R 7149   2.640   1.762   5.639  0.9916  1.9293  1.9812
   78SLPC  H14S 7150   2.803   1.697   5.615  1.0647  1.0114 -0.2864
   78SLPC  C215 7151   2.722   1.751   5.419  0.2013 -0.1416 -0.6562
   78SLPC  H15R 7152   2.824   1.740   5.377  1.0458  0.0308  1.2517
   78SLPC  H15S 7153   2.676   1.840   5.370  0.7735  0.9867  0.7893
   78SLPC  C216 7154   2.629   1.630   5.386 -0.1627  0.3278  0.1312
   78SLPC  H16R 7155   2.619   1.563   5.474 -1.1457  1.4357  0.8975
   78SLPC  H16S 7156   2.674   1.580   5.297  0.7305  1.6337 -0.1727
   78SLPC  C217 7157   2.479   1.670   5.348 -0.8608 -0.1977  0.0416
   78SLPC  H17R 7158   2.476   1.771   5.303 -2.3689  0.5163  1.6348
   78SLPC  H17S 7159   2.417   1.667   5.440 -0.4185  0.5140  0.3737
   78SLPC  C218 7160   2.424   1.579   5.231  0.4997  0.1068 -0.1632
   78SLPC  H18R 7161   2.483   1.595   5.139  1.6808  1.8408  0.8297
   78SLPC  H18S 7162   2.318   1.607   5.211  0.7570  1.0073 -0.3080
   78SLPC  H18T 7163   2.424   1.473   5.263 -2.1844  0.2600  0.6314
   78SLPC   C33 7164   3.397   2.292   6.553  0.2866 -0.1909 -0.3233
   78SLPC   H3X 7165   3.491   2.347   6.578 -0.5017  1.0837 -0.1007
   78SLPC   H3Y 7166   3.319   2.275   6.631 -0.5328  0.5075 -0.9788
   78SLPC   C34 7167   3.333   2.377   6.442  0.1456  0.2719 -0.2907
   78SLPC   H4X 7168   3.281   2.469   6.476 -2.6262 -1.3476  0.2306
   78SLPC   H4Y 7169   3.246   2.315   6.412  1.8519 -1.9793 -0.8244
   78SLPC   C35 7170   3.424   2.408   6.329 -0.5192 -0.2134  0.1097
   78SLPC   H5X 7171   3.491   2.325   6.299  0.9913  0.9674  0.1339
   78SLPC   H5Y 7172   3.505   2.476   6.363  0.4023 -0.7272 -1.0173
   78SLPC   C36 7173   3.353   2.481   6.215 -0.5311 -0.0754 -0.4767
   78SLPC   H6X 7174   3.302   2.566   6.266 -0.1395  0.3448 -0.7706
   78SLPC   H6Y 7175   3.261   2.432   6.176 -1.4599  1.6090 -0.4907
   78SLPC   C37 7176   3.444   2.537   6.109  0.1518 -1.1216 -0.3172
   78SLPC   H7X 7177   3.537   2.562   6.164 -0.3227  1.3917 -0.5654
   78SLPC   H7Y 7178   3.412   2.634   6.065  1.8199 -1.1183 -1.6418
   78SLPC   C38 7179   3.473   2.448   5.986 -0.1885  0.0287 -0.8637
   78SLPC   H8X 7180   3.375   2.418   5.944 -1.1925 -0.0450  1.3565
   78SLPC   H8Y 7181   3.519   2.351   6.017  0.9301  0.3944 -1.3244
   78SLPC   C39 7182   3.561   2.526   5.883  0.3008  0.5594  0.4271
   78SLPC   H9X 7183   3.666   2.513   5.915  0.4756  1.7769  0.3938
   78SLPC   H9Y 7184   3.521   2.628   5.867 -1.7769 -0.3669 -0.8182
   78SLPC  C310 7185   3.557   2.453   5.739 -0.6509  0.3702  0.4737
   78SLPC  H10X 7186   3.587   2.346   5.737  2.9987  1.2423  0.5264
   78SLPC  H10Y 7187   3.633   2.511   5.682  0.7072  0.0112  1.8194
   78SLPC  C311 7188   3.428   2.480   5.664  0.3532  0.4046  0.4387
   78SLPC  H11X 7189   3.394   2.585   5.672  1.4320  0.8316 -0.4140
   78SLPC  H11Y 7190   3.356   2.405   5.705  0.2810 -0.9229 -1.9555
   78SLPC  C312 7191   3.455   2.449   5.513 -0.0849  0.5502 -0.0828
   78SLPC  H12X 7192   3.491   2.345   5.498 -0.6747  0.2098  0.7699
   78SLPC  H12Y 7193   3.531   2.516   5.468  0.1003 -0.4153 -1.2561
   78SLPC  C313 7194   3.335   2.474   5.423  0.3421 -0.6443 -0.5612
   78SLPC  H13X 7195   3.370   2.493   5.319  0.3727 -1.2444 -0.6626
   78SLPC  H13Y 7196   3.284   2.563   5.465  0.2417 -0.7821 -0.3898
   78SLPC  C314 7197   3.227   2.359   5.390  1.0774 -0.4107  0.0957
   78SLPC  H14X 7198   3.154   2.349   5.474  0.3550  1.8262 -0.1991
   78SLPC  H14Y 7199   3.295   2.272   5.402  4.3529  2.3214  4.2333
   78SLPC  C315 7200   3.165   2.371   5.256 -0.0518 -0.5168 -0.4664
   78SLPC  H15X 7201   3.238   2.380   5.172  1.4812 -2.0402  0.6210
   78SLPC  H15Y 7202   3.106   2.465   5.253  1.3680  0.4602  0.7829
   78SLPC  C316 7203   3.078   2.246   5.229 -0.1785 -0.7237  0.7159
   78SLPC  H16X 7204   3.019   2.229   5.321  2.6396 -0.2156  2.7630
   78SLPC  H16Y 7205   3.146   2.158   5.221  1.1042  0.3233 -0.7714
   78SLPC  C317 7206   2.991   2.266   5.110 -0.0994 -0.5353  0.3125
   78SLPC  H17X 7207   3.048   2.301   5.022  1.9177  1.8353  2.3906
   78SLPC  H17Y 7208   2.913   2.343   5.129 -2.0276 -2.6531  1.5185
   78SLPC  C318 7209   2.906   2.143   5.078 -0.1946  0.4841  0.1304
   78SLPC  H18X 7210   2.889   2.139   4.968 -1.8767 -1.5450  0.4074
   78SLPC  H18Y 7211   2.814   2.160   5.137 -0.0458  0.5763  0.3366
   78SLPC  H18Z 7212   2.950   2.050   5.120 -0.0070 -0.0082 -1.0936
   79SLPC     N 7213   2.372   4.576   7.626 -0.2430  1.0112 -0.1260
   79SLPC   C13 7214   2.331   4.603   7.486 -0.2341 -1.0167  1.2253
   79SLPC  H13A 7215   2.336   4.514   7.425  1.3865 -1.1581  1.5170
   79SLPC  H13B 7216   2.231   4.643   7.495  0.6169  1.1468  1.6266
   79SLPC  H13C 7217   2.394   4.675   7.437  1.1892 -3.2310 -0.3637
   79SLPC   C14 7218   2.283   4.474   7.691  0.1356 -0.5552 -0.5102
   79SLPC  H14A 7219   2.306   4.376   7.651  0.7423 -1.6253  2.2109
   79SLPC  H14B 7220   2.294   4.466   7.798  0.5430 -0.4700 -0.5446
   79SLPC  H14C 7221   2.179   4.490   7.668 -0.2914 -0.2950  1.4208
   79SLPC   C15 7222   2.367   4.698   7.715 -0.9316  0.0558 -0.5739
   79SLPC  H15A 7223   2.267   4.737   7.702 -1.8519 -1.7419  0.6953
   79SLPC  H15B 7224   2.356   4.665   7.817 -1.9477  0.9358 -0.3701
   79SLPC  H15C 7225   2.447   4.769   7.699 -0.9273  0.2274  0.1897
   79SLPC   C12 7226   2.516   4.527   7.628  0.2373  0.0347  0.3145
   79SLPC  H12A 7227   2.541   4.521   7.733 -1.7717  0.6324  0.8719
   79SLPC  H12B 7228   2.587   4.601   7.592 -0.5110  0.6227  0.0329
   79SLPC   C11 7229   2.553   4.395   7.546 -0.0073  0.3687 -1.0886
   79SLPC  H11A 7230   2.482   4.316   7.581 -0.6887 -0.0198 -3.2007
   79SLPC  H11B 7231   2.656   4.366   7.577 -0.5784 -1.9105 -1.0959
   79SLPC     P 7232   2.632   4.346   7.310 -0.2852  0.0813 -0.3173
   79SLPC   O13 7233   2.772   4.331   7.367  0.4615  0.2631 -0.2231
   79SLPC   O14 7234   2.566   4.224   7.266 -0.5166  0.4972  0.7059
   79SLPC   O12 7235   2.538   4.418   7.407 -0.0349 -0.5027 -0.0281
   79SLPC   O11 7236   2.645   4.445   7.192 -0.3585 -0.1288  0.4290
   79SLPC    C1 7237   2.613   4.584   7.204 -0.2946  0.8225  0.2282
   79SLPC    HA 7238   2.504   4.595   7.224  0.0513  5.2782  0.7546
   79SLPC    HB 7239   2.665   4.634   7.289 -1.4063  1.3102  0.6447
   79SLPC    C2 7240   2.649   4.652   7.065  0.3900 -0.0741  0.2810
   79SLPC    HS 7241   2.582   4.741   7.055 -0.2190 -0.5035  0.4630
   79SLPC   O21 7242   2.622   4.553   6.967  0.1078 -0.6682  0.6310
   79SLPC   C21 7243   2.499   4.538   6.928  0.3648 -0.7989 -0.3064
   79SLPC   O22 7244   2.405   4.610   6.958  0.3388 -0.4868  0.2649
   79SLPC   C22 7245   2.485   4.434   6.821  0.4141 -0.3039 -0.6861
   79SLPC   H2R 7246   2.584   4.394   6.792 -0.2703  0.2362 -4.1502
   79SLPC   H2S 7247   2.425   4.353   6.868  1.6407  0.0715  1.6795
   79SLPC    C3 7248   2.793   4.683   7.046 -0.5822 -0.3593  0.7870
   79SLPC    HX 7249   2.867   4.606   7.075 -0.3772 -0.4890 -0.0555
   79SLPC    HY 7250   2.823   4.757   7.124  0.0318  0.1921  0.0443
   79SLPC   O31 7251   2.824   4.741   6.918  0.1026 -0.3836 -0.2907
   79SLPC   C31 7252   2.877   4.662   6.822  0.2327 -1.1514  0.1575
   79SLPC   O32 7253   2.915   4.549   6.840  0.3202 -0.2312  0.2163
   79SLPC   C32 7254   2.865   4.741   6.692 -0.6408 -0.3434  0.4710
   79SLPC   H2X 7255   2.910   4.842   6.700  1.4736 -1.3091  1.6770
   79SLPC   H2Y 7256   2.756   4.750   6.677 -0.2879 -0.3634 -2.8528
   79SLPC   C23 7257   2.406   4.499   6.699  0.2459 -0.0478 -0.6559
   79SLPC   H3R 7258   2.320   4.558   6.737  0.1256 -1.3782  1.3361
   79SLPC   H3S 7259   2.352   4.414   6.651  0.3178 -3.0489  3.8615
   79SLPC   C24 7260   2.489   4.572   6.600  0.0370 -0.2721  0.1660
   79SLPC   H4R 7261   2.572   4.505   6.569  0.1964 -0.8067  1.6992
   79SLPC   H4S 7262   2.541   4.662   6.640 -0.4778 -0.0167  0.2564
   79SLPC   C25 7263   2.402   4.638   6.488 -0.6378  0.2941  0.5987
   79SLPC   H5R 7264   2.326   4.699   6.542  1.2638  3.0280  0.3642
   79SLPC   H5S 7265   2.361   4.552   6.430 -0.3000  1.5723 -1.6819
   79SLPC   C26 7266   2.482   4.717   6.380  0.5142 -0.2547 -0.1946
   79SLPC   H6R 7267   2.556   4.646   6.338 -0.2013 -0.8628 -0.4621
   79SLPC   H6S 7268   2.541   4.798   6.427 -0.2317  1.1439 -1.5643
   79SLPC   C27 7269   2.392   4.777   6.269  0.8636 -0.1086 -0.4019
   79SLPC   H7R 7270   2.330   4.863   6.304 -0.8069 -0.1465 -2.9249
   79SLPC   H7S 7271   2.322   4.695   6.241 -1.0029  1.2572  0.0026
   79SLPC   C28 7272   2.471   4.819   6.146  0.4139  0.6716 -0.6957
   79SLPC   H8R 7273   2.404   4.850   6.064 -0.3031  0.0537 -0.3606
   79SLPC   H8S 7274   2.526   4.728   6.114 -2.3838 -0.9746 -1.1861
   79SLPC   C29 7275   2.561   4.937   6.185  1.0195  0.1333 -0.0228
   79SLPC   H9R 7276   2.616   4.923   6.279 -0.3849 -1.1423  0.6546
   79SLPC  C210 7277   2.563   5.064   6.135 -0.1214  0.1479  0.0532
   79SLPC  H10R 7278   2.644   5.124   6.179  1.3981 -0.0419 -2.2954
   79SLPC  C211 7279   2.476   5.111   6.018  0.4797  0.6967 -0.0531
   79SLPC  H11R 7280   2.381   5.054   6.008  0.2130  1.3161 -1.1926
   79SLPC  H11S 7281   2.530   5.093   5.923 -1.8821  2.3935 -1.8239
   79SLPC  C212 7282   2.416   5.249   6.027 -0.0793 -0.3322 -0.4235
   79SLPC  H12R 7283   2.371   5.271   6.125  0.9368 -2.2860  0.5420
   79SLPC  C213 7284   2.417   5.345   5.935 -0.4760  0.5917  0.8239
   79SLPC  H13R 7285   2.371   5.443   5.955  0.0471  1.4804 -1.8150
   79SLPC  C214 7286   2.473   5.338   5.787  0.8307  0.1501  1.0904
   79SLPC  H14R 7287   2.518   5.239   5.765  2.1435  0.8781  0.3944
   79SLPC  H14S 7288   2.558   5.407   5.767  0.1113  0.9838  0.8260
   79SLPC  C215 7289   2.362   5.365   5.678 -0.6193 -0.3131 -0.4806
   79SLPC  H15R 7290   2.420   5.394   5.589  0.2104 -2.0203 -0.5183
   79SLPC  H15S 7291   2.289   5.442   5.714 -3.8021 -3.0215 -0.5980
   79SLPC  C216 7292   2.276   5.239   5.650  0.3132 -0.1782  0.0278
   79SLPC  H16R 7293   2.228   5.217   5.747 -1.4709  2.3114 -0.1775
   79SLPC  H16S 7294   2.335   5.149   5.623 -0.7175 -0.1839 -2.5284
   79SLPC  C217 7295   2.168   5.257   5.543 -0.2124  0.2315 -0.0971
   79SLPC  H17R 7296   2.115   5.353   5.562  2.7091  2.0310 -0.3460
   79SLPC  H17S 7297   2.096   5.173   5.537 -0.8794  0.8695 -1.7697
   79SLPC  C218 7298   2.226   5.262   5.399 -0.4124 -0.4716  0.1079
   79SLPC  H18R 7299   2.282   5.353   5.371  0.4616 -1.6579 -2.3060
   79SLPC  H18S 7300   2.143   5.253   5.326 -0.8445  3.8450 -0.1964
   79SLPC  H18T 7301   2.295   5.176   5.385 -0.7179 -0.6964 -0.0082
   79SLPC   C33 7302   2.915   4.666   6.567 -0.4244 -0.5077  0.0330
   79SLPC   H3X 7303   2.889   4.559   6.578 -1.5914 -0.1786  0.6182
   79SLPC   H3Y 7304   3.026   4.680   6.569 -0.4794  0.0780 -0.5121
   79SLPC   C34 7305   2.851   4.707   6.435  0.0024 -0.5197  0.2026
   79SLPC   H4X 7306   2.868   4.816   6.423  0.3101 -0.6851 -0.9855
   79SLPC   H4Y 7307   2.740   4.699   6.445  0.0015 -0.4628  0.2412
   79SLPC   C35 7308   2.909   4.631   6.313 -0.0709  0.6647  0.3450
   79SLPC   H5X 7309   2.886   4.523   6.326 -0.2574  0.7739  0.9564
   79SLPC   H5Y 7310   3.018   4.648   6.313  0.1342  0.1315 -2.9608
   79SLPC   C36 7311   2.857   4.679   6.175  0.1855 -0.1073 -0.1620
   79SLPC   H6X 7312   2.946   4.724   6.125  0.3948  1.0563  1.2120
   79SLPC   H6Y 7313   2.782   4.761   6.184  1.3813  1.0108 -0.0815
   79SLPC   C37 7314   2.803   4.556   6.100 -0.0526  0.0785 -0.2184
   79SLPC   H7X 7315   2.722   4.504   6.156 -0.7805 -0.2836 -1.5803
   79SLPC   H7Y 7316   2.888   4.484   6.105 -0.0593  0.1523  2.3291
   79SLPC   C38 7317   2.756   4.566   5.956  0.2869 -0.2746  0.3429
   79SLPC   H8X 7318   2.668   4.632   5.944  0.2786 -0.4217 -0.4399
   79SLPC   H8Y 7319   2.720   4.464   5.934 -0.3657 -0.2587  1.2946
   79SLPC   C39 7320   2.862   4.612   5.857 -0.0431  0.0720  0.0636
   79SLPC   H9X 7321   2.879   4.722   5.847  2.1771 -0.2672 -0.3666
   79SLPC   H9Y 7322   2.811   4.588   5.761 -1.7696  2.2472  0.3424
   79SLPC  C310 7323   2.993   4.534   5.860  0.0866 -0.0048  0.5726
   79SLPC  H10X 7324   3.052   4.559   5.950 -0.2117 -1.2952  1.1425
   79SLPC  H10Y 7325   3.063   4.578   5.786 -1.9974  0.9352 -0.9645
   79SLPC  C311 7326   2.969   4.378   5.847 -0.5013  0.1086  0.3586
   79SLPC  H11X 7327   2.935   4.377   5.742  2.7063  0.7236 -0.8154
   79SLPC  H11Y 7328   2.882   4.361   5.913 -1.0986  2.1029  0.1311
   79SLPC  C312 7329   3.094   4.298   5.858 -0.3174  0.1516  0.3196
   79SLPC  H12X 7330   3.070   4.191   5.839 -2.2187  0.8170 -1.4297
   79SLPC  H12Y 7331   3.135   4.294   5.961  0.7312  0.2548 -0.0807
   79SLPC  C313 7332   3.209   4.340   5.756 -0.2741  0.1432  0.5748
   79SLPC  H13X 7333   3.242   4.444   5.776 -1.6867  0.9317 -1.0109
   79SLPC  H13Y 7334   3.160   4.349   5.657 -0.1480 -0.6539  0.4332
   79SLPC  C314 7335   3.332   4.246   5.752 -0.2025  0.6673  0.2113
   79SLPC  H14X 7336   3.304   4.143   5.720 -0.6509  0.8560 -0.0080
   79SLPC  H14Y 7337   3.370   4.236   5.856  1.4200 -0.3205 -0.4231
   79SLPC  C315 7338   3.445   4.281   5.659  0.2407  0.0002  0.3861
   79SLPC  H15X 7339   3.536   4.223   5.685 -1.1365 -2.3005  0.3700
   79SLPC  H15Y 7340   3.479   4.384   5.680  0.2156  0.2050 -0.5354
   79SLPC  C316 7341   3.425   4.251   5.511  0.0434 -0.1328 -0.6496
   79SLPC  H16X 7342   3.376   4.336   5.461  1.3745 -0.1804 -2.1050
   79SLPC  H16Y 7343   3.359   4.162   5.512 -0.1763  0.0286 -0.8736
   79SLPC  C317 7344   3.561   4.228   5.442 -0.2341  0.1264  0.1302
   79SLPC  H17X 7345   3.599   4.133   5.485 -3.8636 -1.8388 -0.6564
   79SLPC  H17Y 7346   3.630   4.307   5.479 -0.1601  0.0709  0.1106
   79SLPC  C318 7347   3.541   4.212   5.284  0.5640 -0.1522  0.4501
   79SLPC  H18X 7348   3.491   4.114   5.271 -3.9800  1.9899 -0.4068
   79SLPC  H18Y 7349   3.640   4.216   5.235  1.3122  0.5569  1.9434
   79SLPC  H18Z 7350   3.470   4.284   5.237 -1.5340 -1.7253  1.0367
   80SLPC     N 7351   4.693   0.713   7.691 -0.1256 -0.1919  0.5151
   80SLPC   C13 7352   4.565   0.645   7.726  0.0445 -0.5807 -0.3403
   80SLPC  H13A 7353   4.569   0.540   7.701  0.6022  0.0269 -3.0668
   80SLPC  H13B 7354   4.545   0.651   7.832 -0.0035  0.3776 -0.3977
   80SLPC  H13C 7355   4.481   0.678   7.666 -0.5355 -2.3314 -0.5598
   80SLPC   C14 7356   4.710   0.830   7.778 -0.2115  0.3322 -0.2629
   80SLPC  H14A 7357   4.786   0.895   7.737 -0.9790  1.1803 -0.3594
   80SLPC  H14B 7358   4.618   0.886   7.785  1.1578  2.7058  0.0517
   80SLPC  H14C 7359   4.724   0.803   7.881 -2.7281  0.8263  0.2621
   80SLPC   C15 7360   4.674   0.773   7.552  0.2809 -0.3456 -0.2705
   80SLPC  H15A 7361   4.639   0.694   7.487 -0.1453 -0.6556  0.3240
   80SLPC  H15B 7362   4.596   0.847   7.544  1.0475  0.4562 -0.4096
   80SLPC  H15C 7363   4.762   0.809   7.502  0.1040 -2.8294 -2.6108
   80SLPC   C12 7364   4.816   0.622   7.712 -0.3793 -0.1561 -0.1311
   80SLPC  H12A 7365   4.789   0.526   7.672  0.9755 -0.3636 -0.5868
   80SLPC  H12B 7366   4.827   0.600   7.818 -0.7677 -1.5137 -0.3480
   80SLPC   C11 7367   4.947   0.659   7.644  0.2792  0.1931 -0.0625
   80SLPC  H11A 7368   4.934   0.690   7.538  0.3657 -0.3292 -0.2281
   80SLPC  H11B 7369   5.013   0.570   7.639  0.7628  0.5722 -0.5278
   80SLPC     P 7370   5.132   0.780   7.797 -0.3502  0.1580 -0.6544
   80SLPC   O13 7371   5.191   0.918   7.797 -0.3880 -0.7143  0.3234
   80SLPC   O14 7372   5.106   0.728   7.940  0.1403  0.1102  0.5863
   80SLPC   O12 7373   5.001   0.775   7.704 -0.3347  0.1327 -0.1225
   80SLPC   O11 7374   5.239   0.688   7.716  0.4324 -0.0079  0.3741
   80SLPC    C1 7375   5.381   0.696   7.722  0.3428  0.7246 -0.1908
   80SLPC    HA 7376   5.415   0.736   7.820 -0.0596  0.8681 -0.1066
   80SLPC    HB 7377   5.429   0.599   7.699 -1.4331 -0.4251  0.6732
   80SLPC    C2 7378   5.437   0.791   7.614  0.7582 -0.6823  0.3028
   80SLPC    HS 7379   5.373   0.883   7.614  1.5244 -0.1139 -0.9974
   80SLPC   O21 7380   5.444   0.730   7.481 -0.0969  0.1282  0.3635
   80SLPC   C21 7381   5.410   0.812   7.378 -0.9165  0.4373  0.3768
   80SLPC   O22 7382   5.354   0.919   7.389  0.0137 -0.1664 -0.2277
   80SLPC   C22 7383   5.445   0.740   7.250 -0.1049 -0.5698 -0.1298
   80SLPC   H2R 7384   5.552   0.708   7.247  0.1990  0.3052  0.9101
   80SLPC   H2S 7385   5.385   0.647   7.242 -0.6811 -0.5377  2.9259
   80SLPC    C3 7386   5.580   0.858   7.655 -0.0070  0.0818 -0.0336
   80SLPC    HX 7387   5.647   0.769   7.653  0.5355  0.4291 -2.9864
   80SLPC    HY 7388   5.584   0.892   7.760 -1.0767 -1.5876  0.5901
   80SLPC   O31 7389   5.639   0.951   7.554  0.4921  0.1027  0.0561
   80SLPC   C31 7390   5.592   1.066   7.569  0.0465  0.1365  0.3976
   80SLPC   O32 7391   5.503   1.101   7.647 -0.0555  0.0811 -0.3426
   80SLPC   C32 7392   5.678   1.172   7.493  0.5924  0.6617  0.0183
   80SLPC   H2X 7393   5.723   1.114   7.409  0.0336 -0.8256  0.7125
   80SLPC   H2Y 7394   5.748   1.209   7.571 -0.6735  3.1448  0.0540
   80SLPC   C23 7395   5.402   0.809   7.119  0.7664  0.1089 -0.4727
   80SLPC   H3R 7396   5.470   0.895   7.101  1.2748 -0.2374 -0.2263
   80SLPC   H3S 7397   5.295   0.840   7.119  0.5619 -0.5778 -0.3596
   80SLPC   C24 7398   5.431   0.722   6.995  0.3633  0.0563  0.2307
   80SLPC   H4R 7399   5.378   0.625   7.004  2.2221 -0.8474  2.5891
   80SLPC   H4S 7400   5.540   0.700   6.987 -0.0964 -1.9451 -0.9641
   80SLPC   C25 7401   5.387   0.810   6.870  0.4561  0.6624 -0.3646
   80SLPC   H5R 7402   5.466   0.887   6.861  0.4585  0.7783  0.6173
   80SLPC   H5S 7403   5.289   0.858   6.892 -1.2566 -3.1353  1.1516
   80SLPC   C26 7404   5.370   0.724   6.746 -1.0113 -0.6201 -0.6051
   80SLPC   H6R 7405   5.292   0.649   6.772  0.4976 -1.3566  2.2881
   80SLPC   H6S 7406   5.466   0.669   6.741 -0.2971  0.2690  1.9572
   80SLPC   C27 7407   5.339   0.803   6.627  0.5105 -0.6655 -0.7763
   80SLPC   H7R 7408   5.424   0.873   6.610  2.6450 -2.9585 -0.1535
   80SLPC   H7S 7409   5.255   0.869   6.658 -0.1053 -1.1483 -1.3882
   80SLPC   C28 7410   5.295   0.728   6.502 -0.4052  0.0443 -0.5863
   80SLPC   H8R 7411   5.232   0.645   6.540  0.2367 -0.1279  0.1276
   80SLPC   H8S 7412   5.384   0.678   6.457  0.6322  0.1951  1.2030
   80SLPC   C29 7413   5.218   0.819   6.411 -0.0199  0.1680  1.0750
   80SLPC   H9R 7414   5.160   0.899   6.460 -0.1624  0.2846  0.7199
   80SLPC  C210 7415   5.238   0.835   6.280  0.1648 -0.0812  0.2984
   80SLPC  H10R 7416   5.174   0.910   6.231  1.6130  0.0882 -1.4887
   80SLPC  C211 7417   5.324   0.746   6.194  0.2054  0.0079 -0.6900
   80SLPC  H11R 7418   5.267   0.707   6.106  0.3157 -0.8879 -0.3703
   80SLPC  H11S 7419   5.346   0.654   6.253  0.5954 -1.1968 -2.6148
   80SLPC  C212 7420   5.460   0.800   6.159  0.3920  0.7239 -0.2441
   80SLPC  H12R 7421   5.509   0.857   6.240 -0.8436  0.5591  0.6565
   80SLPC  C213 7422   5.516   0.796   6.042  0.4595 -0.3277  0.2146
   80SLPC  H13R 7423   5.612   0.850   6.040  1.1479 -1.5260 -0.1177
   80SLPC  C214 7424   5.460   0.737   5.910 -0.2784  0.4619 -0.4131
   80SLPC  H14R 7425   5.349   0.742   5.912 -0.2764  0.3319  0.3610
   80SLPC  H14S 7426   5.480   0.628   5.912  0.4221  0.5987  0.5859
   80SLPC  C215 7427   5.514   0.809   5.784 -0.8427 -0.5244  0.0730
   80SLPC  H15R 7428   5.618   0.836   5.812 -1.1500  0.2647  0.5075
   80SLPC  H15S 7429   5.457   0.904   5.777 -1.8711 -1.2398 -2.0722
   80SLPC  C216 7430   5.503   0.728   5.650  0.6280  0.3111 -0.6201
   80SLPC  H16R 7431   5.395   0.704   5.644  0.5941  0.2279  0.1324
   80SLPC  H16S 7432   5.559   0.632   5.658  0.7036  0.4904  1.6699
   80SLPC  C217 7433   5.563   0.795   5.529 -0.2781  0.3072  0.0775
   80SLPC  H17R 7434   5.498   0.877   5.492 -0.9693  0.3871  1.4200
   80SLPC  H17S 7435   5.564   0.711   5.457 -1.2829 -1.0741  1.6097
   80SLPC  C218 7436   5.707   0.859   5.564  0.8945  0.7287  0.5364
   80SLPC  H18R 7437   5.784   0.782   5.586  0.7672  0.6784  0.8108
   80SLPC  H18S 7438   5.695   0.939   5.640 -0.9699 -1.6324  2.9441
   80SLPC  H18T 7439   5.742   0.913   5.474  0.0032 -1.4152 -1.2055
   80SLPC   C33 7440   5.601   1.297   7.440 -0.1052 -0.2324 -0.7122
   80SLPC   H3X 7441   5.677   1.375   7.420  0.1757 -0.0084  1.0569
   80SLPC   H3Y 7442   5.542   1.333   7.528 -0.7897  3.3763 -2.4589
   80SLPC   C34 7443   5.508   1.285   7.320  0.6297  0.1837 -0.3541
   80SLPC   H4X 7444   5.459   1.382   7.299 -1.6218 -0.7590  0.3350
   80SLPC   H4Y 7445   5.424   1.222   7.353  0.9353  0.0927  0.2523
   80SLPC   C35 7446   5.567   1.226   7.192 -0.1102 -0.1099 -0.2838
   80SLPC   H5X 7447   5.586   1.118   7.214  1.2817 -0.0787 -1.1833
   80SLPC   H5Y 7448   5.660   1.279   7.161  0.4827 -1.5377 -1.0697
   80SLPC   C36 7449   5.456   1.228   7.084  0.5560  0.0116  0.3051
   80SLPC   H6X 7450   5.414   1.331   7.083  1.7164  0.5020 -0.0168
   80SLPC   H6Y 7451   5.372   1.158   7.103 -0.8313  1.6812  0.5604
   80SLPC   C37 7452   5.514   1.201   6.944 -0.7294  0.2547 -1.1426
   80SLPC   H7X 7453   5.557   1.099   6.947  2.0320  1.3598 -0.5450
   80SLPC   H7Y 7454   5.601   1.268   6.928 -0.8161  0.9852  1.1512
   80SLPC   C38 7455   5.420   1.234   6.833 -0.8485 -0.5102 -0.5447
   80SLPC   H8X 7456   5.388   1.340   6.842 -0.3829 -0.3754 -0.4655
   80SLPC   H8Y 7457   5.335   1.167   6.859 -0.6616 -0.5796 -0.0971
   80SLPC   C39 7458   5.473   1.196   6.696 -0.1888 -0.2734  1.2414
   80SLPC   H9X 7459   5.532   1.102   6.701 -1.0241 -0.8930 -0.1072
   80SLPC   H9Y 7460   5.557   1.265   6.671 -0.1978 -0.1811  1.4579
   80SLPC  C310 7461   5.362   1.182   6.591 -0.7111  0.4661  0.4325
   80SLPC  H10X 7462   5.299   1.273   6.588 -1.1091  0.1704 -1.2521
   80SLPC  H10Y 7463   5.300   1.097   6.627  0.2998 -0.9704 -1.0668
   80SLPC  C311 7464   5.406   1.142   6.454  0.5361  0.1183 -0.1956
   80SLPC  H11X 7465   5.318   1.119   6.390  0.5941  1.4602 -0.8162
   80SLPC  H11Y 7466   5.470   1.053   6.471 -2.3106 -2.5690 -2.3136
   80SLPC  C312 7467   5.476   1.251   6.381  0.4438 -0.1541  0.9338
   80SLPC  H12X 7468   5.561   1.290   6.441  0.8806 -0.1738  0.3414
   80SLPC  H12Y 7469   5.408   1.338   6.365 -1.1280 -1.2560  1.4289
   80SLPC  C313 7470   5.546   1.215   6.248  0.3085  0.6692 -0.5647
   80SLPC  H13X 7471   5.482   1.151   6.184  0.3881 -1.7723  1.6222
   80SLPC  H13Y 7472   5.631   1.154   6.285 -1.0077 -0.9508 -0.0636
   80SLPC  C314 7473   5.611   1.325   6.172 -0.1224 -0.5934  0.4623
   80SLPC  H14X 7474   5.676   1.381   6.243 -0.9709  0.5395  0.3794
   80SLPC  H14Y 7475   5.528   1.395   6.145  0.6169  0.6610  1.3454
   80SLPC  C315 7476   5.685   1.281   6.046 -0.8648  1.0185 -0.2731
   80SLPC  H15X 7477   5.772   1.226   6.088 -3.0172 -2.4098  0.1098
   80SLPC  H15Y 7478   5.729   1.367   5.992  0.2924  1.7271  1.6814
   80SLPC  C316 7479   5.599   1.191   5.946 -0.2254  0.1325 -0.3301
   80SLPC  H16X 7480   5.518   1.253   5.903  0.3711  0.4919 -0.9514
   80SLPC  H16Y 7481   5.560   1.105   6.005 -0.0880  0.2649 -0.0443
   80SLPC  C317 7482   5.677   1.131   5.820 -0.0245  0.1301 -0.6257
   80SLPC  H17X 7483   5.593   1.088   5.763 -0.4499  0.2765 -0.1214
   80SLPC  H17Y 7484   5.755   1.059   5.853 -2.3321 -1.6903  1.2144
   80SLPC  C318 7485   5.736   1.241   5.736 -0.3893  0.3797  0.2356
   80SLPC  H18X 7486   5.657   1.309   5.695 -0.2690  0.8756  0.8228
   80SLPC  H18Y 7487   5.783   1.194   5.647  0.5965  1.8087 -0.0285
   80SLPC  H18Z 7488   5.815   1.297   5.790 -0.0647  0.7617 -0.6206
   81SLPC     N 7489   0.156   6.568   2.471  0.2022 -0.1216 -0.0850
   81SLPC   C13 7490   0.247   6.549   2.354  0.5789  0.2618  0.1754
   81SLPC  H13A 7491   0.352   6.547   2.379  0.8392 -1.3102 -0.8788
   81SLPC  H13B 7492   0.223   6.455   2.307  2.2279 -0.1709  0.1633
   81SLPC  H13C 7493   0.226   6.616   2.272  0.6911  0.2318  0.1213
   81SLPC   C14 7494   0.013   6.554   2.429  0.0674  0.0723  0.7382
   81SLPC  H14A 7495  -0.007   6.452   2.398 -4.0261  0.9975 -0.1961
   81SLPC  H14B 7496  -0.054   6.573   2.511  0.7054 -1.1157  1.5702
   81SLPC  H14C 7497  -0.009   6.620   2.346  2.3421  0.3995  0.3124
   81SLPC   C15 7498   0.168   6.706   2.535  0.2529  0.2420  0.0735
   81SLPC  H15A 7499   0.172   6.784   2.460 -0.0151 -1.1250 -1.4100
   81SLPC  H15B 7500   0.080   6.724   2.596  0.6105  2.8252 -0.0317
   81SLPC  H15C 7501   0.251   6.718   2.603  0.7454  2.9820 -0.8742
   81SLPC   C12 7502   0.194   6.471   2.582 -0.5990  0.2850 -0.1505
   81SLPC  H12A 7503   0.285   6.507   2.627  0.0192  0.6617 -1.6599
   81SLPC  H12B 7504   0.205   6.372   2.540 -0.5651  0.8774 -1.5748
   81SLPC   C11 7505   0.086   6.446   2.687  0.0250 -0.4414 -0.4943
   81SLPC  H11A 7506   0.038   6.542   2.713 -1.3182 -0.9913 -0.8323
   81SLPC  H11B 7507   0.135   6.415   2.781 -0.4972  2.2533  0.7584
   81SLPC     P 7508  -0.151   6.345   2.711  0.1944 -0.0782  0.1103
   81SLPC   O13 7509  -0.227   6.467   2.676  0.0511  0.2929 -0.1435
   81SLPC   O14 7510  -0.202   6.211   2.673 -0.4982 -0.2365 -0.1267
   81SLPC   O12 7511  -0.011   6.349   2.643  0.7026 -0.6376  0.3563
   81SLPC   O11 7512  -0.121   6.335   2.865 -0.5038 -0.3584 -0.4143
   81SLPC    C1 7513  -0.041   6.248   2.936  0.1117 -0.0778  0.0495
   81SLPC    HA 7514   0.027   6.203   2.861  1.0972 -0.1878  0.9898
   81SLPC    HB 7515   0.016   6.295   3.019  0.0660 -1.8611  1.1429
   81SLPC    C2 7516  -0.128   6.129   2.994  0.6541  0.3490 -0.1837
   81SLPC    HS 7517  -0.184   6.078   2.913 -0.2242  0.0797  0.5678
   81SLPC   O21 7518  -0.221   6.183   3.094  0.5600 -0.2558 -0.2593
   81SLPC   C21 7519  -0.342   6.134   3.093  0.5567 -0.3759 -0.2866
   81SLPC   O22 7520  -0.389   6.059   3.013  0.0854 -0.1792  0.1353
   81SLPC   C22 7521  -0.412   6.179   3.217  1.0853 -0.4730 -0.7954
   81SLPC   H2R 7522  -0.423   6.288   3.204  1.1788 -0.5947 -1.9402
   81SLPC   H2S 7523  -0.513   6.134   3.227  1.7345 -1.6399  1.0342
   81SLPC    C3 7524  -0.039   6.017   3.056  0.2520  0.0257  0.5198
   81SLPC    HX 7525   0.017   5.977   2.969  0.8271  0.9588  0.4519
   81SLPC    HY 7526  -0.114   5.943   3.091 -0.6922  0.2345 -0.9749
   81SLPC   O31 7527   0.034   6.076   3.162  0.2465  0.0244 -0.3641
   81SLPC   C31 7528   0.167   6.070   3.159  0.6778  0.0201 -1.2095
   81SLPC   O32 7529   0.236   6.001   3.087 -0.6666  0.0470  0.2741
   81SLPC   C32 7530   0.221   6.156   3.268  0.0029  0.5643 -0.9615
   81SLPC   H2X 7531   0.162   6.250   3.270  0.4638  0.8692  1.1331
   81SLPC   H2Y 7532   0.326   6.181   3.242  0.8257 -1.5132  0.1170
   81SLPC   C23 7533  -0.326   6.130   3.338  0.0570  0.0722  0.1921
   81SLPC   H3R 7534  -0.221   6.167   3.341 -0.2978  1.2298 -0.8939
   81SLPC   H3S 7535  -0.325   6.019   3.339  0.5005  0.0734  1.0050
   81SLPC   C24 7536  -0.392   6.157   3.472  0.1952  0.9020  0.6118
   81SLPC   H4R 7537  -0.498   6.123   3.471  0.4752 -0.0079 -1.0781
   81SLPC   H4S 7538  -0.392   6.268   3.486 -0.2140  1.2062 -1.5131
   81SLPC   C25 7539  -0.320   6.080   3.583  0.2713  0.0936 -0.0414
   81SLPC   H5R 7540  -0.213   6.110   3.589  0.7603 -1.9027  3.2544
   81SLPC   H5S 7541  -0.324   5.971   3.562 -1.3451  0.1357 -0.1174
   81SLPC   C26 7542  -0.377   6.106   3.721  0.1507  0.6476 -0.0728
   81SLPC   H6R 7543  -0.484   6.083   3.740 -0.1556  2.3476  0.5254
   81SLPC   H6S 7544  -0.380   6.217   3.728 -0.2931  0.7302 -1.2904
   81SLPC   C27 7545  -0.303   6.057   3.845  0.3224 -0.6015  0.0299
   81SLPC   H7R 7546  -0.198   6.091   3.828  1.0167 -1.5683  2.0026
   81SLPC   H7S 7547  -0.306   5.946   3.851  1.2214 -0.5735  1.7230
   81SLPC   C28 7548  -0.341   6.132   3.974 -0.6729 -0.0777  0.1570
   81SLPC   H8R 7549  -0.322   6.240   3.954  1.8648 -0.1564  1.7027
   81SLPC   H8S 7550  -0.262   6.102   4.047  0.5251 -0.1329 -1.1248
   81SLPC   C29 7551  -0.481   6.100   4.016  0.5271 -0.0495 -0.1034
   81SLPC   H9R 7552  -0.562   6.137   3.952  0.0624 -0.6169  0.1431
   81SLPC  C210 7553  -0.516   6.028   4.129  0.4492  0.0500  0.2038
   81SLPC  H10R 7554  -0.624   6.013   4.140 -0.1092  0.3655 -3.5272
   81SLPC  C211 7555  -0.417   5.976   4.233  0.4384  0.1312  0.7565
   81SLPC  H11R 7556  -0.339   5.912   4.185 -2.4543 -2.6782 -0.5439
   81SLPC  H11S 7557  -0.475   5.903   4.294 -2.3626 -0.1744 -2.0494
   81SLPC  C212 7558  -0.350   6.069   4.328  0.0331  0.1053  0.2294
   81SLPC  H12R 7559  -0.382   6.174   4.328 -3.0387 -0.4322  5.7351
   81SLPC  C213 7560  -0.240   6.039   4.411  0.5169 -0.5823 -0.0702
   81SLPC  H13R 7561  -0.201   6.123   4.471 -0.8150  2.1577 -2.7477
   81SLPC  C214 7562  -0.180   5.898   4.438 -0.4010  0.1381  0.0269
   81SLPC  H14R 7563  -0.070   5.902   4.419 -0.6216  1.0511 -1.2144
   81SLPC  H14S 7564  -0.225   5.832   4.362  0.0356  1.2458 -1.2364
   81SLPC  C215 7565  -0.216   5.839   4.579 -0.1261 -0.6351 -0.0092
   81SLPC  H15R 7566  -0.149   5.750   4.579  3.3536  1.8252  0.1047
   81SLPC  H15S 7567  -0.323   5.809   4.572 -0.0337 -0.6076 -2.9227
   81SLPC  C216 7568  -0.201   5.930   4.699 -0.3651 -0.4141 -1.0542
   81SLPC  H16R 7569  -0.256   6.026   4.693  0.0281 -0.0323  0.8512
   81SLPC  H16S 7570  -0.092   5.951   4.708 -0.5418  1.9268 -3.2656
   81SLPC  C217 7571  -0.262   5.866   4.830 -0.0888  0.1162  0.2521
   81SLPC  H17R 7572  -0.213   5.912   4.919 -0.1563  1.0843 -0.2040
   81SLPC  H17S 7573  -0.223   5.764   4.851 -1.5720 -0.3335  1.0207
   81SLPC  C218 7574  -0.414   5.892   4.845 -0.1906 -0.0466 -0.6002
   81SLPC  H18R 7575  -0.446   5.866   4.948  1.1537  0.8458  0.0617
   81SLPC  H18S 7576  -0.472   5.832   4.771 -0.9949 -1.0984  0.8427
   81SLPC  H18T 7577  -0.444   5.999   4.840  0.4288  0.1013 -1.4645
   81SLPC   C33 7578   0.208   6.089   3.414 -0.2924  0.4039  0.0651
   81SLPC   H3X 7579   0.243   5.984   3.416  0.2358  0.5651  2.5504
   81SLPC   H3Y 7580   0.099   6.076   3.431 -0.3312 -1.6224 -1.4846
   81SLPC   C34 7581   0.246   6.189   3.529 -0.6243  0.6254 -0.1769
   81SLPC   H4X 7582   0.183   6.276   3.500  2.3842  2.5034 -1.4812
   81SLPC   H4Y 7583   0.352   6.218   3.518 -0.9180  1.8681  0.1342
   81SLPC   C35 7584   0.224   6.150   3.674 -0.4428  0.7305 -0.5248
   81SLPC   H5X 7585   0.255   6.235   3.738 -4.1402  1.7638  0.1047
   81SLPC   H5Y 7586   0.291   6.068   3.708  0.6909  1.6733 -0.4091
   81SLPC   C36 7587   0.080   6.107   3.701 -0.7593  0.0225  1.2201
   81SLPC   H6X 7588   0.059   6.024   3.630  0.4765 -0.0426  0.9111
   81SLPC   H6Y 7589   0.016   6.192   3.668  2.3757  1.5813 -1.5243
   81SLPC   C37 7590   0.066   6.048   3.834 -0.5087  0.9896 -0.0996
   81SLPC   H7X 7591   0.140   5.968   3.856 -1.5326 -0.1842 -0.7943
   81SLPC   H7Y 7592  -0.025   5.984   3.834 -1.7314  2.6730  0.1270
   81SLPC   C38 7593   0.041   6.144   3.954 -0.2490  0.2331 -0.0866
   81SLPC   H8X 7594  -0.059   6.192   3.949 -0.7214 -0.7294 -0.1170
   81SLPC   H8Y 7595   0.127   6.215   3.948  1.9841 -2.2421  0.8577
   81SLPC   C39 7596   0.050   6.064   4.082 -0.1667 -0.7757  0.1005
   81SLPC   H9X 7597   0.118   5.976   4.087 -0.4223 -0.9223  2.4361
   81SLPC   H9Y 7598  -0.051   6.022   4.103 -0.3935 -1.6055 -2.3611
   81SLPC  C310 7599   0.093   6.155   4.196  0.0293 -0.3900 -0.8632
   81SLPC  H10X 7600   0.002   6.202   4.239  0.3986 -1.2149  0.9321
   81SLPC  H10Y 7601   0.168   6.231   4.166  1.6164 -1.2870  0.5845
   81SLPC  C311 7602   0.170   6.071   4.308 -0.3608 -0.3076 -1.0146
   81SLPC  H11X 7603   0.272   6.043   4.275  0.6637  0.3255  1.4215
   81SLPC  H11Y 7604   0.098   5.987   4.321 -1.6243  0.7801 -0.7477
   81SLPC  C312 7605   0.189   6.147   4.445 -0.7233  0.6286  0.4227
   81SLPC  H12X 7606   0.090   6.189   4.474 -1.5255 -0.1800 -1.0301
   81SLPC  H12Y 7607   0.265   6.224   4.421  0.0540 -0.2966 -0.1713
   81SLPC  C313 7608   0.242   6.042   4.545 -0.0268 -0.1344  0.7406
   81SLPC  H13X 7609   0.315   5.976   4.494  2.4985  2.1452  1.1750
   81SLPC  H13Y 7610   0.154   5.991   4.589 -1.7180  1.2309 -0.8689
   81SLPC  C314 7611   0.323   6.114   4.649  0.2332  0.6025 -0.1255
   81SLPC  H14X 7612   0.264   6.195   4.698 -0.0905 -0.3324  1.0871
   81SLPC  H14Y 7613   0.404   6.168   4.596  2.1894 -1.8989  0.1420
   81SLPC  C315 7614   0.380   6.011   4.747  0.5173 -0.1034 -0.2283
   81SLPC  H15X 7615   0.444   5.942   4.689  0.7476  1.1601 -1.5368
   81SLPC  H15Y 7616   0.300   5.947   4.790  0.2703 -0.6614 -1.4789
   81SLPC  C316 7617   0.461   6.076   4.859 -0.0668  1.0115 -0.0003
   81SLPC  H16X 7618   0.390   6.146   4.910  0.6755  1.1956  0.8197
   81SLPC  H16Y 7619   0.544   6.135   4.813 -0.8176  1.7377 -0.4554
   81SLPC  C317 7620   0.510   5.973   4.950 -0.4394  0.7281  0.4997
   81SLPC  H17X 7621   0.447   5.881   4.958  0.7867 -0.0032  2.8308
   81SLPC  H17Y 7622   0.495   6.009   5.054  2.7296  1.1067  0.9496
   81SLPC  C318 7623   0.657   5.921   4.937 -0.0193  0.0775 -0.2344
   81SLPC  H18X 7624   0.726   6.001   4.970 -0.7421  0.5018  0.2686
   81SLPC  H18Y 7625   0.691   5.897   4.833 -1.0526  0.8988 -0.7782
   81SLPC  H18Z 7626   0.671   5.833   5.004 -0.3047 -0.9898 -1.5098
   82SLPC     N 7627   2.452   4.385   2.898 -0.7638  0.1516 -0.1198
   82SLPC   C13 7628   2.408   4.529   2.915  0.1521  0.2965  0.5616
   82SLPC  H13A 7629   2.410   4.586   2.823  0.0806 -0.2538  0.2098
   82SLPC  H13B 7630   2.303   4.520   2.938  0.1007 -0.6418  0.0383
   82SLPC  H13C 7631   2.464   4.584   2.989 -0.4814  1.6371  0.0830
   82SLPC   C14 7632   2.597   4.374   2.863 -0.5039  0.1185  0.4530
   82SLPC  H14A 7633   2.621   4.435   2.777 -1.8242 -0.6009 -0.4754
   82SLPC  H14B 7634   2.656   4.417   2.943 -0.2804  1.0715 -0.2072
   82SLPC  H14C 7635   2.632   4.276   2.834  1.2715  0.8233  0.0932
   82SLPC   C15 7636   2.368   4.323   2.785 -0.2141 -0.4399 -0.1568
   82SLPC  H15A 7637   2.395   4.219   2.770  0.6314 -0.6383  2.2733
   82SLPC  H15B 7638   2.261   4.326   2.797 -0.6305  5.7701 -2.0661
   82SLPC  H15C 7639   2.380   4.368   2.688 -1.0164  0.2878  0.0702
   82SLPC   C12 7640   2.427   4.308   3.026 -0.2264 -0.3642  0.5084
   82SLPC  H12A 7641   2.458   4.367   3.111 -1.0553  2.1373 -0.8387
   82SLPC  H12B 7642   2.493   4.223   3.037  0.3922  0.1358  0.7134
   82SLPC   C11 7643   2.285   4.256   3.042  0.2184  0.4504  0.0502
   82SLPC  H11A 7644   2.278   4.205   3.140  2.6175  1.7165  0.9733
   82SLPC  H11B 7645   2.272   4.182   2.960 -0.2354  0.6034 -0.0225
   82SLPC     P 7646   2.038   4.343   2.996  0.4011 -0.0709  0.2815
   82SLPC   O13 7647   2.019   4.364   2.851  0.1854 -0.2175 -0.6241
   82SLPC   O14 7648   1.997   4.214   3.049  0.2484 -0.0850  0.1396
   82SLPC   O12 7649   2.193   4.370   3.030 -0.3586  0.0946  0.1158
   82SLPC   O11 7650   1.981   4.464   3.086  0.1556 -0.3407 -0.6517
   82SLPC    C1 7651   2.047   4.593   3.069  0.2174 -1.1987  0.1352
   82SLPC    HA 7652   2.124   4.593   2.990 -0.3280 -0.1325 -0.4091
   82SLPC    HB 7653   1.968   4.666   3.040  1.0031 -0.1703  0.5245
   82SLPC    C2 7654   2.109   4.644   3.207 -0.1408 -1.0529  0.5686
   82SLPC    HS 7655   2.199   4.580   3.224  0.9020  0.5593  1.3329
   82SLPC   O21 7656   2.007   4.636   3.309  0.0786 -0.3468  0.7350
   82SLPC   C21 7657   2.051   4.583   3.421 -0.9188 -0.2666  0.5517
   82SLPC   O22 7658   2.162   4.545   3.447 -0.4897  0.2230 -0.1603
   82SLPC   C22 7659   1.934   4.570   3.522  0.3485  0.1021  0.1015
   82SLPC   H2R 7660   1.925   4.663   3.582  0.9133 -0.9637  1.9010
   82SLPC   H2S 7661   1.837   4.576   3.468 -0.1209 -0.2829  0.8888
   82SLPC    C3 7662   2.154   4.792   3.191  0.2290 -0.5820 -0.6349
   82SLPC    HX 7663   2.059   4.837   3.154 -0.0422  0.6967  1.4726
   82SLPC    HY 7664   2.230   4.787   3.109 -0.2103 -0.4307 -1.0541
   82SLPC   O31 7665   2.185   4.863   3.315  0.1943 -0.7384 -0.2275
   82SLPC   C31 7666   2.313   4.853   3.340 -0.0593  0.3265 -0.2884
   82SLPC   O32 7667   2.391   4.783   3.279 -0.5338  0.0864 -0.0789
   82SLPC   C32 7668   2.353   4.956   3.447  0.0772  0.3835  1.0687
   82SLPC   H2X 7669   2.324   5.053   3.403 -1.2616 -0.0961  0.8356
   82SLPC   H2Y 7670   2.464   4.963   3.447  0.1072  0.3868 -0.5135
   82SLPC   C23 7671   1.935   4.433   3.597 -0.2816  0.2290 -0.0017
   82SLPC   H3R 7672   2.017   4.425   3.672 -0.8665  0.4491  0.6616
   82SLPC   H3S 7673   1.956   4.356   3.519 -2.0852  0.1698 -0.4686
   82SLPC   C24 7674   1.800   4.391   3.658  0.0971 -0.3187 -0.3398
   82SLPC   H4R 7675   1.815   4.286   3.690 -0.7962 -0.9209 -1.8175
   82SLPC   H4S 7676   1.713   4.382   3.590  0.9277 -1.9734 -1.2496
   82SLPC   C25 7677   1.749   4.479   3.784 -0.3852  0.7830  0.2647
   82SLPC   H5R 7678   1.644   4.452   3.805 -0.3899 -2.4096 -2.8048
   82SLPC   H5S 7679   1.746   4.583   3.745  0.2795  0.8182  0.2951
   82SLPC   C26 7680   1.841   4.480   3.905  0.4669 -0.6813  0.3981
   82SLPC   H6R 7681   1.940   4.527   3.887  0.4580 -0.3479  1.1866
   82SLPC   H6S 7682   1.869   4.375   3.930  0.7666 -1.0383 -1.3198
   82SLPC   C27 7683   1.774   4.543   4.033 -0.0072  0.0974 -0.1486
   82SLPC   H7R 7684   1.683   4.486   4.059  0.6307 -0.1657  1.6248
   82SLPC   H7S 7685   1.748   4.649   4.011 -0.0187 -0.0965 -1.1183
   82SLPC   C28 7686   1.875   4.545   4.157 -0.6287 -0.2605 -0.3614
   82SLPC   H8R 7687   1.975   4.588   4.134 -0.5721  0.3682  0.9667
   82SLPC   H8S 7688   1.887   4.436   4.172  1.9890 -0.1520 -1.1279
   82SLPC   C29 7689   1.818   4.614   4.278  0.4578 -0.8784  0.2256
   82SLPC   H9R 7690   1.801   4.722   4.267 -1.7551 -1.4006 -3.1041
   82SLPC  C210 7691   1.785   4.556   4.394 -0.4702  0.3762  0.2890
   82SLPC  H10R 7692   1.746   4.615   4.479 -0.5435  0.3068  0.3036
   82SLPC  C211 7693   1.798   4.406   4.436  0.3173 -0.2302 -0.1711
   82SLPC  H11R 7694   1.896   4.382   4.482  1.7934  1.3631 -2.2758
   82SLPC  H11S 7695   1.783   4.337   4.350 -1.5358  1.3990 -1.2622
   82SLPC  C212 7696   1.688   4.387   4.544  0.1768  0.1733 -0.4618
   82SLPC  H12R 7697   1.584   4.390   4.508 -0.4715  3.8293  1.3171
   82SLPC  C213 7698   1.701   4.373   4.681  0.1496 -0.6129  0.6594
   82SLPC  H13R 7699   1.609   4.360   4.739 -0.7883 -0.7692 -0.7898
   82SLPC  C214 7700   1.837   4.374   4.751  0.3158  0.0445  0.3524
   82SLPC  H14R 7701   1.894   4.297   4.694 -3.6177 -1.4569 -1.9645
   82SLPC  H14S 7702   1.838   4.324   4.850 -1.2876 -2.0397 -0.5883
   82SLPC  C215 7703   1.919   4.509   4.746 -0.5790 -0.5802  0.2564
   82SLPC  H15R 7704   1.850   4.588   4.785  0.1255  0.9300 -1.4183
   82SLPC  H15S 7705   1.929   4.540   4.640 -0.7956 -0.4915  0.2591
   82SLPC  C216 7706   2.058   4.509   4.813  0.2061 -0.4093 -0.2624
   82SLPC  H16R 7707   2.134   4.447   4.761  0.5678  0.2054 -0.4733
   82SLPC  H16S 7708   2.054   4.482   4.921  2.1087  0.8328  0.1729
   82SLPC  C217 7709   2.112   4.652   4.820  0.8417  0.0928 -0.5934
   82SLPC  H17R 7710   2.035   4.722   4.857 -0.1821 -1.5092  0.4110
   82SLPC  H17S 7711   2.148   4.691   4.722 -1.1734  0.6667 -1.1435
   82SLPC  C218 7712   2.227   4.658   4.913  0.2087 -0.0164  0.0408
   82SLPC  H18R 7713   2.299   4.741   4.894 -0.6124  0.7557  0.1935
   82SLPC  H18S 7714   2.285   4.564   4.905  1.4862  0.7151  0.3299
   82SLPC  H18T 7715   2.188   4.664   5.017  0.4956  0.6681  0.1166
   82SLPC   C33 7716   2.292   4.933   3.580  0.0920  0.2187 -0.6131
   82SLPC   H3X 7717   2.182   4.926   3.568  0.1270 -3.2149  0.1176
   82SLPC   H3Y 7718   2.327   5.015   3.647 -0.2146  0.0899 -0.2922
   82SLPC   C34 7719   2.336   4.802   3.648  0.0820  0.1067  0.5193
   82SLPC   H4X 7720   2.444   4.798   3.673  0.6459  2.0423 -1.3078
   82SLPC   H4Y 7721   2.308   4.716   3.583 -1.4379  0.9830 -0.0400
   82SLPC   C35 7722   2.266   4.773   3.786  1.0444  0.3530 -0.0743
   82SLPC   H5X 7723   2.309   4.677   3.820 -0.1578 -0.5957 -1.1158
   82SLPC   H5Y 7724   2.166   4.743   3.748  1.7873 -0.1452 -1.7233
   82SLPC   C36 7725   2.264   4.881   3.896  0.2479  1.4098  0.2465
   82SLPC   H6X 7726   2.179   4.947   3.872 -1.4873  0.1820  2.6007
   82SLPC   H6Y 7727   2.358   4.940   3.892  1.7082 -0.8453 -0.9707
   82SLPC   C37 7728   2.242   4.821   4.041  0.5258 -0.3229 -0.2980
   82SLPC   H7X 7729   2.340   4.776   4.068 -0.0279  0.7025  4.1731
   82SLPC   H7Y 7730   2.163   4.745   4.024  1.1239 -0.8461 -0.8289
   82SLPC   C38 7731   2.208   4.921   4.156  0.1014 -0.0093 -0.1730
   82SLPC   H8X 7732   2.126   4.991   4.130 -0.9393 -1.1576 -0.0844
   82SLPC   H8Y 7733   2.301   4.981   4.168 -0.8350  1.8455 -1.6961
   82SLPC   C39 7734   2.178   4.843   4.286 -0.5716  0.2966 -0.0162
   82SLPC   H9X 7735   2.261   4.772   4.305 -1.5338 -0.6425  0.7972
   82SLPC   H9Y 7736   2.083   4.792   4.258 -2.2871  2.8841  0.7101
   82SLPC  C310 7737   2.161   4.942   4.403  0.2176  0.1884  0.5321
   82SLPC  H10X 7738   2.078   5.011   4.379  0.4512  0.2176 -0.2464
   82SLPC  H10Y 7739   2.259   4.995   4.408 -0.2292  1.2829 -1.2923
   82SLPC  C311 7740   2.142   4.868   4.540 -0.0287  0.5242 -0.3118
   82SLPC  H11X 7741   2.239   4.818   4.563 -0.3665  0.0995  0.2312
   82SLPC  H11Y 7742   2.057   4.799   4.520 -0.3637  1.3354 -1.8628
   82SLPC  C312 7743   2.110   4.971   4.649  0.2572  0.0909  0.5869
   82SLPC  H12X 7744   2.090   4.919   4.745 -0.3996  0.7981  0.8392
   82SLPC  H12Y 7745   2.013   5.019   4.627  1.6498  2.0245 -1.8564
   82SLPC  C313 7746   2.205   5.083   4.681 -0.5555  0.0821  0.0313
   82SLPC  H13X 7747   2.156   5.161   4.743 -1.7945  0.0736 -0.9034
   82SLPC  H13Y 7748   2.247   5.128   4.589  1.3452 -0.7659  0.4286
   82SLPC  C314 7749   2.335   5.032   4.750  0.0707 -0.2272 -0.4441
   82SLPC  H14X 7750   2.382   4.948   4.695  0.4932  0.3414 -0.9753
   82SLPC  H14Y 7751   2.315   4.997   4.853  0.4284  0.5760 -0.0902
   82SLPC  C315 7752   2.448   5.137   4.765  0.5101 -0.3133 -0.3947
   82SLPC  H15X 7753   2.484   5.159   4.662 -2.1874 -0.8635 -1.5295
   82SLPC  H15Y 7754   2.536   5.095   4.819  1.4362  1.0947 -0.7239
   82SLPC  C316 7755   2.412   5.277   4.818  0.0533  0.1566 -0.1290
   82SLPC  H16X 7756   2.348   5.334   4.748  0.7371 -0.7051 -1.4929
   82SLPC  H16Y 7757   2.503   5.340   4.822  1.7704 -2.0887 -1.3040
   82SLPC  C317 7758   2.351   5.267   4.957 -0.2005  0.2803 -0.5397
   82SLPC  H17X 7759   2.427   5.217   5.021 -1.3097 -1.3185 -0.3997
   82SLPC  H17Y 7760   2.258   5.208   4.965 -0.8108  1.2634 -0.0908
   82SLPC  C318 7761   2.328   5.407   5.013 -0.3903  0.1942  0.0675
   82SLPC  H18X 7762   2.287   5.398   5.116  1.8254 -0.8174  0.9080
   82SLPC  H18Y 7763   2.255   5.461   4.948  0.7581  0.0983 -1.3527
   82SLPC  H18Z 7764   2.423   5.464   5.016 -1.1889  1.5980 -0.3341
   83SLPC     N 7765   4.372   0.150   2.392  0.1081  0.4212  0.0646
   83SLPC   C13 7766   4.478   0.238   2.331  0.4169 -1.1414  0.1747
   83SLPC  H13A 7767   4.496   0.204   2.230 -3.4531 -0.6225 -0.8374
   83SLPC  H13B 7768   4.441   0.339   2.335  1.7937 -0.6413  2.1278
   83SLPC  H13C 7769   4.575   0.229   2.378  2.6450  2.0461 -3.2526
   83SLPC   C14 7770   4.414   0.006   2.377  0.0164 -0.2088  0.6644
   83SLPC  H14A 7771   4.506  -0.011   2.431  0.7492 -1.5058 -0.9149
   83SLPC  H14B 7772   4.339  -0.059   2.419 -0.6028 -1.4766 -2.1554
   83SLPC  H14C 7773   4.433  -0.027   2.276 -1.9781 -0.6069  0.3721
   83SLPC   C15 7774   4.239   0.175   2.336 -0.3630 -0.4976  0.1443
   83SLPC  H15A 7775   4.205   0.271   2.371  1.1477 -0.7547  2.5776
   83SLPC  H15B 7776   4.244   0.182   2.229  0.2023  2.4280  0.3014
   83SLPC  H15C 7777   4.173   0.098   2.373 -1.0223  0.8395  1.8584
   83SLPC   C12 7778   4.371   0.180   2.546  0.5175  0.3160 -0.3161
   83SLPC  H12A 7779   4.339   0.283   2.560 -2.0206 -0.3006 -1.0535
   83SLPC  H12B 7780   4.473   0.182   2.580 -0.2441  2.6557  2.2310
   83SLPC   C11 7781   4.287   0.089   2.629  0.1859  0.3999 -0.3951
   83SLPC  H11A 7782   4.307   0.119   2.734 -1.3980 -1.1596  0.4147
   83SLPC  H11B 7783   4.329  -0.014   2.624 -1.3939 -0.3136  0.3628
   83SLPC     P 7784   4.067   0.223   2.653  0.1772  0.1448  0.9583
   83SLPC   O13 7785   4.164   0.338   2.666  0.3846  0.3588 -0.5953
   83SLPC   O14 7786   3.949   0.237   2.565 -0.2802  0.5240 -0.4300
   83SLPC   O12 7787   4.154   0.098   2.596  0.1901  0.6909  0.3081
   83SLPC   O11 7788   4.015   0.171   2.799  0.2344  0.7616  0.2002
   83SLPC    C1 7789   3.936   0.047   2.800  0.2082 -0.5231 -0.6540
   83SLPC    HA 7790   3.830   0.069   2.823  0.6906 -1.2286  2.7521
   83SLPC    HB 7791   3.944  -0.018   2.711  0.3382 -3.1133  1.1564
   83SLPC    C2 7792   3.987  -0.042   2.916  0.5785 -0.9356  0.4360
   83SLPC    HS 7793   3.909  -0.121   2.931 -3.5123  2.6044 -0.2573
   83SLPC   O21 7794   4.009   0.036   3.037  0.6532  0.2980  1.1058
   83SLPC   C21 7795   3.898   0.074   3.097  0.5078  0.1817 -0.2494
   83SLPC   O22 7796   3.785   0.039   3.064  0.5807  0.1549  0.3678
   83SLPC   C22 7797   3.933   0.177   3.208  0.1296 -0.0670  0.4312
   83SLPC   H2R 7798   4.032   0.147   3.246  1.0828  1.8521 -0.4017
   83SLPC   H2S 7799   3.944   0.281   3.170 -1.0564 -0.1547 -0.2155
   83SLPC    C3 7800   4.112  -0.121   2.876  0.6990 -0.2502  0.4862
   83SLPC    HX 7801   4.200  -0.060   2.845  0.3193  0.0280 -0.0453
   83SLPC    HY 7802   4.087  -0.168   2.778  0.3211  2.4239 -0.7662
   83SLPC   O31 7803   4.152  -0.218   2.977 -0.4182  0.1922 -0.4334
   83SLPC   C31 7804   4.239  -0.159   3.066  0.0683  0.4064  0.1138
   83SLPC   O32 7805   4.273  -0.045   3.063 -0.7528  0.6970  0.3055
   83SLPC   C32 7806   4.270  -0.274   3.168 -0.8246 -0.1729 -0.6225
   83SLPC   H2X 7807   4.342  -0.341   3.115 -0.5287 -0.4723  0.1476
   83SLPC   H2Y 7808   4.176  -0.326   3.193 -0.0689 -1.3103 -0.0769
   83SLPC   C23 7809   3.827   0.180   3.321 -0.6180  0.5393  0.3013
   83SLPC   H3R 7810   3.841   0.084   3.374 -1.2365  0.4856  0.3720
   83SLPC   H3S 7811   3.723   0.180   3.284 -0.9937 -0.1961  1.3089
   83SLPC   C24 7812   3.866   0.276   3.439  0.4542 -0.1997 -0.1420
   83SLPC   H4R 7813   3.838   0.379   3.407  1.7419 -0.3255 -1.8386
   83SLPC   H4S 7814   3.976   0.277   3.451  0.4517 -0.5615 -0.0834
   83SLPC   C25 7815   3.784   0.241   3.562  0.0946  0.4571  0.0826
   83SLPC   H5R 7816   3.809   0.142   3.606 -1.7930  0.5237  1.4406
   83SLPC   H5S 7817   3.677   0.225   3.535  0.5338 -2.1049 -0.4009
   83SLPC   C26 7818   3.785   0.348   3.674 -0.3207  0.0129 -0.3379
   83SLPC   H6R 7819   3.705   0.317   3.745  1.3069  0.4638  1.8344
   83SLPC   H6S 7820   3.778   0.452   3.636  2.6225  0.1470 -0.7164
   83SLPC   C27 7821   3.925   0.350   3.740 -0.1962  0.0176  0.1566
   83SLPC   H7R 7822   4.008   0.342   3.668 -2.5320 -3.0119 -2.4758
   83SLPC   H7S 7823   3.950   0.255   3.791  0.1907  0.2411  0.3872
   83SLPC   C28 7824   3.934   0.475   3.840 -0.0041 -0.7267  0.5342
   83SLPC   H8R 7825   3.911   0.568   3.784  1.9392  0.7909  2.0614
   83SLPC   H8S 7826   4.044   0.488   3.856  0.8244 -3.6664 -1.9168
   83SLPC   C29 7827   3.854   0.449   3.961  0.1163  0.3077  0.8671
   83SLPC   H9R 7828   3.749   0.479   3.948  0.5588  0.7833 -2.5756
   83SLPC  C210 7829   3.894   0.389   4.078  0.0944  0.4023  0.2970
   83SLPC  H10R 7830   3.819   0.380   4.158 -0.2680  1.9293  0.1706
   83SLPC  C211 7831   4.039   0.350   4.108  0.5439  0.2052  0.4881
   83SLPC  H11R 7832   4.090   0.424   4.173  2.6714 -2.6851  2.3359
   83SLPC  H11S 7833   4.102   0.318   4.022 -1.1790 -2.8619  0.2206
   83SLPC  C212 7834   4.035   0.221   4.191 -0.8551  0.0679 -0.4395
   83SLPC  H12R 7835   3.999   0.132   4.137 -0.1351 -0.0892 -0.6633
   83SLPC  C213 7836   4.050   0.205   4.326 -0.0516 -0.2815  0.1537
   83SLPC  H13R 7837   4.029   0.105   4.366 -2.9737  0.3044  0.2927
   83SLPC  C214 7838   4.103   0.315   4.417 -0.3070 -0.1558 -0.2441
   83SLPC  H14R 7839   4.051   0.307   4.515 -2.2001  2.5381 -0.9272
   83SLPC  H14S 7840   4.093   0.413   4.367 -0.9869  0.7459  1.5626
   83SLPC  C215 7841   4.261   0.300   4.441  1.0803  0.2888 -0.4567
   83SLPC  H15R 7842   4.315   0.317   4.346 -0.8021  0.9841 -1.4607
   83SLPC  H15S 7843   4.291   0.197   4.470 -0.0966 -0.1085 -0.5625
   83SLPC  C216 7844   4.307   0.388   4.548  0.5004 -0.5562  0.9501
   83SLPC  H16R 7845   4.266   0.492   4.547  1.1736 -0.2774 -0.5759
   83SLPC  H16S 7846   4.418   0.396   4.550  0.3778  1.9555  0.6573
   83SLPC  C217 7847   4.271   0.311   4.681  0.5023 -0.1304  0.9499
   83SLPC  H17R 7848   4.312   0.208   4.683  1.1528  0.0876 -0.2760
   83SLPC  H17S 7849   4.161   0.299   4.694  0.1265  1.0004 -0.8093
   83SLPC  C218 7850   4.316   0.378   4.811 -0.1716  0.2902  1.3553
   83SLPC  H18R 7851   4.310   0.489   4.806  3.0279  0.5363  0.6054
   83SLPC  H18S 7852   4.426   0.359   4.815 -0.0517  0.1466 -1.1116
   83SLPC  H18T 7853   4.250   0.326   4.884 -1.6238  1.8839  1.2247
   83SLPC   C33 7854   4.334  -0.220   3.301 -0.4606 -0.9948 -0.2306
   83SLPC   H3X 7855   4.256  -0.155   3.345 -0.9891 -1.2732 -0.7383
   83SLPC   H3Y 7856   4.421  -0.154   3.281 -1.5721 -0.1168 -2.5837
   83SLPC   C34 7857   4.377  -0.325   3.405  0.2269 -0.2581  0.6749
   83SLPC   H4X 7858   4.477  -0.364   3.380  0.0108 -3.2126  3.7250
   83SLPC   H4Y 7859   4.304  -0.409   3.403 -0.4151  0.2730  1.2060
   83SLPC   C35 7860   4.386  -0.279   3.549  0.2548  0.7435 -0.0943
   83SLPC   H5X 7861   4.285  -0.260   3.592  0.1883  0.3136 -0.0579
   83SLPC   H5Y 7862   4.441  -0.183   3.560  2.2246 -0.5420  2.2894
   83SLPC   C36 7863   4.448  -0.383   3.644  0.9367  0.0121  0.2095
   83SLPC   H6X 7864   4.552  -0.402   3.610  0.2287  2.5265 -4.0677
   83SLPC   H6Y 7865   4.386  -0.475   3.641 -1.5677  1.6338 -0.9305
   83SLPC   C37 7866   4.450  -0.333   3.789  0.0713  0.0131  0.2470
   83SLPC   H7X 7867   4.343  -0.327   3.818 -0.1817 -1.6864 -0.2279
   83SLPC   H7Y 7868   4.500  -0.236   3.812  1.1380 -1.0726  2.8714
   83SLPC   C38 7869   4.532  -0.434   3.874  1.1493 -0.2841  0.7119
   83SLPC   H8X 7870   4.637  -0.417   3.843  0.9370  1.9476  1.0216
   83SLPC   H8Y 7871   4.520  -0.536   3.832  0.9297  0.1903 -0.4134
   83SLPC   C39 7872   4.531  -0.408   4.023  1.1914 -0.1986 -0.5170
   83SLPC   H9X 7873   4.434  -0.442   4.064  0.9461  0.1524 -0.7928
   83SLPC   H9Y 7874   4.549  -0.299   4.038  3.0744 -0.4757 -0.4563
   83SLPC  C310 7875   4.646  -0.486   4.091 -0.0910  0.4471  0.2896
   83SLPC  H10X 7876   4.745  -0.471   4.043  0.4466 -1.8353  0.5510
   83SLPC  H10Y 7877   4.617  -0.591   4.066  2.2419 -0.0671 -0.5180
   83SLPC  C311 7878   4.654  -0.464   4.242  0.5184  1.0208 -0.2628
   83SLPC  H11X 7879   4.558  -0.491   4.291  1.6118  3.3498  3.5844
   83SLPC  H11Y 7880   4.673  -0.355   4.255 -0.0388  0.8700  2.4312
   83SLPC  C312 7881   4.765  -0.535   4.316  0.1070  0.0628  0.0532
   83SLPC  H12X 7882   4.861  -0.492   4.277  0.1415  1.1635  1.2701
   83SLPC  H12Y 7883   4.745  -0.643   4.304  1.1724 -0.1707  0.2665
   83SLPC  C313 7884   4.774  -0.511   4.465  0.1879 -0.2403 -0.2355
   83SLPC  H13X 7885   4.668  -0.521   4.495  0.0693  1.2943 -0.0640
   83SLPC  H13Y 7886   4.806  -0.407   4.491  0.8515 -0.0202 -1.8160
   83SLPC  C314 7887   4.874  -0.609   4.526  0.7223  0.3573  0.2596
   83SLPC  H14X 7888   4.981  -0.582   4.508  0.0176  3.7064  0.4543
   83SLPC  H14Y 7889   4.851  -0.716   4.506 -0.9133  0.0298  3.3935
   83SLPC  C315 7890   4.866  -0.609   4.681 -0.1779  0.3109  0.0757
   83SLPC  H15X 7891   4.763  -0.625   4.721 -0.7975 -0.9155 -1.8866
   83SLPC  H15Y 7892   4.903  -0.512   4.720 -0.0100 -0.4594  1.9640
   83SLPC  C316 7893   4.955  -0.711   4.743 -0.1772 -0.4250  0.3998
   83SLPC  H16X 7894   5.056  -0.707   4.697  0.5384  0.1039  1.9597
   83SLPC  H16Y 7895   4.909  -0.808   4.715 -0.5963 -0.4500  1.1542
   83SLPC  C317 7896   4.969  -0.704   4.894  0.2698 -1.0411  0.0283
   83SLPC  H17X 7897   4.868  -0.735   4.927 -0.4898 -1.5405 -2.5197
   83SLPC  H17Y 7898   4.995  -0.599   4.920 -0.1891 -1.0615  0.5750
   83SLPC  C318 7899   5.070  -0.793   4.959 -0.6446  0.4286 -0.2884
   83SLPC  H18X 7900   5.174  -0.761   4.938 -1.0103  2.2556  0.5022
   83SLPC  H18Y 7901   5.057  -0.899   4.927  1.1582  0.6057 -1.7730
   83SLPC  H18Z 7902   5.057  -0.778   5.068 -0.2907 -0.1233 -0.1680
   84SLPC     N 7903   2.781   3.146   2.632  0.1907  0.0180  0.0156
   84SLPC   C13 7904   2.631   3.164   2.636  0.0212 -0.1025 -0.8465
   84SLPC  H13A 7905   2.580   3.092   2.699 -0.7537  0.1892 -1.1355
   84SLPC  H13B 7906   2.614   3.256   2.690  3.4642  0.1069  0.1368
   84SLPC  H13C 7907   2.593   3.173   2.536  2.8898  2.0591 -1.8635
   84SLPC   C14 7908   2.836   3.265   2.567  0.0341 -0.2112 -0.3087
   84SLPC  H14A 7909   2.941   3.250   2.543 -0.2738  0.1364 -2.0509
   84SLPC  H14B 7910   2.790   3.273   2.469  0.3056  1.9090 -0.3101
   84SLPC  H14C 7911   2.816   3.357   2.620 -1.1587 -1.0931  0.8280
   84SLPC   C15 7912   2.814   3.015   2.553 -0.6404  0.1190  0.4367
   84SLPC  H15A 7913   2.765   3.016   2.457 -0.9592 -1.1724  0.5556
   84SLPC  H15B 7914   2.921   3.007   2.535 -1.2422 -2.5838 -3.1103
   84SLPC  H15C 7915   2.779   2.932   2.613 -0.4824 -1.3221 -1.3696
   84SLPC   C12 7916   2.839   3.148   2.776  0.2785  0.1717 -0.3223
   84SLPC  H12A 7917   2.802   3.238   2.822  1.5744 -0.2340  1.6533
   84SLPC  H12B 7918   2.946   3.143   2.760  0.1821 -1.2791 -0.7188
   84SLPC   C11 7919   2.804   3.030   2.870  0.2389 -0.2849  0.5414
   84SLPC  H11A 7920   2.694   3.027   2.880  0.2047 -0.3316  0.1407
   84SLPC  H11B 7921   2.851   3.069   2.963 -0.9602  1.5513  0.4164
   84SLPC     P 7922   2.999   2.866   2.836  0.3457  0.1292 -0.1427
   84SLPC   O13 7923   3.006   2.731   2.779 -0.0421 -0.4962 -0.6292
   84SLPC   O14 7924   3.095   2.963   2.775  0.2500  0.4048 -0.0975
   84SLPC   O12 7925   2.843   2.906   2.824 -0.5819 -0.6677 -0.2599
   84SLPC   O11 7926   3.027   2.860   2.985  0.4599  0.9028  0.1674
   84SLPC    C1 7927   2.972   2.774   3.088 -0.2652  0.1460  0.4649
   84SLPC    HA 7928   2.903   2.702   3.040  0.1936  1.4616 -2.3779
   84SLPC    HB 7929   3.053   2.725   3.146  1.2052 -0.6685 -2.1453
   84SLPC    C2 7930   2.889   2.859   3.189 -0.5691  0.0271  0.4785
   84SLPC    HS 7931   2.823   2.932   3.137 -0.1122 -0.1841 -0.4172
   84SLPC   O21 7932   2.984   2.931   3.270  0.3409 -0.1551 -0.0051
   84SLPC   C21 7933   2.947   3.052   3.313  0.3330 -0.8776 -0.2595
   84SLPC   O22 7934   2.840   3.098   3.310  1.3398 -0.0991 -0.2001
   84SLPC   C22 7935   3.055   3.134   3.375 -0.8709 -0.1349  0.0673
   84SLPC   H2R 7936   3.128   3.152   3.293 -0.7450  1.0393  0.4333
   84SLPC   H2S 7937   3.029   3.238   3.403  0.0302  0.7000 -1.9754
   84SLPC    C3 7938   2.799   2.759   3.263 -0.3810 -0.6172 -0.1141
   84SLPC    HX 7939   2.856   2.668   3.292 -2.4547 -2.3551 -1.2213
   84SLPC    HY 7940   2.731   2.714   3.188 -0.0401  0.3597 -1.0285
   84SLPC   O31 7941   2.738   2.821   3.378 -0.6397  0.8937 -0.0713
   84SLPC   C31 7942   2.629   2.883   3.362 -0.3910  0.5455 -0.1703
   84SLPC   O32 7943   2.561   2.886   3.262 -0.3660 -0.6432 -0.1312
   84SLPC   C32 7944   2.587   2.948   3.492 -0.3597 -0.0730  0.2234
   84SLPC   H2X 7945   2.477   2.934   3.487 -0.6847  2.3216 -0.7135
   84SLPC   H2Y 7946   2.603   3.058   3.489 -2.4898  0.2914  0.6360
   84SLPC   C23 7947   3.122   3.049   3.484 -0.5022  0.1100  0.4960
   84SLPC   H3R 7948   3.223   3.093   3.492 -0.2022 -0.4037 -0.3139
   84SLPC   H3S 7949   3.138   2.941   3.459  0.2051  0.0895  1.0082
   84SLPC   C24 7950   3.063   3.063   3.623 -0.2196 -0.6237  0.1258
   84SLPC   H4R 7951   2.969   3.004   3.611 -0.1133 -0.4806 -1.7665
   84SLPC   H4S 7952   3.051   3.167   3.659  0.9129 -0.5763  0.4026
   84SLPC   C25 7953   3.146   2.988   3.730 -1.1747  0.7070  0.4588
   84SLPC   H5R 7954   3.245   3.038   3.741 -1.4797  0.8363  3.3775
   84SLPC   H5S 7955   3.165   2.884   3.696  0.3900  1.2600 -0.4621
   84SLPC   C26 7956   3.098   3.002   3.879  0.3322  0.6130  0.0540
   84SLPC   H6R 7957   2.990   2.976   3.884  0.5023 -0.5988 -1.6814
   84SLPC   H6S 7958   3.105   3.110   3.905  1.8400  0.1233  1.8860
   84SLPC   C27 7959   3.177   2.921   3.973 -0.6585  0.1650 -0.8818
   84SLPC   H7R 7960   3.183   2.814   3.943 -1.2096  0.5131 -2.3011
   84SLPC   H7S 7961   3.120   2.924   4.068 -1.3329  1.1132 -1.2981
   84SLPC   C28 7962   3.323   2.979   3.984  0.4743  0.4264 -0.4887
   84SLPC   H8R 7963   3.332   3.090   3.987 -0.2057  0.4708  0.6127
   84SLPC   H8S 7964   3.373   2.958   3.888 -0.8295  0.5078 -1.2105
   84SLPC   C29 7965   3.388   2.910   4.104  0.1122 -0.3084 -0.8260
   84SLPC   H9R 7966   3.455   2.826   4.078 -0.1134 -0.9487  0.5655
   84SLPC  C210 7967   3.399   2.965   4.226  0.9936 -0.4695 -0.3042
   84SLPC  H10R 7968   3.463   2.915   4.300 -1.2515 -2.0238  0.7146
   84SLPC  C211 7969   3.344   3.095   4.276 -0.3927  0.0804  0.3767
   84SLPC  H11R 7970   3.323   3.093   4.385 -2.5586 -0.8601 -0.0002
   84SLPC  H11S 7971   3.251   3.110   4.217 -0.7538 -2.8406  0.0579
   84SLPC  C212 7972   3.421   3.224   4.245  0.0531  0.9649  0.3381
   84SLPC  H12R 7973   3.444   3.250   4.141  1.9550 -1.0545  0.1884
   84SLPC  C213 7974   3.454   3.321   4.329  0.9000  0.3210  0.3938
   84SLPC  H13R 7975   3.490   3.415   4.285 -1.6205  1.9432  1.5212
   84SLPC  C214 7976   3.436   3.325   4.475  0.0495 -0.6058  0.7178
   84SLPC  H14R 7977   3.531   3.363   4.520 -0.1040  0.3028  0.2925
   84SLPC  H14S 7978   3.405   3.228   4.520 -0.2254 -0.4906  0.7775
   84SLPC  C215 7979   3.335   3.429   4.515 -0.7038 -0.6254 -0.5003
   84SLPC  H15R 7980   3.236   3.403   4.472 -0.1841  1.6174 -3.3496
   84SLPC  H15S 7981   3.342   3.531   4.473  1.3190 -1.1460 -1.5347
   84SLPC  C216 7982   3.326   3.451   4.670  0.0171  0.1951  0.2156
   84SLPC  H16R 7983   3.329   3.349   4.714 -0.5214 -0.0384 -0.2647
   84SLPC  H16S 7984   3.228   3.494   4.699 -0.3998 -0.0424 -0.7681
   84SLPC  C217 7985   3.432   3.542   4.728  0.4390 -0.0381  0.2431
   84SLPC  H17R 7986   3.408   3.650   4.724  1.9449  0.3175  0.4967
   84SLPC  H17S 7987   3.523   3.532   4.665  1.2372 -0.5933  1.4378
   84SLPC  C218 7988   3.466   3.509   4.873 -0.0037  0.3109 -0.0634
   84SLPC  H18R 7989   3.524   3.415   4.890  0.4149  0.9339  2.2151
   84SLPC  H18S 7990   3.372   3.501   4.931  0.7343 -2.1501  0.9229
   84SLPC  H18T 7991   3.527   3.594   4.910  1.2252 -1.6294  2.7168
   84SLPC   C33 7992   2.651   2.890   3.617  0.7854 -1.1704 -0.3776
   84SLPC   H3X 7993   2.761   2.903   3.621  0.4601  2.4134  0.0469
   84SLPC   H3Y 7994   2.629   2.781   3.614  0.0002 -1.0173 -0.5980
   84SLPC   C34 7995   2.584   2.941   3.746 -0.3508  0.7698 -0.2814
   84SLPC   H4X 7996   2.594   3.051   3.757 -1.1137  0.8163 -0.0147
   84SLPC   H4Y 7997   2.638   2.905   3.836  0.8152 -1.2574 -1.7022
   84SLPC   C35 7998   2.436   2.898   3.764  0.2439 -1.2131  0.4569
   84SLPC   H5X 7999   2.442   2.787   3.771  1.1369 -1.1281  1.2671
   84SLPC   H5Y 8000   2.372   2.949   3.689  2.5263  3.8151  1.5220
   84SLPC   C36 8001   2.383   2.958   3.892  0.0594  0.0690  0.7127
   84SLPC   H6X 8002   2.279   2.919   3.898  0.6847 -1.4663  2.6620
   84SLPC   H6Y 8003   2.380   3.068   3.884  1.7907  0.3453  2.9063
   84SLPC   C37 8004   2.455   2.920   4.018 -0.0101 -0.2017  0.5736
   84SLPC   H7X 8005   2.549   2.979   4.024  0.0118 -0.1994  0.2455
   84SLPC   H7Y 8006   2.498   2.818   4.012  1.5216  0.5009 -2.6625
   84SLPC   C38 8007   2.372   2.935   4.138  0.0290  0.3510 -0.0308
   84SLPC   H8X 8008   2.387   2.854   4.212  0.2030 -0.0090 -0.4607
   84SLPC   H8Y 8009   2.267   2.956   4.106 -0.3139  2.0742  2.0164
   84SLPC   C39 8010   2.411   3.060   4.211 -0.6438  0.0266  0.4343
   84SLPC   H9X 8011   2.396   3.151   4.149 -1.3391  0.1931  0.8330
   84SLPC   H9Y 8012   2.515   3.051   4.249 -0.3561 -1.7367 -0.6565
   84SLPC  C310 8013   2.323   3.065   4.339  0.1673 -0.6070  0.7262
   84SLPC  H10X 8014   2.326   2.967   4.391 -1.7696 -1.5633 -0.8464
   84SLPC  H10Y 8015   2.220   3.073   4.298  0.3617 -1.1385  0.1244
   84SLPC  C311 8016   2.345   3.181   4.440 -0.2563 -0.5494  0.1092
   84SLPC  H11X 8017   2.259   3.176   4.510  0.7585 -0.8101  1.3667
   84SLPC  H11Y 8018   2.347   3.280   4.389 -0.5485  0.5437  2.1401
   84SLPC  C312 8019   2.472   3.177   4.519 -0.4693 -0.1791 -0.2410
   84SLPC  H12X 8020   2.555   3.163   4.446 -0.2124  1.6752 -0.3683
   84SLPC  H12Y 8021   2.475   3.098   4.596 -0.4602 -1.4759 -1.5186
   84SLPC  C313 8022   2.521   3.303   4.586 -0.0308 -0.5439  0.0152
   84SLPC  H13X 8023   2.616   3.280   4.639  0.4420  1.4601  0.1394
   84SLPC  H13Y 8024   2.444   3.328   4.661  0.8710  0.0963  0.7494
   84SLPC  C314 8025   2.572   3.410   4.486  0.4009  0.2086  0.1252
   84SLPC  H14X 8026   2.490   3.449   4.421 -0.2911 -1.3826 -0.0097
   84SLPC  H14Y 8027   2.646   3.366   4.415  0.3003 -1.5243  1.0335
   84SLPC  C315 8028   2.624   3.537   4.560  0.0390 -0.3833  0.0178
   84SLPC  H15X 8029   2.653   3.613   4.484  0.7657 -1.8967 -1.2789
   84SLPC  H15Y 8030   2.715   3.501   4.612  0.2267 -0.9828 -0.7038
   84SLPC  C316 8031   2.515   3.603   4.647 -0.0112  0.0194 -0.0428
   84SLPC  H16X 8032   2.499   3.532   4.731  3.5693 -1.6495 -0.5695
   84SLPC  H16Y 8033   2.425   3.619   4.584  1.4673 -1.4800 -2.7176
   84SLPC  C317 8034   2.572   3.720   4.727 -0.1130 -0.0166  0.0536
   84SLPC  H17X 8035   2.631   3.776   4.652  2.3216 -1.2047  0.9367
   84SLPC  H17Y 8036   2.645   3.691   4.806  1.0892 -0.6662 -1.2509
   84SLPC  C318 8037   2.459   3.813   4.772 -0.1699  0.4438  0.3975
   84SLPC  H18X 8038   2.372   3.748   4.796  2.5077 -3.3879  0.7394
   84SLPC  H18Y 8039   2.429   3.889   4.697 -0.4661  0.1874  0.2541
   84SLPC  H18Z 8040   2.495   3.876   4.856  3.0190  0.9710 -1.1971
   85SLPC     N 8041   1.160   0.228   2.891 -0.8048  0.5053 -0.4416
   85SLPC   C13 8042   1.240   0.309   2.977 -0.3415 -0.8248 -0.5895
   85SLPC  H13A 8043   1.338   0.332   2.940  0.8499 -0.6916  2.3979
   85SLPC  H13B 8044   1.192   0.402   3.005  2.0705  0.7776 -1.4869
   85SLPC  H13C 8045   1.281   0.263   3.066 -0.7387 -0.6729 -0.3228
   85SLPC   C14 8046   1.221   0.095   2.892  0.0902  0.5355 -0.2441
   85SLPC  H14A 8047   1.321   0.088   2.852 -0.7924  0.3684 -2.5681
   85SLPC  H14B 8048   1.217   0.050   2.990 -1.6079  2.3643  0.6249
   85SLPC  H14C 8049   1.166   0.037   2.820  2.6412 -0.2809 -1.6510
   85SLPC   C15 8050   1.154   0.282   2.751 -0.4816 -0.6330 -0.4218
   85SLPC  H15A 8051   1.134   0.388   2.761  0.3069 -0.6188  1.4686
   85SLPC  H15B 8052   1.239   0.271   2.685 -1.1898 -2.2056 -1.1048
   85SLPC  H15C 8053   1.069   0.246   2.696 -1.2116 -2.7861  1.9325
   85SLPC   C12 8054   1.021   0.205   2.946  0.1949 -0.0680  0.7715
   85SLPC  H12A 8055   1.014   0.153   3.041  1.8343 -0.7391  0.5613
   85SLPC  H12B 8056   0.968   0.139   2.878 -0.3789  2.0688 -0.9491
   85SLPC   C11 8057   0.925   0.331   2.961 -0.7839  0.6023  0.4937
   85SLPC  H11A 8058   0.932   0.392   2.868 -1.3043 -1.6746 -1.1352
   85SLPC  H11B 8059   0.972   0.399   3.035  3.0763  0.2154 -1.3719
   85SLPC     P 8060   0.736   0.208   3.102 -0.3563  0.4717 -0.1489
   85SLPC   O13 8061   0.667   0.300   3.188 -0.0081 -0.3877  0.1853
   85SLPC   O14 8062   0.662   0.094   3.041 -0.2472  0.3521 -0.5893
   85SLPC   O12 8063   0.793   0.299   2.991 -0.5629 -0.3944 -0.4808
   85SLPC   O11 8064   0.863   0.149   3.169 -0.4176 -0.0363 -0.5318
   85SLPC    C1 8065   0.882   0.024   3.238  0.8552 -0.1411 -0.1378
   85SLPC    HA 8066   0.860  -0.052   3.160  0.0309  1.2365 -1.3051
   85SLPC    HB 8067   0.987   0.014   3.273  0.4692 -2.0503  0.6142
   85SLPC    C2 8068   0.789   0.001   3.364 -0.1825 -0.0088  0.1576
   85SLPC    HS 8069   0.682   0.013   3.336 -0.0713  3.2131  0.7814
   85SLPC   O21 8070   0.827   0.105   3.459 -0.2460  0.3176 -0.2378
   85SLPC   C21 8071   0.733   0.159   3.536 -0.0320  0.4996 -0.3597
   85SLPC   O22 8072   0.612   0.135   3.526  0.4343  0.1564 -0.0676
   85SLPC   C22 8073   0.798   0.256   3.631 -0.8839  0.5698  1.0263
   85SLPC   H2R 8074   0.907   0.268   3.619 -1.0153  0.0455 -1.0381
   85SLPC   H2S 8075   0.760   0.359   3.611  0.5157  0.9253  0.0926
   85SLPC    C3 8076   0.817  -0.130   3.428  0.6303  0.6053 -0.6587
   85SLPC    HX 8077   0.926  -0.136   3.446  0.4467 -0.9142  0.1196
   85SLPC    HY 8078   0.795  -0.214   3.358  0.6045  0.1133 -0.0717
   85SLPC   O31 8079   0.747  -0.144   3.560  0.0311 -0.5667  0.4363
   85SLPC   C31 8080   0.624  -0.192   3.558  0.1279 -0.1352 -0.7085
   85SLPC   O32 8081   0.568  -0.240   3.460  0.2598  0.5684  0.6892
   85SLPC   C32 8082   0.556  -0.178   3.700 -0.2209  0.4971  0.3362
   85SLPC   H2X 8083   0.524  -0.071   3.707 -1.5545  0.0371  1.6381
   85SLPC   H2Y 8084   0.632  -0.200   3.778 -2.8169  2.2374  3.5727
   85SLPC   C23 8085   0.772   0.207   3.775 -0.0876  0.0728  0.0031
   85SLPC   H3R 8086   0.662   0.196   3.791 -0.0294 -2.9591 -1.0807
   85SLPC   H3S 8087   0.806   0.283   3.848  0.9880 -0.7871  0.4178
   85SLPC   C24 8088   0.847   0.081   3.811  0.2685  0.3936 -0.4660
   85SLPC   H4R 8089   0.953   0.098   3.838 -0.1754 -1.6999  3.2248
   85SLPC   H4S 8090   0.863   0.010   3.727 -1.6024  0.3606 -0.8432
   85SLPC   C25 8091   0.798  -0.008   3.925  0.2595  0.0664  0.2038
   85SLPC   H5R 8092   0.694  -0.040   3.904  0.7318 -0.0688 -2.2480
   85SLPC   H5S 8093   0.865  -0.097   3.930  1.3060  0.7842 -0.7105
   85SLPC   C26 8094   0.800   0.059   4.063  0.0209  0.1119  0.0692
   85SLPC   H6R 8095   0.769   0.164   4.043 -1.8940 -1.1121 -4.7560
   85SLPC   H6S 8096   0.907   0.063   4.092  0.2734 -0.9444 -0.6702
   85SLPC   C27 8097   0.708  -0.012   4.170 -0.5717 -0.4037  0.2827
   85SLPC   H7R 8098   0.724  -0.121   4.153 -1.8150 -0.4635 -0.6467
   85SLPC   H7S 8099   0.605   0.020   4.141  0.6450  3.6135 -0.1992
   85SLPC   C28 8100   0.752   0.023   4.308 -0.0836  0.0399  0.4746
   85SLPC   H8R 8101   0.862   0.037   4.313 -0.3983  2.7133  1.8353
   85SLPC   H8S 8102   0.737  -0.061   4.379 -0.0942 -1.4575 -1.2086
   85SLPC   C29 8103   0.698   0.159   4.346  0.0777  0.5160 -0.0600
   85SLPC   H9R 8104   0.679   0.239   4.273 -0.9482 -0.5110 -0.9566
   85SLPC  C210 8105   0.697   0.200   4.476 -0.7006 -0.2884  0.1325
   85SLPC  H10R 8106   0.660   0.299   4.504  1.2513  0.4606  0.1903
   85SLPC  C211 8107   0.733   0.122   4.601 -0.1765 -0.3365 -0.0707
   85SLPC  H11R 8108   0.808   0.043   4.580 -0.6843 -0.7210 -0.4807
   85SLPC  H11S 8109   0.651   0.060   4.643  0.0618  0.2640  1.3469
   85SLPC  C212 8110   0.793   0.198   4.715  0.2457  0.4428  0.2742
   85SLPC  H12R 8111   0.902   0.209   4.708 -0.0065  2.9029 -1.2155
   85SLPC  C213 8112   0.729   0.235   4.825 -0.2201  0.0021 -0.3310
   85SLPC  H13R 8113   0.786   0.294   4.899 -0.7709  0.3675 -0.1912
   85SLPC  C214 8114   0.581   0.230   4.867 -0.5543 -0.2494 -0.2312
   85SLPC  H14R 8115   0.521   0.152   4.815  1.5188 -2.5926  0.6927
   85SLPC  H14S 8116   0.529   0.327   4.881  0.3083  0.0185  1.4035
   85SLPC  C215 8117   0.565   0.161   5.002  0.2794  0.8665 -0.0926
   85SLPC  H15R 8118   0.623   0.067   5.002 -0.2477  0.4945  1.7011
   85SLPC  H15S 8119   0.463   0.131   5.035  0.5181  0.1849  0.0433
   85SLPC  C216 8120   0.618   0.250   5.121  0.4287  0.6320  0.2767
   85SLPC  H16R 8121   0.717   0.295   5.095  0.5701  0.1792  0.0068
   85SLPC  H16S 8122   0.636   0.182   5.207  0.7256  1.7841  1.1548
   85SLPC  C217 8123   0.527   0.358   5.174 -0.5048  0.2217  0.7067
   85SLPC  H17R 8124   0.452   0.362   5.092 -1.4838  0.9287  1.6114
   85SLPC  H17S 8125   0.581   0.455   5.170  0.2595 -0.1286  1.9042
   85SLPC  C218 8126   0.467   0.328   5.309 -0.4533  0.8801  0.0829
   85SLPC  H18R 8127   0.413   0.231   5.316 -2.0363  1.7506  0.5486
   85SLPC  H18S 8128   0.393   0.410   5.325 -0.0188  1.3228 -0.1486
   85SLPC  H18T 8129   0.552   0.334   5.381 -0.8948 -2.1610  0.9779
   85SLPC   C33 8130   0.424  -0.259   3.721  0.7300 -0.0672  0.8527
   85SLPC   H3X 8131   0.445  -0.368   3.721  0.1778 -0.1756  1.2588
   85SLPC   H3Y 8132   0.351  -0.239   3.640  1.3487 -0.0869  0.2790
   85SLPC   C34 8133   0.354  -0.217   3.846  0.5395  0.2493  0.0427
   85SLPC   H4X 8134   0.245  -0.233   3.836  0.5202  0.1628  0.3780
   85SLPC   H4Y 8135   0.353  -0.106   3.840 -0.5963  0.2465  0.0212
   85SLPC   C35 8136   0.417  -0.278   3.970  0.7178  0.3279  0.0141
   85SLPC   H5X 8137   0.527  -0.283   3.957  0.5008  1.3972 -2.9990
   85SLPC   H5Y 8138   0.381  -0.380   3.997  1.2595  0.0803 -0.1933
   85SLPC   C36 8139   0.383  -0.193   4.089  0.2310  0.3896  0.0822
   85SLPC   H6X 8140   0.273  -0.178   4.092  0.1607 -0.0776 -0.0745
   85SLPC   H6Y 8141   0.430  -0.092   4.090 -1.0550  1.0204 -0.2859
   85SLPC   C37 8142   0.427  -0.246   4.223  0.2344  0.2083  0.0496
   85SLPC   H7X 8143   0.537  -0.241   4.229  0.2380  0.2697 -0.0674
   85SLPC   H7Y 8144   0.398  -0.353   4.233  1.8286 -0.3796 -1.2333
   85SLPC   C38 8145   0.367  -0.160   4.341 -0.3387  0.2656 -0.0570
   85SLPC   H8X 8146   0.256  -0.163   4.330 -0.4937 -1.1634  1.4274
   85SLPC   H8Y 8147   0.405  -0.059   4.316  0.7646  0.1016  0.8710
   85SLPC   C39 8148   0.405  -0.196   4.486  0.5138  0.4811  0.6412
   85SLPC   H9X 8149   0.511  -0.165   4.496  0.3484  1.6026 -0.7279
   85SLPC   H9Y 8150   0.394  -0.306   4.497  0.3271  0.2953 -1.0148
   85SLPC  C310 8151   0.318  -0.120   4.574  0.6463  0.2764 -0.4145
   85SLPC  H10X 8152   0.214  -0.128   4.535  0.1136 -0.6084  1.0845
   85SLPC  H10Y 8153   0.359  -0.017   4.577  1.5553 -0.0675  2.3927
   85SLPC  C311 8154   0.315  -0.176   4.727  0.0673 -0.5509 -0.9659
   85SLPC  H11X 8155   0.294  -0.285   4.719  0.4184 -0.5329 -2.3765
   85SLPC  H11Y 8156   0.239  -0.114   4.780 -1.7693 -1.8902 -1.9128
   85SLPC  C312 8157   0.443  -0.154   4.812 -0.3651 -0.2490  0.3447
   85SLPC  H12X 8158   0.464  -0.045   4.809  0.1842 -0.2978  1.9231
   85SLPC  H12Y 8159   0.530  -0.205   4.764  0.7832  1.1587  0.8425
   85SLPC  C313 8160   0.421  -0.224   4.945  0.1436 -0.3569  0.1413
   85SLPC  H13X 8161   0.347  -0.306   4.944  1.6994 -1.8242  0.1211
   85SLPC  H13Y 8162   0.377  -0.144   5.009  1.4629 -0.8730  1.7767
   85SLPC  C314 8163   0.545  -0.280   5.017 -0.1872 -0.4353  0.1541
   85SLPC  H14X 8164   0.623  -0.201   5.005 -0.8057  0.3307  1.0436
   85SLPC  H14Y 8165   0.563  -0.370   4.954 -1.7978  0.8864 -2.3447
   85SLPC  C315 8166   0.523  -0.333   5.162 -0.3221 -0.5499  0.3826
   85SLPC  H15X 8167   0.416  -0.351   5.187 -0.1573  0.2758  1.7706
   85SLPC  H15Y 8168   0.543  -0.243   5.224 -2.0901 -1.1931  1.9809
   85SLPC  C316 8169   0.615  -0.447   5.206 -0.2999  0.6758  0.4256
   85SLPC  H16X 8170   0.723  -0.425   5.192 -0.3401 -0.2767 -1.8069
   85SLPC  H16Y 8171   0.590  -0.532   5.139  1.0294  0.8814 -0.3633
   85SLPC  C317 8172   0.574  -0.497   5.347  0.0977  0.3073 -0.1944
   85SLPC  H17X 8173   0.621  -0.596   5.366  2.0020  1.5554  2.2379
   85SLPC  H17Y 8174   0.463  -0.503   5.357  0.1412 -2.9558 -0.6266
   85SLPC  C318 8175   0.631  -0.409   5.464  0.2406  0.9103  0.1557
   85SLPC  H18X 8176   0.640  -0.306   5.424  2.1043 -0.2177 -2.6697
   85SLPC  H18Y 8177   0.731  -0.444   5.498  0.4203 -0.9513 -2.0170
   85SLPC  H18Z 8178   0.566  -0.396   5.553 -0.6540  0.1161 -0.3605
   86SLPC     N 8179   3.143   4.094   2.773 -0.2466 -0.1278 -0.6455
   86SLPC   C13 8180   3.155   4.171   2.905 -0.3786 -1.0001 -0.2359
   86SLPC  H13A 8181   3.127   4.114   2.992 -2.1149  3.5592  2.5215
   86SLPC  H13B 8182   3.256   4.208   2.913 -0.9541  1.5063 -2.6413
   86SLPC  H13C 8183   3.087   4.254   2.915  1.4591  0.5595 -0.1764
   86SLPC   C14 8184   3.224   3.973   2.788 -0.4706 -0.1865  0.1102
   86SLPC  H14A 8185   3.305   3.981   2.860  0.2597  0.5443 -0.7719
   86SLPC  H14B 8186   3.156   3.896   2.821 -1.1646  1.0640  1.7254
   86SLPC  H14C 8187   3.278   3.952   2.697 -0.4206 -1.1284  0.3474
   86SLPC   C15 8188   3.204   4.187   2.667  0.0420  0.7632  0.4564
   86SLPC  H15A 8189   3.210   4.134   2.574 -0.4988  0.6861  0.4640
   86SLPC  H15B 8190   3.142   4.272   2.642  1.5492  0.6734 -4.6843
   86SLPC  H15C 8191   3.302   4.218   2.702 -0.4827  1.9167  0.9789
   86SLPC   C12 8192   3.001   4.060   2.737  0.0834  0.0588  0.0294
   86SLPC  H12A 8193   2.988   3.971   2.798  0.0615  0.1237  0.1198
   86SLPC  H12B 8194   2.997   4.022   2.636 -2.8868 -0.0597  0.0882
   86SLPC   C11 8195   2.897   4.167   2.761  0.1121  0.5431 -0.1780
   86SLPC  H11A 8196   2.803   4.142   2.708  1.3472 -2.3411 -1.2458
   86SLPC  H11B 8197   2.939   4.255   2.709 -2.3757  2.1125  0.3493
   86SLPC     P 8198   2.823   4.080   2.993  0.2549 -0.2080 -0.3897
   86SLPC   O13 8199   2.693   4.118   3.043 -0.3049 -0.1743 -0.7587
   86SLPC   O14 8200   2.838   3.948   2.932  0.3449 -0.2921 -0.0479
   86SLPC   O12 8201   2.879   4.189   2.899  0.3037 -0.1825  0.4341
   86SLPC   O11 8202   2.925   4.076   3.117  0.0992 -0.5656  0.1902
   86SLPC    C1 8203   2.956   4.190   3.204 -0.1357  0.5932 -0.3156
   86SLPC    HA 8204   3.063   4.195   3.234 -0.3536  0.9633  0.4462
   86SLPC    HB 8205   2.934   4.285   3.151 -0.5501 -0.6470 -2.4831
   86SLPC    C2 8206   2.867   4.192   3.339  0.1221  0.2465  1.0324
   86SLPC    HS 8207   2.935   4.251   3.404  0.9257  0.6542 -0.1449
   86SLPC   O21 8208   2.847   4.062   3.386  0.0646  0.2454 -0.0375
   86SLPC   C21 8209   2.944   3.992   3.439 -0.9054 -0.1746 -0.0673
   86SLPC   O22 8210   3.054   4.041   3.463 -0.6319  0.2434  0.2687
   86SLPC   C22 8211   2.906   3.843   3.454 -0.2898 -0.6006  0.1060
   86SLPC   H2R 8212   2.829   3.815   3.379  0.7142  0.0853 -1.2425
   86SLPC   H2S 8213   2.992   3.775   3.435  0.2162  0.2618 -0.8032
   86SLPC    C3 8214   2.732   4.264   3.325  0.5908 -0.2624 -0.5337
   86SLPC    HX 8215   2.657   4.194   3.282  0.5652  0.7297 -2.2069
   86SLPC    HY 8216   2.739   4.353   3.259 -1.2831  0.3023 -0.0459
   86SLPC   O31 8217   2.685   4.294   3.460  0.5961  0.4946  0.0315
   86SLPC   C31 8218   2.725   4.407   3.514 -0.8723  0.2635 -0.0939
   86SLPC   O32 8219   2.782   4.504   3.460  0.0365 -0.8291 -0.0456
   86SLPC   C32 8220   2.681   4.410   3.664 -1.1690 -0.1334 -0.1366
   86SLPC   H2X 8221   2.695   4.308   3.705 -2.3252  0.1067  0.8884
   86SLPC   H2Y 8222   2.571   4.423   3.661 -1.4453 -0.5214  3.6359
   86SLPC   C23 8223   2.843   3.811   3.595  0.1196 -0.1100 -0.5743
   86SLPC   H3R 8224   2.898   3.874   3.668 -0.4726  0.1751 -0.3727
   86SLPC   H3S 8225   2.858   3.703   3.617 -3.2788 -0.0001  3.4282
   86SLPC   C24 8226   2.693   3.841   3.594  0.1002  0.0563 -0.3172
   86SLPC   H4R 8227   2.635   3.793   3.512 -1.6775  0.6697  0.5388
   86SLPC   H4S 8228   2.671   3.950   3.582  2.7677  0.5571 -1.3640
   86SLPC   C25 8229   2.621   3.797   3.726 -0.0715 -0.2070  1.2348
   86SLPC   H5R 8230   2.657   3.864   3.807  1.3152 -0.7828  1.1191
   86SLPC   H5S 8231   2.652   3.694   3.751 -2.3819 -1.1508  0.5179
   86SLPC   C26 8232   2.466   3.797   3.725  0.7299  0.0832 -0.3990
   86SLPC   H6R 8233   2.434   3.747   3.631 -1.0718  0.0334  0.1915
   86SLPC   H6S 8234   2.421   3.898   3.718  0.7991  0.2428  1.0464
   86SLPC   C27 8235   2.405   3.720   3.844  0.5625 -0.2210 -0.2310
   86SLPC   H7R 8236   2.450   3.621   3.868 -0.4232  0.4044  5.7321
   86SLPC   H7S 8237   2.302   3.693   3.812  0.3223  0.2511  0.1388
   86SLPC   C28 8238   2.402   3.805   3.973  0.0754 -0.0110  0.2412
   86SLPC   H8R 8239   2.339   3.893   3.945  2.3295  1.3553 -0.8864
   86SLPC   H8S 8240   2.504   3.847   3.990 -0.5540  0.9082  1.9754
   86SLPC   C29 8241   2.359   3.736   4.095 -0.1381  0.4401 -0.3229
   86SLPC   H9R 8242   2.269   3.675   4.081 -0.2309  0.6263 -0.5476
   86SLPC  C210 8243   2.416   3.736   4.216 -0.6866  0.6805 -0.0782
   86SLPC  H10R 8244   2.378   3.664   4.291  0.2075 -0.5433 -0.7528
   86SLPC  C211 8245   2.537   3.812   4.257  0.5032  0.3863 -0.4985
   86SLPC  H11R 8246   2.569   3.882   4.177  0.9257 -0.7321 -1.3300
   86SLPC  H11S 8247   2.621   3.741   4.272  0.2447  0.2125  0.1670
   86SLPC  C212 8248   2.515   3.896   4.385  0.0948 -0.0884  0.2263
   86SLPC  H12R 8249   2.433   3.869   4.454 -2.6053  0.4831 -2.5610
   86SLPC  C213 8250   2.594   4.006   4.412  0.1037  0.2359 -0.0013
   86SLPC  H13R 8251   2.569   4.069   4.499  1.9563  0.5595  0.3453
   86SLPC  C214 8252   2.711   4.047   4.337  0.2320 -0.2490  1.1826
   86SLPC  H14R 8253   2.757   3.959   4.287  1.2319  1.9774 -2.1620
   86SLPC  H14S 8254   2.799   4.078   4.397  0.3685 -0.0168  0.8671
   86SLPC  C215 8255   2.697   4.161   4.227 -0.3516 -0.6092 -0.4640
   86SLPC  H15R 8256   2.662   4.255   4.275  2.9552  1.0687 -1.0391
   86SLPC  H15S 8257   2.623   4.123   4.153 -3.1382 -0.5746  2.1473
   86SLPC  C216 8258   2.831   4.180   4.149  0.5761 -0.8192  0.2260
   86SLPC  H16R 8259   2.906   4.200   4.229 -0.9731  0.2319  1.4918
   86SLPC  H16S 8260   2.824   4.279   4.098  2.2172  0.2019  1.8616
   86SLPC  C217 8261   2.883   4.063   4.064  0.2641 -0.6596 -0.7026
   86SLPC  H17R 8262   2.879   3.960   4.106  1.3433 -0.3865  0.1139
   86SLPC  H17S 8263   2.986   4.078   4.027  0.5460 -0.8665 -0.0233
   86SLPC  C218 8264   2.800   4.065   3.941  0.0718  0.0273  0.4008
   86SLPC  H18R 8265   2.813   4.153   3.874 -1.0910  0.0122  0.1368
   86SLPC  H18S 8266   2.691   4.054   3.961 -0.2993 -0.2122 -1.5422
   86SLPC  H18T 8267   2.821   3.971   3.886  3.4975  0.9484 -0.1145
   86SLPC   C33 8268   2.754   4.515   3.750  0.0702 -0.3388 -0.7422
   86SLPC   H3X 8269   2.789   4.606   3.696 -0.5177 -0.8851 -2.0929
   86SLPC   H3Y 8270   2.836   4.466   3.806  0.6810  1.6311  0.1733
   86SLPC   C34 8271   2.664   4.560   3.859 -0.5388 -0.4965 -0.6183
   86SLPC   H4X 8272   2.601   4.472   3.883 -3.0169  0.7830 -2.0667
   86SLPC   H4Y 8273   2.596   4.641   3.825  1.0235 -0.8168 -5.2667
   86SLPC   C35 8274   2.735   4.608   3.987  0.0491 -0.6711 -0.0245
   86SLPC   H5X 8275   2.808   4.691   3.979  0.4938 -0.7269  2.5495
   86SLPC   H5Y 8276   2.795   4.523   4.027  1.0599  0.2089  0.3815
   86SLPC   C36 8277   2.642   4.642   4.097  0.6131 -0.1126 -0.1910
   86SLPC   H6X 8278   2.570   4.558   4.105  0.5638 -0.2451 -1.7642
   86SLPC   H6Y 8279   2.584   4.733   4.069 -0.4305 -1.1833 -1.6572
   86SLPC   C37 8280   2.723   4.670   4.231 -0.0588  0.1541  1.0906
   86SLPC   H7X 8281   2.801   4.748   4.219  0.4440 -0.5847 -1.0274
   86SLPC   H7Y 8282   2.780   4.578   4.257 -1.1708 -0.4386  1.5121
   86SLPC   C38 8283   2.638   4.702   4.353 -0.1997  0.3689  0.0638
   86SLPC   H8X 8284   2.554   4.630   4.366 -1.0857  1.2471 -0.5713
   86SLPC   H8Y 8285   2.597   4.803   4.328 -0.1794  0.4687  0.4355
   86SLPC   C39 8286   2.726   4.722   4.473 -0.0376 -0.1748  0.1726
   86SLPC   H9X 8287   2.800   4.801   4.452  0.1594  0.0207  1.5056
   86SLPC   H9Y 8288   2.786   4.635   4.508 -1.0486  0.3680  3.6957
   86SLPC  C310 8289   2.637   4.767   4.582  0.3263 -0.1307  0.0740
   86SLPC  H10X 8290   2.537   4.719   4.577  0.8199 -1.6781  2.9059
   86SLPC  H10Y 8291   2.615   4.876   4.569 -0.4329 -0.5838 -3.5039
   86SLPC  C311 8292   2.704   4.742   4.717 -0.4112 -0.5483  0.1095
   86SLPC  H11X 8293   2.805   4.788   4.724 -0.0742 -1.3817  1.0189
   86SLPC  H11Y 8294   2.736   4.636   4.717  0.9588 -0.1767 -1.6325
   86SLPC  C312 8295   2.629   4.789   4.837 -0.2925 -0.1855  0.0161
   86SLPC  H12X 8296   2.522   4.759   4.846 -0.0580 -1.5193 -1.3595
   86SLPC  H12Y 8297   2.624   4.900   4.829 -0.4645 -0.2862 -1.5673
   86SLPC  C313 8298   2.704   4.755   4.967  0.5757  0.3129 -0.6920
   86SLPC  H13X 8299   2.799   4.811   4.956  0.3739  0.3526 -2.4592
   86SLPC  H13Y 8300   2.724   4.646   4.964 -0.6658 -0.2315  3.6127
   86SLPC  C314 8301   2.607   4.771   5.088 -0.2390  0.4656  0.1873
   86SLPC  H14X 8302   2.529   4.693   5.076 -0.7443  0.1048  4.2380
   86SLPC  H14Y 8303   2.563   4.873   5.086  1.0552  1.3786  4.7536
   86SLPC  C315 8304   2.694   4.754   5.216 -0.3759  0.1298  0.3204
   86SLPC  H15X 8305   2.759   4.844   5.216 -1.2239  0.7650 -0.6344
   86SLPC  H15Y 8306   2.757   4.664   5.199 -3.1476 -1.3835 -3.0068
   86SLPC  C316 8307   2.620   4.755   5.346  0.1226 -0.6063 -1.3421
   86SLPC  H16X 8308   2.568   4.658   5.359 -0.5114 -0.2334 -1.0345
   86SLPC  H16Y 8309   2.549   4.840   5.337 -0.0323 -0.5638  0.0383
   86SLPC  C317 8310   2.708   4.786   5.470 -0.2582  0.2381  0.1039
   86SLPC  H17X 8311   2.764   4.882   5.463 -1.6727  1.2605  1.8155
   86SLPC  H17Y 8312   2.778   4.701   5.481 -0.1991  0.2672 -0.0451
   86SLPC  C318 8313   2.627   4.807   5.598 -0.2905  0.1750  0.8086
   86SLPC  H18X 8314   2.558   4.720   5.611  0.8774 -0.6909  1.4354
   86SLPC  H18Y 8315   2.571   4.902   5.585 -0.5381 -0.0355  0.3200
   86SLPC  H18Z 8316   2.693   4.835   5.684  3.0760 -2.0834 -0.7938
   87SLPC     N 8317   0.365   1.958   2.595 -0.1136  0.9139  0.0337
   87SLPC   C13 8318   0.512   1.922   2.624  0.3338 -0.4358  0.2817
   87SLPC  H13A 8319   0.518   1.817   2.647  2.3850 -0.4105  0.0161
   87SLPC  H13B 8320   0.573   1.971   2.549 -0.7098 -1.6885 -1.4520
   87SLPC  H13C 8321   0.544   1.960   2.719  0.1096  2.1696 -0.5936
   87SLPC   C14 8322   0.297   1.921   2.716  0.7029  0.5858  0.4864
   87SLPC  H14A 8323   0.315   1.818   2.744 -0.9810  0.0442 -0.2700
   87SLPC  H14B 8324   0.342   1.975   2.798  1.8058 -1.1387  1.0780
   87SLPC  H14C 8325   0.191   1.941   2.721  0.2021 -1.5317 -0.4529
   87SLPC   C15 8326   0.329   1.867   2.484 -0.2311  0.4567  1.1367
   87SLPC  H15A 8327   0.224   1.879   2.460 -0.2431 -0.1977  0.8422
   87SLPC  H15B 8328   0.379   1.879   2.388 -0.6988 -1.9802  0.5160
   87SLPC  H15C 8329   0.351   1.764   2.503  1.5833  0.4838 -0.4487
   87SLPC   C12 8330   0.356   2.103   2.547 -0.1268 -0.4383 -0.2736
   87SLPC  H12A 8331   0.253   2.124   2.520 -0.4083  1.0385  1.7659
   87SLPC  H12B 8332   0.411   2.104   2.454 -0.2464 -2.2169 -0.3921
   87SLPC   C11 8333   0.400   2.212   2.642 -0.0506 -0.5666 -0.2029
   87SLPC  H11A 8334   0.505   2.197   2.675  0.9845  0.9032 -2.5918
   87SLPC  H11B 8335   0.341   2.196   2.735  0.5982  0.2909  0.3721
   87SLPC     P 8336   0.251   2.424   2.595 -0.1768  0.1257 -0.3113
   87SLPC   O13 8337   0.256   2.540   2.508  0.2164  0.6049  0.5653
   87SLPC   O14 8338   0.135   2.331   2.586  0.1568 -0.2976  0.0204
   87SLPC   O12 8339   0.390   2.348   2.585  0.2921  0.3669  0.0651
   87SLPC   O11 8340   0.251   2.476   2.745 -0.3631 -0.0199  0.0381
   87SLPC    C1 8341   0.330   2.587   2.784 -0.7366  0.0632 -0.1484
   87SLPC    HA 8342   0.437   2.575   2.757 -0.3079 -1.0987  1.8648
   87SLPC    HB 8343   0.284   2.677   2.738 -1.8342  0.0668  0.9020
   87SLPC    C2 8344   0.323   2.600   2.941  0.4375 -0.1290  0.6230
   87SLPC    HS 8345   0.379   2.694   2.961 -2.3138  2.0840 -1.3618
   87SLPC   O21 8346   0.375   2.481   3.008 -0.1878 -0.0125 -0.4246
   87SLPC   C21 8347   0.510   2.465   2.998  0.4246 -0.0395  0.1445
   87SLPC   O22 8348   0.588   2.551   2.950  0.3783  0.4797  0.3241
   87SLPC   C22 8349   0.547   2.332   3.052 -0.3414 -0.4307 -0.2546
   87SLPC   H2R 8350   0.502   2.258   2.983  0.0235 -0.5517 -0.3666
   87SLPC   H2S 8351   0.656   2.323   3.032 -0.4199  1.1427 -1.6594
   87SLPC    C3 8352   0.177   2.628   2.975  0.6877  0.3230 -0.1234
   87SLPC    HX 8353   0.105   2.547   2.954 -1.2875  2.2239 -1.0455
   87SLPC    HY 8354   0.133   2.710   2.914  1.0830  1.2399  0.7838
   87SLPC   O31 8355   0.177   2.677   3.112  0.9356 -0.3797  0.0428
   87SLPC   C31 8356   0.138   2.579   3.197 -0.0995 -0.4396 -0.2580
   87SLPC   O32 8357   0.101   2.468   3.167  0.0510  0.4159 -0.4095
   87SLPC   C32 8358   0.167   2.616   3.341 -0.5729 -0.1078 -0.7223
   87SLPC   H2X 8359   0.085   2.684   3.373 -0.7074 -0.3492 -0.5475
   87SLPC   H2Y 8360   0.261   2.675   3.345 -0.7028  0.0290  1.6280
   87SLPC   C23 8361   0.503   2.292   3.194  0.0216 -0.7398  0.0983
   87SLPC   H3R 8362   0.570   2.210   3.227 -0.5024 -1.0837  0.3117
   87SLPC   H3S 8363   0.398   2.255   3.198 -0.5056  0.6038 -0.5106
   87SLPC   C24 8364   0.524   2.411   3.296 -0.1372  0.2502 -0.3392
   87SLPC   H4R 8365   0.443   2.487   3.293 -1.8110 -1.4924 -1.6410
   87SLPC   H4S 8366   0.626   2.450   3.277  0.4148 -0.9792  0.0089
   87SLPC   C25 8367   0.539   2.363   3.445 -0.3251  0.3131 -0.1233
   87SLPC   H5R 8368   0.577   2.259   3.448 -1.7477 -0.2272  2.9030
   87SLPC   H5S 8369   0.435   2.343   3.477 -0.3072  1.4835  0.7554
   87SLPC   C26 8370   0.594   2.459   3.548 -0.7467 -0.2379 -0.1112
   87SLPC   H6R 8371   0.534   2.552   3.552 -1.5076 -0.6111 -1.9882
   87SLPC   H6S 8372   0.702   2.479   3.525 -0.6498  0.1954  0.6816
   87SLPC   C27 8373   0.580   2.383   3.685 -0.1058  0.4010  0.3150
   87SLPC   H7R 8374   0.619   2.279   3.685  0.7657  0.7115  1.3873
   87SLPC   H7S 8375   0.474   2.353   3.700 -0.0805 -1.2124 -2.0788
   87SLPC   C28 8376   0.633   2.453   3.816  0.0387  0.2669  0.4905
   87SLPC   H8R 8377   0.740   2.477   3.802 -0.0497  0.2087 -0.3267
   87SLPC   H8S 8378   0.628   2.372   3.892  0.1191 -1.1914 -0.9952
   87SLPC   C29 8379   0.554   2.572   3.852 -0.5072  0.0592  0.2323
   87SLPC   H9R 8380   0.522   2.642   3.773 -0.4528 -1.1109 -0.8548
   87SLPC  C210 8381   0.515   2.612   3.972  0.7792  0.1489  0.2957
   87SLPC  H10R 8382   0.457   2.705   3.971 -1.0167 -0.9175 -0.5928
   87SLPC  C211 8383   0.538   2.549   4.104 -0.2457  0.2450 -0.0148
   87SLPC  H11R 8384   0.607   2.614   4.163 -0.6292  0.0392  0.6764
   87SLPC  H11S 8385   0.597   2.455   4.096  0.9796  0.6553  2.8350
   87SLPC  C212 8386   0.414   2.528   4.186  0.0282  0.2192  0.6729
   87SLPC  H12R 8387   0.322   2.496   4.134 -0.6351  1.0219  1.3166
   87SLPC  C213 8388   0.413   2.520   4.321 -0.0723  0.1206  0.0155
   87SLPC  H13R 8389   0.325   2.492   4.380  0.1828 -0.0795  0.3020
   87SLPC  C214 8390   0.531   2.529   4.413 -0.4047 -0.7885 -1.0324
   87SLPC  H14R 8391   0.508   2.615   4.480 -0.9491 -1.4317 -0.3752
   87SLPC  H14S 8392   0.628   2.554   4.366  0.2636  2.7352  1.7393
   87SLPC  C215 8393   0.551   2.399   4.498  0.1357 -0.3436 -0.0908
   87SLPC  H15R 8394   0.649   2.400   4.550 -0.5252  1.1831  1.2495
   87SLPC  H15S 8395   0.555   2.317   4.424 -2.0426 -1.4812  0.9387
   87SLPC  C216 8396   0.445   2.373   4.610  0.2448 -0.5467 -0.4330
   87SLPC  H16R 8397   0.487   2.288   4.667 -0.5990  0.1887  1.3818
   87SLPC  H16S 8398   0.347   2.342   4.566 -0.5104 -0.6633  1.2675
   87SLPC  C217 8399   0.429   2.494   4.701 -0.1430 -0.8338  0.5047
   87SLPC  H17R 8400   0.359   2.565   4.653 -0.6537 -0.8027  1.2681
   87SLPC  H17S 8401   0.529   2.537   4.723  0.2411 -0.2550 -2.1388
   87SLPC  C218 8402   0.366   2.453   4.831 -0.1455 -0.1755  0.6462
   87SLPC  H18R 8403   0.392   2.353   4.872 -0.4834 -0.5307  0.0031
   87SLPC  H18S 8404   0.256   2.447   4.817 -0.2181  0.0155  1.1134
   87SLPC  H18T 8405   0.387   2.527   4.912  1.7072 -0.2711  0.2978
   87SLPC   C33 8406   0.168   2.502   3.442 -0.3247  0.4369  0.0528
   87SLPC   H3X 8407   0.242   2.433   3.397  0.4363  2.2411 -1.5664
   87SLPC   H3Y 8408   0.071   2.448   3.449 -0.0120 -0.1020  0.2889
   87SLPC   C34 8409   0.216   2.543   3.577 -0.0303  0.0957  0.1400
   87SLPC   H4X 8410   0.303   2.610   3.561  0.7897 -0.8968  0.3189
   87SLPC   H4Y 8411   0.251   2.451   3.629  0.5144  0.5192  0.5390
   87SLPC   C35 8412   0.111   2.615   3.668  0.0728  0.0525  0.2525
   87SLPC   H5X 8413   0.011   2.570   3.678 -1.0565  1.7385 -2.2920
   87SLPC   H5Y 8414   0.097   2.715   3.621 -1.0816  0.1568  0.7949
   87SLPC   C36 8415   0.174   2.624   3.805  0.2268 -0.1414 -0.1074
   87SLPC   H6X 8416   0.271   2.674   3.784  0.0218 -0.3581 -1.6831
   87SLPC   H6Y 8417   0.184   2.527   3.858 -0.4709  0.4269  1.1058
   87SLPC   C37 8418   0.103   2.731   3.887 -0.4100 -0.0417 -0.8656
   87SLPC   H7X 8419  -0.006   2.712   3.898 -0.8530  2.7894  0.3629
   87SLPC   H7Y 8420   0.122   2.831   3.844 -1.8378  0.6830  0.1027
   87SLPC   C38 8421   0.153   2.725   4.036  0.3305 -0.2407 -0.5864
   87SLPC   H8X 8422   0.263   2.737   4.032  0.4427 -0.6975  0.6383
   87SLPC   H8Y 8423   0.138   2.620   4.066 -1.7767 -0.7857 -3.1778
   87SLPC   C39 8424   0.079   2.809   4.136  0.0004 -0.4407  0.3763
   87SLPC   H9X 8425  -0.028   2.778   4.129 -0.4464  1.4602 -3.8646
   87SLPC   H9Y 8426   0.081   2.917   4.111  0.9166 -0.6901 -0.6705
   87SLPC  C310 8427   0.139   2.797   4.283 -0.1580  0.5597  0.4919
   87SLPC  H10X 8428   0.244   2.834   4.289 -0.4335  2.4109 -3.0193
   87SLPC  H10Y 8429   0.147   2.688   4.298 -0.0669  0.6239  0.9240
   87SLPC  C311 8430   0.041   2.839   4.392 -0.1855 -0.5890 -1.3862
   87SLPC  H11X 8431  -0.059   2.791   4.382 -0.2398 -0.4885 -1.3289
   87SLPC  H11Y 8432   0.025   2.949   4.388  2.3722 -0.1139 -0.3810
   87SLPC  C312 8433   0.105   2.815   4.530  0.0810  0.1204  0.0345
   87SLPC  H12X 8434   0.213   2.837   4.523  0.5226 -1.6562  0.8106
   87SLPC  H12Y 8435   0.102   2.705   4.544  2.7158 -0.4296 -2.8344
   87SLPC  C313 8436   0.038   2.894   4.648 -0.1326 -0.4243 -0.3092
   87SLPC  H13X 8437  -0.065   2.859   4.667 -0.5908  0.6039 -0.8062
   87SLPC  H13Y 8438   0.034   3.004   4.634  1.6569 -0.1316  1.0156
   87SLPC  C314 8439   0.111   2.866   4.785  0.5124  0.6310  0.1692
   87SLPC  H14X 8440   0.214   2.907   4.771  0.7882 -0.3616 -0.8650
   87SLPC  H14Y 8441   0.126   2.760   4.814  1.8661  0.9996  0.9040
   87SLPC  C315 8442   0.036   2.922   4.905 -0.4282 -0.0399  0.1618
   87SLPC  H15X 8443  -0.046   2.852   4.928  0.3162 -0.7244  0.7928
   87SLPC  H15Y 8444  -0.002   3.022   4.875 -0.1342  0.1078  0.2701
   87SLPC  C316 8445   0.127   2.927   5.025  0.0795 -0.8278 -0.0644
   87SLPC  H16X 8446   0.224   2.971   4.996  0.4764 -1.8302 -0.2712
   87SLPC  H16Y 8447   0.147   2.821   5.050 -0.7343 -1.1451 -0.7280
   87SLPC  C317 8448   0.072   3.006   5.142  0.2423  0.4009 -0.3424
   87SLPC  H17X 8449   0.067   3.113   5.112 -1.2510  0.7746  1.0903
   87SLPC  H17Y 8450   0.155   2.982   5.212 -0.0426 -2.3954 -0.8609
   87SLPC  C318 8451  -0.068   2.979   5.198  0.3270 -0.1788  0.3178
   87SLPC  H18X 8452  -0.089   3.037   5.290  0.6248  0.1669  0.1693
   87SLPC  H18Y 8453  -0.079   2.873   5.230  0.0596 -0.3231 -0.2313
   87SLPC  H18Z 8454  -0.156   3.018   5.142 -1.0165  2.0780  3.6765
   88SLPC     N 8455   0.856   3.710   2.788  0.2103  0.1837 -0.1711
   88SLPC   C13 8456   0.930   3.605   2.714  0.7240  0.5101  0.5010
   88SLPC  H13A 8457   0.934   3.628   2.608  0.0261  1.2924  0.6345
   88SLPC  H13B 8458   1.027   3.602   2.761 -0.3784  1.9135  3.0714
   88SLPC  H13C 8459   0.883   3.509   2.728  0.2226  0.4506 -1.2440
   88SLPC   C14 8460   0.822   3.657   2.925 -0.1102 -0.0538 -0.6911
   88SLPC  H14A 8461   0.913   3.656   2.984 -1.1141 -0.7152  0.9249
   88SLPC  H14B 8462   0.741   3.713   2.971  0.0158  0.1419 -0.7054
   88SLPC  H14C 8463   0.793   3.554   2.919  1.3642 -0.4008 -2.8382
   88SLPC   C15 8464   0.720   3.735   2.718 -0.0621 -0.7235  0.3649
   88SLPC  H15A 8465   0.680   3.830   2.748 -2.5190 -1.2955 -0.8887
   88SLPC  H15B 8466   0.734   3.742   2.612  2.7722 -2.6148  0.4824
   88SLPC  H15C 8467   0.648   3.656   2.735  0.4507 -1.3508 -0.3481
   88SLPC   C12 8468   0.919   3.850   2.787 -0.2655 -0.3932  0.7047
   88SLPC  H12A 8469   0.860   3.921   2.841 -0.3646  0.9480 -1.0703
   88SLPC  H12B 8470   0.919   3.884   2.684  1.8989 -1.2900  0.3470
   88SLPC   C11 8471   1.072   3.863   2.827 -0.5402 -0.4603 -0.0457
   88SLPC  H11A 8472   1.091   3.802   2.918  0.8287 -1.3746 -0.9066
   88SLPC  H11B 8473   1.084   3.970   2.854  0.7199 -0.0806 -1.9184
   88SLPC     P 8474   1.302   3.838   2.735 -0.6218  0.1592 -0.1958
   88SLPC   O13 8475   1.374   3.749   2.640 -0.4722 -0.0641 -0.1859
   88SLPC   O14 8476   1.341   3.980   2.717  0.2787  0.2728 -1.0892
   88SLPC   O12 8477   1.152   3.816   2.724  0.5291 -0.5067  0.0260
   88SLPC   O11 8478   1.333   3.787   2.883 -0.7647 -0.1129 -0.5000
   88SLPC    C1 8479   1.331   3.650   2.914 -0.2374  0.1165 -0.2891
   88SLPC    HA 8480   1.232   3.608   2.888  0.4891 -1.1259 -1.1935
   88SLPC    HB 8481   1.403   3.591   2.854 -1.2652 -0.1042 -1.3402
   88SLPC    C2 8482   1.358   3.629   3.067  0.1192 -0.1170  0.0316
   88SLPC    HS 8483   1.350   3.520   3.087 -0.6113 -0.3239 -1.2924
   88SLPC   O21 8484   1.275   3.706   3.155 -0.1818  0.1948  0.0055
   88SLPC   C21 8485   1.140   3.685   3.148 -0.5614  0.2564 -0.2254
   88SLPC   O22 8486   1.093   3.599   3.075  0.3069 -0.1744 -0.4567
   88SLPC   C22 8487   1.070   3.784   3.234  0.1965 -0.1065 -0.3291
   88SLPC   H2R 8488   1.127   3.817   3.324 -1.5520  1.0379  0.4082
   88SLPC   H2S 8489   1.030   3.872   3.180  0.3538  0.3473  0.2837
   88SLPC    C3 8490   1.509   3.652   3.110  0.0414  0.0905  1.0463
   88SLPC    HX 8491   1.516   3.761   3.135  1.7319 -0.3078  2.5814
   88SLPC    HY 8492   1.568   3.627   3.020 -0.2256 -0.8428  1.1250
   88SLPC   O31 8493   1.539   3.555   3.215  0.1307 -0.7547 -0.6075
   88SLPC   C31 8494   1.600   3.612   3.325 -0.4596  0.2299  0.4306
   88SLPC   O32 8495   1.668   3.715   3.319 -0.6998 -0.2863 -0.1648
   88SLPC   C32 8496   1.582   3.529   3.453 -0.3789 -0.0024  0.4261
   88SLPC   H2X 8497   1.679   3.474   3.454 -0.7678 -0.9302 -2.8185
   88SLPC   H2Y 8498   1.501   3.456   3.434 -1.9647  0.3280  4.7361
   88SLPC   C23 8499   0.948   3.715   3.296 -0.5954  0.4927 -0.1293
   88SLPC   H3R 8500   0.870   3.683   3.223 -1.2620 -0.7522  1.0757
   88SLPC   H3S 8501   0.894   3.794   3.353  0.3979  3.0774 -2.5874
   88SLPC   C24 8502   0.986   3.597   3.392  0.3012 -0.0574 -0.1259
   88SLPC   H4R 8503   1.010   3.514   3.322  0.5165 -0.3004  0.2332
   88SLPC   H4S 8504   0.902   3.554   3.450 -1.1042  0.1491 -1.9248
   88SLPC   C25 8505   1.093   3.624   3.495 -0.3647 -0.3316  0.2360
   88SLPC   H5R 8506   1.187   3.648   3.441 -0.7464  1.0452  0.1638
   88SLPC   H5S 8507   1.116   3.523   3.536 -1.1182 -1.2387 -1.4412
   88SLPC   C26 8508   1.061   3.728   3.599  0.4115  0.3600 -0.2158
   88SLPC   H6R 8509   0.953   3.732   3.626  0.5241  1.0216  0.1590
   88SLPC   H6S 8510   1.076   3.825   3.547  0.9542 -0.6255 -1.9454
   88SLPC   C27 8511   1.159   3.720   3.719  0.5515 -0.2709  0.4115
   88SLPC   H7R 8512   1.258   3.761   3.689  1.9585 -3.6342  0.0249
   88SLPC   H7S 8513   1.190   3.619   3.753  0.1088 -0.0389  1.5463
   88SLPC   C28 8514   1.104   3.791   3.840 -0.1887 -0.0842  0.2613
   88SLPC   H8R 8515   1.079   3.894   3.808  0.6201 -0.2935 -1.0824
   88SLPC   H8S 8516   1.193   3.788   3.906  0.6449 -1.9876 -0.8518
   88SLPC   C29 8517   0.976   3.739   3.913 -0.3893 -0.5296 -0.0552
   88SLPC   H9R 8518   0.900   3.703   3.842 -0.7426 -1.3072  0.7066
   88SLPC  C210 8519   0.955   3.743   4.050  0.3771  0.1370 -0.3427
   88SLPC  H10R 8520   0.861   3.705   4.094  0.7048  1.3019  1.4595
   88SLPC  C211 8521   1.057   3.789   4.150  0.4783  0.2168  0.2747
   88SLPC  H11R 8522   1.040   3.897   4.168 -0.7809  0.2145 -0.6904
   88SLPC  H11S 8523   1.161   3.774   4.114  0.0493 -1.2756 -0.4280
   88SLPC  C212 8524   1.046   3.712   4.280 -0.2090  0.2999 -0.7900
   88SLPC  H12R 8525   1.026   3.603   4.277 -0.5320  0.2793  1.0005
   88SLPC  C213 8526   1.060   3.765   4.402 -0.2015  0.0699  0.5231
   88SLPC  H13R 8527   1.058   3.701   4.491  1.7976 -1.6136 -0.5470
   88SLPC  C214 8528   1.086   3.916   4.433  0.6086  0.2045 -0.4317
   88SLPC  H14R 8529   0.991   3.970   4.415 -0.1585 -1.1635 -0.5683
   88SLPC  H14S 8530   1.166   3.952   4.365 -0.0507  2.7069 -0.0215
   88SLPC  C215 8531   1.125   3.945   4.584  0.3501 -0.0172 -0.1129
   88SLPC  H15R 8532   1.173   4.045   4.574 -3.4623  2.0600  0.5504
   88SLPC  H15S 8533   1.187   3.862   4.625 -0.3898 -1.2115 -1.3059
   88SLPC  C216 8534   1.006   3.973   4.673  0.2006 -0.1964  0.4055
   88SLPC  H16R 8535   0.932   3.889   4.667 -2.5567  2.0932  0.1517
   88SLPC  H16S 8536   0.944   4.062   4.649  1.4056  0.7777  0.8276
   88SLPC  C217 8537   1.046   4.007   4.819 -0.0629  0.2268  0.0902
   88SLPC  H17R 8538   1.087   4.110   4.809  2.6060 -0.7867 -0.1317
   88SLPC  H17S 8539   1.133   3.948   4.855  1.2793  2.4251  0.6424
   88SLPC  C218 8540   0.923   3.994   4.914  0.2738 -0.7346 -0.7836
   88SLPC  H18R 8541   0.847   4.067   4.879 -0.2028 -0.5907  0.4864
   88SLPC  H18S 8542   0.954   4.027   5.016  1.8905 -4.2041  0.0101
   88SLPC  H18T 8543   0.880   3.892   4.921  0.2375 -0.6403  0.7486
   88SLPC   C33 8544   1.568   3.625   3.572  0.2617  0.2707 -0.3182
   88SLPC   H3X 8545   1.480   3.693   3.564  1.6474  2.0089 -1.3696
   88SLPC   H3Y 8546   1.657   3.691   3.578  1.3663 -1.1303 -0.9540
   88SLPC   C34 8547   1.548   3.542   3.711 -0.1514  0.4683  0.3633
   88SLPC   H4X 8548   1.640   3.485   3.739  0.3645  1.7216  1.3151
   88SLPC   H4Y 8549   1.463   3.473   3.693  0.2196 -0.0174  0.4440
   88SLPC   C35 8550   1.512   3.642   3.823 -0.7166  0.0913 -0.1017
   88SLPC   H5X 8551   1.416   3.695   3.808 -1.6625 -1.5304 -0.0398
   88SLPC   H5Y 8552   1.596   3.714   3.822 -0.8077  0.2050  0.2931
   88SLPC   C36 8553   1.502   3.569   3.956  0.1024 -0.7748 -0.0636
   88SLPC   H6X 8554   1.593   3.507   3.966 -0.2098 -1.0134  1.6062
   88SLPC   H6Y 8555   1.417   3.500   3.939  0.6977 -1.4642 -0.2438
   88SLPC   C37 8556   1.489   3.653   4.083  0.2079 -0.6911 -0.4393
   88SLPC   H7X 8557   1.387   3.680   4.117  1.2576  0.9999  1.6836
   88SLPC   H7Y 8558   1.536   3.752   4.064 -0.9451 -0.5489 -2.8685
   88SLPC   C38 8559   1.550   3.593   4.205 -0.5049  0.4719  0.2756
   88SLPC   H8X 8560   1.652   3.563   4.174 -0.4179  2.0216 -1.0847
   88SLPC   H8Y 8561   1.486   3.506   4.231 -1.7910  1.3416  0.1098
   88SLPC   C39 8562   1.571   3.685   4.326 -0.5353  1.2869  0.3489
   88SLPC   H9X 8563   1.660   3.749   4.312  0.8346 -0.4050  0.9817
   88SLPC   H9Y 8564   1.593   3.616   4.410  1.9991  1.6689  0.0765
   88SLPC  C310 8565   1.445   3.760   4.358  0.2559 -0.8629 -0.5405
   88SLPC  H10X 8566   1.356   3.693   4.362 -0.5249  0.2101  0.8354
   88SLPC  H10Y 8567   1.423   3.840   4.284  0.4588 -1.0670 -0.8216
   88SLPC  C311 8568   1.466   3.830   4.496  0.4447  0.2286  0.0410
   88SLPC  H11X 8569   1.466   3.752   4.575 -0.4881  2.1836  2.1027
   88SLPC  H11Y 8570   1.372   3.888   4.511 -1.5672 -2.7634  0.0349
   88SLPC  C312 8571   1.594   3.916   4.508  1.1491 -0.1862  0.5948
   88SLPC  H12X 8572   1.597   3.974   4.413 -1.7244 -0.5712  0.1618
   88SLPC  H12Y 8573   1.687   3.856   4.503  1.7610  0.7829 -3.4064
   88SLPC  C313 8574   1.595   4.004   4.637  0.7989  0.4001 -0.5608
   88SLPC  H13X 8575   1.496   4.055   4.641 -0.6596 -2.3608  1.4313
   88SLPC  H13Y 8576   1.672   4.081   4.616 -0.8276  2.2994  0.1208
   88SLPC  C314 8577   1.619   3.937   4.774  0.0092 -0.5629  0.6125
   88SLPC  H14X 8578   1.723   3.897   4.775  0.3832  0.1529 -1.7751
   88SLPC  H14Y 8579   1.547   3.855   4.794 -0.3311  0.2096  2.8905
   88SLPC  C315 8580   1.598   4.049   4.883  0.4899 -0.3526 -0.4403
   88SLPC  H15X 8581   1.493   4.084   4.882  0.7072  0.3538  0.3048
   88SLPC  H15Y 8582   1.681   4.124   4.887  2.1113 -2.1339  1.5626
   88SLPC  C316 8583   1.612   3.978   5.021 -0.1455  0.2670 -0.3070
   88SLPC  H16X 8584   1.711   3.927   5.030 -0.5439 -0.5420 -0.4098
   88SLPC  H16Y 8585   1.539   3.899   5.048  1.8048 -0.9419  1.8493
   88SLPC  C317 8586   1.589   4.088   5.120 -0.4062 -0.0153  0.0517
   88SLPC  H17X 8587   1.487   4.128   5.106 -0.4958  0.0231  0.7737
   88SLPC  H17Y 8588   1.658   4.175   5.111  0.0358  0.2726  4.2834
   88SLPC  C318 8589   1.593   4.044   5.271  0.5879 -0.2861  0.2798
   88SLPC  H18X 8590   1.516   3.970   5.302 -1.2470  1.1325 -0.6797
   88SLPC  H18Y 8591   1.575   4.131   5.337 -0.0653  0.6901 -1.1208
   88SLPC  H18Z 8592   1.694   4.001   5.288  1.5365  0.8877 -1.9203
   89SAPE     N 8593   5.884   4.691   7.366  0.0060  0.2407 -0.6917
   89SAPE   HN1 8594   5.909   4.735   7.457  0.3325 -0.2412 -0.5455
   89SAPE   HN2 8595   5.959   4.714   7.297  0.4300  0.3466 -0.2073
   89SAPE   HN3 8596   5.802   4.748   7.339  1.1153  1.1421 -2.3372
   89SAPE   C12 8597   5.864   4.538   7.364  0.1591 -0.6772 -0.4158
   89SAPE  H12A 8598   5.951   4.484   7.407  0.5790  0.6831  0.4847
   89SAPE  H12B 8599   5.841   4.510   7.259  0.8129 -0.9986 -0.4800
   89SAPE   C11 8600   5.735   4.512   7.448  0.2187  0.3943 -0.1169
   89SAPE  H11A 8601   5.743   4.560   7.548 -0.3615  0.9198 -0.3182
   89SAPE  H11B 8602   5.744   4.402   7.464 -1.2137  0.2794 -0.0065
   89SAPE     P 8603   5.528   4.663   7.417 -0.0533 -0.0862  0.3417
   89SAPE   O13 8604   5.475   4.625   7.550  0.1859  0.5362  0.0843
   89SAPE   O14 8605   5.617   4.786   7.402 -0.4408 -0.7311  0.4414
   89SAPE   O12 8606   5.616   4.537   7.370 -0.3974 -0.7927 -0.5573
   89SAPE   O11 8607   5.404   4.663   7.325 -0.0351  0.3681  0.1234
   89SAPE    C1 8608   5.424   4.654   7.180 -0.1273  0.5923  0.7202
   89SAPE    HA 8609   5.528   4.649   7.143  0.6608 -0.1152  2.8978
   89SAPE    HB 8610   5.363   4.574   7.134  1.7166 -0.0509 -0.7173
   89SAPE    C2 8611   5.365   4.786   7.116 -0.1794 -0.3467  0.1956
   89SAPE    HS 8612   5.254   4.780   7.116 -0.1516 -1.8100  2.0163
   89SAPE   O21 8613   5.420   4.798   6.983  0.2033  0.3114  0.3268
   89SAPE   C21 8614   5.358   4.718   6.894 -0.3729 -0.6496  0.6369
   89SAPE   O22 8615   5.250   4.667   6.906 -0.5478 -0.8422 -0.4384
   89SAPE   C22 8616   5.436   4.699   6.755 -0.0822 -0.4182 -0.2096
   89SAPE   H2R 8617   5.379   4.749   6.673 -1.1545 -0.3689  0.5412
   89SAPE   H2S 8618   5.533   4.752   6.761 -0.5104  0.3358  0.2936
   89SAPE    C3 8619   5.404   4.915   7.197 -0.0862  0.5472  0.7875
   89SAPE    HX 8620   5.515   4.924   7.193  0.0632 -1.3537 -0.9899
   89SAPE    HY 8621   5.361   4.901   7.298 -0.6318  2.6372  0.8826
   89SAPE   O31 8622   5.344   5.037   7.138  0.1535 -0.2430 -0.0939
   89SAPE   C31 8623   5.403   5.089   7.031  0.2086 -0.0568  0.3721
   89SAPE   O32 8624   5.516   5.075   6.996 -0.2400  0.6927 -0.3352
   89SAPE   C32 8625   5.286   5.152   6.961 -0.8287 -0.1721  0.2944
   89SAPE   H2X 8626   5.251   5.227   7.035  1.6425 -0.6185  2.0228
   89SAPE   H2Y 8627   5.202   5.080   6.946 -0.6783 -0.4420  0.7306
   89SAPE   C23 8628   5.475   4.547   6.719 -0.1628 -0.1512  0.3806
   89SAPE   H3R 8629   5.402   4.478   6.767 -0.1628 -0.2216  0.2796
   89SAPE   H3S 8630   5.570   4.520   6.769 -1.0633 -1.4956  1.4498
   89SAPE   C24 8631   5.477   4.509   6.572 -0.7403 -0.1699 -0.2433
   89SAPE   H4R 8632   5.514   4.405   6.574  0.5431  0.2551  2.2231
   89SAPE   H4S 8633   5.560   4.559   6.518  0.6039  0.0657  1.9374
   89SAPE   C25 8634   5.339   4.521   6.518 -0.5859 -0.8678 -0.0129
   89SAPE   H5R 8635   5.268   4.452   6.567  1.7582 -0.8293  3.8036
   89SAPE   C26 8636   5.309   4.611   6.416  0.2188  0.3007 -0.4525
   89SAPE   H6R 8637   5.204   4.618   6.385 -0.3170  1.0412  1.3515
   89SAPE   C27 8638   5.411   4.696   6.341  0.0015  0.2126  0.4761
   89SAPE   H7R 8639   5.472   4.760   6.408  0.2391 -1.3005  1.7874
   89SAPE   H7S 8640   5.345   4.773   6.296 -0.6233 -0.1606  0.7354
   89SAPE   C28 8641   5.496   4.620   6.241 -0.3062  0.7092  0.4810
   89SAPE   H8R 8642   5.603   4.604   6.265  0.5246 -0.2157 -3.2308
   89SAPE   C29 8643   5.476   4.618   6.110 -0.1474 -0.3745 -0.3354
   89SAPE   H9R 8644   5.551   4.571   6.045  1.9498  0.0211  1.6556
   89SAPE  C210 8645   5.349   4.679   6.050 -0.2578 -0.0391  0.2011
   89SAPE  H10R 8646   5.366   4.786   6.024 -2.5294  0.7667  1.7607
   89SAPE  H10S 8647   5.270   4.683   6.128  1.7466  0.1679  2.3367
   89SAPE  C211 8648   5.326   4.603   5.924 -0.4768  0.3591 -0.0896
   89SAPE  H11R 8649   5.345   4.495   5.920  2.2813  0.7628 -0.2149
   89SAPE  C212 8650   5.278   4.644   5.807  0.2480 -0.6107  0.0156
   89SAPE  H12R 8651   5.261   4.577   5.722 -0.2469  2.1618 -2.2019
   89SAPE  C213 8652   5.238   4.788   5.790  0.1916  0.3210  0.4868
   89SAPE  H13R 8653   5.308   4.863   5.832  0.6399 -0.2795  0.8333
   89SAPE  H13S 8654   5.141   4.805   5.842  0.3267 -0.0908  0.8815
   89SAPE  C214 8655   5.225   4.821   5.642 -0.5883  0.6660 -0.4642
   89SAPE  H14R 8656   5.129   4.856   5.603 -0.3999  0.4883 -1.0873
   89SAPE  C215 8657   5.326   4.832   5.557 -0.1526  1.0044  0.6396
   89SAPE  H15R 8658   5.297   4.840   5.451 -0.7279 -0.6658  0.6390
   89SAPE  C216 8659   5.469   4.799   5.577  0.9399  0.4002 -0.3553
   89SAPE  H16R 8660   5.494   4.741   5.669 -0.2105  0.7022  0.1649
   89SAPE  H16S 8661   5.514   4.900   5.587  1.1144  0.3265 -0.3965
   89SAPE  C217 8662   5.524   4.712   5.455 -0.3252 -0.4088 -0.2392
   89SAPE  H17R 8663   5.634   4.713   5.438  0.0563 -0.6320  1.9147
   89SAPE  H17S 8664   5.477   4.737   5.358  1.7683 -1.5147 -1.6090
   89SAPE  C218 8665   5.497   4.566   5.481  0.2543  0.2499  0.3844
   89SAPE  H18R 8666   5.389   4.545   5.466  0.2787 -0.5229  1.2049
   89SAPE  H18S 8667   5.543   4.537   5.578 -1.3543 -0.0942  1.0605
   89SAPE  C219 8668   5.570   4.474   5.378  0.3169 -0.0386 -0.3101
   89SAPE  H19R 8669   5.579   4.369   5.414 -0.4800  0.6815  2.1989
   89SAPE  H19S 8670   5.674   4.515   5.387  0.4089 -0.6908  2.6551
   89SAPE  C220 8671   5.533   4.485   5.231  0.6012  0.2733  1.0760
   89SAPE  H20R 8672   5.609   4.430   5.173 -1.7235  0.0531 -2.0097
   89SAPE  H20S 8673   5.529   4.593   5.206  1.8389  0.0876  0.0015
   89SAPE  H20T 8674   5.430   4.445   5.214  0.6134 -0.6949  2.9296
   89SAPE   C33 8675   5.327   5.220   6.824 -0.1647  1.1020 -0.8107
   89SAPE   H3X 8676   5.400   5.302   6.840 -0.0322  0.9233 -0.4825
   89SAPE   H3Y 8677   5.235   5.260   6.777 -0.1080  0.0818 -1.8326
   89SAPE   C34 8678   5.369   5.115   6.719  0.1411  0.2002  0.3913
   89SAPE   H4X 8679   5.291   5.037   6.712 -0.6467  0.7730  2.2557
   89SAPE   H4Y 8680   5.466   5.070   6.748  0.7588  0.7787 -0.7124
   89SAPE   C35 8681   5.406   5.181   6.586  0.0847 -0.5177 -0.2673
   89SAPE   H5X 8682   5.484   5.254   6.615  1.6458 -1.8184 -0.9820
   89SAPE   H5Y 8683   5.311   5.226   6.549  0.0947 -0.7637 -0.6006
   89SAPE   C36 8684   5.475   5.090   6.479 -0.4713  0.6708 -0.3438
   89SAPE   H6X 8685   5.414   4.998   6.472 -0.2635  0.3190  1.6966
   89SAPE   H6Y 8686   5.579   5.066   6.509 -0.2608  0.5257 -1.1779
   89SAPE   C37 8687   5.481   5.148   6.335  1.4307 -0.3834 -0.1381
   89SAPE   H7X 8688   5.526   5.250   6.330  2.6785 -0.7488  1.9411
   89SAPE   H7Y 8689   5.376   5.142   6.301  1.4064  0.9516 -0.3742
   89SAPE   C38 8690   5.562   5.066   6.237 -0.3908  0.2681  0.3125
   89SAPE   H8X 8691   5.547   4.958   6.258 -1.0190  0.3067  0.0801
   89SAPE   H8Y 8692   5.670   5.086   6.253 -0.3062  0.9412 -0.9380
   89SAPE   C39 8693   5.532   5.074   6.091 -0.2667  0.3158  0.3063
   89SAPE   H9X 8694   5.423   5.052   6.079 -0.7459  0.0306  4.0433
   89SAPE   H9Y 8695   5.595   4.996   6.042 -0.1048 -0.6666  1.9998
   89SAPE  C310 8696   5.562   5.210   6.024  0.1400 -0.4795 -0.2862
   89SAPE  H10X 8697   5.668   5.236   6.042  0.5493 -0.9514 -1.8092
   89SAPE  H10Y 8698   5.499   5.291   6.065  2.8843  1.3272  0.6603
   89SAPE  C311 8699   5.536   5.207   5.871  0.4525 -0.0142 -0.9805
   89SAPE  H11X 8700   5.430   5.175   5.863  0.0007  1.3961 -0.8462
   89SAPE  H11Y 8701   5.603   5.129   5.829 -2.5979 -2.5785 -1.4777
   89SAPE  C312 8702   5.555   5.346   5.809  0.3010 -0.0947  0.6314
   89SAPE  H12X 8703   5.662   5.366   5.834  0.4445 -1.9950  1.7496
   89SAPE  H12Y 8704   5.491   5.419   5.862 -2.4088 -0.9471 -1.2519
   89SAPE  C313 8705   5.539   5.356   5.658  0.0039  0.1418 -0.1467
   89SAPE  H13X 8706   5.542   5.463   5.629  0.4851  0.5977  1.4597
   89SAPE  H13Y 8707   5.442   5.309   5.632  0.2884  0.5912 -2.1799
   89SAPE  C314 8708   5.657   5.286   5.596 -0.2744 -0.3228 -0.4580
   89SAPE  H14X 8709   5.679   5.188   5.643  0.0884  0.3766  0.8981
   89SAPE  H14Y 8710   5.748   5.350   5.604 -0.0043 -0.7716  0.1096
   89SAPE  C315 8711   5.637   5.257   5.440 -0.0473  0.1960  0.3063
   89SAPE  H15X 8712   5.647   5.351   5.383  0.9074 -0.2403 -0.2826
   89SAPE  H15Y 8713   5.533   5.220   5.432  0.3403 -1.1853  1.1659
   89SAPE  C316 8714   5.727   5.157   5.372  0.8278 -0.0793  0.4304
   89SAPE  H16X 8715   5.694   5.054   5.398  0.3016 -0.5296 -1.8219
   89SAPE  H16Y 8716   5.832   5.168   5.409  0.9331 -0.6466  0.3047
   89SAPE  C317 8717   5.735   5.165   5.222  0.5917 -0.4345  0.0732
   89SAPE  H17X 8718   5.814   5.094   5.190  2.2212  0.8161  1.1753
   89SAPE  H17Y 8719   5.781   5.263   5.200  0.9029 -0.3154  1.2045
   89SAPE  C318 8720   5.608   5.146   5.138  0.5167  0.2708  0.2569
   89SAPE  H18X 8721   5.545   5.231   5.171 -0.4019 -0.6101  0.8367
   89SAPE  H18Y 8722   5.569   5.042   5.140 -2.1511  0.9933 -3.5857
   89SAPE  H18Z 8723   5.624   5.154   5.028 -0.9117 -0.9534 -0.0794
   90SAPE     N 8724   0.616   3.242   8.070  0.0825  0.1550  0.8399
   90SAPE   HN1 8725   0.610   3.174   8.148 -2.4362  0.8284  1.3563
   90SAPE   HN2 8726   0.709   3.286   8.058 -1.2192  2.6727 -1.2182
   90SAPE   HN3 8727   0.561   3.325   8.102  0.4634  0.3151  1.0787
   90SAPE   C12 8728   0.579   3.181   7.935 -0.1594  0.5290 -0.6409
   90SAPE  H12A 8729   0.483   3.127   7.946  1.2672 -2.3208 -1.3625
   90SAPE  H12B 8730   0.659   3.108   7.912 -1.3604 -0.9650 -0.2014
   90SAPE   C11 8731   0.575   3.295   7.831  0.2266  0.2477  0.1605
   90SAPE  H11A 8732   0.640   3.379   7.867  0.6506  0.2870 -0.6724
   90SAPE  H11B 8733   0.476   3.345   7.831 -0.8145 -1.7263 -0.6121
   90SAPE     P 8734   0.515   3.188   7.608 -0.0180 -0.4705  0.1316
   90SAPE   O13 8735   0.567   3.054   7.591 -0.1808 -0.8400  0.0031
   90SAPE   O14 8736   0.377   3.204   7.658  0.5002  0.1574 -0.6253
   90SAPE   O12 8737   0.617   3.259   7.698  0.1224  0.1656  0.0287
   90SAPE   O11 8738   0.530   3.266   7.472 -0.1624 -0.0624 -0.1417
   90SAPE    C1 8739   0.486   3.408   7.468 -0.2697  0.7123 -0.5165
   90SAPE    HA 8740   0.410   3.434   7.545 -0.6777  2.3426 -1.4081
   90SAPE    HB 8741   0.566   3.471   7.514  0.6765 -2.1104  1.9737
   90SAPE    C2 8742   0.435   3.450   7.324  0.2123  0.3048  0.1459
   90SAPE    HS 8743   0.325   3.466   7.317  0.0200 -1.3680 -2.3457
   90SAPE   O21 8744   0.467   3.351   7.220  0.2033  0.8109 -0.0056
   90SAPE   C21 8745   0.396   3.240   7.217 -0.0763 -0.3553  0.1162
   90SAPE   O22 8746   0.300   3.218   7.292 -0.3570 -0.1995 -0.0966
   90SAPE   C22 8747   0.447   3.153   7.101  0.6103 -0.3548 -0.0321
   90SAPE   H2R 8748   0.465   3.228   7.021  1.2433  0.4393  0.8342
   90SAPE   H2S 8749   0.543   3.104   7.129  1.6142 -0.6229 -3.4153
   90SAPE    C3 8750   0.505   3.582   7.276  0.5694  0.1924 -0.0314
   90SAPE    HX 8751   0.611   3.551   7.288  1.0913  0.5043 -3.0391
   90SAPE    HY 8752   0.484   3.668   7.344  0.8799  1.5121 -1.5404
   90SAPE   O31 8753   0.483   3.608   7.139 -0.2125 -0.3648 -0.1566
   90SAPE   C31 8754   0.355   3.648   7.109 -0.2312 -0.8691 -0.1527
   90SAPE   O32 8755   0.267   3.667   7.191 -0.4569  0.1724 -0.2829
   90SAPE   C32 8756   0.334   3.659   6.958  0.8332  0.1636  0.3432
   90SAPE   H2X 8757   0.295   3.559   6.928 -0.7468  0.5084  1.1529
   90SAPE   H2Y 8758   0.428   3.682   6.904  2.4605  0.6226  3.1876
   90SAPE   C23 8759   0.346   3.045   7.054  0.8403 -0.2242  0.3180
   90SAPE   H3R 8760   0.252   3.094   7.021  1.7934  0.7950 -1.0256
   90SAPE   H3S 8761   0.322   2.975   7.137 -1.3781  1.1450  0.9283
   90SAPE   C24 8762   0.403   2.966   6.927 -0.2145  0.3469 -0.3595
   90SAPE   H4R 8763   0.430   3.031   6.841  0.9332  0.2351 -0.0954
   90SAPE   H4S 8764   0.324   2.896   6.892  0.6933 -0.9128  0.0633
   90SAPE   C25 8765   0.516   2.865   6.960  0.6065  0.4756 -0.4156
   90SAPE   H5R 8766   0.494   2.790   7.036 -0.3366  0.5776 -0.5779
   90SAPE   C26 8767   0.638   2.870   6.913 -0.4393  0.1814  0.1535
   90SAPE   H6R 8768   0.716   2.801   6.947  0.3241  0.2983 -1.2895
   90SAPE   C27 8769   0.698   2.960   6.802  0.5812  0.4280  0.6971
   90SAPE   H7R 8770   0.800   2.977   6.843  1.8248 -1.8544 -1.2169
   90SAPE   H7S 8771   0.650   3.060   6.792  2.5784  1.3717 -0.1029
   90SAPE   C28 8772   0.698   2.888   6.668  0.2320  0.8741 -0.3678
   90SAPE   H8R 8773   0.766   2.803   6.664  0.7640  1.2729  0.0450
   90SAPE   C29 8774   0.639   2.919   6.545  0.9048 -0.1367 -0.0790
   90SAPE   H9R 8775   0.670   2.859   6.457  0.0925  0.5835 -0.8750
   90SAPE  C210 8776   0.547   3.038   6.509 -0.9635 -0.5171 -0.7068
   90SAPE  H10R 8777   0.600   3.091   6.427 -0.8520 -0.0959 -0.3708
   90SAPE  H10S 8778   0.541   3.117   6.587 -0.6230 -0.0911 -1.1072
   90SAPE  C211 8779   0.405   2.997   6.481  0.3168 -0.3213  0.2353
   90SAPE  H11R 8780   0.343   2.979   6.570 -1.5892  0.9207 -0.7765
   90SAPE  C212 8781   0.352   3.004   6.356 -0.3293 -0.3080  0.6908
   90SAPE  H12R 8782   0.244   2.993   6.337 -0.0684  1.8886 -3.1157
   90SAPE  C213 8783   0.420   3.048   6.232 -0.2228  0.5808  0.4561
   90SAPE  H13R 8784   0.498   3.119   6.267  1.3543 -0.9677  0.2328
   90SAPE  H13S 8785   0.351   3.091   6.157  2.1628 -0.4331 -2.5439
   90SAPE  C214 8786   0.501   2.937   6.169  0.3743 -0.9694  0.4084
   90SAPE  H14R 8787   0.562   2.872   6.234  0.1054 -1.8328 -0.1859
   90SAPE  C215 8788   0.504   2.908   6.039  0.0935 -0.3151  0.3883
   90SAPE  H15R 8789   0.554   2.827   5.985 -1.4401 -0.2113 -1.2688
   90SAPE  C216 8790   0.427   2.992   5.933  0.0519  0.4345  0.4623
   90SAPE  H16R 8791   0.452   3.100   5.947  1.0121  0.2009  0.6376
   90SAPE  H16S 8792   0.320   2.964   5.945  0.4952 -0.1322  4.4691
   90SAPE  C217 8793   0.460   2.967   5.783  0.1105  0.9684  0.1365
   90SAPE  H17R 8794   0.414   2.868   5.762 -0.2970  1.4886 -1.5989
   90SAPE  H17S 8795   0.570   2.960   5.773  0.1520  1.0734  0.5271
   90SAPE  C218 8796   0.402   3.080   5.688  0.1351  0.2672 -0.4981
   90SAPE  H18R 8797   0.451   3.172   5.725  0.9262 -1.2582  2.5403
   90SAPE  H18S 8798   0.291   3.080   5.699  0.1393  2.0157 -0.2539
   90SAPE  C219 8799   0.442   3.067   5.543  0.5252  1.0961 -0.2420
   90SAPE  H19R 8800   0.394   2.975   5.503 -0.1799  1.7442 -0.9363
   90SAPE  H19S 8801   0.552   3.059   5.529  0.3259 -1.8710 -0.6691
   90SAPE  C220 8802   0.385   3.182   5.460 -0.5746  0.3137 -0.8264
   90SAPE  H20R 8803   0.408   3.279   5.510 -2.4315 -0.0197  0.7976
   90SAPE  H20S 8804   0.275   3.165   5.466 -0.8923  2.0732 -1.0213
   90SAPE  H20T 8805   0.424   3.188   5.356 -1.2165 -0.3144 -1.1084
   90SAPE   C33 8806   0.221   3.762   6.920  0.4141 -0.1731 -0.1815
   90SAPE   H3X 8807   0.243   3.860   6.967  1.7614  0.0465 -1.2270
   90SAPE   H3Y 8808   0.128   3.732   6.973  0.2959 -0.9125 -0.7914
   90SAPE   C34 8809   0.217   3.784   6.773 -0.5948 -0.4297 -0.1516
   90SAPE   H4X 8810   0.218   3.682   6.728  1.8273 -0.3165 -0.4691
   90SAPE   H4Y 8811   0.300   3.849   6.738 -0.8069 -0.3183 -0.4557
   90SAPE   C35 8812   0.081   3.855   6.735 -0.5722  0.3882 -0.7714
   90SAPE   H5X 8813   0.084   3.943   6.802 -1.7960  1.2600 -1.8126
   90SAPE   H5Y 8814   0.003   3.781   6.764  1.1113 -0.8153  0.9267
   90SAPE   C36 8815   0.094   3.905   6.595  0.3040 -0.1247  0.4043
   90SAPE   H6X 8816   0.109   3.811   6.537 -1.0082 -0.7038  0.9664
   90SAPE   H6Y 8817   0.187   3.965   6.588  0.5188  0.0487  3.3878
   90SAPE   C37 8818  -0.025   3.979   6.540  0.1777 -0.4512  0.7378
   90SAPE   H7X 8819  -0.020   4.078   6.590 -1.6539 -0.6456  1.3868
   90SAPE   H7Y 8820  -0.123   3.937   6.571 -0.3302  1.0691  1.3176
   90SAPE   C38 8821  -0.014   3.976   6.383  0.3109  0.1524 -0.1080
   90SAPE   H8X 8822  -0.102   4.027   6.338 -0.7366 -0.8456  0.7358
   90SAPE   H8Y 8823  -0.025   3.870   6.351 -1.1743  0.0123  0.7664
   90SAPE   C39 8824   0.106   4.048   6.327  0.2187  0.1374  0.3370
   90SAPE   H9X 8825   0.204   3.997   6.340  1.5838  3.1713  3.5333
   90SAPE   H9Y 8826   0.109   4.146   6.379  0.9123  0.2783  0.0335
   90SAPE  C310 8827   0.086   4.080   6.179  0.3175 -0.1527  0.3323
   90SAPE  H10X 8828   0.187   4.105   6.139 -0.8405  2.3427 -1.2508
   90SAPE  H10Y 8829   0.031   4.176   6.167  0.9383  0.4929  2.1617
   90SAPE  C311 8830   0.033   3.965   6.100  0.0100 -0.4373 -0.3849
   90SAPE  H11X 8831  -0.077   3.975   6.111  0.0675  0.8044 -0.7264
   90SAPE  H11Y 8832   0.067   3.869   6.144 -1.8208  0.3165  2.9734
   90SAPE  C312 8833   0.063   3.970   5.954 -0.1037  0.2607 -0.4060
   90SAPE  H12X 8834   0.029   3.877   5.905  1.1561 -0.8892  0.8201
   90SAPE  H12Y 8835   0.171   3.969   5.929 -0.1295 -1.5020 -0.5806
   90SAPE  C313 8836  -0.000   4.095   5.890 -0.4772  0.6306 -0.0640
   90SAPE  H13X 8837  -0.031   4.181   5.952  1.0159 -0.2505  2.0319
   90SAPE  H13Y 8838  -0.092   4.069   5.833 -1.1318  0.5695  0.9760
   90SAPE  C314 8839   0.101   4.145   5.785 -0.2944 -0.4122 -0.0912
   90SAPE  H14X 8840   0.140   4.049   5.745 -1.1039 -1.2456  1.0513
   90SAPE  H14Y 8841   0.185   4.205   5.824 -0.0546 -0.9283  0.1890
   90SAPE  C315 8842   0.037   4.219   5.668 -0.5702  0.4913 -0.6283
   90SAPE  H15X 8843  -0.043   4.286   5.705 -0.7069 -0.4883  0.9509
   90SAPE  H15Y 8844  -0.013   4.135   5.615  0.2764  0.5242 -1.4986
   90SAPE  C316 8845   0.133   4.284   5.568 -0.3057  0.3745  0.3700
   90SAPE  H16X 8846   0.202   4.203   5.538 -0.8678  0.5596 -1.5677
   90SAPE  H16Y 8847   0.191   4.362   5.621 -0.3074  1.5573 -1.2596
   90SAPE  C317 8848   0.071   4.343   5.448 -0.1530  0.3609  0.1752
   90SAPE  H17X 8849   0.148   4.391   5.383  0.8450 -0.0000  1.0584
   90SAPE  H17Y 8850  -0.002   4.424   5.470  0.1589  0.4377  0.9372
   90SAPE  C318 8851  -0.001   4.230   5.365  0.2927  0.3558  0.1803
   90SAPE  H18X 8852  -0.076   4.177   5.427  0.8857  0.3465  0.9038
   90SAPE  H18Y 8853   0.070   4.150   5.335 -1.3975 -0.5243 -1.7139
   90SAPE  H18Z 8854  -0.041   4.274   5.271  1.7905  0.5694 -0.3769
   91SAPE     N 8855   4.408   4.510   7.380 -0.4058  0.1562 -0.4028
   91SAPE   HN1 8856   4.497   4.544   7.423  0.8842 -2.8504 -0.4101
   91SAPE   HN2 8857   4.344   4.510   7.462 -0.3524 -0.0978 -0.3614
   91SAPE   HN3 8858   4.422   4.411   7.352 -2.2236 -0.7311  1.5464
   91SAPE   C12 8859   4.374   4.602   7.274  0.0906 -0.1216 -0.4059
   91SAPE  H12A 8860   4.342   4.699   7.319  1.1704 -0.5635  1.4340
   91SAPE  H12B 8861   4.285   4.565   7.218 -0.5929  1.5795 -0.5186
   91SAPE   C11 8862   4.489   4.617   7.181  0.6176 -0.2223 -0.2868
   91SAPE  H11A 8863   4.521   4.526   7.125  0.5670  0.1990 -1.0033
   91SAPE  H11B 8864   4.578   4.642   7.243  0.5648 -1.2735  0.2374
   91SAPE     P 8865   4.332   4.714   6.983  0.1690  0.1764  0.4179
   91SAPE   O13 8866   4.273   4.579   6.987  0.5233 -0.4272  0.2593
   91SAPE   O14 8867   4.246   4.830   7.010  0.0186  0.2827 -0.4863
   91SAPE   O12 8868   4.453   4.719   7.092  0.3167 -0.5199 -0.1454
   91SAPE   O11 8869   4.401   4.738   6.844  0.1931 -0.1755 -0.3999
   91SAPE    C1 8870   4.537   4.755   6.827  0.3108  0.8138 -0.9023
   91SAPE    HA 8871   4.600   4.699   6.900 -0.4215 -3.0644 -2.9426
   91SAPE    HB 8872   4.566   4.705   6.732  0.9042  0.4662 -0.5470
   91SAPE    C2 8873   4.589   4.897   6.831 -0.2027 -0.5564 -0.4523
   91SAPE    HS 8874   4.534   4.938   6.918 -0.1008  0.6975 -0.9663
   91SAPE   O21 8875   4.566   4.966   6.708 -0.0462 -1.1573  0.1229
   91SAPE   C21 8876   4.532   5.092   6.714  0.3200 -0.4669 -0.2912
   91SAPE   O22 8877   4.539   5.156   6.820 -0.3828 -0.2190  0.2511
   91SAPE   C22 8878   4.465   5.148   6.587 -0.6704  0.6884  0.4865
   91SAPE   H2R 8879   4.391   5.228   6.608 -0.7834  0.4081  1.1539
   91SAPE   H2S 8880   4.540   5.191   6.516  0.5958 -0.3595  1.1524
   91SAPE    C3 8881   4.741   4.912   6.865  0.2702 -0.2112 -0.2381
   91SAPE    HX 8882   4.752   4.871   6.967  1.2181  3.4829  1.3116
   91SAPE    HY 8883   4.766   5.020   6.865  0.6856 -0.3061 -0.3300
   91SAPE   O31 8884   4.814   4.813   6.786 -0.5004 -0.4563 -0.5301
   91SAPE   C31 8885   4.937   4.848   6.759 -0.0023  0.3185 -0.3998
   91SAPE   O32 8886   4.996   4.939   6.808 -0.5573  0.1096 -0.1565
   91SAPE   C32 8887   4.999   4.748   6.664 -0.2912  0.3361  0.0110
   91SAPE   H2X 8888   4.983   4.648   6.709 -0.1897  0.9128  1.3709
   91SAPE   H2Y 8889   5.106   4.777   6.663 -0.3505  1.1184 -4.5429
   91SAPE   C23 8890   4.402   5.031   6.496 -0.0223 -0.1341  0.3260
   91SAPE   H3R 8891   4.337   4.960   6.550 -0.3922  0.6325  0.9085
   91SAPE   H3S 8892   4.481   4.970   6.447  0.3569 -0.9737  1.9247
   91SAPE   C24 8893   4.300   5.074   6.399 -0.9632 -0.3548 -0.0149
   91SAPE   H4R 8894   4.212   5.117   6.452 -2.6783 -2.7092 -0.7773
   91SAPE   H4S 8895   4.253   4.989   6.347 -0.7295  0.0626 -0.9305
   91SAPE   C25 8896   4.357   5.168   6.300 -0.3028 -0.8631  0.2916
   91SAPE   H5R 8897   4.342   5.267   6.344 -1.6001 -0.8751 -0.1061
   91SAPE   C26 8898   4.420   5.145   6.183  0.2636 -0.0069 -0.4071
   91SAPE   H6R 8899   4.473   5.228   6.133  0.6754  1.3469  2.0816
   91SAPE   C27 8900   4.425   5.013   6.116 -0.3995  0.2013  0.7379
   91SAPE   H7R 8901   4.379   4.938   6.183  0.5597  0.8317  2.1399
   91SAPE   H7S 8902   4.528   4.978   6.094 -0.2135  2.3181 -2.4431
   91SAPE   C28 8903   4.344   5.004   5.991 -0.2159 -0.7251  0.3166
   91SAPE   H8R 8904   4.249   4.952   6.009 -0.4630 -0.0395  1.0654
   91SAPE   C29 8905   4.382   5.025   5.861  0.0608  0.2067  0.3344
   91SAPE   H9R 8906   4.312   5.006   5.779 -0.2899 -0.2894  0.7405
   91SAPE  C210 8907   4.514   5.093   5.827 -0.1547 -0.0168 -0.0593
   91SAPE  H10R 8908   4.552   5.069   5.725  0.0595  1.8803 -0.4512
   91SAPE  H10S 8909   4.590   5.039   5.888 -0.2515 -0.7433 -0.5623
   91SAPE  C211 8910   4.520   5.245   5.859 -0.8117 -0.1420 -0.2895
   91SAPE  H11R 8911   4.468   5.271   5.952  0.0979 -0.9209  0.4622
   91SAPE  C212 8912   4.582   5.341   5.787  0.0341  0.5071 -0.2087
   91SAPE  H12R 8913   4.580   5.444   5.826  0.1856  0.6550 -0.5862
   91SAPE  C213 8914   4.669   5.331   5.662 -0.7117 -0.1016 -0.6485
   91SAPE  H13R 8915   4.750   5.256   5.676 -1.0604 -0.5412 -0.9595
   91SAPE  H13S 8916   4.722   5.427   5.649 -0.1139 -0.4477 -0.8100
   91SAPE  C214 8917   4.589   5.296   5.537 -0.1485 -0.4968 -0.7043
   91SAPE  H14R 8918   4.501   5.235   5.562 -2.1815  1.1673 -3.2045
   91SAPE  C215 8919   4.621   5.305   5.411 -0.7158 -0.2043 -0.1046
   91SAPE  H15R 8920   4.547   5.293   5.330 -1.3818 -1.1451  0.6080
   91SAPE  C216 8921   4.739   5.374   5.360 -0.0716 -0.2376 -0.0580
   91SAPE  H16R 8922   4.818   5.302   5.330 -0.8566 -1.2308  0.1983
   91SAPE  H16S 8923   4.793   5.426   5.443  0.4186  0.2455 -0.6710
   91SAPE  C217 8924   4.710   5.479   5.247  0.3713 -0.2082  0.5111
   91SAPE  H17R 8925   4.641   5.553   5.292  0.1751  0.6329 -1.0980
   91SAPE  H17S 8926   4.664   5.422   5.163  0.7978  0.1964 -0.0065
   91SAPE  C218 8927   4.838   5.545   5.195  0.0233 -0.0827  0.0922
   91SAPE  H18R 8928   4.876   5.472   5.121 -2.3373 -1.1394 -0.1602
   91SAPE  H18S 8929   4.915   5.555   5.275  0.2965 -1.3834  0.0027
   91SAPE  C219 8930   4.816   5.683   5.139 -0.3281 -0.2454 -0.1347
   91SAPE  H19R 8931   4.731   5.675   5.067 -0.4053  0.6862 -0.1689
   91SAPE  H19S 8932   4.903   5.721   5.082 -0.5767 -1.6546 -1.4897
   91SAPE  C220 8933   4.777   5.788   5.239 -0.2358 -0.7940  0.3919
   91SAPE  H20R 8934   4.861   5.795   5.312  0.1352 -2.3774  0.1670
   91SAPE  H20S 8935   4.681   5.757   5.286 -0.3803  1.3942  1.6860
   91SAPE  H20T 8936   4.764   5.886   5.190  0.2726 -1.2428 -0.6764
   91SAPE   C33 8937   4.936   4.747   6.522 -0.1010  0.4484  0.4773
   91SAPE   H3X 8938   4.826   4.761   6.534 -0.2894 -0.3709 -0.1935
   91SAPE   H3Y 8939   4.961   4.649   6.476 -1.1371  0.0245  0.7834
   91SAPE   C34 8940   4.984   4.858   6.438  0.3573 -0.2730  0.0321
   91SAPE   H4X 8941   5.095   4.864   6.444  0.3655  1.0712 -0.9298
   91SAPE   H4Y 8942   4.935   4.948   6.480 -2.5409 -1.5997 -0.2977
   91SAPE   C35 8943   4.970   4.829   6.287 -0.4458 -0.1205  0.1432
   91SAPE   H5X 8944   5.004   4.726   6.265  0.0581  0.0922 -0.0916
   91SAPE   H5Y 8945   5.031   4.899   6.226  2.5661 -1.9809  0.8374
   91SAPE   C36 8946   4.831   4.849   6.236  0.0053  0.3549 -0.2341
   91SAPE   H6X 8947   4.788   4.949   6.259 -1.1360 -0.1360 -0.1366
   91SAPE   H6Y 8948   4.757   4.776   6.278  0.3714 -0.2580 -0.6373
   91SAPE   C37 8949   4.825   4.826   6.079 -0.0489  0.5981  0.0899
   91SAPE   H7X 8950   4.724   4.791   6.049 -0.2583  0.3664  1.0579
   91SAPE   H7Y 8951   4.908   4.753   6.067 -0.9676 -0.7295  1.5074
   91SAPE   C38 8952   4.850   4.954   6.000 -0.5440 -0.0462  0.0372
   91SAPE   H8X 8953   4.940   5.008   6.036 -0.7205  0.8213 -0.7914
   91SAPE   H8Y 8954   4.767   5.027   6.012 -1.1409 -0.1854 -2.6765
   91SAPE   C39 8955   4.861   4.906   5.854  0.0270  0.8191 -0.6656
   91SAPE   H9X 8956   4.764   4.859   5.828  0.7165 -0.3699 -1.1770
   91SAPE   H9Y 8957   4.945   4.833   5.855  1.0321  1.7668  3.5091
   91SAPE  C310 8958   4.881   5.008   5.746  0.4546  0.9294  0.1617
   91SAPE  H10X 8959   4.983   5.054   5.745  0.3097  1.2656 -1.5445
   91SAPE  H10Y 8960   4.795   5.077   5.757  0.4727  0.7321  1.7577
   91SAPE  C311 8961   4.846   4.936   5.612  0.6524 -0.1686  0.2409
   91SAPE  H11X 8962   4.735   4.922   5.612  0.5001  0.9256  0.0071
   91SAPE  H11Y 8963   4.892   4.835   5.609 -0.8788 -0.9325  1.2219
   91SAPE  C312 8964   4.886   5.013   5.486  0.0536 -0.1968 -0.6758
   91SAPE  H12X 8965   4.994   5.034   5.500 -0.0273 -0.3970  0.3271
   91SAPE  H12Y 8966   4.830   5.109   5.484 -4.1265 -2.3711  0.2547
   91SAPE  C313 8967   4.866   4.927   5.368  0.0258 -0.1701 -0.1064
   91SAPE  H13X 8968   4.792   4.846   5.383 -1.0971  0.3888 -2.2115
   91SAPE  H13Y 8969   4.961   4.882   5.333 -0.6940 -1.3626 -0.5896
   91SAPE  C314 8970   4.817   5.016   5.258  0.0126 -0.3034  0.7130
   91SAPE  H14X 8971   4.901   5.085   5.232 -1.8065  1.3179 -1.2965
   91SAPE  H14Y 8972   4.731   5.082   5.282  0.5967  0.4247  0.8722
   91SAPE  C315 8973   4.772   4.936   5.132  0.2124  0.3967 -0.4894
   91SAPE  H15X 8974   4.680   4.878   5.153  0.4070 -0.2059 -1.2365
   91SAPE  H15Y 8975   4.854   4.865   5.106 -0.5407 -0.7232  0.1067
   91SAPE  C316 8976   4.740   5.030   5.010 -0.2292 -0.5693 -0.0877
   91SAPE  H16X 8977   4.815   5.109   4.988 -1.2635  0.4603 -0.0316
   91SAPE  H16Y 8978   4.648   5.088   5.031  0.6095  1.3682 -1.4791
   91SAPE  C317 8979   4.719   4.963   4.875 -0.5673  0.3501 -0.9811
   91SAPE  H17X 8980   4.637   4.892   4.898 -0.0505  0.2388  0.6555
   91SAPE  H17Y 8981   4.811   4.906   4.847  0.7368  1.7482  0.2625
   91SAPE  C318 8982   4.691   5.066   4.764 -0.3589  0.5518 -0.4534
   91SAPE  H18X 8983   4.777   5.134   4.752  1.5446 -1.1471  2.4843
   91SAPE  H18Y 8984   4.606   5.126   4.802 -0.5686 -0.3226  0.4985
   91SAPE  H18Z 8985   4.670   5.023   4.663  0.0621  1.6016 -1.0030
   92SAPE     N 8986   4.755   6.431   7.544  0.1243 -0.0432  0.7956
   92SAPE   HN1 8987   4.678   6.362   7.533 -0.0830  0.0143  1.7903
   92SAPE   HN2 8988   4.783   6.420   7.643 -1.5868  1.1883  1.4640
   92SAPE   HN3 8989   4.723   6.529   7.529 -2.4531 -0.8698  0.3525
   92SAPE   C12 8990   4.877   6.406   7.455  0.9926 -0.0740 -0.0380
   92SAPE  H12A 8991   4.964   6.437   7.518  1.1615 -1.1147  0.2522
   92SAPE  H12B 8992   4.868   6.468   7.363 -1.0719  1.2392  0.9857
   92SAPE   C11 8993   4.887   6.262   7.423 -0.6206 -0.0704  0.7660
   92SAPE  H11A 8994   4.955   6.256   7.336 -1.6674  1.4511 -0.2168
   92SAPE  H11B 8995   4.796   6.226   7.371  0.5497 -1.4495 -0.3993
   92SAPE     P 8996   4.856   6.088   7.613 -0.0026 -0.0234 -0.1969
   92SAPE   O13 8997   4.945   6.023   7.706 -0.1317  0.1710 -0.1491
   92SAPE   O14 8998   4.739   6.156   7.662 -0.4056 -0.1048  0.4093
   92SAPE   O12 8999   4.939   6.185   7.530 -0.0592 -0.0809  0.1499
   92SAPE   O11 9000   4.812   5.980   7.505  0.1128 -0.6905  0.9717
   92SAPE    C1 9001   4.891   5.942   7.396 -1.0570  0.6918  0.4288
   92SAPE    HA 9002   4.969   6.013   7.361  0.3198 -1.6414 -1.5700
   92SAPE    HB 9003   4.948   5.850   7.419  0.7238  2.0930  1.9542
   92SAPE    C2 9004   4.813   5.921   7.261 -0.0650 -0.1587 -0.0088
   92SAPE    HS 9005   4.773   6.021   7.233 -0.0266 -0.1617 -0.0753
   92SAPE   O21 9006   4.712   5.820   7.290 -0.4167 -0.1919  0.3355
   92SAPE   C21 9007   4.606   5.832   7.219 -0.1779 -0.3191  0.3577
   92SAPE   O22 9008   4.587   5.918   7.131  0.4848  0.1802  0.0306
   92SAPE   C22 9009   4.519   5.720   7.257  0.5710  0.2588 -0.0322
   92SAPE   H2R 9010   4.561   5.622   7.227 -0.4798  0.0136 -0.7972
   92SAPE   H2S 9011   4.503   5.713   7.367 -0.5739  2.0870 -0.0502
   92SAPE    C3 9012   4.919   5.879   7.149  0.2136 -0.1472 -0.1469
   92SAPE    HX 9013   4.952   5.775   7.172 -2.1087 -0.8423  0.3430
   92SAPE    HY 9014   5.000   5.953   7.137 -0.9609  1.1114 -0.5067
   92SAPE   O31 9015   4.864   5.879   7.011 -0.0852 -0.1541  0.3599
   92SAPE   C31 9016   4.809   5.764   6.974 -0.2672  0.0394 -0.4252
   92SAPE   O32 9017   4.790   5.672   7.050 -0.1157  0.0941 -0.1757
   92SAPE   C32 9018   4.769   5.764   6.829  0.0502  0.2401  0.0244
   92SAPE   H2X 9019   4.673   5.711   6.819  0.6783 -0.5780 -2.3536
   92SAPE   H2Y 9020   4.839   5.692   6.782  0.2162 -0.2008  0.9297
   92SAPE   C23 9021   4.374   5.722   7.180  0.8803 -0.8785 -0.1112
   92SAPE   H3R 9022   4.347   5.829   7.168 -0.7313 -1.1519  0.7180
   92SAPE   H3S 9023   4.290   5.689   7.246 -1.3614  1.9773 -1.3509
   92SAPE   C24 9024   4.386   5.670   7.045 -0.0952 -0.6243  0.1830
   92SAPE   H4R 9025   4.481   5.615   7.029 -0.0751 -0.4603 -0.2872
   92SAPE   H4S 9026   4.399   5.755   6.974 -1.2337 -0.9695 -0.4596
   92SAPE   C25 9027   4.281   5.576   6.991 -0.6622 -0.5846 -0.2724
   92SAPE   H5R 9028   4.196   5.564   7.059  1.8081 -0.1290  3.1631
   92SAPE   C26 9029   4.286   5.510   6.875 -0.0445 -0.2891  0.5498
   92SAPE   H6R 9030   4.214   5.435   6.841  0.2915 -0.1529 -0.5174
   92SAPE   C27 9031   4.411   5.519   6.785  0.3678 -1.1437 -0.2697
   92SAPE   H7R 9032   4.475   5.435   6.820  2.4476 -0.0373 -1.2977
   92SAPE   H7S 9033   4.473   5.610   6.797 -0.2213 -0.7059 -0.4786
   92SAPE   C28 9034   4.378   5.507   6.638  0.0182  0.2329 -0.5214
   92SAPE   H8R 9035   4.279   5.462   6.624 -0.5028  1.7190 -1.9264
   92SAPE   C29 9036   4.462   5.538   6.538  1.0460 -0.5501 -0.0339
   92SAPE   H9R 9037   4.419   5.531   6.437  1.3957 -2.5170 -0.0921
   92SAPE  C210 9038   4.598   5.592   6.553 -0.6372 -0.8533  0.4821
   92SAPE  H10R 9039   4.626   5.594   6.660 -0.9863  1.2078  0.5680
   92SAPE  H10S 9040   4.597   5.699   6.521 -0.8127 -1.1433 -0.5150
   92SAPE  C211 9041   4.697   5.510   6.470  0.6901 -0.5047 -0.2931
   92SAPE  H11R 9042   4.739   5.421   6.519  0.8998  0.2204  0.8736
   92SAPE  C212 9043   4.746   5.543   6.348  0.3047  0.4877  0.1605
   92SAPE  H12R 9044   4.835   5.489   6.312  1.5266  0.6847  2.6959
   92SAPE  C213 9045   4.707   5.673   6.276  0.9786 -0.2004 -0.0077
   92SAPE  H13R 9046   4.800   5.720   6.239  0.6186 -0.0281 -0.7112
   92SAPE  H13S 9047   4.648   5.744   6.336  0.3922 -0.7992  0.1415
   92SAPE  C214 9048   4.623   5.624   6.161 -0.3033 -0.0777 -0.7096
   92SAPE  H14R 9049   4.522   5.594   6.193  0.0669 -0.4170  0.1761
   92SAPE  C215 9050   4.656   5.631   6.032  1.0625  0.4836  1.1109
   92SAPE  H15R 9051   4.588   5.592   5.955  1.9550 -0.9387  1.0089
   92SAPE  C216 9052   4.787   5.676   5.977 -0.2370  0.2600  0.6311
   92SAPE  H16R 9053   4.865   5.600   6.000 -1.6376 -1.2551  0.5205
   92SAPE  H16S 9054   4.817   5.769   6.029  2.5519 -1.2286  1.9176
   92SAPE  C217 9055   4.777   5.700   5.819 -0.1067 -0.0394 -0.1178
   92SAPE  H17R 9056   4.745   5.604   5.774 -1.5939  0.6291 -0.5594
   92SAPE  H17S 9057   4.878   5.723   5.779  0.2952  1.7700  1.7662
   92SAPE  C218 9058   4.670   5.793   5.766 -0.2384  0.4695 -0.3291
   92SAPE  H18R 9059   4.671   5.896   5.807  0.5567 -0.2160  1.4565
   92SAPE  H18S 9060   4.569   5.750   5.783  0.1593 -0.8495 -1.1131
   92SAPE  C219 9061   4.674   5.817   5.614 -0.1959  0.1557 -0.2059
   92SAPE  H19R 9062   4.679   5.717   5.565 -1.9957  0.5450 -1.2652
   92SAPE  H19S 9063   4.775   5.861   5.599  0.1824 -0.5558  0.2096
   92SAPE  C220 9064   4.547   5.896   5.564 -0.1972 -0.3892 -0.4108
   92SAPE  H20R 9065   4.548   6.001   5.602  2.3147  0.1329 -1.6910
   92SAPE  H20S 9066   4.459   5.838   5.598  0.6799 -2.2847 -1.1987
   92SAPE  H20T 9067   4.541   5.905   5.454 -1.9899  0.8185 -0.2565
   92SAPE   C33 9068   4.791   5.897   6.757 -0.3489  0.2318 -0.0033
   92SAPE   H3X 9069   4.771   5.874   6.650  1.0251 -0.0914 -0.2042
   92SAPE   H3Y 9070   4.899   5.923   6.763  0.2562 -0.9957 -3.3154
   92SAPE   C34 9071   4.699   6.014   6.794 -0.1742  0.5390 -0.4800
   92SAPE   H4X 9072   4.734   6.038   6.896  1.3312 -2.3145 -0.2171
   92SAPE   H4Y 9073   4.589   5.995   6.791 -0.3150  1.4311 -2.5424
   92SAPE   C35 9074   4.725   6.132   6.703  0.2648  0.1175 -0.1912
   92SAPE   H5X 9075   4.828   6.110   6.668  0.2026  1.3084 -1.2204
   92SAPE   H5Y 9076   4.724   6.229   6.758 -1.4916  0.2459 -0.3853
   92SAPE   C36 9077   4.616   6.120   6.587 -0.0546  0.5384 -0.1600
   92SAPE   H6X 9078   4.537   6.195   6.607  0.2567  1.0944 -0.9684
   92SAPE   H6Y 9079   4.568   6.019   6.579 -0.4526  0.6804  0.3446
   92SAPE   C37 9080   4.674   6.158   6.446  0.3752  0.5343 -0.4098
   92SAPE   H7X 9081   4.716   6.260   6.452 -0.4424  0.9052 -0.8187
   92SAPE   H7Y 9082   4.596   6.163   6.367 -1.5017  2.4040  1.4452
   92SAPE   C38 9083   4.785   6.062   6.394  0.5359  0.0579  0.3463
   92SAPE   H8X 9084   4.755   5.955   6.394  0.9949 -0.0727  0.6983
   92SAPE   H8Y 9085   4.871   6.070   6.463 -0.7633 -1.8143  2.2995
   92SAPE   C39 9086   4.824   6.093   6.243  0.5915  0.1376  0.1716
   92SAPE   H9X 9087   4.742   6.060   6.176 -0.4190 -0.5629  1.6938
   92SAPE   H9Y 9088   4.915   6.031   6.229 -0.4308 -1.0272 -1.7594
   92SAPE  C310 9089   4.866   6.241   6.206  0.5873 -0.2914  0.9986
   92SAPE  H10X 9090   4.910   6.299   6.290  0.3704  1.9330 -0.3438
   92SAPE  H10Y 9091   4.770   6.288   6.178  0.6546 -0.4919  0.4041
   92SAPE  C311 9092   4.973   6.261   6.093  0.0440 -0.3950 -0.2924
   92SAPE  H11X 9093   5.071   6.225   6.130 -0.7982 -1.2719  1.1774
   92SAPE  H11Y 9094   4.997   6.368   6.072 -0.0451 -0.4834 -0.8661
   92SAPE  C312 9095   4.935   6.181   5.961 -0.0018  0.5004 -0.3175
   92SAPE  H12X 9096   4.829   6.213   5.953  0.1928  0.8478 -1.7535
   92SAPE  H12Y 9097   4.935   6.070   5.966 -0.2309  0.5483  1.6993
   92SAPE  C313 9098   5.016   6.222   5.844 -0.2915 -0.3479  0.8980
   92SAPE  H13X 9099   5.074   6.313   5.871 -1.5269  1.6005 -2.3657
   92SAPE  H13Y 9100   4.940   6.255   5.770 -1.7350  0.7170  2.7800
   92SAPE  C314 9101   5.112   6.113   5.779  0.4059  0.6591  0.7468
   92SAPE  H14X 9102   5.129   6.032   5.852 -0.5689  0.0167  0.2759
   92SAPE  H14Y 9103   5.209   6.157   5.747 -0.2326  1.4756 -0.1589
   92SAPE  C315 9104   5.061   6.058   5.644  0.0269 -0.4335 -0.0704
   92SAPE  H15X 9105   4.957   6.021   5.652 -0.4871  0.9268 -0.1645
   92SAPE  H15Y 9106   5.118   5.967   5.616 -0.9900 -0.8238 -0.9397
   92SAPE  C316 9107   5.063   6.165   5.532  0.0584 -0.1011 -0.5031
   92SAPE  H16X 9108   5.166   6.205   5.540  0.1028  0.0270 -1.5814
   92SAPE  H16Y 9109   5.004   6.253   5.566  0.6183  0.6157 -1.3603
   92SAPE  C317 9110   5.036   6.128   5.394 -0.3043 -0.5720  0.1037
   92SAPE  H17X 9111   4.932   6.090   5.384 -0.1154 -1.0523 -0.0138
   92SAPE  H17Y 9112   5.102   6.043   5.370  1.2906  0.3034  1.1896
   92SAPE  C318 9113   5.068   6.245   5.299 -0.0176  0.4492 -0.2662
   92SAPE  H18X 9114   5.015   6.338   5.329 -1.3968 -0.1280 -0.8362
   92SAPE  H18Y 9115   5.070   6.215   5.192  1.5707  0.5062 -0.2725
   92SAPE  H18Z 9116   5.174   6.263   5.327  0.3644  0.5167 -1.6856
   93SAPE     N 9117   0.749   3.952   7.629 -0.4584  0.5845  0.0677
   93SAPE   HN1 9118   0.806   3.867   7.608 -1.0805  0.0257  0.5911
   93SAPE   HN2 9119   0.804   4.016   7.689 -1.2462  0.3171  1.1141
   93SAPE   HN3 9120   0.673   3.924   7.694  0.3786 -0.1630  0.7426
   93SAPE   C12 9121   0.703   4.033   7.511  0.0109 -0.0697  0.6129
   93SAPE  H12A 9122   0.639   4.118   7.543 -0.4426  0.5458 -1.7905
   93SAPE  H12B 9123   0.647   3.956   7.455 -1.2958 -1.1863  3.2798
   93SAPE   C11 9124   0.818   4.086   7.429  0.1455  0.0176 -0.3749
   93SAPE  H11A 9125   0.784   4.137   7.337  1.0359  0.7943 -0.2954
   93SAPE  H11B 9126   0.871   3.998   7.385  0.4797  0.8750 -1.7598
   93SAPE     P 9127   0.889   4.325   7.525 -0.2638 -0.0699  0.1484
   93SAPE   O13 9128   0.754   4.360   7.577  0.1058 -0.4944  0.1292
   93SAPE   O14 9129   1.002   4.388   7.602  0.2162 -0.0780  0.0136
   93SAPE   O12 9130   0.908   4.170   7.505 -0.6267  0.2881 -0.5842
   93SAPE   O11 9131   0.897   4.387   7.378  0.2496 -0.5833 -0.3395
   93SAPE    C1 9132   1.037   4.384   7.320  0.4025 -0.6500  0.1856
   93SAPE    HA 9133   1.111   4.438   7.384 -0.1125  0.5416 -0.1980
   93SAPE    HB 9134   1.078   4.282   7.306 -3.0315 -2.6333  2.6731
   93SAPE    C2 9135   1.031   4.466   7.188  0.3344 -1.0094  0.2273
   93SAPE    HS 9136   0.961   4.552   7.200  0.1587 -0.7620 -2.1643
   93SAPE   O21 9137   0.983   4.375   7.091 -0.1034 -0.2594 -0.2074
   93SAPE   C21 9138   0.901   4.408   7.000  0.3410  0.1401  0.1894
   93SAPE   O22 9139   0.843   4.514   6.989 -0.0493 -0.4832  0.3003
   93SAPE   C22 9140   0.880   4.287   6.913 -0.0621  0.8294  0.7122
   93SAPE   H2R 9141   0.864   4.199   6.979  2.1084 -1.3701 -1.4763
   93SAPE   H2S 9142   0.787   4.296   6.853  0.6075 -1.3459 -0.7905
   93SAPE    C3 9143   1.171   4.516   7.143 -0.0184  0.8404 -0.6379
   93SAPE    HX 9144   1.242   4.430   7.139  0.0872  0.9529 -1.3007
   93SAPE    HY 9145   1.211   4.583   7.223 -1.8838  0.6352  0.5195
   93SAPE   O31 9146   1.169   4.569   7.013  0.3356 -0.5665  0.0565
   93SAPE   C31 9147   1.184   4.701   7.006  0.2966 -1.1121  0.2416
   93SAPE   O32 9148   1.210   4.774   7.100 -0.0665 -0.3031 -0.1226
   93SAPE   C32 9149   1.162   4.750   6.864 -0.6219  0.2450 -0.2113
   93SAPE   H2X 9150   1.262   4.768   6.821 -0.3342 -2.2385 -0.7070
   93SAPE   H2Y 9151   1.108   4.848   6.864 -0.9353  0.2632 -4.4437
   93SAPE   C23 9152   0.998   4.268   6.820 -0.6002 -0.3362 -0.4652
   93SAPE   H3R 9153   1.097   4.262   6.868 -0.5458 -0.1244 -0.5472
   93SAPE   H3S 9154   1.006   4.361   6.760  0.8028 -0.4066 -0.4142
   93SAPE   C24 9155   0.979   4.158   6.712  0.2905 -0.1469 -0.2782
   93SAPE   H4R 9156   1.072   4.160   6.652  0.8148  2.9844  0.4661
   93SAPE   H4S 9157   0.892   4.192   6.651 -0.0493 -3.6305 -2.0134
   93SAPE   C25 9158   0.951   4.019   6.760 -0.2966 -0.9297  0.1742
   93SAPE   H5R 9159   0.877   4.016   6.842 -0.7052  1.3895 -0.0329
   93SAPE   C26 9160   0.998   3.906   6.710  0.2147  0.3305  0.0157
   93SAPE   H6R 9161   0.984   3.815   6.771  0.3320 -0.9367 -1.7761
   93SAPE   C27 9162   1.088   3.876   6.595  0.0787 -0.7914  0.1931
   93SAPE   H7R 9163   1.164   3.817   6.650 -1.8101  0.8470  5.1405
   93SAPE   H7S 9164   1.123   3.973   6.552 -2.1733  0.2317  0.5343
   93SAPE   C28 9165   1.010   3.779   6.503 -0.3829  0.1456  0.0637
   93SAPE   H8R 9166   0.955   3.705   6.563 -0.6632 -0.5271 -0.9958
   93SAPE   C29 9167   0.979   3.785   6.372 -0.3111 -0.0298  0.6706
   93SAPE   H9R 9168   0.901   3.716   6.336 -0.5073 -0.0842  1.1953
   93SAPE  C210 9169   1.028   3.889   6.271  0.6361  0.3846  0.2754
   93SAPE  H10R 9170   1.078   3.830   6.191  0.7754 -0.3639  0.8933
   93SAPE  H10S 9171   1.101   3.963   6.310  1.2613 -0.5109  0.8676
   93SAPE  C211 9172   0.907   3.966   6.222  0.3040 -0.1775  0.3294
   93SAPE  H11R 9173   0.860   4.030   6.298 -0.5402 -1.1151  0.6031
   93SAPE  C212 9174   0.852   3.958   6.100 -0.4474  0.2254  0.2762
   93SAPE  H12R 9175   0.766   4.020   6.070  0.5462  1.8690  0.6554
   93SAPE  C213 9176   0.893   3.875   5.981 -0.3148 -0.9816  0.2722
   93SAPE  H13R 9177   0.841   3.777   5.993 -2.7355  0.1997 -0.0380
   93SAPE  H13S 9178   1.000   3.846   5.992  0.5844  1.0057 -2.2443
   93SAPE  C214 9179   0.862   3.931   5.845 -0.0234  0.5561  0.1413
   93SAPE  H14R 9180   0.866   4.040   5.831  0.2608  0.2789 -2.6636
   93SAPE  C215 9181   0.850   3.861   5.724  0.6048  0.3741  0.0607
   93SAPE  H15R 9182   0.831   3.924   5.636 -2.6364  2.2930  1.9429
   93SAPE  C216 9183   0.872   3.714   5.709  0.4811 -0.3130  0.3231
   93SAPE  H16R 9184   0.792   3.646   5.746  0.9415  0.4471  2.9497
   93SAPE  H16S 9185   0.965   3.687   5.763  1.3407 -0.2534 -1.1029
   93SAPE  C217 9186   0.900   3.678   5.561 -0.0875 -0.2180 -1.0736
   93SAPE  H17R 9187   0.929   3.571   5.562  0.5709 -0.0419 -0.3738
   93SAPE  H17S 9188   0.984   3.742   5.526 -0.2347  2.0118  2.2192
   93SAPE  C218 9189   0.774   3.688   5.469  0.2054 -1.3490 -0.1234
   93SAPE  H18R 9190   0.733   3.791   5.468 -1.5477 -1.9394  2.1591
   93SAPE  H18S 9191   0.692   3.632   5.519 -0.7776  0.8239  0.7957
   93SAPE  C219 9192   0.785   3.627   5.326  0.0345 -0.3559 -0.0114
   93SAPE  H19R 9193   0.832   3.526   5.328 -1.2723 -0.9858  1.7053
   93SAPE  H19S 9194   0.860   3.684   5.268  0.1761  1.3212  1.7241
   93SAPE  C220 9195   0.653   3.607   5.253 -0.4300 -0.3054  0.0712
   93SAPE  H20R 9196   0.613   3.709   5.237  1.3476  0.5037  0.4355
   93SAPE  H20S 9197   0.584   3.550   5.318  0.4916 -1.7425 -0.1637
   93SAPE  H20T 9198   0.674   3.552   5.158  2.1991  1.5855 -0.5474
   93SAPE   C33 9199   1.071   4.661   6.787 -0.2875 -0.5351  0.1055
   93SAPE   H3X 9200   0.974   4.658   6.842 -0.0843 -0.4112  0.4758
   93SAPE   H3Y 9201   1.105   4.555   6.784 -1.5927 -1.1534  3.3016
   93SAPE   C34 9202   1.044   4.712   6.640  0.7226  0.0461  0.1657
   93SAPE   H4X 9203   1.140   4.731   6.587  1.2699 -1.6379  0.4813
   93SAPE   H4Y 9204   0.980   4.802   6.642 -0.9056 -0.8098 -3.7553
   93SAPE   C35 9205   0.959   4.618   6.554  0.2973  0.1629  0.9155
   93SAPE   H5X 9206   0.861   4.599   6.602 -1.5577  2.8373 -1.4584
   93SAPE   H5Y 9207   1.030   4.532   6.550  0.7510  0.4164  2.6966
   93SAPE   C36 9208   0.922   4.680   6.420 -0.5648 -0.0264  0.1088
   93SAPE   H6X 9209   1.015   4.725   6.378 -0.4111 -0.6326 -0.2117
   93SAPE   H6Y 9210   0.842   4.755   6.437 -2.1397 -1.5803 -0.1544
   93SAPE   C37 9211   0.873   4.569   6.320  0.0886 -0.1992 -0.3261
   93SAPE   H7X 9212   0.861   4.615   6.220 -1.8789  1.2102  0.4860
   93SAPE   H7Y 9213   0.772   4.543   6.358  0.2176 -0.8254 -0.4082
   93SAPE   C38 9214   0.958   4.447   6.306  0.3034  1.0200  0.8146
   93SAPE   H8X 9215   0.935   4.395   6.402 -0.5839 -0.5423 -0.2034
   93SAPE   H8Y 9216   1.062   4.483   6.294  0.1511  1.5273  0.9498
   93SAPE   C39 9217   0.920   4.358   6.186  0.6795  0.7868  0.6724
   93SAPE   H9X 9218   0.811   4.341   6.172  0.6373  0.5009  1.3370
   93SAPE   H9Y 9219   0.966   4.260   6.210  1.7924  0.3903 -2.5766
   93SAPE  C310 9220   0.979   4.417   6.056  0.0466  0.2876  0.6812
   93SAPE  H10X 9221   1.087   4.430   6.076  0.1008  0.6155  0.1844
   93SAPE  H10Y 9222   0.943   4.517   6.024 -0.0368  0.4335  1.2166
   93SAPE  C311 9223   0.941   4.320   5.940  0.3286  0.0040  0.4302
   93SAPE  H11X 9224   0.832   4.305   5.930  0.3691  0.6483 -1.3187
   93SAPE  H11Y 9225   0.982   4.217   5.951 -0.4491 -0.4251 -0.4772
   93SAPE  C312 9226   0.987   4.377   5.806 -0.1854 -0.3366 -0.4458
   93SAPE  H12X 9227   1.098   4.384   5.805 -0.1317 -1.1747 -0.4768
   93SAPE  H12Y 9228   0.945   4.478   5.786  0.7612  0.3119  0.6933
   93SAPE  C313 9229   0.934   4.289   5.691 -0.3706 -0.1888 -1.0827
   93SAPE  H13X 9230   0.828   4.262   5.710  0.1788 -0.4686  2.0202
   93SAPE  H13Y 9231   0.983   4.192   5.716 -0.9830 -0.4811 -0.9991
   93SAPE  C314 9232   0.999   4.314   5.554 -0.2881  0.4538 -1.2685
   93SAPE  H14X 9233   1.105   4.346   5.566 -0.1120  0.2181 -2.0957
   93SAPE  H14Y 9234   0.955   4.405   5.509  0.9532  1.2009 -1.0334
   93SAPE  C315 9235   0.991   4.196   5.457 -0.2361  0.1221 -0.7816
   93SAPE  H15X 9236   1.032   4.117   5.524  0.5533  2.5270  1.7713
   93SAPE  H15Y 9237   1.060   4.209   5.372  0.2341  1.6322 -0.2039
   93SAPE  C316 9238   0.853   4.159   5.406  0.3199 -0.2838  0.1018
   93SAPE  H16X 9239   0.806   4.240   5.346 -2.1700 -0.4633  1.6523
   93SAPE  H16Y 9240   0.783   4.137   5.489  0.6328 -2.1076 -0.0709
   93SAPE  C317 9241   0.866   4.044   5.309 -0.0420  0.4898  0.4268
   93SAPE  H17X 9242   0.912   3.959   5.364  1.1632  1.2687  0.6576
   93SAPE  H17Y 9243   0.934   4.063   5.223 -0.2991  0.2047  0.1592
   93SAPE  C318 9244   0.734   3.996   5.245  0.1059  0.1376  0.1420
   93SAPE  H18X 9245   0.749   3.922   5.163 -2.5858  0.5450 -0.8257
   93SAPE  H18Y 9246   0.694   4.087   5.196  2.2868  1.3880  0.5251
   93SAPE  H18Z 9247   0.670   3.958   5.328 -0.4016  0.1952 -0.2169
   94SAPE     N 9248   4.059   6.411   7.195  0.2849  0.3740 -0.2270
   94SAPE   HN1 9249   4.073   6.482   7.120  1.1787 -0.6141 -1.0178
   94SAPE   HN2 9250   4.123   6.330   7.181 -1.7464 -1.1127 -1.3918
   94SAPE   HN3 9251   3.962   6.376   7.185  0.7115 -1.1443  0.6738
   94SAPE   C12 9252   4.079   6.467   7.333 -0.1264  0.3077 -0.1522
   94SAPE  H12A 9253   4.050   6.574   7.339  3.8618  1.4825  3.0447
   94SAPE  H12B 9254   4.187   6.464   7.360 -0.3065  3.1071  1.2777
   94SAPE   C11 9255   4.003   6.378   7.431 -0.0806  0.4459  0.2028
   94SAPE  H11A 9256   4.025   6.412   7.534  1.2188 -0.9393  0.4128
   94SAPE  H11B 9257   4.041   6.274   7.429 -2.3311 -0.4471  0.6835
   94SAPE     P 9258   3.751   6.338   7.509  0.2389  0.0054  0.2319
   94SAPE   O13 9259   3.786   6.206   7.563  0.0984  0.1876 -0.3478
   94SAPE   O14 9260   3.746   6.454   7.602  0.3094  0.2417  0.0748
   94SAPE   O12 9261   3.857   6.375   7.400  0.2457  0.4022  0.2802
   94SAPE   O11 9262   3.612   6.327   7.430 -0.5724  0.1076 -0.0912
   94SAPE    C1 9263   3.609   6.340   7.288  0.2743 -0.3997 -0.4739
   94SAPE    HA 9264   3.507   6.355   7.246 -0.7528 -0.0127  1.9557
   94SAPE    HB 9265   3.682   6.415   7.251  2.5263 -2.6333 -0.7958
   94SAPE    C2 9266   3.645   6.203   7.224 -0.2172 -0.6312 -0.4613
   94SAPE    HS 9267   3.745   6.176   7.264  0.5668  3.3818  0.7308
   94SAPE   O21 9268   3.647   6.205   7.080  0.0079  0.6296  0.2787
   94SAPE   C21 9269   3.747   6.260   7.021  0.0731  0.3275 -0.3174
   94SAPE   O22 9270   3.845   6.305   7.081 -0.0072  0.8591 -0.3125
   94SAPE   C22 9271   3.715   6.269   6.872  0.6312  0.3051  0.0789
   94SAPE   H2R 9272   3.740   6.170   6.828  1.7357  0.5017  0.2386
   94SAPE   H2S 9273   3.606   6.284   6.851  0.7227 -0.6605 -1.2268
   94SAPE    C3 9274   3.549   6.097   7.279 -0.3995 -0.6871 -0.2648
   94SAPE    HX 9275   3.450   6.127   7.238  0.3504 -1.1175 -2.5143
   94SAPE    HY 9276   3.547   6.107   7.390  1.9852  3.4901 -0.3890
   94SAPE   O31 9277   3.607   5.968   7.242  0.4212  0.2093 -0.2975
   94SAPE   C31 9278   3.545   5.928   7.122  0.0081  0.1475 -0.4565
   94SAPE   O32 9279   3.454   5.979   7.067 -0.4013 -0.6178 -0.2530
   94SAPE   C32 9280   3.615   5.800   7.080  0.0552 -0.2199  0.5639
   94SAPE   H2X 9281   3.573   5.719   7.143  0.4677 -2.1010 -1.4184
   94SAPE   H2Y 9282   3.723   5.800   7.108  0.2156  0.0777 -0.0409
   94SAPE   C23 9283   3.794   6.382   6.797  0.4303 -0.0615  0.1303
   94SAPE   H3R 9284   3.893   6.401   6.844 -0.1636  1.3424  0.8719
   94SAPE   H3S 9285   3.738   6.477   6.799 -2.0691 -1.4622  1.0715
   94SAPE   C24 9286   3.820   6.333   6.654 -0.3480  0.0004  0.2308
   94SAPE   H4R 9287   3.728   6.316   6.595  0.9590 -2.7641 -1.1874
   94SAPE   H4S 9288   3.854   6.231   6.683 -0.6121  0.1045  0.9477
   94SAPE   C25 9289   3.923   6.417   6.584  1.0073 -0.2056 -0.8936
   94SAPE   H5R 9290   3.986   6.474   6.655  0.5710  0.3290 -0.9293
   94SAPE   C26 9291   3.940   6.436   6.456  0.1096 -0.4667  0.7692
   94SAPE   H6R 9292   4.024   6.494   6.416 -1.8994  1.1546 -1.4377
   94SAPE   C27 9293   3.855   6.381   6.342 -0.0972 -0.5122  0.7445
   94SAPE   H7R 9294   3.793   6.467   6.311 -0.3877  0.2500  3.2002
   94SAPE   H7S 9295   3.778   6.314   6.386 -0.5300  0.5687  1.6801
   94SAPE   C28 9296   3.925   6.310   6.230 -0.1251  0.3848  0.6369
   94SAPE   H8R 9297   4.004   6.245   6.270 -0.1888 -0.2022 -0.1656
   94SAPE   C29 9298   3.899   6.327   6.100 -0.5336  0.1848 -0.1370
   94SAPE   H9R 9299   3.969   6.280   6.029 -0.4123 -2.1664  1.4146
   94SAPE  C210 9300   3.786   6.410   6.039 -0.5481 -0.1215 -0.0722
   94SAPE  H10R 9301   3.729   6.475   6.108 -0.3903 -1.4520  1.3493
   94SAPE  H10S 9302   3.708   6.334   6.018 -0.9561  0.3851 -0.3944
   94SAPE  C211 9303   3.831   6.492   5.921  0.0006 -0.2277 -0.1391
   94SAPE  H11R 9304   3.903   6.570   5.952 -1.4000  0.7626  0.7095
   94SAPE  C212 9305   3.785   6.500   5.798 -0.2518 -0.2297  0.3369
   94SAPE  H12R 9306   3.828   6.578   5.734 -1.0162  0.6328  0.8598
   94SAPE  C213 9307   3.680   6.412   5.744 -0.5636  0.2994 -0.0592
   94SAPE  H13R 9308   3.641   6.455   5.649  2.3463  0.8020 -1.1543
   94SAPE  H13S 9309   3.589   6.413   5.807 -1.3333  2.0328 -1.1130
   94SAPE  C214 9310   3.720   6.268   5.730 -0.1295  0.0669 -0.6669
   94SAPE  H14R 9311   3.729   6.215   5.827 -1.7917 -0.5004 -0.7943
   94SAPE  C215 9312   3.744   6.200   5.620  0.1611 -1.0288  0.7667
   94SAPE  H15R 9313   3.762   6.092   5.632 -0.4909 -1.0210  1.9088
   94SAPE  C216 9314   3.747   6.243   5.471 -0.1110  0.6597 -0.6518
   94SAPE  H16R 9315   3.792   6.165   5.406 -1.3269 -0.0080 -0.7123
   94SAPE  H16S 9316   3.813   6.331   5.457  1.6871 -0.7063 -1.1282
   94SAPE  C217 9317   3.609   6.290   5.419 -0.3906 -0.2107 -0.2841
   94SAPE  H17R 9318   3.573   6.384   5.465  0.7860  0.8236 -1.4261
   94SAPE  H17S 9319   3.531   6.211   5.419 -0.7504  0.0773 -2.4866
   94SAPE  C218 9320   3.638   6.333   5.269  0.2013 -0.3890  0.4220
   94SAPE  H18R 9321   3.681   6.247   5.213 -2.0815 -0.6997 -0.9932
   94SAPE  H18S 9322   3.714   6.412   5.254 -0.8053  0.3406 -1.1383
   94SAPE  C219 9323   3.513   6.385   5.198 -0.7070  0.0241  0.2295
   94SAPE  H19R 9324   3.454   6.444   5.272 -0.4268 -0.5115  0.8964
   94SAPE  H19S 9325   3.456   6.293   5.177  1.5492 -1.2288 -0.8050
   94SAPE  C220 9326   3.546   6.459   5.070  0.1668  0.1592  0.2650
   94SAPE  H20R 9327   3.621   6.402   5.010 -0.0183  0.4308 -0.2361
   94SAPE  H20S 9328   3.580   6.560   5.100  0.3748  0.1420  0.0951
   94SAPE  H20T 9329   3.460   6.473   5.001  0.6965  2.2082 -0.0629
   94SAPE   C33 9330   3.590   5.762   6.931 -0.0780 -0.2347  0.4535
   94SAPE   H3X 9331   3.479   5.768   6.922 -0.3046 -3.0059  0.4430
   94SAPE   H3Y 9332   3.628   5.661   6.905 -2.0566 -0.7563 -0.6561
   94SAPE   C34 9333   3.640   5.866   6.830 -0.1920 -0.3827 -0.2343
   94SAPE   H4X 9334   3.749   5.868   6.852 -0.1672 -2.6938  0.0182
   94SAPE   H4Y 9335   3.594   5.966   6.847 -0.4143 -0.4616 -0.3767
   94SAPE   C35 9336   3.618   5.842   6.676  0.1091  0.4762  0.8911
   94SAPE   H5X 9337   3.508   5.848   6.664  0.0811  1.0597  1.3806
   94SAPE   H5Y 9338   3.663   5.745   6.643  0.1312 -0.1788  2.7555
   94SAPE   C36 9339   3.697   5.941   6.589 -0.2016 -0.3650 -0.1133
   94SAPE   H6X 9340   3.801   5.942   6.627 -0.3371  1.2736  0.3138
   94SAPE   H6Y 9341   3.646   6.037   6.615 -2.8230 -0.8464 -2.8624
   94SAPE   C37 9342   3.687   5.913   6.438  0.1543 -0.3223 -0.3864
   94SAPE   H7X 9343   3.578   5.915   6.419 -0.1265 -0.3339  1.1001
   94SAPE   H7Y 9344   3.720   5.808   6.424  0.2237 -0.3520 -0.0124
   94SAPE   C38 9345   3.769   6.005   6.354 -0.0323 -0.5492  0.1493
   94SAPE   H8X 9346   3.876   5.980   6.372  0.0504  2.0962  4.9722
   94SAPE   H8Y 9347   3.746   6.113   6.365  0.7018 -0.4926  1.2554
   94SAPE   C39 9348   3.744   5.973   6.202 -0.6486 -0.5673 -0.2945
   94SAPE   H9X 9349   3.743   6.066   6.141 -2.0653 -1.4878 -1.7555
   94SAPE   H9Y 9350   3.640   5.935   6.201 -0.7555 -0.3574  1.0580
   94SAPE  C310 9351   3.838   5.871   6.139  0.6432 -0.0713  0.5861
   94SAPE  H10X 9352   3.825   5.782   6.204 -0.8077  0.3801  0.9653
   94SAPE  H10Y 9353   3.942   5.907   6.150  0.2678  1.3965 -0.4664
   94SAPE  C311 9354   3.796   5.833   5.996 -0.1858  0.1638 -0.1619
   94SAPE  H11X 9355   3.856   5.898   5.930 -0.0453  0.1236 -0.0757
   94SAPE  H11Y 9356   3.692   5.869   5.979 -0.2741  0.8873  1.6402
   94SAPE  C312 9357   3.829   5.688   5.960  0.1707  0.5784 -0.2533
   94SAPE  H12X 9358   3.757   5.611   5.992  0.4206 -0.6513 -2.4603
   94SAPE  H12Y 9359   3.932   5.671   5.999  0.4849 -0.9159 -1.6223
   94SAPE  C313 9360   3.825   5.668   5.806 -0.5710  0.4352 -0.3792
   94SAPE  H13X 9361   3.855   5.565   5.774 -1.6341  0.5216 -1.7778
   94SAPE  H13Y 9362   3.898   5.742   5.766 -0.4199  0.2954 -0.3647
   94SAPE  C314 9363   3.698   5.707   5.729  0.3598 -0.3056 -0.1011
   94SAPE  H14X 9364   3.688   5.817   5.743  1.9357 -0.0523 -0.6983
   94SAPE  H14Y 9365   3.626   5.649   5.790 -0.8710 -1.4753 -2.5158
   94SAPE  C315 9366   3.692   5.686   5.582  0.4941  0.0637  0.6215
   94SAPE  H15X 9367   3.741   5.773   5.532 -1.3697  1.6784  1.4383
   94SAPE  H15Y 9368   3.588   5.693   5.543  0.8790  2.7924 -0.1291
   94SAPE  C316 9369   3.740   5.547   5.531 -0.0611 -0.5824 -0.8154
   94SAPE  H16X 9370   3.678   5.469   5.579 -0.8999  0.0333 -0.8883
   94SAPE  H16Y 9371   3.844   5.538   5.570 -0.0637 -0.0772 -0.6904
   94SAPE  C317 9372   3.743   5.548   5.376 -0.0641 -0.1023 -0.1671
   94SAPE  H17X 9373   3.817   5.616   5.331 -1.6073  3.1143  1.7729
   94SAPE  H17Y 9374   3.638   5.578   5.352 -0.4216 -1.7796 -0.8984
   94SAPE  C318 9375   3.759   5.402   5.324 -0.3397  0.1574 -0.2991
   94SAPE  H18X 9376   3.861   5.362   5.342  0.4537  1.2882 -2.0575
   94SAPE  H18Y 9377   3.760   5.403   5.213  2.8992 -0.3149 -0.3716
   94SAPE  H18Z 9378   3.689   5.323   5.360 -1.7686  1.4363 -0.1770
   95SAPE     N 9379   4.011   4.541   7.008 -0.7657 -0.4746  0.1112
   95SAPE   HN1 9380   3.953   4.505   6.930 -1.1392  0.5845 -0.1130
   95SAPE   HN2 9381   4.006   4.645   7.000 -1.4077 -0.4030  1.2726
   95SAPE   HN3 9382   4.113   4.526   6.996 -0.6712  0.3788 -0.2382
   95SAPE   C12 9383   3.964   4.497   7.146 -0.1576 -0.2895 -0.1503
   95SAPE  H12A 9384   4.038   4.536   7.219 -0.0240 -0.5886 -0.1251
   95SAPE  H12B 9385   3.964   4.386   7.150  0.0732 -0.2747  0.2924
   95SAPE   C11 9386   3.821   4.553   7.162  0.8749 -0.1787 -0.9211
   95SAPE  H11A 9387   3.814   4.660   7.193 -0.0688 -0.9138  1.6278
   95SAPE  H11B 9388   3.777   4.494   7.245 -1.0156  0.5256 -1.3879
   95SAPE     P 9389   3.585   4.552   7.051 -0.1757 -0.0818 -0.0906
   95SAPE   O13 9390   3.527   4.427   7.101  0.7683  0.2420 -0.0846
   95SAPE   O14 9391   3.558   4.681   7.115  0.2679  0.9192  0.5929
   95SAPE   O12 9392   3.740   4.526   7.050  0.3291  0.3745 -0.2098
   95SAPE   O11 9393   3.578   4.554   6.895  0.0747 -0.1267 -0.6354
   95SAPE    C1 9394   3.640   4.651   6.816 -0.1893 -0.1122 -0.4768
   95SAPE    HA 9395   3.601   4.754   6.833  2.2151  0.9581 -1.0763
   95SAPE    HB 9396   3.750   4.649   6.830  0.1004  0.6727 -2.3297
   95SAPE    C2 9397   3.611   4.619   6.667  0.2381  1.0445  0.8294
   95SAPE    HS 9398   3.685   4.672   6.604  0.9903 -1.7723 -0.8061
   95SAPE   O21 9399   3.472   4.645   6.628 -0.2115 -0.3705  0.0876
   95SAPE   C21 9400   3.454   4.772   6.607  0.3754  0.0122 -0.2190
   95SAPE   O22 9401   3.537   4.855   6.584  0.2766 -0.0112 -0.2215
   95SAPE   C22 9402   3.302   4.792   6.621  0.1532  0.1275 -0.3458
   95SAPE   H2R 9403   3.247   4.737   6.541 -0.2461  1.3130 -0.9161
   95SAPE   H2S 9404   3.268   4.750   6.718 -0.9795  1.6808 -0.0255
   95SAPE    C3 9405   3.645   4.475   6.651 -0.5097  1.0643  0.2242
   95SAPE    HX 9406   3.571   4.420   6.714 -0.5664  0.4797 -0.3485
   95SAPE    HY 9407   3.752   4.462   6.677 -0.8931 -0.7918  0.9961
   95SAPE   O31 9408   3.621   4.434   6.517  0.1726  0.5083 -0.4046
   95SAPE   C31 9409   3.722   4.459   6.428  0.5499 -0.3868  0.2164
   95SAPE   O32 9410   3.829   4.511   6.447  0.0807 -0.5193 -0.2680
   95SAPE   C32 9411   3.673   4.412   6.290 -0.1564  0.2648  0.7490
   95SAPE   H2X 9412   3.563   4.397   6.284 -0.4016  2.0185  0.3192
   95SAPE   H2Y 9413   3.708   4.309   6.269  1.4067  0.7360  0.9813
   95SAPE   C23 9414   3.252   4.937   6.636  0.1678  0.0334 -0.2023
   95SAPE   H3R 9415   3.319   4.990   6.707  1.3561  1.5570 -2.3339
   95SAPE   H3S 9416   3.152   4.939   6.684  0.3305  1.9642  0.1377
   95SAPE   C24 9417   3.241   5.018   6.507  0.6889  0.4036  0.1110
   95SAPE   H4R 9418   3.338   5.024   6.453 -0.1256 -0.0025 -1.4774
   95SAPE   H4S 9419   3.216   5.120   6.543  0.7220  0.0334  1.2005
   95SAPE   C25 9420   3.142   4.964   6.407 -0.7511  0.0139  0.5783
   95SAPE   H5R 9421   3.132   4.855   6.395 -0.1925  0.2007 -2.1442
   95SAPE   C26 9422   3.073   5.035   6.317 -0.0812 -0.0132 -0.1100
   95SAPE   H6R 9423   3.006   4.982   6.248  2.1809 -1.5996 -1.2114
   95SAPE   C27 9424   3.094   5.187   6.292 -0.2951 -0.3339 -0.0458
   95SAPE   H7R 9425   3.150   5.196   6.196  2.9446 -0.3258  1.7091
   95SAPE   H7S 9426   3.164   5.241   6.360 -0.8611  0.4310 -0.0550
   95SAPE   C28 9427   2.957   5.261   6.286 -0.1684 -0.7739  0.1654
   95SAPE   H8R 9428   2.915   5.321   6.368 -0.0691  1.1268 -1.1070
   95SAPE   C29 9429   2.883   5.267   6.177  0.1637  0.6211 -0.9839
   95SAPE   H9R 9430   2.797   5.334   6.187 -0.3973 -0.2806  0.5390
   95SAPE  C210 9431   2.896   5.201   6.045  0.0643 -0.2032  0.6744
   95SAPE  H10R 9432   2.807   5.139   6.023  1.5130 -1.4996 -2.0027
   95SAPE  H10S 9433   2.969   5.118   6.046  2.6050  1.8518 -0.8335
   95SAPE  C211 9434   2.930   5.294   5.933 -0.1278 -0.1738  1.2573
   95SAPE  H11R 9435   2.931   5.402   5.953 -2.9575 -0.1644  1.8486
   95SAPE  C212 9436   2.930   5.259   5.801 -1.1961 -0.1173 -0.3693
   95SAPE  H12R 9437   2.958   5.329   5.721 -1.6539 -1.0908 -1.4090
   95SAPE  C213 9438   2.905   5.129   5.741  0.3062  0.8497  0.6804
   95SAPE  H13R 9439   2.803   5.142   5.699  0.4138  1.6248  0.6474
   95SAPE  H13S 9440   2.898   5.044   5.813 -1.8758  0.9029  0.5922
   95SAPE  C214 9441   2.989   5.075   5.626 -0.0814  0.3696  0.7687
   95SAPE  H14R 9442   2.938   5.063   5.529  0.4817 -1.0195  0.6255
   95SAPE  C215 9443   3.118   5.039   5.620  0.2693  0.3472  0.0003
   95SAPE  H15R 9444   3.162   5.026   5.521  1.4891  0.5969  0.4921
   95SAPE  C216 9445   3.229   5.040   5.724  0.0287  0.4751  0.1649
   95SAPE  H16R 9446   3.190   5.085   5.817  2.8644  2.1553  0.6686
   95SAPE  H16S 9447   3.312   5.108   5.694  0.8230  0.4821  2.2487
   95SAPE  C217 9448   3.294   4.906   5.753  0.9026 -0.8096  0.2725
   95SAPE  H17R 9449   3.215   4.848   5.804 -0.4456  0.4088 -0.3603
   95SAPE  H17S 9450   3.379   4.935   5.818 -0.1364  2.3071  0.4412
   95SAPE  C218 9451   3.346   4.837   5.623 -0.3299 -0.2585  0.4001
   95SAPE  H18R 9452   3.403   4.909   5.560 -2.4000  2.6530  1.6795
   95SAPE  H18S 9453   3.259   4.805   5.562  0.6265  0.1516 -1.2510
   95SAPE  C219 9454   3.441   4.721   5.654  0.2159 -0.9754 -0.5295
   95SAPE  H19R 9455   3.376   4.649   5.707 -1.3578  0.9395  0.2738
   95SAPE  H19S 9456   3.522   4.755   5.723 -0.7377 -1.5789  0.9303
   95SAPE  C220 9457   3.499   4.658   5.533  0.0093  0.1248  0.5110
   95SAPE  H20R 9458   3.422   4.625   5.459 -1.4900  0.4668  1.8631
   95SAPE  H20S 9459   3.546   4.562   5.560  0.5634  0.2157 -0.1146
   95SAPE  H20T 9460   3.568   4.728   5.481  0.5851  0.2488  1.4335
   95SAPE   C33 9461   3.737   4.497   6.182 -0.0251 -0.2148 -0.5805
   95SAPE   H3X 9462   3.842   4.520   6.207  0.3107 -1.6215 -0.6252
   95SAPE   H3Y 9463   3.680   4.592   6.170  1.6252  0.8315 -0.4225
   95SAPE   C34 9464   3.727   4.433   6.043 -0.2176  0.1446  0.0964
   95SAPE   H4X 9465   3.624   4.400   6.018  0.8375 -2.4265 -1.2193
   95SAPE   H4Y 9466   3.791   4.345   6.066 -1.0009  0.0183  1.9685
   95SAPE   C35 9467   3.775   4.530   5.935  0.1290  0.0359  0.3168
   95SAPE   H5X 9468   3.854   4.600   5.969 -0.9885  1.8320 -0.6291
   95SAPE   H5Y 9469   3.681   4.580   5.904 -1.1403 -2.5273 -0.3207
   95SAPE   C36 9470   3.836   4.459   5.812 -0.0419 -0.1497 -0.2187
   95SAPE   H6X 9471   3.766   4.381   5.774  1.0336 -0.6013 -1.3302
   95SAPE   H6Y 9472   3.932   4.408   5.836  0.3561  0.0275 -1.3920
   95SAPE   C37 9473   3.842   4.565   5.698  0.0121  0.1582 -0.1244
   95SAPE   H7X 9474   3.912   4.641   5.738  0.4773  0.8151 -2.0724
   95SAPE   H7Y 9475   3.747   4.616   5.670 -0.9839 -1.1838  0.7255
   95SAPE   C38 9476   3.892   4.505   5.568  0.0734 -0.3470  0.1538
   95SAPE   H8X 9477   3.821   4.425   5.537 -1.3571  0.6062  0.8496
   95SAPE   H8Y 9478   3.992   4.463   5.590  0.8508  0.8214 -1.0474
   95SAPE   C39 9479   3.909   4.608   5.450 -0.0097 -0.3264 -0.5825
   95SAPE   H9X 9480   3.941   4.705   5.494  0.5962 -0.3977 -0.8476
   95SAPE   H9Y 9481   3.808   4.620   5.405 -0.2871 -0.6614 -0.0578
   95SAPE  C310 9482   4.000   4.564   5.339 -0.3238 -0.0786 -0.0004
   95SAPE  H10X 9483   4.101   4.538   5.378  0.4812  2.4704 -0.2044
   95SAPE  H10Y 9484   4.020   4.652   5.274  1.0990 -0.6978 -0.4476
   95SAPE  C311 9485   3.957   4.446   5.246 -0.1224 -0.3193 -0.5435
   95SAPE  H11X 9486   3.848   4.452   5.225 -1.2016 -2.7333  3.4874
   95SAPE  H11Y 9487   3.984   4.355   5.302  0.6023  1.9581  3.1613
   95SAPE  C312 9488   4.034   4.465   5.114 -0.0696 -0.1703  0.4555
   95SAPE  H12X 9489   4.019   4.569   5.078  0.3907 -0.9649 -2.3040
   95SAPE  H12Y 9490   3.980   4.405   5.037  0.7056  1.6425 -1.6012
   95SAPE  C313 9491   4.181   4.431   5.108 -0.0244 -0.2629  0.6722
   95SAPE  H13X 9492   4.232   4.514   5.161 -0.5988  0.4985  0.0648
   95SAPE  H13Y 9493   4.209   4.439   5.001  0.7608  1.1268  0.9551
   95SAPE  C314 9494   4.214   4.298   5.168 -0.3078  0.2622 -0.8516
   95SAPE  H14X 9495   4.149   4.217   5.130 -0.1990 -0.7686  1.0193
   95SAPE  H14Y 9496   4.199   4.309   5.278  2.8467 -1.0836 -0.1762
   95SAPE  C315 9497   4.366   4.257   5.142 -0.6359  0.2903 -0.6192
   95SAPE  H15X 9498   4.428   4.343   5.177  0.3189  0.3347 -2.3058
   95SAPE  H15Y 9499   4.385   4.234   5.035  2.0057  1.1899 -0.4419
   95SAPE  C316 9500   4.398   4.130   5.230 -0.0287  0.1021  0.5414
   95SAPE  H16X 9501   4.345   4.044   5.183  0.3985  0.5241 -0.7594
   95SAPE  H16Y 9502   4.357   4.141   5.333  0.8447  0.3703  0.8650
   95SAPE  C317 9503   4.542   4.091   5.217 -0.4831 -0.5757  0.0589
   95SAPE  H17X 9504   4.534   3.995   5.274 -0.7417  1.0077  2.8512
   95SAPE  H17Y 9505   4.610   4.155   5.276 -1.0949 -1.3802  1.6964
   95SAPE  C318 9506   4.591   4.074   5.072 -0.4636  0.7626  0.7185
   95SAPE  H18X 9507   4.681   4.010   5.075 -0.4940  0.7083  0.4699
   95SAPE  H18Y 9508   4.594   4.162   5.005  0.8903 -0.6709 -1.1949
   95SAPE  H18Z 9509   4.513   4.006   5.030  1.6089 -0.8130 -0.8074
   96SAPE     N 9510   5.025   0.300   7.957 -0.2448 -0.5719  0.1280
   96SAPE   HN1 9511   4.933   0.349   7.953 -0.9630 -1.6860  1.8001
   96SAPE   HN2 9512   5.026   0.235   8.039 -0.9562  0.9671  1.4095
   96SAPE   HN3 9513   5.097   0.373   7.975 -1.2273  1.0430 -2.0463
   96SAPE   C12 9514   5.041   0.229   7.826  0.4989 -0.5763  0.0001
   96SAPE  H12A 9515   5.101   0.139   7.851 -1.2982 -1.5055  1.2194
   96SAPE  H12B 9516   5.092   0.300   7.757  0.9766  1.2235  2.0683
   96SAPE   C11 9517   4.901   0.177   7.788  0.5216 -0.0167 -0.4272
   96SAPE  H11A 9518   4.848   0.111   7.859  0.0525 -0.6562 -1.3540
   96SAPE  H11B 9519   4.921   0.106   7.705  0.6635  0.4946 -0.8343
   96SAPE     P 9520   4.705   0.241   7.635  0.5302 -0.4107 -0.3253
   96SAPE   O13 9521   4.625   0.124   7.678  0.0698  0.6669 -0.3238
   96SAPE   O14 9522   4.626   0.366   7.608  0.0394  0.2453  0.1604
   96SAPE   O12 9523   4.812   0.282   7.743 -0.6028  0.0177 -0.3016
   96SAPE   O11 9524   4.786   0.207   7.506 -0.6942  0.3950 -0.4355
   96SAPE    C1 9525   4.893   0.279   7.449  0.3232 -0.2640 -0.0010
   96SAPE    HA 9526   4.933   0.353   7.521 -0.5207  0.7550 -0.5602
   96SAPE    HB 9527   4.979   0.217   7.417  0.6721  0.2605 -0.0699
   96SAPE    C2 9528   4.851   0.364   7.327 -0.1833  0.1434 -0.9972
   96SAPE    HS 9529   4.772   0.430   7.368  3.0702  2.7673  1.6487
   96SAPE   O21 9530   4.812   0.281   7.220 -0.1841 -0.4951 -0.1541
   96SAPE   C21 9531   4.697   0.286   7.161 -0.2232  0.3146  0.1878
   96SAPE   O22 9532   4.606   0.364   7.185  0.0545 -0.9064  0.0160
   96SAPE   C22 9533   4.698   0.180   7.052  0.1425  0.1795  0.9796
   96SAPE   H2R 9534   4.784   0.110   7.060 -0.0440 -0.1234  0.4095
   96SAPE   H2S 9535   4.616   0.105   7.055 -0.5379  0.8873  0.5907
   96SAPE    C3 9536   4.960   0.466   7.271 -0.5461  0.2662  0.1848
   96SAPE    HX 9537   5.045   0.401   7.240 -0.6726  0.4580 -0.5768
   96SAPE    HY 9538   4.991   0.534   7.353  1.0398  0.8301 -0.8506
   96SAPE   O31 9539   4.915   0.542   7.156  0.0820 -0.0112 -0.8512
   96SAPE   C31 9540   5.010   0.610   7.090 -0.3590 -0.2929 -0.3335
   96SAPE   O32 9541   5.126   0.603   7.119  0.5956 -0.2522  0.1482
   96SAPE   C32 9542   4.954   0.714   6.990 -0.6243 -0.0010  0.4982
   96SAPE   H2X 9543   5.022   0.801   6.998  2.4773 -1.8416 -2.6521
   96SAPE   H2Y 9544   4.850   0.745   7.016 -1.1662  0.2437 -1.7359
   96SAPE   C23 9545   4.707   0.258   6.916  0.1419  0.2456  0.1777
   96SAPE   H3R 9546   4.777   0.345   6.913 -1.6023  1.6958 -0.0546
   96SAPE   H3S 9547   4.608   0.305   6.900  0.3669  0.5015 -0.4843
   96SAPE   C24 9548   4.762   0.161   6.800  0.2863 -0.0745  0.2138
   96SAPE   H4R 9549   4.847   0.103   6.841  1.9106  3.5216  2.4316
   96SAPE   H4S 9550   4.809   0.236   6.733  0.0972  2.7817  3.0439
   96SAPE   C25 9551   4.637   0.100   6.749  0.0283  0.0680  0.2517
   96SAPE   H5R 9552   4.555   0.063   6.812 -2.1697  0.5417 -2.1490
   96SAPE   C26 9553   4.625   0.073   6.614  0.9930 -1.0494 -1.2379
   96SAPE   H6R 9554   4.519   0.049   6.593  0.8863 -1.6424 -0.0981
   96SAPE   C27 9555   4.718   0.105   6.499  0.0619  0.3337 -0.2822
   96SAPE   H7R 9556   4.685   0.031   6.422 -1.7661  0.7919  0.0164
   96SAPE   H7S 9557   4.821   0.078   6.530  0.1783  0.3420 -0.6466
   96SAPE   C28 9558   4.719   0.243   6.449 -0.1846 -0.2170  0.3737
   96SAPE   H8R 9559   4.741   0.317   6.527 -4.3373  1.2656  0.3369
   96SAPE   C29 9560   4.688   0.290   6.327  0.7139  0.4412 -0.0818
   96SAPE   H9R 9561   4.708   0.395   6.301 -0.6872  0.8860  0.5662
   96SAPE  C210 9562   4.634   0.203   6.214 -0.3470  0.6911 -0.5677
   96SAPE  H10R 9563   4.537   0.254   6.198  0.0201  1.1947 -1.2316
   96SAPE  H10S 9564   4.610   0.100   6.249  1.0540  1.1132  1.8779
   96SAPE  C211 9565   4.704   0.213   6.082  0.1515 -0.6349  0.2934
   96SAPE  H11R 9566   4.702   0.317   6.048 -0.9741  0.0062  2.1433
   96SAPE  C212 9567   4.773   0.121   6.019 -0.0881  0.3578  0.6203
   96SAPE  H12R 9568   4.789   0.142   5.912 -1.8759  3.2337  0.8011
   96SAPE  C213 9569   4.794  -0.017   6.069  0.9430 -0.2387  0.0092
   96SAPE  H13R 9570   4.783  -0.025   6.179 -0.3657  0.6182 -0.0383
   96SAPE  H13S 9571   4.902  -0.038   6.052  0.4604 -1.2908 -2.0415
   96SAPE  C214 9572   4.701  -0.128   6.016 -0.3906 -0.7967 -0.4873
   96SAPE  H14R 9573   4.624  -0.160   6.087 -3.1662  3.2447 -1.3124
   96SAPE  C215 9574   4.706  -0.184   5.892 -0.4367 -0.6130 -0.3122
   96SAPE  H15R 9575   4.659  -0.280   5.869 -0.1053 -0.5229 -1.4277
   96SAPE  C216 9576   4.813  -0.144   5.784  0.1833  0.2249 -0.4974
   96SAPE  H16R 9577   4.902  -0.209   5.786 -0.2674 -0.4139 -0.8840
   96SAPE  H16S 9578   4.839  -0.038   5.805  0.7451 -0.2712  1.6073
   96SAPE  C217 9579   4.745  -0.152   5.646 -0.7276  0.0416 -0.1483
   96SAPE  H17R 9580   4.689  -0.060   5.617  2.8486  2.2682 -0.5721
   96SAPE  H17S 9581   4.674  -0.238   5.644 -1.2651  0.4534  0.6382
   96SAPE  C218 9582   4.853  -0.169   5.537  0.7015  0.4058 -0.1074
   96SAPE  H18R 9583   4.923  -0.252   5.559 -2.1322 -1.5649  2.1687
   96SAPE  H18S 9584   4.906  -0.071   5.527  1.0079  0.1723 -0.7925
   96SAPE  C219 9585   4.795  -0.195   5.401 -0.6414 -0.3012  0.6345
   96SAPE  H19R 9586   4.773  -0.304   5.402 -0.3069 -0.4445  3.7856
   96SAPE  H19S 9587   4.872  -0.173   5.324 -0.6859  0.1931  0.7233
   96SAPE  C220 9588   4.670  -0.114   5.370  0.3937 -0.4231 -0.5648
   96SAPE  H20R 9589   4.695  -0.006   5.367  0.6222 -0.4790 -0.6949
   96SAPE  H20S 9590   4.582  -0.128   5.437 -0.7134 -0.4390 -1.9739
   96SAPE  H20T 9591   4.648  -0.140   5.264  1.5423  0.0236 -0.9241
   96SAPE   C33 9592   4.951   0.650   6.852  0.0988 -0.2491 -0.2409
   96SAPE   H3X 9593   4.885   0.561   6.856 -0.1719 -0.1334 -1.5881
   96SAPE   H3Y 9594   5.056   0.631   6.820  0.4353  0.1089  0.6283
   96SAPE   C34 9595   4.893   0.752   6.754 -0.2279 -0.3104  0.6359
   96SAPE   H4X 9596   4.961   0.835   6.727  0.9724 -2.3314 -3.2785
   96SAPE   H4Y 9597   4.792   0.790   6.779 -0.1372  2.7251 -2.7800
   96SAPE   C35 9598   4.872   0.687   6.618  0.2968 -0.5374  0.2851
   96SAPE   H5X 9599   4.806   0.600   6.638 -0.0976 -0.1657  0.6375
   96SAPE   H5Y 9600   4.970   0.639   6.596 -0.3002 -2.0430  0.8118
   96SAPE   C36 9601   4.812   0.772   6.502  0.2776  0.1350  1.0990
   96SAPE   H6X 9602   4.875   0.864   6.506  2.3589 -1.2140  1.0168
   96SAPE   H6Y 9603   4.705   0.798   6.509  0.2503  2.0153 -3.1447
   96SAPE   C37 9604   4.828   0.691   6.375  0.2196  0.1258  0.1179
   96SAPE   H7X 9605   4.760   0.603   6.385  0.2435  0.2279  1.3318
   96SAPE   H7Y 9606   4.932   0.655   6.358 -0.1393 -0.7008 -0.4031
   96SAPE   C38 9607   4.794   0.779   6.253  0.3006 -0.3702 -0.5076
   96SAPE   H8X 9608   4.838   0.881   6.258 -1.2367  0.3024 -0.2347
   96SAPE   H8Y 9609   4.686   0.794   6.235  0.8007  1.6847 -2.0878
   96SAPE   C39 9610   4.853   0.713   6.129  0.2397 -0.2784  0.7226
   96SAPE   H9X 9611   4.799   0.616   6.122 -1.1472  0.6014 -2.6481
   96SAPE   H9Y 9612   4.963   0.702   6.133  0.2139 -1.0362 -0.2239
   96SAPE  C310 9613   4.818   0.788   6.003 -0.1584  0.2564  0.2843
   96SAPE  H10X 9614   4.859   0.891   6.014 -0.3429  0.2202  1.4795
   96SAPE  H10Y 9615   4.709   0.812   6.005 -1.1982 -3.6017 -1.2605
   96SAPE  C311 9616   4.853   0.713   5.874 -0.5560 -0.4728  0.1812
   96SAPE  H11X 9617   4.804   0.613   5.873  0.5527 -1.0309 -0.4461
   96SAPE  H11Y 9618   4.964   0.709   5.874 -0.4218  1.0735 -2.2904
   96SAPE  C312 9619   4.817   0.795   5.752 -0.6330  0.0469  0.3577
   96SAPE  H12X 9620   4.891   0.878   5.750 -2.0245  1.3227 -1.5117
   96SAPE  H12Y 9621   4.720   0.849   5.767  0.9620  3.3882 -0.3164
   96SAPE  C313 9622   4.825   0.713   5.620 -0.2307  0.4090 -0.0234
   96SAPE  H13X 9623   4.740   0.640   5.623 -0.8067  1.0630 -0.1902
   96SAPE  H13Y 9624   4.923   0.662   5.624 -0.4292 -0.1965 -1.9171
   96SAPE  C314 9625   4.834   0.801   5.497  0.4057  0.0927  0.0948
   96SAPE  H14X 9626   4.916   0.876   5.504 -0.0561  0.4554  2.0378
   96SAPE  H14Y 9627   4.744   0.865   5.493 -0.0056 -0.3487  1.8452
   96SAPE  C315 9628   4.822   0.728   5.361 -0.1780 -0.1048  0.9677
   96SAPE  H15X 9629   4.801   0.807   5.286  2.8222  0.5463  0.7149
   96SAPE  H15Y 9630   4.729   0.667   5.361  0.1827 -0.6630  0.7299
   96SAPE  C316 9631   4.946   0.642   5.328  0.2247 -0.1298  1.1305
   96SAPE  H16X 9632   4.925   0.572   5.244 -0.3639  3.4709 -2.0031
   96SAPE  H16Y 9633   4.970   0.580   5.416 -0.4537  1.1324  2.2327
   96SAPE  C317 9634   5.064   0.749   5.300 -0.7926  0.0298  0.4503
   96SAPE  H17X 9635   5.086   0.817   5.385 -1.2592  1.0718 -0.2442
   96SAPE  H17Y 9636   5.044   0.809   5.209 -0.8740  0.6739  0.8879
   96SAPE  C318 9637   5.188   0.663   5.276  0.0525  0.2191 -0.7774
   96SAPE  H18X 9638   5.214   0.616   5.374 -0.0884  1.3295 -0.1912
   96SAPE  H18Y 9639   5.274   0.731   5.254 -0.2605  0.2686 -1.8918
   96SAPE  H18Z 9640   5.176   0.585   5.198  1.8051 -4.0963  2.7895
   97SAPE     N 9641   1.034   2.549   7.574 -0.4795  0.3862 -0.5514
   97SAPE   HN1 9642   0.975   2.529   7.490  0.0237 -3.1296 -0.2493
   97SAPE   HN2 9643   1.137   2.532   7.569 -0.2258  1.0666  1.5863
   97SAPE   HN3 9644   1.002   2.488   7.652  1.3072 -1.8534 -1.4258
   97SAPE   C12 9645   1.021   2.692   7.611  0.4557  0.5031  0.4154
   97SAPE  H12A 9646   1.068   2.704   7.711  0.9727  2.4861 -0.0141
   97SAPE  H12B 9647   0.914   2.723   7.613  0.2194 -0.1974 -0.7110
   97SAPE   C11 9648   1.092   2.782   7.510 -0.9954  0.0077 -0.4983
   97SAPE  H11A 9649   1.202   2.771   7.516 -0.5117  3.4200 -1.1371
   97SAPE  H11B 9650   1.075   2.886   7.544 -1.0431 -0.5474  1.2997
   97SAPE     P 9651   1.136   2.780   7.241 -0.2437 -0.4336 -0.3654
   97SAPE   O13 9652   1.066   2.878   7.150  0.0673 -0.4231 -0.1031
   97SAPE   O14 9653   1.278   2.812   7.278  0.3677 -0.0433  0.0056
   97SAPE   O12 9654   1.048   2.759   7.378  0.3021 -0.2111 -0.5192
   97SAPE   O11 9655   1.133   2.634   7.180 -0.4722  0.4673 -0.1766
   97SAPE    C1 9656   1.019   2.555   7.166  0.1336  0.0668 -0.4384
   97SAPE    HA 9657   1.046   2.451   7.193  1.3279  0.0721 -1.5215
   97SAPE    HB 9658   0.948   2.603   7.238  1.9096  0.3511  1.2250
   97SAPE    C2 9659   0.959   2.562   7.017  0.6538 -0.0621  0.6436
   97SAPE    HS 9660   0.911   2.661   7.000 -1.3399 -1.0099  0.4378
   97SAPE   O21 9661   0.873   2.441   7.009 -0.0757  0.4374 -0.1256
   97SAPE   C21 9662   0.750   2.472   7.046 -0.4403 -1.0131  0.9117
   97SAPE   O22 9663   0.704   2.586   7.054 -0.2880 -0.1118 -0.3003
   97SAPE   C22 9664   0.662   2.352   7.078 -0.1822  0.1924  0.0476
   97SAPE   H2R 9665   0.673   2.275   6.999 -0.0249  2.8899 -2.7475
   97SAPE   H2S 9666   0.719   2.310   7.164  0.0606  0.3325 -0.0435
   97SAPE    C3 9667   1.080   2.556   6.925 -0.5742  0.1295 -0.0361
   97SAPE    HX 9668   1.137   2.472   6.970 -0.5491 -0.6448 -1.4582
   97SAPE    HY 9669   1.140   2.648   6.940 -0.8350  0.2910  0.0312
   97SAPE   O31 9670   1.054   2.523   6.783  0.2441 -0.1485 -0.5134
   97SAPE   C31 9671   1.032   2.634   6.704  0.1217  0.0677 -0.3415
   97SAPE   O32 9672   1.024   2.746   6.752 -0.1857  0.2114 -0.1878
   97SAPE   C32 9673   1.000   2.583   6.566  0.7592 -0.0229  0.2015
   97SAPE   H2X 9674   0.904   2.529   6.583  0.7576 -0.4141 -0.9314
   97SAPE   H2Y 9675   1.079   2.515   6.528 -0.5390 -1.3209 -0.2831
   97SAPE   C23 9676   0.510   2.388   7.102 -0.5421  0.5728  0.2382
   97SAPE   H3R 9677   0.506   2.471   7.175 -0.1774  1.2969 -0.5592
   97SAPE   H3S 9678   0.475   2.302   7.164  0.0269  1.0783  1.2901
   97SAPE   C24 9679   0.418   2.395   6.981 -0.5962 -0.6076 -0.3463
   97SAPE   H4R 9680   0.314   2.421   7.010 -0.6110 -0.3404 -0.6324
   97SAPE   H4S 9681   0.416   2.291   6.940 -0.9847 -0.2055 -1.3739
   97SAPE   C25 9682   0.466   2.489   6.872 -0.4123  0.7889  0.0110
   97SAPE   H5R 9683   0.493   2.593   6.897  2.2753 -0.0257  0.8419
   97SAPE   C26 9684   0.499   2.453   6.741 -0.1263 -0.3219 -0.2011
   97SAPE   H6R 9685   0.523   2.533   6.671 -1.1093  0.6902  0.5738
   97SAPE   C27 9686   0.500   2.318   6.682  0.2952  0.8895 -0.7122
   97SAPE   H7R 9687   0.547   2.239   6.744  1.7320  1.2224 -1.3520
   97SAPE   H7S 9688   0.570   2.321   6.596  1.5682 -0.3647  0.2460
   97SAPE   C28 9689   0.367   2.259   6.644  0.4459  0.3335 -0.0486
   97SAPE   H8R 9690   0.288   2.272   6.719 -0.3187  0.3845 -0.8543
   97SAPE   C29 9691   0.328   2.218   6.521  0.3519  0.3226  0.0113
   97SAPE   H9R 9692   0.223   2.192   6.504  0.7962 -0.5819 -1.5647
   97SAPE  C210 9693   0.416   2.199   6.396 -0.1245 -1.0699  1.2919
   97SAPE  H10R 9694   0.471   2.104   6.409  2.4751  0.2153  0.3895
   97SAPE  H10S 9695   0.499   2.272   6.400  1.2158 -2.5010  0.4522
   97SAPE  C211 9696   0.334   2.204   6.271  0.6383  0.5087  0.0621
   97SAPE  H11R 9697   0.240   2.150   6.291 -0.2982  1.7942 -0.7482
   97SAPE  C212 9698   0.357   2.284   6.165  0.0733  0.0641  0.5034
   97SAPE  H12R 9699   0.295   2.268   6.076 -0.3112 -3.2223  1.2342
   97SAPE  C213 9700   0.471   2.385   6.149  0.2361  0.5403 -0.7156
   97SAPE  H13R 9701   0.548   2.318   6.105 -0.6638  1.2134 -3.5340
   97SAPE  H13S 9702   0.507   2.417   6.249 -2.3197  0.0966  0.4083
   97SAPE  C214 9703   0.443   2.510   6.066 -0.2236  0.3998  0.0208
   97SAPE  H14R 9704   0.402   2.595   6.122 -0.1167  0.5968 -0.2019
   97SAPE  C215 9705   0.465   2.519   5.935 -0.5160  0.1642 -0.1896
   97SAPE  H15R 9706   0.437   2.615   5.889 -1.2516  0.3716  0.6749
   97SAPE  C216 9707   0.521   2.420   5.837 -0.4064  0.8687  0.7378
   97SAPE  H16R 9708   0.513   2.312   5.861  1.9670  0.4576  0.0085
   97SAPE  H16S 9709   0.630   2.436   5.820 -0.4823 -1.1760 -2.7452
   97SAPE  C217 9710   0.465   2.438   5.692 -0.0240 -0.3391  0.5207
   97SAPE  H17R 9711   0.498   2.542   5.668 -0.5754 -0.4310 -0.7028
   97SAPE  H17S 9712   0.355   2.450   5.691  0.1289  1.3826  0.6485
   97SAPE  C218 9713   0.516   2.329   5.596  0.4280 -0.1856  0.9481
   97SAPE  H18R 9714   0.455   2.241   5.625  1.5567 -1.0347  0.7841
   97SAPE  H18S 9715   0.622   2.300   5.613  0.5993 -0.6012 -0.7053
   97SAPE  C219 9716   0.489   2.376   5.453  0.0550  0.1541  0.2635
   97SAPE  H19R 9717   0.549   2.312   5.385 -0.7473  1.3192 -1.6175
   97SAPE  H19S 9718   0.522   2.481   5.436  0.4664  0.3268  1.8737
   97SAPE  C220 9719   0.344   2.357   5.415  0.5813 -0.2715  0.2360
   97SAPE  H20R 9720   0.278   2.417   5.481 -0.2085  0.9756 -1.6062
   97SAPE  H20S 9721   0.310   2.251   5.417 -0.5468  0.0340 -1.3957
   97SAPE  H20T 9722   0.324   2.394   5.312  3.6273 -0.1882 -0.4407
   97SAPE   C33 9723   0.966   2.687   6.455  0.2627  0.3840  0.2159
   97SAPE   H3X 9724   1.040   2.767   6.432  0.4883  0.0607 -0.2131
   97SAPE   H3Y 9725   0.872   2.739   6.482 -0.2140 -1.9207  3.6764
   97SAPE   C34 9726   0.937   2.615   6.325  0.0010 -0.2236  0.3559
   97SAPE   H4X 9727   0.871   2.526   6.339 -1.1502  0.8102  1.8460
   97SAPE   H4Y 9728   1.040   2.587   6.295 -0.3014 -1.0866  0.0955
   97SAPE   C35 9729   0.891   2.700   6.202 -0.1818 -0.4431  0.3462
   97SAPE   H5X 9730   0.977   2.759   6.165  0.1792 -0.7735  0.6582
   97SAPE   H5Y 9731   0.810   2.770   6.232  1.8316  2.7113 -0.9961
   97SAPE   C36 9732   0.851   2.607   6.091 -0.2513 -0.6029  0.0849
   97SAPE   H6X 9733   0.744   2.630   6.072 -0.2647 -0.1278  0.7071
   97SAPE   H6Y 9734   0.861   2.499   6.112  3.7737 -0.6544 -1.2127
   97SAPE   C37 9735   0.909   2.647   5.953 -0.0779  0.0493 -0.0853
   97SAPE   H7X 9736   0.996   2.578   5.955  0.5591  0.6917 -2.4484
   97SAPE   H7Y 9737   0.957   2.748   5.947 -0.8934  0.3635 -1.7609
   97SAPE   C38 9738   0.832   2.626   5.819 -0.2006  0.9701 -0.6346
   97SAPE   H8X 9739   0.735   2.680   5.829 -0.8468 -0.1446 -0.6993
   97SAPE   H8Y 9740   0.815   2.517   5.807 -0.3993  1.0114 -0.7370
   97SAPE   C39 9741   0.904   2.676   5.699  0.4085 -0.7140  0.3935
   97SAPE   H9X 9742   0.987   2.608   5.668  1.2740  0.4941 -0.0459
   97SAPE   H9Y 9743   0.942   2.779   5.719  0.7950 -0.7082 -0.3254
   97SAPE  C310 9744   0.811   2.687   5.572  0.5641 -0.4413  0.7068
   97SAPE  H10X 9745   0.746   2.776   5.585  1.9462  0.6256  0.5314
   97SAPE  H10Y 9746   0.745   2.598   5.579 -1.5292  0.9407 -0.5059
   97SAPE  C311 9747   0.885   2.700   5.442 -0.0409  0.8442 -0.0962
   97SAPE  H11X 9748   0.951   2.613   5.421 -0.2476  0.7542 -0.3706
   97SAPE  H11Y 9749   0.943   2.795   5.441  5.7931 -2.2098  0.2827
   97SAPE  C312 9750   0.787   2.698   5.326 -0.1735  0.2467 -0.3210
   97SAPE  H12X 9751   0.717   2.784   5.329 -1.6377 -0.9292  0.4635
   97SAPE  H12Y 9752   0.717   2.616   5.352  0.5478 -0.7457 -1.3759
   97SAPE  C313 9753   0.835   2.674   5.185 -0.4777 -0.4503 -0.0151
   97SAPE  H13X 9754   0.887   2.575   5.189 -0.3399 -0.3459  1.2653
   97SAPE  H13Y 9755   0.924   2.738   5.165  0.8053 -1.8879  0.8084
   97SAPE  C314 9756   0.723   2.673   5.083  0.3301  0.3565 -0.2969
   97SAPE  H14X 9757   0.633   2.614   5.110  0.7070 -0.2091 -0.2674
   97SAPE  H14Y 9758   0.765   2.627   4.991  2.2168 -1.0006  1.1486
   97SAPE  C315 9759   0.660   2.804   5.050 -0.4157 -0.0006 -0.5165
   97SAPE  H15X 9760   0.737   2.874   5.012 -0.1283 -0.2281 -0.3532
   97SAPE  H15Y 9761   0.626   2.852   5.144 -2.0018  0.9607 -1.5377
   97SAPE  C316 9762   0.555   2.805   4.941 -0.0913 -0.3848  0.6108
   97SAPE  H16X 9763   0.460   2.749   4.959 -1.5566  1.6025 -0.4838
   97SAPE  H16Y 9764   0.597   2.776   4.842 -2.0700 -0.7467 -0.1767
   97SAPE  C317 9765   0.502   2.944   4.916  0.0505  0.2537 -0.5801
   97SAPE  H17X 9766   0.476   3.000   5.008  0.1763  2.5347 -1.8650
   97SAPE  H17Y 9767   0.409   2.945   4.856 -0.3498 -1.3134 -0.0385
   97SAPE  C318 9768   0.605   3.029   4.847  0.5756 -0.0655  0.3007
   97SAPE  H18X 9769   0.700   3.019   4.903 -1.1324 -1.2190  3.2395
   97SAPE  H18Y 9770   0.580   3.136   4.826  0.2470 -0.2426 -0.2335
   97SAPE  H18Z 9771   0.619   2.997   4.741  2.0992 -1.2185  0.8242
   98SAPE     N 9772   5.244   2.805   7.869 -0.5613 -0.4407 -0.2121
   98SAPE   HN1 9773   5.318   2.780   7.938  0.3835 -0.5818 -1.2510
   98SAPE   HN2 9774   5.298   2.801   7.780  1.6012  0.5597  0.9759
   98SAPE   HN3 9775   5.224   2.905   7.890 -2.0798 -0.5923 -0.8183
   98SAPE   C12 9776   5.119   2.719   7.854 -0.4127 -0.0502  0.0659
   98SAPE  H12A 9777   5.072   2.735   7.755  0.8012 -2.4174 -0.9718
   98SAPE  H12B 9778   5.044   2.749   7.930  1.5000 -0.7801  2.3659
   98SAPE   C11 9779   5.153   2.565   7.853  0.2226  0.3349 -0.8575
   98SAPE  H11A 9780   5.068   2.511   7.806 -0.7906  0.8837  0.2855
   98SAPE  H11B 9781   5.157   2.545   7.962 -0.6081  1.5847 -0.5783
   98SAPE     P 9782   5.356   2.403   7.793  0.4879  0.2686 -0.0065
   98SAPE   O13 9783   5.480   2.419   7.869 -0.1802  0.1055  0.4644
   98SAPE   O14 9784   5.269   2.292   7.847  0.0826  0.2499 -0.2252
   98SAPE   O12 9785   5.283   2.550   7.792 -0.4728 -0.2983 -0.1647
   98SAPE   O11 9786   5.383   2.363   7.650  0.5751  0.4523 -0.2473
   98SAPE    C1 9787   5.437   2.452   7.551 -0.6349  0.0605 -0.0467
   98SAPE    HA 9788   5.524   2.509   7.588 -0.7674 -0.8276  1.7562
   98SAPE    HB 9789   5.489   2.390   7.475  1.7824  2.7705 -0.7761
   98SAPE    C2 9790   5.339   2.566   7.494  0.5018 -0.1884 -0.2934
   98SAPE    HS 9791   5.292   2.621   7.579 -1.4806 -1.7794 -0.2704
   98SAPE   O21 9792   5.227   2.497   7.430  0.0356 -0.2248 -0.0262
   98SAPE   C21 9793   5.118   2.568   7.413  0.2915 -1.0838 -1.0663
   98SAPE   O22 9794   5.088   2.673   7.468  0.1147 -0.0288  0.0993
   98SAPE   C22 9795   5.025   2.490   7.322 -0.0637 -0.8003  0.4109
   98SAPE   H2R 9796   5.022   2.550   7.228 -1.2615 -1.3215  0.1002
   98SAPE   H2S 9797   5.070   2.391   7.303 -0.0963 -0.6322 -0.5688
   98SAPE    C3 9798   5.411   2.666   7.401  0.0444 -0.3239  0.0707
   98SAPE    HX 9799   5.501   2.703   7.455  1.1195  0.9671 -2.4514
   98SAPE    HY 9800   5.349   2.757   7.382  1.3093  0.3201 -1.1257
   98SAPE   O31 9801   5.461   2.598   7.285 -0.0610 -0.1722  0.0683
   98SAPE   C31 9802   5.375   2.601   7.179  0.4755 -0.2202 -0.5260
   98SAPE   O32 9803   5.266   2.656   7.174 -0.1969 -0.7617 -0.6682
   98SAPE   C32 9804   5.428   2.511   7.069  0.4448 -0.1021 -0.3448
   98SAPE   H2X 9805   5.406   2.407   7.103 -3.3831 -0.0275 -2.1362
   98SAPE   H2Y 9806   5.535   2.528   7.045  0.6013  0.3789  0.6179
   98SAPE   C23 9807   4.883   2.466   7.377  0.6402 -0.2008  0.0271
   98SAPE   H3R 9808   4.829   2.560   7.403  1.8042  0.5142 -0.0530
   98SAPE   H3S 9809   4.875   2.408   7.471 -1.3390  2.1386  1.4320
   98SAPE   C24 9810   4.790   2.381   7.275 -0.0876 -0.4364 -0.5008
   98SAPE   H4R 9811   4.687   2.367   7.312 -0.3537 -2.0258 -1.7299
   98SAPE   H4S 9812   4.832   2.278   7.275  1.8428  0.2874  0.2936
   98SAPE   C25 9813   4.762   2.455   7.150  0.8845  0.8426  0.8548
   98SAPE   H5R 9814   4.719   2.556   7.139 -0.0451  0.2756 -1.2774
   98SAPE   C26 9815   4.805   2.402   7.031  0.4793 -0.7332 -0.5204
   98SAPE   H6R 9816   4.785   2.468   6.946 -0.3538 -1.5128 -0.9562
   98SAPE   C27 9817   4.873   2.273   6.995  0.2936 -0.6239 -0.3124
   98SAPE   H7R 9818   4.804   2.216   6.931 -0.2647 -0.3886  0.0736
   98SAPE   H7S 9819   4.887   2.216   7.090 -1.4120 -0.4101  0.0858
   98SAPE   C28 9820   5.010   2.290   6.922  0.0998 -0.3117 -0.3922
   98SAPE   H8R 9821   5.094   2.262   6.988 -1.1422  0.1154  1.4224
   98SAPE   C29 9822   5.028   2.320   6.795  0.0076  0.4529  0.1664
   98SAPE   H9R 9823   5.129   2.297   6.757 -0.0658 -0.6783  0.6149
   98SAPE  C210 9824   4.929   2.360   6.694 -0.0149  0.2046  0.1127
   98SAPE  H10R 9825   4.825   2.352   6.734  0.2157 -1.1729  0.4848
   98SAPE  H10S 9826   4.935   2.288   6.610 -2.7175 -0.8671  0.6970
   98SAPE  C211 9827   4.960   2.504   6.655 -0.6044 -0.3549 -0.0135
   98SAPE  H11R 9828   4.956   2.571   6.742  2.4450  1.1205 -0.8873
   98SAPE  C212 9829   5.017   2.548   6.542  0.6926  0.7430 -0.3544
   98SAPE  H12R 9830   5.052   2.650   6.522  2.3233  0.2685 -0.0946
   98SAPE  C213 9831   5.039   2.455   6.420  0.5737 -0.5886 -0.1859
   98SAPE  H13R 9832   4.978   2.363   6.405  1.3948 -1.2472  0.3526
   98SAPE  H13S 9833   5.143   2.418   6.433  1.1141  0.6957 -0.7555
   98SAPE  C214 9834   5.007   2.538   6.295  0.1360  0.0441  0.7445
   98SAPE  H14R 9835   5.038   2.643   6.299 -0.9487  0.3856  0.5409
   98SAPE  C215 9836   4.938   2.497   6.183 -0.1801  0.9715  0.1512
   98SAPE  H15R 9837   4.935   2.563   6.094 -0.4401  0.7697  0.0103
   98SAPE  C216 9838   4.912   2.351   6.164 -0.2793 -0.0128 -0.7920
   98SAPE  H16R 9839   4.840   2.324   6.243  0.3612  0.1150 -0.1513
   98SAPE  H16S 9840   5.012   2.306   6.186  0.1108  0.4209 -1.6132
   98SAPE  C217 9841   4.872   2.306   6.021  0.8821 -0.9067 -0.4780
   98SAPE  H17R 9842   4.775   2.358   6.006  0.9873 -0.5128  0.1648
   98SAPE  H17S 9843   4.858   2.196   6.027  1.6368 -1.0019 -0.3559
   98SAPE  C218 9844   4.970   2.325   5.910  0.5067 -0.9500 -0.3025
   98SAPE  H18R 9845   5.076   2.314   5.943  0.9083 -0.7152 -1.4376
   98SAPE  H18S 9846   4.970   2.433   5.882 -0.6275 -0.8872 -0.1056
   98SAPE  C219 9847   4.944   2.236   5.790  0.0848  0.4333  0.1257
   98SAPE  H19R 9848   4.834   2.223   5.779  0.2939  0.3410 -2.4469
   98SAPE  H19S 9849   4.985   2.135   5.807 -1.2503  0.3334  3.6724
   98SAPE  C220 9850   4.993   2.291   5.654 -0.4059 -0.0729  0.4470
   98SAPE  H20R 9851   4.969   2.399   5.640 -1.9773 -0.4564 -0.0533
   98SAPE  H20S 9852   4.935   2.238   5.575  0.4945 -0.4808  0.0440
   98SAPE  H20T 9853   5.102   2.275   5.640 -0.3763  1.0462 -0.7968
   98SAPE   C33 9854   5.351   2.524   6.940 -0.7882  0.4309  0.3489
   98SAPE   H3X 9855   5.246   2.546   6.969  0.0307  0.2473  3.9519
   98SAPE   H3Y 9856   5.340   2.426   6.889 -0.7380  0.3924  0.4112
   98SAPE   C34 9857   5.405   2.644   6.853 -0.7225 -0.2086 -0.3624
   98SAPE   H4X 9858   5.501   2.602   6.817 -0.4784  0.3893 -0.4124
   98SAPE   H4Y 9859   5.426   2.732   6.917 -1.5338 -0.1259 -0.1979
   98SAPE   C35 9860   5.311   2.689   6.731 -0.1379 -0.5242  0.6164
   98SAPE   H5X 9861   5.218   2.697   6.792  0.6096 -1.8790  1.9964
   98SAPE   H5Y 9862   5.306   2.601   6.664 -1.1480  1.1496 -1.6494
   98SAPE   C36 9863   5.358   2.831   6.686  0.8747 -0.1287 -0.1389
   98SAPE   H6X 9864   5.466   2.824   6.661  0.8711 -2.0210  0.2344
   98SAPE   H6Y 9865   5.334   2.905   6.765  1.2177 -0.4259  0.2501
   98SAPE   C37 9866   5.275   2.878   6.559 -0.3960  0.3342 -0.9906
   98SAPE   H7X 9867   5.171   2.902   6.593 -0.2147 -0.7681  0.4396
   98SAPE   H7Y 9868   5.265   2.796   6.485 -1.3478 -1.7399  1.3037
   98SAPE   C38 9869   5.339   2.992   6.480 -0.5341 -0.7725  0.0061
   98SAPE   H8X 9870   5.438   2.965   6.436  0.6747  0.4481  1.8487
   98SAPE   H8Y 9871   5.354   3.078   6.549 -0.2057 -2.2241  1.8061
   98SAPE   C39 9872   5.265   3.047   6.353  0.3648 -0.2353  0.0309
   98SAPE   H9X 9873   5.322   3.131   6.308  1.6709 -0.8382  0.5401
   98SAPE   H9Y 9874   5.175   3.106   6.381  2.0203  1.8657  1.2586
   98SAPE  C310 9875   5.226   2.950   6.253  0.1131  0.8630  0.8734
   98SAPE  H10X 9876   5.126   2.906   6.272  0.1641 -2.0809 -3.9690
   98SAPE  H10Y 9877   5.287   2.858   6.269  0.0892  0.7978  0.5900
   98SAPE  C311 9878   5.233   2.996   6.107  0.3205  0.3099 -0.6345
   98SAPE  H11X 9879   5.196   2.906   6.054  0.9728 -0.2967 -0.0744
   98SAPE  H11Y 9880   5.340   3.011   6.081  0.8381  1.7980  1.9379
   98SAPE  C312 9881   5.151   3.125   6.089  0.1399 -0.0353  0.4768
   98SAPE  H12X 9882   5.204   3.208   6.141 -1.1082 -0.2439  2.1966
   98SAPE  H12Y 9883   5.047   3.111   6.127 -0.3218 -1.1259 -1.0879
   98SAPE  C313 9884   5.145   3.175   5.947  0.0905 -0.0760  0.9820
   98SAPE  H13X 9885   5.068   3.255   5.936  0.5232  0.2124 -0.1234
   98SAPE  H13Y 9886   5.107   3.092   5.884  0.2192 -1.2004  2.3435
   98SAPE  C314 9887   5.277   3.234   5.893  0.0497  0.3079 -0.0412
   98SAPE  H14X 9888   5.353   3.153   5.889  0.4968  0.7525 -0.7385
   98SAPE  H14Y 9889   5.319   3.309   5.964 -0.0372 -1.0966  1.5605
   98SAPE  C315 9890   5.256   3.297   5.753 -0.2523 -0.5087  1.0607
   98SAPE  H15X 9891   5.347   3.348   5.713 -0.3580 -1.7716 -0.8613
   98SAPE  H15Y 9892   5.189   3.384   5.771 -0.4351 -0.6618  1.1123
   98SAPE  C316 9893   5.182   3.212   5.646 -0.0097 -0.1587  0.1802
   98SAPE  H16X 9894   5.154   3.287   5.569  1.2626 -1.4416 -1.5955
   98SAPE  H16Y 9895   5.085   3.178   5.688 -0.1770  0.3752  0.2300
   98SAPE  C317 9896   5.264   3.088   5.604  0.3423 -0.3012 -0.2690
   98SAPE  H17X 9897   5.274   3.018   5.690  0.5380 -0.1825 -0.1960
   98SAPE  H17Y 9898   5.364   3.114   5.566  0.0811  2.3727  0.6505
   98SAPE  C318 9899   5.198   2.995   5.502  1.1358 -0.1697  0.3848
   98SAPE  H18X 9900   5.181   3.054   5.410 -1.7212 -1.6359 -0.1322
   98SAPE  H18Y 9901   5.100   2.951   5.532  1.1751  0.2158  1.0936
   98SAPE  H18Z 9902   5.257   2.907   5.466 -0.9553 -1.2847 -0.5477
   99SAPE     N 9903   6.273   2.026   8.214 -0.1448  0.4653  0.6292
   99SAPE   HN1 9904   6.279   1.977   8.122 -0.6302 -2.0127  1.8409
   99SAPE   HN2 9905   6.299   1.949   8.278 -0.6605  0.3334  0.6828
   99SAPE   HN3 9906   6.178   2.062   8.236  0.2400  0.4554  2.4558
   99SAPE   C12 9907   6.372   2.133   8.227 -0.0377 -0.5834  0.4878
   99SAPE  H12A 9908   6.465   2.084   8.189 -0.0894  0.9104 -1.7670
   99SAPE  H12B 9909   6.372   2.166   8.333 -2.6203  0.2275  0.3072
   99SAPE   C11 9910   6.332   2.247   8.140  0.1011  0.0824  0.1638
   99SAPE  H11A 9911   6.407   2.329   8.128 -0.0282  0.0006 -1.4791
   99SAPE  H11B 9912   6.253   2.302   8.196 -0.3257 -2.4559  2.2212
   99SAPE     P 9913   6.363   2.214   7.887 -0.1121 -0.0026 -0.0973
   99SAPE   O13 9914   6.407   2.354   7.870  0.4902 -0.3828 -0.2054
   99SAPE   O14 9915   6.462   2.106   7.895 -0.1503  0.4314 -0.1500
   99SAPE   O12 9916   6.272   2.205   8.014 -0.0604  0.0481  0.2811
   99SAPE   O11 9917   6.259   2.188   7.774  0.2927  0.5233  0.1828
   99SAPE    C1 9918   6.174   2.071   7.763  0.1150  0.0157 -0.2184
   99SAPE    HA 9919   6.219   1.977   7.803 -0.3186 -0.2955 -0.4436
   99SAPE    HB 9920   6.091   2.089   7.834  1.3224 -3.2625  2.2683
   99SAPE    C2 9921   6.139   2.023   7.622  0.1537  0.3595  0.2806
   99SAPE    HS 9922   6.106   1.917   7.624  2.2365 -0.3232  2.2795
   99SAPE   O21 9923   6.256   2.029   7.535  0.2065  0.3428 -0.2401
   99SAPE   C21 9924   6.362   1.949   7.553 -0.0805  0.0100 -0.6965
   99SAPE   O22 9925   6.373   1.861   7.641 -0.6473  0.0242  0.7974
   99SAPE   C22 9926   6.468   1.971   7.445 -0.1323  0.1639  0.6605
   99SAPE   H2R 9927   6.490   2.079   7.457  1.2147  0.5241 -3.6177
   99SAPE   H2S 9928   6.555   1.909   7.474 -1.2023 -2.5246 -1.4532
   99SAPE    C3 9929   6.020   2.109   7.571 -0.4825 -0.2378 -0.5523
   99SAPE    HX 9930   6.047   2.216   7.561  0.1467 -0.4287 -0.9171
   99SAPE    HY 9931   5.945   2.094   7.652  0.7307  1.1044  0.8947
   99SAPE   O31 9932   5.977   2.056   7.443 -0.0068  0.4207 -0.6201
   99SAPE   C31 9933   5.858   2.099   7.402 -0.3318 -0.0212  0.0418
   99SAPE   O32 9934   5.784   2.166   7.466  0.7402  0.3262  0.2691
   99SAPE   C32 9935   5.830   2.048   7.267 -0.6871  0.3051  0.2525
   99SAPE   H2X 9936   5.857   1.940   7.268 -4.1816 -0.7179 -0.9376
   99SAPE   H2Y 9937   5.896   2.099   7.194 -1.2260  0.1101 -0.3792
   99SAPE   C23 9938   6.434   1.926   7.302 -0.3835  0.0863  0.0208
   99SAPE   H3R 9939   6.349   1.986   7.265  0.0156 -0.8988 -2.7179
   99SAPE   H3S 9940   6.398   1.821   7.298 -1.3532  0.4466 -1.2543
   99SAPE   C24 9941   6.555   1.937   7.202  0.7493 -0.0796 -0.2070
   99SAPE   H4R 9942   6.533   1.890   7.104 -1.6439 -2.1339  1.1926
   99SAPE   H4S 9943   6.641   1.878   7.242  0.9134  0.5359  0.3599
   99SAPE   C25 9944   6.595   2.079   7.195 -0.4897  0.1642  0.1315
   99SAPE   H5R 9945   6.641   2.122   7.286  3.1117  0.4967 -1.6553
   99SAPE   C26 9946   6.585   2.160   7.084  0.4907 -0.3126  0.1768
   99SAPE   H6R 9947   6.601   2.268   7.100 -0.3070 -0.2603  0.6608
   99SAPE   C27 9948   6.538   2.113   6.946 -0.1502 -0.6961 -0.1213
   99SAPE   H7R 9949   6.508   2.203   6.888  0.6788  0.8490  1.7071
   99SAPE   H7S 9950   6.440   2.062   6.947 -1.7248  2.0026 -1.8615
   99SAPE   C28 9951   6.635   2.028   6.864  0.2852 -0.1827  0.1065
   99SAPE   H8R 9952   6.701   1.965   6.925 -2.2706 -1.5720  1.6408
   99SAPE   C29 9953   6.616   2.009   6.727  0.2143 -0.1144  1.2653
   99SAPE   H9R 9954   6.693   1.950   6.675  0.8748  1.2542  0.6255
   99SAPE  C210 9955   6.500   2.062   6.641 -1.0067  0.6907 -0.1559
   99SAPE  H10R 9956   6.409   2.073   6.704  0.7590 -0.3184  2.7224
   99SAPE  H10S 9957   6.482   1.993   6.555 -0.0481 -0.3726  0.4672
   99SAPE  C211 9958   6.543   2.192   6.588 -0.6005 -1.0160  0.3489
   99SAPE  H11R 9959   6.540   2.273   6.661 -2.2693  0.3962 -1.1828
   99SAPE  C212 9960   6.578   2.225   6.464 -0.4818  0.3713 -0.5288
   99SAPE  H12R 9961   6.594   2.331   6.441  1.5564  0.1156 -0.4697
   99SAPE  C213 9962   6.605   2.138   6.347  0.2745 -0.3184 -0.0317
   99SAPE  H13R 9963   6.571   2.032   6.353 -0.3406 -0.1011  0.5188
   99SAPE  H13S 9964   6.714   2.144   6.328 -0.1796  3.6510 -2.4947
   99SAPE  C214 9965   6.526   2.191   6.227 -0.4861  0.5219  0.1190
   99SAPE  H14R 9966   6.417   2.190   6.239 -1.2887 -1.3901 -4.9075
   99SAPE  C215 9967   6.571   2.220   6.103  0.1795  0.9060 -0.1715
   99SAPE  H15R 9968   6.502   2.237   6.019  1.6131 -0.2878 -1.6569
   99SAPE  C216 9969   6.722   2.200   6.058 -0.0584 -0.1100 -0.6549
   99SAPE  H16R 9970   6.768   2.133   6.134 -4.3583 -1.6208  0.8845
   99SAPE  H16S 9971   6.775   2.298   6.049 -0.7297  0.4148  0.7344
   99SAPE  C217 9972   6.742   2.123   5.931  0.4030  0.0728 -0.0337
   99SAPE  H17R 9973   6.713   2.018   5.954  1.1552 -0.0021  0.5879
   99SAPE  H17S 9974   6.849   2.123   5.901  0.3153  0.1834 -0.3561
   99SAPE  C218 9975   6.663   2.179   5.809  1.4885 -0.1424  0.0330
   99SAPE  H18R 9976   6.633   2.286   5.814 -1.2487 -0.8681  1.7165
   99SAPE  H18S 9977   6.565   2.126   5.819  0.2575  1.5558 -2.0599
   99SAPE  C219 9978   6.727   2.136   5.677 -0.3370  0.2254  0.5002
   99SAPE  H19R 9979   6.769   2.034   5.674  1.8160  1.0747 -2.0144
   99SAPE  H19S 9980   6.821   2.195   5.683  1.2308 -2.1916  0.8643
   99SAPE  C220 9981   6.653   2.153   5.545 -0.3256  0.1585 -0.0803
   99SAPE  H20R 9982   6.604   2.252   5.534 -1.8600 -0.5135  0.3527
   99SAPE  H20S 9983   6.580   2.069   5.535  0.8876 -0.9686  0.2713
   99SAPE  H20T 9984   6.712   2.142   5.452 -1.4124 -4.2514 -0.4820
   99SAPE   C33 9985   5.685   2.066   7.221  0.4780  0.4449  0.2182
   99SAPE   H3X 9986   5.624   2.031   7.307  1.0630 -1.6142 -0.1488
   99SAPE   H3Y 9987   5.658   1.995   7.140  1.6575 -1.5538  1.4958
   99SAPE   C34 9988   5.639   2.209   7.180  0.2968 -0.4543  0.1384
   99SAPE   H4X 9989   5.632   2.284   7.262  0.4952 -0.7028  0.3796
   99SAPE   H4Y 9990   5.537   2.212   7.134 -0.3599 -0.9861  1.4990
   99SAPE   C35 9991   5.743   2.283   7.085  1.0860  0.4411 -0.0546
   99SAPE   H5X 9992   5.844   2.290   7.130  0.6724  1.0580  0.8013
   99SAPE   H5Y 9993   5.714   2.390   7.095  1.6560  0.5229  0.7731
   99SAPE   C36 9994   5.749   2.241   6.938 -0.0108  0.3064  0.3539
   99SAPE   H6X 9995   5.678   2.304   6.881 -1.7991 -2.9576 -1.3374
   99SAPE   H6Y 9996   5.698   2.142   6.929  0.7275  0.1281 -3.7327
   99SAPE   C37 9997   5.894   2.246   6.888 -0.3465 -0.4247 -0.0574
   99SAPE   H7X 9998   5.965   2.203   6.962 -0.1379 -0.1543 -0.0992
   99SAPE   H7Y 9999   5.926   2.350   6.866 -1.2977 -0.0321  0.3506
   99SAPE   C3810000   5.931   2.187   6.754  0.0917  0.4061  0.9431
   99SAPE   H8X10001   5.882   2.088   6.741  0.8527  0.2726 -1.2567
   99SAPE   H8Y10002   6.042   2.175   6.750  0.0889  0.8115 -1.7415
   99SAPE   C3910003   5.908   2.271   6.627 -0.2060  0.5846  0.0759
   99SAPE   H9X10004   5.999   2.331   6.605  0.2904 -0.5671 -1.1207
   99SAPE   H9Y10005   5.828   2.345   6.648  0.0726  0.7647  0.5117
   99SAPE  C31010006   5.882   2.186   6.502 -0.5448  1.0135 -0.5595
   99SAPE  H10X10007   5.794   2.123   6.526 -0.0701 -0.1748 -1.8037
   99SAPE  H10Y10008   5.973   2.127   6.480 -0.2159  0.9355  0.9258
   99SAPE  C31110009   5.839   2.287   6.387 -0.0714  0.0990  0.4805
   99SAPE  H11X10010   5.920   2.364   6.392  0.4757 -0.4601  0.3178
   99SAPE  H11Y10011   5.741   2.333   6.409 -0.4567  0.2356 -1.3429
   99SAPE  C31210012   5.858   2.240   6.242 -0.2443 -0.2193 -0.0386
   99SAPE  H12X10013   5.787   2.159   6.212  0.9079 -1.2917  0.0417
   99SAPE  H12Y10014   5.962   2.207   6.223 -0.9506 -1.4838 -2.1095
   99SAPE  C31310015   5.843   2.355   6.142 -0.5910  0.2164 -0.2134
   99SAPE  H13X10016   5.928   2.426   6.144  0.1869 -0.7016  1.3604
   99SAPE  H13Y10017   5.749   2.407   6.168  0.0644 -0.5289  4.4712
   99SAPE  C31410018   5.839   2.298   5.998  0.1137  0.3148  0.0125
   99SAPE  H14X10019   5.771   2.211   6.012 -0.3522  0.6177 -0.3385
   99SAPE  H14Y10020   5.940   2.271   5.959  1.6190  3.7857  1.1419
   99SAPE  C31510021   5.769   2.387   5.892 -0.0972  0.5039 -0.2752
   99SAPE  H15X10022   5.833   2.474   5.865  1.3951 -1.0993 -2.2491
   99SAPE  H15Y10023   5.676   2.431   5.932  0.9958  1.2663  1.5488
   99SAPE  C31610024   5.745   2.306   5.758  0.3077  0.7596 -0.9243
   99SAPE  H16X10025   5.704   2.209   5.793 -2.2491  1.1733 -2.5041
   99SAPE  H16Y10026   5.846   2.295   5.715  0.5624 -0.4465 -0.0609
   99SAPE  C31710027   5.640   2.364   5.661  0.8812 -0.2388  0.3079
   99SAPE  H17X10028   5.660   2.344   5.554 -2.6445  2.0221 -0.9368
   99SAPE  H17Y10029   5.647   2.475   5.672  0.6353 -0.3746  2.2368
   99SAPE  C31810030   5.496   2.327   5.677 -0.0463  1.0752 -0.0582
   99SAPE  H18X10031   5.479   2.318   5.786  0.9435 -1.0235 -0.0312
   99SAPE  H18Y10032   5.478   2.226   5.635  1.0503  0.5112  0.7851
   99SAPE  H18Z10033   5.426   2.394   5.622  0.1233  0.4375 -1.0835
  100SAPE     N10034   1.551   0.368   8.035  0.1318 -0.1652  0.6144
  100SAPE   HN110035   1.630   0.436   8.044  0.8530 -0.4472 -2.3558
  100SAPE   HN210036   1.524   0.324   8.125 -0.5638  1.2357  1.1208
  100SAPE   HN310037   1.597   0.296   7.976  0.1409  1.0244 -0.9053
  100SAPE   C1210038   1.434   0.443   7.972 -0.2796  0.0142 -0.3116
  100SAPE  H12A10039   1.404   0.528   8.038  2.0724  0.5332  0.1771
  100SAPE  H12B10040   1.359   0.365   7.945  0.2022  0.3337 -2.8576
  100SAPE   C1110041   1.479   0.508   7.840 -0.2522  0.2519  0.6773
  100SAPE  H11A10042   1.392   0.553   7.787 -1.0953  0.8052  2.4435
  100SAPE  H11B10043   1.524   0.431   7.774 -1.6769  0.5730 -0.7590
  100SAPE     P10044   1.609   0.733   7.792 -0.0275 -0.0688  0.3552
  100SAPE   O1310045   1.494   0.824   7.830 -0.0049 -0.1935 -0.1613
  100SAPE   O1410046   1.737   0.789   7.826 -0.2988 -0.2519  0.1240
  100SAPE   O1210047   1.591   0.592   7.861 -0.0619  0.0716  0.2939
  100SAPE   O1110048   1.604   0.693   7.641 -0.1842 -0.1529 -0.2133
  100SAPE    C110049   1.707   0.634   7.570 -0.4834  0.2219 -0.7586
  100SAPE    HA10050   1.768   0.721   7.538  0.4441  0.2525  0.9710
  100SAPE    HB10051   1.767   0.560   7.627  0.0944 -1.5651 -3.4985
  100SAPE    C210052   1.651   0.558   7.452 -0.2746  0.0845  0.3836
  100SAPE    HS10053   1.726   0.504   7.390  1.3384  1.1508  1.3270
  100SAPE   O2110054   1.579   0.648   7.363 -0.3429  0.3223 -0.7564
  100SAPE   C2110055   1.658   0.721   7.279 -0.9550  0.4712 -0.1243
  100SAPE   O2210056   1.781   0.726   7.286  0.7413 -0.4651 -0.2796
  100SAPE   C2210057   1.564   0.798   7.192 -0.2176 -0.4049 -0.1007
  100SAPE   H2R10058   1.469   0.742   7.186 -2.8423  3.8123 -2.4786
  100SAPE   H2S10059   1.547   0.896   7.242 -2.8559 -1.2984  0.8906
  100SAPE    C310060   1.548   0.449   7.503 -0.1070 -0.8289 -0.3098
  100SAPE    HX10061   1.463   0.501   7.551 -0.0796 -0.0782 -1.0571
  100SAPE    HY10062   1.593   0.387   7.584 -1.3382  0.0920  1.1302
  100SAPE   O3110063   1.509   0.368   7.386  0.1179 -0.2172 -0.7857
  100SAPE   C3110064   1.403   0.412   7.318  0.0155 -0.0642 -1.0653
  100SAPE   O3210065   1.336   0.508   7.346 -0.1217 -0.0530  0.8018
  100SAPE   C3210066   1.394   0.320   7.200  0.3075 -0.5860  0.4442
  100SAPE   H2X10067   1.337   0.227   7.221 -0.0054 -0.8636 -1.5140
  100SAPE   H2Y10068   1.499   0.303   7.166 -0.2343  0.2997 -1.7750
  100SAPE   C2310069   1.627   0.823   7.049 -0.2974 -0.4656 -0.8524
  100SAPE   H3R10070   1.732   0.854   7.071 -0.7239 -0.0303  0.7605
  100SAPE   H3S10071   1.577   0.907   6.997  0.4162 -0.5826 -1.7445
  100SAPE   C2410072   1.620   0.698   6.966  0.8242  0.2164 -0.2558
  100SAPE   H4R10073   1.623   0.610   7.033 -0.9305 -1.0083 -1.6713
  100SAPE   H4S10074   1.707   0.681   6.900  1.2824  0.1904  0.3484
  100SAPE   C2510075   1.492   0.683   6.886  0.0548  0.9882 -0.3060
  100SAPE   H5R10076   1.396   0.685   6.940  1.1107  0.7014  1.6771
  100SAPE   C2610077   1.489   0.662   6.749  0.9042  0.6493  0.6361
  100SAPE   H6R10078   1.393   0.668   6.696  2.1421  2.8537 -1.5751
  100SAPE   C2710079   1.605   0.651   6.652 -0.1031  0.2496  0.4477
  100SAPE   H7R10080   1.700   0.673   6.705  1.3617 -1.6829 -1.2682
  100SAPE   H7S10081   1.586   0.722   6.569 -0.1297 -0.2938 -0.0154
  100SAPE   C2810082   1.630   0.505   6.616 -0.2003  0.2220  0.0200
  100SAPE   H8R10083   1.637   0.443   6.707  1.4910  1.1927  0.5946
  100SAPE   C2910084   1.637   0.456   6.495 -0.6569 -0.5359 -0.8969
  100SAPE   H9R10085   1.677   0.353   6.488  0.5622 -0.0789 -0.9061
  100SAPE  C21010086   1.619   0.531   6.370 -0.1995 -0.1939  1.0201
  100SAPE  H10R10087   1.548   0.617   6.376 -0.3680 -0.1423 -1.1165
  100SAPE  H10S10088   1.567   0.467   6.296 -0.1779 -0.9184  1.6170
  100SAPE  C21110089   1.753   0.583   6.317  0.0897  0.3884  0.1585
  100SAPE  H11R10090   1.824   0.620   6.393  1.7162 -0.9055 -0.6765
  100SAPE  C21210091   1.795   0.579   6.189  0.6654 -0.0202 -0.6670
  100SAPE  H12R10092   1.894   0.616   6.159  1.4693 -0.7727  0.9619
  100SAPE  C21310093   1.721   0.540   6.065 -0.2432  0.2465 -0.8963
  100SAPE  H13R10094   1.761   0.611   5.989  3.3132  0.1419  0.6843
  100SAPE  H13S10095   1.614   0.570   6.077 -0.5154 -1.0545  0.1534
  100SAPE  C21410096   1.737   0.398   6.009  0.0298 -0.2016  0.2330
  100SAPE  H14R10097   1.672   0.324   6.059 -1.9041  1.5612  0.4753
  100SAPE  C21510098   1.814   0.356   5.907 -0.1257  0.5167  0.0645
  100SAPE  H15R10099   1.811   0.252   5.872 -1.1811 -0.5045  2.8946
  100SAPE  C21610100   1.902   0.441   5.817  0.5954  0.0397  0.1763
  100SAPE  H16R10101   2.001   0.392   5.809  0.1737 -1.0963  1.4916
  100SAPE  H16S10102   1.928   0.534   5.871  0.5447 -0.8312  1.7295
  100SAPE  C21710103   1.848   0.476   5.678  0.7138 -0.4732  0.2195
  100SAPE  H17R10104   1.925   0.533   5.622 -0.7469  1.9644  0.5596
  100SAPE  H17S10105   1.762   0.546   5.686  0.1401 -0.6109 -3.2215
  100SAPE  C21810106   1.799   0.360   5.591 -0.6228  0.8419  0.3377
  100SAPE  H18R10107   1.779   0.271   5.654  1.4178 -0.0692 -0.2046
  100SAPE  H18S10108   1.882   0.339   5.519 -2.2933 -1.3350 -1.0901
  100SAPE  C21910109   1.674   0.392   5.501  0.3897  0.4960  0.3696
  100SAPE  H19R10110   1.690   0.488   5.447 -2.2940 -0.8237 -3.1651
  100SAPE  H19S10111   1.590   0.410   5.571 -2.9494 -0.9402 -2.9139
  100SAPE  C22010112   1.625   0.281   5.403 -0.2000 -0.1898  0.0815
  100SAPE  H20R10113   1.525   0.312   5.364 -1.4473  0.5659  3.5244
  100SAPE  H20S10114   1.602   0.181   5.446  1.1856 -0.3343  0.5230
  100SAPE  H20T10115   1.693   0.268   5.316 -0.8449 -0.1507 -0.4360
  100SAPE   C3310116   1.312   0.387   7.091 -0.9501 -0.2638 -0.3895
  100SAPE   H3X10117   1.355   0.487   7.070  2.1223 -0.6337  3.0918
  100SAPE   H3Y10118   1.208   0.399   7.127 -0.7905 -0.0208 -0.0020
  100SAPE   C3410119   1.310   0.300   6.965  0.1655  0.3715  0.1149
  100SAPE   H4X10120   1.236   0.335   6.889  0.6955  0.9325 -0.1512
  100SAPE   H4Y10121   1.262   0.204   6.996 -0.2354  0.7262  0.6128
  100SAPE   C3510122   1.442   0.289   6.887 -0.6348  0.6071  0.0074
  100SAPE   H5X10123   1.507   0.229   6.954 -0.6536 -0.1300 -0.6208
  100SAPE   H5Y10124   1.481   0.390   6.863  0.4526  0.6578  1.8180
  100SAPE   C3610125   1.433   0.211   6.757 -0.1694 -0.2779  0.7849
  100SAPE   H6X10126   1.389   0.113   6.783 -0.0655 -0.1435  1.4893
  100SAPE   H6Y10127   1.534   0.183   6.720 -0.2998 -1.7390  1.4646
  100SAPE   C3710128   1.348   0.279   6.643  0.3510  0.1022  0.3119
  100SAPE   H7X10129   1.401   0.370   6.608 -0.9175  0.9344  0.4989
  100SAPE   H7Y10130   1.251   0.310   6.687 -0.3353  0.2538 -1.2449
  100SAPE   C3810131   1.314   0.181   6.531 -0.4138  0.0010 -0.3476
  100SAPE   H8X10132   1.260   0.096   6.579 -0.3434 -0.6516 -1.3948
  100SAPE   H8Y10133   1.407   0.138   6.487 -0.8116 -0.0439 -1.1687
  100SAPE   C3910134   1.212   0.230   6.428 -0.2808  0.2431 -0.1679
  100SAPE   H9X10135   1.122   0.274   6.476  0.7989  2.0154  0.3442
  100SAPE   H9Y10136   1.182   0.145   6.364 -1.0408  0.6285 -0.3325
  100SAPE  C31010137   1.260   0.335   6.331 -0.7687 -0.5853  0.4439
  100SAPE  H10X10138   1.360   0.305   6.291 -0.7987  0.5712 -0.5734
  100SAPE  H10Y10139   1.281   0.426   6.391 -1.7674 -0.4976  0.6762
  100SAPE  C31110140   1.165   0.362   6.212 -0.7328  0.1731 -0.7638
  100SAPE  H11X10141   1.065   0.394   6.248  0.2398  3.7947 -0.9207
  100SAPE  H11Y10142   1.158   0.263   6.161  0.5842 -1.0093  1.2008
  100SAPE  C31210143   1.218   0.460   6.107 -0.1932  0.0021  0.0534
  100SAPE  H12X10144   1.217   0.565   6.143  0.6618 -0.7635  2.5039
  100SAPE  H12Y10145   1.151   0.462   6.018  1.8251  2.2171 -1.5434
  100SAPE  C31310146   1.356   0.426   6.044  0.0930  1.0548 -0.3041
  100SAPE  H13X10147   1.339   0.317   6.032 -0.3879  1.0128  0.6880
  100SAPE  H13Y10148   1.437   0.442   6.118 -0.4265 -0.6513  0.6790
  100SAPE  C31410149   1.383   0.489   5.907  0.0680 -0.1342  0.4952
  100SAPE  H14X10150   1.309   0.452   5.833  0.6079 -1.1737  0.4513
  100SAPE  H14Y10151   1.483   0.457   5.868  1.4242  3.5453  0.5378
  100SAPE  C31510152   1.381   0.643   5.912  0.1704  0.7345 -0.1238
  100SAPE  H15X10153   1.407   0.674   6.016  2.0301 -0.6253 -0.1156
  100SAPE  H15Y10154   1.274   0.669   5.902  0.1573  1.7171  1.9960
  100SAPE  C31610155   1.481   0.706   5.806  0.7270 -0.6971 -0.6459
  100SAPE  H16X10156   1.585   0.672   5.825  1.4144  0.1062 -2.6474
  100SAPE  H16Y10157   1.488   0.814   5.830 -0.7782 -0.3048 -1.7711
  100SAPE  C31710158   1.451   0.672   5.660 -0.3881 -0.3847  0.3183
  100SAPE  H17X10159   1.344   0.695   5.646  0.2673  2.4725 -0.5598
  100SAPE  H17Y10160   1.455   0.561   5.657 -1.6104 -0.5436  2.5152
  100SAPE  C31810161   1.537   0.729   5.545  0.8168 -1.1673  0.7855
  100SAPE  H18X10162   1.645   0.704   5.551  0.8737 -0.8017  1.4246
  100SAPE  H18Y10163   1.521   0.839   5.542 -3.0199 -1.6050  0.4268
  100SAPE  H18Z10164   1.498   0.694   5.446  3.2048 -0.2593 -0.5541
  101SAPE     N10165   0.866   0.986   8.084 -0.7373  0.5225 -0.8123
  101SAPE   HN110166   0.909   0.931   8.007  0.1758  1.1772 -0.7811
  101SAPE   HN210167   0.795   0.927   8.133 -1.8593  1.9815 -0.5978
  101SAPE   HN310168   0.819   1.068   8.040 -3.5443  0.5963  1.9579
  101SAPE   C1210169   0.981   1.017   8.177  0.3283 -0.2376  1.0188
  101SAPE  H12A10170   0.996   0.932   8.246  1.2908 -1.7782 -0.9960
  101SAPE  H12B10171   0.950   1.108   8.233 -2.5988 -0.8264  0.5481
  101SAPE   C1110172   1.108   1.048   8.093 -0.2366 -0.8635 -0.3122
  101SAPE  H11A10173   1.121   0.975   8.010 -0.1293 -0.8568 -0.3026
  101SAPE  H11B10174   1.194   1.030   8.162  0.1920  0.8726 -0.3641
  101SAPE     P10175   1.151   1.236   7.916 -0.1997  0.3364  0.4358
  101SAPE   O1310176   1.089   1.370   7.909  0.5544  0.0509 -0.0347
  101SAPE   O1410177   1.295   1.235   7.895 -0.0005  0.1267 -0.4161
  101SAPE   O1210178   1.122   1.185   8.058  0.0889  0.0080  0.2218
  101SAPE   O1110179   1.079   1.137   7.817  0.4679  0.5342  0.0133
  101SAPE    C110180   1.131   1.125   7.687  0.0520  0.6862  0.2608
  101SAPE    HA10181   1.193   1.214   7.666 -1.2987  1.8549  1.0028
  101SAPE    HB10182   1.186   1.029   7.679  0.3705  0.9692 -1.1467
  101SAPE    C210183   1.013   1.134   7.586 -1.1655  0.6816 -0.4920
  101SAPE    HS10184   0.932   1.060   7.605 -0.7425 -0.1329 -1.6658
  101SAPE   O2110185   1.064   1.113   7.452 -0.4119  0.3344 -0.3444
  101SAPE   C2110186   1.068   0.981   7.406  0.0864 -0.2732  0.4102
  101SAPE   O2210187   1.018   0.887   7.460  0.4264 -0.5947  0.0641
  101SAPE   C2210188   1.146   0.988   7.278 -0.6199 -1.0011 -0.1873
  101SAPE   H2R10189   1.109   1.070   7.213 -1.8827 -0.0303  1.6686
  101SAPE   H2S10190   1.248   1.022   7.308 -0.0666 -1.8304 -1.0684
  101SAPE    C310191   0.943   1.273   7.597  0.1975  0.9352 -0.3450
  101SAPE    HX10192   1.020   1.352   7.585  0.0595  1.1847  0.3839
  101SAPE    HY10193   0.910   1.276   7.703 -1.1648  0.9507 -0.7460
  101SAPE   O3110194   0.834   1.281   7.503  0.3330  0.1041 -0.1126
  101SAPE   C3110195   0.726   1.337   7.558  0.7438 -0.3276 -0.0565
  101SAPE   O3210196   0.712   1.374   7.670  0.3702 -0.6447 -0.4622
  101SAPE   C3210197   0.617   1.340   7.450 -0.1707  0.2440 -0.1521
  101SAPE   H2X10198   0.569   1.241   7.459 -0.5694  0.5865  1.7781
  101SAPE   H2Y10199   0.670   1.354   7.353  0.2070  2.7674  0.3533
  101SAPE   C2310200   1.167   0.862   7.186 -0.2336  0.1780  0.0562
  101SAPE   H3R10201   1.176   0.767   7.243  0.0049  1.4933  2.3527
  101SAPE   H3S10202   1.264   0.880   7.135 -1.0122  1.1413 -1.1389
  101SAPE   C2410203   1.052   0.846   7.086  0.1370 -0.5018  0.6083
  101SAPE   H4R10204   1.056   0.928   7.012  0.1515 -1.1569 -0.1377
  101SAPE   H4S10205   0.958   0.864   7.143 -0.4682 -0.1189 -0.5000
  101SAPE   C2510206   1.040   0.715   7.008  0.0338  0.3808 -0.2208
  101SAPE   H5R10207   1.040   0.621   7.064  1.4281 -0.3145 -1.3248
  101SAPE   C2610208   1.064   0.705   6.876 -0.4955  0.4780  0.7291
  101SAPE   H6R10209   1.068   0.604   6.832 -4.0367 -0.5750  2.4386
  101SAPE   C2710210   1.060   0.811   6.773  1.0210 -0.0560 -0.3744
  101SAPE   H7R10211   1.156   0.811   6.717  1.3830 -2.6631  0.1497
  101SAPE   H7S10212   1.044   0.913   6.814 -0.2562 -0.7965  1.0541
  101SAPE   C2810213   0.943   0.789   6.680  0.5295  0.0596 -0.5692
  101SAPE   H8R10214   0.846   0.834   6.706  0.0525 -0.8649 -0.6970
  101SAPE   C2910215   0.954   0.737   6.558 -0.0153  0.2933 -0.3009
  101SAPE   H9R10216   0.861   0.731   6.500 -0.3179  1.4489  0.0389
  101SAPE  C21010217   1.075   0.675   6.492  0.7229  0.0589  0.1519
  101SAPE  H10R10218   1.052   0.575   6.450  3.6708 -0.4979 -0.3908
  101SAPE  H10S10219   1.151   0.656   6.570  1.9717  0.2432 -0.9759
  101SAPE  C21110220   1.120   0.758   6.373 -0.0680  0.3919  0.6638
  101SAPE  H11R10221   1.221   0.798   6.385  0.1349  0.8472 -2.0241
  101SAPE  C21210222   1.064   0.781   6.251  1.1867  0.0076  0.7790
  101SAPE  H12R10223   1.130   0.831   6.179  0.2246 -0.9219 -0.8126
  101SAPE  C21310224   0.926   0.736   6.201  0.5207  0.3216  0.6285
  101SAPE  H13R10225   0.859   0.824   6.210  0.7919  0.4282  1.7063
  101SAPE  H13S10226   0.891   0.660   6.274 -0.0436 -1.0775 -1.0251
  101SAPE  C21410227   0.932   0.683   6.065  0.6215  1.2549  0.4485
  101SAPE  H14R10228   0.934   0.573   6.061 -3.5671  0.9675  1.7000
  101SAPE  C21510229   0.949   0.743   5.947 -0.2274 -0.2009 -0.0496
  101SAPE  H15R10230   0.944   0.677   5.860  1.2663 -1.7712  0.9900
  101SAPE  C21610231   0.942   0.897   5.914  0.0149  0.7607  0.1376
  101SAPE  H16R10232   0.949   0.948   6.012 -1.1642  0.4643  0.3938
  101SAPE  H16S10233   0.847   0.933   5.870  0.1285  0.4383 -0.3735
  101SAPE  C21710234   1.057   0.935   5.831  0.0675 -0.1064  0.1044
  101SAPE  H17R10235   1.148   0.879   5.857  0.4475  1.3669  2.1830
  101SAPE  H17S10236   1.090   1.036   5.865  1.1746 -0.2982 -0.3627
  101SAPE  C21810237   1.024   0.919   5.685  0.7682  0.2905  0.4651
  101SAPE  H18R10238   0.913   0.910   5.678  0.8191 -0.8164  0.7999
  101SAPE  H18S10239   1.056   0.819   5.646 -3.5642 -1.2496  0.3214
  101SAPE  C21910240   1.073   1.025   5.586  0.3158 -0.2031  1.1767
  101SAPE  H19R10241   1.028   1.126   5.577 -0.5806 -0.6570  0.4472
  101SAPE  H19S10242   1.053   0.989   5.483  1.2336 -2.3432  1.6942
  101SAPE  C22010243   1.225   1.040   5.593 -0.5692 -0.6027 -0.8924
  101SAPE  H20R10244   1.276   1.085   5.505  1.6548 -0.1382  0.5347
  101SAPE  H20S10245   1.273   0.941   5.605  0.0165 -0.5513 -2.4764
  101SAPE  H20T10246   1.256   1.111   5.673  1.4142 -1.4042 -0.8795
  101SAPE   C3310247   0.508   1.451   7.458 -0.2709  0.4710 -0.0608
  101SAPE   H3X10248   0.449   1.440   7.551  1.2901  1.5285  1.1225
  101SAPE   H3Y10249   0.454   1.441   7.362  0.9588 -2.5650 -0.5530
  101SAPE   C3410250   0.564   1.590   7.452  0.3045  0.4524 -0.6606
  101SAPE   H4X10251   0.651   1.607   7.520  0.7604 -0.3078 -1.0414
  101SAPE   H4Y10252   0.484   1.663   7.477 -0.2106  0.3535 -1.9528
  101SAPE   C3510253   0.632   1.629   7.325  0.1902 -0.2393  0.1442
  101SAPE   H5X10254   0.577   1.581   7.242  0.0619 -0.7051  0.4932
  101SAPE   H5Y10255   0.732   1.581   7.317 -0.6094 -1.9671 -0.0164
  101SAPE   C3610256   0.645   1.782   7.321  0.1305 -0.0156  0.5200
  101SAPE   H6X10257   0.713   1.810   7.404  2.2732  2.2497 -1.7836
  101SAPE   H6Y10258   0.547   1.835   7.316  0.5202  0.6733 -0.0200
  101SAPE   C3710259   0.719   1.836   7.195  0.6879 -0.4909 -0.0569
  101SAPE   H7X10260   0.826   1.811   7.212  0.7434 -0.3418 -0.1886
  101SAPE   H7Y10261   0.700   1.945   7.200  1.0052 -0.4071 -0.6280
  101SAPE   C3810262   0.664   1.784   7.056 -0.0877  0.3115 -0.3706
  101SAPE   H8X10263   0.553   1.778   7.053 -0.1754  1.8294 -1.3566
  101SAPE   H8Y10264   0.700   1.681   7.037 -0.1013 -0.1156  1.7722
  101SAPE   C3910265   0.699   1.890   6.949 -0.2653 -0.4705 -0.6329
  101SAPE   H9X10266   0.794   1.946   6.959  0.0064 -0.9911 -0.2171
  101SAPE   H9Y10267   0.626   1.973   6.961  1.3843  1.2311 -1.8873
  101SAPE  C31010268   0.690   1.848   6.807 -0.4577 -0.0689  0.1227
  101SAPE  H10X10269   0.584   1.823   6.786 -0.4848 -1.8168  2.0735
  101SAPE  H10Y10270   0.761   1.764   6.790  1.3150  1.7474 -2.0110
  101SAPE  C31110271   0.735   1.949   6.702  0.5482 -0.6509 -0.3034
  101SAPE  H11X10272   0.843   1.972   6.713  0.4497  0.0459 -0.6922
  101SAPE  H11Y10273   0.678   2.038   6.737 -0.5213 -1.9731  1.4908
  101SAPE  C31210274   0.701   1.910   6.564  0.0408  0.1610  1.0812
  101SAPE  H12X10275   0.591   1.896   6.555  0.0746  0.8511 -0.9082
  101SAPE  H12Y10276   0.761   1.825   6.525 -1.3540 -0.7477  0.8584
  101SAPE  C31310277   0.730   2.027   6.469 -0.3160 -0.0665  0.2651
  101SAPE  H13X10278   0.833   2.063   6.493 -0.7448  0.8168  0.8559
  101SAPE  H13Y10279   0.671   2.115   6.501 -2.4128 -1.2856 -0.1015
  101SAPE  C31410280   0.716   1.994   6.321 -0.1347  0.4253  0.0101
  101SAPE  H14X10281   0.610   1.968   6.302 -0.5712  1.7636  0.5263
  101SAPE  H14Y10282   0.785   1.912   6.290 -0.4118  0.5157 -0.8714
  101SAPE  C31510283   0.772   2.107   6.227  0.0665  0.4885  0.8971
  101SAPE  H15X10284   0.882   2.119   6.242  0.9182 -3.1378 -1.2494
  101SAPE  H15Y10285   0.706   2.196   6.228 -0.1229  0.3498  0.6382
  101SAPE  C31610286   0.759   2.049   6.084 -0.1209  0.1700 -0.1665
  101SAPE  H16X10287   0.668   1.987   6.069  0.8721 -1.6181  0.7616
  101SAPE  H16Y10288   0.848   1.982   6.080  0.2536  0.5830  0.8755
  101SAPE  C31710289   0.761   2.147   5.965 -0.2442  0.5914  0.5585
  101SAPE  H17X10290   0.856   2.204   5.972  0.0033 -0.0417  3.2197
  101SAPE  H17Y10291   0.675   2.215   5.984 -0.3639 -0.1241  2.8925
  101SAPE  C31810292   0.749   2.079   5.829  0.4181  0.2824  0.5076
  101SAPE  H18X10293   0.729   2.152   5.748  0.5656 -1.3683 -1.0780
  101SAPE  H18Y10294   0.659   2.014   5.821  0.0837  0.4109  2.5862
  101SAPE  H18Z10295   0.844   2.028   5.803  1.3678  1.6731  1.1042
  102SAPE     N10296   0.460   2.809   7.585 -0.7459 -0.3142 -0.6757
  102SAPE   HN110297   0.539   2.747   7.612 -0.3724 -0.6627 -2.4395
  102SAPE   HN210298   0.497   2.906   7.581 -0.3937 -0.4645 -1.3062
  102SAPE   HN310299   0.380   2.807   7.651 -1.1797 -2.0388 -1.2086
  102SAPE   C1210300   0.410   2.764   7.458  0.7392 -0.1199 -0.1003
  102SAPE  H12A10301   0.453   2.827   7.377 -2.0826  2.1748 -0.0095
  102SAPE  H12B10302   0.300   2.778   7.449  0.8252 -0.8748 -4.2459
  102SAPE   C1110303   0.424   2.611   7.441  0.3038  0.3517  0.0272
  102SAPE  H11A10304   0.355   2.574   7.363 -0.2427  2.0380 -0.3206
  102SAPE  H11B10305   0.394   2.562   7.535  1.3410  0.3768  0.3918
  102SAPE     P10306   0.670   2.538   7.517  0.4629  0.2567 -0.2227
  102SAPE   O1310307   0.796   2.524   7.437  0.2412  0.1178 -0.0612
  102SAPE   O1410308   0.667   2.639   7.623  0.3893  0.2520  0.4348
  102SAPE   O1210309   0.555   2.575   7.413 -0.5303 -1.1290  0.4476
  102SAPE   O1110310   0.617   2.398   7.575 -0.1570 -0.2709 -1.0940
  102SAPE    C110311   0.557   2.310   7.478  0.0697  0.3140 -0.4196
  102SAPE    HA10312   0.460   2.352   7.444 -1.4982 -3.0805 -0.5799
  102SAPE    HB10313   0.617   2.287   7.388 -1.1555 -2.7931 -0.5950
  102SAPE    C210314   0.540   2.163   7.530 -0.1047 -0.9849  0.0167
  102SAPE    HS10315   0.529   2.175   7.640  0.4953  3.4419 -0.2177
  102SAPE   O2110316   0.656   2.086   7.509 -0.0303 -0.3429  0.9439
  102SAPE   C2110317   0.770   2.123   7.563  0.3851  0.9781  0.4538
  102SAPE   O2210318   0.794   2.195   7.655  0.9861  0.2041  0.0270
  102SAPE   C2210319   0.866   2.046   7.491 -0.1997  0.1362 -0.4976
  102SAPE   H2R10320   0.958   2.054   7.554 -0.9255 -2.2301  0.9672
  102SAPE   H2S10321   0.849   1.937   7.481  2.5081 -0.2593 -1.9247
  102SAPE    C310322   0.414   2.095   7.464 -0.8599 -1.0239  0.2298
  102SAPE    HX10323   0.318   2.144   7.492 -1.1274 -0.3783 -1.6967
  102SAPE    HY10324   0.415   1.989   7.495  1.4524 -1.5133 -1.2314
  102SAPE   O3110325   0.418   2.101   7.320 -0.0660 -0.2746 -0.0329
  102SAPE   C3110326   0.308   2.055   7.264 -0.5161 -0.7846 -0.3529
  102SAPE   O3210327   0.210   2.024   7.323  0.7934  0.5987 -0.0077
  102SAPE   C3210328   0.335   2.056   7.112  0.3654 -0.1828 -0.2399
  102SAPE   H2X10329   0.445   2.065   7.095  0.0919  0.4201 -1.9536
  102SAPE   H2Y10330   0.286   2.152   7.084  0.6644 -0.3677 -1.4840
  102SAPE   C2310331   0.902   2.118   7.354 -0.8092 -0.2946 -0.0089
  102SAPE   H3R10332   0.905   2.229   7.359 -1.5058 -0.3171  2.5294
  102SAPE   H3S10333   0.824   2.098   7.278 -0.0043  0.1202 -0.9664
  102SAPE   C2410334   1.035   2.063   7.307 -0.5718 -0.7004  0.5654
  102SAPE   H4R10335   1.046   1.954   7.321 -0.7536 -0.7976 -0.0251
  102SAPE   H4S10336   1.117   2.109   7.367  0.0014 -0.6803 -0.2096
  102SAPE   C2510337   1.066   2.109   7.170 -0.2176  0.3271  0.2516
  102SAPE   H5R10338   1.074   2.217   7.150  0.6865 -0.1010 -1.9650
  102SAPE   C2610339   1.094   2.030   7.060  0.3849  0.1996 -0.1243
  102SAPE   H6R10340   1.116   2.080   6.965 -1.1104  0.3599 -0.4228
  102SAPE   C2710341   1.097   1.880   7.060 -0.3247  0.3564 -0.5444
  102SAPE   H7R10342   1.012   1.844   6.997 -1.2204  1.8871 -0.2505
  102SAPE   H7S10343   1.076   1.829   7.157  1.0257  1.8670  0.5851
  102SAPE   C2810344   1.225   1.824   7.004  0.5321  0.3549 -0.1575
  102SAPE   H8R10345   1.299   1.796   7.080 -0.2146  0.5043  0.6342
  102SAPE   C2910346   1.251   1.808   6.875 -0.6241  0.2326 -0.2442
  102SAPE   H9R10347   1.351   1.767   6.852 -0.3302  0.1489  1.1181
  102SAPE  C21010348   1.167   1.832   6.748 -0.0757  0.0070  0.1548
  102SAPE  H10R10349   1.241   1.871   6.674  1.5944 -2.6996  0.2363
  102SAPE  H10S10350   1.089   1.910   6.759  0.3434  0.6375 -1.0610
  102SAPE  C21110351   1.106   1.703   6.689 -0.3957  0.0288  0.2443
  102SAPE  H11R10352   1.099   1.620   6.760  0.5214 -0.6126 -0.3947
  102SAPE  C21210353   1.052   1.682   6.569 -0.3036  0.3981 -1.0501
  102SAPE  H12R10354   1.009   1.584   6.546  0.7122 -0.0849 -0.9596
  102SAPE  C21310355   1.057   1.781   6.456 -0.1358  0.7159 -0.5233
  102SAPE  H13R10356   1.046   1.886   6.488 -0.6991  0.6880 -0.6163
  102SAPE  H13S10357   0.970   1.766   6.388  0.4150 -0.3276 -1.0268
  102SAPE  C21410358   1.186   1.761   6.380 -0.9714  0.3536 -0.6720
  102SAPE  H14R10359   1.280   1.787   6.431 -1.2902 -0.7920  0.5383
  102SAPE  C21510360   1.191   1.692   6.262  0.5044 -0.4832  0.3280
  102SAPE  H15R10361   1.290   1.690   6.213  0.6280 -1.5807  0.5751
  102SAPE  C21610362   1.082   1.629   6.179 -0.0322 -0.8407 -0.3436
  102SAPE  H16R10363   0.980   1.648   6.221  0.4342  1.4932 -0.1151
  102SAPE  H16S10364   1.093   1.519   6.174  2.2966 -0.6182 -2.9459
  102SAPE  C21710365   1.109   1.673   6.032  0.6832  0.9275  0.3433
  102SAPE  H17R10366   1.207   1.630   6.003  0.3127  0.6507 -0.5391
  102SAPE  H17S10367   1.109   1.784   6.022  0.7872  0.8953 -0.0420
  102SAPE  C21810368   1.017   1.605   5.929  0.1015 -0.1284  0.7199
  102SAPE  H18R10369   0.919   1.647   5.958  1.8598  4.2593  1.0327
  102SAPE  H18S10370   1.020   1.496   5.950  0.5853 -0.2432  0.0852
  102SAPE  C21910371   1.054   1.637   5.784 -0.4464  0.6039 -0.2311
  102SAPE  H19R10372   1.160   1.605   5.775 -0.2168  0.7444  1.5322
  102SAPE  H19S10373   1.055   1.747   5.764 -3.1829  0.7280 -0.1247
  102SAPE  C22010374   0.954   1.577   5.680 -0.6727  0.5011  0.2666
  102SAPE  H20R10375   0.961   1.467   5.665 -0.4626  0.4418  0.7826
  102SAPE  H20S10376   0.971   1.627   5.582 -1.1724 -0.3002 -0.2412
  102SAPE  H20T10377   0.853   1.602   5.720 -0.3949  0.0597  1.2596
  102SAPE   C3310378   0.268   1.933   7.040  0.3066  0.2777 -0.0024
  102SAPE   H3X10379   0.164   1.927   7.079  1.7843 -0.0211  4.4508
  102SAPE   H3Y10380   0.311   1.834   7.066 -1.1003 -0.0030  1.4363
  102SAPE   C3410381   0.266   1.954   6.888 -0.7238  0.0438  0.6743
  102SAPE   H4X10382   0.368   1.991   6.864 -0.3431 -1.8586 -0.8653
  102SAPE   H4Y10383   0.191   2.032   6.864 -1.5126 -0.9919 -0.3616
  102SAPE   C3510384   0.247   1.827   6.803 -0.0965 -0.2474 -0.3785
  102SAPE   H5X10385   0.148   1.780   6.822  0.3022 -0.4757  1.3359
  102SAPE   H5Y10386   0.328   1.766   6.849 -0.6074 -1.3235 -0.8613
  102SAPE   C3610387   0.256   1.863   6.654 -0.4740 -0.0839 -0.2144
  102SAPE   H6X10388   0.360   1.897   6.635 -0.8443 -0.1368 -2.7233
  102SAPE   H6Y10389   0.203   1.960   6.639 -0.8447  0.3295  3.0200
  102SAPE   C3710390   0.210   1.759   6.547 -0.2464  0.5206  0.2835
  102SAPE   H7X10391   0.104   1.730   6.563  1.0515 -3.9066  2.4002
  102SAPE   H7Y10392   0.282   1.676   6.554  0.5751  1.3101  1.5356
  102SAPE   C3810393   0.215   1.826   6.408 -1.0300 -0.9600  0.7963
  102SAPE   H8X10394   0.319   1.864   6.396 -0.8437 -0.9834  2.1807
  102SAPE   H8Y10395   0.148   1.914   6.398  0.2738  0.2859  2.3460
  102SAPE   C3910396   0.169   1.744   6.288  0.3333  0.1247 -0.2178
  102SAPE   H9X10397   0.218   1.645   6.300 -0.8256 -0.3442  0.8205
  102SAPE   H9Y10398   0.206   1.784   6.191 -1.3759  0.8919 -0.5872
  102SAPE  C31010399   0.011   1.740   6.280 -0.3498 -0.1070 -0.2335
  102SAPE  H10X10400  -0.036   1.840   6.291  0.1736 -0.0478  1.9817
  102SAPE  H10Y10401  -0.010   1.692   6.378 -0.0891  2.4857  1.1846
  102SAPE  C31110402  -0.030   1.647   6.168 -0.6260 -0.6284 -0.3297
  102SAPE  H11X10403  -0.138   1.626   6.185 -0.4419 -1.9813 -0.6436
  102SAPE  H11Y10404   0.016   1.548   6.190  0.2347  0.3512  2.8441
  102SAPE  C31210405   0.001   1.705   6.031 -0.7725  0.1787 -0.6158
  102SAPE  H12X10406   0.110   1.719   6.013 -1.3978  3.1100 -2.8422
  102SAPE  H12Y10407  -0.029   1.811   6.024  1.6864  0.8303 -2.4559
  102SAPE  C31310408  -0.071   1.629   5.925  0.1009  0.0365  0.3088
  102SAPE  H13X10409  -0.181   1.630   5.946  0.1481  0.8712  0.5552
  102SAPE  H13Y10410  -0.037   1.523   5.924  0.9554  0.2822  1.4782
  102SAPE  C31410411  -0.053   1.695   5.785 -0.0617 -0.1998 -0.5932
  102SAPE  H14X10412   0.054   1.703   5.760 -0.7011  3.2577 -2.9392
  102SAPE  H14Y10413  -0.102   1.794   5.796  0.1308 -0.2338  0.7339
  102SAPE  C31510414  -0.127   1.613   5.678 -0.1232 -0.2826  0.1100
  102SAPE  H15X10415  -0.233   1.597   5.708  0.3607 -3.9269  0.2694
  102SAPE  H15Y10416  -0.085   1.511   5.665  0.8290  0.1129 -0.0534
  102SAPE  C31610417  -0.125   1.677   5.542  0.1492  0.1859  0.0691
  102SAPE  H16X10418  -0.171   1.778   5.550  1.4613  0.6820  2.1741
  102SAPE  H16Y10419  -0.178   1.624   5.461  0.4264 -0.5312  0.3550
  102SAPE  C31710420   0.010   1.707   5.475  0.2147 -0.0053 -0.1562
  102SAPE  H17X10421   0.073   1.616   5.488  0.5838 -0.1502 -2.5190
  102SAPE  H17Y10422   0.053   1.794   5.529 -1.0116  0.3533  0.2615
  102SAPE  C31810423   0.007   1.754   5.330 -0.0126 -0.3073 -0.7381
  102SAPE  H18X10424  -0.052   1.685   5.267  1.1120 -0.2761 -1.8692
  102SAPE  H18Y10425   0.112   1.778   5.302 -0.2438  0.4824 -0.9572
  102SAPE  H18Z10426  -0.047   1.850   5.315  0.7852 -0.2793 -4.3092
  103SAPE     N10427   1.992   0.123   2.837  0.1921 -0.3063 -0.5354
  103SAPE   HN110428   1.951   0.033   2.805 -0.7613  0.0413 -0.3338
  103SAPE   HN210429   1.911   0.184   2.859 -0.5886 -1.8551  1.0905
  103SAPE   HN310430   2.048   0.171   2.763 -0.6392  0.2043 -0.8609
  103SAPE   C1210431   2.073   0.098   2.953  0.2891 -0.3565 -0.2899
  103SAPE  H12A10432   2.124   0.000   2.941  0.6845  0.0451 -2.1754
  103SAPE  H12B10433   2.000   0.098   3.037  0.3815  3.2143 -0.0460
  103SAPE   C1110434   2.163   0.220   2.985  0.0579 -0.4462 -0.0124
  103SAPE  H11A10435   2.220   0.251   2.896 -1.8816  2.3939 -0.3737
  103SAPE  H11B10436   2.223   0.187   3.073 -1.6443 -3.1049  0.2778
  103SAPE     P10437   2.158   0.449   3.096  0.2736 -0.1231  0.1088
  103SAPE   O1310438   2.173   0.563   3.003  0.1776 -0.9727 -0.4701
  103SAPE   O1410439   2.093   0.471   3.224 -0.4276  0.1165 -0.4418
  103SAPE   O1210440   2.083   0.331   3.015  0.1930  0.3069 -0.8869
  103SAPE   O1110441   2.312   0.403   3.118  0.0561 -0.0608  0.2082
  103SAPE    C110442   2.398   0.493   3.194  0.0382  0.4397 -0.1826
  103SAPE    HA10443   2.503   0.472   3.166  0.1192 -0.7010  0.8703
  103SAPE    HB10444   2.385   0.600   3.167  0.8306  0.7127  0.4614
  103SAPE    C210445   2.377   0.474   3.345 -0.7040 -0.4281  0.0219
  103SAPE    HS10446   2.280   0.517   3.379 -2.2257 -1.1569 -3.0641
  103SAPE   O2110447   2.486   0.541   3.413  0.0666  0.1217  0.3203
  103SAPE   C2110448   2.465   0.666   3.438  0.4006 -0.4235 -0.0786
  103SAPE   O2210449   2.369   0.730   3.408  1.1504 -0.2086  0.4845
  103SAPE   C2210450   2.586   0.717   3.525  0.0460 -0.0419 -0.0438
  103SAPE   H2R10451   2.619   0.649   3.606  1.9699 -0.0940 -0.8128
  103SAPE   H2S10452   2.673   0.719   3.456  2.8136 -0.6231  3.1610
  103SAPE    C310453   2.384   0.325   3.390  0.2190  0.2910  0.0897
  103SAPE    HX10454   2.481   0.297   3.345 -0.0869 -0.9556  0.1702
  103SAPE    HY10455   2.302   0.272   3.337 -2.4143  2.8609  1.2694
  103SAPE   O3110456   2.391   0.306   3.532  0.1873 -0.1908  0.3121
  103SAPE   C3110457   2.291   0.236   3.587  0.1359 -0.0154 -0.1121
  103SAPE   O3210458   2.196   0.196   3.522  0.0610 -0.0002 -0.3481
  103SAPE   C3210459   2.309   0.210   3.744 -0.7690 -0.0011  0.1929
  103SAPE   H2X10460   2.263   0.299   3.792  0.8021  2.9532 -3.2549
  103SAPE   H2Y10461   2.415   0.196   3.773  0.0203  0.1200 -2.3249
  103SAPE   C2310462   2.560   0.857   3.593 -0.1181 -0.2084  0.1985
  103SAPE   H3R10463   2.472   0.844   3.661 -1.1481  0.6002 -0.9492
  103SAPE   H3S10464   2.527   0.927   3.514 -3.1422 -0.8984  0.7246
  103SAPE   C2410465   2.679   0.905   3.665 -0.4466 -0.1155 -0.6820
  103SAPE   H4R10466   2.771   0.913   3.603  0.4826 -1.2419  0.4901
  103SAPE   H4S10467   2.707   0.829   3.741 -1.2947 -0.3834 -0.6348
  103SAPE   C2510468   2.659   1.039   3.728 -0.1477 -0.2152  0.6074
  103SAPE   H5R10469   2.609   1.109   3.660  1.2110 -1.1644 -1.4511
  103SAPE   C2610470   2.693   1.075   3.851  0.3910 -0.5136 -0.2295
  103SAPE   H6R10471   2.680   1.182   3.877  0.9241 -0.6196  0.5294
  103SAPE   C2710472   2.757   0.982   3.955 -0.1082 -0.6345 -0.5243
  103SAPE   H7R10473   2.848   1.037   3.988 -0.2561 -0.3408 -0.5982
  103SAPE   H7S10474   2.791   0.886   3.909  0.0537 -1.6685  1.6667
  103SAPE   C2810475   2.665   0.949   4.064 -0.0872  0.4368 -0.2742
  103SAPE   H8R10476   2.568   0.911   4.030 -1.2643  3.3062 -0.4258
  103SAPE   C2910477   2.682   0.958   4.197  0.0855 -1.1484 -0.2091
  103SAPE   H9R10478   2.603   0.934   4.270  0.4126  2.9974  1.8259
  103SAPE  C21010479   2.805   1.019   4.253 -0.7049  0.1650  0.3248
  103SAPE  H10R10480   2.852   1.095   4.187  1.4225 -2.0222 -0.8267
  103SAPE  H10S10481   2.882   0.941   4.274  0.6084  1.8057  2.0040
  103SAPE  C21110482   2.785   1.072   4.395 -0.1037  0.0963  0.1343
  103SAPE  H11R10483   2.685   1.070   4.439 -0.2589  1.4823 -0.0996
  103SAPE  C21210484   2.879   1.139   4.467  0.3337  0.4455  0.4202
  103SAPE  H12R10485   2.853   1.169   4.570  2.9447 -0.4635  1.4438
  103SAPE  C21310486   3.018   1.185   4.444 -1.5120 -0.2241  0.5003
  103SAPE  H13R10487   3.057   1.157   4.344  0.9726  1.1309  1.0137
  103SAPE  H13S10488   3.082   1.122   4.509  1.7889 -0.1437 -2.3874
  103SAPE  C21410489   3.068   1.328   4.469  0.5544  0.3222  1.0482
  103SAPE  H14R10490   3.049   1.367   4.570 -0.2928  0.2725  0.9178
  103SAPE  C21510491   3.129   1.412   4.381  0.1353 -0.3706 -0.5019
  103SAPE  H15R10492   3.151   1.517   4.402  1.8051 -0.6614 -0.6753
  103SAPE  C21610493   3.175   1.383   4.244  0.1454 -0.9743  0.3779
  103SAPE  H16R10494   3.165   1.274   4.225 -0.0879 -0.7607 -0.8377
  103SAPE  H16S10495   3.281   1.416   4.233 -0.4939  1.6072  1.3889
  103SAPE  C21710496   3.113   1.463   4.126  0.6299 -0.3587 -0.4968
  103SAPE  H17R10497   3.138   1.420   4.027 -1.9154 -1.2946 -0.7980
  103SAPE  H17S10498   3.149   1.568   4.137  2.7486 -0.8687 -1.9295
  103SAPE  C21810499   2.960   1.464   4.126  0.6706  0.2660  0.1300
  103SAPE  H18R10500   2.923   1.520   4.215 -0.6821 -0.1029 -0.1754
  103SAPE  H18S10501   2.933   1.357   4.141 -1.9272  0.7257 -0.7297
  103SAPE  C21910502   2.906   1.533   4.002 -0.0879  0.0332  0.8196
  103SAPE  H19R10503   2.970   1.621   3.980 -0.6770  0.6020  1.3562
  103SAPE  H19S10504   2.809   1.585   4.016 -0.6806 -1.2334  1.5643
  103SAPE  C22010505   2.899   1.435   3.891 -0.2670  0.1635 -0.2779
  103SAPE  H20R10506   3.001   1.421   3.850  0.0863 -1.2470  0.9663
  103SAPE  H20S10507   2.840   1.478   3.808  1.1861  0.2998 -1.2868
  103SAPE  H20T10508   2.842   1.342   3.914 -0.1192 -0.1293 -1.0539
  103SAPE   C3310509   2.234   0.079   3.790  0.1715 -0.3572 -0.5829
  103SAPE   H3X10510   2.277  -0.008   3.736 -0.8142 -0.3923 -1.3478
  103SAPE   H3Y10511   2.127   0.092   3.764  0.1631 -0.2993 -0.5175
  103SAPE   C3410512   2.242   0.058   3.944 -0.0500  0.3681  0.2805
  103SAPE   H4X10513   2.170  -0.019   3.980  0.9760 -0.5456  0.4264
  103SAPE   H4Y10514   2.238   0.159   3.990  0.4306  2.0497 -3.0745
  103SAPE   C3510515   2.368  -0.013   3.982  0.2984  0.0630  0.0190
  103SAPE   H5X10516   2.452   0.057   3.965 -0.7528  1.5447  0.6898
  103SAPE   H5Y10517   2.376  -0.094   3.907  1.4240 -2.3408  2.5398
  103SAPE   C3610518   2.367  -0.055   4.129 -0.7724 -0.4325 -0.4521
  103SAPE   H6X10519   2.297  -0.139   4.151 -1.8522  0.9511  1.8147
  103SAPE   H6Y10520   2.331   0.025   4.198 -0.5869  0.2015 -1.0771
  103SAPE   C3710521   2.512  -0.092   4.177  0.0312  0.1155 -0.1645
  103SAPE   H7X10522   2.582  -0.015   4.136  2.0538 -0.9008  1.1996
  103SAPE   H7Y10523   2.543  -0.192   4.141  0.4997  0.1269  0.1880
  103SAPE   C3810524   2.513  -0.081   4.328  0.2033  0.6873  0.0714
  103SAPE   H8X10525   2.433  -0.144   4.371  0.8048 -0.1658 -0.0461
  103SAPE   H8Y10526   2.504   0.023   4.367 -3.7066  0.5608 -0.1124
  103SAPE   C3910527   2.653  -0.133   4.376  0.4696  0.2091 -0.3221
  103SAPE   H9X10528   2.735  -0.100   4.309 -0.2613  1.4444 -0.6534
  103SAPE   H9Y10529   2.636  -0.243   4.382 -1.2745  0.5161  2.4677
  103SAPE  C31010530   2.698  -0.100   4.519 -0.0446 -0.1230 -0.1766
  103SAPE  H10X10531   2.611  -0.098   4.588  1.4077  0.9756  1.7220
  103SAPE  H10Y10532   2.730   0.006   4.517  0.6958 -0.3549 -1.6088
  103SAPE  C31110533   2.821  -0.190   4.569 -0.3350  0.7187  0.0687
  103SAPE  H11X10534   2.902  -0.167   4.497 -1.4094 -1.9774 -2.1808
  103SAPE  H11Y10535   2.805  -0.297   4.542  0.5007  0.8700 -1.0611
  103SAPE  C31210536   2.866  -0.163   4.710  0.3050 -0.2914 -0.1699
  103SAPE  H12X10537   2.899  -0.057   4.706 -1.3489  0.3883  1.9841
  103SAPE  H12Y10538   2.952  -0.232   4.725 -0.7604 -2.3662 -2.8509
  103SAPE  C31310539   2.759  -0.170   4.822  0.1531  0.1730 -0.1404
  103SAPE  H13X10540   2.698  -0.261   4.804  0.3258 -0.0941  0.5983
  103SAPE  H13Y10541   2.684  -0.088   4.822  0.0719  0.1547  1.8038
  103SAPE  C31410542   2.816  -0.190   4.968  0.4829  0.4352 -0.1730
  103SAPE  H14X10543   2.725  -0.198   5.031  0.6813 -2.9081 -0.1277
  103SAPE  H14Y10544   2.867  -0.097   5.001 -1.4689  0.4261  3.3182
  103SAPE  C31510545   2.905  -0.311   4.998 -0.2875  0.2171 -0.0337
  103SAPE  H15X10546   3.009  -0.274   4.983 -0.9630  1.0753 -3.1759
  103SAPE  H15Y10547   2.874  -0.374   4.912 -1.4727 -0.2888  0.7435
  103SAPE  C31610548   2.865  -0.382   5.130  0.4813  0.3783  0.2756
  103SAPE  H16X10549   2.755  -0.401   5.125  0.8226 -1.6427 -0.7766
  103SAPE  H16Y10550   2.869  -0.310   5.213  1.4982 -1.1703  1.6380
  103SAPE  C31710551   2.944  -0.510   5.172  0.2616 -0.2098 -0.5826
  103SAPE  H17X10552   3.038  -0.461   5.205  0.7118 -1.3265 -0.1742
  103SAPE  H17Y10553   2.972  -0.567   5.081 -0.0957  1.5037 -1.8282
  103SAPE  C31810554   2.884  -0.600   5.274  0.0521 -0.0272 -0.2577
  103SAPE  H18X10555   2.831  -0.546   5.355 -0.2888  2.7766 -2.1767
  103SAPE  H18Y10556   2.956  -0.663   5.329  1.3467  3.5253  2.5529
  103SAPE  H18Z10557   2.803  -0.660   5.227  1.2211 -1.6414 -0.2945
  104SAPE     N10558   2.699   1.167   3.359  0.3468  0.4448  0.3184
  104SAPE   HN110559   2.763   1.113   3.420 -1.4292 -0.9836  1.0209
  104SAPE   HN210560   2.740   1.254   3.320  0.1030  0.5882  0.3815
  104SAPE   HN310561   2.608   1.180   3.409 -0.6380 -1.8716 -0.7171
  104SAPE   C1210562   2.652   1.071   3.248 -0.4780  0.6705 -0.1850
  104SAPE  H12A10563   2.593   1.123   3.169 -3.2687 -1.3090  0.4114
  104SAPE  H12B10564   2.579   1.004   3.298 -0.6153  0.8291 -0.1715
  104SAPE   C1110565   2.772   0.989   3.190 -0.0341  0.7345 -0.1783
  104SAPE  H11A10566   2.816   0.922   3.267 -0.5997 -0.6484 -1.0240
  104SAPE  H11B10567   2.848   1.060   3.151  1.1890 -0.2205  0.4116
  104SAPE     P10568   2.651   0.777   3.109 -0.2701  0.1808  0.3575
  104SAPE   O1310569   2.522   0.817   3.158  0.4577 -0.0857  0.8611
  104SAPE   O1410570   2.649   0.704   2.978  0.8910  0.1902 -0.5901
  104SAPE   O1210571   2.739   0.903   3.079  0.1631 -0.1671 -0.4457
  104SAPE   O1110572   2.731   0.689   3.211 -0.1350  0.6139  0.4586
  104SAPE    C110573   2.812   0.573   3.159 -0.4047 -0.2001 -0.4502
  104SAPE    HA10574   2.745   0.493   3.123  0.5965 -1.6267  0.6980
  104SAPE    HB10575   2.883   0.593   3.076  2.4172 -0.4580  1.7161
  104SAPE    C210576   2.905   0.513   3.273  0.1228  0.2190  0.0698
  104SAPE    HS10577   2.956   0.420   3.240 -0.5294  0.5158 -1.8683
  104SAPE   O2110578   2.825   0.495   3.392 -0.1127  0.2736  0.0945
  104SAPE   C2110579   2.763   0.378   3.388 -0.8349 -0.4250  0.1617
  104SAPE   O2210580   2.760   0.300   3.297  0.9988  0.5744 -1.0694
  104SAPE   C2210581   2.722   0.348   3.532  0.3995 -0.1923 -0.2220
  104SAPE   H2R10582   2.642   0.419   3.564 -0.5106 -2.3221  2.6376
  104SAPE   H2S10583   2.670   0.250   3.535 -0.8089  0.4286  0.0362
  104SAPE    C310584   3.016   0.618   3.308 -0.0050 -0.4488  0.3950
  104SAPE    HX10585   2.972   0.719   3.297  2.2976  0.7696  1.6508
  104SAPE    HY10586   3.097   0.613   3.232  1.7350 -2.6599  2.2412
  104SAPE   O3110587   3.076   0.594   3.441 -0.1847  0.2307  0.1686
  104SAPE   C3110588   3.036   0.679   3.533 -0.0984 -0.0210 -0.2377
  104SAPE   O3210589   2.964   0.774   3.515  0.3043 -0.5093 -0.3180
  104SAPE   C3210590   3.091   0.641   3.671  0.2236  0.2654 -0.4088
  104SAPE   H2X10591   3.194   0.678   3.692  1.2978 -1.5659 -2.0429
  104SAPE   H2Y10592   3.094   0.530   3.677  2.4526  0.1399 -2.2137
  104SAPE   C2310593   2.837   0.367   3.632  0.2645 -0.5865 -0.2337
  104SAPE   H3R10594   2.891   0.464   3.628  0.7088 -0.7857  0.6323
  104SAPE   H3S10595   2.924   0.298   3.625  1.5667  0.7942  1.6436
  104SAPE   C2410596   2.779   0.363   3.776 -0.4479 -0.6682  0.4565
  104SAPE   H4R10597   2.688   0.425   3.765  1.0613  1.4324 -0.9151
  104SAPE   H4S10598   2.848   0.415   3.846  1.1012 -2.0176  0.0145
  104SAPE   C2510599   2.741   0.224   3.832  0.1376 -0.4531 -0.0160
  104SAPE   H5R10600   2.693   0.160   3.757  1.0400 -1.7262  0.4635
  104SAPE   C2610601   2.751   0.185   3.963 -0.9873  0.0181 -0.0690
  104SAPE   H6R10602   2.747   0.077   3.985  0.0242  0.4818  2.8427
  104SAPE   C2710603   2.809   0.256   4.077 -0.5987 -0.8509  0.5752
  104SAPE   H7R10604   2.760   0.356   4.082 -0.9694 -1.0145  0.2933
  104SAPE   H7S10605   2.916   0.272   4.056  0.0149  0.2308  3.8863
  104SAPE   C2810606   2.797   0.209   4.215  0.0181  0.9543  0.2699
  104SAPE   H8R10607   2.692   0.208   4.248 -0.0513  1.3474  0.0623
  104SAPE   C2910608   2.892   0.183   4.305 -0.6625  0.0554 -0.5658
  104SAPE   H9R10609   2.858   0.150   4.404 -2.1149  1.4970 -0.5529
  104SAPE  C21010610   3.049   0.184   4.281 -0.3162 -0.0477 -0.8158
  104SAPE  H10R10611   3.085   0.287   4.299  0.5653 -0.3609 -0.7189
  104SAPE  H10S10612   3.079   0.162   4.176  4.4498  1.6407 -0.0246
  104SAPE  C21110613   3.136   0.095   4.379 -0.3690  0.5278 -0.2529
  104SAPE  H11R10614   3.183   0.010   4.327 -1.2890 -1.2001  1.5996
  104SAPE  C21210615   3.155   0.115   4.512 -0.4704  0.3911  0.1967
  104SAPE  H12R10616   3.200   0.039   4.577 -1.3747  0.5460  1.0296
  104SAPE  C21310617   3.082   0.231   4.581  0.5705 -0.6456  0.9879
  104SAPE  H13R10618   2.973   0.231   4.559  0.7927 -0.8125 -0.2037
  104SAPE  H13S10619   3.104   0.327   4.531 -1.6797 -0.0602  0.9846
  104SAPE  C21410620   3.103   0.225   4.734  0.2726 -0.1427 -0.4116
  104SAPE  H14R10621   3.074   0.128   4.776 -3.7820  0.5085 -1.3024
  104SAPE  C21510622   3.167   0.306   4.820 -0.8854  0.6410  0.2476
  104SAPE  H15R10623   3.189   0.263   4.918 -1.6108  0.1739  0.2120
  104SAPE  C21610624   3.223   0.442   4.776 -0.2193 -1.0167  0.7532
  104SAPE  H16R10625   3.158   0.489   4.700  2.2645  0.5269 -0.5571
  104SAPE  H16S10626   3.322   0.433   4.726  2.4795  0.7988  5.1717
  104SAPE  C21710627   3.251   0.530   4.899  0.6091  0.1942  0.3197
  104SAPE  H17R10628   3.158   0.546   4.958  0.6030 -0.3447  0.4578
  104SAPE  H17S10629   3.281   0.631   4.864  1.1704 -0.5791 -1.5599
  104SAPE  C21810630   3.351   0.471   4.990  0.3225 -0.0674 -0.5382
  104SAPE  H18R10631   3.442   0.445   4.932  0.9078 -3.5241  1.6490
  104SAPE  H18S10632   3.315   0.374   5.031 -1.1303  0.3810 -0.6895
  104SAPE  C21910633   3.393   0.561   5.110  0.5567 -0.9772 -0.4013
  104SAPE  H19R10634   3.315   0.546   5.188  1.7667 -3.5324  0.4265
  104SAPE  H19S10635   3.391   0.663   5.066  4.0483  0.1999  1.7943
  104SAPE  C22010636   3.541   0.536   5.158 -0.5252 -0.2356 -0.0818
  104SAPE  H20R10637   3.566   0.598   5.248 -0.3002  0.5016 -0.6371
  104SAPE  H20S10638   3.605   0.548   5.068 -1.2988  2.4618 -0.3766
  104SAPE  H20T10639   3.573   0.436   5.193  1.5117 -0.1719 -1.5921
  104SAPE   C3310640   2.995   0.677   3.789  0.1737 -0.2942  1.0970
  104SAPE   H3X10641   2.894   0.645   3.755 -0.0003 -0.3562  1.6532
  104SAPE   H3Y10642   2.975   0.784   3.810 -1.2883 -0.2379 -0.4155
  104SAPE   C3410643   3.031   0.616   3.922 -0.4399 -0.1096 -0.0225
  104SAPE   H4X10644   3.132   0.655   3.946  0.3270 -2.4591  0.9208
  104SAPE   H4Y10645   3.049   0.509   3.899  0.3167  0.2477 -1.1628
  104SAPE   C3510646   2.926   0.634   4.035  0.2940  0.6896  0.0147
  104SAPE   H5X10647   2.831   0.579   4.018  0.6128  0.1835 -0.1416
  104SAPE   H5Y10648   2.914   0.745   4.040  1.7239  0.8774 -0.1576
  104SAPE   C3610649   2.973   0.582   4.176 -0.0974 -0.7142 -0.1848
  104SAPE   H6X10650   3.065   0.641   4.196 -0.3610  0.7125 -2.7547
  104SAPE   H6Y10651   2.994   0.474   4.164 -0.4151 -0.6394 -1.6067
  104SAPE   C3710652   2.866   0.607   4.281 -1.0352  0.6742 -0.0885
  104SAPE   H7X10653   2.768   0.564   4.250 -0.3095 -1.6450  0.6081
  104SAPE   H7Y10654   2.855   0.717   4.292 -0.0385  0.6669  1.1829
  104SAPE   C3810655   2.911   0.568   4.426  0.7262  0.1034  0.4355
  104SAPE   H8X10656   2.997   0.634   4.448  0.1306  1.6896 -1.7247
  104SAPE   H8Y10657   2.936   0.460   4.435 -1.6111 -0.6529 -1.1765
  104SAPE   C3910658   2.802   0.605   4.530 -0.1828  0.5153  0.7265
  104SAPE   H9X10659   2.722   0.529   4.536  0.7446 -0.5996 -0.4363
  104SAPE   H9Y10660   2.762   0.702   4.494 -0.9339  0.2012  0.6981
  104SAPE  C31010661   2.860   0.626   4.673 -1.0071  0.6287  1.0117
  104SAPE  H10X10662   2.950   0.690   4.662  0.9795 -2.2857 -1.1862
  104SAPE  H10Y10663   2.900   0.528   4.705 -2.6553 -1.2462 -2.1824
  104SAPE  C31110664   2.764   0.684   4.779  0.5941  0.0401  0.5250
  104SAPE  H11X10665   2.673   0.622   4.791  1.2134 -1.2543 -1.1089
  104SAPE  H11Y10666   2.742   0.789   4.749  0.7373 -0.2828 -0.7463
  104SAPE  C31210667   2.841   0.679   4.906  0.3267  0.7006  0.6395
  104SAPE  H12X10668   2.852   0.569   4.915 -0.9054  0.1020 -3.0224
  104SAPE  H12Y10669   2.777   0.724   4.985  0.1806  0.7798  0.4775
  104SAPE  C31310670   2.972   0.753   4.912  0.6544 -1.1714  0.9227
  104SAPE  H13X10671   3.042   0.706   4.840  1.2307 -0.4836  1.0228
  104SAPE  H13Y10672   3.003   0.735   5.017 -3.1299 -1.1196  2.2146
  104SAPE  C31410673   2.964   0.908   4.878  0.2859  0.9390 -0.6076
  104SAPE  H14X10674   2.896   0.950   4.954  1.7178  0.9999  0.6986
  104SAPE  H14Y10675   2.915   0.921   4.779  2.3658  1.3743 -1.6379
  104SAPE  C31510676   3.106   0.962   4.880 -0.1417  0.0651  0.2665
  104SAPE  H15X10677   3.176   0.899   4.821  1.9454  0.9887  1.6521
  104SAPE  H15Y10678   3.144   0.958   4.985 -0.5694  1.9807  0.5340
  104SAPE  C31610679   3.112   1.106   4.834  0.1394  0.4880 -0.5150
  104SAPE  H16X10680   3.049   1.111   4.743  0.7370 -0.1743 -0.9769
  104SAPE  H16Y10681   3.215   1.131   4.799  0.9768 -0.7512  0.9370
  104SAPE  C31710682   3.064   1.209   4.942 -0.4176  0.0667 -0.0864
  104SAPE  H17X10683   3.137   1.211   5.025  0.3151  0.4151 -0.7246
  104SAPE  H17Y10684   2.971   1.167   4.986 -1.1903 -1.1184 -2.6755
  104SAPE  C31810685   3.050   1.350   4.882  0.1528  0.7286 -0.0554
  104SAPE  H18X10686   3.146   1.382   4.835 -0.6970  2.3084 -0.7961
  104SAPE  H18Y10687   3.023   1.428   4.957  1.2031 -1.7049  3.0857
  104SAPE  H18Z10688   2.969   1.351   4.806 -0.3484 -1.0754  0.4317
  105SAPE     N10689   3.572   4.438   2.544  0.4594 -0.2087 -0.7206
  105SAPE   HN110690   3.511   4.412   2.623  0.3690 -0.6557 -0.9300
  105SAPE   HN210691   3.570   4.540   2.524  1.6302  0.2077  1.0476
  105SAPE   HN310692   3.540   4.381   2.463  3.0315 -2.7096 -0.1507
  105SAPE   C1210693   3.708   4.403   2.587  0.0996  0.5277  0.2002
  105SAPE  H12A10694   3.747   4.493   2.639 -1.0688  0.7762  0.6974
  105SAPE  H12B10695   3.770   4.387   2.497 -1.0075 -0.7887 -0.3604
  105SAPE   C1110696   3.703   4.281   2.681  0.1903 -0.1823  0.0552
  105SAPE  H11A10697   3.807   4.268   2.719  0.1244 -1.6452 -0.2273
  105SAPE  H11B10698   3.668   4.192   2.626 -0.9778  0.4749 -0.2958
  105SAPE     P10699   3.560   4.203   2.889  0.0225 -0.1810 -0.2798
  105SAPE   O1310700   3.460   4.272   2.980 -0.7335 -0.1268  0.4331
  105SAPE   O1410701   3.513   4.080   2.827  0.1899 -0.4549 -0.2984
  105SAPE   O1210702   3.607   4.312   2.786 -0.5908 -0.2552  0.2434
  105SAPE   O1110703   3.687   4.171   2.972 -0.1026  0.7581 -0.1872
  105SAPE    C110704   3.748   4.264   3.063 -0.3456  0.6678 -0.2752
  105SAPE    HA10705   3.845   4.293   3.017  0.6256 -1.9718 -0.0447
  105SAPE    HB10706   3.683   4.350   3.089  0.4790  1.1511  0.2445
  105SAPE    C210707   3.795   4.203   3.199 -0.0935 -0.1557  0.2575
  105SAPE    HS10708   3.884   4.139   3.181  0.1579  0.5967 -1.2959
  105SAPE   O2110709   3.686   4.138   3.258  0.0601 -0.3329 -0.0237
  105SAPE   C2110710   3.709   4.043   3.349 -0.6223  0.0251 -0.0629
  105SAPE   O2210711   3.826   4.012   3.378 -0.7642 -0.4623  0.1269
  105SAPE   C2210712   3.579   3.996   3.406 -0.0311  0.1313  0.0182
  105SAPE   H2R10713   3.553   4.070   3.484 -1.5647  1.5306 -1.7141
  105SAPE   H2S10714   3.505   4.006   3.323 -0.0080 -0.8171 -0.1342
  105SAPE    C310715   3.855   4.326   3.282  0.2014  0.1058 -0.8787
  105SAPE    HX10716   3.778   4.407   3.286 -2.6563 -2.4503 -0.4382
  105SAPE    HY10717   3.945   4.375   3.239 -0.6968  1.0634 -1.7416
  105SAPE   O3110718   3.869   4.281   3.421  0.8110 -0.1991  0.5431
  105SAPE   C3110719   3.992   4.271   3.463  0.9703 -0.1651  0.0447
  105SAPE   O3210720   4.096   4.298   3.401  0.1339  0.0725  0.2249
  105SAPE   C3210721   3.996   4.218   3.604 -0.5215  0.6966 -1.0651
  105SAPE   H2X10722   4.017   4.109   3.606  0.6094  0.9023  0.6706
  105SAPE   H2Y10723   3.895   4.239   3.646 -1.1986  0.2982 -2.4507
  105SAPE   C2310724   3.586   3.857   3.471  0.2992 -0.9056  0.5731
  105SAPE   H3R10725   3.633   3.866   3.571 -0.2430  1.5353  0.6539
  105SAPE   H3S10726   3.623   3.773   3.407  0.1936 -0.6400  0.1601
  105SAPE   C2410727   3.445   3.811   3.518  0.3403 -0.6472 -0.1467
  105SAPE   H4R10728   3.459   3.721   3.581  1.4219 -0.2877  0.1451
  105SAPE   H4S10729   3.376   3.795   3.432 -0.2778 -0.0560  0.2280
  105SAPE   C2510730   3.360   3.914   3.597 -0.9239 -0.7697  0.0754
  105SAPE   H5R10731   3.282   3.962   3.537 -0.7678  1.0544  1.2401
  105SAPE   C2610732   3.366   3.954   3.727 -0.2247 -0.1850 -0.3626
  105SAPE   H6R10733   3.294   4.033   3.754  1.0610  0.4383  1.4485
  105SAPE   C2710734   3.461   3.915   3.840  0.4347  0.4831 -0.2680
  105SAPE   H7R10735   3.547   3.856   3.801  2.2180  2.7981 -0.1111
  105SAPE   H7S10736   3.407   3.851   3.912  1.4366  0.7873  0.7724
  105SAPE   C2810737   3.517   4.034   3.915  0.6417  0.3197  0.6766
  105SAPE   H8R10738   3.603   4.083   3.867  0.0725 -1.0880 -2.0034
  105SAPE   C2910739   3.470   4.077   4.029 -0.1467  0.1325  0.3775
  105SAPE   H9R10740   3.517   4.167   4.072  1.9306 -0.6234 -0.1856
  105SAPE  C21010741   3.352   4.024   4.106 -0.4341  0.0081  0.5827
  105SAPE  H10R10742   3.375   3.933   4.164  2.1356  1.2674  1.7094
  105SAPE  H10S10743   3.268   3.995   4.039 -0.5230  0.8921  0.2998
  105SAPE  C21110744   3.298   4.125   4.198 -0.6708 -0.3763 -0.0108
  105SAPE  H11R10745   3.243   4.206   4.146 -0.4808 -0.7402 -0.7987
  105SAPE  C21210746   3.310   4.121   4.333  0.0627  0.0777 -0.7907
  105SAPE  H12R10747   3.267   4.208   4.384  0.7396  0.3848 -0.7197
  105SAPE  C21310748   3.373   4.016   4.420 -0.0474 -0.5402  0.1563
  105SAPE  H13R10749   3.417   3.930   4.365  0.2627  1.1868 -2.4255
  105SAPE  H13S10750   3.298   3.966   4.486 -0.2223 -0.9284 -0.3328
  105SAPE  C21410751   3.480   4.063   4.512 -0.8293  0.4606 -0.0421
  105SAPE  H14R10752   3.565   4.112   4.463 -0.1465  1.6256  2.1644
  105SAPE  C21510753   3.484   4.064   4.643  0.2361 -0.1416 -1.1209
  105SAPE  H15R10754   3.564   4.118   4.696 -0.6315 -1.1127  1.3212
  105SAPE  C21610755   3.383   4.006   4.743 -0.4937 -0.3935 -0.0160
  105SAPE  H16R10756   3.412   3.917   4.802  0.4857 -0.9760 -1.3430
  105SAPE  H16S10757   3.288   3.976   4.694 -0.2862 -1.0746 -0.0136
  105SAPE  C21710758   3.338   4.117   4.852 -0.4841  0.0117 -0.7733
  105SAPE  H17R10759   3.302   4.207   4.798  0.3867  0.2883 -0.9085
  105SAPE  H17S10760   3.427   4.154   4.906 -0.5846 -0.3200 -0.3779
  105SAPE  C21810761   3.234   4.070   4.954  0.7848  0.0990  0.7393
  105SAPE  H18R10762   3.228   3.959   4.964 -0.6940  0.1369  0.4589
  105SAPE  H18S10763   3.135   4.105   4.920  0.4166  0.3628  2.0145
  105SAPE  C21910764   3.265   4.124   5.093  0.1782  0.0934  0.3960
  105SAPE  H19R10765   3.281   4.234   5.092  0.3820  0.1220  2.4146
  105SAPE  H19S10766   3.368   4.093   5.119  0.5997  0.3142 -0.9505
  105SAPE  C22010767   3.173   4.073   5.199 -0.5094 -0.6569  0.3165
  105SAPE  H20R10768   3.189   3.966   5.226  1.6132 -0.2336  0.9657
  105SAPE  H20S10769   3.072   4.090   5.158  0.0606 -2.8533 -2.3238
  105SAPE  H20T10770   3.180   4.120   5.299 -2.0730  1.4031 -0.4822
  105SAPE   C3310771   4.102   4.289   3.698 -0.4996  0.4873  0.3870
  105SAPE   H3X10772   4.075   4.395   3.718 -1.0711  0.0878  1.8445
  105SAPE   H3Y10773   4.196   4.278   3.641 -1.1635 -1.7793 -0.3905
  105SAPE   C3410774   4.096   4.224   3.832 -0.1902  0.0308  0.7839
  105SAPE   H4X10775   4.131   4.119   3.822 -0.1698  0.1153 -0.1773
  105SAPE   H4Y10776   3.991   4.236   3.866 -0.0259 -0.7323  1.5945
  105SAPE   C3510777   4.193   4.292   3.925 -0.1410 -0.1480 -0.1157
  105SAPE   H5X10778   4.147   4.384   3.965  0.9230  0.0606  0.6789
  105SAPE   H5Y10779   4.287   4.329   3.877 -0.8386  2.3362  0.2815
  105SAPE   C3610780   4.218   4.208   4.050 -0.3411  0.8562 -0.3534
  105SAPE   H6X10781   4.281   4.118   4.030 -1.1915 -0.2017  1.4960
  105SAPE   H6Y10782   4.121   4.164   4.081 -0.2596  0.6396 -0.3977
  105SAPE   C3710783   4.287   4.277   4.164 -0.0831 -0.4756  0.2943
  105SAPE   H7X10784   4.232   4.368   4.195 -0.5710 -0.1681 -1.3791
  105SAPE   H7Y10785   4.384   4.313   4.125 -0.2842  0.1396  0.3530
  105SAPE   C3810786   4.314   4.200   4.296  0.5212  0.2857  0.5857
  105SAPE   H8X10787   4.367   4.105   4.275  2.1231  1.4583 -1.0078
  105SAPE   H8Y10788   4.220   4.164   4.343  1.9084 -3.1307  1.0052
  105SAPE   C3910789   4.397   4.280   4.409  0.1619  0.5924 -0.6176
  105SAPE   H9X10790   4.348   4.379   4.422 -2.2607 -0.5436 -0.5580
  105SAPE   H9Y10791   4.502   4.305   4.379  0.4866 -3.9911 -4.6877
  105SAPE  C31010792   4.395   4.203   4.544  0.2674 -0.1963 -0.5888
  105SAPE  H10X10793   4.496   4.159   4.563 -0.0122 -1.3725 -1.7497
  105SAPE  H10Y10794   4.318   4.124   4.540 -1.0601  1.1053 -1.5308
  105SAPE  C31110795   4.371   4.304   4.663  0.4958  0.5571 -0.3190
  105SAPE  H11X10796   4.338   4.244   4.750  1.2939 -2.9335 -2.1891
  105SAPE  H11Y10797   4.281   4.358   4.627 -0.6330 -1.1415 -0.1751
  105SAPE  C31210798   4.486   4.403   4.694 -0.3297  0.1522 -0.0006
  105SAPE  H12X10799   4.531   4.457   4.607  0.5944  0.3997  0.6120
  105SAPE  H12Y10800   4.562   4.340   4.744 -0.1747  1.4369  1.4497
  105SAPE  C31310801   4.444   4.522   4.780  0.1009  0.2605 -0.2613
  105SAPE  H13X10802   4.375   4.484   4.858  0.7106 -1.1567 -0.3899
  105SAPE  H13Y10803   4.386   4.588   4.712  1.0205 -0.0165 -1.3380
  105SAPE  C31410804   4.564   4.600   4.843 -0.1264  0.1823 -0.4680
  105SAPE  H14X10805   4.526   4.698   4.879  1.6781  0.1366  1.7614
  105SAPE  H14Y10806   4.649   4.628   4.779  2.1812  1.0194  2.7048
  105SAPE  C31510807   4.628   4.518   4.958 -1.3659 -0.0426 -0.6561
  105SAPE  H15X10808   4.625   4.407   4.954 -0.6350 -0.1146  0.4533
  105SAPE  H15Y10809   4.570   4.536   5.051  0.4552 -1.3107  0.7838
  105SAPE  C31610810   4.774   4.560   4.982  0.3611 -0.2736 -0.2186
  105SAPE  H16X10811   4.789   4.667   5.008  0.2006 -0.4635  0.6946
  105SAPE  H16Y10812   4.829   4.551   4.886  0.9391  0.2247  0.0572
  105SAPE  C31710813   4.839   4.488   5.102  0.2212  0.5943 -0.3710
  105SAPE  H17X10814   4.838   4.378   5.086  0.5840  0.7767 -1.8363
  105SAPE  H17Y10815   4.792   4.525   5.196  0.4649  2.0919 -0.8080
  105SAPE  C31810816   4.988   4.529   5.115 -0.9685  0.0559 -0.6951
  105SAPE  H18X10817   5.034   4.480   5.204  0.9090  2.2252 -0.3635
  105SAPE  H18Y10818   5.000   4.634   5.149 -1.4885 -0.1686  0.2311
  105SAPE  H18Z10819   5.046   4.516   5.022 -1.0062  1.3394 -0.9142
  106SAPE     N10820   5.683   0.595   2.570  0.7984 -0.3371  0.4266
  106SAPE   HN110821   5.682   0.581   2.467  1.7856  1.3832  0.1369
  106SAPE   HN210822   5.620   0.674   2.598 -0.0312 -0.4611 -0.9883
  106SAPE   HN310823   5.780   0.608   2.605  2.2381  0.2791 -3.3364
  106SAPE   C1210824   5.616   0.477   2.626 -0.4024  0.1008 -0.0684
  106SAPE  H12A10825   5.598   0.506   2.732  1.4329  3.6743 -0.5682
  106SAPE  H12B10826   5.684   0.389   2.628  0.1486  0.5284  1.4540
  106SAPE   C1110827   5.477   0.430   2.570  0.4186 -1.1509 -0.1491
  106SAPE  H11A10828   5.445   0.347   2.636  0.5714  0.4021  1.9440
  106SAPE  H11B10829   5.506   0.394   2.468  2.3947 -1.8144  0.5966
  106SAPE     P10830   5.254   0.522   2.490 -0.0339 -0.1912 -0.1194
  106SAPE   O1310831   5.208   0.663   2.458  0.7743  0.4674  0.1265
  106SAPE   O1410832   5.272   0.424   2.380  0.1420 -0.5243  0.2016
  106SAPE   O1210833   5.390   0.539   2.579  0.0432 -0.1480  0.1730
  106SAPE   O1110834   5.153   0.467   2.592  0.4576  0.2711 -0.6556
  106SAPE    C110835   5.134   0.505   2.725  0.1557  0.3133 -0.4766
  106SAPE    HA10836   5.145   0.616   2.735  1.0557  0.3978 -2.1396
  106SAPE    HB10837   5.030   0.481   2.757  0.0216 -0.6295 -1.6032
  106SAPE    C210838   5.233   0.438   2.826  0.1668 -0.3498 -0.7990
  106SAPE    HS10839   5.331   0.456   2.778 -0.8994  0.7239 -2.7477
  106SAPE   O2110840   5.210   0.295   2.831  0.7677 -0.7084  0.7140
  106SAPE   C2110841   5.308   0.226   2.880 -0.1208 -0.3171 -0.7035
  106SAPE   O2210842   5.423   0.261   2.895  0.8445 -0.3610  0.1130
  106SAPE   C2210843   5.247   0.100   2.945 -0.2842 -0.2991 -0.2049
  106SAPE   H2R10844   5.138   0.090   2.926 -0.6565 -0.9550  2.0274
  106SAPE   H2S10845   5.304   0.018   2.897  3.0320  2.0937 -0.7782
  106SAPE    C310846   5.231   0.502   2.970 -0.7059 -0.6955  0.0075
  106SAPE    HX10847   5.134   0.498   3.023 -1.2268 -2.3092 -1.0063
  106SAPE    HY10848   5.246   0.612   2.964  0.8636 -0.9510 -1.6701
  106SAPE   O3110849   5.332   0.447   3.060 -0.2451  0.6132  0.3756
  106SAPE   C3110850   5.450   0.501   3.050 -0.3938 -0.3847 -0.4340
  106SAPE   O3210851   5.488   0.585   2.971  0.4773  0.3656  0.4646
  106SAPE   C3210852   5.545   0.427   3.144  0.3555  0.0537 -0.2405
  106SAPE   H2X10853   5.640   0.483   3.130 -0.9528  1.9221 -2.6145
  106SAPE   H2Y10854   5.574   0.326   3.110  0.4387 -0.7589  2.0590
  106SAPE   C2310855   5.270   0.096   3.102 -0.0269 -0.4091 -0.5145
  106SAPE   H3R10856   5.238   0.190   3.151  1.0992 -0.6634  0.7401
  106SAPE   H3S10857   5.376   0.080   3.130 -0.1022  0.2921  0.1857
  106SAPE   C2410858   5.193  -0.010   3.175 -1.3052  0.0903 -0.2697
  106SAPE   H4R10859   5.085   0.012   3.166 -1.0081  0.7505 -3.2226
  106SAPE   H4S10860   5.200  -0.004   3.286  0.1960 -3.4085 -0.0548
  106SAPE   C2510861   5.218  -0.156   3.130 -0.2631  0.0712  0.1997
  106SAPE   H5R10862   5.159  -0.202   3.050  2.5644 -1.0461 -1.3549
  106SAPE   C2610863   5.306  -0.242   3.188 -0.1270 -0.2072 -0.5937
  106SAPE   H6R10864   5.305  -0.348   3.160 -0.1176 -0.4643  0.3447
  106SAPE   C2710865   5.397  -0.209   3.303 -0.3684  0.4972 -0.0569
  106SAPE   H7R10866   5.430  -0.297   3.363  0.3489  0.6440 -0.2315
  106SAPE   H7S10867   5.334  -0.157   3.378 -0.5569  1.0692 -0.6024
  106SAPE   C2810868   5.527  -0.135   3.278  0.3641 -0.3929  0.7777
  106SAPE   H8R10869   5.514  -0.026   3.264  3.1159  0.6209  4.4579
  106SAPE   C2910870   5.654  -0.176   3.276 -0.0422  0.2131  0.2744
  106SAPE   H9R10871   5.734  -0.101   3.266 -0.6781  0.6980 -1.5708
  106SAPE  C21010872   5.695  -0.320   3.302  0.3431  0.0638 -0.3972
  106SAPE  H10R10873   5.613  -0.392   3.281 -0.9239  1.6398 -1.0458
  106SAPE  H10S10874   5.702  -0.341   3.411 -0.2110 -0.8763 -0.5229
  106SAPE  C21110875   5.815  -0.363   3.220 -0.4914 -0.2577 -0.4963
  106SAPE  H11R10876   5.839  -0.310   3.127 -1.0129  0.3370 -0.3007
  106SAPE  C21210877   5.889  -0.472   3.251  0.0418  0.1979  0.4526
  106SAPE  H12R10878   5.952  -0.519   3.173  0.9471  2.9343 -0.5900
  106SAPE  C21310879   5.860  -0.560   3.369  0.3200  0.8036  0.2919
  106SAPE  H13R10880   5.756  -0.595   3.349  1.0749 -0.5602 -1.5917
  106SAPE  H13S10881   5.873  -0.495   3.458  1.8117  0.9387  0.0001
  106SAPE  C21410882   5.938  -0.681   3.384 -0.0176  0.6307  0.1699
  106SAPE  H14R10883   5.985  -0.723   3.294 -1.4505 -0.5080 -0.0865
  106SAPE  C21510884   5.972  -0.747   3.500  0.6239  0.2553 -0.3971
  106SAPE  H15R10885   6.034  -0.838   3.508 -0.5065 -0.5030  0.1733
  106SAPE  C21610886   5.931  -0.696   3.633  0.2635 -0.8079 -0.5535
  106SAPE  H16R10887   5.836  -0.638   3.633  0.6843 -0.0994  0.2293
  106SAPE  H16S10888   6.005  -0.621   3.667 -1.0270 -0.2218  1.1227
  106SAPE  C21710889   5.939  -0.808   3.740  0.1273  0.0648  0.7169
  106SAPE  H17R10890   6.047  -0.817   3.763  0.1095 -2.4882  0.1022
  106SAPE  H17S10891   5.904  -0.907   3.704 -1.0944  1.4213 -2.1713
  106SAPE  C21810892   5.858  -0.766   3.866 -0.0222  0.3219 -0.1600
  106SAPE  H18R10893   5.748  -0.769   3.849  0.1048  0.5374 -1.0596
  106SAPE  H18S10894   5.893  -0.662   3.886 -0.7864  0.6105 -0.2885
  106SAPE  C21910895   5.873  -0.855   3.987 -0.8303  0.0823 -0.6536
  106SAPE  H19R10896   5.979  -0.873   4.017 -0.9404 -1.4285 -1.0924
  106SAPE  H19S10897   5.836  -0.956   3.958 -0.5654 -0.1194 -0.3074
  106SAPE  C22010898   5.822  -0.788   4.112 -0.1970  0.7964  0.5658
  106SAPE  H20R10899   5.854  -0.682   4.119  1.1799  0.4734 -0.3941
  106SAPE  H20S10900   5.853  -0.840   4.205 -1.0306 -1.2067 -0.2190
  106SAPE  H20T10901   5.711  -0.788   4.100 -0.1113  0.8191 -0.3659
  106SAPE   C3310902   5.482   0.397   3.287 -0.8433  0.0701 -0.3319
  106SAPE   H3X10903   5.384   0.348   3.276 -1.1133  0.9855 -2.3700
  106SAPE   H3Y10904   5.465   0.501   3.324 -2.3253  0.6757 -2.5142
  106SAPE   C3410905   5.575   0.315   3.384  0.1200 -0.2638 -0.6382
  106SAPE   H4X10906   5.655   0.383   3.421 -0.7405  0.5121 -0.1759
  106SAPE   H4Y10907   5.616   0.231   3.324 -0.4139 -0.4101 -0.8023
  106SAPE   C3510908   5.494   0.247   3.499  0.5244 -0.0974 -0.5376
  106SAPE   H5X10909   5.391   0.226   3.465 -0.4630  0.2157  2.0496
  106SAPE   H5Y10910   5.491   0.328   3.575  0.3532 -0.4853 -0.1327
  106SAPE   C3610911   5.564   0.127   3.557  0.3659  0.0080  0.3046
  106SAPE   H6X10912   5.665   0.160   3.587  0.9437 -3.5192  2.9666
  106SAPE   H6Y10913   5.585   0.042   3.488 -0.8618 -2.5361  2.8222
  106SAPE   C3710914   5.497   0.076   3.692 -0.2380  0.5559 -0.3656
  106SAPE   H7X10915   5.399   0.030   3.666 -0.3063 -0.3940  1.3961
  106SAPE   H7Y10916   5.474   0.168   3.749  0.0444  1.1757 -1.2309
  106SAPE   C3810917   5.597  -0.024   3.749 -0.6414  0.7309  0.2010
  106SAPE   H8X10918   5.704   0.006   3.760  1.4079 -4.6416 -1.4600
  106SAPE   H8Y10919   5.591  -0.112   3.680 -1.4249 -0.4713  1.7535
  106SAPE   C3910920   5.561  -0.078   3.887  0.7614  0.1250 -0.2507
  106SAPE   H9X10921   5.616  -0.171   3.916  2.8010  1.6223  0.9693
  106SAPE   H9Y10922   5.453  -0.100   3.894  0.3594  1.3552 -1.9711
  106SAPE  C31010923   5.588   0.039   3.991  0.2058 -0.1043 -0.2175
  106SAPE  H10X10924   5.519   0.120   3.960 -0.4910 -1.0715 -1.2656
  106SAPE  H10Y10925   5.689   0.078   3.965  1.1711 -0.7282  2.3200
  106SAPE  C31110926   5.570   0.005   4.139 -0.2272  0.3530  0.2019
  106SAPE  H11X10927   5.648  -0.064   4.179 -2.1409 -1.9663  0.1604
  106SAPE  H11Y10928   5.469  -0.040   4.147 -0.0239 -0.1752 -0.1166
  106SAPE  C31210929   5.566   0.125   4.240  0.6705 -0.8421 -0.5139
  106SAPE  H12X10930   5.486   0.193   4.202  1.8586  0.8615 -0.0936
  106SAPE  H12Y10931   5.665   0.172   4.222 -0.3645  0.4973 -3.4192
  106SAPE  C31310932   5.519   0.085   4.377 -0.3552 -0.1360 -0.0178
  106SAPE  H13X10933   5.438   0.010   4.366  2.4315 -3.2182 -0.9811
  106SAPE  H13Y10934   5.498   0.171   4.444  2.0530 -1.0473  2.0531
  106SAPE  C31410935   5.622   0.005   4.455  0.2349  0.5674 -0.0823
  106SAPE  H14X10936   5.722   0.052   4.443  0.4030  0.7936  1.9090
  106SAPE  H14Y10937   5.646  -0.095   4.414 -2.5682 -0.2912  0.1385
  106SAPE  C31510938   5.580  -0.019   4.610 -0.1961  0.3627 -0.4177
  106SAPE  H15X10939   5.476  -0.054   4.626  0.2847  0.1540  2.7237
  106SAPE  H15Y10940   5.594   0.081   4.657 -0.5921  1.0513 -1.7154
  106SAPE  C31610941   5.675  -0.110   4.684 -0.7598  0.4053 -0.1326
  106SAPE  H16X10942   5.699  -0.202   4.628  1.5297  0.7432  0.1950
  106SAPE  H16Y10943   5.620  -0.140   4.776 -0.0149 -0.4232  0.0495
  106SAPE  C31710944   5.809  -0.045   4.708 -0.4757 -0.8624  0.2137
  106SAPE  H17X10945   5.850  -0.013   4.609  0.3312  1.4182  1.2201
  106SAPE  H17Y10946   5.882  -0.116   4.753  0.1073 -0.5043 -0.1428
  106SAPE  C31810947   5.798   0.076   4.804 -0.1549 -0.7554  0.3056
  106SAPE  H18X10948   5.891   0.111   4.854 -0.5994  0.8353  0.0663
  106SAPE  H18Y10949   5.730   0.042   4.885 -0.6779  3.0987  1.6993
  106SAPE  H18Z10950   5.759   0.166   4.753 -0.9347 -0.3195  1.6319
  107SAPE     N10951   2.805   3.692   2.899 -0.2568  0.1677 -0.4566
  107SAPE   HN110952   2.889   3.631   2.893 -0.5974 -0.3546  0.0058
  107SAPE   HN210953   2.837   3.790   2.912  0.3508 -0.1603  0.6722
  107SAPE   HN310954   2.746   3.657   2.978  1.8264 -2.0878  0.2378
  107SAPE   C1210955   2.734   3.682   2.767  0.1987 -0.6451 -0.3946
  107SAPE  H12A10956   2.692   3.579   2.766  0.6669 -0.9618  2.9219
  107SAPE  H12B10957   2.808   3.696   2.684  0.3138 -0.2293 -0.2211
  107SAPE   C1110958   2.619   3.783   2.747  0.1254  0.3569 -0.4883
  107SAPE  H11A10959   2.571   3.760   2.650 -1.2341  1.1862 -0.0371
  107SAPE  H11B10960   2.659   3.885   2.734  1.3526  0.1842  1.5248
  107SAPE     P10961   2.407   3.687   2.856  0.0728 -0.0972 -0.1535
  107SAPE   O1310962   2.297   3.754   2.787 -0.3066 -0.2219 -0.0890
  107SAPE   O1410963   2.442   3.550   2.816  0.1875  0.2870 -0.4391
  107SAPE   O1210964   2.528   3.784   2.848  0.6783  0.6766 -0.0081
  107SAPE   O1110965   2.374   3.688   3.012  0.1058 -0.0321 -0.0971
  107SAPE    C110966   2.372   3.810   3.091 -0.3781 -0.1209  0.7796
  107SAPE    HA10967   2.361   3.896   3.021  2.7019 -2.1540 -2.5499
  107SAPE    HB10968   2.280   3.807   3.153 -2.0566  0.0971 -1.5492
  107SAPE    C210969   2.502   3.834   3.166  0.0269 -0.7880 -0.2599
  107SAPE    HS10970   2.580   3.832   3.087  0.9790  2.8291  0.3979
  107SAPE   O2110971   2.528   3.732   3.265 -0.0683  0.6417 -0.0639
  107SAPE   C2110972   2.596   3.633   3.212 -0.1003  0.7255  0.2373
  107SAPE   O2210973   2.667   3.634   3.110  0.2598 -0.0848  0.2182
  107SAPE   C2210974   2.599   3.505   3.295 -0.4195 -0.8034  0.1149
  107SAPE   H2R10975   2.547   3.414   3.258 -1.1866 -0.9907  1.5820
  107SAPE   H2S10976   2.706   3.480   3.309  0.7606  2.8377 -1.1804
  107SAPE    C310977   2.485   3.967   3.241 -0.8318 -0.2119 -0.5717
  107SAPE    HX10978   2.457   4.050   3.172  0.0402  2.6351  2.2884
  107SAPE    HY10979   2.586   3.986   3.281 -1.1015 -0.9485  0.5067
  107SAPE   O3110980   2.384   3.968   3.348  0.5240  0.2558  0.2458
  107SAPE   C3110981   2.361   4.083   3.406 -0.9892 -0.3160 -0.2668
  107SAPE   O3210982   2.417   4.187   3.388 -0.6326  0.1519  0.1009
  107SAPE   C3210983   2.245   4.056   3.503 -0.4068 -0.4331  0.6684
  107SAPE   H2X10984   2.268   3.970   3.570  3.4948 -0.2653 -0.2397
  107SAPE   H2Y10985   2.154   4.038   3.442  0.6908 -0.7816 -0.9409
  107SAPE   C2310986   2.554   3.525   3.445  0.5488 -0.1121 -0.0515
  107SAPE   H3R10987   2.454   3.573   3.444 -0.0218 -1.1313  1.9269
  107SAPE   H3S10988   2.614   3.591   3.512  0.7188 -2.5383  2.3586
  107SAPE   C2410989   2.531   3.398   3.532  0.4203 -0.2683  0.5436
  107SAPE   H4R10990   2.471   3.320   3.479  0.8160 -0.1479 -0.0894
  107SAPE   H4S10991   2.470   3.423   3.621  1.0418  0.6064  0.7324
  107SAPE   C2510992   2.662   3.326   3.567 -0.3065  0.2819 -0.0688
  107SAPE   H5R10993   2.724   3.291   3.483  0.0154 -2.7991  1.3391
  107SAPE   C2610994   2.713   3.304   3.688 -0.4839  0.3654 -0.3280
  107SAPE   H6R10995   2.810   3.252   3.694 -0.3370  0.7380  0.7528
  107SAPE   C2710996   2.665   3.340   3.822  0.7830 -0.5307 -0.2284
  107SAPE   H7R10997   2.639   3.251   3.882 -0.8285 -0.3287 -0.5812
  107SAPE   H7S10998   2.573   3.400   3.808  0.0311 -0.4889  3.7177
  107SAPE   C2810999   2.763   3.425   3.896  0.1137 -0.6018  0.1673
  107SAPE   H8R11000   2.813   3.506   3.841 -1.1157 -0.4211 -0.7096
  107SAPE   C2911001   2.798   3.410   4.020  0.1019  0.5020  0.4854
  107SAPE   H9R11002   2.861   3.485   4.070 -1.5894  0.5380  2.7002
  107SAPE  C21011003   2.745   3.317   4.125  0.3152 -0.4998  0.0287
  107SAPE  H10R11004   2.636   3.302   4.108 -0.1157  1.5991  0.5463
  107SAPE  H10S11005   2.748   3.365   4.225  0.2295 -0.0913 -0.1622
  107SAPE  C21111006   2.821   3.186   4.116  0.3888  0.0226  0.5479
  107SAPE  H11R11007   2.807   3.136   4.019  1.5941  0.9182 -0.1166
  107SAPE  C21211008   2.910   3.132   4.209 -0.6936 -0.4618 -0.1326
  107SAPE  H12R11009   2.958   3.036   4.185  0.6786 -0.1426  1.2192
  107SAPE  C21311010   2.940   3.186   4.346 -0.2284  0.0149  0.5119
  107SAPE  H13R11011   2.894   3.286   4.356  0.7115  0.6840 -1.3078
  107SAPE  H13S11012   3.047   3.206   4.369 -0.2026 -0.8341  1.1837
  107SAPE  C21411013   2.893   3.088   4.446  0.6837  0.6813  0.3525
  107SAPE  H14R11014   2.809   3.024   4.416 -2.0457  3.0094  2.3948
  107SAPE  C21511015   2.936   3.071   4.567  0.6201  1.2750  0.3205
  107SAPE  H15R11016   2.901   2.984   4.625 -0.4208  1.5417  0.1068
  107SAPE  C21611017   3.046   3.154   4.641  0.3163 -0.0706 -0.0614
  107SAPE  H16R11018   3.091   3.227   4.570 -0.2069 -1.1320 -1.5080
  107SAPE  H16S11019   3.125   3.087   4.681  0.2779 -0.4223 -0.5793
  107SAPE  C21711020   3.004   3.235   4.764  0.1061  0.2969  0.0367
  107SAPE  H17R11021   3.084   3.279   4.826 -0.1218  0.1914  0.4109
  107SAPE  H17S11022   2.946   3.158   4.820  1.0246 -0.9624 -0.6956
  107SAPE  C21811023   2.904   3.343   4.719 -0.1538 -0.0456 -0.3722
  107SAPE  H18R11024   2.827   3.294   4.656  0.0970 -0.1012 -0.6327
  107SAPE  H18S11025   2.956   3.423   4.662  1.1951 -1.1481 -0.7404
  107SAPE  C21911026   2.857   3.416   4.844  0.7963 -0.1002  0.7207
  107SAPE  H19R11027   2.794   3.499   4.805 -0.3573 -0.1838  2.3034
  107SAPE  H19S11028   2.947   3.459   4.893  1.9438 -0.5853 -0.8959
  107SAPE  C22011029   2.780   3.335   4.952 -0.0210 -0.0224  0.4262
  107SAPE  H20R11030   2.708   3.404   5.000 -1.0375  0.1257 -1.2303
  107SAPE  H20S11031   2.853   3.302   5.029 -0.7672 -1.8836  0.3957
  107SAPE  H20T11032   2.727   3.249   4.906  0.3683 -0.4218  0.7101
  107SAPE   C3311033   2.230   4.180   3.594 -0.9696  0.4985 -0.1155
  107SAPE   H3X11034   2.122   4.190   3.618 -0.9718 -0.1984  0.2188
  107SAPE   H3Y11035   2.247   4.274   3.539  2.0066  0.3928  0.4206
  107SAPE   C3411036   2.325   4.188   3.714  0.3639  0.3010 -0.3475
  107SAPE   H4X11037   2.429   4.190   3.672  0.1423 -2.7942 -1.2858
  107SAPE   H4Y11038   2.311   4.097   3.776  0.0688  2.1637  2.5081
  107SAPE   C3511039   2.298   4.296   3.825 -0.2564 -0.2576 -0.2064
  107SAPE   H5X11040   2.191   4.298   3.853 -0.1439 -2.1453  0.5277
  107SAPE   H5Y11041   2.321   4.394   3.779 -2.8647  0.6713  0.3074
  107SAPE   C3611042   2.397   4.269   3.941  0.0215  0.8859  0.1795
  107SAPE   H6X11043   2.501   4.284   3.904 -0.5595  1.9715 -1.0339
  107SAPE   H6Y11044   2.380   4.166   3.979  1.9737  0.6355  0.5177
  107SAPE   C3711045   2.374   4.364   4.055 -1.1817 -0.0033 -0.5466
  107SAPE   H7X11046   2.380   4.469   4.020  1.5238 -0.6304 -2.2560
  107SAPE   H7Y11047   2.453   4.352   4.132 -1.6612  1.3776  0.2009
  107SAPE   C3811048   2.238   4.350   4.122  0.0702  0.3007  0.6166
  107SAPE   H8X11049   2.235   4.243   4.153  2.1538  0.2781  0.8803
  107SAPE   H8Y11050   2.158   4.367   4.048 -1.0693  0.2765  1.7946
  107SAPE   C3911051   2.225   4.443   4.239 -0.0009 -0.0142 -0.2920
  107SAPE   H9X11052   2.121   4.439   4.277  0.7032  0.1677  1.8019
  107SAPE   H9Y11053   2.244   4.544   4.197 -2.7687  0.2684 -1.0126
  107SAPE  C31011054   2.320   4.414   4.359 -0.3521 -0.1471  0.1418
  107SAPE  H10X11055   2.418   4.457   4.327 -0.9443  1.7525  0.7186
  107SAPE  H10Y11056   2.321   4.304   4.374 -1.0409 -0.1886 -0.0795
  107SAPE  C31111057   2.283   4.482   4.493  0.1630 -0.5842 -0.4050
  107SAPE  H11X11058   2.192   4.429   4.530 -1.8825 -0.0450 -4.1433
  107SAPE  H11Y11059   2.264   4.589   4.472 -2.2253 -1.3517 -2.7478
  107SAPE  C31211060   2.397   4.459   4.602 -0.0358  0.6092 -0.5177
  107SAPE  H12X11061   2.395   4.543   4.674 -0.7777  2.3008 -2.3971
  107SAPE  H12Y11062   2.492   4.476   4.546  0.3864  1.7484  0.4992
  107SAPE  C31311063   2.407   4.317   4.656 -0.1304  0.4854  0.5288
  107SAPE  H13X11064   2.423   4.248   4.571  0.7106 -0.7742  1.6846
  107SAPE  H13Y11065   2.323   4.287   4.722 -0.2627 -0.6409 -0.1374
  107SAPE  C31411066   2.533   4.309   4.754 -0.0827 -0.4782  0.3139
  107SAPE  H14X11067   2.609   4.381   4.716 -1.2813  0.1115 -1.0911
  107SAPE  H14Y11068   2.582   4.210   4.751  2.6657  0.7936 -2.0267
  107SAPE  C31511069   2.491   4.366   4.892 -0.7298  0.8794  0.0827
  107SAPE  H15X11070   2.382   4.351   4.907 -0.6729  0.2334 -0.1099
  107SAPE  H15Y11071   2.508   4.476   4.891  2.3299  0.4781  0.0649
  107SAPE  C31611072   2.571   4.307   5.013 -0.1881 -0.3227  0.1196
  107SAPE  H16X11073   2.677   4.324   4.986 -0.6336 -0.9103 -2.2395
  107SAPE  H16Y11074   2.548   4.201   5.035  0.3185 -0.3654  0.4707
  107SAPE  C31711075   2.545   4.388   5.136 -0.3211  0.4207 -0.2278
  107SAPE  H17X11076   2.540   4.491   5.096  2.2277  0.3855 -0.8057
  107SAPE  H17Y11077   2.628   4.377   5.209 -1.2174 -0.1027  0.7573
  107SAPE  C31811078   2.412   4.349   5.206  0.5305  0.3100 -0.1658
  107SAPE  H18X11079   2.398   4.395   5.306  0.3661  1.4648 -0.7110
  107SAPE  H18Y11080   2.412   4.238   5.217  1.2618  0.4786  1.8701
  107SAPE  H18Z11081   2.332   4.379   5.135 -1.2774  0.6325  1.8961
  108SAPE     N11082   1.325   5.567   2.750  0.4264 -0.1063 -0.0356
  108SAPE   HN111083   1.383   5.482   2.739  0.0212 -0.4809  0.6977
  108SAPE   HN211084   1.274   5.591   2.663 -0.7223  0.3579  0.7354
  108SAPE   HN311085   1.370   5.657   2.780 -2.5220  1.2642  0.6426
  108SAPE   C1211086   1.226   5.536   2.860  0.1140  0.3579 -0.1255
  108SAPE  H12A11087   1.271   5.498   2.954  1.0996  0.0038 -0.7183
  108SAPE  H12B11088   1.171   5.450   2.815 -0.2752  1.7579 -2.5090
  108SAPE   C1111089   1.114   5.644   2.872 -0.2154  0.5559 -0.3954
  108SAPE  H11A11090   1.036   5.613   2.945 -0.2711  0.1778 -0.6141
  108SAPE  H11B11091   1.057   5.644   2.777  1.6444  0.8145 -1.5611
  108SAPE     P11092   1.173   5.835   3.039 -0.3073  0.0717 -0.2920
  108SAPE   O1311093   1.271   5.777   3.135 -0.4873 -0.2247 -0.1781
  108SAPE   O1411094   1.182   5.977   3.010  0.2909 -0.1270  0.8681
  108SAPE   O1211095   1.169   5.764   2.898 -0.2253  0.2881 -0.3837
  108SAPE   O1111096   1.015   5.809   3.079 -0.2849  0.0867 -0.3003
  108SAPE    C111097   0.973   5.832   3.214  0.3662 -0.0978 -0.6640
  108SAPE    HA11098   1.012   5.928   3.254 -0.3096 -0.3190  0.5618
  108SAPE    HB11099   0.861   5.833   3.217  0.3791 -0.3655  0.9378
  108SAPE    C211100   1.005   5.709   3.306 -0.2357 -0.2728 -0.0379
  108SAPE    HS11101   1.116   5.708   3.303 -0.2128 -0.2347  0.7486
  108SAPE   O2111102   0.941   5.581   3.254 -0.7896 -0.1282  0.3014
  108SAPE   C2111103   1.020   5.477   3.251  0.0465 -0.1482  0.0024
  108SAPE   O2211104   1.140   5.479   3.271 -0.9907 -0.1926 -0.0358
  108SAPE   C2211105   0.938   5.343   3.237 -0.3424 -0.9429  0.6383
  108SAPE   H2R11106   0.896   5.332   3.340 -2.0624  0.7823  0.1700
  108SAPE   H2S11107   0.848   5.359   3.174 -0.2814 -3.0983 -0.0728
  108SAPE    C311108   0.953   5.736   3.455 -0.8226  0.0679  0.6088
  108SAPE    HX11109   0.842   5.740   3.462 -0.7013  0.4641  3.3313
  108SAPE    HY11110   0.993   5.835   3.488 -1.5654  0.7990 -0.6184
  108SAPE   O3111111   0.994   5.634   3.553  0.7146 -0.5727  0.0775
  108SAPE   C3111112   1.114   5.655   3.598  0.0078  0.1507  0.3299
  108SAPE   O3211113   1.196   5.733   3.548 -0.1505  0.3011 -0.1455
  108SAPE   C3211114   1.146   5.555   3.718  0.8930 -0.0775  0.2816
  108SAPE   H2X11115   1.219   5.480   3.682  0.9870  0.4077 -0.5542
  108SAPE   H2Y11116   1.053   5.502   3.747  1.4945 -1.6806 -0.6006
  108SAPE   C2311117   1.027   5.224   3.200  0.2707  0.1718 -0.0015
  108SAPE   H3R11118   1.073   5.186   3.294  2.6114  0.3675 -1.0116
  108SAPE   H3S11119   1.103   5.256   3.126  0.5244  0.3735  0.3440
  108SAPE   C2411120   0.930   5.112   3.145  0.4543 -0.0863  0.1347
  108SAPE   H4R11121   0.881   5.153   3.054 -0.0694 -0.0953  0.4060
  108SAPE   H4S11122   0.854   5.101   3.226  1.4491  1.2256  1.3027
  108SAPE   C2511123   1.001   4.981   3.110 -0.3922  0.6037  0.2297
  108SAPE   H5R11124   1.038   4.974   3.007  0.4154  3.6430  0.2117
  108SAPE   C2611125   1.003   4.870   3.180  0.0310  0.0282  0.1595
  108SAPE   H6R11126   1.063   4.786   3.141  2.3359  1.6848 -0.0953
  108SAPE   C2711127   0.952   4.856   3.325  1.1438 -0.4707  0.0316
  108SAPE   H7R11128   0.855   4.802   3.330  1.1308 -0.4427  0.0754
  108SAPE   H7S11129   0.922   4.956   3.363 -1.8810  0.0262 -3.0977
  108SAPE   C2811130   1.042   4.799   3.427  0.6254 -1.1011  0.7494
  108SAPE   H8R11131   1.144   4.780   3.389 -0.0055  0.0393 -1.7497
  108SAPE   C2911132   1.007   4.756   3.542 -0.4914  0.9714 -0.6216
  108SAPE   H9R11133   1.085   4.703   3.598 -2.3093 -0.2950  0.8440
  108SAPE  C21011134   0.875   4.768   3.607 -0.4777 -0.0958 -0.2761
  108SAPE  H10R11135   0.858   4.687   3.681 -1.0492 -0.0759 -0.3821
  108SAPE  H10S11136   0.791   4.773   3.534  0.7479 -0.1156 -1.7376
  108SAPE  C21111137   0.852   4.903   3.667  1.0723  0.0356  0.0788
  108SAPE  H11R11138   0.860   4.990   3.601 -3.1854  0.5634 -0.0639
  108SAPE  C21211139   0.807   4.930   3.789  0.2604 -0.4713 -0.1667
  108SAPE  H12R11140   0.813   5.034   3.824 -0.9221 -1.2142  2.5432
  108SAPE  C21311141   0.776   4.834   3.898  0.1954  0.0637  0.0253
  108SAPE  H13R11142   0.811   4.733   3.866 -2.3680 -0.5345 -1.2214
  108SAPE  H13S11143   0.666   4.819   3.901  0.1546  0.3307 -0.0924
  108SAPE  C21411144   0.831   4.858   4.040 -0.0716 -0.0884  0.4213
  108SAPE  H14R11145   0.918   4.925   4.041  1.6506 -2.2179  1.9075
  108SAPE  C21511146   0.776   4.806   4.151 -0.3570  0.1369  0.1763
  108SAPE  H15R11147   0.827   4.829   4.246  2.8157  0.1409 -1.3985
  108SAPE  C21611148   0.642   4.735   4.154  0.0339 -0.0198 -0.7039
  108SAPE  H16R11149   0.610   4.717   4.049  1.5844  0.1269 -1.2175
  108SAPE  H16S11150   0.563   4.781   4.217  0.5568 -1.6676  1.2465
  108SAPE  C21711151   0.670   4.599   4.216  0.1971  0.2568 -1.0521
  108SAPE  H17R11152   0.697   4.602   4.324  0.0288 -1.2858 -0.9350
  108SAPE  H17S11153   0.750   4.548   4.159 -1.0828 -2.4554 -0.5882
  108SAPE  C21811154   0.550   4.511   4.190  0.3226 -0.8306  0.7189
  108SAPE  H18R11155   0.574   4.405   4.171 -0.6576 -0.8889 -0.2887
  108SAPE  H18S11156   0.503   4.558   4.101 -1.9257 -1.1768  1.6480
  108SAPE  C21911157   0.447   4.522   4.306  0.0935  0.3502  0.6258
  108SAPE  H19R11158   0.420   4.625   4.337  0.4074  0.6430 -0.0547
  108SAPE  H19S11159   0.493   4.470   4.393 -0.0881  0.3357  0.7130
  108SAPE  C22011160   0.323   4.435   4.265  0.7044 -0.8855  0.0063
  108SAPE  H20R11161   0.259   4.406   4.351 -1.0304 -0.3457 -1.0622
  108SAPE  H20S11162   0.357   4.341   4.217  3.5436  0.0121  0.0861
  108SAPE  H20T11163   0.276   4.490   4.181  0.1991 -1.1232  0.1336
  108SAPE   C3311164   1.204   5.631   3.840  0.0612  0.5631  0.5897
  108SAPE   H3X11165   1.273   5.710   3.803  0.5468 -0.4715 -0.7882
  108SAPE   H3Y11166   1.268   5.564   3.901  0.3887  0.1605 -0.1888
  108SAPE   C3411167   1.097   5.694   3.934 -1.1951  0.4602  0.8962
  108SAPE   H4X11168   1.022   5.618   3.965 -0.7286 -0.3544  0.1112
  108SAPE   H4Y11169   1.050   5.783   3.887 -1.5698  0.9064  2.0827
  108SAPE   C3511170   1.163   5.743   4.064  0.7519 -0.2730 -0.1667
  108SAPE   H5X11171   1.223   5.660   4.106  1.1859 -1.4886 -2.9454
  108SAPE   H5Y11172   1.242   5.818   4.042  1.9040 -0.9222  1.5824
  108SAPE   C3611173   1.071   5.807   4.168 -0.3141 -0.8280 -0.0370
  108SAPE   H6X11174   1.032   5.892   4.106  1.6191  1.2866  1.5100
  108SAPE   H6Y11175   1.138   5.850   4.245  3.2838 -2.8962 -1.7703
  108SAPE   C3711176   0.973   5.711   4.242 -0.7441 -0.6995 -0.6079
  108SAPE   H7X11177   0.919   5.643   4.172  0.1237 -1.0968 -0.9021
  108SAPE   H7Y11178   0.901   5.780   4.292  1.8112  2.4722 -0.9949
  108SAPE   C3811179   1.042   5.635   4.355  0.3164 -0.2748  0.0403
  108SAPE   H8X11180   1.106   5.702   4.416  1.3684 -1.4466  0.2584
  108SAPE   H8Y11181   1.108   5.560   4.306 -1.5742 -0.2785 -2.7731
  108SAPE   C3911182   0.936   5.570   4.447 -0.6715  0.3282  0.4074
  108SAPE   H9X11183   0.894   5.487   4.386  3.0512  0.0335 -2.0480
  108SAPE   H9Y11184   0.856   5.644   4.470  1.0466  1.8077  1.9343
  108SAPE  C31011185   0.991   5.512   4.578  0.6594  0.2628 -0.3281
  108SAPE  H10X11186   1.080   5.451   4.551 -0.5986 -1.4372 -0.7959
  108SAPE  H10Y11187   0.908   5.454   4.624 -0.1879  0.0385 -2.0775
  108SAPE  C31111188   1.034   5.628   4.663 -1.0013  0.6260 -0.3657
  108SAPE  H11X11189   0.948   5.694   4.687 -0.8204  0.6318  0.2915
  108SAPE  H11Y11190   1.118   5.688   4.622  1.4905 -1.0446  1.9202
  108SAPE  C31211191   1.077   5.585   4.806  0.2490  0.4291  1.0149
  108SAPE  H12X11192   1.117   5.675   4.857  0.1298  1.6617 -0.9710
  108SAPE  H12Y11193   1.154   5.504   4.802 -1.4393 -1.2251 -0.5205
  108SAPE  C31311194   0.963   5.541   4.889  0.3769 -0.8502  0.4845
  108SAPE  H13X11195   0.910   5.453   4.846  0.7822 -0.4670 -0.8473
  108SAPE  H13Y11196   0.874   5.606   4.884  0.1027 -1.1952  0.8126
  108SAPE  C31411197   0.983   5.527   5.040  0.8140 -0.2325  0.5347
  108SAPE  H14X11198   1.041   5.605   5.094  3.1225 -1.4066 -0.0764
  108SAPE  H14Y11199   1.038   5.435   5.069  0.4027 -0.1607  1.5879
  108SAPE  C31511200   0.847   5.515   5.117  0.0462  0.0741 -0.5593
  108SAPE  H15X11201   0.786   5.440   5.062 -0.6638 -0.2202  0.5935
  108SAPE  H15Y11202   0.789   5.610   5.117 -0.6241 -0.3199  0.0497
  108SAPE  C31611203   0.865   5.452   5.258 -0.0435  0.1785  0.2319
  108SAPE  H16X11204   0.895   5.530   5.331 -0.4705  0.1840  0.4040
  108SAPE  H16Y11205   0.944   5.374   5.264 -0.7207 -0.6576 -1.2360
  108SAPE  C31711206   0.737   5.389   5.307  0.3083 -0.0489 -0.0267
  108SAPE  H17X11207   0.687   5.343   5.219 -2.8978 -0.2267  1.7684
  108SAPE  H17Y11208   0.668   5.468   5.343 -1.2158 -1.8797  1.2701
  108SAPE  C31811209   0.764   5.288   5.425  0.5656  0.0006 -0.1060
  108SAPE  H18X11210   0.833   5.209   5.388 -0.5717 -1.1528  0.1505
  108SAPE  H18Y11211   0.671   5.234   5.455  1.6364 -2.5742 -1.2013
  108SAPE  H18Z11212   0.809   5.344   5.510  0.9545 -0.6523  0.1230
  109SAPE     N11213   3.928   2.030   3.015  0.3740  0.5409  0.4438
  109SAPE   HN111214   3.854   2.017   3.087 -0.4772  0.0154 -0.4992
  109SAPE   HN211215   3.887   2.100   2.951 -1.6089  0.6001  1.6933
  109SAPE   HN311216   3.942   1.939   2.966 -0.8203 -0.8101  2.4503
  109SAPE   C1211217   4.059   2.059   3.086 -0.0490  0.7469 -0.0632
  109SAPE  H12A11218   4.038   2.135   3.165  2.0903  1.2272  0.1184
  109SAPE  H12B11219   4.130   2.116   3.023 -0.2962  1.6502  0.4595
  109SAPE   C1111220   4.133   1.936   3.139  0.0233 -0.2502 -0.0408
  109SAPE  H11A11221   4.069   1.896   3.221  1.1398 -0.1015  0.9268
  109SAPE  H11B11222   4.231   1.964   3.183 -1.1955  0.7878  2.2258
  109SAPE     P11223   4.261   1.728   3.045  0.1541  0.1517  0.3070
  109SAPE   O1311224   4.215   1.634   2.938 -0.0737  0.0455  0.4641
  109SAPE   O1411225   4.399   1.786   3.021  0.0649 -0.1461  0.1232
  109SAPE   O1211226   4.142   1.835   3.036 -0.4105  0.3649  0.3598
  109SAPE   O1111227   4.240   1.671   3.193  0.1503 -0.5437  0.2803
  109SAPE    C111228   4.164   1.551   3.209  0.4480  0.8461  0.0512
  109SAPE    HA11229   4.177   1.479   3.126 -1.3155  0.9557 -0.3612
  109SAPE    HB11230   4.199   1.504   3.303  2.5723  0.8034 -0.7000
  109SAPE    C211231   4.013   1.582   3.234  0.3682  0.4405  0.1323
  109SAPE    HS11232   3.972   1.622   3.139 -1.1740 -0.1379  0.5239
  109SAPE   O2111233   4.009   1.673   3.345 -0.2572 -0.0694 -0.1866
  109SAPE   C2111234   3.898   1.742   3.360 -0.3555 -0.3357  0.0801
  109SAPE   O2211235   3.798   1.739   3.284 -0.7034 -0.3379  0.3289
  109SAPE   C2211236   3.908   1.837   3.480 -0.5578  0.1556  0.2287
  109SAPE   H2R11237   3.874   1.777   3.567 -0.9475 -0.6957 -0.4912
  109SAPE   H2S11238   4.016   1.863   3.480 -0.5813  0.2539  0.4285
  109SAPE    C311239   3.923   1.457   3.262  0.7724  0.4199 -1.0477
  109SAPE    HX11240   3.956   1.378   3.191  1.8178  0.9446 -1.1679
  109SAPE    HY11241   3.822   1.499   3.240  0.5062 -0.6349 -1.8778
  109SAPE   O3111242   3.923   1.411   3.405 -0.1712 -0.3707  0.2349
  109SAPE   C3111243   3.835   1.306   3.426  0.1189  0.9997  0.7829
  109SAPE   O3211244   3.767   1.261   3.333 -0.1496 -0.5160 -0.5252
  109SAPE   C3211245   3.817   1.257   3.570  0.3213 -0.4327  0.1791
  109SAPE   H2X11246   3.902   1.287   3.635  1.0160  0.1649 -0.9742
  109SAPE   H2Y11247   3.819   1.148   3.552  0.4115 -0.3749 -0.1837
  109SAPE   C2311248   3.846   1.977   3.454 -0.1446 -0.4444 -0.9614
  109SAPE   H3R11249   3.750   1.960   3.401 -0.4398  0.7804 -0.8609
  109SAPE   H3S11250   3.918   2.034   3.392  1.4587 -1.0966  0.2398
  109SAPE   C2411251   3.809   2.053   3.580 -0.1578 -0.3010  0.3367
  109SAPE   H4R11252   3.763   2.149   3.550  0.9179 -0.0095 -0.4211
  109SAPE   H4S11253   3.908   2.072   3.628 -0.7301  1.8069  0.8037
  109SAPE   C2511254   3.710   1.986   3.667 -0.2979 -0.9207  0.0758
  109SAPE   H5R11255   3.618   1.954   3.615 -0.5031 -0.8516  0.3908
  109SAPE   C2611256   3.724   1.969   3.801  0.7557  0.6952 -0.2099
  109SAPE   H6R11257   3.632   1.935   3.851 -0.0362  1.6639 -0.9768
  109SAPE   C2711258   3.830   2.008   3.896 -0.5624  0.2952 -0.0638
  109SAPE   H7R11259   3.929   1.985   3.852 -0.9204 -0.9872 -0.2562
  109SAPE   H7S11260   3.832   1.946   3.988  1.5732  0.9952  0.4143
  109SAPE   C2811261   3.824   2.155   3.926  0.5957 -0.1124  0.3062
  109SAPE   H8R11262   3.855   2.216   3.841  1.7680 -1.7083 -0.4698
  109SAPE   C2911263   3.772   2.205   4.037 -0.2547  0.8016 -0.5593
  109SAPE   H9R11264   3.765   2.313   4.051 -0.9511  0.7628 -0.6020
  109SAPE  C21011265   3.713   2.127   4.158  0.0799  0.8286 -0.3975
  109SAPE  H10R11266   3.686   2.021   4.138  0.0012  1.0352 -1.4665
  109SAPE  H10S11267   3.611   2.168   4.174 -0.9140 -0.6047 -2.5158
  109SAPE  C21111268   3.786   2.129   4.286  0.5609  0.4574 -0.1871
  109SAPE  H11R11269   3.879   2.072   4.272  1.0503  1.8214 -3.3004
  109SAPE  C21211270   3.756   2.187   4.401  0.1762  1.0900  0.1354
  109SAPE  H12R11271   3.810   2.172   4.496  0.5329  2.0478  0.1007
  109SAPE  C21311272   3.625   2.258   4.428  0.0617 -0.3313 -0.4692
  109SAPE  H13R11273   3.544   2.253   4.352  0.6458  1.6957 -1.3040
  109SAPE  H13S11274   3.652   2.366   4.433 -1.2049  0.0719 -1.5085
  109SAPE  C21411275   3.568   2.222   4.564 -0.1083 -0.3812  0.4253
  109SAPE  H14R11276   3.470   2.172   4.561 -0.9906  1.3276 -1.1911
  109SAPE  C21511277   3.622   2.254   4.687 -0.7445 -0.4191 -0.0630
  109SAPE  H15R11278   3.570   2.238   4.782  0.3567  1.4976  0.9374
  109SAPE  C21611279   3.750   2.333   4.704  0.4255 -0.2575 -0.8829
  109SAPE  H16R11280   3.792   2.359   4.604 -2.1397 -0.2068 -2.0373
  109SAPE  H16S11281   3.823   2.271   4.760 -0.5546  1.4910  2.6314
  109SAPE  C21711282   3.755   2.467   4.777  0.2096 -0.6228 -0.5374
  109SAPE  H17R11283   3.690   2.532   4.714 -2.7908 -0.8852  2.0887
  109SAPE  H17S11284   3.861   2.501   4.771 -0.1499  0.7871  0.5162
  109SAPE  C21811285   3.700   2.471   4.915 -0.6972  0.2907 -0.6089
  109SAPE  H18R11286   3.742   2.404   4.993 -4.5181  0.2565  1.6351
  109SAPE  H18S11287   3.597   2.433   4.898  0.0170 -1.1553 -2.0131
  109SAPE  C21911288   3.689   2.609   4.979 -0.1433  0.0964  0.0189
  109SAPE  H19R11289   3.644   2.680   4.906 -0.9890  1.2671  1.6249
  109SAPE  H19S11290   3.787   2.661   4.991  0.5271 -0.9218 -0.9241
  109SAPE  C22011291   3.612   2.609   5.112  0.1352  0.4376  0.1178
  109SAPE  H20R11292   3.612   2.709   5.160 -2.3503 -0.5994  2.5299
  109SAPE  H20S11293   3.679   2.553   5.180  1.0596  1.8170  0.3992
  109SAPE  H20T11294   3.511   2.566   5.099 -0.3299  1.0494  1.5714
  109SAPE   C3311295   3.678   1.291   3.630 -0.8684 -0.3028  0.8697
  109SAPE   H3X11296   3.663   1.215   3.709 -2.2369  1.6584  2.6080
  109SAPE   H3Y11297   3.594   1.273   3.559 -1.7909 -1.1719  2.1389
  109SAPE   C3411298   3.673   1.423   3.698  0.4667  0.7970 -0.5693
  109SAPE   H4X11299   3.565   1.450   3.706 -0.5397 -2.8900  0.1415
  109SAPE   H4Y11300   3.724   1.511   3.653  1.2852  1.0434  0.8182
  109SAPE   C3511301   3.719   1.416   3.842 -0.0897  0.0946 -0.5616
  109SAPE   H5X11302   3.750   1.520   3.867 -1.8269  0.3578  0.7076
  109SAPE   H5Y11303   3.800   1.340   3.831  0.0714  0.1277  0.3307
  109SAPE   C3611304   3.610   1.360   3.943 -0.0204 -0.0656  0.4156
  109SAPE   H6X11305   3.583   1.261   3.901  1.1105 -0.6003  0.8957
  109SAPE   H6Y11306   3.516   1.419   3.947 -1.2131 -1.9497  1.3425
  109SAPE   C3711307   3.683   1.342   4.080 -0.6906 -0.6747  0.5859
  109SAPE   H7X11308   3.731   1.441   4.093  0.8858 -1.1628 -1.1365
  109SAPE   H7Y11309   3.766   1.268   4.075  1.4176  1.5480  0.9490
  109SAPE   C3811310   3.578   1.312   4.191  0.6749 -0.0168 -0.3784
  109SAPE   H8X11311   3.536   1.212   4.171 -3.7486  1.5759 -0.1778
  109SAPE   H8Y11312   3.491   1.378   4.172 -2.0113 -3.1342  0.3682
  109SAPE   C3911313   3.632   1.314   4.338 -0.3938 -0.2769  0.2333
  109SAPE   H9X11314   3.682   1.411   4.359 -2.0091  0.4271  0.9719
  109SAPE   H9Y11315   3.707   1.232   4.345 -0.0503  0.0823  0.8178
  109SAPE  C31011316   3.522   1.299   4.444 -0.1731 -0.6947 -0.5226
  109SAPE  H10X11317   3.469   1.204   4.421 -4.1003  0.7641  1.5832
  109SAPE  H10Y11318   3.448   1.381   4.430  0.5402 -0.2328 -1.7993
  109SAPE  C31111319   3.565   1.307   4.593 -0.1884  0.2175  0.0017
  109SAPE  H11X11320   3.634   1.393   4.606 -0.0661  0.0431  0.5235
  109SAPE  H11Y11321   3.629   1.220   4.620  0.7566  1.7086  2.9753
  109SAPE  C31211322   3.465   1.314   4.705 -0.6066  0.1477  0.3289
  109SAPE  H12X11323   3.420   1.213   4.715  2.8952 -1.8580 -2.0731
  109SAPE  H12Y11324   3.385   1.390   4.690 -0.9199  0.1531  1.8296
  109SAPE  C31311325   3.530   1.335   4.842 -0.1159 -0.0429 -0.3392
  109SAPE  H13X11326   3.548   1.444   4.859 -0.0348 -0.3004  1.3873
  109SAPE  H13Y11327   3.621   1.275   4.862 -1.1077 -0.7216  2.5485
  109SAPE  C31411328   3.429   1.312   4.959  0.5402  0.1940  0.9301
  109SAPE  H14X11329   3.388   1.208   4.958 -0.1904  0.3876  3.6235
  109SAPE  H14Y11330   3.346   1.384   4.943 -0.0327 -0.9624 -1.8750
  109SAPE  C31511331   3.487   1.335   5.094 -0.1809  0.2199 -0.6653
  109SAPE  H15X11332   3.533   1.433   5.118 -1.4865  0.8309 -0.5720
  109SAPE  H15Y11333   3.575   1.270   5.119 -1.3282 -0.1882  2.8347
  109SAPE  C31611334   3.384   1.304   5.200 -0.3050 -0.0852 -0.7292
  109SAPE  H16X11335   3.327   1.213   5.172  1.4625 -0.5353 -3.1346
  109SAPE  H16Y11336   3.309   1.386   5.210 -0.9980 -0.4950 -2.2228
  109SAPE  C31711337   3.455   1.279   5.340 -0.4331  0.1214  0.4561
  109SAPE  H17X11338   3.536   1.213   5.303  1.5162  3.0906 -1.0102
  109SAPE  H17Y11339   3.379   1.218   5.394 -0.9537 -2.4163 -2.8247
  109SAPE  C31811340   3.490   1.399   5.421  0.2740  0.0323 -0.7457
  109SAPE  H18X11341   3.398   1.445   5.462  1.0314 -0.8754  2.1957
  109SAPE  H18Y11342   3.544   1.472   5.357 -1.5608  1.5060 -0.6953
  109SAPE  H18Z11343   3.553   1.375   5.509  1.0884  2.9894 -0.4283
  110SAPE     N11344   4.976   6.186   2.750 -0.1609 -0.7136 -0.0925
  110SAPE   HN111345   4.938   6.090   2.754 -0.9069 -0.3957  0.9753
  110SAPE   HN211346   5.011   6.210   2.655 -1.2907 -0.7969 -0.5429
  110SAPE   HN311347   5.051   6.194   2.821 -1.0756  3.5608  0.7072
  110SAPE   C1211348   4.868   6.287   2.779  0.7134  0.5889 -0.0572
  110SAPE  H12A11349   4.922   6.385   2.784  1.8708 -0.0199 -0.2941
  110SAPE  H12B11350   4.826   6.256   2.877 -0.8307  0.5570 -0.7106
  110SAPE   C1111351   4.766   6.292   2.668  0.3247 -0.2329 -0.3016
  110SAPE  H11A11352   4.811   6.322   2.571  0.3547  0.6090 -0.0264
  110SAPE  H11B11353   4.685   6.362   2.698 -0.5206 -0.7616 -1.2601
  110SAPE     P11354   4.573   6.108   2.710  0.4441  0.2913 -0.1105
  110SAPE   O1311355   4.454   6.184   2.671 -0.1148  0.1661 -0.1431
  110SAPE   O1411356   4.549   5.960   2.705 -0.5664  0.1475  0.6632
  110SAPE   O1211357   4.709   6.166   2.634 -0.5342  0.0526  0.2018
  110SAPE   O1111358   4.609   6.141   2.853 -0.2071  0.1680  0.0147
  110SAPE    C111359   4.534   6.212   2.949 -0.5187 -0.2410 -0.1187
  110SAPE    HA11360   4.588   6.300   2.989 -0.0949 -0.9794  0.9902
  110SAPE    HB11361   4.437   6.249   2.909 -0.6560  0.5505  0.8932
  110SAPE    C211362   4.496   6.138   3.076 -0.1046  0.2348  0.0605
  110SAPE    HS11363   4.412   6.201   3.112 -0.2708  0.3713 -0.5562
  110SAPE   O2111364   4.593   6.137   3.182 -0.7873  0.7847  0.6278
  110SAPE   C2111365   4.693   6.050   3.177 -0.6209 -0.2859 -0.2819
  110SAPE   O2211366   4.701   5.955   3.104  0.1881  0.1238 -0.0148
  110SAPE   C2211367   4.800   6.084   3.280  0.9970  0.2663 -0.8384
  110SAPE   H2R11368   4.873   6.002   3.263 -2.0697 -2.5461 -1.4594
  110SAPE   H2S11369   4.842   6.186   3.266  0.1351  0.8701  0.7252
  110SAPE    C311370   4.419   6.000   3.048 -0.6838 -0.0161 -0.1198
  110SAPE    HX11371   4.326   6.029   2.995 -1.5108  0.9834  1.7858
  110SAPE    HY11372   4.492   5.949   2.981  0.9786 -0.1689  1.7489
  110SAPE   O3111373   4.405   5.917   3.165 -0.4579 -0.3784  0.3096
  110SAPE   C3111374   4.319   5.968   3.258  0.1093  0.0879  0.6309
  110SAPE   O3211375   4.243   6.058   3.237  0.4381  0.2442  0.1498
  110SAPE   C3211376   4.321   5.881   3.390  0.3600 -0.3436 -0.2730
  110SAPE   H2X11377   4.403   5.807   3.384  0.0220 -0.6941 -0.6752
  110SAPE   H2Y11378   4.225   5.827   3.380  0.5661 -0.5540 -1.2181
  110SAPE   C2311379   4.739   6.094   3.424  0.2051  0.6467  0.4503
  110SAPE   H3R11380   4.632   6.124   3.417 -0.3226 -1.3622 -0.7528
  110SAPE   H3S11381   4.802   6.162   3.485  1.1094 -0.5768  0.9014
  110SAPE   C2411382   4.742   5.959   3.501  0.6126 -0.7276  0.0193
  110SAPE   H4R11383   4.670   5.890   3.452  1.2870 -0.2080 -1.8024
  110SAPE   H4S11384   4.683   5.989   3.590  0.8839 -0.6178  0.1631
  110SAPE   C2511385   4.869   5.890   3.531 -0.4183 -0.2742 -0.5470
  110SAPE   H5R11386   4.901   5.824   3.450 -0.0066 -0.7580  0.0052
  110SAPE   C2611387   4.924   5.885   3.654 -0.3712  0.1871  1.2504
  110SAPE   H6R11388   5.017   5.826   3.657 -0.5788 -0.1523  1.1089
  110SAPE   C2711389   4.897   5.963   3.776 -0.4057 -0.3287 -0.3244
  110SAPE   H7R11390   4.795   6.006   3.788  0.1406  1.4047 -1.6010
  110SAPE   H7S11391   4.952   6.058   3.763  0.5743 -0.7546  0.5261
  110SAPE   C2811392   4.946   5.891   3.900  0.7354  0.2546 -0.0681
  110SAPE   H8R11393   5.004   5.943   3.977  0.3513  1.1138 -0.3464
  110SAPE   C2911394   4.914   5.764   3.940 -0.2475  0.6724 -1.0305
  110SAPE   H9R11395   4.945   5.735   4.042 -0.2551 -0.7051 -1.4056
  110SAPE  C21011396   4.811   5.672   3.878  0.3661  0.6081  0.7687
  110SAPE  H10R11397   4.847   5.639   3.778  0.1532 -1.5792  1.3625
  110SAPE  H10S11398   4.718   5.728   3.854 -0.1201 -0.7680 -0.7912
  110SAPE  C21111399   4.781   5.539   3.950  0.0584  0.0708 -0.2538
  110SAPE  H11R11400   4.806   5.446   3.896  1.9545  0.5803 -0.3274
  110SAPE  C21211401   4.700   5.528   4.059 -0.2612  0.0370 -0.9895
  110SAPE  H12R11402   4.698   5.427   4.102  0.3853  0.3878 -0.1188
  110SAPE  C21311403   4.639   5.627   4.155 -0.0604  0.0019 -0.1546
  110SAPE  H13R11404   4.532   5.603   4.174  0.4322 -2.3353  0.0713
  110SAPE  H13S11405   4.665   5.730   4.122  1.6724 -0.2459  0.3236
  110SAPE  C21411406   4.709   5.617   4.291 -0.5060  0.2273 -0.6004
  110SAPE  H14R11407   4.803   5.674   4.293 -0.0676 -0.4835 -0.3023
  110SAPE  C21511408   4.674   5.536   4.395 -0.1202  0.2810 -0.4125
  110SAPE  H15R11409   4.734   5.539   4.487 -0.7498  0.0502  0.0144
  110SAPE  C21611410   4.552   5.456   4.420  0.1796  0.7073 -0.4391
  110SAPE  H16R11411   4.573   5.354   4.459  0.8431  0.3775 -1.5945
  110SAPE  H16S11412   4.494   5.437   4.327 -1.7003  1.0144  0.6192
  110SAPE  C21711413   4.454   5.519   4.520  0.2729  0.0216 -0.7374
  110SAPE  H17R11414   4.365   5.454   4.526  0.9217 -0.7687  0.9637
  110SAPE  H17S11415   4.423   5.618   4.480  0.0273  0.2064 -0.0991
  110SAPE  C21811416   4.509   5.541   4.666  0.0942 -0.4835 -0.7889
  110SAPE  H18R11417   4.432   5.595   4.725 -1.2177 -0.5826 -2.3556
  110SAPE  H18S11418   4.597   5.606   4.644  0.4647 -1.4602 -2.3516
  110SAPE  C21911419   4.555   5.419   4.750 -0.4771 -0.0292 -0.1646
  110SAPE  H19R11420   4.650   5.388   4.701  0.9748  1.6622  1.4379
  110SAPE  H19S11421   4.476   5.341   4.751  2.2900 -3.0485 -0.5951
  110SAPE  C22011422   4.598   5.459   4.893 -0.3644 -0.7807 -0.0556
  110SAPE  H20R11423   4.509   5.485   4.953  0.8167  2.3557  0.5476
  110SAPE  H20S11424   4.658   5.553   4.904 -0.7344 -0.2421 -2.1046
  110SAPE  H20T11425   4.643   5.374   4.949  0.6242 -0.1146  0.2026
  110SAPE   C3311426   4.332   5.974   3.511 -0.0755  0.1793 -0.1511
  110SAPE   H3X11427   4.232   6.021   3.527  0.2174  0.9380 -0.5058
  110SAPE   H3Y11428   4.402   6.060   3.501 -0.3048  0.6626  1.9342
  110SAPE   C3411429   4.357   5.891   3.637  0.2306  0.0445 -0.1161
  110SAPE   H4X11430   4.463   5.858   3.636  0.6849  1.4043  0.2958
  110SAPE   H4Y11431   4.304   5.794   3.627  0.7302 -0.2972  0.5201
  110SAPE   C3511432   4.308   5.964   3.761 -0.7564 -0.3276 -0.7254
  110SAPE   H5X11433   4.201   5.942   3.783 -0.1807 -2.9448 -0.2071
  110SAPE   H5Y11434   4.319   6.073   3.748  0.6028 -0.1904  1.2052
  110SAPE   C3611435   4.380   5.916   3.887 -0.8915  0.6025 -0.4458
  110SAPE   H6X11436   4.486   5.947   3.874 -0.7287  1.3599  2.1323
  110SAPE   H6Y11437   4.377   5.806   3.895  0.1777  0.6003  0.0992
  110SAPE   C3711438   4.309   5.962   4.021  0.4572  0.0585  0.0253
  110SAPE   H7X11439   4.205   5.925   4.030  1.3445 -2.4118  1.1471
  110SAPE   H7Y11440   4.301   6.073   4.025 -0.9053 -0.0139 -0.3377
  110SAPE   C3811441   4.381   5.903   4.140 -0.6253  0.0267  0.8591
  110SAPE   H8X11442   4.490   5.913   4.122 -0.1887 -0.4713  2.9808
  110SAPE   H8Y11443   4.379   5.793   4.155  3.4920 -0.0344  2.0097
  110SAPE   C3911444   4.353   5.979   4.268 -0.4443  0.7018 -0.1308
  110SAPE   H9X11445   4.249   5.968   4.305  0.0724 -0.6960  1.0154
  110SAPE   H9Y11446   4.372   6.086   4.247 -0.9628  0.4109 -2.3553
  110SAPE  C31011447   4.455   5.932   4.374 -0.4883 -0.7025 -0.5032
  110SAPE  H10X11448   4.552   5.980   4.352 -0.7930  1.1646  1.7701
  110SAPE  H10Y11449   4.472   5.823   4.380 -0.9360 -0.6931  2.6807
  110SAPE  C31111450   4.419   5.985   4.520 -0.1917 -0.0394 -0.1792
  110SAPE  H11X11451   4.314   5.961   4.543 -0.6681 -0.3067 -2.3722
  110SAPE  H11Y11452   4.434   6.095   4.528 -0.9493 -0.0406  1.4588
  110SAPE  C31211453   4.511   5.931   4.630 -0.2923  0.2237 -0.0451
  110SAPE  H12X11454   4.613   5.961   4.600  0.8239 -0.8957  2.3844
  110SAPE  H12Y11455   4.509   5.820   4.628 -2.2648  0.2199 -0.9844
  110SAPE  C31311456   4.468   5.973   4.766  0.3211  0.1769  0.2772
  110SAPE  H13X11457   4.359   5.951   4.764  0.7636 -2.4078 -2.1554
  110SAPE  H13Y11458   4.486   6.079   4.792 -4.1475  1.8683 -2.4402
  110SAPE  C31411459   4.526   5.892   4.877  0.7778  0.0010  0.7834
  110SAPE  H14X11460   4.637   5.895   4.878  0.8676  1.3954 -2.1010
  110SAPE  H14Y11461   4.484   5.791   4.862 -0.7637  0.3996  2.1615
  110SAPE  C31511462   4.457   5.939   5.010 -0.2733  0.1474 -0.2740
  110SAPE  H15X11463   4.465   5.855   5.082 -1.5746  0.7964  0.6664
  110SAPE  H15Y11464   4.348   5.956   4.993 -0.4912 -0.5401  0.3625
  110SAPE  C31611465   4.529   6.060   5.079 -0.0861 -0.6584 -0.7113
  110SAPE  H16X11466   4.536   6.150   5.015  3.1815  0.5035  1.0359
  110SAPE  H16Y11467   4.627   6.021   5.113  0.3893  2.0727  1.4041
  110SAPE  C31711468   4.454   6.106   5.214 -0.4043  0.4961  0.4126
  110SAPE  H17X11469   4.427   6.008   5.259  0.5812 -0.0755 -0.1881
  110SAPE  H17Y11470   4.362   6.157   5.180 -1.7489 -2.0239  0.0224
  110SAPE  C31811471   4.534   6.202   5.307 -0.0163 -0.5543  0.2793
  110SAPE  H18X11472   4.625   6.150   5.344  1.0196 -0.9654 -2.6193
  110SAPE  H18Y11473   4.462   6.238   5.383 -0.0925  2.8690 -1.2478
  110SAPE  H18Z11474   4.575   6.294   5.260 -2.4346  0.0306 -0.8507
  111SAPE     N11475   3.097   1.507   2.787  0.3107  0.3193 -0.2752
  111SAPE   HN111476   3.085   1.433   2.714  0.6046  0.8773 -0.9033
  111SAPE   HN211477   3.039   1.490   2.871  1.9049 -0.6965  0.6648
  111SAPE   HN311478   3.067   1.592   2.734  2.1023  0.0887 -1.7810
  111SAPE   C1211479   3.245   1.513   2.828  0.3895 -0.3518  0.4336
  111SAPE  H12A11480   3.305   1.511   2.735 -0.2964  0.9725 -0.0535
  111SAPE  H12B11481   3.262   1.422   2.890  1.5991 -0.5258 -0.1380
  111SAPE   C1111482   3.272   1.640   2.914 -0.1848  0.1434  0.5463
  111SAPE  H11A11483   3.382   1.644   2.930  0.0084 -2.1494  0.2128
  111SAPE  H11B11484   3.224   1.637   3.014 -1.2496 -1.0730  0.0309
  111SAPE     P11485   3.103   1.851   2.873 -0.1187  0.4143  0.3739
  111SAPE   O1311486   3.120   1.980   2.802 -0.2261 -0.1902  0.1851
  111SAPE   O1411487   2.978   1.777   2.852  0.5394  0.6040  0.6462
  111SAPE   O1211488   3.221   1.751   2.835 -0.5322  0.0777 -0.0817
  111SAPE   O1111489   3.134   1.864   3.030 -0.1698 -0.4467  0.1555
  111SAPE    C111490   3.254   1.940   3.048 -0.1670  0.2933 -0.6137
  111SAPE    HA11491   3.348   1.884   3.029  0.1086 -0.2763  2.0405
  111SAPE    HB11492   3.255   2.036   2.991  4.1692  0.3084 -0.7884
  111SAPE    C211493   3.271   1.997   3.190 -0.8067 -0.0245 -0.1419
  111SAPE    HS11494   3.358   2.066   3.189 -0.6311 -0.2299  0.3078
  111SAPE   O2111495   3.280   1.885   3.280  0.0018 -0.0710  0.3893
  111SAPE   C2111496   3.402   1.840   3.298  0.1077  0.3511 -0.0264
  111SAPE   O2211497   3.496   1.880   3.233  0.2392  0.1340 -0.2990
  111SAPE   C2211498   3.410   1.728   3.402  0.3481 -0.3702  0.0139
  111SAPE   H2R11499   3.383   1.629   3.358 -0.3371 -0.3335  0.3313
  111SAPE   H2S11500   3.519   1.722   3.424  0.4366 -1.6532 -0.6629
  111SAPE    C311501   3.152   2.088   3.240 -0.2796 -0.0616  0.0415
  111SAPE    HX11502   3.065   2.020   3.225 -0.4854  0.6223 -2.2247
  111SAPE    HY11503   3.125   2.169   3.169 -4.2979  0.1743  1.5551
  111SAPE   O3111504   3.167   2.132   3.377 -0.5316  0.3794 -0.3140
  111SAPE   C3111505   3.047   2.168   3.436 -0.1590  0.5172 -0.0588
  111SAPE   O3211506   2.940   2.168   3.381  0.1043  0.4136  0.0593
  111SAPE   C3211507   3.077   2.184   3.589  0.4971 -0.2593 -0.0554
  111SAPE   H2X11508   3.136   2.277   3.596 -1.0644  0.8909 -1.2674
  111SAPE   H2Y11509   3.147   2.102   3.615  2.4723  0.6400 -2.2238
  111SAPE   C2311510   3.328   1.744   3.533  0.1012  0.4600 -0.1864
  111SAPE   H3R11511   3.222   1.733   3.501 -0.3421  1.5202  0.8901
  111SAPE   H3S11512   3.339   1.843   3.580  3.8246 -0.4073  1.1233
  111SAPE   C2411513   3.370   1.646   3.643 -0.2433 -0.4920 -0.0152
  111SAPE   H4R11514   3.459   1.691   3.692  1.4311 -0.5488 -2.7539
  111SAPE   H4S11515   3.401   1.546   3.605 -0.1815 -0.5921  0.3009
  111SAPE   C2511516   3.264   1.638   3.748  0.3170 -0.0376  0.1042
  111SAPE   H5R11517   3.165   1.609   3.711 -0.7266  1.2244  1.7551
  111SAPE   C2611518   3.277   1.655   3.881  0.6183  0.2576 -0.4565
  111SAPE   H6R11519   3.187   1.647   3.943  2.3992 -1.2203  2.1408
  111SAPE   C2711520   3.408   1.699   3.945  0.1824  0.6295 -0.5422
  111SAPE   H7R11521   3.491   1.697   3.872 -0.0494  0.0481 -0.8004
  111SAPE   H7S11522   3.418   1.619   4.022 -2.8833 -0.2748 -0.9213
  111SAPE   C2811523   3.396   1.834   4.013  0.4420  0.1434  0.5572
  111SAPE   H8R11524   3.364   1.909   3.938  3.8009 -0.1882 -1.4376
  111SAPE   C2911525   3.422   1.859   4.142  0.3358 -0.5312  0.3504
  111SAPE   H9R11526   3.395   1.958   4.181  0.6701 -0.2828 -0.0437
  111SAPE  C21011527   3.476   1.766   4.251 -0.1333 -0.5958  0.5948
  111SAPE  H10R11528   3.559   1.818   4.302 -1.0542  0.9024  0.6300
  111SAPE  H10S11529   3.527   1.676   4.210  0.0855 -0.2227  0.0517
  111SAPE  C21111530   3.370   1.722   4.352  0.1849  0.2489 -0.4464
  111SAPE  H11R11531   3.268   1.716   4.312  0.8410 -0.4169 -2.0818
  111SAPE  C21211532   3.391   1.705   4.490  0.3679  0.2191  0.4044
  111SAPE  H12R11533   3.308   1.652   4.539  1.0157 -4.1745 -2.6174
  111SAPE  C21311534   3.519   1.720   4.578 -0.0214  0.2736 -0.5423
  111SAPE  H13R11535   3.604   1.736   4.508 -0.6557  3.2933 -0.7877
  111SAPE  H13S11536   3.542   1.624   4.628  1.8639  1.1422  0.3536
  111SAPE  C21411537   3.514   1.838   4.675  0.0870  0.7244 -0.4191
  111SAPE  H14R11538   3.575   1.923   4.641 -0.6012  2.2337  1.8753
  111SAPE  C21511539   3.471   1.828   4.802 -0.3574 -0.8362 -0.3386
  111SAPE  H15R11540   3.483   1.925   4.852  0.8340 -0.4360 -1.3412
  111SAPE  C21611541   3.402   1.707   4.867 -0.1029  0.0117  0.0180
  111SAPE  H16R11542   3.476   1.638   4.913  0.0152 -0.9871 -1.5736
  111SAPE  H16S11543   3.361   1.645   4.785 -1.5969  0.8409  0.1131
  111SAPE  C21711544   3.286   1.720   4.962  0.0243 -0.1938 -0.0195
  111SAPE  H17R11545   3.309   1.745   5.068 -2.5959 -1.0423  0.8291
  111SAPE  H17S11546   3.235   1.621   4.964  0.1518 -0.2818 -0.8764
  111SAPE  C21811547   3.188   1.818   4.900 -0.8429  0.2753 -0.3300
  111SAPE  H18R11548   3.206   1.849   4.795 -0.7413  1.2667 -0.0261
  111SAPE  H18S11549   3.207   1.916   4.949  0.7622 -0.6676  1.0366
  111SAPE  C21911550   3.033   1.796   4.921  0.4568 -0.3098  0.3047
  111SAPE  H19R11551   2.986   1.896   4.914 -0.7313 -0.9607 -1.8212
  111SAPE  H19S11552   3.010   1.756   5.022  3.0000  1.6025  1.7739
  111SAPE  C22011553   2.969   1.710   4.810  0.7638  0.9515 -0.0975
  111SAPE  H20R11554   3.009   1.607   4.827 -0.9506  0.2998  0.2202
  111SAPE  H20S11555   3.002   1.734   4.707 -1.1337  0.1961 -0.9203
  111SAPE  H20T11556   2.858   1.707   4.814  0.7800 -2.4207  1.6704
  111SAPE   C3311557   2.956   2.193   3.685 -0.0083 -0.2068 -0.3805
  111SAPE   H3X11558   2.879   2.120   3.654 -0.3131 -1.2190  2.5380
  111SAPE   H3Y11559   2.902   2.290   3.683 -0.1072 -0.2258  0.6579
  111SAPE   C3411560   3.005   2.167   3.832  1.0888  0.0839 -0.2586
  111SAPE   H4X11561   3.064   2.260   3.850  1.4736  0.0980 -1.4893
  111SAPE   H4Y11562   3.073   2.079   3.839 -1.2067 -1.6747  1.9409
  111SAPE   C3511563   2.883   2.155   3.926 -0.5440 -0.0597  0.0005
  111SAPE   H5X11564   2.814   2.070   3.906 -0.1586 -1.1921  2.9977
  111SAPE   H5Y11565   2.816   2.243   3.925  2.8492  2.8447  2.1634
  111SAPE   C3611566   2.930   2.129   4.071  0.4276  0.2060  0.3530
  111SAPE   H6X11567   2.841   2.135   4.137 -1.6486 -3.1699 -1.8525
  111SAPE   H6Y11568   3.022   2.184   4.101  1.8640 -2.0508  0.3770
  111SAPE   C3711569   2.984   1.983   4.080 -0.5283 -0.8082 -0.6181
  111SAPE   H7X11570   3.056   1.958   4.000 -2.4748 -2.4548 -1.9560
  111SAPE   H7Y11571   2.896   1.916   4.071  0.2118 -1.7113 -1.2439
  111SAPE   C3811572   3.046   1.970   4.220 -0.1556 -0.3517 -0.2372
  111SAPE   H8X11573   3.117   2.050   4.248 -0.5681  0.4223 -1.3305
  111SAPE   H8Y11574   3.100   1.874   4.216  1.3875  0.4348  0.7500
  111SAPE   C3911575   2.941   1.937   4.338 -0.1547  0.4941  0.3216
  111SAPE   H9X11576   2.875   1.855   4.303  1.2001 -0.8065  0.6851
  111SAPE   H9Y11577   2.890   2.033   4.357  1.1414  1.3972 -0.6461
  111SAPE  C31011578   2.999   1.878   4.464 -0.2658  0.0033  0.1994
  111SAPE  H10X11579   3.045   1.778   4.451  0.7179  0.3033  1.2109
  111SAPE  H10Y11580   2.919   1.860   4.539 -0.7489 -1.8581 -0.7205
  111SAPE  C31111581   3.115   1.965   4.516  0.9522 -0.5373  0.1190
  111SAPE  H11X11582   3.196   1.967   4.440 -0.5427 -2.2464 -1.6412
  111SAPE  H11Y11583   3.157   1.917   4.607 -1.7050 -0.2719  1.6154
  111SAPE  C31211584   3.060   2.101   4.557  0.3194  0.2011 -0.7446
  111SAPE  H12X11585   2.961   2.077   4.601  0.6117 -0.6346 -0.5330
  111SAPE  H12Y11586   3.050   2.164   4.466  0.3862 -1.3972 -1.9008
  111SAPE  C31311587   3.147   2.166   4.669 -0.5365 -0.8025  0.8503
  111SAPE  H13X11588   3.250   2.164   4.628 -0.5600  1.5234  0.5461
  111SAPE  H13Y11589   3.148   2.099   4.758 -0.2485 -0.5063  1.0720
  111SAPE  C31411590   3.108   2.305   4.705 -0.3285 -0.3846 -0.6181
  111SAPE  H14X11591   3.001   2.305   4.733 -1.0973 -1.7196 -3.2537
  111SAPE  H14Y11592   3.111   2.370   4.615 -1.5609 -1.6513 -1.6114
  111SAPE  C31511593   3.211   2.367   4.811  0.4762 -0.1421  0.0020
  111SAPE  H15X11594   3.313   2.337   4.778 -0.2997 -0.4904 -2.2361
  111SAPE  H15Y11595   3.198   2.312   4.907 -0.9100  0.0676 -0.0448
  111SAPE  C31611596   3.193   2.525   4.826 -0.3101  1.0377  0.4294
  111SAPE  H16X11597   3.086   2.548   4.847 -1.2401 -1.6204 -0.9222
  111SAPE  H16Y11598   3.223   2.567   4.728  2.6639  0.1891  0.8869
  111SAPE  C31711599   3.278   2.580   4.936  0.0890  0.3480 -0.6359
  111SAPE  H17X11600   3.387   2.569   4.914  0.6534  0.6861  1.6594
  111SAPE  H17Y11601   3.249   2.532   5.032  2.2615  1.6003  0.7313
  111SAPE  C31811602   3.247   2.734   4.945 -0.0630 -0.0525 -0.0782
  111SAPE  H18X11603   3.140   2.764   4.952 -0.2416 -0.4818 -0.7854
  111SAPE  H18Y11604   3.292   2.786   4.858  0.3685 -2.4559 -1.3813
  111SAPE  H18Z11605   3.301   2.777   5.031  2.0668 -1.8756 -0.4080
  112SAPE     N11606   0.241   0.906   3.171 -0.6574 -0.9933  0.1375
  112SAPE   HN111607   0.159   0.850   3.140 -2.2572  0.3335  1.7278
  112SAPE   HN211608   0.256   0.986   3.106  1.2175 -1.3003  0.1206
  112SAPE   HN311609   0.326   0.846   3.163 -1.7966 -3.0844  2.3795
  112SAPE   C1211610   0.238   0.945   3.319  0.1582 -0.3261  0.0665
  112SAPE  H12A11611   0.190   0.854   3.358 -0.6771 -0.2425 -0.7374
  112SAPE  H12B11612   0.181   1.039   3.335  0.0999  0.0561 -2.0247
  112SAPE   C1111613   0.378   0.934   3.381  0.3271  0.1554  0.1173
  112SAPE  H11A11614   0.362   0.938   3.491 -0.9055  1.6565 -0.0858
  112SAPE  H11B11615   0.438   1.021   3.348  3.7408 -1.8252  0.5389
  112SAPE     P11616   0.585   0.771   3.386 -0.4846 -0.1302 -0.0553
  112SAPE   O1311617   0.641   0.653   3.311  0.0917 -0.6871 -0.3689
  112SAPE   O1411618   0.668   0.890   3.371 -0.1309  0.2242 -0.8301
  112SAPE   O1211619   0.435   0.806   3.340  0.2334  0.8758  0.5167
  112SAPE   O1111620   0.558   0.744   3.541  0.4553  0.3099 -0.5850
  112SAPE    C111621   0.476   0.632   3.569  0.1151 -0.1012  0.0433
  112SAPE    HA11622   0.385   0.621   3.506  0.3778  0.4582 -0.4521
  112SAPE    HB11623   0.535   0.538   3.565 -1.3063 -1.0186 -0.0687
  112SAPE    C211624   0.436   0.633   3.714  0.0485  0.1901 -0.3569
  112SAPE    HS11625   0.368   0.547   3.730 -0.3822  0.3209 -1.4297
  112SAPE   O2111626   0.363   0.751   3.752 -0.7550 -0.0936  0.4488
  112SAPE   C2111627   0.252   0.762   3.692 -0.3772  0.0117 -0.7089
  112SAPE   O2211628   0.191   0.682   3.620 -0.3516  0.2526  0.2739
  112SAPE   C2211629   0.181   0.892   3.738  0.3507  0.3166  0.7123
  112SAPE   H2R11630   0.259   0.955   3.785  2.8572 -1.2616 -1.1005
  112SAPE   H2S11631   0.142   0.940   3.645 -0.3704 -0.2950  0.6873
  112SAPE    C311632   0.559   0.607   3.808  0.9859 -0.8205  0.1570
  112SAPE    HX11633   0.627   0.695   3.802 -0.3975  0.4552  1.9071
  112SAPE    HY11634   0.620   0.520   3.777 -0.3799 -1.2978 -1.2881
  112SAPE   O3111635   0.518   0.599   3.951  0.0381  0.3818  0.1594
  112SAPE   C3111636   0.620   0.587   4.029  1.1790  0.0073  0.3725
  112SAPE   O3211637   0.738   0.580   3.994 -0.3372  0.2696 -0.7096
  112SAPE   C3211638   0.570   0.583   4.173 -0.1261  0.9263  0.5439
  112SAPE   H2X11639   0.525   0.484   4.197  0.3135  0.4079 -0.7084
  112SAPE   H2Y11640   0.493   0.662   4.188  0.0316  0.6906  2.9811
  112SAPE   C2311641   0.059   0.875   3.829  0.4649 -0.5716  0.0026
  112SAPE   H3R11642  -0.027   0.831   3.775  0.8460 -1.2516 -0.0610
  112SAPE   H3S11643   0.027   0.977   3.860 -0.0288 -0.4809 -0.7805
  112SAPE   C2411644   0.088   0.798   3.962  0.1261 -0.7022  0.3030
  112SAPE   H4R11645   0.195   0.825   3.972 -0.3162  1.9168 -1.0033
  112SAPE   H4S11646   0.072   0.690   3.942  0.4765 -1.0769  1.8570
  112SAPE   C2511647   0.003   0.836   4.087  0.6702 -0.0581  0.3721
  112SAPE   H5R11648  -0.105   0.849   4.073 -0.1859 -2.3227  3.6117
  112SAPE   C2611649   0.060   0.844   4.211  0.2184 -0.4529  0.4574
  112SAPE   H6R11650  -0.001   0.896   4.287  2.5312  0.0871  2.0644
  112SAPE   C2711651   0.205   0.828   4.256 -0.2302  0.5837  0.2349
  112SAPE   H7R11652   0.233   0.917   4.317 -1.9064  0.1901  1.6675
  112SAPE   H7S11653   0.275   0.826   4.171 -0.8747  0.6582 -0.3072
  112SAPE   C2811654   0.226   0.711   4.338  0.4822 -0.2035  0.6709
  112SAPE   H8R11655   0.235   0.620   4.276  0.4803 -0.8308  1.5752
  112SAPE   C2911656   0.254   0.703   4.469  0.6116 -0.4265  0.3779
  112SAPE   H9R11657   0.269   0.603   4.514 -1.8903 -1.6856 -1.3945
  112SAPE  C21011658   0.271   0.822   4.566  0.2991  0.8674 -0.0074
  112SAPE  H10R11659   0.256   0.923   4.521  3.8639  2.0101  1.0427
  112SAPE  H10S11660   0.376   0.827   4.600  0.0311  0.4222  0.9194
  112SAPE  C21111661   0.176   0.807   4.678  0.1938  0.2327  0.0908
  112SAPE  H11R11662   0.070   0.807   4.649  0.7242  3.7667 -2.4092
  112SAPE  C21211663   0.206   0.808   4.808 -0.0532 -0.8523  0.0793
  112SAPE  H12R11664   0.128   0.782   4.881 -1.2037 -1.0738 -1.1743
  112SAPE  C21311665   0.345   0.804   4.869  0.3615 -0.4765 -0.2663
  112SAPE  H13R11666   0.368   0.900   4.919  0.6012 -0.5836 -0.1709
  112SAPE  H13S11667   0.423   0.786   4.792  0.1874 -4.3353  0.2477
  112SAPE  C21411668   0.361   0.685   4.953  0.5571  0.2973  0.3997
  112SAPE  H14R11669   0.394   0.600   4.891  2.4626 -0.1636  1.9500
  112SAPE  C21511670   0.373   0.671   5.083  0.5541 -0.5720 -0.3902
  112SAPE  H15R11671   0.403   0.572   5.120  1.7407 -0.6941 -1.6148
  112SAPE  C21611672   0.366   0.783   5.188 -0.3806  0.0526  0.3572
  112SAPE  H16R11673   0.421   0.872   5.149  0.0595 -0.7453 -0.9185
  112SAPE  H16S11674   0.416   0.759   5.284 -0.3898  3.5248  1.3584
  112SAPE  C21711675   0.224   0.841   5.217  0.0215  0.5407 -0.4628
  112SAPE  H17R11676   0.167   0.867   5.126 -0.4998  1.6458  0.1508
  112SAPE  H17S11677   0.240   0.941   5.263  0.3539 -0.0330  0.7150
  112SAPE  C21811678   0.126   0.760   5.298  0.0081  0.6311  0.2580
  112SAPE  H18R11679   0.158   0.770   5.404  0.3563  1.9674  0.0472
  112SAPE  H18S11680   0.139   0.655   5.264  1.7307  0.9284 -0.0980
  112SAPE  C21911681  -0.019   0.807   5.261 -0.6224  0.3637 -0.2596
  112SAPE  H19R11682  -0.043   0.774   5.158 -1.3447  0.7966 -0.2372
  112SAPE  H19S11683  -0.012   0.917   5.245 -0.3979  0.6625  1.6682
  112SAPE  C22011684  -0.133   0.780   5.360  0.2197  0.0744 -0.1792
  112SAPE  H20R11685  -0.115   0.816   5.464  1.4917  0.9120 -0.6695
  112SAPE  H20S11686  -0.144   0.670   5.367 -0.1316  0.1219  0.0366
  112SAPE  H20T11687  -0.228   0.828   5.329  0.2310  0.4095  0.2909
  112SAPE   C3311688   0.679   0.614   4.278 -0.0712  0.2194 -0.5374
  112SAPE   H3X11689   0.722   0.712   4.247 -2.1860  0.9460 -1.3789
  112SAPE   H3Y11690   0.755   0.533   4.281 -3.5070 -3.4195  4.2978
  112SAPE   C3411691   0.629   0.630   4.422  0.2029  0.2327  0.2181
  112SAPE   H4X11692   0.601   0.533   4.468  1.4320  0.1758  0.8916
  112SAPE   H4Y11693   0.542   0.699   4.419  0.3414  0.5416  2.0332
  112SAPE   C3511694   0.733   0.683   4.522 -0.2957  0.5703 -0.4333
  112SAPE   H5X11695   0.742   0.792   4.503 -0.3523  1.0279  1.8673
  112SAPE   H5Y11696   0.828   0.626   4.522 -0.8759 -0.4464 -1.6680
  112SAPE   C3611697   0.682   0.667   4.668 -0.2671 -0.2551  0.3915
  112SAPE   H6X11698   0.670   0.561   4.700 -1.3277  0.8288  3.9693
  112SAPE   H6Y11699   0.584   0.718   4.675 -0.5607 -0.7043 -0.2916
  112SAPE   C3711700   0.783   0.737   4.760  0.3713 -0.8727  0.3593
  112SAPE   H7X11701   0.766   0.845   4.743  0.0011 -0.4484  2.9997
  112SAPE   H7Y11702   0.890   0.722   4.737  0.8052  3.1415 -0.9782
  112SAPE   C3811703   0.770   0.714   4.911 -0.0824  0.2095  0.2847
  112SAPE   H8X11704   0.668   0.742   4.945 -1.4012 -0.1679 -3.0397
  112SAPE   H8Y11705   0.846   0.775   4.965  0.8871 -1.5980  1.0719
  112SAPE   C3911706   0.814   0.575   4.964 -0.6692  0.9438  0.1183
  112SAPE   H9X11707   0.736   0.508   4.921 -1.6504  1.6585  0.7277
  112SAPE   H9Y11708   0.808   0.572   5.075 -0.7746 -1.6879  0.1072
  112SAPE  C31011709   0.959   0.533   4.920  0.2970  0.0646  0.1460
  112SAPE  H10X11710   0.986   0.578   4.822 -0.6538  0.5583  0.1064
  112SAPE  H10Y11711   0.955   0.424   4.900 -0.2200  0.0054  0.5594
  112SAPE  C31111712   1.055   0.583   5.024  0.1957 -0.2827 -0.1558
  112SAPE  H11X11713   1.016   0.544   5.121 -1.1432 -1.6146 -1.1783
  112SAPE  H11Y11714   1.042   0.693   5.028 -0.4830 -0.2619 -2.1149
  112SAPE  C31211715   1.198   0.556   5.009 -0.4998 -0.0644  0.0652
  112SAPE  H12X11716   1.222   0.585   4.904  1.6889 -1.2019  0.1860
  112SAPE  H12Y11717   1.225   0.449   5.005 -0.4689 -0.1595  2.1208
  112SAPE  C31311718   1.289   0.614   5.123 -0.3056  1.0320 -0.2152
  112SAPE  H13X11719   1.260   0.587   5.227 -1.3252  1.0519 -0.4857
  112SAPE  H13Y11720   1.276   0.724   5.128 -0.5523  0.9581  1.3955
  112SAPE  C31411721   1.433   0.559   5.136  0.2910  0.4588  0.8382
  112SAPE  H14X11722   1.431   0.452   5.163 -0.5420  0.4750  0.8618
  112SAPE  H14Y11723   1.485   0.620   5.213  2.6235  0.1264 -0.3765
  112SAPE  C31511724   1.517   0.584   5.006  0.3579  0.1422  0.7319
  112SAPE  H15X11725   1.527   0.693   4.987  1.9113 -0.0052  0.6219
  112SAPE  H15Y11726   1.458   0.546   4.920  0.3810  0.4350  0.5825
  112SAPE  C31611727   1.654   0.520   5.010 -0.7009  0.5945  0.4727
  112SAPE  H16X11728   1.711   0.504   4.916 -1.1570  1.5086  0.0325
  112SAPE  H16Y11729   1.636   0.417   5.048 -0.8533  1.1293  1.9254
  112SAPE  C31711730   1.751   0.587   5.119  0.8221 -0.8403  0.2790
  112SAPE  H17X11731   1.850   0.539   5.132  1.5925  0.7742  0.6188
  112SAPE  H17Y11732   1.707   0.558   5.217  2.3245  0.6843  1.4657
  112SAPE  C31811733   1.769   0.731   5.122  0.2946  0.3734  0.5258
  112SAPE  H18X11734   1.671   0.769   5.158 -0.5657 -0.5905 -0.6927
  112SAPE  H18Y11735   1.807   0.777   5.028  1.3852 -2.8770 -0.7936
  112SAPE  H18Z11736   1.850   0.749   5.196  2.2980 -1.9596 -0.9064
  113SAPE     N11737   0.204   5.689   2.369 -0.5089  0.4903  0.0144
  113SAPE   HN111738   0.289   5.729   2.325 -0.1100 -1.3944 -1.0386
  113SAPE   HN211739   0.210   5.585   2.373 -0.8178  0.4750  0.1364
  113SAPE   HN311740   0.130   5.726   2.306  1.8204  4.3177 -0.7896
  113SAPE   C1211741   0.188   5.740   2.506 -0.2437 -0.0532 -0.1341
  113SAPE  H12A11742   0.099   5.691   2.551  0.1055  0.4828  1.1701
  113SAPE  H12B11743   0.157   5.846   2.506  0.0571  0.0351  0.0176
  113SAPE   C1111744   0.316   5.718   2.597 -0.4682 -0.0395  0.7312
  113SAPE  H11A11745   0.325   5.607   2.606  2.9108 -0.0512 -1.1480
  113SAPE  H11B11746   0.299   5.763   2.697  1.0393  2.9104 -0.2245
  113SAPE     P11747   0.554   5.677   2.494  0.0590 -0.3102 -0.2084
  113SAPE   O1311748   0.517   5.606   2.367 -0.0881 -0.2210  0.1794
  113SAPE   O1411749   0.681   5.754   2.494 -0.2264  0.0049 -0.2025
  113SAPE   O1211750   0.437   5.772   2.539  0.3600 -0.3394  0.0052
  113SAPE   O1111751   0.567   5.572   2.611  0.3596  1.1381  0.4557
  113SAPE    C111752   0.566   5.616   2.753  0.0234 -0.0136 -0.9482
  113SAPE    HA11753   0.623   5.711   2.762  0.4983 -0.4480  1.3542
  113SAPE    HB11754   0.467   5.631   2.801 -0.1847 -1.5677 -0.8381
  113SAPE    C211755   0.644   5.513   2.837  0.2668  0.0924 -0.3986
  113SAPE    HS11756   0.716   5.458   2.771  0.6496  0.0938  0.0178
  113SAPE   O2111757   0.547   5.418   2.897  0.2222  0.0247 -0.1395
  113SAPE   C2111758   0.607   5.319   2.955  0.2775  0.7163  0.2434
  113SAPE   O2211759   0.721   5.277   2.926 -0.2171 -0.0288 -0.0535
  113SAPE   C2211760   0.502   5.230   3.027 -0.2032  0.8379 -0.0183
  113SAPE   H2R11761   0.457   5.292   3.107 -0.1443  0.0353  0.6500
  113SAPE   H2S11762   0.430   5.206   2.946  3.1873 -0.0330 -3.0435
  113SAPE    C311763   0.735   5.585   2.943 -0.2388 -0.6340 -0.5459
  113SAPE    HX11764   0.796   5.656   2.883  0.4841  1.5430  2.5394
  113SAPE    HY11765   0.802   5.523   3.005 -0.0766 -0.0108 -0.0874
  113SAPE   O3111766   0.657   5.666   3.032 -0.0335 -0.4827 -0.3165
  113SAPE   C3111767   0.612   5.614   3.142 -0.5772 -0.3464 -0.1146
  113SAPE   O3211768   0.628   5.498   3.174  0.1528  0.1071  0.3399
  113SAPE   C3211769   0.541   5.724   3.224  0.6212  0.7358  0.3447
  113SAPE   H2X11770   0.450   5.753   3.168  1.7918  3.0852 -0.4483
  113SAPE   H2Y11771   0.612   5.809   3.219  2.1224 -0.5070 -0.6220
  113SAPE   C2311772   0.554   5.098   3.081 -0.2683 -0.3587  0.1935
  113SAPE   H3R11773   0.629   5.107   3.163 -1.2533  0.2185  1.0521
  113SAPE   H3S11774   0.619   5.051   3.004  1.3245  0.7110  0.8265
  113SAPE   C2411775   0.444   5.014   3.136  0.3610  0.3455 -0.2967
  113SAPE   H4R11776   0.378   5.002   3.048  2.1122 -0.9165 -1.5072
  113SAPE   H4S11777   0.389   5.069   3.216  0.0476 -2.1798  1.3502
  113SAPE   C2511778   0.476   4.878   3.192 -0.1372 -0.5401  0.3145
  113SAPE   H5R11779   0.574   4.837   3.164 -1.2331 -1.3339 -2.7393
  113SAPE   C2611780   0.404   4.807   3.286  0.0205  0.0284 -0.0435
  113SAPE   H6R11781   0.438   4.705   3.307  1.1439  0.1518 -1.1196
  113SAPE   C2711782   0.261   4.841   3.319 -0.6083  0.0679  0.2913
  113SAPE   H7R11783   0.239   4.949   3.302 -0.3073 -0.1849 -2.0022
  113SAPE   H7S11784   0.250   4.829   3.429  0.2788  0.8659  0.4812
  113SAPE   C2811785   0.148   4.760   3.248 -0.4149 -0.3639  0.2184
  113SAPE   H8R11786   0.177   4.726   3.148  0.1050 -0.3367  0.3564
  113SAPE   C2911787   0.044   4.712   3.313  0.1011 -0.3076  0.9285
  113SAPE   H9R11788  -0.037   4.661   3.258  1.2823  0.7336 -2.0217
  113SAPE  C21011789   0.009   4.743   3.453  0.4156  0.7501  0.2597
  113SAPE  H10R11790   0.042   4.843   3.487  3.4131 -0.2905  0.6539
  113SAPE  H10S11791   0.054   4.672   3.525 -0.4061  1.1573  1.1936
  113SAPE  C21111792  -0.145   4.732   3.474 -0.0757 -0.5420  0.2735
  113SAPE  H11R11793  -0.208   4.731   3.384 -0.8113  1.5758  0.7121
  113SAPE  C21211794  -0.206   4.746   3.591 -0.3532 -0.1620 -0.3494
  113SAPE  H12R11795  -0.314   4.728   3.592 -0.5818  1.1058 -0.2558
  113SAPE  C21311796  -0.139   4.761   3.727  0.3034  0.3994 -0.6339
  113SAPE  H13R11797  -0.167   4.858   3.775  0.9607 -0.6824  2.1552
  113SAPE  H13S11798  -0.028   4.752   3.724  0.5420  1.8392  1.4190
  113SAPE  C21411799  -0.191   4.657   3.824 -0.1805  0.8924  0.4322
  113SAPE  H14R11800  -0.224   4.568   3.769  0.8125  1.2617 -0.8334
  113SAPE  C21511801  -0.177   4.653   3.956  0.4963  0.5546 -0.8648
  113SAPE  H15R11802  -0.221   4.567   4.010  0.6794  1.1217  0.2062
  113SAPE  C21611803  -0.108   4.761   4.038  0.1018  0.4505  0.4061
  113SAPE  H16R11804  -0.179   4.829   4.089 -1.7557 -1.9709  1.2926
  113SAPE  H16S11805  -0.051   4.826   3.968 -0.2631  1.2584  0.8556
  113SAPE  C21711806  -0.003   4.714   4.140  1.0443  1.1616 -0.0795
  113SAPE  H17R11807   0.059   4.797   4.180  1.0620  1.0365  0.1521
  113SAPE  H17S11808   0.074   4.642   4.104  0.1885 -0.6188  1.5212
  113SAPE  C21811809  -0.075   4.649   4.265  0.0826 -0.4199 -0.9246
  113SAPE  H18R11810  -0.143   4.567   4.233 -0.2816 -0.6073  0.2413
  113SAPE  H18S11811  -0.131   4.739   4.298  1.0171  0.3175 -1.3210
  113SAPE  C21911812   0.023   4.615   4.379 -0.0914 -0.2914 -0.1655
  113SAPE  H19R11813   0.103   4.545   4.347  0.5711  0.0067  0.8021
  113SAPE  H19S11814  -0.027   4.551   4.455 -0.2735 -1.3842 -1.1821
  113SAPE  C22011815   0.076   4.744   4.443 -0.3488  0.1470 -0.0073
  113SAPE  H20R11816  -0.001   4.824   4.447  0.5739  1.0165  1.8506
  113SAPE  H20S11817   0.160   4.781   4.380 -0.2011  0.9842  0.6677
  113SAPE  H20T11818   0.105   4.718   4.547  0.0732 -0.6304 -0.3068
  113SAPE   C3311819   0.502   5.675   3.365 -0.3481 -0.4306  0.3688
  113SAPE   H3X11820   0.582   5.621   3.421 -0.0506  0.7572  1.1322
  113SAPE   H3Y11821   0.409   5.617   3.354 -1.3128  1.2968 -1.1317
  113SAPE   C3411822   0.459   5.793   3.462 -0.6508 -0.2950  0.8807
  113SAPE   H4X11823   0.394   5.867   3.412 -1.4445 -0.5580  1.5105
  113SAPE   H4Y11824   0.560   5.830   3.490  0.7382 -0.6048 -3.0564
  113SAPE   C3511825   0.392   5.738   3.591  0.9560 -0.2187 -0.2485
  113SAPE   H5X11826   0.326   5.651   3.568  1.6981 -1.1962  1.1573
  113SAPE   H5Y11827   0.339   5.820   3.644  2.4989  0.7692 -0.2077
  113SAPE   C3611828   0.498   5.705   3.697  0.4989  0.0644 -0.2003
  113SAPE   H6X11829   0.566   5.793   3.699 -1.4753  1.6648  0.5821
  113SAPE   H6Y11830   0.559   5.612   3.698  0.8771  0.1892  3.3608
  113SAPE   C3711831   0.429   5.701   3.843 -0.1939 -0.1871 -0.2584
  113SAPE   H7X11832   0.351   5.621   3.844  0.1430 -0.5219 -0.2759
  113SAPE   H7Y11833   0.371   5.792   3.868 -0.8881 -0.9955  1.1844
  113SAPE   C3811834   0.544   5.682   3.945  0.2349 -0.0929  0.0859
  113SAPE   H8X11835   0.587   5.582   3.924 -1.6074 -0.8315 -0.3594
  113SAPE   H8Y11836   0.614   5.762   3.913  1.7473 -2.3474 -2.6241
  113SAPE   C3911837   0.498   5.684   4.087  0.4199 -0.2235 -0.4830
  113SAPE   H9X11838   0.436   5.600   4.124  1.7381  0.5955  4.3063
  113SAPE   H9Y11839   0.436   5.776   4.094  1.0429  0.3104 -1.6396
  113SAPE  C31011840   0.613   5.694   4.186  0.5449  0.5523  0.2101
  113SAPE  H10X11841   0.670   5.786   4.162 -1.0681  1.9527  1.4813
  113SAPE  H10Y11842   0.666   5.598   4.167 -1.1647 -0.7231  1.5964
  113SAPE  C31111843   0.587   5.696   4.336  0.3189 -0.0946 -0.3169
  113SAPE  H11X11844   0.525   5.782   4.372  2.8130  0.8041  2.1830
  113SAPE  H11Y11845   0.684   5.721   4.384 -1.4980  2.3112  2.4621
  113SAPE  C31211846   0.534   5.564   4.397 -0.4076 -0.4091  0.0777
  113SAPE  H12X11847   0.615   5.489   4.406  1.5950  1.8146  1.5533
  113SAPE  H12Y11848   0.458   5.534   4.322  0.1706  0.2792 -0.8014
  113SAPE  C31311849   0.475   5.567   4.539 -0.1670 -0.1412 -0.0894
  113SAPE  H13X11850   0.426   5.472   4.569  0.0696 -0.3494 -0.3603
  113SAPE  H13Y11851   0.401   5.649   4.534 -0.1814 -0.2049 -1.1291
  113SAPE  C31411852   0.579   5.593   4.648 -0.9332 -0.0310  0.6192
  113SAPE  H14X11853   0.636   5.686   4.626 -1.5621  0.2828  0.2989
  113SAPE  H14Y11854   0.658   5.514   4.643  0.5011  1.3369  0.9109
  113SAPE  C31511855   0.531   5.585   4.788  0.1323  0.4662  0.4889
  113SAPE  H15X11856   0.431   5.635   4.791 -0.6787 -1.0870  3.2021
  113SAPE  H15Y11857   0.604   5.636   4.855 -1.1095  0.6005  1.8044
  113SAPE  C31611858   0.506   5.438   4.850 -0.7241  0.1756 -0.6212
  113SAPE  H16X11859   0.582   5.363   4.819 -2.6801 -1.7471 -1.0254
  113SAPE  H16Y11860   0.415   5.401   4.797 -1.2280 -2.1845  1.6487
  113SAPE  C31711861   0.488   5.428   4.999  0.3398  0.0262 -0.1637
  113SAPE  H17X11862   0.390   5.473   5.026 -0.5549  0.0833 -3.1441
  113SAPE  H17Y11863   0.572   5.473   5.056 -0.0248 -1.2133  1.4377
  113SAPE  C31811864   0.469   5.276   5.027 -0.1427 -0.0891  0.0799
  113SAPE  H18X11865   0.388   5.239   4.961 -0.2260  1.1548 -0.5532
  113SAPE  H18Y11866   0.437   5.261   5.132  2.9739 -1.6153  0.9260
  113SAPE  H18Z11867   0.562   5.218   5.009 -0.2621  0.0086 -0.9153
  114SAPE     N11868   2.259   0.875   3.175  0.2890 -0.4305  0.2729
  114SAPE   HN111869   2.229   0.858   3.077 -0.9719 -0.8782  0.7234
  114SAPE   HN211870   2.357   0.844   3.191 -0.0813 -1.6572  0.2552
  114SAPE   HN311871   2.190   0.821   3.230 -0.5568  0.7359  0.3901
  114SAPE   C1211872   2.248   1.018   3.215  0.1138  0.1628  0.1923
  114SAPE  H12A11873   2.158   1.056   3.162  0.5703 -0.2244 -0.8980
  114SAPE  H12B11874   2.343   1.067   3.184  1.5587 -2.9303 -0.6596
  114SAPE   C1111875   2.241   1.026   3.371 -0.2474 -0.6219 -0.2067
  114SAPE  H11A11876   2.329   0.974   3.414 -0.8136 -1.4411 -0.0220
  114SAPE  H11B11877   2.147   0.978   3.407 -2.7598  4.1225  0.5117
  114SAPE     P11878   2.363   1.261   3.415  0.2994  0.1134  0.4219
  114SAPE   O1311879   2.473   1.194   3.480  0.0266 -0.0506 -0.2180
  114SAPE   O1411880   2.389   1.293   3.274 -0.2233 -0.0873  0.0319
  114SAPE   O1211881   2.236   1.164   3.416 -0.1220 -0.1302 -0.5801
  114SAPE   O1111882   2.330   1.376   3.501  0.2655 -0.0755  0.4666
  114SAPE    C111883   2.277   1.496   3.448  0.8554 -0.3863 -0.1505
  114SAPE    HA11884   2.290   1.502   3.338  1.2937  1.3844 -0.0412
  114SAPE    HB11885   2.171   1.500   3.482  1.0013  0.1869  0.2728
  114SAPE    C211886   2.341   1.623   3.505  0.1387  0.3662  0.1476
  114SAPE    HS11887   2.447   1.624   3.470 -0.7121 -4.4638 -3.5511
  114SAPE   O2111888   2.334   1.615   3.648  1.0529  0.2840 -0.1428
  114SAPE   C2111889   2.441   1.599   3.722  0.3531  1.0051  0.1724
  114SAPE   O2211890   2.554   1.590   3.676 -0.5383  0.1909  0.2143
  114SAPE   C2211891   2.404   1.596   3.875 -0.6713  0.1243 -0.2339
  114SAPE   H2R11892   2.417   1.696   3.923 -0.9711 -1.0737  2.5131
  114SAPE   H2S11893   2.297   1.568   3.888 -0.2501 -1.6191 -0.3672
  114SAPE    C311894   2.264   1.757   3.465  0.5881 -0.4506 -0.0891
  114SAPE    HX11895   2.154   1.742   3.467  0.2783  1.6693  0.8980
  114SAPE    HY11896   2.285   1.782   3.359 -0.8997  1.1527 -0.0427
  114SAPE   O3111897   2.293   1.872   3.551 -0.3897 -0.1189  0.0379
  114SAPE   C3111898   2.425   1.915   3.525 -0.7540  0.0371 -0.6546
  114SAPE   O3211899   2.504   1.856   3.458 -0.4519  0.3276 -0.8187
  114SAPE   C3211900   2.459   2.039   3.602  0.0755 -0.1959  0.6828
  114SAPE   H2X11901   2.369   2.083   3.650 -1.1997 -1.6460 -0.2891
  114SAPE   H2Y11902   2.482   2.100   3.513 -0.0938 -1.9328 -0.6051
  114SAPE   C2311903   2.479   1.483   3.953  0.5594 -0.0198 -0.2230
  114SAPE   H3R11904   2.589   1.496   3.942  0.5389  1.1046  0.6959
  114SAPE   H3S11905   2.443   1.389   3.905 -1.5649  1.0056 -0.7388
  114SAPE   C2411906   2.446   1.473   4.103 -0.3598 -0.0201  0.5002
  114SAPE   H4R11907   2.344   1.430   4.110 -0.9121  1.3622  1.4921
  114SAPE   H4S11908   2.456   1.565   4.165 -2.7480 -1.7561  3.7604
  114SAPE   C2511909   2.529   1.364   4.168 -0.6999  0.1314  0.6101
  114SAPE   H5R11910   2.526   1.266   4.117  0.2386  1.0747 -1.3841
  114SAPE   C2611911   2.610   1.393   4.263  0.4975  0.4775 -0.5201
  114SAPE   H6R11912   2.688   1.319   4.283 -0.5004 -0.1232  1.4429
  114SAPE   C2711913   2.623   1.512   4.354  0.3664 -0.0833  0.3521
  114SAPE   H7R11914   2.526   1.564   4.369  1.9270  2.3148  3.1411
  114SAPE   H7S11915   2.684   1.585   4.295  1.5346 -0.0312  1.5650
  114SAPE   C2811916   2.687   1.484   4.492  0.4651  0.3007  0.3459
  114SAPE   H8R11917   2.797   1.487   4.492  0.5715 -1.7619  0.5549
  114SAPE   C2911918   2.620   1.462   4.607 -0.0482  0.1704  0.1666
  114SAPE   H9R11919   2.669   1.430   4.700  2.6494 -0.9125 -1.4996
  114SAPE  C21011920   2.469   1.441   4.618  0.2755 -0.1744  0.8510
  114SAPE  H10R11921   2.421   1.444   4.518  2.6194 -0.2102 -0.3319
  114SAPE  H10S11922   2.438   1.527   4.681  1.2907 -0.4597  1.7625
  114SAPE  C21111923   2.427   1.311   4.686 -0.2198  0.6507  0.4063
  114SAPE  H11R11924   2.476   1.223   4.642  0.4628  2.0193 -1.7383
  114SAPE  C21211925   2.347   1.298   4.794  0.3839 -0.0483 -0.7889
  114SAPE  H12R11926   2.326   1.200   4.841 -0.0317  1.1007  1.5796
  114SAPE  C21311927   2.272   1.409   4.866  0.3162  0.2685  0.4361
  114SAPE  H13R11928   2.188   1.439   4.799 -0.8366 -2.8729  0.3018
  114SAPE  H13S11929   2.338   1.498   4.864  1.0289 -0.2532  0.3052
  114SAPE  C21411930   2.232   1.381   5.007  0.8718  0.4043 -0.2315
  114SAPE  H14R11931   2.313   1.402   5.079  0.8162 -0.6558  0.1654
  114SAPE  C21511932   2.115   1.327   5.056  0.9916 -0.6391 -0.1117
  114SAPE  H15R11933   2.116   1.306   5.164  1.4667  0.7683  0.1749
  114SAPE  C21611934   1.998   1.272   4.971 -0.4927 -0.2662  0.1406
  114SAPE  H16R11935   1.952   1.181   5.015 -4.4829  1.4713 -0.0027
  114SAPE  H16S11936   2.022   1.267   4.863 -2.1036  2.1849 -0.4236
  114SAPE  C21711937   1.887   1.372   4.996  0.4077  0.5832  1.0600
  114SAPE  H17R11938   1.919   1.463   4.942  0.7496 -0.2497 -0.1966
  114SAPE  H17S11939   1.864   1.401   5.100 -0.9681  3.2345  0.1031
  114SAPE  C21811940   1.754   1.332   4.928 -0.3821  1.0386  0.8725
  114SAPE  H18R11941   1.671   1.404   4.942  0.2588  2.0872 -0.4303
  114SAPE  H18S11942   1.737   1.231   4.971  1.7946  0.4429  0.4463
  114SAPE  C21911943   1.765   1.306   4.774  0.6440  0.5510 -0.2805
  114SAPE  H19R11944   1.670   1.268   4.732  1.6542  0.1155 -2.3172
  114SAPE  H19S11945   1.836   1.221   4.756 -0.2753 -0.1352 -0.7621
  114SAPE  C22011946   1.805   1.420   4.673  0.2307 -0.2915  0.3000
  114SAPE  H20R11947   1.741   1.508   4.693 -0.4526  0.2229 -3.4172
  114SAPE  H20S11948   1.776   1.376   4.575 -0.1350  0.2825  0.1496
  114SAPE  H20T11949   1.911   1.453   4.675  0.4012 -0.6950 -0.9600
  114SAPE   C3311950   2.586   2.030   3.692 -0.5002  0.4782 -0.4304
  114SAPE   H3X11951   2.621   2.132   3.717  0.0140 -0.0833  1.2894
  114SAPE   H3Y11952   2.681   1.992   3.649  0.1126 -0.3013  1.5108
  114SAPE   C3411953   2.558   1.957   3.824  0.7347 -0.2002 -0.4375
  114SAPE   H4X11954   2.660   1.943   3.867  0.1862 -0.7703  0.7035
  114SAPE   H4Y11955   2.519   1.853   3.822 -0.2913  0.1724 -0.4100
  114SAPE   C3511956   2.487   2.043   3.928  0.0948  0.4968 -0.3758
  114SAPE   H5X11957   2.385   2.072   3.895 -0.1905  0.1343  0.1637
  114SAPE   H5Y11958   2.545   2.136   3.948 -1.8570  1.5071  0.9353
  114SAPE   C3611959   2.456   1.978   4.066 -0.2460  0.1501 -0.0311
  114SAPE   H6X11960   2.381   1.896   4.053 -1.2327  1.1352 -0.6986
  114SAPE   H6Y11961   2.404   2.045   4.138  0.8027 -0.4209  1.3113
  114SAPE   C3711962   2.584   1.930   4.134  0.1131  0.7677 -0.1948
  114SAPE   H7X11963   2.655   2.015   4.145  2.0833 -0.9106  0.8094
  114SAPE   H7Y11964   2.645   1.856   4.077 -1.2992 -0.1699 -0.5453
  114SAPE   C3811965   2.552   1.872   4.274  0.2321  0.4475 -0.6002
  114SAPE   H8X11966   2.655   1.846   4.303  0.8222  2.3723 -0.7773
  114SAPE   H8Y11967   2.487   1.783   4.257  0.5009  0.2170 -0.4107
  114SAPE   C3911968   2.477   1.969   4.367  0.0739 -0.3584 -0.4600
  114SAPE   H9X11969   2.368   1.980   4.347 -0.7534 -1.9912  2.5948
  114SAPE   H9Y11970   2.525   2.067   4.344  0.8852 -0.5962  0.1775
  114SAPE  C31011971   2.484   1.933   4.513  0.1891 -0.1524 -0.7921
  114SAPE  H10X11972   2.423   1.841   4.513  2.5697 -1.8438  0.7882
  114SAPE  H10Y11973   2.428   2.001   4.582 -0.4350  0.1270 -1.5537
  114SAPE  C31111974   2.627   1.913   4.566  0.2383  0.2414  0.2982
  114SAPE  H11X11975   2.698   1.985   4.520  0.9832 -1.1129 -0.7532
  114SAPE  H11Y11976   2.671   1.816   4.534  1.3499  0.8659 -0.1208
  114SAPE  C31211977   2.632   1.914   4.714 -1.2400 -0.5404 -0.0510
  114SAPE  H12X11978   2.609   2.020   4.739 -2.0093 -0.9362  0.9709
  114SAPE  H12Y11979   2.732   1.888   4.753 -0.8154  1.2945  0.2032
  114SAPE  C31311980   2.518   1.830   4.781 -0.0746 -0.3325 -0.6112
  114SAPE  H13X11981   2.490   1.747   4.713 -1.0689 -0.0685 -0.5426
  114SAPE  H13Y11982   2.424   1.889   4.785 -0.5010 -1.0538  0.7823
  114SAPE  C31411983   2.560   1.773   4.924  0.1202 -0.4336 -0.4594
  114SAPE  H14X11984   2.644   1.702   4.913  1.0838  0.7824 -1.2824
  114SAPE  H14Y11985   2.468   1.716   4.951  0.9741 -2.2046 -1.1820
  114SAPE  C31511986   2.599   1.869   5.043 -0.4583 -0.0030 -0.3593
  114SAPE  H15X11987   2.683   1.931   5.007  0.3274 -1.8683 -1.9243
  114SAPE  H15Y11988   2.625   1.805   5.131 -0.7150  0.5721  0.1427
  114SAPE  C31611989   2.490   1.962   5.088  0.3874  0.0114  0.0406
  114SAPE  H16X11990   2.401   1.906   5.124  1.1780 -0.4781  1.2743
  114SAPE  H16Y11991   2.458   2.028   5.004  1.3372 -1.7376 -1.7587
  114SAPE  C31711992   2.536   2.043   5.206  0.4161 -0.4126  0.7964
  114SAPE  H17X11993   2.632   2.091   5.179  0.9713 -1.3325  1.0870
  114SAPE  H17Y11994   2.567   1.965   5.280  0.5664 -1.2097 -0.0822
  114SAPE  C31811995   2.435   2.141   5.263  0.5214 -0.1609 -0.6049
  114SAPE  H18X11996   2.383   2.185   5.175  1.4544 -1.6519 -1.9567
  114SAPE  H18Y11997   2.487   2.224   5.317 -0.7754 -0.0433  0.4947
  114SAPE  H18Z11998   2.361   2.089   5.327  1.4495 -0.1885  0.4781
  115SAPE     N11999   6.653   1.798   3.020 -0.0019 -0.6435 -0.0060
  115SAPE   HN112000   6.555   1.769   3.040  0.4431 -1.9021  0.4797
  115SAPE   HN212001   6.651   1.790   2.916 -1.0922  0.0162 -0.0461
  115SAPE   HN312002   6.725   1.736   3.062 -1.0168  0.7032  4.2184
  115SAPE   C1212003   6.677   1.938   3.081 -0.1204  0.0469  0.2012
  115SAPE  H12A12004   6.756   1.991   3.024 -1.0187  1.9925  0.7015
  115SAPE  H12B12005   6.704   1.933   3.189  0.6164  1.0045  0.0740
  115SAPE   C1112006   6.551   2.025   3.068 -0.2883  0.2514 -0.1848
  115SAPE  H11A12007   6.534   2.063   2.965 -0.6022 -1.9920 -1.0314
  115SAPE  H11B12008   6.570   2.114   3.131  1.6126 -0.8745  0.9438
  115SAPE     P12009   6.306   2.019   3.169 -0.4537  0.6353 -0.0243
  115SAPE   O1312010   6.264   2.118   3.069  0.1162 -0.3781 -0.0789
  115SAPE   O1412011   6.199   1.910   3.188 -0.1051 -0.2002 -0.3761
  115SAPE   O1212012   6.436   1.953   3.112 -0.2044  0.5329  0.4152
  115SAPE   O1112013   6.357   2.078   3.307  0.1683 -0.0308  0.3884
  115SAPE    C112014   6.386   2.217   3.322 -0.1322 -1.0692 -0.0928
  115SAPE    HA12015   6.494   2.236   3.302 -0.4881  0.4695 -0.7472
  115SAPE    HB12016   6.344   2.275   3.237  1.1647 -2.4917 -1.7710
  115SAPE    C212017   6.349   2.289   3.456  0.7379 -0.2756 -0.4087
  115SAPE    HS12018   6.399   2.388   3.441  1.3702 -0.5331 -0.0619
  115SAPE   O2112019   6.390   2.227   3.578 -0.0234  0.1099  0.4000
  115SAPE   C2112020   6.518   2.218   3.592 -0.0656 -0.0113 -0.0442
  115SAPE   O2212021   6.599   2.263   3.512 -0.2639  0.2091 -0.2631
  115SAPE   C2212022   6.546   2.173   3.737  0.7309  0.3204  0.5195
  115SAPE   H2R12023   6.486   2.228   3.813 -2.3113 -0.1897 -1.3574
  115SAPE   H2S12024   6.518   2.066   3.750  2.2084  0.0572  1.9014
  115SAPE    C312025   6.196   2.314   3.468 -0.1810  0.0646 -0.3557
  115SAPE    HX12026   6.154   2.216   3.496 -1.1882  0.8250  0.9135
  115SAPE    HY12027   6.154   2.334   3.367 -0.5331  0.3792 -0.1503
  115SAPE   O3112028   6.146   2.404   3.574 -0.2635  0.1248 -0.0125
  115SAPE   C3112029   6.157   2.533   3.539  0.3752  0.1953 -0.0505
  115SAPE   O3212030   6.189   2.577   3.434 -0.1518  0.0558 -0.3616
  115SAPE   C3212031   6.100   2.615   3.652 -0.5264  0.1525 -0.4886
  115SAPE   H2X12032   6.066   2.560   3.742 -1.4791  1.4856 -0.0046
  115SAPE   H2Y12033   6.007   2.671   3.626 -0.2160  0.5004 -0.8832
  115SAPE   C2312034   6.695   2.185   3.777 -0.3813 -0.4272  0.2374
  115SAPE   H3R12035   6.724   2.292   3.778 -0.0759 -0.5107  0.5820
  115SAPE   H3S12036   6.776   2.133   3.722 -0.9962 -0.9764 -0.1668
  115SAPE   C2412037   6.728   2.128   3.916  0.4304 -0.1388 -0.2756
  115SAPE   H4R12038   6.752   2.022   3.892 -1.0501 -0.6510  0.4186
  115SAPE   H4S12039   6.635   2.141   3.975  0.3307  2.6138 -0.9273
  115SAPE   C2512040   6.843   2.195   3.989  0.8520  0.1130 -0.4188
  115SAPE   H5R12041   6.923   2.247   3.934  1.4585  0.0634  0.3881
  115SAPE   C2612042   6.856   2.221   4.123  0.3127 -0.1374  0.4713
  115SAPE   H6R12043   6.958   2.250   4.153  1.3763 -0.9620 -2.0534
  115SAPE   C2712044   6.757   2.186   4.236  0.8933 -0.8422  0.1803
  115SAPE   H7R12045   6.680   2.114   4.202  1.5052 -1.5732  0.3211
  115SAPE   H7S12046   6.703   2.280   4.260  0.9378 -0.7981  0.1082
  115SAPE   C2812047   6.823   2.138   4.363 -0.0258  0.0930  0.2815
  115SAPE   H8R12048   6.903   2.064   4.346 -0.3268 -0.2187  0.1930
  115SAPE   C2912049   6.798   2.186   4.487  0.1290 -0.0533 -0.2264
  115SAPE   H9R12050   6.864   2.154   4.569  2.2936 -0.9667 -2.2029
  115SAPE  C21012051   6.697   2.280   4.534  0.5744  0.0277  0.0104
  115SAPE  H10R12052   6.597   2.231   4.540  1.3488 -1.8356 -1.3628
  115SAPE  H10S12053   6.689   2.350   4.448 -0.0694 -1.0231 -0.8232
  115SAPE  C21112054   6.725   2.358   4.657 -0.2971  0.0177 -0.3803
  115SAPE  H11R12055   6.815   2.329   4.713 -0.6770 -1.3747 -0.4575
  115SAPE  C21212056   6.672   2.480   4.696  1.3506  0.1612  0.0416
  115SAPE  H12R12057   6.709   2.523   4.790  0.0741  1.0828  0.1549
  115SAPE  C21312058   6.565   2.559   4.630 -0.6033  0.1491 -0.1852
  115SAPE  H13R12059   6.605   2.597   4.534 -1.8898  1.8880 -0.0833
  115SAPE  H13S12060   6.554   2.646   4.699  1.4228 -0.1012  0.5366
  115SAPE  C21412061   6.429   2.492   4.597  0.4791 -0.3147 -0.3253
  115SAPE  H14R12062   6.378   2.442   4.680  1.5473  0.4484  0.8391
  115SAPE  C21512063   6.379   2.480   4.475  0.6856 -0.1797 -0.0206
  115SAPE  H15R12064   6.280   2.433   4.466  0.8824 -0.2475 -2.4452
  115SAPE  C21612065   6.455   2.510   4.347  0.4411  0.8546  0.4641
  115SAPE  H16R12066   6.550   2.451   4.349 -0.9319 -1.4343  1.5571
  115SAPE  H16S12067   6.481   2.617   4.330  1.7921  0.2561 -1.6974
  115SAPE  C21712068   6.372   2.474   4.222 -0.9913 -0.1569 -0.2437
  115SAPE  H17R12069   6.303   2.560   4.208  0.4017  1.0235 -0.1247
  115SAPE  H17S12070   6.317   2.378   4.224 -0.8397 -0.2412  1.6723
  115SAPE  C21812071   6.460   2.487   4.097 -0.7107  0.8528 -0.1222
  115SAPE  H18R12072   6.537   2.408   4.091 -2.0320 -0.5989  1.1006
  115SAPE  H18S12073   6.504   2.589   4.090  1.1344  0.0995 -0.0515
  115SAPE  C21912074   6.389   2.464   3.963  0.2234 -0.1701 -1.2638
  115SAPE  H19R12075   6.300   2.531   3.962  0.4358  0.1163 -1.0571
  115SAPE  H19S12076   6.360   2.357   3.966  2.1440 -0.6992  0.5192
  115SAPE  C22012077   6.477   2.499   3.847 -0.1075 -0.3258 -0.6500
  115SAPE  H20R12078   6.577   2.456   3.870 -0.8175 -1.3261  0.6850
  115SAPE  H20S12079   6.487   2.609   3.841  0.4237 -0.1050  2.5112
  115SAPE  H20T12080   6.443   2.446   3.755 -1.7391 -0.6811  0.1296
  115SAPE   C3312081   6.204   2.719   3.706  0.4520 -0.6174 -0.3621
  115SAPE   H3X12082   6.186   2.812   3.648 -1.7545 -0.2296  0.8529
  115SAPE   H3Y12083   6.307   2.676   3.710 -0.2067 -2.1845  0.7790
  115SAPE   C3412084   6.167   2.780   3.847  0.6951  0.1969 -0.7709
  115SAPE   H4X12085   6.161   2.696   3.919  0.0241  1.5337  0.8095
  115SAPE   H4Y12086   6.070   2.834   3.848  0.7694  0.3340 -0.2062
  115SAPE   C3512087   6.284   2.866   3.896 -0.1893  0.0340 -0.2095
  115SAPE   H5X12088   6.288   2.930   3.805 -1.1717 -0.0717 -0.3335
  115SAPE   H5Y12089   6.379   2.810   3.908 -0.4495 -0.1496  1.2278
  115SAPE   C3612090   6.267   2.944   4.031  0.0254  0.3374  0.2941
  115SAPE   H6X12091   6.174   3.005   4.035  1.2983  2.3506  0.5853
  115SAPE   H6Y12092   6.353   3.014   4.030  0.3580 -0.0511  1.0564
  115SAPE   C3712093   6.277   2.856   4.154 -0.1883 -0.4334 -0.5092
  115SAPE   H7X12094   6.349   2.772   4.138 -0.2244 -0.4131 -0.7870
  115SAPE   H7Y12095   6.178   2.810   4.174  0.1672 -0.1508  2.2681
  115SAPE   C3812096   6.318   2.929   4.288 -0.6141 -0.5781  0.1764
  115SAPE   H8X12097   6.270   3.028   4.297 -0.6454 -0.6599  1.0038
  115SAPE   H8Y12098   6.427   2.948   4.298 -0.7933  0.2638  0.5304
  115SAPE   C3912099   6.273   2.842   4.407  0.3041  0.1627 -0.5479
  115SAPE   H9X12100   6.345   2.757   4.411 -0.4335 -0.4792 -0.5719
  115SAPE   H9Y12101   6.170   2.799   4.405  0.3816 -0.4395  2.7746
  115SAPE  C31012102   6.285   2.924   4.540  0.7348 -0.7371 -0.1572
  115SAPE  H10X12103   6.207   3.003   4.537  1.8583  0.4955  1.4061
  115SAPE  H10Y12104   6.379   2.980   4.562  1.0928 -0.7737 -1.5079
  115SAPE  C31112105   6.263   2.823   4.652 -0.0289  0.2869  0.7202
  115SAPE  H11X12106   6.333   2.737   4.646 -2.2047 -1.5029 -0.7640
  115SAPE  H11Y12107   6.165   2.772   4.647  0.1619 -0.0789  0.6723
  115SAPE  C31212108   6.290   2.879   4.796 -0.5518  0.6452 -0.0944
  115SAPE  H12X12109   6.216   2.957   4.824 -1.4826 -0.2557  0.0247
  115SAPE  H12Y12110   6.391   2.924   4.800 -0.1454 -0.2726  0.1558
  115SAPE  C31312111   6.281   2.764   4.896  0.4834  0.1413  0.1191
  115SAPE  H13X12112   6.359   2.687   4.876 -0.2998 -1.0426  1.4714
  115SAPE  H13Y12113   6.185   2.712   4.883  0.6801  0.0034 -0.8968
  115SAPE  C31412114   6.265   2.812   5.040 -0.2775  0.5940  0.3516
  115SAPE  H14X12115   6.190   2.894   5.042 -2.4796 -1.2957 -0.0563
  115SAPE  H14Y12116   6.356   2.867   5.072  0.4346  0.5596 -1.4859
  115SAPE  C31512117   6.243   2.695   5.138 -0.0025 -0.0742  0.0545
  115SAPE  H15X12118   6.329   2.625   5.141  1.0952  1.2413  0.1028
  115SAPE  H15Y12119   6.157   2.628   5.114 -0.7244  1.1478 -0.8607
  115SAPE  C31612120   6.235   2.747   5.281 -0.1145  0.3279 -0.0435
  115SAPE  H16X12121   6.136   2.797   5.293  0.8702  1.8059  3.0240
  115SAPE  H16Y12122   6.316   2.819   5.305 -0.1263  0.3116  0.0501
  115SAPE  C31712123   6.236   2.631   5.379 -0.2707 -0.2121 -0.3890
  115SAPE  H17X12124   6.313   2.561   5.340 -1.1430 -0.9589 -0.8313
  115SAPE  H17Y12125   6.139   2.576   5.377 -0.0634 -0.5777 -0.6833
  115SAPE  C31812126   6.260   2.666   5.527 -0.4951  0.2939 -0.2934
  115SAPE  H18X12127   6.181   2.731   5.571 -1.5754 -0.8395 -0.4943
  115SAPE  H18Y12128   6.360   2.710   5.547 -0.5901  1.3205 -1.9320
  115SAPE  H18Z12129   6.263   2.579   5.596  1.2926  0.6311  0.0974
  116SAPE     N12130   1.341   2.544   3.152 -0.2940  0.0801  0.1243
  116SAPE   HN112131   1.316   2.626   3.211 -0.2056 -0.6181  1.1488
  116SAPE   HN212132   1.311   2.453   3.192 -2.6614 -0.1128 -1.8604
  116SAPE   HN312133   1.443   2.551   3.136 -0.0233  3.4528  2.4478
  116SAPE   C1212134   1.279   2.564   3.019  0.0909  0.5339  0.0122
  116SAPE  H12A12135   1.181   2.512   3.026  0.1223  0.3598 -0.8158
  116SAPE  H12B12136   1.338   2.513   2.940 -1.9304 -1.0674 -0.5290
  116SAPE   C1112137   1.258   2.711   2.977  0.4571  0.4691 -0.3096
  116SAPE  H11A12138   1.195   2.706   2.885  0.5127 -2.9031 -0.2884
  116SAPE  H11B12139   1.355   2.760   2.956 -0.1633  2.2197  0.7218
  116SAPE     P12140   1.256   2.870   3.180 -0.0684 -0.5157  0.5403
  116SAPE   O1312141   1.326   2.781   3.271 -0.0062 -0.6887  0.0928
  116SAPE   O1412142   1.342   2.971   3.114  0.1825  0.4180 -0.3063
  116SAPE   O1212143   1.185   2.787   3.072 -0.2793 -0.3157  0.0450
  116SAPE   O1112144   1.139   2.944   3.250  0.2758 -0.1743 -0.5135
  116SAPE    C112145   1.055   3.026   3.170  0.2959 -0.1644  0.6699
  116SAPE    HA12146   1.110   3.119   3.145 -0.3762  0.3569  1.1035
  116SAPE    HB12147   1.032   2.986   3.069  1.2398  1.1524 -0.0944
  116SAPE    C212148   0.910   3.046   3.226 -0.3043  0.4760  0.7578
  116SAPE    HS12149   0.885   3.150   3.194 -0.0688 -0.3951 -2.5797
  116SAPE   O2112150   0.901   3.041   3.368  0.0683  0.0381 -0.2619
  116SAPE   C2112151   0.962   3.148   3.431  0.4992  0.1771  0.0541
  116SAPE   O2212152   0.993   3.246   3.366 -0.3298  0.1058  0.0323
  116SAPE   C2212153   0.981   3.126   3.580 -0.5707 -0.1771 -0.2447
  116SAPE   H2R12154   0.879   3.114   3.621 -1.7862 -1.0694 -3.1965
  116SAPE   H2S12155   1.034   3.030   3.601 -0.4328 -0.6079 -2.3223
  116SAPE    C312156   0.809   2.943   3.171  0.1466 -0.1651 -0.1466
  116SAPE    HX12157   0.835   2.853   3.231  0.3046  0.8433  1.3604
  116SAPE    HY12158   0.845   2.925   3.067  1.8610  1.5704  0.0945
  116SAPE   O3112159   0.669   2.984   3.181 -0.0209 -0.7157  0.1820
  116SAPE   C3112160   0.594   2.880   3.155 -0.4874 -0.3855 -0.3721
  116SAPE   O3212161   0.628   2.768   3.126  0.1565 -0.1180 -0.0531
  116SAPE   C3212162   0.452   2.917   3.202  0.0705  0.5716  0.2097
  116SAPE   H2X12163   0.401   2.842   3.137  1.2166 -1.0263  1.1062
  116SAPE   H2Y12164   0.420   3.018   3.170 -2.0005 -0.3227 -0.7225
  116SAPE   C2312165   1.044   3.251   3.651 -1.0431  0.4879  0.9491
  116SAPE   H3R12166   0.991   3.344   3.620 -1.1645 -0.4581 -2.0543
  116SAPE   H3S12167   1.150   3.262   3.618 -2.2906  2.0820 -3.2610
  116SAPE   C2412168   1.037   3.232   3.805  0.0158 -0.4203 -0.1520
  116SAPE   H4R12169   1.078   3.131   3.826 -2.0345 -1.0124  1.3223
  116SAPE   H4S12170   0.931   3.215   3.835 -0.1593  0.0709 -0.4666
  116SAPE   C2512171   1.093   3.351   3.869 -0.6079 -0.2045 -0.2056
  116SAPE   H5R12172   1.073   3.450   3.826  0.3000 -0.3490 -1.0091
  116SAPE   C2612173   1.151   3.338   3.992  0.7982  0.4406 -0.2903
  116SAPE   H6R12174   1.175   3.434   4.041 -0.5018  1.7053 -2.0191
  116SAPE   C2712175   1.184   3.218   4.069  0.5194 -0.5900 -0.5349
  116SAPE   H7R12176   1.203   3.130   4.005 -0.0860 -0.9516 -0.2338
  116SAPE   H7S12177   1.100   3.188   4.135  0.6163  0.0139 -0.1260
  116SAPE   C2812178   1.306   3.235   4.155 -0.0943  0.4802 -0.2731
  116SAPE   H8R12179   1.401   3.208   4.107 -0.8739  0.0008 -1.6277
  116SAPE   C2912180   1.313   3.274   4.285  0.1430 -0.0783 -0.1263
  116SAPE   H9R12181   1.409   3.276   4.337  0.0585 -0.2529  0.0362
  116SAPE  C21012182   1.201   3.328   4.371  0.0014 -0.2146  0.2093
  116SAPE  H10R12183   1.101   3.301   4.331 -0.2037 -1.7579  1.6606
  116SAPE  H10S12184   1.212   3.438   4.383 -1.6293 -0.1661  1.5631
  116SAPE  C21112185   1.211   3.254   4.498 -0.2683  0.0145 -0.2544
  116SAPE  H11R12186   1.165   3.155   4.510  0.5616 -0.1359  2.0309
  116SAPE  C21212187   1.271   3.314   4.612  0.0588  0.7458 -0.1762
  116SAPE  H12R12188   1.280   3.257   4.706  0.4115  1.7649  0.4266
  116SAPE  C21312189   1.353   3.443   4.611 -0.1923  0.3625  0.1821
  116SAPE  H13R12190   1.301   3.539   4.589  0.9366  0.7101 -1.1122
  116SAPE  H13S12191   1.443   3.426   4.548  0.8183 -2.5774  2.1834
  116SAPE  C21412192   1.418   3.468   4.750  0.0033 -0.2739 -0.0162
  116SAPE  H14R12193   1.488   3.387   4.776 -0.0323 -0.0626  0.7479
  116SAPE  C21512194   1.404   3.569   4.834  0.1134  0.4319  0.1335
  116SAPE  H15R12195   1.452   3.571   4.933  1.1983  2.0775 -0.3891
  116SAPE  C21612196   1.298   3.673   4.829  0.3860 -0.2887  0.6881
  116SAPE  H16R12197   1.228   3.656   4.744  0.8155  1.3345 -0.0361
  116SAPE  H16S12198   1.346   3.773   4.819 -0.6085  0.0940 -0.6289
  116SAPE  C21712199   1.208   3.668   4.955  0.1065 -0.1375  0.0218
  116SAPE  H17R12200   1.167   3.566   4.971 -0.0817 -0.0508  0.0902
  116SAPE  H17S12201   1.121   3.729   4.925 -1.5105 -2.2760  0.1710
  116SAPE  C21812202   1.270   3.735   5.080 -0.5013 -0.1261  0.8295
  116SAPE  H18R12203   1.267   3.843   5.055 -2.0815  0.3138  2.6912
  116SAPE  H18S12204   1.368   3.703   5.121  0.7556  2.2525 -0.1121
  116SAPE  C21912205   1.171   3.741   5.192  0.8235 -0.0472 -0.3338
  116SAPE  H19R12206   1.148   3.637   5.226  1.4510 -0.4180 -1.0251
  116SAPE  H19S12207   1.077   3.782   5.150  1.1115  0.4179 -0.5243
  116SAPE  C22012208   1.212   3.835   5.312  0.2203 -0.1265  0.2763
  116SAPE  H20R12209   1.130   3.833   5.387  0.5276  2.4841  0.7894
  116SAPE  H20S12210   1.226   3.942   5.284  1.0787 -0.2295  0.2803
  116SAPE  H20T12211   1.311   3.804   5.353 -0.2527 -1.9481  0.0932
  116SAPE   C3312212   0.423   2.867   3.342 -0.1078 -0.1560 -0.0087
  116SAPE   H3X12213   0.476   2.770   3.358  0.4033  0.2845  1.1152
  116SAPE   H3Y12214   0.313   2.857   3.354  0.1913 -1.3346  2.4556
  116SAPE   C3412215   0.468   2.980   3.443  0.2330 -0.0131 -0.2845
  116SAPE   H4X12216   0.405   3.070   3.429  0.1247  0.6970  3.7213
  116SAPE   H4Y12217   0.574   3.006   3.423  0.1081  1.7930  1.1596
  116SAPE   C3512218   0.443   2.934   3.589 -0.8654 -0.1587  1.2167
  116SAPE   H5X12219   0.512   2.850   3.607  1.1301  1.0081 -0.5041
  116SAPE   H5Y12220   0.343   2.886   3.600 -0.3101 -1.5992  0.3083
  116SAPE   C3612221   0.466   3.042   3.697 -0.5405 -0.1738  0.0644
  116SAPE   H6X12222   0.407   3.131   3.666  0.4721 -0.7168 -3.9284
  116SAPE   H6Y12223   0.570   3.080   3.697 -0.7057  1.0080 -5.1137
  116SAPE   C3712224   0.424   3.000   3.842 -0.2466  0.3566 -0.1565
  116SAPE   H7X12225   0.501   2.923   3.866 -1.5972 -0.6698  1.0502
  116SAPE   H7Y12226   0.321   2.959   3.836  0.3403 -1.8446  2.4233
  116SAPE   C3812227   0.434   3.104   3.957 -0.6930  0.7115 -0.0161
  116SAPE   H8X12228   0.376   3.192   3.921 -0.3219 -0.4242 -3.7676
  116SAPE   H8Y12229   0.543   3.126   3.957 -0.5801  0.2438 -1.5954
  116SAPE   C3912230   0.383   3.052   4.092 -0.0228  0.0702  0.1357
  116SAPE   H9X12231   0.443   2.963   4.122 -2.0752 -2.2057 -1.9677
  116SAPE   H9Y12232   0.274   3.029   4.090 -0.0241  0.0580  0.3271
  116SAPE  C31012233   0.401   3.152   4.207 -0.1856 -0.3009  0.5895
  116SAPE  H10X12234   0.355   3.251   4.183  0.6553  0.2346  1.1275
  116SAPE  H10Y12235   0.507   3.182   4.223 -0.5185  0.9859  0.5371
  116SAPE  C31112236   0.350   3.117   4.343  0.3160 -0.2150 -0.3824
  116SAPE  H11X12237   0.376   3.011   4.360 -2.6175 -1.4280 -2.5246
  116SAPE  H11Y12238   0.239   3.121   4.342  0.3410  0.9882 -0.0161
  116SAPE  C31212239   0.382   3.211   4.464 -0.0225 -0.3702 -0.9538
  116SAPE  H12X12240   0.437   3.303   4.436 -0.8013  0.2371 -0.5339
  116SAPE  H12Y12241   0.462   3.170   4.530 -0.4054  0.5022  0.0810
  116SAPE  C31312242   0.260   3.243   4.549  0.2333  0.0333 -0.0079
  116SAPE  H13X12243   0.215   3.149   4.587  0.2298  0.6375  1.5953
  116SAPE  H13Y12244   0.189   3.296   4.483 -0.5044 -0.2265  0.5606
  116SAPE  C31412245   0.299   3.327   4.670 -0.0938 -0.5014 -0.3132
  116SAPE  H14X12246   0.340   3.424   4.635 -3.8819  1.5437  0.4316
  116SAPE  H14Y12247   0.387   3.272   4.708  0.0847 -1.3760 -1.8918
  116SAPE  C31512248   0.192   3.359   4.768  0.1965  0.4988 -1.2461
  116SAPE  H15X12249   0.137   3.263   4.783  0.4161  0.5686  0.2155
  116SAPE  H15Y12250   0.126   3.438   4.726 -0.7100 -0.1540 -1.0796
  116SAPE  C31612251   0.231   3.393   4.917 -0.4758 -1.0780  0.0892
  116SAPE  H16X12252   0.150   3.385   4.993 -0.7683 -1.6890 -0.2742
  116SAPE  H16Y12253   0.246   3.503   4.917  0.1174 -1.1564 -0.3951
  116SAPE  C31712254   0.349   3.319   4.969  0.1125  0.1027 -0.7907
  116SAPE  H17X12255   0.442   3.337   4.911  0.7962  1.5156  0.6675
  116SAPE  H17Y12256   0.324   3.211   4.971  1.4399 -0.2202 -0.1324
  116SAPE  C31812257   0.397   3.368   5.108  0.1428 -0.6234  0.0390
  116SAPE  H18X12258   0.499   3.325   5.124 -0.0300 -1.3268 -0.7240
  116SAPE  H18Y12259   0.332   3.338   5.192  0.3755  1.2254  0.9451
  116SAPE  H18Z12260   0.416   3.478   5.110  1.1341 -0.7791 -0.0325
  117SOPE     N12261   5.462   5.412   7.675  0.4071  0.6574 -0.3528
  117SOPE   HN112262   5.552   5.365   7.652 -0.2165 -1.5256  1.2049
  117SOPE   HN212263   5.429   5.482   7.606 -0.5615 -0.2554 -0.8508
  117SOPE   HN312264   5.483   5.472   7.757 -2.5338 -0.6535  1.5556
  117SOPE   C1212265   5.355   5.322   7.715  0.5578  0.7264  0.2699
  117SOPE  H12A12266   5.397   5.255   7.793  1.7585  2.6369  1.3374
  117SOPE  H12B12267   5.328   5.250   7.636 -0.6449  1.4323  0.0051
  117SOPE   C1112268   5.229   5.392   7.762 -0.5365 -0.4495  0.4469
  117SOPE  H11A12269   5.254   5.467   7.839 -0.5051  0.4610 -0.4287
  117SOPE  H11B12270   5.163   5.312   7.803  0.0637 -2.0026 -1.4277
  117SOPE     P12271   5.102   5.593   7.661  0.1004 -0.0920  0.1195
  117SOPE   O1312272   5.206   5.690   7.708 -0.4658  0.1690  0.1299
  117SOPE   O1412273   4.973   5.601   7.737 -0.4561  0.5389  0.0206
  117SOPE   O1212274   5.165   5.447   7.650  0.6198  0.5478  0.3884
  117SOPE   O1112275   5.060   5.639   7.509 -0.3380 -0.2498  1.1541
  117SOPE    C112276   4.995   5.546   7.421  0.2665  0.5489  0.5359
  117SOPE    HA12277   4.908   5.582   7.362 -1.6195 -2.2719  1.3916
  117SOPE    HB12278   4.944   5.462   7.474  0.7467  0.0687  0.2480
  117SOPE    C212279   5.097   5.490   7.316 -1.3523 -0.6626  0.2852
  117SOPE    HS12280   5.186   5.478   7.382 -3.2572  0.7936  3.3315
  117SOPE   O2112281   5.126   5.599   7.221  0.1527  0.0713  0.0443
  117SOPE   C2112282   5.225   5.569   7.136  0.2096  0.1426  0.2162
  117SOPE   O2212283   5.292   5.469   7.141 -0.1168 -0.0687 -0.4381
  117SOPE   C2212284   5.236   5.671   7.023 -0.1128 -0.5071  0.2507
  117SOPE   H2R12285   5.345   5.692   7.012 -0.1353 -0.6411 -0.2471
  117SOPE   H2S12286   5.183   5.764   7.051  0.0646 -0.1935 -0.4433
  117SOPE    C312287   5.042   5.371   7.241  0.0040 -0.0173 -0.3868
  117SOPE    HX12288   5.009   5.300   7.320  0.0960  0.5463  0.1615
  117SOPE    HY12289   5.128   5.322   7.190  0.0640 -1.1680  0.7488
  117SOPE   O3112290   4.931   5.404   7.156 -0.5576  0.4578  0.6792
  117SOPE   C3112291   4.869   5.286   7.123  0.9054 -0.8128  0.4425
  117SOPE   O3212292   4.906   5.173   7.151 -0.4188 -0.7347 -0.5473
  117SOPE   C3212293   4.759   5.322   7.022 -0.4499  0.0666  0.9250
  117SOPE   H2X12294   4.703   5.411   7.058 -0.5306  0.3276  0.1786
  117SOPE   H2Y12295   4.675   5.251   7.006  1.4004 -2.1534  0.4865
  117SOPE   C2312296   5.202   5.610   6.881  0.0276 -0.0973 -0.2165
  117SOPE   H3R12297   5.112   5.547   6.898  0.9189 -1.7783 -1.4952
  117SOPE   H3S12298   5.285   5.545   6.847 -0.7703 -1.4082  0.2588
  117SOPE   C2412299   5.170   5.708   6.767 -0.4821  0.3125 -0.2232
  117SOPE   H4R12300   5.089   5.778   6.798  1.0917  2.1553 -0.0866
  117SOPE   H4S12301   5.256   5.776   6.747  0.8736 -1.4830 -0.7029
  117SOPE   C2512302   5.150   5.652   6.634 -0.3397  0.5705 -0.2153
  117SOPE   H5R12303   5.224   5.569   6.627 -1.0404 -0.1793  0.8418
  117SOPE   H5S12304   5.047   5.609   6.633 -0.3574  0.4601  2.0643
  117SOPE   C2612305   5.155   5.760   6.524  0.2213  0.3790  0.7977
  117SOPE   H6R12306   5.081   5.841   6.544  0.6006  0.2703  2.7877
  117SOPE   H6S12307   5.258   5.803   6.530 -0.0545  1.0809  0.6777
  117SOPE   C2712308   5.129   5.705   6.375  0.6918 -0.2444 -0.2166
  117SOPE   H7R12309   5.196   5.617   6.367 -0.6004 -1.2071 -0.8741
  117SOPE   H7S12310   5.021   5.678   6.377  0.5751  0.2069 -0.3522
  117SOPE   C2812311   5.167   5.818   6.280 -0.6047 -0.0041 -0.0602
  117SOPE   H8R12312   5.105   5.904   6.312  1.3651  1.3099  0.3941
  117SOPE   H8S12313   5.274   5.846   6.292 -0.4319 -0.6981  0.1069
  117SOPE   C2912314   5.129   5.779   6.142 -0.0313  0.5495 -0.2154
  117SOPE   H9112315   5.021   5.767   6.123  0.1056  0.6722 -1.1022
  117SOPE  C21012316   5.209   5.762   6.040  0.2339 -0.0319  0.4517
  117SOPE  H10112317   5.162   5.737   5.944 -1.5000 -0.2242  1.3231
  117SOPE  C21112318   5.355   5.770   6.033 -0.1272  0.7220  0.6997
  117SOPE  H11R12319   5.387   5.663   6.038 -0.4919  0.5594 -0.3350
  117SOPE  H11S12320   5.391   5.826   6.123 -1.1135  2.2760  0.1579
  117SOPE  C21212321   5.417   5.830   5.906 -0.4041 -0.2287  0.3640
  117SOPE  H12R12322   5.525   5.807   5.903 -0.0771  1.2987 -0.1980
  117SOPE  H12S12323   5.417   5.941   5.902  0.3302 -0.2418 -3.6542
  117SOPE  C21312324   5.360   5.772   5.783  0.4957 -0.5610 -0.6990
  117SOPE  H13R12325   5.269   5.819   5.741  1.2215  1.2502 -0.3290
  117SOPE  H13S12326   5.337   5.664   5.798  0.8125 -0.3670  1.5666
  117SOPE  C21412327   5.458   5.781   5.662 -0.3302 -0.7831  0.3272
  117SOPE  H14R12328   5.549   5.727   5.695 -0.1348 -0.2092  0.7317
  117SOPE  H14S12329   5.480   5.887   5.638 -1.3851  0.0191  2.6100
  117SOPE  C21512330   5.430   5.703   5.532  0.5731 -0.4091  0.2088
  117SOPE  H15R12331   5.401   5.602   5.568  2.9766 -0.3409  2.6389
  117SOPE  H15S12332   5.526   5.694   5.477  0.8385  0.3693  0.5197
  117SOPE  C21612333   5.332   5.761   5.421 -0.1562 -0.0312  0.1443
  117SOPE  H16R12334   5.372   5.856   5.381 -1.9490  0.4067 -0.7387
  117SOPE  H16S12335   5.236   5.791   5.469  0.5650  1.5552  0.6648
  117SOPE  C21712336   5.303   5.650   5.312  0.0389 -0.2970 -0.2966
  117SOPE  H17R12337   5.271   5.557   5.363 -1.4198 -0.3534 -1.2524
  117SOPE  H17S12338   5.398   5.633   5.257  1.3186  1.9946  1.0483
  117SOPE  C21812339   5.191   5.676   5.210 -0.3525  0.7199  0.0159
  117SOPE  H18R12340   5.173   5.585   5.149  0.8023 -0.5653  1.4847
  117SOPE  H18S12341   5.216   5.764   5.148  0.0342  1.7626  1.6077
  117SOPE  H18T12342   5.099   5.692   5.270 -0.9302 -3.4658  0.5703
  117SOPE   C3312343   4.816   5.374   6.889  0.1114  0.9017 -0.0344
  117SOPE   H3X12344   4.886   5.456   6.915 -0.3961  0.7074  2.1130
  117SOPE   H3Y12345   4.730   5.429   6.845 -1.0127 -1.1233 -0.4977
  117SOPE   C3412346   4.877   5.261   6.810 -0.1743 -0.9019 -0.4373
  117SOPE   H4X12347   4.794   5.201   6.767 -0.6388 -0.7968  0.2944
  117SOPE   H4Y12348   4.948   5.203   6.872  1.5734  0.7501 -0.8096
  117SOPE   C3512349   4.953   5.324   6.692 -0.3752  0.1370  0.3241
  117SOPE   H5X12350   5.049   5.359   6.734  0.4478  0.7591 -1.9438
  117SOPE   H5Y12351   4.902   5.404   6.635  0.4802 -1.1752 -2.4858
  117SOPE   C3612352   4.976   5.223   6.583 -0.1248 -0.0014  0.4606
  117SOPE   H6X12353   4.892   5.191   6.519  0.3314  0.0057 -0.1538
  117SOPE   H6Y12354   5.033   5.139   6.627  1.1524  1.4583  1.7277
  117SOPE   C3712355   5.056   5.289   6.464  0.3163 -0.2631  0.1461
  117SOPE   H7X12356   5.153   5.333   6.495  0.6436 -1.1181  0.3610
  117SOPE   H7Y12357   4.995   5.376   6.432  1.0510 -0.0879 -0.8237
  117SOPE   C3812358   5.087   5.188   6.355  1.0117  0.9841  0.2346
  117SOPE   H8X12359   4.999   5.120   6.358  1.3594  0.5364  3.0203
  117SOPE   H8Y12360   5.175   5.129   6.387 -0.2748 -1.2085 -0.0347
  117SOPE   C3912361   5.115   5.244   6.215  0.1144 -0.5041  0.4642
  117SOPE   H9X12362   5.154   5.150   6.171  0.4677  0.0221 -0.3689
  117SOPE   H9Y12363   5.200   5.315   6.223  2.2123 -2.9930  1.6885
  117SOPE  C31012364   4.993   5.293   6.137  0.5109 -0.6020 -0.2771
  117SOPE  H10X12365   4.968   5.394   6.177  1.2880  0.1960 -1.7066
  117SOPE  H10Y12366   4.904   5.230   6.159 -2.4252  3.5733  1.4017
  117SOPE  C31112367   5.005   5.308   5.981  0.0244  0.0990  0.3468
  117SOPE  H11X12368   4.913   5.351   5.936 -0.9152  0.7459  2.7446
  117SOPE  H11Y12369   5.020   5.205   5.940  1.8393  1.3650 -2.4638
  117SOPE  C31212370   5.124   5.391   5.934 -0.6485  0.0701 -0.2450
  117SOPE  H12X12371   5.210   5.353   5.993  1.1103 -0.7308 -3.1618
  117SOPE  H12Y12372   5.117   5.501   5.952 -0.0289  0.0723  0.0331
  117SOPE  C31312373   5.164   5.361   5.795 -0.3540 -0.3267  0.6199
  117SOPE  H13X12374   5.182   5.252   5.783  0.3693 -0.1571  0.0641
  117SOPE  H13Y12375   5.266   5.403   5.780  0.4313 -0.5284  4.4657
  117SOPE  C31412376   5.063   5.412   5.688 -1.5678  0.6492 -0.2942
  117SOPE  H14X12377   5.031   5.509   5.733  0.8409  1.4941 -0.2469
  117SOPE  H14Y12378   4.976   5.344   5.686 -1.0719  0.0187 -1.1025
  117SOPE  C31512379   5.134   5.415   5.550  0.1276 -0.3505  0.3381
  117SOPE  H15X12380   5.229   5.473   5.560  0.0609 -0.0847 -0.4504
  117SOPE  H15Y12381   5.071   5.462   5.471  0.6390 -0.9103 -0.4199
  117SOPE  C31612382   5.178   5.273   5.501 -0.2330  0.0088 -0.0460
  117SOPE  H16X12383   5.091   5.207   5.522 -0.1497 -0.8185 -2.0734
  117SOPE  H16Y12384   5.257   5.239   5.571 -0.9590 -0.2123  0.6882
  117SOPE  C31712385   5.214   5.257   5.352  0.2873  0.2786 -0.2381
  117SOPE  H17X12386   5.287   5.333   5.319  0.4578  0.4724  0.5503
  117SOPE  H17Y12387   5.122   5.290   5.299  0.9989  0.2754 -1.5101
  117SOPE  C31812388   5.252   5.115   5.314 -0.1607  0.2154 -0.4578
  117SOPE  H18X12389   5.183   5.074   5.236 -1.5935 -1.0112  1.3758
  117SOPE  H18Y12390   5.243   5.048   5.402 -0.8234  1.7378  0.6756
  117SOPE  H18Z12391   5.353   5.099   5.270 -0.0307 -1.4444  0.3838
  118SOPE     N12392   4.154   0.030   7.640 -0.0760 -0.3432 -0.2509
  118SOPE   HN112393   4.164   0.034   7.744  1.2854 -1.9581 -0.2908
  118SOPE   HN212394   4.054   0.045   7.614 -0.7301 -0.3032  2.0479
  118SOPE   HN312395   4.185  -0.063   7.606 -0.0188  0.5227 -2.7789
  118SOPE   C1212396   4.235   0.138   7.563 -0.0488 -0.3240 -0.2619
  118SOPE  H12A12397   4.341   0.117   7.587  0.3071  1.0337 -0.5816
  118SOPE  H12B12398   4.208   0.239   7.600  0.2918  0.5676 -2.2845
  118SOPE   C1112399   4.220   0.127   7.409  0.1173  0.2425  0.2901
  118SOPE  H11A12400   4.286   0.204   7.362 -1.2919  1.0471 -0.4396
  118SOPE  H11B12401   4.115   0.141   7.375  0.1740  1.1991  0.4663
  118SOPE     P12402   4.363  -0.019   7.238 -0.2073  0.1397  0.1681
  118SOPE   O1312403   4.328  -0.150   7.193  0.4968 -0.2346 -0.4490
  118SOPE   O1412404   4.503  -0.015   7.279 -0.3493 -0.1100  0.2501
  118SOPE   O1212405   4.271   0.005   7.365 -0.4273 -0.2112 -0.2773
  118SOPE   O1112406   4.329   0.091   7.138  0.4231  0.1742 -0.2281
  118SOPE    C112407   4.192   0.089   7.087  1.1398  0.1137  0.2748
  118SOPE    HA12408   4.135   0.176   7.126  0.0541 -0.8167  0.8413
  118SOPE    HB12409   4.128   0.008   7.127 -1.1031  1.0481 -1.2062
  118SOPE    C212410   4.187   0.079   6.929  0.2492  0.4124 -0.3029
  118SOPE    HS12411   4.081   0.073   6.896 -0.2453 -0.8847  1.4152
  118SOPE   O2112412   4.257  -0.042   6.883 -0.2402 -0.2277  0.0569
  118SOPE   C2112413   4.207  -0.150   6.918 -0.0496  0.1190  0.2380
  118SOPE   O2212414   4.092  -0.168   6.960  0.2543 -0.1276 -0.5596
  118SOPE   C2212415   4.300  -0.266   6.879  0.6627  0.5895 -0.1824
  118SOPE   H2R12416   4.230  -0.348   6.855  0.4057  1.2341 -1.7151
  118SOPE   H2S12417   4.342  -0.305   6.975  0.4247 -1.7305 -0.9544
  118SOPE    C312418   4.264   0.203   6.874  0.2416 -0.2746 -0.2794
  118SOPE    HX12419   4.363   0.210   6.923 -0.0806  2.4933  0.0945
  118SOPE    HY12420   4.207   0.294   6.900 -1.0639 -1.1262 -0.0594
  118SOPE   O3112421   4.296   0.187   6.735 -0.1339  0.0136  0.3528
  118SOPE   C3112422   4.197   0.228   6.653  0.2040  0.1567  0.5751
  118SOPE   O3212423   4.091   0.265   6.691  0.2296  0.4081  0.1313
  118SOPE   C3212424   4.252   0.244   6.502  0.2512  0.2486 -0.6297
  118SOPE   H2X12425   4.361   0.226   6.507 -0.0813 -2.0204 -0.2945
  118SOPE   H2Y12426   4.230   0.347   6.464  1.6766  0.1264 -1.8917
  118SOPE   C2312427   4.410  -0.254   6.767  0.6556 -0.7297  0.6056
  118SOPE   H3R12428   4.476  -0.340   6.790 -1.8640 -2.8832  0.1637
  118SOPE   H3S12429   4.463  -0.156   6.774 -1.6850  0.5606  1.8744
  118SOPE   C2412430   4.334  -0.259   6.628  0.0017  0.0387 -0.1077
  118SOPE   H4R12431   4.292  -0.361   6.623 -0.9647  0.2812  2.1185
  118SOPE   H4S12432   4.258  -0.177   6.625 -1.0374 -0.8630  0.7287
  118SOPE   C2512433   4.426  -0.241   6.508  0.2853 -0.1587  0.0519
  118SOPE   H5R12434   4.473  -0.140   6.507  2.4439 -1.0830  1.4238
  118SOPE   H5S12435   4.512  -0.310   6.524 -0.0640 -1.2468 -2.2763
  118SOPE   C2612436   4.349  -0.278   6.386  0.0852  0.2567  0.1067
  118SOPE   H6R12437   4.303  -0.376   6.414  1.3314  0.0419  1.5203
  118SOPE   H6S12438   4.264  -0.210   6.362  1.2576  1.9051  0.5023
  118SOPE   C2712439   4.432  -0.288   6.258 -0.5296 -0.5585  0.0239
  118SOPE   H7R12440   4.468  -0.186   6.233  0.6408 -1.1575 -0.8024
  118SOPE   H7S12441   4.518  -0.356   6.271  0.0986 -0.3273 -2.4230
  118SOPE   C2812442   4.359  -0.351   6.133  0.0963  0.0187  0.5036
  118SOPE   H8R12443   4.439  -0.403   6.076  0.3694 -1.3157  2.0306
  118SOPE   H8S12444   4.302  -0.440   6.169  1.0400  0.2431  2.6891
  118SOPE   C2912445   4.275  -0.260   6.042  0.0258  0.6418 -0.2960
  118SOPE   H9112446   4.208  -0.205   6.111 -0.3815  0.1810 -0.3245
  118SOPE  C21012447   4.265  -0.254   5.908  0.8288  0.6607  0.4175
  118SOPE  H10112448   4.182  -0.190   5.874 -1.0439 -1.4835  0.7205
  118SOPE  C21112449   4.345  -0.324   5.801 -0.8499 -0.0116  0.7287
  118SOPE  H11R12450   4.286  -0.400   5.747  0.4586 -1.4682  1.2592
  118SOPE  H11S12451   4.427  -0.395   5.829 -0.0874  0.1810 -0.8741
  118SOPE  C21212452   4.401  -0.227   5.693  0.6983  0.0986 -0.1776
  118SOPE  H12R12453   4.473  -0.276   5.623  0.3752 -1.1992  0.3614
  118SOPE  H12S12454   4.454  -0.147   5.749 -1.6138  1.7664 -0.2278
  118SOPE  C21312455   4.288  -0.162   5.604 -0.6441  0.0978  0.2195
  118SOPE  H13R12456   4.338  -0.082   5.544 -1.7299  1.1247  0.6596
  118SOPE  H13S12457   4.215  -0.128   5.679 -0.1318 -0.6784  1.0876
  118SOPE  C21412458   4.217  -0.246   5.500 -0.4603 -0.5268  0.1038
  118SOPE  H14R12459   4.148  -0.315   5.552 -1.4563  0.8316  0.6376
  118SOPE  H14S12460   4.294  -0.313   5.455 -1.1669 -1.2033 -0.1280
  118SOPE  C21512461   4.153  -0.160   5.390  0.6540  0.5130 -0.5348
  118SOPE  H15R12462   4.221  -0.087   5.342 -1.3815  2.2589 -0.9223
  118SOPE  H15S12463   4.078  -0.097   5.442  1.5176  1.6433 -0.6198
  118SOPE  C21612464   4.075  -0.245   5.286  0.4321 -0.1989  0.1146
  118SOPE  H16R12465   3.990  -0.192   5.238  0.6477  0.7033  0.7066
  118SOPE  H16S12466   4.033  -0.333   5.338  0.0347 -0.8149 -1.2044
  118SOPE  C21712467   4.161  -0.316   5.178 -0.9352 -0.2032  0.2547
  118SOPE  H17R12468   4.115  -0.408   5.138  0.1631 -0.1684 -1.1616
  118SOPE  H17S12469   4.257  -0.357   5.218 -0.9919 -0.4456  0.1390
  118SOPE  C21812470   4.216  -0.231   5.062 -0.4641  0.2508  0.3445
  118SOPE  H18R12471   4.139  -0.159   5.025 -0.3759  0.7772  1.1544
  118SOPE  H18S12472   4.266  -0.291   4.983 -0.6205  0.3922  0.1344
  118SOPE  H18T12473   4.290  -0.159   5.103 -0.2424 -0.6823  1.6154
  118SOPE   C3312474   4.182   0.145   6.393 -0.1350  0.7200  0.1184
  118SOPE   H3X12475   4.075   0.175   6.396 -0.0692  0.9215  0.9998
  118SOPE   H3Y12476   4.186   0.038   6.423  0.2016  0.6481 -0.1952
  118SOPE   C3412477   4.241   0.164   6.253  0.6155  0.1214 -0.3126
  118SOPE   H4X12478   4.334   0.104   6.244  0.8363  0.4391 -0.1792
  118SOPE   H4Y12479   4.265   0.271   6.236  2.7699 -0.0343  1.2335
  118SOPE   C3512480   4.146   0.124   6.139  0.2549 -0.1187  0.7546
  118SOPE   H5X12481   4.055   0.187   6.127 -0.0332 -0.9249 -2.2078
  118SOPE   H5Y12482   4.114   0.017   6.145 -0.5819 -0.1360 -2.3050
  118SOPE   C3612483   4.223   0.126   6.002  0.0664  0.3945 -0.0238
  118SOPE   H6X12484   4.305   0.051   5.996 -0.5081 -0.2104 -0.6647
  118SOPE   H6Y12485   4.264   0.226   5.978 -3.2364  2.0456  0.6393
  118SOPE   C3712486   4.136   0.102   5.883  0.0325 -0.7404  0.0402
  118SOPE   H7X12487   4.049   0.039   5.913  0.1604 -0.6556  0.5990
  118SOPE   H7Y12488   4.199   0.046   5.811 -0.1706 -1.5438  0.4736
  118SOPE   C3812489   4.078   0.229   5.819  0.1880 -0.5338 -0.2455
  118SOPE   H8X12490   4.161   0.303   5.817  0.4425 -0.8142 -1.6391
  118SOPE   H8Y12491   3.992   0.259   5.882 -0.4033  1.4172 -1.8710
  118SOPE   C3912492   4.039   0.209   5.670  0.1005 -0.3803  0.6256
  118SOPE   H9X12493   3.957   0.135   5.676 -0.5497 -0.1239 -2.9928
  118SOPE   H9Y12494   4.128   0.163   5.621 -0.9118 -1.6280 -0.0793
  118SOPE  C31012495   4.005   0.346   5.612 -0.2684  0.5781 -0.9424
  118SOPE  H10X12496   4.102   0.399   5.603  0.4344  0.1697  2.5826
  118SOPE  H10Y12497   3.939   0.406   5.679 -2.8177 -1.6007 -1.3449
  118SOPE  C31112498   3.957   0.362   5.463 -0.3777 -0.0830  0.2326
  118SOPE  H11X12499   3.991   0.454   5.411  1.4359 -2.2613 -2.7514
  118SOPE  H11Y12500   3.847   0.349   5.474 -0.1629 -1.1605  1.3382
  118SOPE  C31212501   3.998   0.236   5.375 -0.3143 -0.3616  0.5110
  118SOPE  H12X12502   3.969   0.142   5.428 -2.0403 -1.6861 -2.4841
  118SOPE  H12Y12503   4.108   0.242   5.365 -0.2443 -2.0293 -0.0988
  118SOPE  C31312504   3.939   0.240   5.229 -0.4525 -0.6156 -0.8832
  118SOPE  H13X12505   3.828   0.237   5.241 -0.3524 -2.4782 -0.0065
  118SOPE  H13Y12506   3.965   0.133   5.212 -0.5622 -0.7284 -0.3544
  118SOPE  C31412507   3.999   0.348   5.139  0.4118 -0.3767 -0.3645
  118SOPE  H14X12508   4.097   0.317   5.096  1.0920 -0.9286  1.4454
  118SOPE  H14Y12509   4.012   0.434   5.209  0.0036 -0.0282 -0.7134
  118SOPE  C31512510   3.904   0.394   5.031  0.2379  0.1106  0.4634
  118SOPE  H15X12511   3.811   0.439   5.072  0.4152  2.1609 -1.2323
  118SOPE  H15Y12512   3.883   0.307   4.965 -1.4569  1.2867 -0.6256
  118SOPE  C31612513   3.950   0.520   4.951  0.1370 -0.1468 -0.1604
  118SOPE  H16X12514   3.863   0.547   4.887 -0.1989  0.3494  0.4962
  118SOPE  H16Y12515   4.035   0.499   4.883 -0.4054  1.5908 -1.4535
  118SOPE  C31712516   3.988   0.647   5.037 -0.4020  0.7533  0.0439
  118SOPE  H17X12517   4.068   0.621   5.111 -0.4311  1.0422  0.1801
  118SOPE  H17Y12518   3.898   0.657   5.101 -0.2654 -0.0641  0.3767
  118SOPE  C31812519   4.025   0.773   4.951  0.2290  0.5972 -0.3119
  118SOPE  H18X12520   4.055   0.860   5.013 -0.8821 -1.2461  3.0700
  118SOPE  H18Y12521   3.933   0.793   4.892 -0.1724 -2.6864 -1.0298
  118SOPE  H18Z12522   4.106   0.750   4.878  1.6326  0.2442  1.2701
  119SOPE     N12523   5.882   0.397   8.480  0.3346  0.1292  0.7949
  119SOPE   HN112524   5.963   0.456   8.509  0.3565 -0.4484  1.9781
  119SOPE   HN212525   5.793   0.449   8.493 -0.2769  0.0335 -2.2775
  119SOPE   HN312526   5.868   0.313   8.539  2.1617 -0.5055  0.4013
  119SOPE   C1212527   5.880   0.355   8.337  0.5052 -0.2363  0.2237
  119SOPE  H12A12528   5.794   0.286   8.329  0.7103 -0.6054  1.0129
  119SOPE  H12B12529   5.962   0.281   8.324 -0.7112 -2.5500  3.9648
  119SOPE   C1112530   5.867   0.477   8.251  0.2392 -0.1321  0.8739
  119SOPE  H11A12531   5.793   0.551   8.288  0.9180  0.8486  0.3088
  119SOPE  H11B12532   5.830   0.446   8.150 -1.0663  2.2150  0.5440
  119SOPE     P12533   6.090   0.544   8.125 -0.1774 -0.7170  0.1892
  119SOPE   O1312534   6.175   0.424   8.133 -0.3554 -0.4384  0.0944
  119SOPE   O1412535   6.161   0.670   8.134  0.2724 -0.1814 -0.4917
  119SOPE   O1212536   5.986   0.546   8.245 -1.0613 -0.4635 -0.5008
  119SOPE   O1112537   5.998   0.538   7.996  0.0615 -0.1062  0.3105
  119SOPE    C112538   5.998   0.417   7.915 -0.3025 -0.1342 -0.2988
  119SOPE    HA12539   5.896   0.407   7.872 -0.8756  0.8591  0.7750
  119SOPE    HB12540   6.026   0.325   7.972 -1.3276 -0.6292 -0.5742
  119SOPE    C212541   6.094   0.439   7.797  1.0028 -0.3996 -0.2095
  119SOPE    HS12542   6.190   0.480   7.835 -0.7958  3.1895  0.8932
  119SOPE   O2112543   6.038   0.547   7.715  0.2224  0.1503  0.0549
  119SOPE   C2112544   6.089   0.666   7.735 -0.1135 -0.0548  1.0076
  119SOPE   O2212545   6.181   0.703   7.809  0.0578  0.3623 -0.0205
  119SOPE   C2212546   5.999   0.753   7.650 -0.2702  1.2150 -0.3836
  119SOPE   H2R12547   6.048   0.852   7.663  0.5315  0.9631 -1.3581
  119SOPE   H2S12548   5.899   0.768   7.695 -0.3960 -0.1540 -0.1737
  119SOPE    C312549   6.090   0.313   7.704 -0.3548 -0.2600  0.5673
  119SOPE    HX12550   5.998   0.257   7.731 -1.4540  0.2198 -1.8890
  119SOPE    HY12551   6.170   0.239   7.729  1.0331  1.0238  0.0619
  119SOPE   O3112552   6.089   0.347   7.557  0.1134  0.7955 -0.1554
  119SOPE   C3112553   6.198   0.402   7.507  0.1347  0.1803 -0.6909
  119SOPE   O3212554   6.306   0.423   7.563  0.1305 -0.4587 -0.1090
  119SOPE   C3212555   6.168   0.438   7.367 -0.0122 -0.0640 -0.6332
  119SOPE   H2X12556   6.127   0.541   7.362 -1.8043 -0.7255 -0.3620
  119SOPE   H2Y12557   6.090   0.372   7.324 -0.9480 -0.8951  2.1131
  119SOPE   C2312558   6.006   0.720   7.491  0.1378 -0.2260 -0.2295
  119SOPE   H3R12559   5.942   0.639   7.451 -1.5439  1.4054 -0.9821
  119SOPE   H3S12560   6.110   0.719   7.452  0.5807  1.1652  0.8139
  119SOPE   C2412561   5.942   0.839   7.423 -0.4514 -0.7461 -0.5163
  119SOPE   H4R12562   5.836   0.850   7.456  0.3788  1.2511  1.7972
  119SOPE   H4S12563   5.980   0.937   7.460 -1.2996 -0.4584 -0.3662
  119SOPE   C2512564   5.934   0.827   7.271  0.3698 -0.6989  0.4544
  119SOPE   H5R12565   6.025   0.882   7.238 -0.3414 -0.1365 -0.6587
  119SOPE   H5S12566   5.943   0.724   7.231 -0.4741 -0.2069 -1.1007
  119SOPE   C2612567   5.810   0.896   7.208 -0.0387  0.3229 -0.1729
  119SOPE   H6R12568   5.721   0.880   7.272 -1.6674 -0.8552 -2.5681
  119SOPE   H6S12569   5.826   1.006   7.203  1.1941  0.1912  0.4948
  119SOPE   C2712570   5.782   0.852   7.061  0.0436 -0.5078  0.5160
  119SOPE   H7R12571   5.780   0.741   7.056  2.3852 -0.5351 -1.0450
  119SOPE   H7S12572   5.688   0.900   7.025  0.4550 -0.2587 -0.2532
  119SOPE   C2812573   5.888   0.896   6.955 -0.2867  0.2194  0.2957
  119SOPE   H8R12574   5.841   0.982   6.903  0.8190  0.0574 -1.0177
  119SOPE   H8S12575   5.968   0.942   7.015 -0.7492 -0.6581  1.6467
  119SOPE   C2912576   5.940   0.790   6.864 -0.6578  0.5273 -0.6747
  119SOPE   H9112577   6.036   0.746   6.892 -0.3164  1.8141  0.2978
  119SOPE  C21012578   5.881   0.758   6.747 -0.0519 -0.3528  0.3437
  119SOPE  H10112579   5.939   0.692   6.680  1.7830  2.2555 -0.7844
  119SOPE  C21112580   5.760   0.823   6.683  0.3548 -0.0307 -0.0661
  119SOPE  H11R12581   5.693   0.853   6.766 -1.1272 -0.9157 -0.9018
  119SOPE  H11S12582   5.709   0.753   6.614  1.5640 -1.7387  0.6917
  119SOPE  C21212583   5.785   0.960   6.615 -0.0883  0.6500  0.3184
  119SOPE  H12R12584   5.844   1.016   6.691  4.7876 -1.4619 -1.5558
  119SOPE  H12S12585   5.684   1.005   6.598 -0.2619  0.9996  2.0954
  119SOPE  C21312586   5.867   0.953   6.489  0.3079  0.6243  0.0515
  119SOPE  H13R12587   5.957   0.892   6.507 -1.5054 -2.0910  0.4532
  119SOPE  H13S12588   5.897   1.055   6.455 -1.0237  0.9619 -0.1889
  119SOPE  C21412589   5.787   0.887   6.374 -0.3643  0.2302 -0.1247
  119SOPE  H14R12590   5.701   0.954   6.349  0.6064  1.6151  0.1384
  119SOPE  H14S12591   5.752   0.786   6.405  2.4004 -0.7151  0.2015
  119SOPE  C21512592   5.874   0.860   6.250  0.5001 -0.0427 -0.3033
  119SOPE  H15R12593   5.827   0.787   6.180 -1.3000  1.1938 -0.4454
  119SOPE  H15S12594   5.971   0.819   6.286  1.5451 -0.4802 -3.2858
  119SOPE  C21612595   5.912   0.981   6.170 -0.1772 -0.2884  0.2856
  119SOPE  H16R12596   5.967   1.062   6.222 -1.7448  2.4266 -1.9673
  119SOPE  H16S12597   5.823   1.038   6.136  0.4933 -0.0198 -1.1041
  119SOPE  C21712598   5.996   0.937   6.043  0.6598 -1.2743 -0.3346
  119SOPE  H17R12599   5.934   0.857   5.997 -0.8739 -0.9749  1.1232
  119SOPE  H17S12600   6.094   0.896   6.075  0.8643  0.1280  0.9428
  119SOPE  C21812601   6.027   1.056   5.947  0.3804 -0.2531 -0.2546
  119SOPE  H18R12602   6.102   1.124   5.994  0.6829 -1.2367  0.7393
  119SOPE  H18S12603   5.941   1.119   5.918 -0.2708 -1.4360 -0.9602
  119SOPE  H18T12604   6.080   1.016   5.857  0.7170  1.1472 -0.7005
  119SOPE   C3312605   6.297   0.433   7.277  0.7600  0.4218  0.2666
  119SOPE   H3X12606   6.332   0.328   7.262  0.8837  0.5194 -0.1176
  119SOPE   H3Y12607   6.388   0.472   7.326  0.3969 -0.0970  1.3993
  119SOPE   C3412608   6.276   0.502   7.140 -0.3658  0.1325 -0.2550
  119SOPE   H4X12609   6.234   0.603   7.160  0.5597  0.4931 -0.0902
  119SOPE   H4Y12610   6.205   0.453   7.070 -1.5095  2.9760 -1.2082
  119SOPE   C3512611   6.404   0.515   7.062  0.0197 -0.0161 -0.3886
  119SOPE   H5X12612   6.454   0.417   7.051  1.1023  0.5394 -0.5297
  119SOPE   H5Y12613   6.468   0.581   7.124  1.3010  1.3644 -3.0182
  119SOPE   C3612614   6.367   0.576   6.926 -0.2696  0.8061 -0.0560
  119SOPE   H6X12615   6.441   0.658   6.918 -1.4350  2.2482  2.6107
  119SOPE   H6Y12616   6.273   0.633   6.942  0.5145  1.4291  3.0523
  119SOPE   C3712617   6.367   0.467   6.815 -0.0873 -0.0084 -0.0720
  119SOPE   H7X12618   6.308   0.377   6.842 -0.2503 -0.1862 -0.9678
  119SOPE   H7Y12619   6.475   0.441   6.818 -0.1596 -0.2922  0.1250
  119SOPE   C3812620   6.338   0.506   6.668 -0.0140  0.7800  0.1945
  119SOPE   H8X12621   6.392   0.435   6.602 -0.9849  2.3563 -2.4413
  119SOPE   H8Y12622   6.381   0.607   6.650  1.5565  0.4241  1.6112
  119SOPE   C3912623   6.186   0.509   6.643  0.4729  0.6848 -0.0736
  119SOPE   H9X12624   6.148   0.564   6.731 -0.6698  0.0691 -0.1605
  119SOPE   H9Y12625   6.142   0.407   6.651  1.4633  0.1519 -1.0075
  119SOPE  C31012626   6.155   0.571   6.504 -0.3633  0.1306 -0.2276
  119SOPE  H10X12627   6.190   0.677   6.500 -3.0606  1.0589 -1.5515
  119SOPE  H10Y12628   6.045   0.579   6.497 -0.4712  0.3430  1.3355
  119SOPE  C31112629   6.197   0.496   6.377 -0.6127  0.3551 -0.4261
  119SOPE  H11X12630   6.161   0.391   6.365  1.0932 -0.4131  0.7014
  119SOPE  H11Y12631   6.308   0.487   6.379 -0.6373 -0.4549 -1.6675
  119SOPE  C31212632   6.164   0.587   6.257  0.0628  0.3073  0.4000
  119SOPE  H12X12633   6.216   0.685   6.259 -0.3237  0.5220 -0.0870
  119SOPE  H12Y12634   6.059   0.621   6.262  0.6240  2.1082  0.9072
  119SOPE  C31312635   6.187   0.519   6.115 -0.5555  0.3910  0.3610
  119SOPE  H13X12636   6.127   0.426   6.113 -2.6204  1.6472 -2.4568
  119SOPE  H13Y12637   6.295   0.493   6.106 -0.9616 -2.1489  1.9263
  119SOPE  C31412638   6.132   0.590   5.996  0.4753 -0.1043  0.3066
  119SOPE  H14X12639   6.030   0.631   6.014  1.1245  0.2241  3.9980
  119SOPE  H14Y12640   6.109   0.514   5.918 -0.7350 -0.1563  0.6804
  119SOPE  C31512641   6.240   0.683   5.936 -0.3875 -0.2129  0.2092
  119SOPE  H15X12642   6.339   0.632   5.937 -0.4426 -0.3214  1.2999
  119SOPE  H15Y12643   6.251   0.754   6.020 -0.9901 -1.6555  1.5656
  119SOPE  C31612644   6.213   0.745   5.807  0.0001 -0.5278  0.4753
  119SOPE  H16X12645   6.111   0.789   5.793  0.1437 -0.4633 -0.4604
  119SOPE  H16Y12646   6.220   0.664   5.731 -0.5887 -1.1439  1.0676
  119SOPE  C31712647   6.308   0.857   5.755  0.1842 -0.0473  0.2932
  119SOPE  H17X12648   6.412   0.823   5.776 -0.3543 -2.5947 -0.7638
  119SOPE  H17Y12649   6.284   0.957   5.798 -0.0331  0.6793 -1.4631
  119SOPE  C31812650   6.316   0.857   5.603 -0.4443  0.2213  1.1015
  119SOPE  H18X12651   6.376   0.943   5.566  0.8509 -0.6279  1.1693
  119SOPE  H18Y12652   6.215   0.860   5.556 -0.3553 -2.4713  0.5872
  119SOPE  H18Z12653   6.371   0.767   5.571  0.0503  0.7205  0.5390
  120SOPE     N12654   0.068   2.295   8.199 -0.1890  0.0159  0.3745
  120SOPE   HN112655   0.172   2.301   8.196 -0.1873 -0.3070 -0.8385
  120SOPE   HN212656   0.043   2.338   8.290  1.5646  0.0150  0.8988
  120SOPE   HN312657   0.036   2.197   8.212  1.5551 -0.3703  2.1612
  120SOPE   C1212658   0.008   2.356   8.079  0.7844  0.1107 -0.2798
  120SOPE  H12A12659  -0.045   2.448   8.109  1.5851  0.3706  0.3688
  120SOPE  H12B12660  -0.055   2.281   8.026 -0.7953 -0.4900  2.3128
  120SOPE   C1112661   0.121   2.384   7.969 -0.0910  0.0012 -0.0413
  120SOPE  H11A12662   0.190   2.461   8.010 -0.7449 -0.4266  1.9865
  120SOPE  H11B12663   0.067   2.425   7.881 -0.6234  0.9243  0.6939
  120SOPE     P12664   0.264   2.259   7.790  0.2625 -0.4578  0.1664
  120SOPE   O1312665   0.375   2.164   7.809 -0.1131  0.1555 -0.0825
  120SOPE   O1412666   0.292   2.399   7.751 -0.6604 -0.1709 -0.1071
  120SOPE   O1212667   0.185   2.266   7.930 -0.4629 -0.0784  0.2239
  120SOPE   O1112668   0.164   2.192   7.688  0.4151  0.3537  0.4133
  120SOPE    C112669   0.023   2.193   7.684  0.9212 -0.6315 -0.0769
  120SOPE    HA12670  -0.032   2.184   7.780 -0.2598  0.0227 -0.6710
  120SOPE    HB12671   0.002   2.105   7.618  1.6717 -1.2163  0.4471
  120SOPE    C212672  -0.020   2.315   7.604 -0.6267  0.1521 -0.1158
  120SOPE    HS12673  -0.005   2.397   7.678 -0.7270  0.8474 -0.8441
  120SOPE   O2112674  -0.156   2.294   7.572 -0.1428  0.0936 -0.2005
  120SOPE   C2112675  -0.238   2.397   7.576 -0.3718  0.4714  0.0964
  120SOPE   O2212676  -0.212   2.509   7.612 -0.3088  0.1454  0.1178
  120SOPE   C2212677  -0.375   2.362   7.522 -0.0928 -0.0965 -0.1025
  120SOPE   H2R12678  -0.456   2.419   7.571 -1.5020 -1.0666 -1.2139
  120SOPE   H2S12679  -0.391   2.255   7.549  3.9721 -0.9160 -0.2450
  120SOPE    C312680   0.057   2.347   7.474  0.1019  0.0584 -0.4233
  120SOPE    HX12681   0.068   2.247   7.428 -3.3959 -1.1266  0.8954
  120SOPE    HY12682   0.155   2.393   7.497 -0.8331  1.9349  0.0770
  120SOPE   O3112683  -0.020   2.436   7.391 -0.1352  0.3514 -0.2510
  120SOPE   C3112684   0.040   2.457   7.278  0.4176 -0.5057  0.0708
  120SOPE   O3212685   0.152   2.416   7.251  0.1926  0.0682 -0.4991
  120SOPE   C3212686  -0.040   2.534   7.183  0.0300 -0.0334 -0.4018
  120SOPE   H2X12687  -0.043   2.635   7.231 -0.3857  0.2164 -0.9522
  120SOPE   H2Y12688  -0.142   2.490   7.183  0.0754 -0.1379 -0.6170
  120SOPE   C2312689  -0.376   2.388   7.370  0.7567  0.5800  0.2513
  120SOPE   H3R12690  -0.292   2.334   7.321 -0.3645 -0.1221 -0.9320
  120SOPE   H3S12691  -0.375   2.495   7.341  3.3697  0.1948 -1.4827
  120SOPE   C2412692  -0.502   2.327   7.306 -0.3471 -0.3484  1.3923
  120SOPE   H4R12693  -0.513   2.222   7.341 -0.5858 -0.5044  0.8492
  120SOPE   H4S12694  -0.594   2.384   7.332 -0.7560  0.6056 -1.7230
  120SOPE   C2512695  -0.497   2.338   7.147  0.1670 -0.1382 -0.1260
  120SOPE   H5R12696  -0.416   2.274   7.104  2.5307 -0.2275  3.9464
  120SOPE   H5S12697  -0.601   2.309   7.121 -0.2565 -1.6027  2.8327
  120SOPE   C2612698  -0.463   2.484   7.098  1.1622  0.5064 -0.1356
  120SOPE   H6R12699  -0.516   2.560   7.158 -2.7720 -1.9482 -0.1668
  120SOPE   H6S12700  -0.357   2.516   7.094  1.5313 -0.3319  1.6324
  120SOPE   C2712701  -0.521   2.500   6.953  0.4307 -0.1973 -0.5367
  120SOPE   H7R12702  -0.630   2.484   6.965  0.5807 -0.8601 -0.0463
  120SOPE   H7S12703  -0.510   2.610   6.939  1.8659  0.1917  2.6757
  120SOPE   C2812704  -0.485   2.412   6.833  0.1190 -0.3959  0.0259
  120SOPE   H8R12705  -0.464   2.304   6.851 -0.4462 -0.4145  0.6015
  120SOPE   H8S12706  -0.571   2.412   6.762  1.0033  0.4468 -1.0807
  120SOPE   C2912707  -0.363   2.469   6.769  0.1275  0.9773  0.0139
  120SOPE   H9112708  -0.282   2.451   6.840  1.4228  2.3941 -1.0346
  120SOPE  C21012709  -0.344   2.515   6.645 -0.3849 -0.4337 -0.3739
  120SOPE  H10112710  -0.245   2.547   6.611 -0.6341  0.6493 -0.1085
  120SOPE  C21112711  -0.452   2.528   6.534 -0.5675 -0.4141 -0.5044
  120SOPE  H11R12712  -0.505   2.625   6.541  0.1796  0.0727 -1.3709
  120SOPE  H11S12713  -0.522   2.441   6.535 -0.1259 -0.8092 -1.5431
  120SOPE  C21212714  -0.384   2.504   6.391  0.2991  0.6111  0.4466
  120SOPE  H12R12715  -0.339   2.403   6.379 -0.0190  0.3304  1.5718
  120SOPE  H12S12716  -0.297   2.573   6.394 -0.6251  1.7874  0.6417
  120SOPE  C21312717  -0.475   2.537   6.267 -0.0090 -0.1887 -0.2907
  120SOPE  H13R12718  -0.517   2.639   6.284  2.3390  0.9366 -0.7788
  120SOPE  H13S12719  -0.552   2.457   6.261  1.1467 -1.3514 -0.0374
  120SOPE  C21412720  -0.392   2.552   6.140  0.3633  0.0832 -0.1303
  120SOPE  H14R12721  -0.340   2.456   6.121  0.4716  0.0374  0.3768
  120SOPE  H14S12722  -0.314   2.632   6.148  0.4365 -0.1514  3.1174
  120SOPE  C21512723  -0.492   2.572   6.031 -0.6500  0.8137 -0.3720
  120SOPE  H15R12724  -0.524   2.677   6.044 -2.3086  0.1834  0.9451
  120SOPE  H15S12725  -0.582   2.508   6.044  0.8942 -1.3071  0.4341
  120SOPE  C21612726  -0.435   2.558   5.886  0.4089 -0.4482  0.0913
  120SOPE  H16R12727  -0.338   2.607   5.866  0.0489  0.3888  0.3790
  120SOPE  H16S12728  -0.506   2.599   5.811  1.6562  1.8778  0.1105
  120SOPE  C21712729  -0.404   2.410   5.858 -0.0073  1.1394  0.5083
  120SOPE  H17R12730  -0.492   2.345   5.878  0.6974  1.0304  3.8679
  120SOPE  H17S12731  -0.329   2.375   5.932  2.0281 -1.1924 -2.4216
  120SOPE  C21812732  -0.333   2.367   5.725  0.5375 -0.1217 -0.2787
  120SOPE  H18R12733  -0.295   2.263   5.729  1.4178  0.0931 -1.9783
  120SOPE  H18S12734  -0.244   2.432   5.707  0.1967  1.9868  4.2044
  120SOPE  H18T12735  -0.413   2.378   5.650  0.6729  0.5482 -0.3371
  120SOPE   C3312736   0.032   2.541   7.042  0.8277  0.1702 -0.1375
  120SOPE   H3X12737   0.030   2.439   6.998 -1.4367  0.8416 -1.8357
  120SOPE   H3Y12738   0.130   2.591   7.058  0.4787  0.7830  0.1399
  120SOPE   C3412739  -0.041   2.644   6.940  0.4833  0.4664 -0.0387
  120SOPE   H4X12740  -0.012   2.750   6.957  1.2923  0.2116  0.2329
  120SOPE   H4Y12741  -0.148   2.630   6.964  0.9469 -0.6307  1.5402
  120SOPE   C3512742  -0.012   2.606   6.792  0.2571 -0.1482 -0.2018
  120SOPE   H5X12743  -0.074   2.674   6.729  0.3687  1.6346  1.5084
  120SOPE   H5Y12744  -0.029   2.501   6.761 -0.3932  0.3057 -1.4157
  120SOPE   C3612745   0.134   2.651   6.762  0.0094  0.1577  0.3365
  120SOPE   H6X12746   0.202   2.564   6.776  0.1665  0.4726  1.6670
  120SOPE   H6Y12747   0.175   2.724   6.834  1.1400 -1.8472  1.8185
  120SOPE   C3712748   0.161   2.696   6.611 -0.3681  0.0647  0.4019
  120SOPE   H7X12749   0.268   2.715   6.590 -0.1884 -1.7038 -0.4272
  120SOPE   H7Y12750   0.113   2.794   6.592  0.3920  0.1085 -1.4167
  120SOPE   C3812751   0.123   2.584   6.512 -0.1381  0.2527 -0.6164
  120SOPE   H8X12752   0.018   2.549   6.526  0.0169  0.2235  0.6480
  120SOPE   H8Y12753   0.171   2.486   6.530 -0.8498 -0.2701 -1.4888
  120SOPE   C3912754   0.140   2.629   6.367 -0.0074 -0.0079  0.1018
  120SOPE   H9X12755   0.109   2.537   6.313  0.9183 -0.3273  0.1131
  120SOPE   H9Y12756   0.247   2.656   6.354  0.3650 -1.4341  0.0468
  120SOPE  C31012757   0.037   2.730   6.329  0.6345 -0.2458 -0.2157
  120SOPE  H10X12758   0.053   2.823   6.387 -1.5940  1.5673 -2.2946
  120SOPE  H10Y12759  -0.063   2.694   6.361  1.4458 -1.4075  1.1751
  120SOPE  C31112760   0.036   2.782   6.184  0.2912  0.3723 -0.9296
  120SOPE  H11X12761   0.118   2.853   6.162 -2.2798  3.4344 -1.2822
  120SOPE  H11Y12762  -0.058   2.838   6.169  0.0344  0.0554 -0.5240
  120SOPE  C31212763   0.046   2.662   6.095  0.1631 -0.0185 -0.6856
  120SOPE  H12X12764  -0.031   2.583   6.108  1.8315 -1.4104  1.4913
  120SOPE  H12Y12765   0.141   2.605   6.108 -0.3982 -0.5826  1.3575
  120SOPE  C31312766   0.021   2.709   5.949  0.0024  0.2877 -0.3878
  120SOPE  H13X12767   0.102   2.785   5.937 -0.3833  1.1166  1.8053
  120SOPE  H13Y12768  -0.067   2.776   5.941  0.4126  0.9616  0.4590
  120SOPE  C31412769   0.024   2.595   5.843 -0.1146  0.0577 -0.1324
  120SOPE  H14X12770  -0.080   2.558   5.833 -0.1411  0.4963 -1.8783
  120SOPE  H14Y12771   0.073   2.504   5.884 -0.9509  0.4517  1.8117
  120SOPE  C31512772   0.092   2.636   5.722 -0.5262 -0.6689  0.3778
  120SOPE  H15X12773   0.095   2.555   5.646 -1.5551 -1.6926  1.3798
  120SOPE  H15Y12774   0.196   2.669   5.743  0.1934  0.0199 -3.5285
  120SOPE  C31612775   0.022   2.757   5.655 -0.8140 -0.2332  0.2080
  120SOPE  H16X12776   0.068   2.856   5.677 -2.5110  1.1307 -1.9071
  120SOPE  H16Y12777  -0.085   2.758   5.686 -0.5862 -2.0831  1.1857
  120SOPE  C31712778   0.025   2.758   5.495  0.1253 -0.5874 -0.1653
  120SOPE  H17X12779  -0.012   2.858   5.463 -0.8058 -0.3122  1.6219
  120SOPE  H17Y12780  -0.041   2.674   5.466 -2.1998  1.1638 -0.2700
  120SOPE  C31812781   0.172   2.733   5.452  0.2856 -0.0637  0.4501
  120SOPE  H18X12782   0.212   2.636   5.488 -0.0012  0.2179  1.5685
  120SOPE  H18Y12783   0.233   2.814   5.498  1.4072 -0.2689 -0.6178
  120SOPE  H18Z12784   0.192   2.738   5.343  0.0363 -0.1583  0.3995
  121SOPE     N12785   6.617   0.497   8.165 -0.2460 -0.2359  0.2143
  121SOPE   HN112786   6.522   0.521   8.199  0.7777  0.8535  2.6023
  121SOPE   HN212787   6.621   0.466   8.066  0.8944 -2.9075  1.0172
  121SOPE   HN312788   6.651   0.417   8.222  1.0886 -0.0592 -0.2970
  121SOPE   C1212789   6.716   0.609   8.188 -0.8069  0.1721  0.2578
  121SOPE  H12A12790   6.772   0.629   8.094 -1.4092  1.0494  0.0742
  121SOPE  H12B12791   6.797   0.568   8.252 -0.0480 -2.9562 -2.4153
  121SOPE   C1112792   6.644   0.731   8.251  0.5972 -0.0083  0.2627
  121SOPE  H11A12793   6.711   0.815   8.277 -1.4387  1.3258  1.4738
  121SOPE  H11B12794   6.602   0.695   8.348  2.6903  2.3102  2.1502
  121SOPE     P12795   6.541   0.861   8.054 -0.5934  0.2956  0.1774
  121SOPE   O1312796   6.630   0.976   8.069 -0.1011 -0.1748 -0.3363
  121SOPE   O1412797   6.402   0.886   8.014  0.2031 -0.2425 -0.1585
  121SOPE   O1212798   6.532   0.775   8.177  0.4282 -0.3460 -0.2694
  121SOPE   O1112799   6.605   0.760   7.955  0.5139  0.0535  0.0405
  121SOPE    C112800   6.726   0.777   7.876  0.0087 -0.9614 -0.9704
  121SOPE    HA12801   6.747   0.674   7.840 -1.1071 -2.3639  2.0958
  121SOPE    HB12802   6.808   0.820   7.937 -1.0003 -0.2717 -0.0551
  121SOPE    C212803   6.710   0.872   7.755  0.2452  0.0781  0.5683
  121SOPE    HS12804   6.710   0.974   7.799 -0.4180  0.9357 -1.3138
  121SOPE   O2112805   6.588   0.844   7.687 -0.2143  0.0785  0.4859
  121SOPE   C2112806   6.530   0.943   7.627  0.1922 -0.9515 -0.4281
  121SOPE   O2212807   6.561   1.063   7.634 -0.1400  0.5803 -0.6744
  121SOPE   C2212808   6.400   0.883   7.571  0.0542  0.1002 -0.5487
  121SOPE   H2R12809   6.337   0.963   7.527  0.3468  0.5180 -0.2166
  121SOPE   H2S12810   6.346   0.845   7.661 -1.1204  0.0876 -1.2438
  121SOPE    C312811   6.829   0.868   7.656 -0.0036 -0.3833 -0.5979
  121SOPE    HX12812   6.836   0.759   7.634 -0.6940 -1.2073  2.6527
  121SOPE    HY12813   6.925   0.899   7.704 -0.5094  1.3352 -0.6161
  121SOPE   O3112814   6.811   0.954   7.539  0.4368  0.1119 -0.3896
  121SOPE   C3112815   6.866   1.075   7.537 -0.8265  0.0949  0.2994
  121SOPE   O3212816   6.941   1.117   7.618 -0.9020  0.5216 -0.4278
  121SOPE   C3212817   6.824   1.126   7.402  0.0671 -0.5126  0.3026
  121SOPE   H2X12818   6.778   1.226   7.416  3.9450  1.2593  1.9685
  121SOPE   H2Y12819   6.747   1.060   7.357  1.4827 -2.4265  0.5385
  121SOPE   C2312820   6.436   0.764   7.484  0.0691  0.1067  0.1945
  121SOPE   H3R12821   6.347   0.697   7.478 -1.3160  1.9114 -0.5774
  121SOPE   H3S12822   6.520   0.703   7.523  2.7683  3.5097  0.1611
  121SOPE   C2412823   6.476   0.821   7.344  0.8675 -0.1712  0.1388
  121SOPE   H4R12824   6.562   0.888   7.366  0.3367  1.0307 -1.2763
  121SOPE   H4S12825   6.525   0.740   7.286 -0.7106 -1.6237  0.7741
  121SOPE   C2512826   6.360   0.880   7.260 -0.0091  0.3182  0.0957
  121SOPE   H5R12827   6.281   0.802   7.258 -0.2600  0.5547  0.5071
  121SOPE   H5S12828   6.301   0.962   7.308 -0.3693  1.7007 -2.5057
  121SOPE   C2612829   6.395   0.932   7.122  0.1746 -0.4247 -0.5738
  121SOPE   H6R12830   6.460   1.021   7.133 -0.9618  0.3640 -0.0110
  121SOPE   H6S12831   6.461   0.864   7.064  0.2963  0.7552 -1.8466
  121SOPE   C2712832   6.273   0.973   7.050 -0.2029 -0.1158  0.2027
  121SOPE   H7R12833   6.211   0.881   7.042 -0.5926 -0.0773  2.3895
  121SOPE   H7S12834   6.221   1.060   7.095  0.1044 -0.3292  0.9840
  121SOPE   C2812835   6.327   1.018   6.907 -0.5363  0.5020 -0.2700
  121SOPE   H8R12836   6.374   1.119   6.910 -1.8796  1.5070 -4.5941
  121SOPE   H8S12837   6.404   0.950   6.866  0.3129 -0.3380  2.5459
  121SOPE   C2912838   6.204   1.023   6.814  0.0400 -0.3492  0.3762
  121SOPE   H9112839   6.113   1.055   6.866 -0.2612 -0.2417 -0.2047
  121SOPE  C21012840   6.202   0.993   6.682 -0.0618 -0.3270  0.0324
  121SOPE  H10112841   6.111   1.004   6.622  0.0651 -1.0031 -0.2953
  121SOPE  C21112842   6.321   0.933   6.610  0.5271 -0.4186 -0.0644
  121SOPE  H11R12843   6.303   0.824   6.601  0.8520 -0.3336 -2.2347
  121SOPE  H11S12844   6.414   0.957   6.665  0.2952  1.6518 -0.4937
  121SOPE  C21212845   6.336   0.994   6.466 -0.0454 -0.2387 -0.1049
  121SOPE  H12R12846   6.341   1.103   6.485 -0.5524 -0.0983 -0.7407
  121SOPE  H12S12847   6.240   0.980   6.411  0.4692 -4.1496 -0.2972
  121SOPE  C21312848   6.448   0.941   6.377  0.4348 -0.2781 -1.1009
  121SOPE  H13R12849   6.431   0.831   6.368 -0.9935 -0.0124 -2.0219
  121SOPE  H13S12850   6.539   0.962   6.438  0.3197 -0.0520 -1.0074
  121SOPE  C21412851   6.450   1.021   6.241 -0.1596 -0.1080  0.1791
  121SOPE  H14R12852   6.469   1.129   6.258  0.9159  0.0444 -1.6211
  121SOPE  H14S12853   6.354   0.998   6.191 -0.9145  0.0436  1.5340
  121SOPE  C21512854   6.558   0.979   6.143  0.0278  0.2835 -0.2333
  121SOPE  H15R12855   6.548   0.875   6.105 -0.1917  1.0744 -2.4833
  121SOPE  H15S12856   6.656   0.982   6.196 -0.0847  1.1884 -0.0749
  121SOPE  C21612857   6.563   1.076   6.020 -0.7566  0.1121 -0.3658
  121SOPE  H16R12858   6.597   1.176   6.055  0.3516 -0.1556 -0.6465
  121SOPE  H16S12859   6.463   1.090   5.975  0.0683  2.5882 -1.5784
  121SOPE  C21712860   6.663   1.032   5.919 -0.8538  0.1991  0.8652
  121SOPE  H17R12861   6.623   0.937   5.878 -1.0358  0.3160  0.7662
  121SOPE  H17S12862   6.764   1.003   5.953 -0.9005  0.7191  1.4592
  121SOPE  C21812863   6.675   1.134   5.803  0.4787 -0.1843  0.3343
  121SOPE  H18R12864   6.577   1.149   5.752 -0.4300  0.1667  2.0841
  121SOPE  H18S12865   6.756   1.112   5.731  0.5678  0.5428  0.2045
  121SOPE  H18T12866   6.700   1.233   5.847  1.9787  0.0082 -0.8894
  121SOPE   C3312867   6.946   1.144   7.312  0.5836  0.0241  1.3281
  121SOPE   H3X12868   6.980   1.043   7.280 -1.3707 -1.3265  3.2405
  121SOPE   H3Y12869   7.020   1.199   7.373  0.9675  0.4017  0.5449
  121SOPE   C3412870   6.923   1.242   7.194  0.2011 -0.4447 -0.1380
  121SOPE   H4X12871   6.891   1.336   7.244 -1.5950 -0.1491 -1.7137
  121SOPE   H4Y12872   6.834   1.223   7.130  0.1332  1.4121 -0.6535
  121SOPE   C3512873   7.056   1.279   7.116 -0.1883  0.0259 -0.2132
  121SOPE   H5X12874   7.103   1.184   7.084 -0.3069  0.5522 -2.1076
  121SOPE   H5Y12875   7.126   1.344   7.172  1.1759 -1.4595 -0.1266
  121SOPE   C3612876   7.032   1.348   6.979 -0.2202 -0.0313  0.3338
  121SOPE   H6X12877   6.985   1.446   7.000 -1.9743 -0.7708  0.0037
  121SOPE   H6Y12878   6.950   1.288   6.936  1.1069 -2.1495  0.5846
  121SOPE   C3712879   7.162   1.344   6.895 -0.4634 -0.0227  0.7657
  121SOPE   H7X12880   7.195   1.239   6.875  2.7533  0.8972  0.6421
  121SOPE   H7Y12881   7.243   1.386   6.958 -0.3946  0.4453  0.3675
  121SOPE   C3812882   7.147   1.423   6.758  0.0526  0.1258  0.5219
  121SOPE   H8X12883   7.091   1.515   6.787 -0.6857 -0.9160  2.5902
  121SOPE   H8Y12884   7.079   1.359   6.697  0.7489 -1.1343  1.0366
  121SOPE   C3912885   7.275   1.438   6.667 -0.0167  0.4117  0.7560
  121SOPE   H9X12886   7.314   1.337   6.640 -0.0809  0.6474 -0.2306
  121SOPE   H9Y12887   7.360   1.478   6.726  0.5257 -2.9483  2.5433
  121SOPE  C31012888   7.250   1.509   6.534 -0.2748  0.5193  0.1231
  121SOPE  H10X12889   7.208   1.608   6.564  1.4252  1.7075 -1.1833
  121SOPE  H10Y12890   7.169   1.471   6.468 -0.1461  0.3844  0.0434
  121SOPE  C31112891   7.382   1.527   6.462  1.0324 -0.1783 -0.0695
  121SOPE  H11X12892   7.426   1.426   6.448  2.9264  0.3931  1.3386
  121SOPE  H11Y12893   7.457   1.579   6.526  0.7288  0.9274 -0.5774
  121SOPE  C31212894   7.371   1.600   6.329 -0.0574 -0.0261  0.2114
  121SOPE  H12X12895   7.473   1.630   6.298 -0.0740 -1.2748 -1.1752
  121SOPE  H12Y12896   7.308   1.690   6.347 -0.9516 -0.8693  1.4513
  121SOPE  C31312897   7.297   1.524   6.223  1.0232  0.4965 -0.0999
  121SOPE  H13X12898   7.191   1.512   6.255  1.2917 -0.9251  0.2994
  121SOPE  H13Y12899   7.342   1.423   6.211 -0.5462 -0.3353  0.7167
  121SOPE  C31412900   7.294   1.603   6.089  0.7598  0.2300 -0.1012
  121SOPE  H14X12901   7.290   1.523   6.012  1.3258 -0.6036  0.7135
  121SOPE  H14Y12902   7.394   1.648   6.071  0.3748  1.5124  0.8421
  121SOPE  C31512903   7.175   1.692   6.076  0.1159 -0.0117 -0.3921
  121SOPE  H15X12904   7.176   1.770   6.155 -0.1630  0.8291 -1.1944
  121SOPE  H15Y12905   7.077   1.640   6.078 -2.0934  3.7154 -0.4973
  121SOPE  C31612906   7.179   1.767   5.937  0.5888  0.7980  0.3862
  121SOPE  H16X12907   7.184   1.694   5.853  0.4376  0.2794  0.8275
  121SOPE  H16Y12908   7.276   1.820   5.925  0.1035  1.3094 -1.7127
  121SOPE  C31712909   7.063   1.855   5.917 -0.4099  0.5967  0.8521
  121SOPE  H17X12910   7.035   1.925   5.998 -2.0505  0.4594  0.4267
  121SOPE  H17Y12911   6.978   1.786   5.898 -0.3161  0.7851 -0.3010
  121SOPE  C31812912   7.081   1.937   5.785  1.1265 -0.2179 -0.2534
  121SOPE  H18X12913   7.125   2.037   5.808  0.6191  0.0719 -0.5215
  121SOPE  H18Y12914   6.976   1.953   5.752  0.1095 -0.6227  2.5848
  121SOPE  H18Z12915   7.146   1.908   5.699  1.4688 -0.7642  0.1871
  122SOPE     N12916   6.523   1.217   8.016 -0.8152 -0.3405  0.0028
  122SOPE   HN112917   6.581   1.266   7.946 -2.5910  2.1947  0.1759
  122SOPE   HN212918   6.511   1.270   8.105 -1.4280 -1.6828  0.7667
  122SOPE   HN312919   6.584   1.133   8.030  0.5340 -0.0254 -3.1968
  122SOPE   C1212920   6.389   1.188   7.962 -0.4011 -0.1771  0.3383
  122SOPE  H12A12921   6.339   1.124   8.038  0.5068 -1.7588 -0.3548
  122SOPE  H12B12922   6.410   1.136   7.866 -1.3879 -2.3160  1.2211
  122SOPE   C1112923   6.303   1.308   7.936 -0.1138  0.3526  0.3743
  122SOPE  H11A12924   6.348   1.373   7.858 -0.7478 -0.7478 -0.9415
  122SOPE  H11B12925   6.293   1.360   8.034  0.0240  0.3117  0.4110
  122SOPE     P12926   6.043   1.345   7.906  0.0589  0.4818  0.5146
  122SOPE   O1312927   5.994   1.339   8.043  0.2571 -0.4501 -0.2839
  122SOPE   O1412928   5.940   1.302   7.803 -0.2917 -0.1089 -0.2336
  122SOPE   O1212929   6.172   1.261   7.888 -0.6524  0.2105 -0.0221
  122SOPE   O1112930   6.090   1.488   7.875 -0.4821  0.1598  0.1602
  122SOPE    C112931   6.148   1.548   7.759 -0.6518 -0.6643 -0.2558
  122SOPE    HA12932   6.195   1.469   7.697 -0.0762  1.2994 -2.4879
  122SOPE    HB12933   6.233   1.617   7.778 -0.0118 -0.9311 -1.9895
  122SOPE    C212934   6.041   1.614   7.676 -0.2663 -0.0117 -0.5754
  122SOPE    HS12935   5.960   1.542   7.652 -1.1379  0.5400  0.5987
  122SOPE   O2112936   6.106   1.662   7.558  0.0095  0.1251 -0.3042
  122SOPE   C2112937   6.043   1.653   7.441  0.3689  0.1800 -0.7564
  122SOPE   O2212938   5.930   1.613   7.432  0.2275  0.2256  0.0249
  122SOPE   C2212939   6.133   1.700   7.333 -0.1472  0.2866  0.5590
  122SOPE   H2R12940   6.220   1.631   7.327  0.1524  0.7519 -1.0573
  122SOPE   H2S12941   6.168   1.801   7.363 -0.4082 -0.2445  2.7914
  122SOPE    C312942   5.968   1.732   7.752 -0.5591 -0.4837 -0.3761
  122SOPE    HX12943   6.049   1.798   7.790 -0.9594 -0.2798  0.1305
  122SOPE    HY12944   5.914   1.700   7.844 -0.8888  0.1431 -0.3468
  122SOPE   O3112945   5.885   1.820   7.671  0.3495 -0.4512 -0.2436
  122SOPE   C3112946   5.766   1.761   7.638  0.8647  0.0360  0.1719
  122SOPE   O3212947   5.718   1.668   7.698  0.2010  0.1479 -0.0185
  122SOPE   C3212948   5.703   1.844   7.526  0.5206 -0.1705 -0.9168
  122SOPE   H2X12949   5.766   1.849   7.435  0.0075  0.0179 -1.2647
  122SOPE   H2Y12950   5.684   1.940   7.579 -1.5113 -0.8038 -0.3966
  122SOPE   C2312951   6.062   1.708   7.194 -0.0521 -0.6451 -0.1410
  122SOPE   H3R12952   5.965   1.761   7.203  0.6097  0.7910 -1.1540
  122SOPE   H3S12953   6.032   1.609   7.153 -0.9860  0.6605 -2.8460
  122SOPE   C2412954   6.151   1.786   7.094  0.0197  0.1330 -0.7385
  122SOPE   H4R12955   6.180   1.889   7.122  0.5677  0.6305 -2.9656
  122SOPE   H4S12956   6.248   1.734   7.083 -0.2262 -0.4541 -0.1762
  122SOPE   C2512957   6.091   1.800   6.955  0.1457  0.5998  0.1024
  122SOPE   H5R12958   6.066   1.698   6.920 -0.3149  0.9417 -0.5864
  122SOPE   H5S12959   6.004   1.869   6.960  1.1410  1.8912  0.0595
  122SOPE   C2612960   6.190   1.845   6.846 -0.0807  0.2564  0.5150
  122SOPE   H6R12961   6.213   1.952   6.864  1.4647  0.0429 -0.0346
  122SOPE   H6S12962   6.290   1.797   6.849  0.7693  1.9258  3.3690
  122SOPE   C2712963   6.124   1.828   6.712  0.2231 -0.0363  0.0903
  122SOPE   H7R12964   6.022   1.786   6.728  0.8804 -1.7474 -0.0019
  122SOPE   H7S12965   6.092   1.928   6.676 -0.0149  0.4029  1.4435
  122SOPE   C2812966   6.198   1.755   6.602 -0.1034 -0.2423 -0.5650
  122SOPE   H8R12967   6.285   1.822   6.580 -2.3190  1.9490 -3.5510
  122SOPE   H8S12968   6.224   1.659   6.652  1.5847  1.4658  2.1304
  122SOPE   C2912969   6.099   1.749   6.487  0.1492 -0.2661  0.1864
  122SOPE   H9112970   5.995   1.742   6.522 -0.6912 -0.2418 -2.0777
  122SOPE  C21012971   6.129   1.750   6.355  0.6613  0.2649  0.8586
  122SOPE  H10112972   6.045   1.740   6.285  1.9898 -2.8357 -0.5260
  122SOPE  C21112973   6.270   1.770   6.302  0.0495  0.0929  0.4033
  122SOPE  H11R12974   6.275   1.717   6.205 -1.4076 -0.0850  0.3922
  122SOPE  H11S12975   6.331   1.723   6.382  0.9171 -0.6207 -0.6489
  122SOPE  C21212976   6.321   1.909   6.278  0.1222  0.0080  0.0980
  122SOPE  H12R12977   6.429   1.918   6.255  0.4180 -0.0166  1.3914
  122SOPE  H12S12978   6.303   1.975   6.366  0.6889 -0.1039  0.3001
  122SOPE  C21312979   6.245   1.980   6.169 -0.1252 -0.2372 -0.4539
  122SOPE  H13R12980   6.238   2.090   6.182  0.2004 -0.4078  1.4570
  122SOPE  H13S12981   6.138   1.950   6.175  0.0526 -0.7389  0.3666
  122SOPE  C21412982   6.301   1.965   6.026  0.6118 -0.8633  0.4832
  122SOPE  H14R12983   6.317   1.858   6.001 -2.7987 -1.3615 -0.1160
  122SOPE  H14S12984   6.393   2.027   6.032 -0.5404  0.9335  0.3423
  122SOPE  C21512985   6.210   2.019   5.916  0.1842 -0.6634  0.4464
  122SOPE  H15R12986   6.178   2.125   5.928 -2.3096 -1.3540  0.2751
  122SOPE  H15S12987   6.115   1.963   5.915 -1.4104  1.8674 -0.6751
  122SOPE  C21612988   6.265   2.004   5.770  0.3022 -0.2082 -0.1459
  122SOPE  H16R12989   6.350   2.071   5.743 -0.2909  0.5669 -0.1146
  122SOPE  H16S12990   6.192   2.044   5.697 -1.8510  2.5097  3.1812
  122SOPE  C21712991   6.286   1.856   5.719 -0.4092  0.3877  0.3356
  122SOPE  H17R12992   6.213   1.791   5.773 -0.2704  1.0915  1.4136
  122SOPE  H17S12993   6.390   1.824   5.743  0.0796  0.5239 -1.4714
  122SOPE  C21812994   6.270   1.838   5.567 -0.5105  0.1145  0.3947
  122SOPE  H18R12995   6.342   1.906   5.517 -2.0611  1.5033 -0.0295
  122SOPE  H18S12996   6.165   1.858   5.537 -0.5005 -0.9831 -0.4267
  122SOPE  H18T12997   6.287   1.731   5.542 -0.1379  0.0624  0.8619
  122SOPE   C3312998   5.566   1.800   7.478  0.3221 -0.3528 -0.2329
  122SOPE   H3X12999   5.508   1.879   7.426  0.1896 -0.7121 -0.6387
  122SOPE   H3Y13000   5.500   1.777   7.565 -1.1627 -0.7251 -1.4033
  122SOPE   C3413001   5.561   1.682   7.378  0.4927 -0.0565 -0.2029
  122SOPE   H4X13002   5.471   1.618   7.386  1.6309 -2.1397 -2.7669
  122SOPE   H4Y13003   5.646   1.621   7.414  0.6156  0.6208  0.7040
  122SOPE   C3513004   5.561   1.731   7.236  0.0889  0.2761  0.5119
  122SOPE   H5X13005   5.665   1.768   7.225  0.2520 -0.6571 -1.3732
  122SOPE   H5Y13006   5.483   1.806   7.212  0.5380  0.3508 -0.7803
  122SOPE   C3613007   5.533   1.613   7.130 -0.6317  0.4688 -0.4246
  122SOPE   H6X13008   5.452   1.547   7.169 -0.1693  0.7543  1.0913
  122SOPE   H6Y13009   5.625   1.550   7.128  0.2885  1.7784 -2.6669
  122SOPE   C3713010   5.491   1.655   6.990 -0.7371 -0.0690  0.0773
  122SOPE   H7X13011   5.405   1.725   6.988  0.4202  1.4151  0.1616
  122SOPE   H7Y13012   5.463   1.564   6.933 -2.5589  0.8660 -0.5922
  122SOPE   C3813013   5.610   1.725   6.922 -0.4151  0.4740  0.0506
  122SOPE   H8X13014   5.705   1.687   6.966  0.3893 -0.2118 -2.1537
  122SOPE   H8Y13015   5.601   1.833   6.947 -1.7180  0.2325  0.7163
  122SOPE   C3913016   5.627   1.704   6.773 -0.3794 -0.2613 -0.3183
  122SOPE   H9X13017   5.524   1.717   6.734  0.1922 -0.0084 -1.8292
  122SOPE   H9Y13018   5.670   1.606   6.742 -0.5371 -0.4880  0.1709
  122SOPE  C31013019   5.723   1.806   6.710 -0.2779  0.4603  0.2500
  122SOPE  H10X13020   5.827   1.804   6.747  0.3971 -2.9075 -1.3721
  122SOPE  H10Y13021   5.677   1.906   6.725  0.8712  1.0753 -0.2343
  122SOPE  C31113022   5.740   1.790   6.558 -0.1238  0.5418 -0.1119
  122SOPE  H11X13023   5.790   1.692   6.543  1.0306  1.5185 -3.4824
  122SOPE  H11Y13024   5.810   1.872   6.533  2.9840 -0.7571  3.4238
  122SOPE  C31213025   5.619   1.799   6.466 -0.4299  0.3118  0.6912
  122SOPE  H12X13026   5.571   1.899   6.470  1.9524  1.5900 -0.6866
  122SOPE  H12Y13027   5.547   1.727   6.512 -0.8364 -0.6449 -1.3402
  122SOPE  C31313028   5.644   1.750   6.318  0.4943 -0.5672 -0.2219
  122SOPE  H13X13029   5.560   1.774   6.249 -0.7862 -1.1249  1.0865
  122SOPE  H13Y13030   5.655   1.640   6.319 -0.9611 -0.7318  0.1234
  122SOPE  C31413031   5.775   1.814   6.257 -0.5436  0.0054  0.7085
  122SOPE  H14X13032   5.859   1.791   6.325  1.3765  2.7609 -0.5681
  122SOPE  H14Y13033   5.763   1.924   6.262 -0.6150  0.2646 -2.6722
  122SOPE  C31513034   5.805   1.776   6.114 -0.1474 -0.5764 -0.1048
  122SOPE  H15X13035   5.892   1.844   6.098 -0.6149  0.2342  0.6763
  122SOPE  H15Y13036   5.723   1.803   6.045  0.2232  0.2379 -0.2368
  122SOPE  C31613037   5.855   1.628   6.107 -0.6791 -0.9605  0.4507
  122SOPE  H16X13038   5.759   1.575   6.122 -1.1743  0.0638  1.0329
  122SOPE  H16Y13039   5.926   1.611   6.190  0.8454  1.4066 -0.2567
  122SOPE  C31713040   5.932   1.585   5.983 -0.3370  0.4986  0.5073
  122SOPE  H17X13041   5.858   1.585   5.900 -3.2561 -1.7675  2.8522
  122SOPE  H17Y13042   5.964   1.480   6.002  0.5243  0.8302  0.9019
  122SOPE  C31813043   6.060   1.669   5.955  0.5334 -0.8107  1.0248
  122SOPE  H18X13044   6.133   1.665   6.039  1.0196  0.0267  0.6562
  122SOPE  H18Y13045   6.029   1.774   5.932  1.8361 -1.2468 -3.5614
  122SOPE  H18Z13046   6.113   1.628   5.867  0.6508 -1.9969  1.6323
  123SOPE     N13047   3.778   3.907   2.913  0.6696 -0.3789  0.2847
  123SOPE   HN113048   3.676   3.918   2.895  0.9853  1.4489 -0.6123
  123SOPE   HN213049   3.796   3.876   3.011  1.9618  0.5725  0.3762
  123SOPE   HN313050   3.826   3.997   2.896  4.1966 -2.0011  0.8260
  123SOPE   C1213051   3.813   3.805   2.815 -0.0952 -0.1451 -0.0949
  123SOPE  H12A13052   3.922   3.792   2.834 -0.2533 -0.6578  0.4907
  123SOPE  H12B13053   3.794   3.838   2.711  0.2865  0.9077  0.1575
  123SOPE   C1113054   3.729   3.672   2.853  0.2547 -0.3022 -0.5479
  123SOPE  H11A13055   3.776   3.634   2.946  0.9843 -1.6726 -1.4472
  123SOPE  H11B13056   3.736   3.587   2.782  0.6595  1.5873 -2.8700
  123SOPE     P13057   3.463   3.658   2.796  0.0610  0.4139 -0.0402
  123SOPE   O1313058   3.472   3.692   2.653  0.5358  0.0692 -0.2534
  123SOPE   O1413059   3.347   3.702   2.869  0.0915  0.8615 -0.3325
  123SOPE   O1213060   3.591   3.710   2.875  0.1145 -1.1165  0.4258
  123SOPE   O1113061   3.475   3.503   2.814  0.2506  0.2960 -0.1625
  123SOPE    C113062   3.384   3.429   2.893  0.4121 -0.4943 -0.2286
  123SOPE    HA13063   3.402   3.321   2.873  3.5303 -0.1318  0.1672
  123SOPE    HB13064   3.282   3.456   2.858  0.1134 -2.9048 -1.4373
  123SOPE    C213065   3.400   3.457   3.047 -0.0960  0.4423 -0.2979
  123SOPE    HS13066   3.358   3.560   3.057 -2.3965 -0.3532 -1.0490
  123SOPE   O2113067   3.540   3.445   3.086 -0.2176 -0.2736  0.4614
  123SOPE   C2113068   3.564   3.524   3.200  0.1881 -0.5319  1.1571
  123SOPE   O2213069   3.488   3.608   3.243  1.3040 -0.4571  0.0884
  123SOPE   C2213070   3.709   3.502   3.243  0.0708  0.0259  1.0046
  123SOPE   H2R13071   3.728   3.596   3.301 -3.2359  0.6978  1.2022
  123SOPE   H2S13072   3.777   3.501   3.156 -0.0244 -0.0676  0.9325
  123SOPE    C313073   3.314   3.359   3.140 -0.1598  0.0666  0.5202
  123SOPE    HX13074   3.343   3.259   3.101  2.4879  0.2187  1.8840
  123SOPE    HY13075   3.206   3.366   3.112 -0.1939 -2.0278 -0.0178
  123SOPE   O3113076   3.332   3.359   3.285  0.1259 -0.1155  0.4930
  123SOPE   C3113077   3.271   3.449   3.353  0.2484  0.6308  0.3162
  123SOPE   O3213078   3.208   3.543   3.310 -0.3910 -0.3519 -0.1047
  123SOPE   C3213079   3.282   3.421   3.502 -0.3013 -0.8010 -0.0812
  123SOPE   H2X13080   3.380   3.461   3.534 -0.9526 -1.1694  2.6612
  123SOPE   H2Y13081   3.278   3.311   3.521  1.5829 -0.8232  0.4393
  123SOPE   C2313082   3.729   3.391   3.348  0.0081 -0.0496 -1.0118
  123SOPE   H3R13083   3.718   3.294   3.296  1.5094 -0.8308  0.0724
  123SOPE   H3S13084   3.671   3.398   3.442  2.5006 -0.9313  0.6861
  123SOPE   C2413085   3.866   3.398   3.425  0.6054  0.1784  0.5806
  123SOPE   H4R13086   3.871   3.321   3.505 -0.2988 -0.8062 -0.2910
  123SOPE   H4S13087   3.948   3.395   3.351 -0.2501  1.0076 -0.4357
  123SOPE   C2513088   3.885   3.534   3.498  0.1195 -0.5853  0.3680
  123SOPE   H5R13089   3.903   3.621   3.430 -1.0464 -1.0186 -0.5338
  123SOPE   H5S13090   3.789   3.569   3.542  0.6289  1.7970 -0.2692
  123SOPE   C2613091   3.975   3.522   3.620  0.4434 -0.2019 -0.2131
  123SOPE   H6R13092   3.938   3.442   3.688 -1.2308  0.3336 -0.4477
  123SOPE   H6S13093   4.079   3.508   3.583  1.0269 -1.2392  1.6589
  123SOPE   C2713094   3.978   3.650   3.698  0.5315 -0.2164 -0.4062
  123SOPE   H7R13095   4.011   3.725   3.624  4.3490 -0.1347  1.1537
  123SOPE   H7S13096   3.879   3.675   3.741  0.3165 -0.5119 -0.7193
  123SOPE   C2813097   4.075   3.635   3.818  0.8503  1.0442 -0.3470
  123SOPE   H8R13098   4.053   3.705   3.901 -0.4812  0.6868 -0.3775
  123SOPE   H8S13099   4.055   3.534   3.858  2.5464  0.5575 -0.6302
  123SOPE   C2913100   4.220   3.635   3.766 -0.0919 -0.4231  0.0962
  123SOPE   H9113101   4.234   3.645   3.657 -0.0142  0.9217  0.2104
  123SOPE  C21013102   4.320   3.606   3.852  0.0672 -0.1253 -0.1745
  123SOPE  H10113103   4.421   3.630   3.815  0.1131  1.3882  0.8637
  123SOPE  C21113104   4.296   3.565   3.993 -0.0569 -0.5301 -0.5828
  123SOPE  H11R13105   4.371   3.491   4.030  0.3537 -0.8155 -1.9436
  123SOPE  H11S13106   4.197   3.521   4.017 -0.7142  1.4632  0.6324
  123SOPE  C21213107   4.299   3.690   4.092  0.4346 -0.1689 -0.5154
  123SOPE  H12R13108   4.226   3.763   4.051 -0.4219 -1.1995 -0.8749
  123SOPE  H12S13109   4.401   3.732   4.101 -0.2767  1.4514  0.4539
  123SOPE  C21313110   4.269   3.646   4.245 -0.3397 -0.2333  0.3780
  123SOPE  H13R13111   4.340   3.563   4.263  1.2889  0.3699 -2.6621
  123SOPE  H13S13112   4.168   3.600   4.237 -0.2309 -0.4556  0.2757
  123SOPE  C21413113   4.279   3.761   4.349 -0.0685 -0.1437  0.4383
  123SOPE  H14R13114   4.194   3.832   4.336  0.0591  0.0531  0.6931
  123SOPE  H14S13115   4.360   3.827   4.313 -0.9088  0.0726 -1.1719
  123SOPE  C21513116   4.294   3.713   4.487  0.5374  0.9966  0.0760
  123SOPE  H15R13117   4.387   3.653   4.492  0.9031  1.3305 -2.0223
  123SOPE  H15S13118   4.213   3.640   4.506  0.4187  1.0031 -0.3872
  123SOPE  C21613119   4.283   3.829   4.580  0.1228  0.0868 -0.9219
  123SOPE  H16R13120   4.196   3.892   4.549  0.1396  1.2059  1.1459
  123SOPE  H16S13121   4.376   3.885   4.556  1.6514 -2.2153 -0.7204
  123SOPE  C21713122   4.290   3.781   4.726  0.1148 -0.1396  0.5500
  123SOPE  H17R13123   4.376   3.712   4.726  0.3908  0.2006  0.1795
  123SOPE  H17S13124   4.200   3.720   4.748 -1.3668  2.0035  0.7571
  123SOPE  C21813125   4.295   3.893   4.831 -0.7323  0.3850 -0.0635
  123SOPE  H18R13126   4.397   3.932   4.850  0.3001 -1.9831 -0.4657
  123SOPE  H18S13127   4.277   3.848   4.931  0.0569  0.7933  0.2722
  123SOPE  H18T13128   4.229   3.981   4.816  0.0969  1.6925  2.9790
  123SOPE   C3313129   3.178   3.508   3.583 -0.0092  0.2808 -0.1519
  123SOPE   H3X13130   3.085   3.449   3.567  0.0112 -0.0257  0.8078
  123SOPE   H3Y13131   3.177   3.618   3.566 -1.3982  1.1788  4.3259
  123SOPE   C3413132   3.211   3.502   3.734  0.7665 -0.1665  0.4062
  123SOPE   H4X13133   3.312   3.542   3.757  0.7271 -0.4327  1.0787
  123SOPE   H4Y13134   3.217   3.398   3.773  0.3573  0.6358  2.7577
  123SOPE   C3513135   3.113   3.572   3.825 -0.5556  0.3231  0.2957
  123SOPE   H5X13136   3.011   3.530   3.811  0.5510 -2.6803  0.6303
  123SOPE   H5Y13137   3.117   3.681   3.805 -1.0851  0.3609  0.3755
  123SOPE   C3613138   3.145   3.570   3.970  0.0049 -0.1606 -0.1800
  123SOPE   H6X13139   3.251   3.593   3.994 -0.1952  2.3353 -1.3708
  123SOPE   H6Y13140   3.131   3.472   4.020 -0.4603 -0.6655 -1.2710
  123SOPE   C3713141   3.066   3.670   4.058  0.2648 -0.3083 -0.5219
  123SOPE   H7X13142   2.958   3.652   4.038  0.3019  0.8875 -1.9984
  123SOPE   H7Y13143   3.100   3.774   4.039  0.8725 -0.4712 -0.3168
  123SOPE   C3813144   3.091   3.642   4.207  0.8365 -0.5733  0.4369
  123SOPE   H8X13145   3.196   3.670   4.228  0.7365  0.8926 -0.8446
  123SOPE   H8Y13146   3.061   3.537   4.229  0.2579 -0.7106 -0.8604
  123SOPE   C3913147   3.014   3.740   4.302 -0.0271 -0.6688 -0.6936
  123SOPE   H9X13148   2.910   3.756   4.269 -0.3396  2.2914  1.3491
  123SOPE   H9Y13149   3.068   3.837   4.296  3.4755 -2.4525 -0.9631
  123SOPE  C31013150   3.029   3.686   4.440 -0.5388 -0.1825 -0.5058
  123SOPE  H10X13151   3.138   3.665   4.445 -0.1876  1.7071  1.1648
  123SOPE  H10Y13152   2.991   3.582   4.447  3.1946 -1.6742 -0.2337
  123SOPE  C31113153   2.996   3.778   4.561  0.3935 -0.2444  0.0820
  123SOPE  H11X13154   2.886   3.789   4.578  0.2653 -0.1052 -0.7715
  123SOPE  H11Y13155   3.035   3.878   4.532  0.4260 -0.9362 -2.4883
  123SOPE  C31213156   3.067   3.733   4.689 -0.3714 -0.1741  0.4416
  123SOPE  H12X13157   3.175   3.716   4.669 -0.4471  1.2594 -1.4968
  123SOPE  H12Y13158   3.019   3.638   4.720  0.7883 -0.9305 -0.0218
  123SOPE  C31313159   3.044   3.833   4.799 -0.3603 -0.7916  0.2173
  123SOPE  H13X13160   3.086   3.930   4.763 -2.4210  0.4335  0.9687
  123SOPE  H13Y13161   3.110   3.790   4.877 -0.8594 -1.6713  0.1674
  123SOPE  C31413162   2.899   3.840   4.848  0.6941  0.0171 -0.8482
  123SOPE  H14X13163   2.858   3.737   4.858 -2.5712  1.4010  1.8769
  123SOPE  H14Y13164   2.836   3.891   4.772  0.4269 -0.5223 -0.9934
  123SOPE  C31513165   2.886   3.921   4.980  0.3341  0.0978 -0.0128
  123SOPE  H15X13166   2.906   4.029   4.961  1.0509 -0.2758 -1.5442
  123SOPE  H15Y13167   2.970   3.893   5.046  1.3206 -0.1520 -1.3259
  123SOPE  C31613168   2.753   3.892   5.051 -0.2132 -0.5460 -0.2083
  123SOPE  H16X13169   2.731   3.784   5.059 -1.3632 -0.3050  0.0756
  123SOPE  H16Y13170   2.675   3.923   4.978  1.5850  1.8589 -1.2778
  123SOPE  C31713171   2.728   3.968   5.184 -0.3789 -0.6440  0.3308
  123SOPE  H17X13172   2.748   4.077   5.180 -1.1036 -0.5212 -0.0883
  123SOPE  H17Y13173   2.808   3.936   5.255  1.1170  1.5283 -0.2783
  123SOPE  C31813174   2.592   3.931   5.243  0.4182 -0.1448 -0.7333
  123SOPE  H18X13175   2.595   3.949   5.352 -0.4788  0.1701 -0.7545
  123SOPE  H18Y13176   2.569   3.823   5.237  2.6320 -0.8100  1.1939
  123SOPE  H18Z13177   2.506   3.990   5.204  0.2852 -0.8112 -1.4589
  124SOPE     N13178   6.476   0.289   2.629  0.0012  0.4798 -0.1197
  124SOPE   HN113179   6.387   0.239   2.649  0.4661 -0.2100  0.2687
  124SOPE   HN213180   6.460   0.327   2.533 -3.0974  2.5455  1.0350
  124SOPE   HN313181   6.551   0.218   2.631 -1.4378 -1.2015 -1.8900
  124SOPE   C1213182   6.502   0.408   2.721  0.7204 -0.3367 -0.1386
  124SOPE  H12A13183   6.425   0.484   2.694  0.7000 -0.2826  0.0713
  124SOPE  H12B13184   6.594   0.461   2.688 -0.1701 -0.0641 -2.3894
  124SOPE   C1113185   6.490   0.384   2.872  0.5968 -0.1492  0.4269
  124SOPE  H11A13186   6.503   0.482   2.922 -0.3010 -0.4746  1.3452
  124SOPE  H11B13187   6.568   0.314   2.909  1.0730  1.1014  1.8548
  124SOPE     P13188   6.289   0.361   3.023  0.4354 -0.1405  0.2971
  124SOPE   O1313189   6.163   0.276   3.036  0.1791 -0.1743  0.1336
  124SOPE   O1413190   6.275   0.512   3.034 -0.3958  0.2911  0.0885
  124SOPE   O1213191   6.355   0.339   2.886 -0.3439 -0.3686  0.0606
  124SOPE   O1113192   6.404   0.306   3.121  0.8438  0.4847 -0.3476
  124SOPE    C113193   6.448   0.173   3.099  0.4743  0.3269  0.0852
  124SOPE    HA13194   6.557   0.172   3.076  0.4390 -2.7156 -0.2387
  124SOPE    HB13195   6.399   0.127   3.011 -0.1588  2.8401 -0.9724
  124SOPE    C213196   6.423   0.083   3.226 -0.0890  0.6116  0.7860
  124SOPE    HS13197   6.460   0.151   3.306 -2.5125  2.5243  0.4238
  124SOPE   O2113198   6.496  -0.040   3.215 -0.8597  0.3016 -0.3697
  124SOPE   C2113199   6.618  -0.038   3.278  0.0260 -0.2379 -0.1682
  124SOPE   O2213200   6.674   0.063   3.306 -0.0717  0.0901  0.0809
  124SOPE   C2213201   6.670  -0.171   3.300 -0.2560  0.6363 -0.4828
  124SOPE   H2R13202   6.773  -0.158   3.339 -0.3423  1.5680 -0.5519
  124SOPE   H2S13203   6.679  -0.215   3.198 -1.1741  0.3077 -0.4328
  124SOPE    C313204   6.272   0.052   3.249  0.4713  0.3173 -0.3233
  124SOPE    HX13205   6.220   0.041   3.152 -1.1077  4.9270 -0.2380
  124SOPE    HY13206   6.228   0.147   3.288  0.8358  0.0734  0.7178
  124SOPE   O3113207   6.250  -0.057   3.344 -0.0284 -0.3589  0.1712
  124SOPE   C3113208   6.129  -0.108   3.345 -0.6287  0.3912  0.3077
  124SOPE   O3213209   6.030  -0.052   3.304  0.0228  0.1423  0.4611
  124SOPE   C3213210   6.142  -0.246   3.407 -0.3778 -0.1500  0.3682
  124SOPE   H2X13211   6.243  -0.282   3.380 -0.6099  0.4314 -1.3676
  124SOPE   H2Y13212   6.069  -0.307   3.351  0.0765  1.1172 -1.6960
  124SOPE   C2313213   6.578  -0.267   3.385 -0.0497  0.3476 -0.7082
  124SOPE   H3R13214   6.615  -0.371   3.372  1.7574  1.0805 -1.8485
  124SOPE   H3S13215   6.471  -0.250   3.360 -0.4518 -0.4993  0.3502
  124SOPE   C2413216   6.599  -0.229   3.534  0.2081 -0.2862  0.1294
  124SOPE   H4R13217   6.701  -0.255   3.568 -0.2276  0.7360  2.4571
  124SOPE   H4S13218   6.588  -0.119   3.545 -0.6273 -0.2720 -0.7456
  124SOPE   C2513219   6.495  -0.280   3.641 -0.1203 -0.6881 -0.0598
  124SOPE   H5R13220   6.396  -0.254   3.597  0.7640  1.1056 -1.1038
  124SOPE   H5S13221   6.515  -0.389   3.651  0.1193 -0.8654 -2.0531
  124SOPE   C2613222   6.499  -0.208   3.779  0.2165 -0.6551  0.8448
  124SOPE   H6R13223   6.495  -0.098   3.763  0.1658 -0.8186 -0.3673
  124SOPE   H6S13224   6.413  -0.244   3.839 -1.8079  0.5249 -1.1848
  124SOPE   C2713225   6.632  -0.224   3.853  0.0661 -0.1826 -0.5182
  124SOPE   H7R13226   6.665  -0.329   3.850  0.0973 -0.2046  0.2580
  124SOPE   H7S13227   6.716  -0.169   3.806  1.4119 -0.1949  1.7208
  124SOPE   C2813228   6.621  -0.174   4.004 -0.6705  0.0573  0.0048
  124SOPE   H8R13229   6.724  -0.161   4.045 -0.7365  0.2809  0.1006
  124SOPE   H8S13230   6.578  -0.073   4.018  2.3801  1.4127  0.3616
  124SOPE   C2913231   6.541  -0.269   4.090  0.2980  0.5236 -0.2872
  124SOPE   H9113232   6.548  -0.377   4.070 -0.9133  0.4538 -0.3665
  124SOPE  C21013233   6.481  -0.248   4.212 -0.3429 -0.0683  0.0012
  124SOPE  H10113234   6.418  -0.328   4.253  0.1628 -0.8250 -0.6604
  124SOPE  C21113235   6.468  -0.110   4.273 -0.4020 -0.9302 -0.2710
  124SOPE  H11R13236   6.383  -0.042   4.246  0.3264  0.3885  0.6464
  124SOPE  H11S13237   6.559  -0.049   4.256 -0.8229  0.4706  1.9964
  124SOPE  C21213238   6.480  -0.126   4.424  0.0062  0.3677  0.5837
  124SOPE  H12R13239   6.409  -0.206   4.455 -2.1601  1.9989  0.1088
  124SOPE  H12S13240   6.446  -0.030   4.470 -1.5044 -0.0814  0.4423
  124SOPE  C21313241   6.625  -0.162   4.474  0.3265 -0.0939  0.5105
  124SOPE  H13R13242   6.696  -0.081   4.445  1.0472 -0.1326  2.0549
  124SOPE  H13S13243   6.652  -0.244   4.405 -1.3292  0.2516 -0.6303
  124SOPE  C21413244   6.634  -0.193   4.620 -0.4434  0.4815 -0.5588
  124SOPE  H14R13245   6.620  -0.103   4.685 -2.5033 -0.7596  0.8249
  124SOPE  H14S13246   6.736  -0.221   4.653 -0.9361 -1.2140 -0.4069
  124SOPE  C21513247   6.541  -0.301   4.672 -0.3827 -0.1061  0.5524
  124SOPE  H15R13248   6.585  -0.393   4.627  1.9918  0.5631  1.3910
  124SOPE  H15S13249   6.434  -0.308   4.642  0.3921  0.2012 -2.6537
  124SOPE  C21613250   6.544  -0.313   4.825  0.1703 -0.0670 -0.4193
  124SOPE  H16R13251   6.645  -0.341   4.863  0.6484  4.4757  2.4985
  124SOPE  H16S13252   6.481  -0.400   4.852 -0.9235  0.4311 -1.3072
  124SOPE  C21713253   6.481  -0.189   4.903  0.0047  0.3088 -0.3191
  124SOPE  H17R13254   6.390  -0.160   4.847 -1.4457 -2.7289  0.3019
  124SOPE  H17S13255   6.549  -0.101   4.909 -0.0460  0.3421 -0.2416
  124SOPE  C21813256   6.450  -0.225   5.043  0.6961  0.4925  0.1916
  124SOPE  H18R13257   6.537  -0.273   5.091  1.1666 -0.6474 -1.7158
  124SOPE  H18S13258   6.367  -0.298   5.057  1.1884  0.0897  1.1357
  124SOPE  H18T13259   6.414  -0.137   5.102  0.8085  0.8508 -0.2698
  124SOPE   C3313260   6.135  -0.240   3.560  0.0101  1.2008 -0.5332
  124SOPE   H3X13261   6.216  -0.181   3.609  0.7348 -0.6718  0.6726
  124SOPE   H3Y13262   6.144  -0.343   3.602 -1.1159  1.3871  0.2232
  124SOPE   C3413263   6.003  -0.186   3.627  0.0999  0.5972 -0.0077
  124SOPE   H4X13264   5.925  -0.264   3.611  1.7895 -1.1603 -0.1184
  124SOPE   H4Y13265   5.969  -0.102   3.563  1.4062 -0.1800 -1.8373
  124SOPE   C3513266   6.025  -0.152   3.777  0.2302 -0.3266  0.2936
  124SOPE   H5X13267   5.954  -0.073   3.809  1.1504  1.0611 -0.9847
  124SOPE   H5Y13268   6.122  -0.098   3.780  1.3620 -2.0610 -2.1116
  124SOPE   C3613269   6.040  -0.278   3.878  0.4097 -0.8059  0.9803
  124SOPE   H6X13270   6.138  -0.327   3.859  0.9216  0.6981 -0.4158
  124SOPE   H6Y13271   5.956  -0.346   3.851 -0.9766 -0.2849  3.6459
  124SOPE   C3713272   6.043  -0.230   4.020 -0.2341 -0.8741 -0.1636
  124SOPE   H7X13273   5.965  -0.151   4.031  0.6491 -0.1050  0.7499
  124SOPE   H7Y13274   6.135  -0.170   4.037 -0.0627 -1.1387 -0.1536
  124SOPE   C3813275   6.030  -0.335   4.138  0.1103 -0.3008 -0.2295
  124SOPE   H8X13276   6.103  -0.419   4.131 -0.5441 -1.0560  1.5183
  124SOPE   H8Y13277   5.927  -0.377   4.150  0.0631  0.5781  3.3840
  124SOPE   C3913278   6.072  -0.281   4.279  0.7701 -0.2408  0.1501
  124SOPE   H9X13279   6.012  -0.189   4.296  1.8696  0.4560  0.4195
  124SOPE   H9Y13280   6.179  -0.249   4.281  0.4954  0.6972  2.1988
  124SOPE  C31013281   6.047  -0.377   4.392  0.3199  0.4944  0.7136
  124SOPE  H10X13282   6.111  -0.466   4.378  0.4091  0.5912  0.4895
  124SOPE  H10Y13283   5.942  -0.411   4.373 -0.3095  2.9947 -0.8322
  124SOPE  C31113284   6.100  -0.319   4.522  0.1783 -0.3100  0.1175
  124SOPE  H11X13285   6.059  -0.217   4.538 -0.1788 -0.5144  0.5230
  124SOPE  H11Y13286   6.210  -0.317   4.538 -0.1829  0.1531  3.1502
  124SOPE  C31213287   6.047  -0.403   4.638  0.0810  0.1766 -0.3899
  124SOPE  H12X13288   6.086  -0.507   4.631  0.1925  0.2416 -0.7599
  124SOPE  H12Y13289   5.937  -0.400   4.624  0.2225  1.2837 -1.4633
  124SOPE  C31313290   6.071  -0.345   4.772 -0.5975 -0.4312  0.1293
  124SOPE  H13X13291   6.043  -0.238   4.788 -1.1394 -0.1983 -2.0440
  124SOPE  H13Y13292   6.182  -0.337   4.784 -0.6787 -1.3075  1.8183
  124SOPE  C31413293   6.026  -0.431   4.885 -0.8659  0.9051 -0.1128
  124SOPE  H14X13294   6.109  -0.499   4.914 -0.6072  0.2842 -2.1413
  124SOPE  H14Y13295   5.951  -0.503   4.847 -0.7930  2.2118 -3.0120
  124SOPE  C31513296   5.953  -0.362   5.003 -0.2410 -0.3887 -0.1508
  124SOPE  H15X13297   5.857  -0.318   4.968 -0.3092 -0.2595  0.1978
  124SOPE  H15Y13298   6.013  -0.282   5.051  0.0652 -0.4777 -0.3884
  124SOPE  C31613299   5.914  -0.454   5.120 -0.1459 -0.2577 -0.7035
  124SOPE  H16X13300   5.866  -0.542   5.072 -1.6357  0.5931 -0.8241
  124SOPE  H16Y13301   5.841  -0.398   5.182  0.0799  1.4628 -1.9162
  124SOPE  C31713302   6.045  -0.507   5.192 -0.6804 -0.4074 -0.4238
  124SOPE  H17X13303   6.092  -0.424   5.248 -1.3690 -0.3955  0.1550
  124SOPE  H17Y13304   6.119  -0.549   5.121 -0.0531 -0.0759  0.0186
  124SOPE  C31813305   6.021  -0.617   5.293 -0.3037  0.2570  0.8682
  124SOPE  H18X13306   5.983  -0.705   5.237  2.4634 -0.5414  0.0916
  124SOPE  H18Y13307   5.958  -0.579   5.376 -1.6028  1.0895 -0.4422
  124SOPE  H18Z13308   6.120  -0.650   5.332  0.3609 -1.2172 -1.8390
  125SOPE     N13309   2.710   6.162   2.595 -0.5136 -0.0845 -0.3757
  125SOPE   HN113310   2.752   6.244   2.643 -1.9800  1.6494 -1.9220
  125SOPE   HN213311   2.780   6.085   2.587 -0.1691 -0.2257  2.6560
  125SOPE   HN313312   2.685   6.199   2.501 -0.1252 -0.4377 -0.6226
  125SOPE   C1213313   2.606   6.109   2.688 -0.1175  0.9960  0.1739
  125SOPE  H12A13314   2.524   6.184   2.700 -2.6905 -1.9273  2.6395
  125SOPE  H12B13315   2.639   6.110   2.794  0.4093  3.9605  0.0641
  125SOPE   C1113316   2.554   5.982   2.623 -0.2770  0.1615 -0.2947
  125SOPE  H11A13317   2.513   5.995   2.521 -1.2858  0.1509  0.0966
  125SOPE  H11B13318   2.467   5.948   2.683 -1.1890  0.3507 -1.4663
  125SOPE     P13319   2.643   5.732   2.692 -0.4241 -0.2467 -0.6922
  125SOPE   O1313320   2.777   5.668   2.695  0.2222 -0.2957 -0.0576
  125SOPE   O1413321   2.542   5.661   2.609  0.3715 -0.2318 -0.3587
  125SOPE   O1213322   2.657   5.880   2.633  0.2288  0.7544 -0.3809
  125SOPE   O1113323   2.594   5.757   2.836  0.1642 -0.4663 -0.4924
  125SOPE    C113324   2.684   5.815   2.932  0.7296  0.9166 -0.8325
  125SOPE    HA13325   2.708   5.919   2.902 -0.5641  0.8844 -2.0541
  125SOPE    HB13326   2.778   5.760   2.954  0.0722  0.2573  0.4362
  125SOPE    C213327   2.609   5.834   3.067  0.4573 -0.5178 -0.2301
  125SOPE    HS13328   2.676   5.905   3.120 -0.9615 -0.2207  1.2545
  125SOPE   O2113329   2.597   5.715   3.149 -0.4314  0.3656  0.1136
  125SOPE   C2113330   2.601   5.741   3.276 -0.3565 -0.7498 -0.1805
  125SOPE   O2213331   2.619   5.853   3.325  0.1906 -0.2386 -0.2311
  125SOPE   C2213332   2.583   5.610   3.351  0.1950  0.8025  0.6663
  125SOPE   H2R13333   2.683   5.562   3.363 -0.4044 -0.4279  0.8548
  125SOPE   H2S13334   2.516   5.555   3.282  0.1438  0.8238  0.6998
  125SOPE    C313335   2.472   5.906   3.046  0.2782 -0.6721  0.2603
  125SOPE    HX13336   2.395   5.836   3.008 -1.4677  1.0541  0.4489
  125SOPE    HY13337   2.487   5.985   2.969  0.3810  0.8681  1.7893
  125SOPE   O3113338   2.427   5.972   3.164  0.2614 -0.0119 -0.7951
  125SOPE   C3113339   2.473   6.088   3.205 -0.0196 -0.7222  0.9605
  125SOPE   O3213340   2.564   6.155   3.156 -0.8159  0.1034  0.0854
  125SOPE   C3213341   2.393   6.135   3.321 -0.5430 -0.6324 -1.1287
  125SOPE   H2X13342   2.318   6.059   3.351  0.0985 -1.1873 -0.9239
  125SOPE   H2Y13343   2.345   6.233   3.298 -1.7481 -0.2520  2.4117
  125SOPE   C2313344   2.524   5.612   3.490 -0.0456  0.3452 -1.0348
  125SOPE   H3R13345   2.509   5.512   3.536 -0.1828  0.6995 -0.3081
  125SOPE   H3S13346   2.429   5.669   3.489 -0.2721 -0.0132 -1.9622
  125SOPE   C2413347   2.607   5.685   3.601  0.0085  0.1028  0.2212
  125SOPE   H4R13348   2.703   5.630   3.613  0.2484 -0.2412 -2.6491
  125SOPE   H4S13349   2.622   5.788   3.564 -1.3745 -0.4512 -2.0625
  125SOPE   C2513350   2.523   5.694   3.730 -0.2638 -0.2451  0.1202
  125SOPE   H5R13351   2.417   5.720   3.710 -0.9605 -3.5100 -1.0937
  125SOPE   H5S13352   2.526   5.596   3.783  2.2472  1.1788  2.8931
  125SOPE   C2613353   2.574   5.792   3.842 -0.5065 -0.6103 -0.9175
  125SOPE   H6R13354   2.675   5.754   3.866 -0.3631 -0.5025 -1.3534
  125SOPE   H6S13355   2.579   5.900   3.819  0.2783  0.5131  3.5670
  125SOPE   C2713356   2.482   5.787   3.973  0.0192 -0.0060 -0.1598
  125SOPE   H7R13357   2.378   5.823   3.960 -0.6185 -1.3534  1.0364
  125SOPE   H7S13358   2.461   5.680   3.992 -0.2653  0.0166 -0.3311
  125SOPE   C2813359   2.560   5.838   4.088  0.0101 -0.4763 -0.1721
  125SOPE   H8R13360   2.653   5.779   4.101 -0.0725 -0.8008 -0.9966
  125SOPE   H8S13361   2.595   5.937   4.050 -0.3710 -0.2388  0.0803
  125SOPE   C2913362   2.471   5.851   4.214 -0.2981 -1.0674  0.3903
  125SOPE   H9113363   2.403   5.938   4.216  1.0535  0.0182  0.3209
  125SOPE  C21013364   2.479   5.778   4.324  0.1051 -0.0513  0.0308
  125SOPE  H10113365   2.429   5.806   4.418 -1.4596 -0.2586 -0.7083
  125SOPE  C21113366   2.550   5.644   4.336  0.0647  0.0663  0.0157
  125SOPE  H11R13367   2.577   5.606   4.235  1.1499  1.3888 -0.2209
  125SOPE  H11S13368   2.483   5.572   4.388  1.4799 -1.1695  0.1686
  125SOPE  C21213369   2.686   5.656   4.418  0.8825 -0.1196  0.2247
  125SOPE  H12R13370   2.758   5.714   4.356  1.3265  0.9836  1.7296
  125SOPE  H12S13371   2.728   5.554   4.421  2.7527  0.6084  0.1107
  125SOPE  C21313372   2.679   5.708   4.562 -0.0726  0.4318  0.1010
  125SOPE  H13R13373   2.644   5.813   4.575  2.2557  1.5904 -2.1208
  125SOPE  H13S13374   2.782   5.702   4.603  0.3751  0.2714 -1.0181
  125SOPE  C21413375   2.590   5.620   4.650 -0.0806 -0.2216  0.2719
  125SOPE  H14R13376   2.625   5.515   4.661 -0.3985 -0.2226  1.4758
  125SOPE  H14S13377   2.489   5.608   4.604  0.3208 -1.8909 -0.2314
  125SOPE  C21513378   2.579   5.668   4.800 -0.2054 -0.1712  0.6233
  125SOPE  H15R13379   2.478   5.649   4.843 -1.2133  2.8201 -0.2123
  125SOPE  H15S13380   2.593   5.778   4.799  0.1469 -0.1919 -1.6300
  125SOPE  C21613381   2.679   5.597   4.890  0.2058  0.2732  0.2074
  125SOPE  H16R13382   2.762   5.566   4.823 -0.6828 -0.9000 -0.3844
  125SOPE  H16S13383   2.650   5.493   4.917  0.0697 -0.8083 -3.4424
  125SOPE  C21713384   2.715   5.673   5.022 -0.2943 -0.0757  0.2068
  125SOPE  H17R13385   2.621   5.690   5.079  0.9668 -1.1041  2.7192
  125SOPE  H17S13386   2.759   5.767   4.983  1.2517 -0.7518  0.2517
  125SOPE  C21813387   2.819   5.604   5.110 -0.8981  0.5311  0.5245
  125SOPE  H18R13388   2.910   5.599   5.046  0.0737 -0.6788  1.9181
  125SOPE  H18S13389   2.775   5.504   5.130 -4.0480  2.0054  1.5956
  125SOPE  H18T13390   2.840   5.657   5.205  2.4292  4.2415 -1.9621
  125SOPE   C3313391   2.479   6.155   3.449  0.1494  0.0095  1.0705
  125SOPE   H3X13392   2.565   6.222   3.427  0.1283 -0.7041 -1.5116
  125SOPE   H3Y13393   2.520   6.059   3.489  1.4830  0.9511  2.0422
  125SOPE   C3413394   2.391   6.214   3.560  0.1977  0.7023  0.5993
  125SOPE   H4X13395   2.312   6.137   3.576  1.3350 -0.5311  0.5038
  125SOPE   H4Y13396   2.355   6.309   3.515  2.3271  0.2227 -2.4853
  125SOPE   C3513397   2.470   6.241   3.683 -0.2467  0.4405  0.1141
  125SOPE   H5X13398   2.539   6.327   3.668  0.0999  0.2541  0.6190
  125SOPE   H5Y13399   2.529   6.148   3.695 -2.2502 -1.2012 -1.7565
  125SOPE   C3613400   2.398   6.264   3.817 -0.3865  0.1499 -0.2478
  125SOPE   H6X13401   2.306   6.203   3.823 -0.0444 -0.3021  0.7482
  125SOPE   H6Y13402   2.357   6.365   3.839 -1.9572 -0.5124 -0.0228
  125SOPE   C3713403   2.488   6.228   3.941 -0.3398  0.2702  0.0818
  125SOPE   H7X13404   2.579   6.291   3.931  0.6505 -1.2562 -1.0151
  125SOPE   H7Y13405   2.516   6.121   3.927 -1.5980 -0.1336  0.4427
  125SOPE   C3813406   2.407   6.246   4.066  0.1480  0.1246 -0.0266
  125SOPE   H8X13407   2.318   6.180   4.065  1.3240 -1.5384  0.9600
  125SOPE   H8Y13408   2.369   6.351   4.074 -2.3569 -0.6509 -0.7025
  125SOPE   C3913409   2.490   6.220   4.194  0.4919  0.1480  0.2682
  125SOPE   H9X13410   2.569   6.295   4.215  0.7711 -0.0695  0.0124
  125SOPE   H9Y13411   2.544   6.123   4.185  2.4418  1.3743 -2.3089
  125SOPE  C31013412   2.404   6.217   4.319 -0.2963 -0.3284 -0.0049
  125SOPE  H10X13413   2.327   6.137   4.316  1.3795 -2.0625 -4.1342
  125SOPE  H10Y13414   2.357   6.317   4.334  0.4178  0.3879 -2.1898
  125SOPE  C31113415   2.482   6.182   4.448 -0.4911 -1.3212  0.1736
  125SOPE  H11X13416   2.580   6.233   4.461 -2.1208  2.2366 -0.2487
  125SOPE  H11Y13417   2.492   6.071   4.453  1.3965 -1.1465  1.1226
  125SOPE  C31213418   2.410   6.240   4.566  0.3137  0.1663 -0.1272
  125SOPE  H12X13419   2.311   6.194   4.586  0.3392  0.4526  0.6923
  125SOPE  H12Y13420   2.394   6.347   4.540  1.4828  1.0202  2.2785
  125SOPE  C31313421   2.495   6.236   4.689  1.0039 -0.4016 -0.3416
  125SOPE  H13X13422   2.580   6.305   4.676 -0.8049  1.8531 -0.7272
  125SOPE  H13Y13423   2.523   6.131   4.715  1.1050 -0.3893 -0.3972
  125SOPE  C31413424   2.439   6.297   4.818  0.2555  0.5952  0.1017
  125SOPE  H14X13425   2.335   6.266   4.839  0.5188 -0.5399 -0.2076
  125SOPE  H14Y13426   2.430   6.408   4.812 -2.8871  0.7211  3.6590
  125SOPE  C31513427   2.507   6.263   4.952  0.2058 -0.3459  0.6483
  125SOPE  H15X13428   2.604   6.316   4.940 -0.3505  0.1432 -2.7212
  125SOPE  H15Y13429   2.528   6.154   4.957 -0.4791 -0.8985 -4.0314
  125SOPE  C31613430   2.450   6.319   5.084  0.0998 -0.3098  0.4038
  125SOPE  H16X13431   2.531   6.304   5.158 -1.3225 -0.3633  2.0296
  125SOPE  H16Y13432   2.366   6.258   5.123 -1.4691  0.9168 -0.8969
  125SOPE  C31713433   2.394   6.466   5.073 -0.7409 -0.3818  0.2655
  125SOPE  H17X13434   2.305   6.467   5.007 -0.4719 -1.1370 -0.1176
  125SOPE  H17Y13435   2.474   6.539   5.049 -0.6029 -0.4042  0.6449
  125SOPE  C31813436   2.339   6.518   5.201  0.6635 -0.1520 -0.9869
  125SOPE  H18X13437   2.279   6.440   5.253 -1.7439  1.2305 -1.5240
  125SOPE  H18Y13438   2.276   6.606   5.174  1.6883  0.2935 -1.9769
  125SOPE  H18Z13439   2.416   6.547   5.276  0.1981 -0.9714 -0.1804
  126SOPE     N13440   4.322   3.022   3.084  0.0791  0.3268 -0.2967
  126SOPE   HN113441   4.414   2.995   3.124  0.1363  1.1985  0.1894
  126SOPE   HN213442   4.300   2.959   3.004 -1.5524  0.4292  0.0374
  126SOPE   HN313443   4.340   3.121   3.060 -0.4847  0.3374 -0.7031
  126SOPE   C1213444   4.228   3.021   3.197 -0.2811  0.3099 -0.4516
  126SOPE  H12A13445   4.281   3.092   3.264 -0.5539 -1.4626  1.7862
  126SOPE  H12B13446   4.233   2.924   3.252 -1.4963  0.8076  0.5962
  126SOPE   C1113447   4.090   3.074   3.155 -0.2279  0.3277  0.3929
  126SOPE  H11A13448   4.103   3.183   3.173  2.2326 -0.3009  2.9974
  126SOPE  H11B13449   4.017   3.034   3.228 -0.6388 -0.3615 -0.3731
  126SOPE     P13450   3.913   3.039   2.961  0.1047 -0.4303 -0.3608
  126SOPE   O1313451   3.929   2.963   2.832  0.0800  0.2004  0.2483
  126SOPE   O1413452   3.855   3.176   2.952 -0.2116 -0.2629  0.5343
  126SOPE   O1213453   4.054   3.045   3.023 -0.0824  0.0442  0.3898
  126SOPE   O1113454   3.815   2.961   3.054  0.2757 -0.7012 -0.7236
  126SOPE    C113455   3.843   2.842   3.125  0.7685  0.0385  0.0156
  126SOPE    HA13456   3.944   2.844   3.172  0.1627 -1.8880  1.5769
  126SOPE    HB13457   3.835   2.752   3.061  1.5589 -1.3024  1.6974
  126SOPE    C213458   3.747   2.825   3.245 -0.8813  0.6110 -0.2367
  126SOPE    HS13459   3.649   2.786   3.212 -0.5766 -0.8412  0.4671
  126SOPE   O2113460   3.730   2.945   3.327  0.1049  0.1712  0.2766
  126SOPE   C2113461   3.621   2.952   3.396 -0.6743  0.2112  0.4844
  126SOPE   O2213462   3.524   2.876   3.380 -0.7169 -0.1045  0.4266
  126SOPE   C2213463   3.618   3.083   3.472 -0.0221  0.5697 -0.1383
  126SOPE   H2R13464   3.572   3.154   3.399 -0.4987  0.6865  0.2684
  126SOPE   H2S13465   3.720   3.114   3.501  0.0166  1.3851 -1.1003
  126SOPE    C313466   3.807   2.715   3.339  0.1697  0.2647  0.4359
  126SOPE    HX13467   3.825   2.625   3.276  0.3730 -0.4902  1.5368
  126SOPE    HY13468   3.743   2.682   3.424 -1.0602 -0.7236 -0.8099
  126SOPE   O3113469   3.938   2.751   3.385  0.1615 -0.0662  0.1806
  126SOPE   C3113470   3.958   2.797   3.514  0.1085 -0.8526 -0.3270
  126SOPE   O3213471   3.872   2.785   3.602 -0.1438  0.3811  0.0968
  126SOPE   C3213472   4.092   2.861   3.520 -0.7912  0.1051  0.4015
  126SOPE   H2X13473   4.157   2.833   3.435  0.7024  1.8048  0.9435
  126SOPE   H2Y13474   4.140   2.811   3.607 -2.0235 -2.1106 -0.0839
  126SOPE   C2313475   3.527   3.077   3.598 -0.0398  0.4716 -0.3362
  126SOPE   H3R13476   3.558   2.995   3.666 -0.5480 -1.8377 -2.7512
  126SOPE   H3S13477   3.426   3.046   3.565  0.8547 -2.1946 -0.7772
  126SOPE   C2413478   3.517   3.217   3.653 -0.0605  0.5763 -0.7343
  126SOPE   H4R13479   3.516   3.300   3.579 -0.4489  2.2203  1.0360
  126SOPE   H4S13480   3.423   3.212   3.712 -0.1817 -1.6041 -1.0610
  126SOPE   C2513481   3.625   3.252   3.762  0.2659 -0.2806 -0.2858
  126SOPE   H5R13482   3.600   3.183   3.846 -0.9139  1.8375  1.2083
  126SOPE   H5S13483   3.729   3.253   3.723 -0.0192 -0.7068 -1.0768
  126SOPE   C2613484   3.585   3.395   3.807  0.4573 -0.0588 -0.9503
  126SOPE   H6R13485   3.586   3.453   3.713  0.9642 -1.6563 -1.9676
  126SOPE   H6S13486   3.478   3.383   3.837  1.1715 -3.0022  0.8786
  126SOPE   C2713487   3.674   3.446   3.919 -0.1306 -0.8657  0.2102
  126SOPE   H7R13488   3.652   3.394   4.015 -0.1054 -0.1836  0.5915
  126SOPE   H7S13489   3.783   3.432   3.901 -0.1510 -2.4291  1.1080
  126SOPE   C2813490   3.637   3.592   3.945 -0.6106 -0.1220 -0.4866
  126SOPE   H8R13491   3.630   3.637   3.844  1.1337 -1.0733 -1.0694
  126SOPE   H8S13492   3.539   3.599   3.997 -0.4219 -0.5806 -0.0594
  126SOPE   C2913493   3.745   3.661   4.023  0.4454  0.0813  0.1804
  126SOPE   H9113494   3.847   3.654   3.981  0.6478 -0.5734  0.7561
  126SOPE  C21013495   3.743   3.739   4.131  0.7566  0.3211  0.2202
  126SOPE  H10113496   3.834   3.794   4.160  0.6001  0.6246  0.1357
  126SOPE  C21113497   3.620   3.767   4.218 -0.0030 -0.2301  0.2902
  126SOPE  H11R13498   3.523   3.725   4.184  0.1770 -1.7586  1.5326
  126SOPE  H11S13499   3.613   3.878   4.223  0.0251 -0.2110 -0.1098
  126SOPE  C21213500   3.631   3.724   4.370 -0.4191 -0.3015 -0.1318
  126SOPE  H12R13501   3.647   3.614   4.374  1.9512 -0.0700 -1.5527
  126SOPE  H12S13502   3.538   3.743   4.429 -0.3180 -2.0126  0.6535
  126SOPE  C21313503   3.746   3.795   4.446  0.1243  0.0580  0.6491
  126SOPE  H13R13504   3.757   3.904   4.425  2.0097 -0.4147 -1.2345
  126SOPE  H13S13505   3.846   3.772   4.402  0.8068  0.2668  2.0449
  126SOPE  C21413506   3.762   3.772   4.594  0.1290  0.3943  0.2402
  126SOPE  H14R13507   3.735   3.666   4.612 -0.5505  0.6726  0.8952
  126SOPE  H14S13508   3.679   3.825   4.646  0.7848  1.2438  0.4336
  126SOPE  C21513509   3.898   3.802   4.659 -0.1290 -0.1587 -0.0810
  126SOPE  H15R13510   3.931   3.895   4.609 -0.9219  0.1219 -0.0964
  126SOPE  H15S13511   3.972   3.726   4.626  2.0582  1.5859  0.6010
  126SOPE  C21613512   3.895   3.818   4.817 -0.2706  0.5740  0.8436
  126SOPE  H16R13513   3.996   3.827   4.861 -0.5912 -0.0937  1.7536
  126SOPE  H16S13514   3.845   3.725   4.852  1.2506 -0.5505  0.1297
  126SOPE  C21713515   3.821   3.946   4.856 -0.3908  0.0571  0.4528
  126SOPE  H17R13516   3.712   3.931   4.874 -0.8972  0.9766 -1.5853
  126SOPE  H17S13517   3.827   4.006   4.763  0.4225 -2.4985 -1.2528
  126SOPE  C21813518   3.892   4.022   4.969 -0.5136 -0.4023  0.0576
  126SOPE  H18R13519   3.848   4.124   4.976  2.2273  0.9638 -1.0235
  126SOPE  H18S13520   4.001   4.026   4.946 -0.2437  1.2667  1.4391
  126SOPE  H18T13521   3.871   3.971   5.065  1.4455 -0.2168  0.6184
  126SOPE   C3313522   4.099   3.011   3.547  0.3497 -0.8563 -0.0994
  126SOPE   H3X13523   4.038   3.061   3.469  0.9663 -0.8085 -0.5541
  126SOPE   H3Y13524   4.204   3.041   3.528  0.2082  0.1561  0.6372
  126SOPE   C3413525   4.071   3.043   3.691 -0.6498  0.0344  0.4117
  126SOPE   H4X13526   4.133   2.968   3.745 -1.9892  0.2427  2.3101
  126SOPE   H4Y13527   3.965   3.017   3.708 -1.2755  2.1419 -0.0481
  126SOPE   C3513528   4.107   3.187   3.729  0.7031 -0.5879 -0.3312
  126SOPE   H5X13529   4.044   3.250   3.663 -0.0448 -0.2529  0.6921
  126SOPE   H5Y13530   4.215   3.209   3.712  1.2807 -1.7497  1.5632
  126SOPE   C3613531   4.066   3.232   3.871  0.6537 -0.5275 -0.2999
  126SOPE   H6X13532   3.959   3.259   3.868  0.4850 -0.9625  1.1818
  126SOPE   H6Y13533   4.129   3.322   3.892  0.5224 -0.8711  1.7600
  126SOPE   C3713534   4.090   3.127   3.972  0.1504  0.0782  0.3108
  126SOPE   H7X13535   4.182   3.071   3.946  0.8667  1.6783 -0.7373
  126SOPE   H7Y13536   4.001   3.061   3.980 -1.1008  1.6680  0.1324
  126SOPE   C3813537   4.110   3.185   4.118  0.4222 -0.2393  0.2650
  126SOPE   H8X13538   4.200   3.248   4.133 -1.5733  2.7471  0.3992
  126SOPE   H8Y13539   4.117   3.087   4.170 -1.6372  0.5074  2.0906
  126SOPE   C3913540   3.988   3.271   4.162 -0.2189 -0.2999  0.0696
  126SOPE   H9X13541   3.899   3.205   4.151 -1.8232  1.9674 -1.1636
  126SOPE   H9Y13542   3.979   3.371   4.115 -1.8453  0.2654  1.4627
  126SOPE  C31013543   4.008   3.303   4.312 -0.1668 -0.4150  0.2280
  126SOPE  H10X13544   4.081   3.387   4.314 -0.2829 -0.3178  0.3637
  126SOPE  H10Y13545   4.053   3.220   4.370  0.8859  1.4284  2.2160
  126SOPE  C31113546   3.873   3.340   4.373 -0.7090 -0.2582  0.0884
  126SOPE  H11X13547   3.809   3.250   4.362 -0.1902 -0.4861 -1.2338
  126SOPE  H11Y13548   3.827   3.414   4.305  2.9606  0.1514 -2.2695
  126SOPE  C31213549   3.865   3.389   4.519 -0.4913  0.2628 -0.0507
  126SOPE  H12X13550   3.762   3.367   4.555  0.3453 -0.2499  2.2118
  126SOPE  H12Y13551   3.877   3.498   4.533 -2.3855  0.4912  0.0769
  126SOPE  C31313552   3.962   3.321   4.615  0.3608 -0.2318 -0.1280
  126SOPE  H13X13553   4.060   3.350   4.571  1.1672  0.2656  1.8564
  126SOPE  H13Y13554   3.957   3.210   4.625  1.2267 -0.5690 -2.6992
  126SOPE  C31413555   3.956   3.382   4.758 -0.1776  0.3355  0.2505
  126SOPE  H14X13556   3.852   3.383   4.798 -2.2313  0.8848 -4.4845
  126SOPE  H14Y13557   3.995   3.485   4.746  0.6673 -0.1961 -2.0513
  126SOPE  C31513558   4.052   3.316   4.853 -0.2687 -0.3016 -0.0011
  126SOPE  H15X13559   4.148   3.305   4.798  0.7751  2.5256  1.0945
  126SOPE  H15Y13560   4.013   3.219   4.891  0.4598 -0.0677  1.3898
  126SOPE  C31613561   4.088   3.396   4.977 -0.5366 -0.1031  0.3271
  126SOPE  H16X13562   3.997   3.427   5.031 -0.5065  0.4145  0.0841
  126SOPE  H16Y13563   4.147   3.485   4.944 -0.2452 -0.4496 -0.1071
  126SOPE  C31713564   4.167   3.311   5.088 -0.3752 -0.7632  0.7387
  126SOPE  H17X13565   4.265   3.292   5.038 -0.6049  2.4819 -1.2419
  126SOPE  H17Y13566   4.110   3.216   5.098  0.1465 -0.9083  2.7250
  126SOPE  C31813567   4.195   3.394   5.216  0.2387  0.2040  0.2461
  126SOPE  H18X13568   4.253   3.484   5.184  0.3288 -0.4329 -1.4521
  126SOPE  H18Y13569   4.265   3.344   5.286 -0.7189  1.6146  2.3137
  126SOPE  H18Z13570   4.106   3.422   5.276  0.2809  0.7275  0.0701
  127SOPE     N13571   6.260   4.469   2.874  0.7206  0.3496  0.2559
  127SOPE   HN113572   6.165   4.489   2.836  0.9279  1.7760  0.4457
  127SOPE   HN213573   6.334   4.523   2.825  1.0752 -0.6305 -0.3297
  127SOPE   HN313574   6.267   4.365   2.869 -1.4386  0.0498  2.0757
  127SOPE   C1213575   6.264   4.496   3.024 -0.1471  0.1568  0.1231
  127SOPE  H12A13576   6.197   4.422   3.072 -0.1584  0.9168  1.3142
  127SOPE  H12B13577   6.219   4.598   3.032 -0.2925  0.0661  0.4810
  127SOPE   C1113578   6.405   4.497   3.089  0.5580 -0.1490  0.1400
  127SOPE  H11A13579   6.420   4.387   3.095  0.9810 -0.0047  3.8824
  127SOPE  H11B13580   6.403   4.544   3.189 -0.3447  1.6024 -0.6616
  127SOPE     P13581   6.508   4.709   2.967 -0.0272 -0.0862 -0.8255
  127SOPE   O1313582   6.422   4.732   2.845  0.6416 -0.8288  0.2291
  127SOPE   O1413583   6.645   4.759   2.960  0.4440  0.2274 -0.4571
  127SOPE   O1213584   6.504   4.554   2.998  0.5951  0.3438  0.2017
  127SOPE   O1113585   6.435   4.767   3.091  0.2775 -0.1783  0.2701
  127SOPE    C113586   6.339   4.871   3.078  0.4386 -0.5462 -0.0722
  127SOPE    HA13587   6.251   4.832   3.024  0.4995 -2.0243  0.8290
  127SOPE    HB13588   6.377   4.958   3.021 -1.0909  2.3007  2.9094
  127SOPE    C213589   6.301   4.931   3.222  0.3079 -0.2281  0.5421
  127SOPE    HS13590   6.219   5.000   3.195  0.5404 -0.3543 -0.5203
  127SOPE   O2113591   6.418   4.998   3.275 -0.1854 -0.1849  0.2082
  127SOPE   C2113592   6.397   5.104   3.346 -0.3901  0.7456  0.1922
  127SOPE   O2213593   6.294   5.163   3.365  0.0902 -0.1489 -0.0401
  127SOPE   C2213594   6.539   5.142   3.399  0.4450  0.1653 -0.0748
  127SOPE   H2R13595   6.593   5.203   3.324 -0.9197  0.5059 -0.8262
  127SOPE   H2S13596   6.596   5.050   3.424 -0.7085 -0.9092 -1.2477
  127SOPE    C313597   6.255   4.823   3.322  0.0105 -0.6212 -0.2824
  127SOPE    HX13598   6.322   4.735   3.329 -0.1716 -0.7688 -0.4145
  127SOPE    HY13599   6.163   4.782   3.277  0.7331 -0.2750 -2.1616
  127SOPE   O3113600   6.238   4.878   3.458  0.1396 -1.1097 -0.1319
  127SOPE   C3113601   6.122   4.940   3.468  0.4146 -0.3657 -0.8076
  127SOPE   O3213602   6.047   4.966   3.373 -0.3019  0.5148  0.3949
  127SOPE   C3213603   6.096   4.967   3.610  0.0896  0.0189 -0.2245
  127SOPE   H2X13604   6.161   5.054   3.636  0.7401 -0.5798  0.1732
  127SOPE   H2Y13605   6.122   4.869   3.655 -0.6406 -1.6112 -3.1224
  127SOPE   C2313606   6.524   5.242   3.510  0.9940 -0.3404  0.6255
  127SOPE   H3R13607   6.453   5.325   3.488 -0.3585 -1.6178 -0.0481
  127SOPE   H3S13608   6.622   5.294   3.521  0.4345  0.5731  1.5119
  127SOPE   C2413609   6.494   5.161   3.641 -0.0425 -0.1683 -0.0083
  127SOPE   H4R13610   6.402   5.099   3.639 -0.1924  0.0165  0.7787
  127SOPE   H4S13611   6.576   5.096   3.678 -1.3752 -0.7347  2.1136
  127SOPE   C2513612   6.503   5.252   3.763 -0.2691  0.3063  0.3790
  127SOPE   H5R13613   6.610   5.281   3.768 -0.1153 -0.2903  0.7562
  127SOPE   H5S13614   6.436   5.340   3.764  0.5146  0.9168  1.3145
  127SOPE   C2613615   6.475   5.187   3.888 -0.1595 -0.2347 -0.4028
  127SOPE   H6R13616   6.370   5.150   3.890 -0.0058 -0.7173 -0.9231
  127SOPE   H6S13617   6.534   5.094   3.898 -1.2892 -1.1105 -1.4932
  127SOPE   C2713618   6.516   5.265   4.014 -0.4348 -0.7273 -0.5690
  127SOPE   H7R13619   6.624   5.290   4.006 -1.0526  1.7008 -2.8211
  127SOPE   H7S13620   6.460   5.361   4.016 -1.6745 -1.4319 -0.3261
  127SOPE   C2813621   6.485   5.207   4.151  0.8482  0.2174  0.1815
  127SOPE   H8R13622   6.378   5.184   4.166  1.1705  0.1863  3.1270
  127SOPE   H8S13623   6.540   5.112   4.170 -0.8966 -0.8142  0.2885
  127SOPE   C2913624   6.534   5.295   4.259 -0.4490 -0.1220 -0.6751
  127SOPE   H9113625   6.626   5.348   4.228  0.1752 -0.8757 -0.1455
  127SOPE  C21013626   6.502   5.285   4.387  0.2736 -0.6883  0.1430
  127SOPE  H10113627   6.560   5.359   4.444  0.1479  0.5427 -1.2697
  127SOPE  C21113628   6.396   5.195   4.453 -0.5355 -0.5155  0.0604
  127SOPE  H11R13629   6.389   5.097   4.401 -0.2395 -0.1863 -0.6241
  127SOPE  H11S13630   6.293   5.236   4.439 -0.5820 -1.2329 -2.0825
  127SOPE  C21213631   6.434   5.166   4.595  0.9312 -1.2291 -0.2271
  127SOPE  H12R13632   6.352   5.100   4.631  0.5455 -2.3484 -2.9226
  127SOPE  H12S13633   6.434   5.257   4.659  0.8674 -0.0255 -1.8905
  127SOPE  C21313634   6.559   5.096   4.614 -0.6613  0.2940 -0.0909
  127SOPE  H13R13635   6.643   5.160   4.581 -0.4656 -0.7393 -1.6974
  127SOPE  H13S13636   6.564   4.996   4.567  0.2639 -0.3585  1.3202
  127SOPE  C21413637   6.589   5.085   4.769  0.2836  0.0408  0.2225
  127SOPE  H14R13638   6.500   5.031   4.807 -2.1884  3.0635 -0.8128
  127SOPE  H14S13639   6.584   5.185   4.816  0.0200  1.5673 -2.8189
  127SOPE  C21513640   6.722   5.002   4.795 -0.0819  0.2832 -0.0129
  127SOPE  H15R13641   6.806   5.072   4.779 -1.0804  1.5419  0.0640
  127SOPE  H15S13642   6.737   4.928   4.713  1.6893 -1.6879  1.9604
  127SOPE  C21613643   6.738   4.938   4.931 -0.0747 -0.4609 -1.0930
  127SOPE  H16R13644   6.654   4.866   4.932 -0.3812 -0.1837  2.0854
  127SOPE  H16S13645   6.712   5.011   5.011 -0.9385 -1.9953  0.0640
  127SOPE  C21713646   6.872   4.879   4.971 -0.1137  0.0252 -0.4607
  127SOPE  H17R13647   6.865   4.818   5.063 -0.8426  1.3286  0.3804
  127SOPE  H17S13648   6.941   4.963   4.992 -0.5078  0.3502 -0.4736
  127SOPE  C21813649   6.932   4.783   4.855 -0.5225  0.4119 -0.2805
  127SOPE  H18R13650   6.850   4.720   4.815 -0.2830 -0.7514  1.0079
  127SOPE  H18S13651   7.020   4.730   4.897 -0.1477  0.0460 -1.4648
  127SOPE  H18T13652   6.958   4.845   4.766  0.1394 -1.5173 -1.4990
  127SOPE   C3313653   5.947   4.992   3.653  0.6034  0.0570 -0.3899
  127SOPE   H3X13654   5.886   4.902   3.627  2.5209 -1.9913  1.7024
  127SOPE   H3Y13655   5.914   5.072   3.584 -0.8751  0.6210  0.9348
  127SOPE   C3413656   5.935   5.040   3.801 -0.5220  0.0498  0.4461
  127SOPE   H4X13657   5.981   4.977   3.880 -0.2631  0.7369  0.8560
  127SOPE   H4Y13658   5.825   5.039   3.814 -0.9718  0.1815 -2.6018
  127SOPE   C3513659   5.988   5.183   3.811  0.3386 -0.2591  0.3672
  127SOPE   H5X13660   5.924   5.248   3.749 -0.0754  1.5468  2.5542
  127SOPE   H5Y13661   6.094   5.197   3.779  0.5041 -0.1817  0.9202
  127SOPE   C3613662   5.967   5.232   3.955  0.1463  0.0300  0.3486
  127SOPE   H6X13663   5.868   5.196   3.989  0.0740 -2.4362 -2.0953
  127SOPE   H6Y13664   5.964   5.343   3.952  2.2377  0.1559  1.3746
  127SOPE   C3713665   6.073   5.182   4.048  0.4265 -0.5563  0.7624
  127SOPE   H7X13666   6.173   5.226   4.025  0.8273 -0.8865  1.7846
  127SOPE   H7Y13667   6.085   5.072   4.038  1.6396 -0.4350  0.6320
  127SOPE   C3813668   6.063   5.223   4.194 -0.4077 -0.0512 -0.5533
  127SOPE   H8X13669   6.070   5.334   4.193 -0.6652 -0.0097  0.7548
  127SOPE   H8Y13670   6.154   5.184   4.244 -0.4098  1.0437  0.3393
  127SOPE   C3913671   5.947   5.165   4.276  0.0431  0.4463  0.0163
  127SOPE   H9X13672   5.956   5.055   4.261  0.0116  0.7317 -2.5900
  127SOPE   H9Y13673   5.855   5.203   4.228  0.3839  1.2626 -0.0124
  127SOPE  C31013674   5.957   5.199   4.425  0.9706 -0.0910  0.7152
  127SOPE  H10X13675   5.943   5.309   4.423 -0.2458 -0.2268  0.3091
  127SOPE  H10Y13676   6.055   5.183   4.473 -0.4310  1.7940  4.5977
  127SOPE  C31113677   5.845   5.128   4.499 -0.0582 -0.6014 -0.2287
  127SOPE  H11X13678   5.839   5.021   4.469  0.5688 -0.6986 -0.0194
  127SOPE  H11Y13679   5.753   5.185   4.471  0.9792  0.1876 -2.2090
  127SOPE  C31213680   5.848   5.127   4.654 -0.2993  0.1232  0.4950
  127SOPE  H12X13681   5.742   5.117   4.685 -1.1429 -0.2642 -2.2271
  127SOPE  H12Y13682   5.872   5.229   4.691  0.9640 -0.1596  0.5058
  127SOPE  C31313683   5.949   5.023   4.715  0.7425 -0.2711  0.5729
  127SOPE  H13X13684   6.032   5.001   4.645  0.2734 -1.5213  0.3828
  127SOPE  H13Y13685   5.884   4.934   4.728 -0.2344  0.5997  1.8296
  127SOPE  C31413686   6.014   5.074   4.845  0.0353 -0.1908 -0.3310
  127SOPE  H14X13687   5.930   5.105   4.910 -0.4602  2.5315 -2.0669
  127SOPE  H14Y13688   6.065   5.168   4.816 -0.2399 -0.3025 -1.2204
  127SOPE  C31513689   6.127   4.986   4.921  0.7234 -0.0982 -0.0915
  127SOPE  H15X13690   6.188   4.936   4.842  0.7296  0.2689 -0.3179
  127SOPE  H15Y13691   6.072   4.903   4.970 -3.1125  1.8185 -0.8366
  127SOPE  C31613692   6.213   5.060   5.024 -1.0515  0.4382  0.0640
  127SOPE  H16X13693   6.257   5.150   4.977 -0.2799 -0.4693 -1.0177
  127SOPE  H16Y13694   6.298   5.000   5.064 -0.6850 -0.1954 -1.5915
  127SOPE  C31713695   6.132   5.118   5.139 -0.2386 -0.2980  0.7876
  127SOPE  H17X13696   6.048   5.173   5.090  0.8503  1.5367  0.8836
  127SOPE  H17Y13697   6.191   5.199   5.187 -1.1823 -0.4275  2.2376
  127SOPE  C31813698   6.092   5.021   5.243  0.7239 -0.1858  0.2523
  127SOPE  H18X13699   6.077   5.081   5.335 -0.3135  1.5142 -0.9614
  127SOPE  H18Y13700   6.168   4.941   5.250  0.8805  0.0938  2.1939
  127SOPE  H18Z13701   5.991   4.976   5.228  1.5302 -1.2106 -2.7130
  128SOPE     N13702   2.073   3.889   2.848  0.1822  0.0643  0.0051
  128SOPE   HN113703   2.139   3.814   2.819 -1.3871 -2.8621  3.1588
  128SOPE   HN213704   2.091   3.976   2.795 -1.1807  0.2735 -0.1737
  128SOPE   HN313705   2.082   3.913   2.949 -0.7931  0.4999  0.0064
  128SOPE   C1213706   1.935   3.834   2.826  0.2443 -0.6410 -0.3768
  128SOPE  H12A13707   1.913   3.822   2.718  1.8672  2.6304 -1.2108
  128SOPE  H12B13708   1.869   3.912   2.869  1.7176  0.6818 -0.3880
  128SOPE   C1113709   1.933   3.702   2.896  0.1433  0.7021 -0.0578
  128SOPE  H11A13710   1.828   3.666   2.905  0.9022 -1.2040  2.9028
  128SOPE  H11B13711   1.966   3.706   3.002 -1.8548 -1.7113  0.7632
  128SOPE     P13712   1.981   3.445   2.853  0.3128  0.2082  0.0481
  128SOPE   O1313713   2.099   3.365   2.837  0.1878  0.2567  0.3762
  128SOPE   O1413714   1.860   3.404   2.769 -0.4450  0.0731  0.0393
  128SOPE   O1213715   2.013   3.598   2.830  0.6951  0.2392 -0.3151
  128SOPE   O1113716   1.939   3.429   3.005 -0.0449  0.4032  0.2489
  128SOPE    C113717   2.025   3.483   3.109  0.0904  0.2929 -0.4655
  128SOPE    HA13718   1.969   3.564   3.160  0.2437  1.4208 -2.0289
  128SOPE    HB13719   2.106   3.552   3.076  1.1056 -0.1901  0.9105
  128SOPE    C213720   2.068   3.375   3.209 -0.2800 -0.1857 -0.4769
  128SOPE    HS13721   2.097   3.284   3.151  0.8828 -1.7907  2.4268
  128SOPE   O2113722   1.958   3.355   3.301 -0.0759  0.2114 -0.4549
  128SOPE   C2113723   1.960   3.239   3.368  0.0469  0.0887 -0.4076
  128SOPE   O2213724   2.045   3.155   3.358 -0.6821 -0.4748  0.3210
  128SOPE   C2213725   1.840   3.225   3.459 -0.0192  0.1537  0.0087
  128SOPE   H2R13726   1.749   3.264   3.408 -0.5821  0.5288  1.2583
  128SOPE   H2S13727   1.845   3.308   3.532 -1.6031  0.8320 -0.6128
  128SOPE    C313728   2.189   3.418   3.300  0.1787 -0.2866 -0.5092
  128SOPE    HX13729   2.284   3.427   3.243  0.2597  1.3228 -0.1691
  128SOPE    HY13730   2.206   3.333   3.370  0.6526  1.2428  1.3174
  128SOPE   O3113731   2.178   3.555   3.365  0.4503  0.5191  0.6746
  128SOPE   C3113732   2.138   3.547   3.492  0.4286  0.3398 -0.1612
  128SOPE   O3213733   2.123   3.444   3.558 -0.0718 -0.4128 -0.1679
  128SOPE   C3213734   2.102   3.685   3.547  0.6377  0.1656 -0.0253
  128SOPE   H2X13735   2.160   3.764   3.496 -0.3214  0.8294 -0.1138
  128SOPE   H2Y13736   2.136   3.674   3.652 -0.2292  2.3231  0.5314
  128SOPE   C2313737   1.829   3.087   3.537  0.8538 -0.1107 -0.8027
  128SOPE   H3R13738   1.921   3.067   3.595 -0.0655  0.9366  1.1039
  128SOPE   H3S13739   1.823   3.015   3.452  1.3587  1.2976 -2.0759
  128SOPE   C2413740   1.701   3.063   3.623  0.0863  0.5544  0.1901
  128SOPE   H4R13741   1.618   3.079   3.551 -0.6763  1.5279  1.2355
  128SOPE   H4S13742   1.697   2.961   3.665 -0.1195 -0.1959 -1.5502
  128SOPE   C2513743   1.672   3.165   3.732 -0.4647 -0.0248 -0.2507
  128SOPE   H5R13744   1.729   3.140   3.824  1.1860 -0.1436 -1.2665
  128SOPE   H5S13745   1.701   3.270   3.710 -0.7803  0.2653  0.6414
  128SOPE   C2613746   1.520   3.166   3.771 -0.0518  0.3544  1.2812
  128SOPE   H6R13747   1.480   3.242   3.841 -0.9618  0.4202  0.6997
  128SOPE   H6S13748   1.457   3.190   3.683  2.5604  0.6856 -0.6148
  128SOPE   C2713749   1.471   3.030   3.823 -0.8635  0.2612  0.2961
  128SOPE   H7R13750   1.362   3.034   3.848 -0.4703 -0.7578  2.4369
  128SOPE   H7S13751   1.493   2.950   3.750  0.4231 -0.3580  1.3176
  128SOPE   C2813752   1.540   3.003   3.960  0.5837  0.1471 -0.0833
  128SOPE   H8R13753   1.647   2.979   3.943  0.3518 -1.6270  0.7067
  128SOPE   H8S13754   1.525   3.096   4.019 -1.4713  0.3990 -0.9381
  128SOPE   C2913755   1.469   2.890   4.019 -0.0898  0.4524  0.2720
  128SOPE   H9113756   1.399   2.832   3.957  2.3092 -1.9305 -0.3876
  128SOPE  C21013757   1.487   2.840   4.139  0.2517  0.1028  0.5378
  128SOPE  H10113758   1.428   2.750   4.159 -0.0704 -0.1602 -1.4416
  128SOPE  C21113759   1.572   2.893   4.248  0.6720 -0.1896 -0.3028
  128SOPE  H11R13760   1.624   2.985   4.214 -1.2931  0.7370 -0.9599
  128SOPE  H11S13761   1.645   2.812   4.272  1.4254  0.1232 -1.4658
  128SOPE  C21213762   1.491   2.912   4.375 -0.3501 -0.5006 -0.9740
  128SOPE  H12R13763   1.459   2.809   4.399  0.0116 -0.2669  0.6306
  128SOPE  H12S13764   1.404   2.979   4.357  0.6356  0.7529 -1.2891
  128SOPE  C21313765   1.570   2.960   4.496  0.1693  0.0203  0.1360
  128SOPE  H13R13766   1.594   3.066   4.475 -2.3660  0.2902 -1.8720
  128SOPE  H13S13767   1.663   2.900   4.503  0.3749  0.4457  1.1332
  128SOPE  C21413768   1.490   2.963   4.626 -0.0447 -0.5005  0.9312
  128SOPE  H14R13769   1.409   2.887   4.634 -0.7361 -0.0559 -1.3162
  128SOPE  H14S13770   1.437   3.059   4.612  1.8729  0.4068 -0.5339
  128SOPE  C21513771   1.586   2.966   4.741 -0.3358 -0.1425 -0.0232
  128SOPE  H15R13772   1.676   3.024   4.712 -0.1592  0.9169  2.4180
  128SOPE  H15S13773   1.630   2.870   4.774 -0.3174  0.4588  1.8397
  128SOPE  C21613774   1.517   3.023   4.868 -0.0730  0.4920  0.5009
  128SOPE  H16R13775   1.435   2.951   4.890  0.4852  0.3366  2.1854
  128SOPE  H16S13776   1.477   3.122   4.836 -1.6765 -0.3947 -0.3629
  128SOPE  C21713777   1.605   3.033   4.993  0.3366 -0.1442 -1.0177
  128SOPE  H17R13778   1.651   2.932   4.998  0.2489 -0.1337  0.5794
  128SOPE  H17S13779   1.538   3.038   5.081  1.3148 -0.2179 -0.2534
  128SOPE  C21813780   1.698   3.156   5.002  0.2192 -0.2961 -0.2737
  128SOPE  H18R13781   1.774   3.127   5.077 -0.8743  1.8608  1.7989
  128SOPE  H18S13782   1.638   3.243   5.035  1.8021 -0.0028  2.0905
  128SOPE  H18T13783   1.753   3.177   4.907  0.1256  2.1328  0.1338
  128SOPE   C3313784   1.948   3.713   3.537 -0.4567  0.1932 -0.1283
  128SOPE   H3X13785   1.890   3.646   3.604 -1.4671  0.2942 -0.8822
  128SOPE   H3Y13786   1.904   3.686   3.439 -0.2382 -0.8563  0.0523
  128SOPE   C3413787   1.913   3.850   3.580  0.2222 -0.0903 -0.3365
  128SOPE   H4X13788   1.802   3.856   3.570  0.5034  2.2234 -4.8708
  128SOPE   H4Y13789   1.965   3.925   3.517  2.2918 -0.7525  0.5038
  128SOPE   C3513790   1.955   3.864   3.724  0.1207 -0.9267 -0.3641
  128SOPE   H5X13791   2.064   3.879   3.738  0.0537 -1.0629  0.3410
  128SOPE   H5Y13792   1.938   3.770   3.782 -0.3724  0.6457  2.1774
  128SOPE   C3613793   1.904   3.991   3.798 -0.1080 -0.4649 -0.2396
  128SOPE   H6X13794   1.796   3.978   3.823  0.2025 -2.2652  0.3619
  128SOPE   H6Y13795   1.919   4.076   3.729  0.5746 -1.5823 -1.5152
  128SOPE   C3713796   1.991   4.023   3.917 -0.4618  0.0750 -0.0383
  128SOPE   H7X13797   1.952   4.118   3.960 -0.5454  0.3798 -0.7701
  128SOPE   H7Y13798   2.094   4.056   3.891 -0.3996  0.2289  0.4075
  128SOPE   C3813799   1.981   3.913   4.017  0.0878  0.3844 -0.2503
  128SOPE   H8X13800   2.030   3.819   3.983 -0.0464 -0.0413  0.6835
  128SOPE   H8Y13801   1.875   3.886   4.034  0.5006 -0.8608  0.5835
  128SOPE   C3913802   2.048   3.954   4.141 -0.5678  1.1442 -0.3037
  128SOPE   H9X13803   2.132   4.022   4.113 -0.6502  1.4984  0.2947
  128SOPE   H9Y13804   2.095   3.867   4.192 -1.2545  1.0180  0.1273
  128SOPE  C31013805   1.948   4.014   4.243  0.4161 -0.2522  0.9165
  128SOPE  H10X13806   1.889   3.924   4.270  1.7698 -0.9429  1.6470
  128SOPE  H10Y13807   1.875   4.091   4.211  0.4632 -0.5057  0.1747
  128SOPE  C31113808   1.995   4.085   4.375  0.1777  0.3162 -0.3066
  128SOPE  H11X13809   1.899   4.104   4.428 -0.9419 -0.3791 -1.9957
  128SOPE  H11Y13810   2.034   4.187   4.354 -0.0505  0.6702  0.9366
  128SOPE  C31213811   2.090   3.996   4.461 -0.4430 -0.1443  0.2273
  128SOPE  H12X13812   2.184   3.995   4.402 -0.8919 -0.9310 -0.4952
  128SOPE  H12Y13813   2.058   3.890   4.475 -2.8623  0.3482 -0.9537
  128SOPE  C31313814   2.117   4.054   4.604 -0.1689  0.5127 -0.4973
  128SOPE  H13X13815   2.130   4.164   4.602  2.4792  0.3374  1.6238
  128SOPE  H13Y13816   2.214   4.013   4.639 -0.2854 -0.7231 -1.5436
  128SOPE  C31413817   2.010   4.000   4.698  0.0586  0.2864  0.0260
  128SOPE  H14X13818   1.998   3.891   4.684 -1.1677  0.6073 -1.7519
  128SOPE  H14Y13819   1.909   4.039   4.672  1.3200  5.6054  1.7225
  128SOPE  C31513820   2.054   4.032   4.836 -0.4600 -0.4188 -0.6831
  128SOPE  H15X13821   2.060   4.143   4.831  2.8682 -0.5333 -1.3526
  128SOPE  H15Y13822   2.158   3.996   4.847 -0.4459 -0.3818 -0.7009
  128SOPE  C31613823   1.961   3.986   4.947  0.1333  0.6465  1.3584
  128SOPE  H16X13824   1.949   3.876   4.942 -0.5465  0.7699  0.0087
  128SOPE  H16Y13825   1.860   4.025   4.922  0.3929  0.2822 -0.4044
  128SOPE  C31713826   2.001   4.038   5.081 -0.3638  0.3270 -0.8244
  128SOPE  H17X13827   1.912   4.018   5.145  0.8826 -3.4355 -0.0082
  128SOPE  H17Y13828   2.009   4.149   5.083  0.1272  0.3128  2.2062
  128SOPE  C31813829   2.133   3.991   5.139 -0.5412 -0.3644  0.3549
  128SOPE  H18X13830   2.156   4.048   5.231  1.6557 -1.3025  0.4646
  128SOPE  H18Y13831   2.213   4.027   5.070 -0.7342 -0.7729 -0.0852
  128SOPE  H18Z13832   2.134   3.880   5.146 -2.3263 -0.3882  0.6766
  129OSM      N13833   5.751   4.889   7.927 -0.8878 -0.0450  0.1061
  129OSM    C1513834   5.640   4.788   7.946  0.4320  0.8627 -0.2253
  129OSM   H15A13835   5.691   4.694   7.933  0.8238  1.1194 -0.5868
  129OSM   H15B13836   5.559   4.800   7.876 -0.1188  0.2423  0.3032
  129OSM   H15C13837   5.611   4.780   8.049  2.1285  3.1291  0.5461
  129OSM    C1413838   5.705   5.027   7.951 -0.4013 -0.3698 -0.4554
  129OSM   H14A13839   5.630   5.062   7.881 -0.8703  0.9723  0.6743
  129OSM   H14B13840   5.786   5.096   7.934 -1.1602  0.7788  0.4844
  129OSM   H14C13841   5.666   5.037   8.050 -0.4705 -2.1245 -0.2760
  129OSM    C1313842   5.859   4.847   8.031  0.1551  0.2616  0.7095
  129OSM   H13A13843   5.920   4.929   8.067 -0.0190  0.0371  1.5357
  129OSM   H13B13844   5.920   4.773   7.982 -1.4508 -1.6265  1.4167
  129OSM   H13C13845   5.810   4.811   8.120 -1.6190  0.1919 -0.2446
  129OSM    C1213846   5.815   4.881   7.791  0.1682  0.1587  0.4016
  129OSM   H12A13847   5.841   4.779   7.767  0.1929  0.4417 -0.8270
  129OSM   H12B13848   5.904   4.943   7.796  1.9091 -2.2681  1.9655
  129OSM    C1113849   5.735   4.932   7.667 -0.4890 -0.4525  0.1708
  129OSM   H11A13850   5.642   4.872   7.671 -0.7146 -0.0142  2.0896
  129OSM   H11B13851   5.789   4.907   7.573  3.0477  0.1039  1.8989
  129OSM      P13852   5.793   5.182   7.635 -0.1213  0.0894  0.3230
  129OSM    O1313853   5.714   5.303   7.674 -0.1516  0.1642  0.4152
  129OSM    O1413854   5.924   5.158   7.708  0.7305 -0.2320  1.0862
  129OSM    O1113855   5.822   5.193   7.484 -0.6773 -0.0334  0.6103
  129OSM    O1213856   5.696   5.067   7.661 -0.0743  0.3000  0.2645
  129OSM    C1S13857   5.728   5.234   7.386 -0.3490  0.1947  0.2129
  129OSM    H1S13858   5.698   5.340   7.403 -1.4276 -0.1763  0.7611
  129OSM    H1T13859   5.635   5.173   7.390  0.3358 -1.1526 -2.5162
  129OSM     NF13860   5.701   5.239   7.143  0.1727 -0.0778  0.2698
  129OSM    HNF13861   5.649   5.172   7.090  2.1567 -2.0595  0.6641
  129OSM    C2S13862   5.784   5.190   7.252  0.8295  0.1014  0.6782
  129OSM    H2S13863   5.886   5.231   7.235  0.9272 -0.2762  0.3245
  129OSM    C3S13864   5.802   5.031   7.267  0.2821  0.0861  0.4171
  129OSM    H3S13865   5.709   4.999   7.318  0.2096  0.3260  0.4396
  129OSM     O313866   5.911   4.979   7.350  0.5926  0.1231 -0.4385
  129OSM    HO313867   5.918   5.052   7.412  0.0593 -0.7215  0.6452
  129OSM    C4S13868   5.815   4.951   7.138  0.4959 -0.3151 -0.5074
  129OSM    H4S13869   5.883   4.997   7.065  0.0777 -1.2183 -1.4864
  129OSM    C5S13870   5.753   4.836   7.103  0.1995 -0.7820 -0.3632
  129OSM    H5S13871   5.674   4.796   7.168  0.4653  0.0609  0.4990
  129OSM    C6S13872   5.765   4.773   6.968  0.4487 -0.0693  0.7420
  129OSM    H6S13873   5.707   4.841   6.902  1.1021  1.4870  1.7120
  129OSM    H6T13874   5.714   4.674   6.968 -0.5470  0.4321 -0.1606
  129OSM    C7S13875   5.904   4.751   6.902 -0.3359  0.5835  0.3930
  129OSM    H7S13876   5.985   4.755   6.977  1.2258  1.7238 -1.2782
  129OSM    H7T13877   5.907   4.845   6.842  2.7277 -0.3343 -1.0953
  129OSM    C8S13878   5.908   4.631   6.802 -0.1474 -0.2373 -0.5265
  129OSM    H8S13879   5.883   4.536   6.853  0.8602 -0.1049  0.2318
  129OSM    H8T13880   6.016   4.620   6.783 -0.1726 -2.8837  0.4380
  129OSM    C9S13881   5.826   4.639   6.673 -0.1160  0.1723 -0.0919
  129OSM    H9S13882   5.718   4.660   6.692  0.4370  2.9812  0.2909
  129OSM    H9T13883   5.845   4.537   6.632  3.0244 -0.2482  2.0448
  129OSM   C10S13884   5.884   4.738   6.570  0.7065 -0.0744  0.2877
  129OSM   H10S13885   5.994   4.746   6.582  0.9313 -0.7515 -1.1777
  129OSM   H10T13886   5.849   4.840   6.600 -0.0971  0.7328 -3.0231
  129OSM   C11S13887   5.829   4.720   6.435 -0.7275  0.1324  1.0150
  129OSM   H11S13888   5.721   4.748   6.437 -0.3740  1.6877  0.0544
  129OSM   H11T13889   5.843   4.615   6.401 -0.8770  0.8344 -1.4186
  129OSM   C12S13890   5.892   4.806   6.329  0.1469  0.2006  0.6615
  129OSM   H12S13891   6.001   4.792   6.342 -0.0941 -1.7490  0.8731
  129OSM   H12T13892   5.866   4.911   6.357  1.5413  0.8702 -0.4228
  129OSM   C13S13893   5.831   4.775   6.190 -0.0402 -0.0172  0.0471
  129OSM   H13S13894   5.729   4.819   6.184 -0.1863 -0.1708  1.2163
  129OSM   H13T13895   5.832   4.667   6.165 -1.8614  0.3113 -1.7333
  129OSM   C14S13896   5.912   4.851   6.072  0.8817  0.3217  0.1324
  129OSM   H14S13897   6.016   4.813   6.072  0.5239 -0.8181  2.0674
  129OSM   H14T13898   5.925   4.960   6.091  0.8762  0.7431 -1.9898
  129OSM   C15S13899   5.841   4.835   5.940  0.3565 -0.6686  0.9461
  129OSM   H15S13900   5.743   4.887   5.935  1.3674  1.2143 -0.5590
  129OSM   H15T13901   5.845   4.729   5.907  0.6845 -0.1879 -0.6684
  129OSM   C16S13902   5.930   4.908   5.829  0.1163 -0.9838 -0.3494
  129OSM   H16S13903   6.039   4.895   5.847  0.1158 -3.4764 -1.6868
  129OSM   H16T13904   5.908   5.016   5.844 -1.2606 -1.3228  0.2064
  129OSM   C17S13905   5.888   4.883   5.690  0.0417  0.1471  0.1930
  129OSM   H17S13906   5.780   4.908   5.695 -0.0667 -0.4999  2.2037
  129OSM   H17T13907   5.880   4.776   5.660  2.0575  0.1384 -0.5211
  129OSM   C18S13908   5.972   4.966   5.597 -0.2355  0.3799 -0.1729
  129OSM   H18S13909   5.925   4.977   5.497  1.1606 -1.4922 -1.0843
  129OSM   H18T13910   6.072   4.922   5.578  0.2992  2.2485 -2.1392
  129OSM   H18U13911   5.981   5.069   5.637 -1.2779 -0.3725  2.1773
  129OSM    C1F13912   5.706   5.373   7.123  0.5473 -0.1432  0.1393
  129OSM     OF13913   5.787   5.444   7.177 -0.5262 -0.1303  0.2370
  129OSM    C2F13914   5.628   5.441   7.015 -0.2286  0.0430 -0.3439
  129OSM    H2F13915   5.524   5.451   7.051 -0.2267 -2.8184  0.7416
  129OSM    H2G13916   5.609   5.371   6.931  1.8102  2.4234 -2.9792
  129OSM    C3F13917   5.680   5.577   6.963 -0.6514  0.7798  0.5805
  129OSM    H3F13918   5.789   5.574   6.944 -0.7080 -1.7181  0.2640
  129OSM    H3G13919   5.692   5.644   7.050 -0.5446 -0.5309  1.6046
  129OSM    C4F13920   5.601   5.642   6.853  0.0997 -0.3025 -0.4932
  129OSM    H4F13921   5.644   5.743   6.839  1.3388 -1.0040 -2.0641
  129OSM    H4G13922   5.493   5.653   6.878  0.5588  0.1110  1.4582
  129OSM    C5F13923   5.608   5.576   6.716 -0.0158  0.0665  0.0441
  129OSM    H5F13924   5.569   5.472   6.720  2.3964 -0.9193 -0.6006
  129OSM    H5G13925   5.712   5.565   6.679  0.0079 -0.3631  0.2299
  129OSM    C6F13926   5.537   5.654   6.608  0.4964 -0.0649 -0.8973
  129OSM    H6F13927   5.582   5.756   6.612  1.5915 -0.5290 -1.0825
  129OSM    H6G13928   5.429   5.660   6.635  0.8724 -1.6211  1.2319
  129OSM    C7F13929   5.543   5.574   6.474  0.3646 -0.4896 -0.0177
  129OSM    H7F13930   5.462   5.609   6.406 -0.3901  0.7246  1.4410
  129OSM    H7G13931   5.537   5.465   6.492 -3.6385 -0.1419  1.8681
  129OSM    C8F13932   5.672   5.615   6.394  0.5654  0.5624 -0.0136
  129OSM    H8F13933   5.757   5.568   6.446 -0.6401  2.3495  4.0568
  129OSM    H8G13934   5.682   5.726   6.391 -0.3604  0.6613 -2.7838
  129OSM    C9F13935   5.662   5.564   6.253 -0.4948  0.5560 -0.9866
  129OSM    H9F13936   5.571   5.508   6.227 -0.0180 -0.7202 -0.0561
  129OSM   C10F13937   5.732   5.600   6.148  0.3503 -0.5084 -0.0116
  129OSM   H10F13938   5.699   5.570   6.047  0.1410  0.3538 -0.2024
  129OSM   C11F13939   5.843   5.708   6.154 -0.2006 -0.0917  0.1031
  129OSM   H11F13940   5.937   5.652   6.171 -1.8465 -2.5078  2.1050
  129OSM   H11G13941   5.838   5.788   6.230  0.3368 -1.8471  2.0787
  129OSM   C12F13942   5.847   5.795   6.014 -0.0098  0.0363  0.1098
  129OSM   H12F13943   5.914   5.881   6.037 -0.5028  0.5305 -0.2723
  129OSM   H12G13944   5.742   5.831   6.005 -0.0541  0.0079  0.5327
  129OSM   C13F13945   5.870   5.731   5.880  0.0939 -0.5704 -0.3186
  129OSM   H13F13946   5.805   5.641   5.874 -0.3639 -0.3845  1.4221
  129OSM   H13G13947   5.973   5.691   5.869 -0.4228 -1.9492 -0.4061
  129OSM   C14F13948   5.840   5.826   5.761  0.0984 -0.1908  0.5262
  129OSM   H14F13949   5.918   5.905   5.771  0.5987 -0.8464  2.1939
  129OSM   H14G13950   5.739   5.868   5.782 -0.1426 -0.3902 -0.2227
  129OSM   C15F13951   5.853   5.761   5.628  0.1499  0.4788 -0.1085
  129OSM   H15F13952   5.808   5.659   5.628  0.3750  0.3255  2.1255
  129OSM   H15G13953   5.960   5.743   5.604 -0.2018  0.2496 -1.5689
  129OSM   C16F13954   5.799   5.842   5.503 -0.2877  0.2697 -0.5721
  129OSM   H16F13955   5.841   5.945   5.515 -0.8722  0.7127 -2.1452
  129OSM   H16G13956   5.688   5.846   5.507 -0.4130 -1.5647 -1.5113
  129OSM   C17F13957   5.845   5.782   5.370  0.0363 -0.8137 -0.8025
  129OSM   H17F13958   5.956   5.772   5.375  0.1514  0.6715  0.1465
  129OSM   H17G13959   5.832   5.861   5.293 -0.0765  0.3063  0.3422
  129OSM   C18F13960   5.779   5.649   5.321 -0.7937  0.0629 -0.0414
  129OSM   H18F13961   5.669   5.664   5.327 -0.7256  0.3192  0.7080
  129OSM   H18G13962   5.805   5.568   5.392  0.1927  1.0702  0.7900
  129OSM   H18H13963   5.819   5.626   5.220 -1.2590 -0.3117 -0.1426
  130OSM      N13964   4.031   1.293   7.373  0.6346 -0.7856  0.2862
  130OSM    C1513965   4.001   1.329   7.229 -0.0769  0.0004 -0.1970
  130OSM   H15A13966   4.087   1.343   7.166 -1.4554 -1.3270 -2.4985
  130OSM   H15B13967   3.946   1.422   7.235 -1.4915 -0.7341 -1.4149
  130OSM   H15C13968   3.928   1.263   7.185 -0.4150  1.2562 -1.6233
  130OSM    C1413969   4.113   1.407   7.430 -0.4788 -0.8548 -0.0575
  130OSM   H14A13970   4.053   1.496   7.436  2.4877  1.3189 -0.7725
  130OSM   H14B13971   4.189   1.432   7.357 -1.3616 -0.3333 -0.8187
  130OSM   H14C13972   4.150   1.381   7.528  3.1249 -1.4373 -1.4195
  130OSM    C1313973   3.892   1.308   7.441  0.2378  0.1156  0.0006
  130OSM   H13A13974   3.815   1.267   7.377  1.0973  1.2485 -1.8535
  130OSM   H13B13975   3.872   1.414   7.447  1.0593  0.3963 -1.6511
  130OSM   H13C13976   3.889   1.269   7.542  3.1317 -3.7921 -1.1778
  130OSM    C1213977   4.091   1.160   7.394  0.4140  0.2285 -0.3630
  130OSM   H12A13978   4.019   1.080   7.381 -1.1609  1.5551 -0.2553
  130OSM   H12B13979   4.110   1.148   7.499 -1.7151  1.5963  0.2543
  130OSM    C1113980   4.226   1.124   7.322  1.1063  0.0749 -0.0408
  130OSM   H11A13981   4.220   1.127   7.211  2.2671  0.6251 -0.1010
  130OSM   H11B13982   4.243   1.015   7.327 -1.3232 -0.3753 -0.2836
  130OSM      P13983   4.426   1.164   7.489 -0.0636  0.0767 -0.0564
  130OSM    O1313984   4.491   1.295   7.526 -0.4292 -0.1608  0.3687
  130OSM    O1413985   4.349   1.094   7.591 -0.6812  0.2599 -0.1722
  130OSM    O1113986   4.532   1.070   7.423  0.3422 -0.0080  0.2118
  130OSM    O1213987   4.335   1.210   7.367  0.4967 -0.3028 -0.2125
  130OSM    C1S13988   4.601   1.123   7.305  0.0774  0.6058 -0.4203
  130OSM    H1S13989   4.698   1.167   7.338 -1.3874  0.8511  4.3408
  130OSM    H1T13990   4.565   1.205   7.239  2.4455  2.1328  0.0182
  130OSM     NF13991   4.674   1.050   7.067  0.3699  0.2684  0.1985
  130OSM    HNF13992   4.600   1.067   7.002 -0.6346 -0.4840  1.1156
  130OSM    C2S13993   4.622   1.003   7.193  0.0003 -0.5035 -0.0751
  130OSM    H2S13994   4.700   0.943   7.244  1.3569  0.6828 -0.7024
  130OSM    C3S13995   4.500   0.911   7.172 -0.5486 -0.2710 -0.5463
  130OSM    H3S13996   4.421   0.974   7.127 -0.8103  0.2092  0.5554
  130OSM     O313997   4.434   0.860   7.294 -0.3300 -0.2110  0.2390
  130OSM    HO313998   4.470   0.929   7.351  0.2307  0.4374 -0.8688
  130OSM    C4S13999   4.521   0.793   7.088 -0.0235 -0.0031 -0.2441
  130OSM    H4S14000   4.581   0.713   7.132 -1.2914 -0.9899 -0.2450
  130OSM    C5S14001   4.461   0.767   6.969 -0.1441 -0.1755 -0.4242
  130OSM    H5S14002   4.388   0.837   6.925 -0.4843  0.1774  0.6485
  130OSM    C6S14003   4.465   0.628   6.904 -0.0022  0.0224 -0.4354
  130OSM    H6S14004   4.377   0.565   6.930 -0.3593 -0.2274 -2.1764
  130OSM    H6T14005   4.556   0.574   6.939 -0.8179 -1.1132  0.0010
  130OSM    C7S14006   4.476   0.636   6.748  0.7980 -0.3161  0.2857
  130OSM    H7S14007   4.573   0.684   6.724  0.7577 -1.2291 -1.9827
  130OSM    H7T14008   4.394   0.704   6.717  0.1726 -1.5045 -0.7647
  130OSM    C8S14009   4.477   0.499   6.667  0.2442 -0.4896 -0.2893
  130OSM    H8S14010   4.380   0.449   6.688  1.4304 -2.8587 -0.0925
  130OSM    H8T14011   4.551   0.426   6.706 -0.1716 -0.5135  0.4791
  130OSM    C9S14012   4.498   0.520   6.505  1.0111  0.0223 -0.1250
  130OSM    H9S14013   4.510   0.416   6.468 -1.0715 -1.3178  2.5916
  130OSM    H9T14014   4.594   0.572   6.483  3.0259 -3.7637 -1.1326
  130OSM   C10S14015   4.383   0.591   6.436  0.1336 -0.4570 -0.6245
  130OSM   H10S14016   4.404   0.699   6.444 -2.0680 -0.0792  1.3154
  130OSM   H10T14017   4.288   0.579   6.493 -1.1773  0.4628 -2.5014
  130OSM   C11S14018   4.357   0.545   6.296 -0.0050 -0.3138 -0.1871
  130OSM   H11S14019   4.260   0.586   6.261 -0.9456 -0.3509  2.2078
  130OSM   H11T14020   4.337   0.436   6.298  0.6920 -0.4973  3.2086
  130OSM   C12S14021   4.460   0.593   6.195  0.1170  0.0758  0.6994
  130OSM   H12S14022   4.559   0.553   6.227 -0.3049 -3.7988 -2.2752
  130OSM   H12T14023   4.459   0.705   6.195 -0.2331  0.0747  0.3137
  130OSM   C13S14024   4.444   0.533   6.055 -0.3761  0.2336  0.4064
  130OSM   H13S14025   4.338   0.556   6.029 -0.5679 -0.0535  0.9148
  130OSM   H13T14026   4.449   0.422   6.059  1.3026  0.0542 -2.9952
  130OSM   C14S14027   4.537   0.586   5.944  0.5361 -0.1912 -0.3668
  130OSM   H14S14028   4.635   0.547   5.978  0.2566 -1.5160 -1.0180
  130OSM   H14T14029   4.540   0.698   5.945 -1.8132 -0.0912  0.6157
  130OSM   C15S14030   4.505   0.543   5.803 -0.0138  0.6690  0.8566
  130OSM   H15S14031   4.569   0.605   5.737  0.6771 -0.9105 -0.0244
  130OSM   H15T14032   4.401   0.573   5.780 -0.7478 -1.2369  1.5170
  130OSM   C16S14033   4.538   0.396   5.773 -0.6629  0.5219  0.6656
  130OSM   H16S14034   4.494   0.330   5.851  0.4714  0.7195  1.5002
  130OSM   H16T14035   4.646   0.377   5.790 -0.6888 -0.2227  0.0300
  130OSM   C17S14036   4.505   0.348   5.629 -0.1643  0.0575  1.0477
  130OSM   H17S14037   4.562   0.400   5.550 -2.3602  0.0298 -0.6402
  130OSM   H17T14038   4.397   0.370   5.614  0.1657  0.2364 -1.4309
  130OSM   C18S14039   4.512   0.198   5.603 -0.3414  0.0631  0.5520
  130OSM   H18S14040   4.463   0.181   5.505  0.2565 -0.1834  0.2891
  130OSM   H18T14041   4.461   0.143   5.685  0.4507 -0.2194  0.8727
  130OSM   H18U14042   4.614   0.153   5.603  0.3444  1.5547  0.9376
  130OSM    C1F14043   4.788   1.102   7.047  0.2870 -0.2333 -0.1097
  130OSM     OF14044   4.877   1.099   7.132  0.2817  0.2776 -0.0635
  130OSM    C2F14045   4.799   1.174   6.915  0.5239 -0.5103  0.3931
  130OSM    H2F14046   4.755   1.272   6.944  0.6239 -1.2099  3.2268
  130OSM    H2G14047   4.730   1.125   6.844  0.0574  0.6019  0.0516
  130OSM    C3F14048   4.946   1.181   6.872  0.0199  0.5840 -0.1341
  130OSM    H3F14049   4.987   1.078   6.864  2.0940  1.2584  0.9154
  130OSM    H3G14050   5.013   1.228   6.948  0.6405  0.6264 -0.7000
  130OSM    C4F14051   4.972   1.258   6.739  0.5967  0.1277 -0.1842
  130OSM    H4F14052   5.081   1.283   6.739  0.7801 -0.2267  3.1853
  130OSM    H4G14053   4.922   1.356   6.726 -2.2198 -1.3584 -1.3050
  130OSM    C5F14054   4.946   1.162   6.624 -0.9309 -0.9067  0.3646
  130OSM    H5F14055   4.837   1.141   6.627 -0.6513 -2.6240 -0.2444
  130OSM    H5G14056   5.005   1.072   6.652  0.9095  0.5899  1.5197
  130OSM    C6F14057   4.987   1.215   6.487 -0.1832  0.3155  0.1921
  130OSM    H6F14058   5.095   1.244   6.482  0.2389 -1.2133 -0.0784
  130OSM    H6G14059   4.923   1.302   6.463  2.0192  1.7718 -0.8067
  130OSM    C7F14060   4.951   1.115   6.380 -0.5578  0.7354 -0.0701
  130OSM    H7F14061   4.845   1.081   6.386 -0.1955 -0.2060  1.7694
  130OSM    H7G14062   5.014   1.023   6.377  0.9193  1.6776  1.0654
  130OSM    C8F14063   4.943   1.175   6.240  0.0602  0.3000  0.1792
  130OSM    H8F14064   4.879   1.265   6.243 -0.9359 -0.3198 -1.3974
  130OSM    H8G14065   4.900   1.102   6.168  2.4435  0.1787 -1.2315
  130OSM    C9F14066   5.088   1.205   6.201  0.6119 -1.1852  0.1343
  130OSM    H9F14067   5.128   1.278   6.272 -4.1471  0.8909  1.0400
  130OSM   C10F14068   5.167   1.150   6.108  0.7914  0.0221  0.4598
  130OSM   H10F14069   5.271   1.185   6.099  1.2146 -1.2078  0.3760
  130OSM   C11F14070   5.136   1.040   6.008  0.2650 -0.7115  1.0968
  130OSM   H11F14071   5.042   0.988   6.035 -0.1132 -0.9542 -0.5948
  130OSM   H11G14072   5.217   0.965   5.994 -0.7147 -1.5700 -0.2463
  130OSM   C12F14073   5.101   1.090   5.863  0.1447 -0.1098 -0.8235
  130OSM   H12F14074   5.044   1.185   5.870 -2.7327 -1.7980  0.2492
  130OSM   H12G14075   5.044   1.019   5.801  1.1499 -0.5355 -1.2841
  130OSM   C13F14076   5.230   1.117   5.788  0.1380 -0.1989 -0.0150
  130OSM   H13F14077   5.289   1.023   5.782  1.1562  0.5115 -4.5481
  130OSM   H13G14078   5.296   1.185   5.847  0.2387 -1.7177  1.6890
  130OSM   C14F14079   5.215   1.151   5.637  0.1007  0.1558 -0.9940
  130OSM   H14F14080   5.153   1.244   5.638  0.5834  0.4826  0.1663
  130OSM   H14G14081   5.158   1.065   5.595 -2.1919  0.9618  0.2501
  130OSM   C15F14082   5.344   1.176   5.568 -0.5068  0.0551 -0.1625
  130OSM   H15F14083   5.422   1.098   5.581  0.2633  1.1766  2.5910
  130OSM   H15G14084   5.385   1.269   5.612  0.6362 -0.0633 -0.9355
  130OSM   C16F14085   5.313   1.189   5.419 -1.0376  0.1222 -0.1592
  130OSM   H16F14086   5.227   1.258   5.403 -0.2161  1.5627  1.3482
  130OSM   H16G14087   5.273   1.093   5.379  0.9274 -0.2374 -1.4232
  130OSM   C17F14088   5.433   1.236   5.339  0.3381  0.0204  0.1798
  130OSM   H17F14089   5.524   1.172   5.352 -0.6876 -1.5765 -0.1697
  130OSM   H17G14090   5.445   1.337   5.382  3.3172  0.0683 -0.4927
  130OSM   C18F14091   5.404   1.243   5.188  0.2749 -0.0092  1.0148
  130OSM   H18F14092   5.474   1.316   5.140 -0.1479 -0.7723 -0.8155
  130OSM   H18G14093   5.300   1.271   5.161  1.7879  3.1332 -2.3997
  130OSM   H18H14094   5.437   1.146   5.146  0.9351  0.9126 -0.7037
  131OSM      N14095   5.377   3.931   7.318  0.0724 -0.3819 -0.6462
  131OSM    C1514096   5.231   3.973   7.339  0.0846 -1.1144  0.6061
  131OSM   H15A14097   5.237   4.062   7.400  0.2601 -0.7261  0.0378
  131OSM   H15B14098   5.169   3.895   7.380  1.9125 -2.3620  1.0802
  131OSM   H15C14099   5.186   4.012   7.248  1.3621 -0.1820  0.3549
  131OSM    C1414100   5.435   3.955   7.454  0.3468 -0.1958  0.2721
  131OSM   H14A14101   5.543   3.960   7.461  0.2139  0.1867  2.8482
  131OSM   H14B14102   5.409   3.875   7.521  1.8049  0.8693  2.2181
  131OSM   H14C14103   5.400   4.050   7.493  2.5965  0.6778  0.2996
  131OSM    C1314104   5.378   3.783   7.292  0.2707  0.9140  0.1185
  131OSM   H13A14105   5.321   3.731   7.368  1.7766 -2.6570 -1.0155
  131OSM   H13B14106   5.480   3.748   7.295  0.4991  1.0643 -3.1908
  131OSM   H13C14107   5.340   3.758   7.195 -0.9656  2.8489  0.0463
  131OSM    C1214108   5.456   4.013   7.223  0.1287  0.1907  0.0527
  131OSM   H12A14109   5.466   4.109   7.271 -2.0643  0.8514 -0.7049
  131OSM   H12B14110   5.405   4.037   7.131 -1.2375 -0.6965  0.5504
  131OSM    C1114111   5.605   3.968   7.198 -0.8504 -0.1243 -0.4071
  131OSM   H11A14112   5.642   4.040   7.123 -1.6608 -0.4032 -1.0837
  131OSM   H11B14113   5.612   3.863   7.161 -0.0249 -0.7291  1.3514
  131OSM      P14114   5.747   4.106   7.390  0.1313  0.0456 -0.5055
  131OSM    O1314115   5.641   4.167   7.473 -0.3385 -0.0822 -0.6701
  131OSM    O1414116   5.869   4.059   7.454 -0.2177 -0.1910 -0.0942
  131OSM    O1114117   5.789   4.210   7.278 -0.1946 -0.0584  0.3826
  131OSM    O1214118   5.676   3.976   7.323 -0.1263 -0.6922  0.2789
  131OSM    C1S14119   5.918   4.193   7.225  0.2190 -0.0481  0.7184
  131OSM    H1S14120   5.985   4.114   7.266  0.2080 -0.3475  0.1709
  131OSM    H1T14121   5.978   4.286   7.235  0.8235 -0.3115 -0.2736
  131OSM     NF14122   6.042   4.129   7.003 -0.1275 -0.0695 -0.1528
  131OSM    HNF14123   6.064   4.174   6.917  0.4031 -0.3591 -0.1705
  131OSM    C2S14124   5.915   4.158   7.067  0.7619 -0.1276 -0.1795
  131OSM    H2S14125   5.863   4.060   7.066  1.0846 -0.2976 -0.5965
  131OSM    C3S14126   5.831   4.263   6.985  0.3886 -0.0432 -0.0648
  131OSM    H3S14127   5.895   4.353   6.970  0.2936 -0.0001 -0.2174
  131OSM     O314128   5.715   4.294   7.050  0.5136 -0.8144  0.6169
  131OSM    HO314129   5.740   4.259   7.136 -1.2654  0.4925  1.7349
  131OSM    C4S14130   5.800   4.204   6.844  0.4971 -0.3103  0.4977
  131OSM    H4S14131   5.729   4.120   6.849  0.4020 -0.2448  0.2578
  131OSM    C5S14132   5.854   4.239   6.726  0.5372  0.4482  0.2997
  131OSM    H5S14133   5.934   4.314   6.722  1.6374 -0.7209 -1.0054
  131OSM    C6S14134   5.843   4.159   6.600  0.2834 -0.8558 -0.0296
  131OSM    H6S14135   5.787   4.065   6.622  2.5178 -2.1428  0.4658
  131OSM    H6T14136   5.941   4.114   6.576  0.3919 -1.1073  0.8510
  131OSM    C7S14137   5.786   4.259   6.494  0.5907 -0.1701 -0.6839
  131OSM    H7S14138   5.860   4.342   6.493  0.3371  0.0739 -0.0590
  131OSM    H7T14139   5.691   4.305   6.528  0.4322  0.8354 -2.3857
  131OSM    C8S14140   5.769   4.194   6.358  0.3455  0.6701 -0.4695
  131OSM    H8S14141   5.685   4.122   6.346 -0.1479  1.3027 -0.8671
  131OSM    H8T14142   5.863   4.139   6.339  0.5442 -0.0462  2.2723
  131OSM    C9S14143   5.761   4.302   6.251  0.0725 -0.3326  0.2070
  131OSM    H9S14144   5.818   4.393   6.280 -1.9931  0.7840  1.0389
  131OSM    H9T14145   5.654   4.330   6.245 -1.0591 -3.0314  3.9734
  131OSM   C10S14146   5.823   4.257   6.117  0.0930  0.9301 -0.0645
  131OSM   H10S14147   5.770   4.167   6.080 -0.2090  0.8823  0.4720
  131OSM   H10T14148   5.931   4.230   6.125 -0.0260 -0.1486 -1.8220
  131OSM   C11S14149   5.814   4.367   6.015 -0.4896  0.0294  0.5748
  131OSM   H11S14150   5.892   4.443   6.040 -0.9221  0.2681  1.2248
  131OSM   H11T14151   5.716   4.419   6.025 -1.4850 -1.3948 -1.2954
  131OSM   C12S14152   5.822   4.313   5.868  0.0989 -0.5366 -0.0833
  131OSM   H12S14153   5.724   4.268   5.843 -0.3097 -0.7620  1.7866
  131OSM   H12T14154   5.908   4.242   5.864  0.3935 -0.2123  0.3404
  131OSM   C13S14155   5.847   4.432   5.769 -0.6300 -0.0723 -0.0639
  131OSM   H13S14156   5.925   4.504   5.803 -0.2182 -0.0387 -1.0493
  131OSM   H13T14157   5.752   4.489   5.761 -1.0200 -0.6509  0.3514
  131OSM   C14S14158   5.888   4.392   5.627 -0.3531  0.5067 -0.0328
  131OSM   H14S14159   5.812   4.334   5.572  0.1395  1.8308 -2.2683
  131OSM   H14T14160   5.979   4.328   5.628 -1.3746 -0.9667  0.8756
  131OSM   C15S14161   5.935   4.514   5.550  0.4563  0.7656 -0.0732
  131OSM   H15S14162   6.006   4.575   5.610 -0.0820 -0.8949  2.3576
  131OSM   H15T14163   5.843   4.572   5.527  0.8802  1.5021  0.0351
  131OSM   C16S14164   6.006   4.482   5.414  0.7716 -0.3584  0.1166
  131OSM   H16S14165   5.934   4.422   5.355  0.0456 -0.3939  1.0103
  131OSM   H16T14166   6.099   4.425   5.437  0.7084 -0.6283 -0.2891
  131OSM   C17S14167   6.048   4.613   5.335  0.5232  0.4705  0.5807
  131OSM   H17S14168   6.127   4.678   5.378  0.0005  0.5542  1.4266
  131OSM   H17T14169   5.949   4.663   5.332  0.5142  0.5969  2.1920
  131OSM   C18S14170   6.102   4.576   5.193  0.2259  0.2112  0.1424
  131OSM   H18S14171   6.115   4.671   5.137  0.1109  0.2242  0.1361
  131OSM   H18T14172   6.032   4.512   5.136 -1.5899 -0.1049  2.5602
  131OSM   H18U14173   6.196   4.520   5.207  0.2225 -0.4882 -2.2961
  131OSM    C1F14174   6.124   4.029   7.056 -0.1540 -0.4436 -0.2389
  131OSM     OF14175   6.089   3.953   7.144 -0.0323 -0.4620 -0.1662
  131OSM    C2F14176   6.272   4.033   7.013  0.2575 -0.1191 -1.0952
  131OSM    H2F14177   6.333   4.099   7.078  0.5808 -1.6883  0.2401
  131OSM    H2G14178   6.267   4.051   6.903 -1.8011 -1.7603 -1.3453
  131OSM    C3F14179   6.343   3.892   7.023 -0.5787 -0.0443  0.2687
  131OSM    H3F14180   6.324   3.839   7.118 -0.9921 -0.0981  0.1560
  131OSM    H3G14181   6.451   3.920   7.016 -0.4426 -0.5772  0.1925
  131OSM    C4F14182   6.297   3.812   6.901 -0.3437  0.0375  0.0012
  131OSM    H4F14183   6.225   3.866   6.836 -0.8440  0.4253  0.8516
  131OSM    H4G14184   6.235   3.732   6.948 -0.3699  1.0435  1.7784
  131OSM    C5F14185   6.419   3.743   6.828 -0.6698 -0.2174 -0.5751
  131OSM    H5F14186   6.447   3.655   6.889  1.5103  0.5433 -0.3722
  131OSM    H5G14187   6.505   3.812   6.842  0.3088 -1.4581 -0.2591
  131OSM    C6F14188   6.389   3.718   6.680  0.0539 -0.9267  0.3470
  131OSM    H6F14189   6.475   3.703   6.612 -1.6807 -1.5658 -1.8080
  131OSM    H6G14190   6.334   3.810   6.650 -1.0307 -1.5036  0.5174
  131OSM    C7F14191   6.287   3.600   6.675 -0.4017 -0.6645  0.6287
  131OSM    H7F14192   6.195   3.623   6.732 -1.5850 -0.7216 -1.1758
  131OSM    H7G14193   6.335   3.512   6.723  1.1311  0.1681  0.7071
  131OSM    C8F14194   6.237   3.569   6.535  0.0303 -0.6224  0.2620
  131OSM    H8F14195   6.212   3.671   6.498 -1.2003 -0.7199  0.7923
  131OSM    H8G14196   6.146   3.506   6.543  1.0750 -1.9558  3.6653
  131OSM    C9F14197   6.347   3.499   6.470 -0.4905 -0.3373 -0.1776
  131OSM    H9F14198   6.359   3.399   6.515  0.9169 -0.5750 -1.0142
  131OSM   C10F14199   6.425   3.551   6.371  0.1364 -0.5355  0.0249
  131OSM   H10F14200   6.519   3.496   6.355 -0.7203 -1.5196 -1.9447
  131OSM   C11F14201   6.420   3.691   6.322  0.7146 -0.1576  0.0503
  131OSM   H11F14202   6.523   3.727   6.299  1.0693 -0.1601  1.5226
  131OSM   H11G14203   6.392   3.761   6.404  1.4430  1.0083 -0.6630
  131OSM   C12F14204   6.334   3.714   6.200  0.1516 -0.4190  1.0212
  131OSM   H12F14205   6.227   3.686   6.208 -0.6045  1.9557  0.0894
  131OSM   H12G14206   6.381   3.661   6.115 -1.8564  1.6589 -1.5613
  131OSM   C13F14207   6.337   3.865   6.166 -0.5829  0.0753  0.0144
  131OSM   H13F14208   6.444   3.892   6.160 -0.9942  1.5372 -1.2288
  131OSM   H13G14209   6.294   3.924   6.249  3.4525  0.9439  1.7271
  131OSM   C14F14210   6.273   3.883   6.027  0.6160  0.3082  0.0221
  131OSM   H14F14211   6.329   3.839   5.942 -0.0612  0.7029 -0.6441
  131OSM   H14G14212   6.261   3.992   6.010 -4.8503  0.0734  0.3967
  131OSM   C15F14213   6.118   3.843   6.025 -0.6521 -0.9144  0.0304
  131OSM   H15F14214   6.069   3.920   6.088  1.7798  0.2061  0.6994
  131OSM   H15G14215   6.094   3.744   6.069 -3.4881 -1.4253 -2.4120
  131OSM   C16F14216   6.051   3.851   5.890 -0.1294 -0.4332 -0.5593
  131OSM   H16F14217   5.943   3.834   5.908 -0.4451  1.9799  0.1382
  131OSM   H16G14218   6.090   3.780   5.814  1.0606  2.1853 -2.5291
  131OSM   C17F14219   6.081   3.987   5.822 -0.3809  0.1081  0.1513
  131OSM   H17F14220   6.190   3.986   5.799  0.0856 -1.2682  2.1993
  131OSM   H17G14221   6.083   4.073   5.892 -1.3890 -0.5046  0.9503
  131OSM   C18F14222   5.997   4.009   5.697  0.5501 -0.4525 -0.4064
  131OSM   H18F14223   5.994   4.120   5.684  3.1101  0.2254  3.2897
  131OSM   H18G14224   5.891   3.980   5.710  0.0831  0.3698 -2.0254
  131OSM   H18H14225   6.022   3.954   5.604 -1.3538  0.8082 -1.7378
  132OSM      N14226   4.483   5.829   7.843  0.0950 -0.0799 -0.0460
  132OSM    C1514227   4.543   5.849   7.982 -0.3866 -0.1117 -0.6945
  132OSM   H15A14228   4.519   5.770   8.052 -0.1431  2.9540  3.2696
  132OSM   H15B14229   4.516   5.945   8.024 -0.7552 -0.4036 -0.2597
  132OSM   H15C14230   4.648   5.864   7.964 -0.7509  0.7198 -2.3008
  132OSM    C1414231   4.524   5.693   7.785 -0.2066  0.2565 -0.5654
  132OSM   H14A14232   4.506   5.611   7.853 -1.3579  0.5898 -0.4574
  132OSM   H14B14233   4.628   5.676   7.759  0.0382 -1.2741  1.2198
  132OSM   H14C14234   4.474   5.680   7.690  0.7898  1.2968 -1.2622
  132OSM    C1314235   4.333   5.831   7.857  0.3691 -0.3470 -0.2121
  132OSM   H13A14236   4.282   5.803   7.766 -0.1200 -0.0873 -0.0237
  132OSM   H13B14237   4.290   5.929   7.873 -0.0993 -0.6597  0.4978
  132OSM   H13C14238   4.301   5.768   7.939  0.1242 -1.9513 -1.4948
  132OSM    C1214239   4.530   5.943   7.753  0.1283  0.0122  0.5519
  132OSM   H12A14240   4.638   5.937   7.761  0.2456 -5.2073 -1.0239
  132OSM   H12B14241   4.500   6.036   7.798  1.4847  0.1190  1.2810
  132OSM    C1114242   4.488   5.935   7.602 -0.4170  0.3093 -0.4615
  132OSM   H11A14243   4.518   5.834   7.567  2.3505  1.3465 -1.3434
  132OSM   H11B14244   4.544   6.010   7.542 -0.2979 -0.2069 -0.9965
  132OSM      P14245   4.281   6.093   7.608  0.1888 -0.5938 -0.0726
  132OSM    O1314246   4.139   6.059   7.625 -0.2860  0.5708 -0.3120
  132OSM    O1414247   4.338   6.166   7.723 -0.4234 -0.1958  0.0658
  132OSM    O1114248   4.296   6.176   7.482  0.7542 -0.1323  0.1925
  132OSM    O1214249   4.347   5.951   7.583  0.4351  0.1416 -0.1230
  132OSM    C1S14250   4.316   6.105   7.354  0.7188 -0.3799 -0.0127
  132OSM    H1S14251   4.213   6.089   7.315  0.3597  0.0277  0.7348
  132OSM    H1T14252   4.365   6.006   7.366  1.4010 -0.0371  0.1312
  132OSM     NF14253   4.378   6.141   7.113  0.4505 -0.4268  0.5129
  132OSM    HNF14254   4.465   6.121   7.069 -0.1880 -1.1976 -0.4298
  132OSM    C2S14255   4.384   6.201   7.244 -0.8688  0.0897 -0.3025
  132OSM    H2S14256   4.332   6.299   7.245  2.1869  1.8464  1.3642
  132OSM    C3S14257   4.533   6.242   7.284  0.5296 -0.7512 -0.3906
  132OSM    H3S14258   4.600   6.155   7.280  0.4084 -0.9227  0.8795
  132OSM     O314259   4.544   6.301   7.415  0.4840 -0.2063 -0.1567
  132OSM    HO314260   4.462   6.279   7.459  0.4053 -0.8276 -0.5960
  132OSM    C4S14261   4.577   6.346   7.188 -0.0256  0.1255 -0.3363
  132OSM    H4S14262   4.547   6.450   7.210  0.6722  0.3922 -0.6176
  132OSM    C5S14263   4.673   6.324   7.099  0.0455 -0.2707  1.1875
  132OSM    H5S14264   4.725   6.230   7.078 -0.5168 -0.1194 -1.1611
  132OSM    C6S14265   4.721   6.431   7.002  0.1272 -0.4188  0.7330
  132OSM    H6S14266   4.680   6.529   7.033  0.7782 -0.2376  1.0461
  132OSM    H6T14267   4.679   6.427   6.900  2.3567  2.5552 -0.4677
  132OSM    C7S14268   4.874   6.433   6.990 -0.0136 -0.7873  0.0298
  132OSM    H7S14269   4.912   6.328   6.992  0.8082 -0.4915  1.3511
  132OSM    H7T14270   4.914   6.489   7.078 -1.0523  1.2685 -0.7510
  132OSM    C8S14271   4.933   6.521   6.877 -0.1181 -0.5171  0.2380
  132OSM    H8S14272   5.025   6.562   6.923  0.1094 -0.2856 -0.4092
  132OSM    H8T14273   4.863   6.605   6.859 -0.1440 -0.9395 -1.9100
  132OSM    C9S14274   4.972   6.458   6.749 -0.6322 -0.5101  1.3033
  132OSM    H9S14275   4.875   6.416   6.717  0.6500 -2.4431 -0.3114
  132OSM    H9T14276   5.048   6.376   6.753 -0.2525 -0.8367 -4.4643
  132OSM   C10S14277   5.005   6.562   6.640 -0.4887  0.3791 -0.4462
  132OSM   H10S14278   5.081   6.628   6.687  0.9733 -1.9099  0.5617
  132OSM   H10T14279   4.919   6.622   6.604 -0.6747 -1.0920 -2.6584
  132OSM   C11S14280   5.063   6.492   6.517 -0.0417 -0.1153 -0.1685
  132OSM   H11S14281   4.983   6.430   6.472 -1.7497  3.0967 -1.9097
  132OSM   H11T14282   5.138   6.414   6.543 -0.4387 -1.2741 -2.2646
  132OSM   C12S14283   5.115   6.594   6.413  0.1344  0.6050 -0.4010
  132OSM   H12S14284   5.188   6.664   6.459 -0.0531  0.3265  0.3293
  132OSM   H12T14285   5.021   6.647   6.391  0.0771  0.8281  0.3584
  132OSM   C13S14286   5.162   6.528   6.285  0.0166 -0.1642  0.2778
  132OSM   H13S14287   5.096   6.446   6.247 -0.7828  0.2650  0.7119
  132OSM   H13T14288   5.256   6.482   6.322 -0.6442 -0.4271  1.6758
  132OSM   C14S14289   5.177   6.619   6.167  0.2328  0.7057  0.9349
  132OSM   H14S14290   5.229   6.707   6.210  0.3587  1.0580  0.0729
  132OSM   H14T14291   5.077   6.661   6.140  0.2020 -0.7277 -1.3880
  132OSM   C15S14292   5.252   6.563   6.038  0.2410  0.0922 -0.1885
  132OSM   H15S14293   5.206   6.462   6.032  0.0221  0.1929 -0.2265
  132OSM   H15T14294   5.363   6.564   6.046  0.2880  1.5115 -0.7538
  132OSM   C16S14295   5.214   6.659   5.914 -0.4125  0.2397  0.7421
  132OSM   H16S14296   5.258   6.758   5.937  1.0604 -0.5010  1.2209
  132OSM   H16T14297   5.103   6.660   5.909 -0.4691 -2.4402 -1.1077
  132OSM   C17S14298   5.269   6.606   5.785 -0.2417  0.1144  0.0474
  132OSM   H17S14299   5.244   6.498   5.778 -0.5322  0.0605  1.5239
  132OSM   H17T14300   5.378   6.609   5.809  0.0232 -0.0080 -1.0695
  132OSM   C18S14301   5.236   6.678   5.652 -0.7386  0.5460  0.3740
  132OSM   H18S14302   5.126   6.667   5.642 -0.5539 -0.8110 -0.3788
  132OSM   H18T14303   5.296   6.635   5.570 -0.9240 -1.7459  1.3686
  132OSM   H18U14304   5.253   6.788   5.658  0.9942  0.4751 -2.0742
  132OSM    C1F14305   4.264   6.119   7.058  0.3499  0.3463  0.2461
  132OSM     OF14306   4.160   6.160   7.107 -0.1397 -0.6609 -0.2183
  132OSM    C2F14307   4.270   6.046   6.931  0.0816 -0.1819 -0.0076
  132OSM    H2F14308   4.285   5.936   6.940 -1.8258 -0.5771 -0.9974
  132OSM    H2G14309   4.351   6.087   6.866 -0.5593 -0.2849 -0.9017
  132OSM    C3F14310   4.139   6.053   6.852 -0.2013 -0.2520 -0.3582
  132OSM    H3F14311   4.102   6.157   6.843 -1.9265 -0.8743 -0.9235
  132OSM    H3G14312   4.067   5.987   6.905  1.7632 -1.5574  0.8412
  132OSM    C4F14313   4.143   5.989   6.709  0.0366  0.6746 -1.4117
  132OSM    H4F14314   4.041   5.973   6.668  0.2107 -1.6240 -1.0789
  132OSM    H4G14315   4.198   5.893   6.711 -0.3719  0.4455 -0.5958
  132OSM    C5F14316   4.234   6.067   6.610 -0.3343 -0.5457  0.5510
  132OSM    H5F14317   4.337   6.062   6.652 -0.4064  0.1149  0.8142
  132OSM    H5G14318   4.198   6.172   6.614 -0.0748 -0.3926 -0.7273
  132OSM    C6F14319   4.248   6.034   6.463 -0.1115 -0.2598 -0.0038
  132OSM    H6F14320   4.324   6.105   6.424  0.6290 -0.7323  0.5325
  132OSM    H6G14321   4.146   6.051   6.425 -0.7626 -1.4730  1.1119
  132OSM    C7F14322   4.289   5.890   6.427 -0.2966 -1.0045  0.1943
  132OSM    H7F14323   4.212   5.826   6.474 -0.7115 -0.1445  0.7243
  132OSM    H7G14324   4.385   5.872   6.480 -0.2520 -0.9093  0.1462
  132OSM    C8F14325   4.300   5.847   6.281 -0.2086  0.1678  0.2722
  132OSM    H8F14326   4.203   5.849   6.228  1.0343  0.7415 -2.1226
  132OSM    H8G14327   4.345   5.745   6.274  0.9524  0.7444 -1.2087
  132OSM    C9F14328   4.405   5.940   6.222  0.4862 -0.0302  0.6027
  132OSM    H9F14329   4.484   5.965   6.295 -0.5533 -1.8726  2.4832
  132OSM   C10F14330   4.412   5.987   6.091 -0.1291 -0.5807 -0.0003
  132OSM   H10F14331   4.499   6.043   6.054 -2.3583  3.0376 -0.2513
  132OSM   C11F14332   4.318   5.950   5.986  0.2279 -0.0126  0.4077
  132OSM   H11F14333   4.262   5.858   6.015  2.1557 -1.4567 -0.2511
  132OSM   H11G14334   4.381   5.925   5.899 -0.0317 -1.8603  0.7023
  132OSM   C12F14335   4.228   6.069   5.950  0.2456 -0.1205 -0.0002
  132OSM   H12F14336   4.287   6.155   5.910 -1.6623  1.3532  0.2366
  132OSM   H12G14337   4.179   6.114   6.039 -0.2634  0.5474 -0.6054
  132OSM   C13F14338   4.119   6.054   5.843  0.0031  0.2958  0.4330
  132OSM   H13F14339   4.057   6.145   5.855 -0.7372  0.0070 -1.0363
  132OSM   H13G14340   4.070   5.956   5.862  0.8049  0.1370  1.8975
  132OSM   C14F14341   4.189   6.050   5.702 -0.5184 -0.3824 -0.2311
  132OSM   H14F14342   4.245   5.955   5.714 -1.7272 -0.9014  1.7483
  132OSM   H14G14343   4.255   6.130   5.662 -0.4017 -0.4009 -0.0759
  132OSM   C15F14344   4.080   6.026   5.597  0.6425 -0.5586  0.6114
  132OSM   H15F14345   4.044   6.121   5.551  3.0006  1.1576  2.0928
  132OSM   H15G14346   3.989   5.988   5.648  1.4373 -2.1847  0.8665
  132OSM   C16F14347   4.109   5.916   5.486 -0.4435  0.0065 -0.2937
  132OSM   H16F14348   4.019   5.853   5.498  1.1273 -2.2370  0.4137
  132OSM   H16G14349   4.203   5.859   5.500  1.7520  2.6250 -2.9078
  132OSM   C17F14350   4.111   5.964   5.344 -0.7159  0.4668  1.2409
  132OSM   H17F14351   4.197   6.035   5.344  0.1367 -0.5232  2.2264
  132OSM   H17G14352   4.020   6.022   5.319 -1.0245 -0.2980  0.5676
  132OSM   C18F14353   4.124   5.857   5.232 -1.1616  0.6650  0.0603
  132OSM   H18F14354   4.142   5.903   5.132 -1.2803 -1.2230 -0.8858
  132OSM   H18G14355   4.031   5.796   5.228  0.0264 -1.3610  1.4178
  132OSM   H18H14356   4.205   5.784   5.255 -3.4685 -1.6658  1.2740
  133OSM      N14357   2.742   0.033   7.313  0.3524 -1.0381  0.0314
  133OSM    C1514358   2.648   0.149   7.356 -0.3315  0.3265  0.4034
  133OSM   H15A14359   2.660   0.154   7.464 -0.6841 -0.7452  0.4987
  133OSM   H15B14360   2.542   0.135   7.340  0.0686 -0.8991 -1.3834
  133OSM   H15C14361   2.676   0.245   7.315 -1.2064  0.7344  0.7393
  133OSM    C1414362   2.678  -0.094   7.358  0.3931 -0.0149 -0.2828
  133OSM   H14A14363   2.670  -0.090   7.466 -0.0197 -0.6047 -0.2857
  133OSM   H14B14364   2.735  -0.181   7.329  1.2891 -0.9356  3.6301
  133OSM   H14C14365   2.582  -0.107   7.311 -0.0279  1.6529  0.0390
  133OSM    C1314366   2.732   0.032   7.166 -0.5577  0.1587  0.3477
  133OSM   H13A14367   2.761  -0.064   7.128 -2.1600 -0.2864  0.1800
  133OSM   H13B14368   2.794   0.111   7.125  0.1825 -0.7894 -0.3932
  133OSM   H13C14369   2.631   0.059   7.136  0.1106  1.0892 -1.2177
  133OSM    C1214370   2.887   0.048   7.363 -0.2761  0.0279  0.6979
  133OSM   H12A14371   2.893   0.033   7.469  2.3442 -0.1739  0.5830
  133OSM   H12B14372   2.925   0.147   7.342 -0.2878 -0.0664  0.2106
  133OSM    C1114373   2.981  -0.065   7.312 -0.3607 -0.4576 -0.3648
  133OSM   H11A14374   3.082  -0.022   7.329 -0.6501  0.4723 -0.8959
  133OSM   H11B14375   2.966  -0.074   7.202  1.6795  1.6039 -0.8945
  133OSM      P14376   3.058  -0.229   7.498 -0.3683 -0.6547  0.6028
  133OSM    O1314377   3.088  -0.107   7.577  0.1404 -0.3253 -0.1689
  133OSM    O1414378   2.996  -0.343   7.571 -0.4416 -0.1001  0.0726
  133OSM    O1114379   3.181  -0.282   7.409  0.8699 -0.1401 -0.2174
  133OSM    O1214380   2.959  -0.188   7.384  0.1207  0.1700 -0.3880
  133OSM    C1S14381   3.177  -0.388   7.316  0.2456  0.3912 -0.0931
  133OSM    H1S14382   3.118  -0.469   7.365  2.8685 -0.0779  2.5831
  133OSM    H1T14383   3.279  -0.430   7.304  0.1547  0.3613 -0.8149
  133OSM     NF14384   3.120  -0.474   7.088 -0.1319 -0.3229  0.2830
  133OSM    HNF14385   3.195  -0.504   7.029 -1.2072 -1.3326 -0.6309
  133OSM    C2S14386   3.133  -0.356   7.170 -0.8335 -0.9300 -0.2451
  133OSM    H2S14387   3.038  -0.299   7.181  0.6796  2.0294 -1.3287
  133OSM    C3S14388   3.235  -0.254   7.104  0.0089 -0.0389 -0.3598
  133OSM    H3S14389   3.329  -0.308   7.080  0.2709 -0.2572  1.0634
  133OSM     O314390   3.279  -0.147   7.192  0.2108 -0.1681 -0.0039
  133OSM    HO314391   3.241  -0.170   7.277 -1.1294 -0.2745 -0.6042
  133OSM    C4S14392   3.186  -0.205   6.968  0.0339 -0.0514 -0.6315
  133OSM    H4S14393   3.221  -0.273   6.889  2.3292 -0.9440  1.0465
  133OSM    C5S14394   3.117  -0.094   6.933 -0.2729  0.3273  0.6792
  133OSM    H5S14395   3.091  -0.021   7.010 -0.0610  1.6028 -0.4274
  133OSM    C6S14396   3.068  -0.056   6.799  0.2781 -0.1231  0.1299
  133OSM    H6S14397   3.088   0.053   6.785  1.3994 -0.4316 -0.7838
  133OSM    H6T14398   2.957  -0.061   6.811  0.3300  0.7465  1.1091
  133OSM    C7S14399   3.113  -0.134   6.684 -0.2722  0.1925  1.0110
  133OSM    H7S14400   3.066  -0.234   6.685 -0.2104  0.1285 -0.3491
  133OSM    H7T14401   3.224  -0.136   6.683 -0.2513  1.1035  0.3249
  133OSM    C8S14402   3.062  -0.078   6.551 -0.2090 -0.4366  0.1572
  133OSM    H8S14403   3.095   0.028   6.544 -1.5804  0.0724  0.9190
  133OSM    H8T14404   2.951  -0.078   6.565 -0.2434 -0.0107 -0.0929
  133OSM    C9S14405   3.118  -0.151   6.429 -0.7976  0.5217 -0.5514
  133OSM    H9S14406   3.115  -0.261   6.443 -2.4374  0.5915 -0.0969
  133OSM    H9T14407   3.222  -0.127   6.399 -1.4031  2.2293 -1.4588
  133OSM   C10S14408   3.035  -0.118   6.306 -0.0182  0.0496  0.9674
  133OSM   H10S14409   3.024  -0.008   6.303 -0.2566  0.0699  1.9375
  133OSM   H10T14410   2.929  -0.152   6.315 -0.3367  1.1991  1.8556
  133OSM   C11S14411   3.100  -0.183   6.177 -0.7081  0.3663  0.3151
  133OSM   H11S14412   3.069  -0.289   6.188  0.0163  0.0438 -0.6577
  133OSM   H11T14413   3.210  -0.172   6.167 -0.9575  0.9520 -2.6963
  133OSM   C12S14414   3.036  -0.135   6.048  0.0282  0.4429 -0.7161
  133OSM   H12S14415   3.035  -0.025   6.032  1.9906  1.3313  3.6527
  133OSM   H12T14416   2.932  -0.175   6.046  0.3360 -0.3551 -2.6292
  133OSM   C13S14417   3.098  -0.202   5.927  0.0104 -0.5141  0.2109
  133OSM   H13S14418   3.071  -0.309   5.934  0.0371 -0.5086  0.4175
  133OSM   H13T14419   3.206  -0.186   5.945  0.0098 -0.0780 -0.1496
  133OSM   C14S14420   3.038  -0.149   5.800 -0.1868 -0.0511 -0.3664
  133OSM   H14S14421   3.033  -0.038   5.805 -0.3127  0.0991 -2.8780
  133OSM   H14T14422   2.932  -0.182   5.800 -0.6299  0.6605  4.1519
  133OSM   C15S14423   3.100  -0.203   5.679  0.6475  0.2227 -0.5919
  133OSM   H15S14424   3.204  -0.165   5.675  0.6948  0.1738  0.0820
  133OSM   H15T14425   3.042  -0.156   5.596 -1.0244 -1.9469 -0.7527
  133OSM   C16S14426   3.092  -0.358   5.665 -0.3162 -0.1099  0.2062
  133OSM   H16S14427   2.998  -0.400   5.709 -0.3593  0.8040  1.0238
  133OSM   H16T14428   3.178  -0.403   5.720  0.3654 -0.2283 -0.9428
  133OSM   C17S14429   3.113  -0.407   5.521 -0.3236 -0.3611  0.4668
  133OSM   H17S14430   3.043  -0.357   5.451 -0.8818 -0.1700  1.1481
  133OSM   H17T14431   3.088  -0.515   5.520  0.1649 -0.5259  2.2645
  133OSM   C18S14432   3.256  -0.387   5.466 -0.1401  0.0180 -0.7461
  133OSM   H18S14433   3.272  -0.279   5.444  1.0566 -0.3713 -1.9180
  133OSM   H18T14434   3.270  -0.436   5.367 -1.5288  0.6416 -1.2843
  133OSM   H18U14435   3.323  -0.434   5.540  0.7084 -1.1429 -2.1947
  133OSM    C1F14436   3.022  -0.559   7.105 -0.3823  0.2940 -0.4772
  133OSM     OF14437   2.933  -0.532   7.183 -0.3086  0.2098  0.8418
  133OSM    C2F14438   3.042  -0.691   7.038  0.0962  0.3841  0.5576
  133OSM    H2F14439   3.132  -0.732   7.089  0.1027  1.0243  1.0677
  133OSM    H2G14440   3.069  -0.669   6.932  1.3356  0.4602  0.8810
  133OSM    C3F14441   2.924  -0.790   7.043 -0.3632 -0.2869  0.1553
  133OSM    H3F14442   2.827  -0.738   7.027  0.4679  1.6854  1.1907
  133OSM    H3G14443   2.933  -0.832   7.145 -1.0727  1.1688  0.8345
  133OSM    C4F14444   2.942  -0.908   6.956 -0.3865  0.1683 -0.4285
  133OSM    H4F14445   2.875  -0.992   6.985 -1.3981  0.5024 -1.6842
  133OSM    H4G14446   3.048  -0.940   6.961 -1.0894 -2.1169  2.0145
  133OSM    C5F14447   2.902  -0.886   6.808  0.3139 -0.2920 -0.0120
  133OSM    H5F14448   2.952  -0.792   6.777  0.7563 -0.3920  0.3856
  133OSM    H5G14449   2.792  -0.874   6.796  0.4552  0.0032 -1.1155
  133OSM    C6F14450   2.932  -0.996   6.704 -0.4820 -0.2699 -0.4618
  133OSM    H6F14451   2.919  -1.096   6.751 -0.8257 -0.0352 -0.0525
  133OSM    H6G14452   3.040  -0.991   6.678  0.6135 -4.2241  2.3137
  133OSM    C7F14453   2.836  -0.986   6.595 -0.7597  0.6946  0.9863
  133OSM    H7F14454   2.836  -0.889   6.540  2.1409  1.2884  1.8759
  133OSM    H7G14455   2.739  -1.026   6.630  0.2843 -3.1757 -0.0547
  133OSM    C8F14456   2.866  -1.088   6.484 -0.1373 -0.7282  0.1859
  133OSM    H8F14457   2.870  -1.186   6.536 -1.9390 -2.0945 -2.0721
  133OSM    H8G14458   2.968  -1.079   6.441 -0.6268 -0.4278 -0.9467
  133OSM    C9F14459   2.758  -1.094   6.379 -0.4570 -1.3178  0.4208
  133OSM    H9F14460   2.658  -1.115   6.418 -2.0592  1.1933 -1.9699
  133OSM   C10F14461   2.775  -1.067   6.247 -0.0978  0.5793 -0.5412
  133OSM   H10F14462   2.690  -1.075   6.177  0.4611  0.4136 -1.2124
  133OSM   C11F14463   2.905  -1.039   6.170 -0.6589  0.9538  0.0109
  133OSM   H11F14464   2.991  -1.108   6.186 -2.3837 -1.2873 -0.0154
  133OSM   H11G14465   2.945  -0.940   6.202 -1.0532  0.7371  1.2190
  133OSM   C12F14466   2.888  -1.035   6.018  0.5350 -0.1440  0.2201
  133OSM   H12F14467   2.818  -1.115   5.986 -0.0387 -0.1120  1.3281
  133OSM   H12G14468   2.986  -1.050   5.968  1.1296  0.2967  1.2233
  133OSM   C13F14469   2.819  -0.903   5.970 -0.3319  0.2351 -0.8129
  133OSM   H13F14470   2.852  -0.813   6.026 -0.0293  1.2374 -2.5306
  133OSM   H13G14471   2.714  -0.917   6.003 -0.0677  0.3395  0.1183
  133OSM   C14F14472   2.837  -0.869   5.822 -0.0771  0.0745 -0.3915
  133OSM   H14F14473   2.943  -0.888   5.793 -0.7451 -0.6679 -2.5913
  133OSM   H14G14474   2.826  -0.760   5.809  1.4276  0.3052  0.1031
  133OSM   C15F14475   2.755  -0.961   5.725 -0.0583 -0.0549 -0.8006
  133OSM   H15F14476   2.655  -0.916   5.742  0.8192  1.4392  0.6329
  133OSM   H15G14477   2.754  -1.061   5.774 -0.7089  1.0876  1.6424
  133OSM   C16F14478   2.792  -0.964   5.577  0.1752  0.0913 -0.1189
  133OSM   H16F14479   2.898  -0.990   5.556 -0.0641  0.5449 -2.1486
  133OSM   H16G14480   2.794  -0.860   5.538 -1.2062  1.4987  3.1576
  133OSM   C17F14481   2.692  -1.050   5.488 -0.0201  0.7759 -0.2192
  133OSM   H17F14482   2.670  -1.143   5.546 -0.0477  1.3284  0.6782
  133OSM   H17G14483   2.746  -1.074   5.394  1.3389  1.1718  0.4317
  133OSM   C18F14484   2.552  -0.994   5.455  0.4294  0.3071 -0.1639
  133OSM   H18F14485   2.495  -1.073   5.402  1.8136  0.4246 -1.9298
  133OSM   H18G14486   2.568  -0.901   5.396  0.6379 -0.3986 -1.2472
  133OSM   H18H14487   2.504  -0.965   5.551 -0.4717 -0.3045 -0.4134
  134OSM      N14488   3.602   5.867   7.640 -0.0978  0.5559  0.1363
  134OSM    C1514489   3.689   5.857   7.509  0.1188 -0.6223  0.2787
  134OSM   H15A14490   3.780   5.915   7.517  0.1757 -0.5032 -0.9633
  134OSM   H15B14491   3.640   5.914   7.431  1.3538  0.2245  0.0969
  134OSM   H15C14492   3.700   5.755   7.475  1.7496 -0.6838  0.9096
  134OSM    C1414493   3.689   5.811   7.758 -0.5259 -0.3397 -0.3275
  134OSM   H14A14494   3.783   5.862   7.764  0.1408 -1.1424 -2.6903
  134OSM   H14B14495   3.694   5.703   7.760  0.6384 -0.3096  2.1299
  134OSM   H14C14496   3.632   5.827   7.848 -0.3347  0.9669 -0.4152
  134OSM    C1314497   3.573   6.013   7.663  0.2280 -0.1576 -0.2893
  134OSM   H13A14498   3.516   6.057   7.583 -1.4537 -1.7351 -0.0196
  134OSM   H13B14499   3.671   6.059   7.667  1.8844 -3.2072 -2.1388
  134OSM   H13C14500   3.519   6.029   7.756 -1.1079 -2.9926 -0.4823
  134OSM    C1214501   3.474   5.783   7.635  0.0442  0.5781  0.3195
  134OSM   H12A14502   3.395   5.835   7.583 -1.6974 -1.3120  0.8941
  134OSM   H12B14503   3.444   5.765   7.737  0.5582 -1.3221  0.1727
  134OSM    C1114504   3.492   5.643   7.575 -0.0450  0.3356  0.3832
  134OSM   H11A14505   3.507   5.648   7.465 -1.6769 -2.6236 -0.0786
  134OSM   H11B14506   3.399   5.587   7.597 -0.5808  1.0854  0.0549
  134OSM      P14507   3.652   5.440   7.583  0.2062  0.0190  0.4616
  134OSM    O1314508   3.765   5.411   7.671 -0.0313 -0.1377 -0.1000
  134OSM    O1414509   3.538   5.346   7.586  0.1111 -0.0555 -0.2197
  134OSM    O1114510   3.718   5.454   7.433  0.5855 -0.0443 -1.0730
  134OSM    O1214511   3.610   5.577   7.628  0.2861 -0.0662  0.3927
  134OSM    C1S14512   3.650   5.386   7.330 -0.1210 -0.4098  0.0912
  134OSM    H1S14513   3.544   5.419   7.331  0.2648  1.0492  2.5677
  134OSM    H1T14514   3.660   5.277   7.344 -0.6721 -0.6155 -0.9798
  134OSM     NF14515   3.600   5.390   7.087  0.2607 -0.5681 -0.0861
  134OSM    HNF14516   3.629   5.312   7.032  0.5469 -1.3268  1.1012
  134OSM    C2S14517   3.693   5.440   7.186  0.0664 -0.2254 -0.2428
  134OSM    H2S14518   3.674   5.549   7.194 -1.1434 -0.5724  3.1633
  134OSM    C3S14519   3.847   5.422   7.163 -0.6202 -0.2510 -0.5035
  134OSM    H3S14520   3.860   5.314   7.143  0.7121  0.0583 -1.5276
  134OSM     O314521   3.929   5.454   7.271  0.0178 -0.6846  0.0162
  134OSM    HO314522   3.860   5.468   7.336 -0.6535  2.2455 -1.1338
  134OSM    C4S14523   3.898   5.504   7.043 -0.6471  0.1016  0.3060
  134OSM    H4S14524   3.907   5.611   7.067 -1.3313 -0.5146  3.9088
  134OSM    C5S14525   3.912   5.450   6.922 -0.2220  0.3719  0.2020
  134OSM    H5S14526   3.881   5.346   6.907  0.5393  0.1789 -0.0518
  134OSM    C6S14527   3.946   5.521   6.799 -0.2609 -0.4232 -0.1884
  134OSM    H6S14528   4.050   5.509   6.761  0.3237  2.3933  0.3288
  134OSM    H6T14529   3.939   5.632   6.808 -0.1043  0.2505 -5.2150
  134OSM    C7S14530   3.839   5.487   6.689 -0.6186 -0.6430  0.1869
  134OSM    H7S14531   3.740   5.525   6.721  0.5439  1.2521  1.7556
  134OSM    H7T14532   3.851   5.378   6.672 -0.2494 -0.6694  0.6155
  134OSM    C8S14533   3.864   5.541   6.547  0.0584  0.6274  0.6179
  134OSM    H8S14534   3.877   5.651   6.554 -1.4129  0.9046 -0.4010
  134OSM    H8T14535   3.767   5.530   6.494 -1.5199 -2.5085  3.7421
  134OSM    C9S14536   3.976   5.471   6.473 -0.1866 -0.1708  0.1450
  134OSM    H9S14537   3.943   5.370   6.441  2.0196 -0.6496 -0.8334
  134OSM    H9T14538   4.064   5.453   6.538 -0.3361  2.4482  1.1973
  134OSM   C10S14539   4.017   5.533   6.331  0.8441  0.2327 -0.8749
  134OSM   H10S14540   4.027   5.643   6.332 -1.3793  0.4765  0.0489
  134OSM   H10T14541   3.934   5.513   6.260  0.7283 -0.8002 -0.4764
  134OSM   C11S14542   4.146   5.485   6.264  0.7267 -0.7582 -0.7775
  134OSM   H11S14543   4.135   5.375   6.257  0.8419 -0.8485  0.2961
  134OSM   H11T14544   4.227   5.500   6.338  1.7126 -0.9752 -1.7864
  134OSM   C12S14545   4.172   5.543   6.130  0.2201 -0.6283 -0.3591
  134OSM   H12S14546   4.278   5.576   6.131  0.2465 -0.6783  2.0045
  134OSM   H12T14547   4.106   5.629   6.106  1.7297  0.7356  0.1958
  134OSM   C13S14548   4.150   5.436   6.021 -0.5077  0.5264  0.4240
  134OSM   H13S14549   4.043   5.407   6.018 -0.7659  1.4368  0.3697
  134OSM   H13T14550   4.206   5.348   6.060 -0.0896  0.9293  0.7541
  134OSM   C14S14551   4.196   5.488   5.886  0.7842 -0.2375 -0.4705
  134OSM   H14S14552   4.303   5.514   5.899  0.2661  0.9235  1.9527
  134OSM   H14T14553   4.135   5.580   5.873 -1.7924 -1.4195  2.0930
  134OSM   C15S14554   4.185   5.388   5.776  0.2822 -0.1093 -0.1153
  134OSM   H15S14555   4.085   5.341   5.778 -0.4349  1.3409 -0.4703
  134OSM   H15T14556   4.254   5.302   5.795  0.8359  0.3966  0.2154
  134OSM   C16S14557   4.222   5.444   5.635 -0.0201 -0.2695 -0.6997
  134OSM   H16S14558   4.245   5.350   5.580 -2.0714 -0.5864 -1.1118
  134OSM   H16T14559   4.314   5.502   5.655 -1.4926  2.0199 -0.1106
  134OSM   C17S14560   4.114   5.500   5.550  0.0654 -0.4431  0.5016
  134OSM   H17S14561   4.086   5.599   5.592  2.1860  0.7077 -0.5537
  134OSM   H17T14562   4.027   5.433   5.558  0.8483 -1.3212  2.1633
  134OSM   C18S14563   4.162   5.511   5.398  0.0320 -0.3706 -0.0056
  134OSM   H18S14564   4.261   5.560   5.388  0.7298 -2.1117 -2.7510
  134OSM   H18T14565   4.097   5.573   5.331 -0.9691 -2.7784 -1.4337
  134OSM   H18U14566   4.168   5.414   5.342 -0.0416 -0.5358  0.2711
  134OSM    C1F14567   3.472   5.445   7.083 -1.3464  0.3325 -1.1640
  134OSM     OF14568   3.438   5.542   7.153 -0.3380 -0.0425 -0.2204
  134OSM    C2F14569   3.372   5.376   6.993  0.2155  0.0710  0.7529
  134OSM    H2F14570   3.276   5.365   7.047 -0.0294  1.5101  0.6658
  134OSM    H2G14571   3.401   5.278   6.951  0.6010  1.1968 -1.8354
  134OSM    C3F14572   3.352   5.454   6.859  0.1383 -0.2421  0.7057
  134OSM    H3F14573   3.447   5.448   6.802  0.9513  1.0168  1.8523
  134OSM    H3G14574   3.322   5.560   6.876  0.2321  0.2152 -1.5975
  134OSM    C4F14575   3.253   5.394   6.768 -0.0190 -0.8010 -0.8345
  134OSM    H4F14576   3.156   5.383   6.820  1.4239 -0.0077  2.3171
  134OSM    H4G14577   3.286   5.292   6.742  2.5795 -0.5034  0.8394
  134OSM    C5F14578   3.224   5.473   6.639  0.0760 -0.1561 -0.5428
  134OSM    H5F14579   3.228   5.578   6.676 -0.7879 -0.8175  1.6172
  134OSM    H5G14580   3.120   5.449   6.606 -0.2879 -3.2391  2.2344
  134OSM    C6F14581   3.333   5.459   6.541 -0.6750  0.0216  0.2255
  134OSM    H6F14582   3.339   5.351   6.520 -0.5390  0.2100 -0.7288
  134OSM    H6G14583   3.427   5.492   6.591 -0.8558  1.3177 -0.2393
  134OSM    C7F14584   3.321   5.543   6.412 -0.0824  0.1026  0.6389
  134OSM    H7F14585   3.320   5.652   6.433 -0.1727  0.5139 -1.2874
  134OSM    H7G14586   3.230   5.509   6.358  1.8685 -1.5813 -1.8658
  134OSM    C8F14587   3.427   5.503   6.308  0.0665 -0.1122 -0.3805
  134OSM    H8F14588   3.416   5.397   6.277 -3.6946  0.8980 -3.1870
  134OSM    H8G14589   3.533   5.509   6.343 -0.0697  0.1802 -0.0098
  134OSM    C9F14590   3.434   5.587   6.187  0.6366 -0.4700  0.6978
  134OSM    H9F14591   3.483   5.684   6.199 -1.8867  0.7868  1.4109
  134OSM   C10F14592   3.373   5.565   6.073 -0.1607  0.3034 -0.0997
  134OSM   H10F14593   3.389   5.629   5.985  4.5330  1.3156  1.1947
  134OSM   C11F14594   3.282   5.449   6.043 -0.7282 -0.5552 -0.3984
  134OSM   H11F14595   3.191   5.481   5.988 -0.4330  1.9379  0.4253
  134OSM   H11G14596   3.259   5.400   6.140  1.8557  0.6555  0.9248
  134OSM   C12F14597   3.358   5.347   5.959  0.6646  0.4389 -0.1837
  134OSM   H12F14598   3.289   5.260   5.952 -1.4644  1.7475  2.5070
  134OSM   H12G14599   3.442   5.305   6.018  0.3563 -0.6612 -0.5130
  134OSM   C13F14600   3.396   5.389   5.813 -0.3263  0.6242 -0.7807
  134OSM   H13F14601   3.457   5.304   5.779 -1.6117 -0.5723 -0.1943
  134OSM   H13G14602   3.471   5.471   5.817  0.4460  0.3859 -5.5040
  134OSM   C14F14603   3.287   5.412   5.713  0.5429  0.2120  0.3484
  134OSM   H14F14604   3.224   5.499   5.740 -0.6017 -0.7738  0.9943
  134OSM   H14G14605   3.215   5.327   5.706  1.9620 -1.1573  1.4716
  134OSM   C15F14606   3.341   5.439   5.574  0.1970 -0.1909 -0.7440
  134OSM   H15F14607   3.369   5.347   5.519 -2.7469 -0.7238 -1.5030
  134OSM   H15G14608   3.424   5.511   5.587  2.7014 -3.0270  0.3203
  134OSM   C16F14609   3.234   5.496   5.481  0.1234  0.3416  0.2264
  134OSM   H16F14610   3.282   5.546   5.395  1.9564 -1.8091 -0.0788
  134OSM   H16G14611   3.194   5.587   5.532  1.0535  0.3664  0.9355
  134OSM   C17F14612   3.127   5.387   5.439 -0.4758  0.3719  0.3453
  134OSM   H17F14613   3.060   5.351   5.519 -0.3183 -0.8752 -0.0616
  134OSM   H17G14614   3.168   5.293   5.395 -0.3179  0.5845  0.0361
  134OSM   C18F14615   3.043   5.447   5.324  0.5994 -0.3794 -0.6322
  134OSM   H18F14616   3.107   5.470   5.236  1.7352  3.0598  0.9100
  134OSM   H18G14617   3.011   5.544   5.367  0.7036 -0.7448  0.3067
  134OSM   H18H14618   2.954   5.389   5.291  0.4584 -0.4607 -0.1253
  135OSM      N14619   3.397   3.018   7.542  0.1714 -0.1251 -0.1010
  135OSM    C1514620   3.282   3.081   7.473  0.7139 -0.3613 -0.2107
  135OSM   H15A14621   3.258   3.176   7.518 -0.5547 -1.1633  0.8567
  135OSM   H15B14622   3.205   3.006   7.485  1.1815 -0.5696  1.9065
  135OSM   H15C14623   3.292   3.108   7.368 -1.8109 -0.0859 -0.4431
  135OSM    C1414624   3.353   2.972   7.682  0.2695 -0.7225 -0.9182
  135OSM   H14A14625   3.435   2.949   7.748  0.9447  4.9157  0.7384
  135OSM   H14B14626   3.277   2.895   7.677 -0.1951 -0.6931  3.0400
  135OSM   H14C14627   3.311   3.057   7.734  0.9307 -0.9822  0.0610
  135OSM    C1314628   3.446   2.897   7.472  0.6606  0.1563 -0.3480
  135OSM   H13A14629   3.471   2.939   7.376 -2.5942  0.6817 -1.0708
  135OSM   H13B14630   3.367   2.825   7.456  2.2535 -1.2299 -2.4829
  135OSM   H13C14631   3.525   2.849   7.528 -0.3211 -0.3394  0.6387
  135OSM    C1214632   3.501   3.126   7.562 -0.2172  0.1098  0.0975
  135OSM   H12A14633   3.601   3.092   7.586  1.2061  4.4023  1.3220
  135OSM   H12B14634   3.477   3.194   7.643 -2.2251 -0.5370  0.1092
  135OSM    C1114635   3.531   3.215   7.434  0.2317  0.1405  0.0494
  135OSM   H11A14636   3.439   3.272   7.407  0.9254  1.5419  0.5353
  135OSM   H11B14637   3.564   3.149   7.351  0.6342 -0.5729  0.7652
  135OSM      P14638   3.782   3.256   7.492  0.1485  0.0445  0.3309
  135OSM    O1314639   3.855   3.355   7.569  0.0071 -0.3424 -0.0695
  135OSM    O1414640   3.774   3.115   7.545  0.1279  0.4034  0.2699
  135OSM    O1114641   3.840   3.248   7.342 -0.2918  0.3135  0.3143
  135OSM    O1214642   3.632   3.302   7.471  0.1718 -0.1585 -0.3669
  135OSM    C1S14643   3.779   3.323   7.236  0.2198  0.4177  0.0989
  135OSM    H1S14644   3.804   3.430   7.255  1.4011  0.6240 -2.1910
  135OSM    H1T14645   3.669   3.330   7.222  0.4353  0.6274 -1.7785
  135OSM     NF14646   3.798   3.361   6.987 -0.5927 -0.2556 -0.1523
  135OSM    HNF14647   3.713   3.343   6.939 -1.3366 -1.4539  1.4716
  135OSM    C2S14648   3.821   3.264   7.100  0.3128  0.2601 -0.2861
  135OSM    H2S14649   3.929   3.240   7.113  0.6535  2.6680  2.3225
  135OSM    C3S14650   3.750   3.132   7.072 -1.0462 -0.2374  0.4095
  135OSM    H3S14651   3.644   3.152   7.047 -1.1858 -0.3498  0.9014
  135OSM     O314652   3.742   3.039   7.188  0.5209 -0.2249  0.8746
  135OSM    HO314653   3.764   3.100   7.259 -0.9646  1.5101 -0.0625
  135OSM    C4S14654   3.813   3.053   6.955 -0.7328 -0.2803  0.1513
  135OSM    H4S14655   3.743   3.059   6.870 -5.1358 -2.9552  3.1723
  135OSM    C5S14656   3.910   2.954   6.958  0.2771 -0.2562 -0.0137
  135OSM    H5S14657   3.923   2.900   7.053 -0.1969 -0.0840  0.1533
  135OSM    C6S14658   3.938   2.876   6.832 -0.5167 -0.2092  0.1266
  135OSM    H6S14659   3.849   2.864   6.767  0.5897 -0.7434 -1.3496
  135OSM    H6T14660   3.966   2.771   6.858  2.3875  0.0517 -1.5228
  135OSM    C7S14661   4.051   2.928   6.748 -0.8245 -0.6995 -0.2690
  135OSM    H7S14662   4.147   2.929   6.803 -0.9914 -0.9347  0.0319
  135OSM    H7T14663   4.038   3.037   6.729  0.5086 -0.5029 -0.1197
  135OSM    C8S14664   4.068   2.857   6.614 -0.1755  0.1284 -0.7461
  135OSM    H8S14665   3.967   2.859   6.568 -0.7737 -0.8289  0.4826
  135OSM    H8T14666   4.112   2.755   6.617 -2.0117 -0.7556 -2.2886
  135OSM    C9S14667   4.157   2.947   6.521 -0.5634 -0.5606  0.0491
  135OSM    H9S14668   4.258   2.929   6.563  0.3818  2.0210 -0.9553
  135OSM    H9T14669   4.140   3.056   6.532  2.5340 -0.0453  0.5292
  135OSM   C10S14670   4.142   2.896   6.378  0.8928 -0.2855 -0.5838
  135OSM   H10S14671   4.036   2.880   6.349  0.2401  2.0335  0.2679
  135OSM   H10T14672   4.186   2.794   6.376  0.1850 -0.7335  2.2600
  135OSM   C11S14673   4.199   2.982   6.267 -0.0122 -0.2652  0.0426
  135OSM   H11S14674   4.305   3.004   6.290 -0.0309 -0.0638 -0.0684
  135OSM   H11T14675   4.155   3.084   6.266  2.0187  0.6738  0.7792
  135OSM   C12S14676   4.192   2.918   6.130 -0.2202 -0.1475 -0.1580
  135OSM   H12S14677   4.089   2.919   6.088 -0.6592  0.0377  0.8921
  135OSM   H12T14678   4.223   2.812   6.138  1.0507  0.2667  0.7667
  135OSM   C13S14679   4.285   2.991   6.034 -0.6414 -0.0184  0.0298
  135OSM   H13S14680   4.378   3.014   6.090  0.1745  0.1139 -1.3341
  135OSM   H13T14681   4.241   3.091   6.009  0.1003  0.2299 -0.3036
  135OSM   C14S14682   4.310   2.914   5.900 -0.1094 -0.1351 -0.1585
  135OSM   H14S14683   4.218   2.855   5.876  0.0741 -0.3388 -0.3627
  135OSM   H14T14684   4.389   2.838   5.918 -0.9363 -0.4199  2.6720
  135OSM   C15S14685   4.354   2.998   5.777  0.3150  0.6578 -0.5492
  135OSM   H15S14686   4.395   2.931   5.698 -0.8336  0.0951 -0.6928
  135OSM   H15T14687   4.435   3.065   5.814 -0.8729  0.6033  2.4644
  135OSM   C16S14688   4.246   3.088   5.715  0.7535 -1.1726  0.1772
  135OSM   H16S14689   4.213   3.157   5.796  0.2264 -0.4121 -0.6818
  135OSM   H16T14690   4.162   3.020   5.689 -0.2150 -0.6213  1.7142
  135OSM   C17S14691   4.288   3.158   5.579 -0.6270  0.5565  0.0845
  135OSM   H17S14692   4.197   3.207   5.538 -0.8062 -0.6701 -1.0528
  135OSM   H17T14693   4.332   3.076   5.519  2.3184 -0.4273  3.2707
  135OSM   C18S14694   4.397   3.267   5.586  0.0985  0.7363  0.1186
  135OSM   H18S14695   4.378   3.338   5.669  0.8784  1.0737  0.0175
  135OSM   H18T14696   4.398   3.334   5.497  0.3973  0.9436  0.2801
  135OSM   H18U14697   4.497   3.223   5.605  0.7350  0.8153 -2.6289
  135OSM    C1F14698   3.867   3.478   6.984 -0.2315  0.6062  0.0336
  135OSM     OF14699   3.953   3.497   7.068  0.2727  0.4861  0.2449
  135OSM    C2F14700   3.847   3.571   6.870  0.5486  0.0160  0.3690
  135OSM    H2F14701   3.748   3.620   6.875 -0.0680 -0.7633 -2.4864
  135OSM    H2G14702   3.842   3.525   6.769 -1.2110  2.2679 -0.6509
  135OSM    C3F14703   3.961   3.676   6.854  0.3018  0.2610 -0.6613
  135OSM    H3F14704   4.059   3.624   6.852  1.5708  2.3325  1.6162
  135OSM    H3G14705   3.973   3.728   6.952  1.1835 -1.4993  0.2061
  135OSM    C4F14706   3.948   3.772   6.737 -0.1215 -0.1510 -0.7000
  135OSM    H4F14707   3.850   3.825   6.742  0.2728  0.5293 -0.0304
  135OSM    H4G14708   4.016   3.857   6.755 -0.5314 -0.5111  3.4280
  135OSM    C5F14709   3.974   3.701   6.603 -0.7937  0.3883 -0.2441
  135OSM    H5F14710   3.905   3.615   6.586  2.3841 -2.7954  1.5965
  135OSM    H5G14711   4.070   3.645   6.606  1.0379  3.2635 -1.2966
  135OSM    C6F14712   3.960   3.798   6.483  0.1768 -0.2001 -0.8260
  135OSM    H6F14713   4.047   3.867   6.492 -1.2173  1.5455 -0.2059
  135OSM    H6G14714   3.868   3.860   6.478  0.5815  0.3981 -0.9867
  135OSM    C7F14715   3.980   3.724   6.348 -0.4193 -0.7187  0.1134
  135OSM    H7F14716   3.933   3.623   6.352  0.3491 -1.2716 -2.7002
  135OSM    H7G14717   4.088   3.705   6.331  0.3003  2.9401 -0.2592
  135OSM    C8F14718   3.926   3.802   6.219 -0.7119  0.1949 -0.2446
  135OSM    H8F14719   3.980   3.774   6.127 -1.8335  2.0346 -1.5405
  135OSM    H8G14720   3.927   3.912   6.235 -1.5534  0.3525 -1.2207
  135OSM    C9F14721   3.784   3.771   6.195  0.5246 -0.0405  0.3505
  135OSM    H9F14722   3.743   3.714   6.279 -0.3233 -1.4372 -0.9589
  135OSM   C10F14723   3.713   3.784   6.082 -0.6342  0.3102  0.9910
  135OSM   H10F14724   3.612   3.749   6.054  0.4200 -1.5258 -0.8550
  135OSM   C11F14725   3.774   3.853   5.963 -0.0055 -0.2076 -0.2448
  135OSM   H11F14726   3.796   3.780   5.883 -0.7338  0.1135 -0.7418
  135OSM   H11G14727   3.871   3.905   5.982 -1.9465  4.5818 -2.0230
  135OSM   C12F14728   3.686   3.967   5.911 -0.0511 -0.2592  0.2885
  135OSM   H12F14729   3.759   4.013   5.841  0.5218 -0.2794  0.8633
  135OSM   H12G14730   3.665   4.043   5.990 -0.9450  0.7435 -0.8846
  135OSM   C13F14731   3.554   3.938   5.836 -0.6417  0.0975  0.1331
  135OSM   H13F14732   3.511   4.032   5.796 -0.2137  0.7413  1.1676
  135OSM   H13G14733   3.477   3.898   5.905 -0.4668  0.8950  0.7967
  135OSM   C14F14734   3.594   3.838   5.714  0.6451  0.4197  0.6110
  135OSM   H14F14735   3.650   3.745   5.736 -0.7915 -0.5262  0.4438
  135OSM   H14G14736   3.662   3.903   5.655 -0.4127  1.2004  0.1943
  135OSM   C15F14737   3.474   3.808   5.610 -0.0648 -0.1423  0.3665
  135OSM   H15F14738   3.417   3.898   5.578  0.0362 -0.5529 -1.0513
  135OSM   H15G14739   3.408   3.723   5.639  2.0888 -2.2525 -0.6353
  135OSM   C16F14740   3.539   3.762   5.478  0.2632 -0.0621  0.3736
  135OSM   H16F14741   3.606   3.674   5.493 -1.6618 -1.5023  0.9081
  135OSM   H16G14742   3.596   3.847   5.435 -1.0991  0.8140  0.2290
  135OSM   C17F14743   3.434   3.742   5.362 -0.2881  0.3303  0.0694
  135OSM   H17F14744   3.390   3.844   5.357  2.4987  1.7297  1.5526
  135OSM   H17G14745   3.364   3.659   5.385 -1.4648  1.1357 -0.4858
  135OSM   C18F14746   3.495   3.712   5.224 -0.0669  0.0742  0.5546
  135OSM   H18F14747   3.573   3.633   5.233  0.2544  0.0415 -1.8645
  135OSM   H18G14748   3.556   3.802   5.200 -0.5127  0.2570  0.1207
  135OSM   H18H14749   3.409   3.698   5.156 -0.5068 -1.5903  1.3834
  136OSM      N14750   0.367   4.801   7.785  0.3649  0.5347 -0.0666
  136OSM    C1514751   0.353   4.655   7.744  0.1767 -0.0672 -0.0531
  136OSM   H15A14752   0.443   4.612   7.703 -1.1003 -2.5756 -0.4464
  136OSM   H15B14753   0.264   4.622   7.692 -0.2794  1.9501 -0.6411
  136OSM   H15C14754   0.346   4.595   7.834 -2.2082 -0.6345 -0.5335
  136OSM    C1414755   0.233   4.849   7.839 -0.0596 -0.0177  1.1778
  136OSM   H14A14756   0.150   4.819   7.777 -0.9853  4.1855  0.0597
  136OSM   H14B14757   0.227   4.955   7.860 -0.4885  0.0708  0.6086
  136OSM   H14C14758   0.204   4.804   7.933 -0.8247 -0.8399  0.5610
  136OSM    C1314759   0.473   4.813   7.887  0.4773 -0.2886  0.4518
  136OSM   H13A14760   0.482   4.910   7.934 -0.1889 -0.4592  0.9495
  136OSM   H13B14761   0.563   4.781   7.838  0.1384 -1.2745  0.4354
  136OSM   H13C14762   0.463   4.741   7.967 -1.4204  0.0753  0.6035
  136OSM    C1214763   0.414   4.889   7.669  0.6140  0.3555 -0.6217
  136OSM   H12A14764   0.407   4.989   7.709 -0.3691  0.3133 -0.6759
  136OSM   H12B14765   0.332   4.884   7.599  0.9785  0.6094 -1.0737
  136OSM    C1114766   0.547   4.865   7.597  0.4057 -0.7195  0.4364
  136OSM   H11A14767   0.539   4.926   7.505  3.4167  0.9070  1.1016
  136OSM   H11B14768   0.555   4.759   7.567  0.1516 -0.3804 -0.8749
  136OSM      P14769   0.811   4.840   7.631 -0.2551  0.4479  0.0904
  136OSM    O1314770   0.921   4.930   7.672  0.1834 -0.0173 -0.5165
  136OSM    O1414771   0.825   4.706   7.692  0.4359 -0.1467  0.1032
  136OSM    O1114772   0.792   4.825   7.477 -0.4686 -0.6791 -0.5064
  136OSM    O1214773   0.667   4.896   7.677  0.0315  0.2550  0.0682
  136OSM    C1S14774   0.767   4.698   7.407 -0.3196 -0.2048 -0.1757
  136OSM    H1S14775   0.706   4.638   7.478 -2.5530  1.8282 -0.2580
  136OSM    H1T14776   0.860   4.637   7.397 -1.3474 -1.7643 -0.5640
  136OSM     NF14777   0.665   4.571   7.217  0.1518 -0.0782  0.0388
  136OSM    HNF14778   0.714   4.545   7.135 -1.4431 -1.5521 -0.5132
  136OSM    C2S14779   0.698   4.706   7.270 -0.7487  0.2417 -0.0186
  136OSM    H2S14780   0.596   4.749   7.285 -1.1239  0.3155 -2.3689
  136OSM    C3S14781   0.776   4.803   7.172  0.2180 -0.5388 -0.1267
  136OSM    H3S14782   0.878   4.763   7.153 -0.2980 -2.3806  0.7475
  136OSM     O314783   0.801   4.929   7.231 -0.0519  0.0433 -0.5194
  136OSM    HO314784   0.796   4.906   7.325 -0.4140 -1.0790 -0.7976
  136OSM    C4S14785   0.704   4.818   7.040 -0.1656 -0.1212 -0.6924
  136OSM    H4S14786   0.756   4.771   6.955 -1.7352 -1.1116 -1.1392
  136OSM    C5S14787   0.583   4.873   7.018 -0.3108  0.1335  1.1498
  136OSM    H5S14788   0.518   4.895   7.105  1.6880  1.3015  2.4093
  136OSM    C6S14789   0.511   4.879   6.881  0.1201 -0.2650 -0.6579
  136OSM    H6S14790   0.509   4.983   6.842  2.4483 -0.6644 -2.0476
  136OSM    H6T14791   0.403   4.858   6.899  0.3997 -1.1447  0.0631
  136OSM    C7S14792   0.564   4.782   6.778 -0.2738 -0.5327  0.0757
  136OSM    H7S14793   0.553   4.680   6.819  2.8291 -1.4626 -1.1075
  136OSM    H7T14794   0.671   4.792   6.752  0.0686 -0.3076  1.4910
  136OSM    C8S14795   0.484   4.790   6.643 -0.1860  0.3802  0.0577
  136OSM    H8S14796   0.492   4.894   6.606  1.2125 -0.5893 -2.6254
  136OSM    H8T14797   0.379   4.755   6.656  0.2237 -1.0816 -0.3350
  136OSM    C9S14798   0.534   4.678   6.550  0.5857 -0.6835  0.5014
  136OSM    H9S14799   0.505   4.582   6.597  3.0173 -1.2330  1.0581
  136OSM    H9T14800   0.645   4.689   6.548  0.6015 -0.8154  0.6951
  136OSM   C10S14801   0.478   4.694   6.401  0.0442 -0.2690 -0.1372
  136OSM   H10S14802   0.367   4.689   6.392  0.1131  0.4481 -1.6929
  136OSM   H10T14803   0.506   4.603   6.343 -0.1323 -1.5414  1.6757
  136OSM   C11S14804   0.517   4.822   6.332 -0.8027 -0.0799 -0.5326
  136OSM   H11S14805   0.623   4.848   6.350 -0.2241 -1.4099 -1.8033
  136OSM   H11T14806   0.456   4.903   6.377 -2.5868 -2.0991  0.9454
  136OSM   C12S14807   0.485   4.828   6.181 -0.5801  0.0932 -0.0888
  136OSM   H12S14808   0.475   4.934   6.150  2.9043  0.5368 -0.1035
  136OSM   H12T14809   0.387   4.785   6.153 -0.8907  0.1429  0.8830
  136OSM   C13S14810   0.589   4.744   6.100 -0.1181 -0.0967  0.3823
  136OSM   H13S14811   0.549   4.641   6.090 -0.2326 -0.0481  0.3452
  136OSM   H13T14812   0.685   4.740   6.155 -0.1513  2.5257  0.7663
  136OSM   C14S14813   0.629   4.804   5.969  0.5445 -0.6201 -0.5600
  136OSM   H14S14814   0.685   4.899   5.989 -0.9623 -0.1530  1.9569
  136OSM   H14T14815   0.543   4.835   5.907  1.5438  0.9146 -1.2410
  136OSM   C15S14816   0.710   4.717   5.878  0.8185  0.1554 -0.2740
  136OSM   H15S14817   0.670   4.615   5.893 -2.3052  1.0891 -1.4230
  136OSM   H15T14818   0.812   4.705   5.920  0.6467  0.8363  0.3550
  136OSM   C16S14819   0.722   4.773   5.735 -0.2699 -0.2406  0.0853
  136OSM   H16S14820   0.756   4.879   5.739  2.3019 -1.0237  0.4875
  136OSM   H16T14821   0.630   4.763   5.673 -0.4481 -1.8603  0.5604
  136OSM   C17S14822   0.831   4.695   5.651 -0.1440  0.0679  0.4942
  136OSM   H17S14823   0.801   4.589   5.639  0.0497  0.1021 -0.3384
  136OSM   H17T14824   0.925   4.694   5.710 -1.5938 -0.3762  2.9807
  136OSM   C18S14825   0.855   4.761   5.516 -0.5847 -0.2073  0.1301
  136OSM   H18S14826   0.906   4.856   5.543  1.7019 -1.8227  1.9923
  136OSM   H18T14827   0.766   4.780   5.452  1.5264 -1.6951 -3.5702
  136OSM   H18U14828   0.933   4.706   5.459  1.8300  1.8651  1.2446
  136OSM    C1F14829   0.580   4.488   7.271  0.4018 -0.0772  0.5884
  136OSM     OF14830   0.503   4.527   7.363 -0.2483  0.2580 -0.6910
  136OSM    C2F14831   0.568   4.349   7.222  0.8858  0.4060  0.3694
  136OSM    H2F14832   0.606   4.273   7.293 -2.1525 -0.7652  0.8966
  136OSM    H2G14833   0.627   4.338   7.128  0.1350 -0.4667 -0.0131
  136OSM    C3F14834   0.420   4.331   7.170  0.1902  0.4785 -0.0571
  136OSM    H3F14835   0.347   4.332   7.254 -0.8297 -2.4081 -0.8291
  136OSM    H3G14836   0.404   4.228   7.134  0.1193  0.0100  1.2676
  136OSM    C4F14837   0.381   4.434   7.062 -0.3007 -0.5679  0.0449
  136OSM    H4F14838   0.456   4.434   6.980  1.6562  0.5606  1.7653
  136OSM    H4G14839   0.383   4.537   7.102  2.3894 -0.7511  0.5247
  136OSM    C5F14840   0.252   4.404   6.988 -0.2601  1.6542 -0.3174
  136OSM    H5F14841   0.162   4.408   7.054 -1.1325  1.2448 -1.4350
  136OSM    H5G14842   0.262   4.304   6.940  0.3384 -0.1539  3.2645
  136OSM    C6F14843   0.227   4.513   6.884  0.0345  0.3242  0.2113
  136OSM    H6F14844   0.323   4.544   6.837  1.1606 -2.2009  0.6646
  136OSM    H6G14845   0.177   4.597   6.935 -2.2169 -0.9901  0.3202
  136OSM    C7F14846   0.133   4.478   6.772  0.3106  0.2563  0.2821
  136OSM    H7F14847   0.040   4.432   6.810 -2.5516  2.1887 -3.6388
  136OSM    H7G14848   0.170   4.399   6.703  1.1766 -0.4424  1.5137
  136OSM    C8F14849   0.086   4.604   6.690 -0.6370  0.4179  1.0925
  136OSM    H8F14850   0.176   4.645   6.640 -1.2615 -0.2049 -0.5993
  136OSM    H8G14851   0.054   4.688   6.756  0.9736 -0.4060  3.0255
  136OSM    C9F14852  -0.018   4.573   6.586 -0.2270 -0.1932 -0.0843
  136OSM    H9F14853  -0.122   4.602   6.610  0.0188  1.2477 -0.6321
  136OSM   C10F14854  -0.006   4.520   6.466  0.5763 -0.0822  0.1318
  136OSM   H10F14855  -0.097   4.516   6.403 -0.0474  2.7362  0.6868
  136OSM   C11F14856   0.123   4.458   6.414  0.6565 -0.6247  0.5033
  136OSM   H11F14857   0.121   4.352   6.447 -0.2261 -0.2527  1.7189
  136OSM   H11G14858   0.217   4.503   6.452  0.6147  0.0669 -0.1862
  136OSM   C12F14859   0.128   4.453   6.260  1.3232  0.3537 -0.2438
  136OSM   H12F14860   0.026   4.441   6.219  0.8523  0.4113  0.8699
  136OSM   H12G14861   0.174   4.358   6.226 -1.6237 -0.8507 -1.0973
  136OSM   C13F14862   0.182   4.571   6.185 -1.5940  0.5097  0.3786
  136OSM   H13F14863   0.292   4.557   6.181 -1.8160 -1.5050  0.0102
  136OSM   H13G14864   0.144   4.671   6.212 -2.7718 -0.0305  0.7917
  136OSM   C14F14865   0.128   4.557   6.039 -0.7763  0.6202 -0.2162
  136OSM   H14F14866   0.018   4.568   6.030 -0.8745  0.1774  0.3676
  136OSM   H14G14867   0.151   4.451   6.014  0.6627  0.9615 -0.4198
  136OSM   C15F14868   0.185   4.652   5.935  0.1776 -0.3025  0.2075
  136OSM   H15F14869   0.295   4.639   5.950  0.0875 -2.6533 -0.7107
  136OSM   H15G14870   0.158   4.756   5.961 -2.7777 -0.4913 -1.6094
  136OSM   C16F14871   0.132   4.623   5.796 -0.7075  0.1347 -0.1935
  136OSM   H16F14872   0.022   4.636   5.803 -0.6569 -0.4624  2.7966
  136OSM   H16G14873   0.161   4.521   5.764  0.1769  0.3302 -0.0439
  136OSM   C17F14874   0.200   4.715   5.691  0.9374  0.0154 -0.3807
  136OSM   H17F14875   0.305   4.682   5.677  0.5496 -2.0182  1.0644
  136OSM   H17G14876   0.210   4.819   5.728 -0.7687 -0.1114  0.5478
  136OSM   C18F14877   0.123   4.713   5.555  0.7108  0.0958  0.6029
  136OSM   H18F14878   0.174   4.786   5.489 -0.3830  0.7408  0.4412
  136OSM   H18G14879   0.016   4.733   5.579  0.8148 -0.1269  1.2720
  136OSM   H18H14880   0.135   4.616   5.503  0.6808  1.2985 -1.7900
  137OSM      N14881   2.768   3.155   7.884 -0.1996  0.2337 -0.7358
  137OSM    C1514882   2.746   3.010   7.917 -0.0087 -0.0656 -0.2281
  137OSM   H15A14883   2.817   2.944   7.869 -0.5991  0.4770 -1.9244
  137OSM   H15B14884   2.647   2.986   7.881  0.4985  1.0121 -2.5156
  137OSM   H15C14885   2.741   2.986   8.022 -2.2465  0.9950 -0.0420
  137OSM    C1414886   2.648   3.234   7.924  0.0319 -0.0890 -0.1561
  137OSM   H14A14887   2.557   3.203   7.875 -0.5574 -1.3030  1.6247
  137OSM   H14B14888   2.657   3.341   7.910 -2.0014  0.1343 -0.0872
  137OSM   H14C14889   2.622   3.218   8.028  0.0252  0.7429 -0.0214
  137OSM    C1314890   2.880   3.205   7.969 -0.4001 -0.0097  0.1534
  137OSM   H13A14891   2.970   3.157   7.936  0.3760  1.4850  0.0049
  137OSM   H13B14892   2.863   3.198   8.075 -0.7125 -1.9472  0.0142
  137OSM   H13C14893   2.897   3.311   7.955 -1.1270  0.4393  2.2276
  137OSM    C1214894   2.800   3.184   7.740 -0.6336  0.6519 -0.7837
  137OSM   H12A14895   2.810   3.291   7.733  2.3815  0.5995  0.9432
  137OSM   H12B14896   2.730   3.140   7.671 -0.0532  1.3519 -1.8301
  137OSM    C1114897   2.948   3.140   7.699 -0.4106  0.3500  0.1172
  137OSM   H11A14898   3.027   3.198   7.751  0.5446 -0.1422 -0.7499
  137OSM   H11B14899   2.944   3.174   7.593  0.9311 -0.9151 -0.3701
  137OSM      P14900   2.958   2.890   7.609 -0.0044 -0.2063 -0.4676
  137OSM    O1314901   3.090   2.841   7.564 -0.2088  0.3049 -0.0100
  137OSM    O1414902   2.870   2.790   7.673 -1.1161 -0.6332 -0.1311
  137OSM    O1114903   2.888   2.949   7.481  0.6523  0.2097 -0.2120
  137OSM    O1214904   2.974   3.004   7.713  0.0798  0.0785  0.0073
  137OSM    C1S14905   2.958   2.974   7.363 -0.4166 -0.0652  0.1056
  137OSM    H1S14906   3.005   2.885   7.315 -0.7566  0.4345 -1.1856
  137OSM    H1T14907   3.041   3.043   7.390 -0.4015  0.4705 -1.2416
  137OSM     NF14908   2.943   3.033   7.126 -0.0070  0.0558 -0.3986
  137OSM    HNF14909   2.972   3.124   7.099  2.5397 -1.2714 -2.7000
  137OSM    C2S14910   2.868   3.022   7.251  1.0228 -0.6452 -0.1847
  137OSM    H2S14911   2.787   2.949   7.231 -0.5929  0.2192  2.7544
  137OSM    C3S14912   2.803   3.157   7.300  0.1494  0.3725 -0.5785
  137OSM    H3S14913   2.886   3.231   7.308  1.9341 -1.6205  0.6777
  137OSM     O314914   2.739   3.137   7.421  0.2586  0.2245  0.0286
  137OSM    HO314915   2.787   3.059   7.453  0.5966  0.5912  0.4320
  137OSM    C4S14916   2.704   3.195   7.195  0.6370  0.0511 -0.9263
  137OSM    H4S14917   2.616   3.129   7.195  0.3211  0.4659 -0.4860
  137OSM    C5S14918   2.712   3.304   7.113  0.0517 -0.5152 -0.5936
  137OSM    H5S14919   2.798   3.371   7.110 -0.0450 -0.1284  2.3156
  137OSM    C6S14920   2.594   3.341   7.027  0.4798 -0.0843 -0.1254
  137OSM    H6S14921   2.571   3.447   7.054  1.3275  0.8061 -2.6214
  137OSM    H6T14922   2.505   3.277   7.043 -0.2175  0.6476 -0.9584
  137OSM    C7S14923   2.636   3.345   6.881  0.0294 -0.3548  0.0369
  137OSM    H7S14924   2.702   3.264   6.846  0.8436  0.3791 -0.1608
  137OSM    H7T14925   2.677   3.447   6.863 -2.6191  1.5637  3.5197
  137OSM    C8S14926   2.504   3.357   6.789  0.4464  0.9199  0.0808
  137OSM    H8S14927   2.439   3.443   6.817 -0.9460 -0.0395 -0.1357
  137OSM    H8T14928   2.444   3.266   6.808  2.6793 -1.1895 -2.2992
  137OSM    C9S14929   2.549   3.361   6.638  0.3768 -0.6165  0.6349
  137OSM    H9S14930   2.608   3.268   6.621 -0.6403 -1.5355  1.8621
  137OSM    H9T14931   2.606   3.456   6.636 -1.1682  0.3394  1.0156
  137OSM   C10S14932   2.428   3.363   6.543  0.4413  0.4726 -0.3189
  137OSM   H10S14933   2.375   3.459   6.562  1.5457  0.9831  0.2790
  137OSM   H10T14934   2.366   3.276   6.570  0.6609  0.5141  0.3261
  137OSM   C11S14935   2.479   3.330   6.407 -0.3782 -0.2624 -0.4082
  137OSM   H11S14936   2.528   3.231   6.399  1.2914  0.6106 -1.7198
  137OSM   H11T14937   2.558   3.404   6.382 -0.2281 -1.1678 -2.9925
  137OSM   C12S14938   2.377   3.345   6.296 -0.1545  0.2100  0.3931
  137OSM   H12S14939   2.322   3.441   6.290  0.5538  0.7679  1.9747
  137OSM   H12T14940   2.300   3.265   6.304  0.2404 -0.0619  1.7533
  137OSM   C13S14941   2.441   3.308   6.164 -0.1970 -0.4471  1.1930
  137OSM   H13S14942   2.502   3.216   6.173 -0.4646 -0.6356  1.1172
  137OSM   H13T14943   2.512   3.387   6.133 -0.1656 -1.2716 -1.0500
  137OSM   C14S14944   2.327   3.293   6.065 -0.1404  0.4044  0.3843
  137OSM   H14S14945   2.255   3.376   6.085 -1.5303 -1.1081  2.0136
  137OSM   H14T14946   2.274   3.198   6.090 -1.5414  1.0519 -0.0451
  137OSM   C15S14947   2.374   3.298   5.920 -0.2174 -0.2559  0.3855
  137OSM   H15S14948   2.450   3.219   5.907  0.3788 -0.1304  2.6628
  137OSM   H15T14949   2.414   3.401   5.914  0.6957 -0.5708  0.9225
  137OSM   C16S14950   2.259   3.278   5.819 -0.9472  0.4513  0.4090
  137OSM   H16S14951   2.179   3.349   5.849 -1.7668 -2.1009  5.2313
  137OSM   H16T14952   2.209   3.179   5.822 -1.1605  0.5670  0.7224
  137OSM   C17S14953   2.309   3.283   5.671 -0.2580  0.2394 -1.7287
  137OSM   H17S14954   2.374   3.196   5.649 -1.2261 -0.8622 -0.4036
  137OSM   H17T14955   2.370   3.376   5.661 -1.7419  1.5175  0.1879
  137OSM   C18S14956   2.189   3.301   5.565 -0.1383 -0.1270  0.3327
  137OSM   H18S14957   2.149   3.198   5.560  1.3206 -0.6751 -0.7397
  137OSM   H18T14958   2.231   3.326   5.465 -0.6857 -0.6079 -0.0204
  137OSM   H18U14959   2.111   3.374   5.595 -0.8103 -0.2109 -1.1480
  137OSM    C1F14960   2.997   2.925   7.057 -0.1190  0.5808  0.3756
  137OSM     OF14961   2.953   2.808   7.076  0.6991  0.0174 -0.5550
  137OSM    C2F14962   3.095   2.950   6.951  0.5601  0.8467 -0.0624
  137OSM    H2F14963   3.193   2.953   7.004 -0.2291  2.1235  1.3791
  137OSM    H2G14964   3.080   3.054   6.915 -0.4563  0.8031  0.2025
  137OSM    C3F14965   3.090   2.856   6.829  0.2346  0.6447 -0.0486
  137OSM    H3F14966   2.988   2.820   6.803  0.5942  0.2343 -0.9344
  137OSM    H3G14967   3.154   2.775   6.871  1.6973  0.5482 -2.3292
  137OSM    C4F14968   3.150   2.912   6.701 -0.1605  0.0953 -0.0530
  137OSM    H4F14969   3.253   2.947   6.724 -0.1311  1.3155 -1.9062
  137OSM    H4G14970   3.083   2.990   6.659 -0.0209 -0.1523 -0.7450
  137OSM    C5F14971   3.180   2.798   6.601  0.1994  0.3934  0.2750
  137OSM    H5F14972   3.081   2.749   6.584  0.1667  0.2426  0.8593
  137OSM    H5G14973   3.256   2.737   6.655 -0.5141 -0.1371  0.7077
  137OSM    C6F14974   3.238   2.847   6.469 -0.1899  0.6457 -0.1898
  137OSM    H6F14975   3.263   2.755   6.412  0.1869 -0.0354  1.0502
  137OSM    H6G14976   3.321   2.918   6.492  1.4621 -1.9260  2.4707
  137OSM    C7F14977   3.136   2.933   6.382  0.2503  0.4085  0.1501
  137OSM    H7F14978   3.102   3.018   6.446 -1.5196 -1.1456  1.3917
  137OSM    H7G14979   3.053   2.870   6.343  0.8097 -1.5028  1.9034
  137OSM    C8F14980   3.204   2.989   6.249  0.2881 -0.6423  0.6189
  137OSM    H8F14981   3.283   3.054   6.292 -0.3610  0.3315  0.3781
  137OSM    H8G14982   3.124   3.053   6.204  0.2940 -2.4905 -2.3340
  137OSM    C9F14983   3.250   2.881   6.154  0.1448  0.0715 -0.0022
  137OSM    H9F14984   3.305   2.797   6.200  0.7988  0.7462  0.4755
  137OSM   C10F14985   3.229   2.870   6.022  0.0960 -0.1170  0.2067
  137OSM   H10F14986   3.265   2.778   5.971 -1.3346  0.2914 -1.6592
  137OSM   C11F14987   3.162   2.964   5.923  0.1948 -0.6191 -0.3420
  137OSM   H11F14988   3.240   3.013   5.860 -1.0987  4.8021  1.6979
  137OSM   H11G14989   3.118   3.054   5.971 -1.5690 -1.5159 -0.2058
  137OSM   C12F14990   3.039   2.908   5.849  0.0967 -0.0673 -0.7487
  137OSM   H12F14991   2.981   2.991   5.802  0.4933 -0.0976 -1.3044
  137OSM   H12G14992   2.974   2.857   5.924 -0.6191  0.6490 -0.8693
  137OSM   C13F14993   3.085   2.822   5.738 -0.4904  0.2003 -0.4832
  137OSM   H13F14994   3.144   2.735   5.772  1.1888  0.7869 -1.7882
  137OSM   H13G14995   3.158   2.886   5.685  0.5910 -0.6120 -0.0034
  137OSM   C14F14996   2.974   2.775   5.644 -0.8539  1.1955  0.3072
  137OSM   H14F14997   2.939   2.874   5.609 -0.3813  1.1698 -0.2412
  137OSM   H14G14998   2.899   2.723   5.707 -2.9927  1.8543 -1.5681
  137OSM   C15F14999   3.003   2.689   5.522  0.1442 -0.4447 -0.2806
  137OSM   H15F15000   3.074   2.608   5.551  1.6964  0.3464 -1.7080
  137OSM   H15G15001   3.063   2.749   5.451  2.2242  0.7704  2.3312
  137OSM   C16F15002   2.880   2.633   5.445  0.2863 -0.4165 -0.0460
  137OSM   H16F15003   2.929   2.575   5.364 -0.5096  0.2621 -1.0495
  137OSM   H16G15004   2.823   2.718   5.400  1.9612  0.2055 -1.0696
  137OSM   C17F15005   2.795   2.539   5.533 -0.0546 -0.4335 -0.4324
  137OSM   H17F15006   2.737   2.606   5.601  0.9148 -0.5948  0.5809
  137OSM   H17G15007   2.868   2.477   5.590 -1.0368 -1.6920 -0.5055
  137OSM   C18F15008   2.700   2.451   5.451  0.8317  0.1923 -0.0252
  137OSM   H18F15009   2.638   2.395   5.525  2.0538  2.7979  3.2396
  137OSM   H18G15010   2.757   2.375   5.394 -1.4941 -0.0914 -2.1582
  137OSM   H18H15011   2.630   2.509   5.387 -0.9499 -0.6322  1.0628
  138OSM      N15012   6.081   3.328   7.973 -1.0396  0.1341 -0.4245
  138OSM    C1515013   6.112   3.408   7.855 -0.6484 -0.5661  0.3358
  138OSM   H15A15014   6.197   3.474   7.868 -1.6171  0.7187  0.2812
  138OSM   H15B15015   6.030   3.469   7.821 -1.6070 -1.2884  1.3042
  138OSM   H15C15016   6.141   3.348   7.770  2.2546 -1.5702  1.9031
  138OSM    C1415017   6.059   3.434   8.078 -0.8211  0.3405 -0.5176
  138OSM   H14A15018   6.152   3.484   8.102 -1.4535  1.0553  0.5091
  138OSM   H14B15019   6.031   3.386   8.170  1.6679 -3.5962 -1.5539
  138OSM   H14C15020   5.995   3.517   8.050  1.4110  2.9693  1.6293
  138OSM    C1315021   5.951   3.258   7.954  0.5984 -0.2379 -0.7267
  138OSM   H13A15022   5.932   3.186   8.032  0.4833 -0.9439 -1.3999
  138OSM   H13B15023   5.948   3.209   7.858  0.8048  1.1286 -1.4558
  138OSM   H13C15024   5.861   3.318   7.947  0.6764 -0.0486 -0.1638
  138OSM    C1215025   6.192   3.229   8.004  0.6861  1.2873 -0.5095
  138OSM   H12A15026   6.290   3.273   8.018  0.7304  1.1276 -0.2970
  138OSM   H12B15027   6.200   3.164   7.918 -0.6302 -0.8525  0.8941
  138OSM    C1115028   6.166   3.132   8.122 -0.0002  0.1633 -0.4054
  138OSM   H11A15029   6.171   3.195   8.214  1.2075 -0.2131 -0.1944
  138OSM   H11B15030   6.251   3.062   8.135 -2.0740 -2.1937  1.4114
  138OSM      P15031   6.045   2.911   8.043 -0.0965  0.1534 -0.0854
  138OSM    O1315032   6.159   2.834   8.083  0.5907 -0.4950 -0.0402
  138OSM    O1415033   5.907   2.852   8.046 -0.0811 -0.3542  0.3148
  138OSM    O1115034   6.073   2.956   7.891 -0.4662 -0.2353  0.1304
  138OSM    O1215035   6.047   3.051   8.115  0.5308  0.2750 -0.1139
  138OSM    C1S15036   6.037   2.864   7.792 -0.5911  0.5480 -0.1519
  138OSM    H1S15037   5.928   2.878   7.773 -0.9522 -2.1324 -0.3923
  138OSM    H1T15038   6.046   2.758   7.824 -3.1369  0.8561  1.9783
  138OSM     NF15039   6.050   2.790   7.557 -0.7158  0.5608 -0.6591
  138OSM    HNF15040   6.118   2.720   7.534  0.3610  1.1204  0.6806
  138OSM    C2S15041   6.110   2.878   7.656 -0.0155  0.1501 -0.6946
  138OSM    H2S15042   6.102   2.984   7.624 -2.7693 -0.1222 -1.1474
  138OSM    C3S15043   6.265   2.844   7.678  0.7834 -0.5132 -0.8836
  138OSM    H3S15044   6.280   2.734   7.681  1.0144 -0.5390 -2.2841
  138OSM     O315045   6.337   2.884   7.792  0.1436  0.2884  0.0535
  138OSM    HO315046   6.274   2.907   7.862  2.9087 -1.5313  3.4144
  138OSM    C4S15047   6.339   2.896   7.554  0.4647  0.2873  0.4205
  138OSM    H4S15048   6.319   3.003   7.534 -2.7521 -0.1351  0.8455
  138OSM    C5S15049   6.383   2.813   7.460 -0.7976 -0.1673  0.7078
  138OSM    H5S15050   6.354   2.708   7.470  0.4001 -0.4801  0.9690
  138OSM    C6S15051   6.448   2.860   7.328  0.2075  0.3462 -0.9688
  138OSM    H6S15052   6.532   2.791   7.305  2.1837  2.0077  0.8172
  138OSM    H6T15053   6.486   2.964   7.331  0.2891  0.3011  0.6012
  138OSM    C7S15054   6.351   2.862   7.211 -0.7166  0.1649  0.0071
  138OSM    H7S15055   6.281   2.948   7.223  1.3315  1.9670 -0.4022
  138OSM    H7T15056   6.314   2.758   7.195  2.9364 -1.0676 -1.2204
  138OSM    C8S15057   6.415   2.909   7.079  0.1856 -0.6371 -0.1980
  138OSM    H8S15058   6.520   2.871   7.076  0.4790  0.0520  0.8105
  138OSM    H8T15059   6.432   3.018   7.093 -2.6669  0.0446 -1.3711
  138OSM    C9S15060   6.350   2.893   6.948  0.2162 -0.5419 -0.0230
  138OSM    H9S15061   6.241   2.909   6.962  0.2575 -1.3939  1.3842
  138OSM    H9T15062   6.347   2.785   6.923 -0.5469 -1.2401  2.7673
  138OSM   C10S15063   6.410   2.971   6.831 -0.1604 -0.0918 -0.4180
  138OSM   H10S15064   6.521   2.968   6.832 -0.1468  0.0645  0.7624
  138OSM   H10T15065   6.380   3.077   6.843 -0.6042 -0.4304  2.0251
  138OSM   C11S15066   6.382   2.915   6.693 -0.8421  0.5534 -0.0640
  138OSM   H11S15067   6.274   2.913   6.664 -1.4140  0.6558  1.9394
  138OSM   H11T15068   6.420   2.811   6.695 -0.0831  0.8362  2.3901
  138OSM   C12S15069   6.461   2.977   6.581 -0.2102  0.0838  0.0438
  138OSM   H12S15070   6.572   2.975   6.593  0.0007  0.4429 -1.5325
  138OSM   H12T15071   6.433   3.085   6.584 -0.0879  0.1072  0.2910
  138OSM   C13S15072   6.412   2.921   6.446 -0.5390 -0.4482  0.6205
  138OSM   H13S15073   6.301   2.921   6.455 -0.4200 -1.2047  2.6689
  138OSM   H13T15074   6.456   2.820   6.434  0.2178 -0.1051  0.4285
  138OSM   C14S15075   6.433   3.009   6.325  0.4740  0.4708 -0.2994
  138OSM   H14S15076   6.542   3.002   6.304  0.2197 -3.4519 -1.1670
  138OSM   H14T15077   6.400   3.115   6.332 -0.7650  0.1004 -0.1639
  138OSM   C15S15078   6.368   2.933   6.207  0.4668  0.4729 -0.2769
  138OSM   H15S15079   6.259   2.918   6.220  0.8149 -1.5371  0.6834
  138OSM   H15T15080   6.420   2.835   6.205  1.6107  0.9936  1.6352
  138OSM   C16S15081   6.405   2.996   6.080 -0.9500  0.2224  0.3873
  138OSM   H16S15082   6.515   3.013   6.076 -1.1669  2.1848  1.4354
  138OSM   H16T15083   6.368   3.099   6.063  1.9571  1.3091  0.0760
  138OSM   C17S15084   6.374   2.904   5.962 -0.0916 -0.8962  0.1102
  138OSM   H17S15085   6.264   2.888   5.962 -0.0954 -1.5154 -2.7849
  138OSM   H17T15086   6.436   2.813   5.969 -0.1201 -0.9872 -0.6880
  138OSM   C18S15087   6.423   2.961   5.826  0.4094 -0.0202  0.6151
  138OSM   H18S15088   6.534   2.970   5.829  0.3860  0.2276  0.9567
  138OSM   H18T15089   6.382   3.064   5.818  0.6266  0.0556  0.4644
  138OSM   H18U15090   6.392   2.904   5.736 -4.0194  2.5216  0.2235
  138OSM    C1F15091   5.936   2.801   7.501  0.3240  0.4381 -0.5659
  138OSM     OF15092   5.858   2.886   7.541 -0.2493 -0.2361  0.0743
  138OSM    C2F15093   5.904   2.702   7.394  0.0537 -0.4710  0.8157
  138OSM    H2F15094   5.817   2.645   7.433  0.2673 -0.1411  1.8264
  138OSM    H2G15095   5.983   2.625   7.378 -0.5316 -0.7140 -1.1726
  138OSM    C3F15096   5.874   2.780   7.263  0.1398  0.8507  0.5387
  138OSM    H3F15097   5.970   2.830   7.238  1.4926 -0.8350  2.0875
  138OSM    H3G15098   5.785   2.844   7.278  0.8593  2.4928 -1.6621
  138OSM    C4F15099   5.822   2.675   7.155  0.2495 -0.2727  0.1000
  138OSM    H4F15100   5.722   2.633   7.181 -0.1012  1.4873  1.8122
  138OSM    H4G15101   5.887   2.586   7.148  1.4149  0.6960 -2.4620
  138OSM    C5F15102   5.835   2.733   7.012 -0.2418 -0.8874 -0.2739
  138OSM    H5F15103   5.942   2.756   6.993 -0.4633 -0.4159 -0.9701
  138OSM    H5G15104   5.788   2.833   7.009 -0.2480 -0.6214  3.4306
  138OSM    C6F15105   5.788   2.640   6.900  0.1084  0.3251 -0.5643
  138OSM    H6F15106   5.679   2.651   6.881  0.0116 -1.2500 -1.0716
  138OSM    H6G15107   5.804   2.534   6.930 -1.1576  0.3796  0.4367
  138OSM    C7F15108   5.867   2.656   6.770  0.1017  0.2205  0.2905
  138OSM    H7F15109   5.836   2.566   6.711  0.5944 -0.2509  0.7410
  138OSM    H7G15110   5.976   2.650   6.788 -0.3219 -1.1309  2.9090
  138OSM    C8F15111   5.835   2.790   6.709  0.2864 -0.2558  0.0881
  138OSM    H8F15112   5.877   2.875   6.767  3.3575 -0.2056 -1.9625
  138OSM    H8G15113   5.725   2.806   6.713  0.1324 -0.0292 -2.7900
  138OSM    C9F15114   5.905   2.798   6.573 -0.4565  0.5697 -0.0766
  138OSM    H9F15115   6.012   2.820   6.578 -0.1260 -1.1446  1.1912
  138OSM   C10F15116   5.841   2.794   6.452  0.4212  0.0188 -0.5742
  138OSM   H10F15117   5.891   2.804   6.355  1.4874 -1.0424 -0.1643
  138OSM   C11F15118   5.691   2.781   6.432 -0.1532 -0.0407 -0.5807
  138OSM   H11F15119   5.651   2.849   6.354 -0.9275 -1.3426 -1.3510
  138OSM   H11G15120   5.645   2.805   6.531  5.4780  1.3951  2.1077
  138OSM   C12F15121   5.644   2.640   6.398 -1.3121 -0.0168  0.2194
  138OSM   H12F15122   5.637   2.586   6.495  1.8607 -1.7232 -0.3641
  138OSM   H12G15123   5.730   2.587   6.351 -1.3838  1.5204 -1.7902
  138OSM   C13F15124   5.512   2.612   6.317 -0.1726  0.5329 -0.8111
  138OSM   H13F15125   5.430   2.678   6.353  0.5850  2.0291 -1.7047
  138OSM   H13G15126   5.488   2.506   6.337  1.0786  0.3548 -0.0835
  138OSM   C14F15127   5.510   2.633   6.166 -0.3504 -0.1154 -0.8988
  138OSM   H14F15128   5.588   2.563   6.130  2.8673  3.0297 -0.5825
  138OSM   H14G15129   5.541   2.738   6.145 -1.2779  0.7243  1.6247
  138OSM   C15F15130   5.376   2.606   6.096  0.5779 -0.2405 -0.1820
  138OSM   H15F15131   5.312   2.693   6.121  2.3005  0.7730  0.9211
  138OSM   H15G15132   5.329   2.508   6.119 -0.3393  0.3308  0.4204
  138OSM   C16F15133   5.391   2.614   5.947 -0.2215 -0.1579 -0.6333
  138OSM   H16F15134   5.444   2.525   5.905  0.0264  0.4921 -1.7408
  138OSM   H16G15135   5.445   2.705   5.912 -1.2810  0.3223 -1.0543
  138OSM   C17F15136   5.255   2.626   5.870 -0.1698  0.4614  0.0988
  138OSM   H17F15137   5.179   2.681   5.929 -1.2165 -2.7624  1.9876
  138OSM   H17G15138   5.228   2.518   5.869 -0.0925  0.3517 -3.2766
  138OSM   C18F15139   5.273   2.670   5.729 -0.2084  0.6743 -0.1472
  138OSM   H18F15140   5.279   2.781   5.733  0.7371  0.6018  0.4721
  138OSM   H18G15141   5.185   2.643   5.667  0.1763  0.3135 -0.5420
  138OSM   H18H15142   5.363   2.627   5.680 -1.1324 -2.4932  0.7358
  139OSM      N15143   1.473   6.546   8.072  0.0713 -0.1638  0.5332
  139OSM    C1515144   1.382   6.459   8.004  0.6849  0.0069  0.4199
  139OSM   H15A15145   1.285   6.461   8.053  1.7758  1.8744  2.6710
  139OSM   H15B15146   1.409   6.354   8.001  2.0067  0.3415 -0.0057
  139OSM   H15C15147   1.362   6.498   7.905  1.4052  0.0906  0.3025
  139OSM    C1415148   1.422   6.688   8.088 -0.6012 -0.6876  0.3399
  139OSM   H14A15149   1.395   6.723   7.990  0.0705  1.1322  0.7639
  139OSM   H14B15150   1.489   6.760   8.133  1.1618 -1.3686 -1.0860
  139OSM   H14C15151   1.334   6.684   8.150 -1.3150 -2.7807 -0.7086
  139OSM    C1315152   1.500   6.490   8.207 -0.6450 -0.1117  0.1563
  139OSM   H13A15153   1.526   6.386   8.200 -1.6280 -0.5005  1.7270
  139OSM   H13B15154   1.405   6.495   8.259 -0.1000 -1.4339  1.3444
  139OSM   H13C15155   1.554   6.561   8.268 -0.4409 -0.6430  0.6019
  139OSM    C1215156   1.601   6.546   7.988  0.8393 -0.5339 -0.2935
  139OSM   H12A15157   1.659   6.463   8.027 -2.6105 -2.7219  0.6242
  139OSM   H12B15158   1.654   6.633   8.024 -0.4671  0.2481 -0.1936
  139OSM    C1115159   1.597   6.563   7.840  0.4188 -0.4635 -0.0542
  139OSM   H11A15160   1.527   6.494   7.788  0.3146  0.5534 -1.3073
  139OSM   H11B15161   1.693   6.517   7.806 -2.2500 -4.8102 -2.6106
  139OSM      P15162   1.696   6.792   7.794 -0.0833 -0.4315  0.3383
  139OSM    O1315163   1.658   6.915   7.862 -0.3833  0.4599 -0.6303
  139OSM    O1415164   1.814   6.725   7.842  0.4052  0.1665 -0.6066
  139OSM    O1115165   1.712   6.836   7.643  0.0040 -0.5884  0.1664
  139OSM    O1215166   1.573   6.693   7.796 -0.0133 -0.1542 -0.8941
  139OSM    C1S15167   1.700   6.743   7.537 -0.4259 -0.4098 -0.1416
  139OSM    H1S15168   1.606   6.685   7.546 -0.5990 -0.2020 -0.5942
  139OSM    H1T15169   1.782   6.667   7.538  1.0383  1.1023  0.2116
  139OSM     NF15170   1.659   6.720   7.297  0.5567  0.0613 -0.3833
  139OSM    HNF15171   1.733   6.684   7.241  1.1833  0.1851  0.3488
  139OSM    C2S15172   1.701   6.811   7.401 -0.2562  0.1975 -0.4227
  139OSM    H2S15173   1.631   6.896   7.410  0.6076  0.8597  0.2627
  139OSM    C3S15174   1.843   6.872   7.387 -0.4008  0.3144 -0.3571
  139OSM    H3S15175   1.906   6.789   7.425 -2.6937 -1.8591 -1.0074
  139OSM     O315176   1.857   6.988   7.468 -0.3199  0.4366  0.1576
  139OSM    HO315177   1.792   6.978   7.538 -0.4097  1.9477  0.3135
  139OSM    C4S15178   1.871   6.903   7.243 -0.5705  0.7011 -0.7481
  139OSM    H4S15179   1.961   6.849   7.213 -1.0180 -0.3382 -0.2717
  139OSM    C5S15180   1.809   6.976   7.158  0.3088  0.1610  0.2867
  139OSM    H5S15181   1.713   7.017   7.191  0.3874  0.8065 -0.2775
  139OSM    C6S15182   1.833   6.998   7.008  0.2846  0.3850  0.2988
  139OSM    H6S15183   1.853   7.106   6.991  0.7888  0.1217 -0.8035
  139OSM    H6T15184   1.757   6.959   6.937  0.8610 -1.0160  0.4207
  139OSM    C7S15185   1.963   6.931   6.951  0.2880  0.1921  0.0202
  139OSM    H7S15186   2.048   6.943   7.021  1.6060 -0.1676 -1.4536
  139OSM    H7T15187   1.996   6.995   6.866 -1.6139  1.0517 -0.1254
  139OSM    C8S15188   1.933   6.786   6.904 -0.5709 -0.1285 -0.6023
  139OSM    H8S15189   1.899   6.724   6.990  0.0300  0.5725  0.1505
  139OSM    H8T15190   2.032   6.740   6.882 -0.0330 -0.0839  1.5184
  139OSM    C9S15191   1.836   6.775   6.783  0.2351 -0.1287  0.1447
  139OSM    H9S15192   1.730   6.803   6.804  0.8033  0.8364  1.9281
  139OSM    H9T15193   1.822   6.669   6.755  2.9944 -0.0699 -1.7638
  139OSM   C10S15194   1.894   6.832   6.646 -0.0010 -0.4309 -0.2469
  139OSM   H10S15195   1.990   6.783   6.620 -0.5220 -1.8606  0.4104
  139OSM   H10T15196   1.916   6.941   6.645 -1.7395 -0.0459 -0.6409
  139OSM   C11S15197   1.804   6.794   6.524 -0.3693  1.0781  0.0119
  139OSM   H11S15198   1.703   6.838   6.536 -0.1395  1.5229  0.3301
  139OSM   H11T15199   1.791   6.683   6.519 -1.3457  1.1457  0.6840
  139OSM   C12S15200   1.866   6.846   6.397  0.1334 -0.6694  0.2857
  139OSM   H12S15201   1.973   6.816   6.394 -0.0719 -1.5390  1.3276
  139OSM   H12T15202   1.854   6.957   6.391 -2.5287 -0.9609 -1.6880
  139OSM   C13S15203   1.792   6.787   6.272  0.1249  0.3926  0.0617
  139OSM   H13S15204   1.789   6.862   6.190  0.1090  0.0417 -0.2641
  139OSM   H13T15205   1.688   6.755   6.293  0.4140 -1.0571 -0.5778
  139OSM   C14S15206   1.870   6.665   6.214 -0.3355  0.5755  0.3695
  139OSM   H14S15207   1.900   6.595   6.296  3.2205 -0.6668 -1.7600
  139OSM   H14T15208   1.970   6.705   6.184 -0.5055  0.4670 -0.3601
  139OSM   C15S15209   1.791   6.605   6.100  0.2090 -0.0648  0.0357
  139OSM   H15S15210   1.692   6.560   6.124 -0.2777 -1.2664 -3.5663
  139OSM   H15T15211   1.838   6.509   6.070 -0.2992 -0.3314  0.0863
  139OSM   C16S15212   1.793   6.694   5.976  0.0105 -0.3448 -0.3651
  139OSM   H16S15213   1.879   6.764   5.980 -0.6174  0.4357 -0.1141
  139OSM   H16T15214   1.695   6.747   5.973 -0.7737 -1.6955  0.3991
  139OSM   C17S15215   1.802   6.611   5.847 -0.2218  0.1897  0.2326
  139OSM   H17S15216   1.728   6.529   5.845  1.0628 -1.0498  1.3189
  139OSM   H17T15217   1.897   6.554   5.847 -1.0536 -1.2750 -1.1151
  139OSM   C18S15218   1.804   6.688   5.711 -0.2604 -0.1858  0.3817
  139OSM   H18S15219   1.704   6.691   5.664 -0.6260 -2.2650  0.9364
  139OSM   H18T15220   1.873   6.635   5.642  0.8500  1.0629  0.4952
  139OSM   H18U15221   1.850   6.789   5.721  0.0137 -0.2206 -0.4932
  139OSM    C1F15222   1.530   6.691   7.285 -0.4327  0.8811  0.3242
  139OSM     OF15223   1.444   6.744   7.359  0.1189 -0.0749 -0.3500
  139OSM    C2F15224   1.488   6.593   7.179 -0.2857  0.1964 -0.3649
  139OSM    H2F15225   1.479   6.501   7.241 -1.9773  1.5847  1.6010
  139OSM    H2G15226   1.562   6.571   7.100  1.1643  0.7169  0.7985
  139OSM    C3F15227   1.355   6.629   7.123  0.3075 -0.4316  0.2187
  139OSM    H3F15228   1.371   6.727   7.072 -3.4653  0.1917 -0.0228
  139OSM    H3G15229   1.290   6.651   7.210  0.7168  0.0254  0.4165
  139OSM    C4F15230   1.292   6.528   7.020 -0.4074  0.1733 -0.5952
  139OSM    H4F15231   1.376   6.514   6.948  0.6190 -0.4152  0.6679
  139OSM    H4G15232   1.201   6.565   6.967 -0.2240  1.5816  0.0288
  139OSM    C5F15233   1.277   6.385   7.072  0.1301  0.8787 -0.0286
  139OSM    H5F15234   1.214   6.391   7.163 -0.7687 -0.8826 -0.4952
  139OSM    H5G15235   1.376   6.347   7.104 -1.1106 -1.2511  1.5303
  139OSM    C6F15236   1.207   6.291   6.981  0.3994  0.1789 -0.2815
  139OSM    H6F15237   1.110   6.330   6.941  0.2094 -0.1394 -0.1343
  139OSM    H6G15238   1.188   6.202   7.045  0.6571  0.6864  0.5092
  139OSM    C7F15239   1.284   6.258   6.850  0.4942 -0.3095  0.0514
  139OSM    H7F15240   1.274   6.149   6.833 -1.0572 -0.1093 -0.5357
  139OSM    H7G15241   1.393   6.264   6.868  0.5774 -2.1337  0.3585
  139OSM    C8F15242   1.236   6.338   6.729 -0.9207  0.5515 -0.1699
  139OSM    H8F15243   1.256   6.444   6.753  2.7625 -0.4191  2.0586
  139OSM    H8G15244   1.127   6.324   6.717 -0.9329  0.7480 -0.2896
  139OSM    C9F15245   1.314   6.295   6.608 -0.2301 -0.1403  0.4393
  139OSM    H9F15246   1.332   6.188   6.590  1.2538  0.1279  0.2404
  139OSM   C10F15247   1.365   6.374   6.511  0.5536  0.5874  0.0956
  139OSM   H10F15248   1.427   6.333   6.431  1.0727  0.5011  0.5367
  139OSM   C11F15249   1.353   6.527   6.505 -0.0031  0.2932 -0.4156
  139OSM   H11F15250   1.450   6.572   6.536  0.0330 -0.6633  0.9323
  139OSM   H11G15251   1.275   6.565   6.575 -0.1568 -0.6010 -0.0853
  139OSM   C12F15252   1.307   6.573   6.371  0.2159  0.5583  0.4044
  139OSM   H12F15253   1.282   6.682   6.372 -0.3311  0.4603 -0.6754
  139OSM   H12G15254   1.214   6.523   6.337  0.7077  0.5195 -0.9634
  139OSM   C13F15255   1.415   6.554   6.261 -0.1144 -0.4261 -0.6377
  139OSM   H13F15256   1.454   6.450   6.271  2.8355  0.7588  1.6872
  139OSM   H13G15257   1.510   6.609   6.281 -0.4010 -0.2571  0.2930
  139OSM   C14F15258   1.384   6.571   6.117  0.3778 -0.9058 -0.1376
  139OSM   H14F15259   1.277   6.540   6.111  0.3200 -0.7893  0.2955
  139OSM   H14G15260   1.446   6.504   6.053  1.1297 -2.3817  2.0222
  139OSM   C15F15261   1.387   6.719   6.062 -0.0499  0.0108  0.2309
  139OSM   H15F15262   1.491   6.752   6.044 -0.0344 -1.4837 -3.5514
  139OSM   H15G15263   1.353   6.790   6.140  0.2922  0.0187  0.3721
  139OSM   C16F15264   1.296   6.728   5.943 -1.3322 -0.1074  0.3270
  139OSM   H16F15265   1.253   6.830   5.947 -0.1728  0.3651  1.4850
  139OSM   H16G15266   1.214   6.653   5.955 -0.1676 -1.1419  2.3301
  139OSM   C17F15267   1.353   6.713   5.805 -0.2311  0.4279 -0.1027
  139OSM   H17F15268   1.277   6.665   5.739 -1.4004  0.6293  1.0593
  139OSM   H17G15269   1.430   6.633   5.806 -1.7677 -1.1198  1.1333
  139OSM   C18F15270   1.399   6.839   5.744  0.3465 -0.0375  0.4347
  139OSM   H18F15271   1.446   6.827   5.644 -0.1382  2.6771 -0.1828
  139OSM   H18G15272   1.483   6.885   5.800  0.5611  0.3347 -0.1819
  139OSM   H18H15273   1.314   6.908   5.727  0.2709  0.3175  2.1235
  140OSM      N15274   2.157   3.187   7.216 -0.7517 -0.0210  0.5708
  140OSM    C1515275   2.051   3.089   7.171  0.2192 -0.0366  0.3358
  140OSM   H15A15276   2.026   3.094   7.067  0.9191 -0.1550  0.1560
  140OSM   H15B15277   1.961   3.113   7.226 -0.7307 -1.8413 -0.3736
  140OSM   H15C15278   2.078   2.989   7.201  0.0529 -0.0012  0.6065
  140OSM    C1415279   2.206   3.158   7.356  0.6582 -0.1740  0.1700
  140OSM   H14A15280   2.244   3.058   7.367 -0.9366 -0.6761  1.5784
  140OSM   H14B15281   2.134   3.171   7.436  1.6634 -1.3927  1.3248
  140OSM   H14C15282   2.281   3.233   7.376 -1.1194  1.3285  1.5566
  140OSM    C1315283   2.277   3.168   7.129  0.0436  0.0886 -0.6167
  140OSM   H13A15284   2.258   3.168   7.023 -0.1239  1.7255 -0.6125
  140OSM   H13B15285   2.333   3.087   7.176 -0.2066  0.9251  1.2213
  140OSM   H13C15286   2.341   3.255   7.138 -1.7093  1.3467  0.2568
  140OSM    C1215287   2.105   3.328   7.200  0.6288  0.9890 -0.7242
  140OSM   H12A15288   2.039   3.338   7.285  1.4283 -1.6248  0.3375
  140OSM   H12B15289   2.045   3.332   7.110 -1.8067  0.8009  0.8058
  140OSM    C1115290   2.208   3.441   7.200  0.0642  0.1881  0.9624
  140OSM   H11A15291   2.137   3.525   7.184  0.8649  0.8737  0.9202
  140OSM   H11B15292   2.270   3.425   7.110 -2.1690 -1.9299 -0.3201
  140OSM      P15293   2.391   3.557   7.337  0.1143  0.2101  0.2394
  140OSM    O1315294   2.345   3.664   7.426  0.7682  0.2125  0.0052
  140OSM    O1415295   2.522   3.485   7.359  0.1913 -0.3750 -0.0137
  140OSM    O1115296   2.394   3.610   7.189 -0.5420 -0.1785 -0.2192
  140OSM    O1215297   2.281   3.445   7.322 -0.6706  0.5104 -0.2249
  140OSM    C1S15298   2.475   3.721   7.163 -1.1413  0.2837 -0.3417
  140OSM    H1S15299   2.568   3.726   7.223 -1.5869  0.0542  0.3841
  140OSM    H1T15300   2.409   3.810   7.171 -1.4002  0.0080  0.7764
  140OSM     NF15301   2.641   3.807   6.990 -0.4270  0.1977  0.0741
  140OSM    HNF15302   2.617   3.892   6.945  0.5309  0.1952 -0.4570
  140OSM    C2S15303   2.521   3.724   7.016 -0.0629  0.0165  0.0714
  140OSM    H2S15304   2.550   3.622   6.980 -0.6056 -0.3146  0.5539
  140OSM    C3S15305   2.397   3.759   6.933 -0.3543 -0.4365 -0.2981
  140OSM    H3S15306   2.362   3.863   6.954 -1.2589 -0.9980  1.1169
  140OSM     O315307   2.286   3.673   6.963  0.5708  0.4687 -0.4029
  140OSM    HO315308   2.305   3.640   7.051 -0.9860 -0.4193 -0.3637
  140OSM    C4S15309   2.426   3.746   6.783 -0.4879  0.1243  0.1084
  140OSM    H4S15310   2.414   3.645   6.741  0.1468 -1.1162  2.7281
  140OSM    C5S15311   2.430   3.855   6.705  0.8461 -0.0331 -0.1772
  140OSM    H5S15312   2.403   3.951   6.750 -0.1032 -0.8985  1.1694
  140OSM    C6S15313   2.456   3.837   6.562  0.5014  0.6230  0.8276
  140OSM    H6S15314   2.517   3.923   6.527 -0.5739  0.8741 -0.5472
  140OSM    H6T15315   2.361   3.849   6.505  0.4482 -1.5467  0.3495
  140OSM    C7S15316   2.536   3.723   6.499  0.6516  0.4185 -0.7899
  140OSM    H7S15317   2.474   3.631   6.506  2.0814 -0.4948  0.3032
  140OSM    H7T15318   2.631   3.723   6.557  0.0557 -0.6417  0.2296
  140OSM    C8S15319   2.573   3.746   6.359 -0.3923  0.1512  0.5374
  140OSM    H8S15320   2.649   3.668   6.336  0.5705  0.8830  1.1555
  140OSM    H8T15321   2.614   3.847   6.341  0.5453  0.0506  1.9571
  140OSM    C9S15322   2.461   3.734   6.253 -0.5003 -0.3742  0.6580
  140OSM    H9S15323   2.383   3.812   6.267 -0.6233 -0.5917  1.1775
  140OSM    H9T15324   2.412   3.635   6.267 -2.2306  0.4725  0.8307
  140OSM   C10S15325   2.522   3.741   6.112  0.4457 -0.1483  0.1361
  140OSM   H10S15326   2.590   3.657   6.091  0.2709 -0.8104  2.0818
  140OSM   H10T15327   2.579   3.836   6.105 -2.2657  1.4774 -2.2330
  140OSM   C11S15328   2.413   3.751   6.002 -0.1585 -0.3320 -0.7436
  140OSM   H11S15329   2.354   3.842   6.026  0.2538 -0.2645  0.0930
  140OSM   H11T15330   2.340   3.669   6.010 -2.4394  1.7371  1.3134
  140OSM   C12S15331   2.467   3.759   5.863 -0.1430  0.2894  0.2177
  140OSM   H12S15332   2.467   3.867   5.838 -2.0333  0.6506  1.6041
  140OSM   H12T15333   2.393   3.720   5.790  1.8601  2.8434 -3.5246
  140OSM   C13S15334   2.604   3.690   5.845  0.4387  0.0974 -0.2364
  140OSM   H13S15335   2.604   3.585   5.880 -1.7035  0.3238  0.5800
  140OSM   H13T15336   2.688   3.745   5.894  1.0729 -1.0708  0.0151
  140OSM   C14S15337   2.659   3.686   5.697  0.8243  0.3156  0.1518
  140OSM   H14S15338   2.763   3.648   5.698  0.6247 -0.3031 -0.9451
  140OSM   H14T15339   2.646   3.785   5.648 -1.1973  1.0452  1.9794
  140OSM   C15S15340   2.586   3.575   5.612 -0.1520 -0.2291 -0.8757
  140OSM   H15S15341   2.486   3.618   5.588  1.0839  0.8765 -4.9398
  140OSM   H15T15342   2.580   3.481   5.670  0.5604 -0.3707 -1.0264
  140OSM   C16S15343   2.644   3.544   5.469  0.0962 -0.2863 -0.0896
  140OSM   H16S15344   2.745   3.498   5.469  0.4108  0.3851  0.7665
  140OSM   H16T15345   2.662   3.643   5.423 -1.1991  0.8387  1.7032
  140OSM   C17S15346   2.548   3.465   5.382  0.1906 -0.8519  0.8124
  140OSM   H17S15347   2.449   3.513   5.395  0.4397 -0.4382  1.2206
  140OSM   H17T15348   2.521   3.365   5.422  0.9660 -1.8511 -1.0854
  140OSM   C18S15349   2.588   3.458   5.232 -0.4667 -0.3782 -0.5628
  140OSM   H18S15350   2.503   3.426   5.168  0.3744  3.4354 -4.0240
  140OSM   H18T15351   2.676   3.392   5.218 -0.7550 -0.5761 -1.5580
  140OSM   H18U15352   2.621   3.555   5.188 -0.4353  0.1716  0.6479
  140OSM    C1F15353   2.765   3.772   7.028 -0.1830  0.5253  0.5607
  140OSM     OF15354   2.787   3.664   7.084 -0.1654 -0.2788 -0.1654
  140OSM    C2F15355   2.871   3.873   6.994  0.2076  0.2334 -0.6608
  140OSM    H2F15356   2.922   3.895   7.090  0.7531 -0.6069 -0.7490
  140OSM    H2G15357   2.835   3.968   6.948  1.6638  1.1076 -0.0413
  140OSM    C3F15358   2.977   3.823   6.891  0.1573  0.1423 -0.0514
  140OSM    H3F15359   3.029   3.733   6.929  0.7901 -0.7684 -2.8483
  140OSM    H3G15360   3.044   3.911   6.879  0.2222  0.2757  1.1771
  140OSM    C4F15361   2.913   3.806   6.747 -0.2672 -0.3905 -0.3208
  140OSM    H4F15362   2.840   3.889   6.736 -1.7494 -1.9653 -4.0738
  140OSM    H4G15363   2.856   3.711   6.743  1.5628 -1.4975 -1.4248
  140OSM    C5F15364   3.015   3.803   6.631 -0.1288 -0.0133 -0.0429
  140OSM    H5F15365   3.096   3.732   6.659  0.3492 -0.2457 -1.8807
  140OSM    H5G15366   3.067   3.899   6.613  0.5613 -0.4492 -0.4495
  140OSM    C6F15367   2.949   3.763   6.497 -0.4545 -0.1208 -0.2958
  140OSM    H6F15368   2.885   3.848   6.462  1.0878  1.5496  0.7901
  140OSM    H6G15369   2.870   3.687   6.516  1.0415 -1.1877  2.0937
  140OSM    C7F15370   3.045   3.741   6.375 -0.2747  0.1294  0.0663
  140OSM    H7F15371   2.982   3.700   6.293 -1.4048  3.5556 -0.9536
  140OSM    H7G15372   3.125   3.670   6.403  0.6052  1.0652 -0.0153
  140OSM    C8F15373   3.111   3.872   6.328  0.1698  0.7330  0.1589
  140OSM    H8F15374   3.147   3.934   6.413 -0.5865  1.7024 -0.2079
  140OSM    H8G15375   3.033   3.935   6.280  0.8788  0.9690 -0.7108
  140OSM    C9F15376   3.224   3.846   6.237 -0.3505  0.3206 -0.0446
  140OSM    H9F15377   3.321   3.859   6.287  0.3059 -2.7255 -0.2996
  140OSM   C10F15378   3.215   3.813   6.109  0.3688  0.6718  0.0771
  140OSM   H10F15379   3.310   3.788   6.058 -0.7377 -1.8538 -0.9322
  140OSM   C11F15380   3.106   3.791   6.011  0.1925 -0.4657 -0.1844
  140OSM   H11F15381   3.016   3.754   6.065  0.0440 -0.8659 -0.7044
  140OSM   H11G15382   3.127   3.708   5.941  0.7314 -1.1438  0.7493
  140OSM   C12F15383   3.050   3.916   5.937  0.6554 -0.4323  0.1864
  140OSM   H12F15384   3.117   4.003   5.917  0.4032 -0.4024 -0.5434
  140OSM   H12G15385   2.978   3.953   6.013  0.9270 -2.2197  1.3585
  140OSM   C13F15386   2.978   3.880   5.813  0.4019  0.2227 -0.2985
  140OSM   H13F15387   2.916   3.966   5.781  1.8069  1.8536  1.1451
  140OSM   H13G15388   2.912   3.793   5.833  0.5688  0.2177  0.2292
  140OSM   C14F15389   3.067   3.850   5.691 -0.0685  1.0781  0.1973
  140OSM   H14F15390   3.164   3.803   5.719  0.3394 -0.6663 -3.5984
  140OSM   H14G15391   3.091   3.946   5.641  0.8072 -0.9381 -3.5742
  140OSM   C15F15392   3.000   3.761   5.586  0.8870 -0.2313 -0.1368
  140OSM   H15F15393   2.895   3.797   5.592  0.7245 -0.4282 -1.3905
  140OSM   H15G15394   3.016   3.654   5.614 -0.3075 -0.7696 -1.3864
  140OSM   C16F15395   3.050   3.796   5.441 -0.6971 -0.3819 -0.3541
  140OSM   H16F15396   3.156   3.768   5.422 -1.1582 -1.1857 -1.8379
  140OSM   H16G15397   3.040   3.904   5.420 -0.3528 -0.3471 -0.3370
  140OSM   C17F15398   2.970   3.711   5.334 -0.7701 -0.6832 -0.9078
  140OSM   H17F15399   2.999   3.760   5.238  2.0834  0.6329  0.4770
  140OSM   H17G15400   2.862   3.725   5.355 -0.7281 -3.6209  1.9221
  140OSM   C18F15401   3.016   3.565   5.328  0.5674 -0.2886  0.0458
  140OSM   H18F15402   2.969   3.521   5.419  0.7588  2.1987  1.4353
  140OSM   H18G15403   3.125   3.546   5.326  0.1825 -2.7949 -0.5715
  140OSM   H18H15404   2.980   3.517   5.235  0.5892 -1.1178  0.4510
  141OSM      N15405   1.980   3.760   7.638  0.4637 -0.1987  0.6136
  141OSM    C1515406   1.850   3.714   7.691  0.0820  0.8164  0.4244
  141OSM   H15A15407   1.774   3.692   7.617  0.7133  0.9268 -0.2592
  141OSM   H15B15408   1.807   3.790   7.755  0.8385  0.4410  1.4061
  141OSM   H15C15409   1.860   3.620   7.743  0.6658 -0.1389 -1.3385
  141OSM    C1415410   1.965   3.901   7.587 -0.0354 -0.1269 -0.0884
  141OSM   H14A15411   1.956   3.970   7.669 -0.0511 -1.5275  1.1351
  141OSM   H14B15412   1.880   3.908   7.521  0.8320 -1.5873 -1.4474
  141OSM   H14C15413   2.054   3.926   7.532  0.3009 -0.8419  0.1096
  141OSM    C1315414   2.086   3.766   7.744  0.2739 -1.0880 -0.2748
  141OSM   H13A15415   2.120   3.667   7.769  3.4962  0.0778  0.5221
  141OSM   H13B15416   2.068   3.829   7.830  2.4353  2.4505 -2.1744
  141OSM   H13C15417   2.173   3.808   7.695 -0.2205  1.5363  0.9008
  141OSM    C1215418   2.035   3.669   7.524  0.0345 -0.7202 -0.0163
  141OSM   H12A15419   2.039   3.567   7.558 -2.7578 -2.0601 -3.1467
  141OSM   H12B15420   2.135   3.702   7.498  0.0161 -2.6795 -3.1489
  141OSM    C1115421   1.965   3.650   7.392 -0.0060 -0.2566 -0.1493
  141OSM   H11A15422   2.023   3.578   7.330 -0.6996 -0.6499 -0.3480
  141OSM   H11B15423   1.971   3.744   7.333 -2.3417 -0.6822 -1.1392
  141OSM      P15424   1.796   3.462   7.409 -0.1198  0.0964 -0.2370
  141OSM    O1315425   1.907   3.385   7.464 -0.1037  0.2878 -0.1992
  141OSM    O1415426   1.665   3.432   7.473 -0.1219 -0.7348  0.5905
  141OSM    O1115427   1.784   3.446   7.256  0.2355 -0.1055 -0.4185
  141OSM    O1215428   1.830   3.619   7.415 -0.5460 -0.5115  0.4358
  141OSM    C1S15429   1.717   3.545   7.184 -0.2698 -0.3705 -0.1787
  141OSM    H1S15430   1.782   3.635   7.173 -1.1409  0.1873 -0.9046
  141OSM    H1T15431   1.620   3.583   7.222  0.3858  1.9002 -0.6026
  141OSM     NF15432   1.591   3.565   6.971 -0.1341  0.7355 -0.5152
  141OSM    HNF15433   1.507   3.512   6.974  0.4510 -0.1584  1.9299
  141OSM    C2S15434   1.699   3.492   7.042 -0.3939 -0.1184 -0.0611
  141OSM    H2S15435   1.794   3.509   6.987  0.6125 -1.0094  1.3306
  141OSM    C3S15436   1.671   3.336   7.040 -0.6752 -0.7435  0.7462
  141OSM    H3S15437   1.583   3.328   7.106  0.0653  2.2612  2.2778
  141OSM     O315438   1.770   3.244   7.089 -0.2605 -0.5801 -0.1820
  141OSM    HO315439   1.806   3.294   7.163 -0.7369  0.0720 -0.3786
  141OSM    C4S15440   1.636   3.291   6.899 -0.5512 -0.2954 -0.8618
  141OSM    H4S15441   1.529   3.282   6.875 -0.8605  0.7630  0.0024
  141OSM    C5S15442   1.733   3.256   6.812  0.3257 -0.1919  0.8328
  141OSM    H5S15443   1.838   3.256   6.844  1.1000  1.0482 -1.4925
  141OSM    C6S15444   1.704   3.205   6.671  0.1324 -0.1920 -0.5191
  141OSM    H6S15445   1.641   3.114   6.682 -1.5214  0.9553 -0.1832
  141OSM    H6T15446   1.800   3.178   6.623  0.3741 -1.1457  0.4646
  141OSM    C7S15447   1.628   3.303   6.583  0.1118 -0.3602  0.6611
  141OSM    H7S15448   1.695   3.389   6.564 -1.7904  0.7767 -1.5565
  141OSM    H7T15449   1.535   3.339   6.632  1.2297  1.4247  1.5756
  141OSM    C8S15450   1.584   3.239   6.446 -0.1538 -0.4814 -0.0855
  141OSM    H8S15451   1.492   3.180   6.468  1.1122 -2.1383  1.0116
  141OSM    H8T15452   1.665   3.176   6.402 -0.1758 -1.2101  0.9027
  141OSM    C9S15453   1.540   3.344   6.344  0.3078 -0.4045  0.2585
  141OSM    H9S15454   1.630   3.405   6.323 -1.0714  2.2730  1.5832
  141OSM    H9T15455   1.463   3.411   6.387  0.7511 -0.5310  1.2827
  141OSM   C10S15456   1.476   3.285   6.217  0.0154  0.7025 -0.1932
  141OSM   H10S15457   1.444   3.374   6.158  1.8831  2.2324  0.9949
  141OSM   H10T15458   1.388   3.228   6.254  1.0405  0.2129  1.6096
  141OSM   C11S15459   1.576   3.212   6.131 -0.5803  0.1306  0.1247
  141OSM   H11S15460   1.594   3.115   6.182 -1.9207 -0.3429 -0.2467
  141OSM   H11T15461   1.674   3.263   6.121 -0.4794 -0.2906 -1.2699
  141OSM   C12S15462   1.542   3.193   5.979  0.2756  0.4522 -0.1955
  141OSM   H12S15463   1.630   3.151   5.925  0.9889  1.5837  0.0654
  141OSM   H12T15464   1.526   3.290   5.928 -0.5230  0.0657 -0.6940
  141OSM   C13S15465   1.420   3.101   5.950 -0.2684 -0.5298 -0.0457
  141OSM   H13S15466   1.331   3.164   5.973 -1.0036 -2.0124  1.3550
  141OSM   H13T15467   1.418   3.014   6.019  0.3670  1.2330  2.3430
  141OSM   C14S15468   1.427   3.069   5.800  0.3589  0.0362 -0.1974
  141OSM   H14S15469   1.517   3.007   5.779  0.3345  0.4216 -1.4618
  141OSM   H14T15470   1.434   3.168   5.751 -2.2503  0.6884  0.5654
  141OSM   C15S15471   1.299   3.005   5.746  0.1603 -0.1862 -0.3612
  141OSM   H15S15472   1.212   3.073   5.762  0.0913 -0.0932 -1.0794
  141OSM   H15T15473   1.279   2.907   5.796 -0.3915  0.3197  0.4258
  141OSM   C16S15474   1.309   2.972   5.594  0.1166  0.2023  0.1669
  141OSM   H16S15475   1.386   2.893   5.580  0.9933  1.1004 -0.1809
  141OSM   H16T15476   1.334   3.071   5.551 -0.3161  0.2470  0.0069
  141OSM   C17S15477   1.179   2.917   5.529  0.4991  0.2794 -0.4264
  141OSM   H17S15478   1.090   2.980   5.548 -0.2134 -0.2960 -1.7242
  141OSM   H17T15479   1.154   2.824   5.586  1.2986 -0.7990 -1.7569
  141OSM   C18S15480   1.196   2.887   5.377  0.0456  0.7097  0.8019
  141OSM   H18S15481   1.296   2.841   5.359 -0.5020 -0.3158  0.2659
  141OSM   H18T15482   1.191   2.984   5.324  1.9433  0.8667  0.8223
  141OSM   H18U15483   1.121   2.815   5.338 -0.0659  1.3682 -0.2073
  141OSM    C1F15484   1.593   3.692   6.948 -0.8618 -0.3030 -0.3684
  141OSM     OF15485   1.695   3.759   6.957  0.4674  0.1771  0.4575
  141OSM    C2F15486   1.469   3.756   6.930  0.2281 -0.3781 -0.3675
  141OSM    H2F15487   1.450   3.819   7.020 -1.3892  1.9430 -2.1830
  141OSM    H2G15488   1.387   3.681   6.924  1.2190 -1.5563  0.3859
  141OSM    C3F15489   1.469   3.845   6.811  0.1586 -0.0203 -0.6444
  141OSM    H3F15490   1.534   3.934   6.821 -2.1177  1.9142 -1.9917
  141OSM    H3G15491   1.372   3.893   6.785  0.9048  1.1778 -1.2906
  141OSM    C4F15492   1.500   3.764   6.683 -0.0999 -0.2097 -0.2754
  141OSM    H4F15493   1.414   3.693   6.680 -0.2889  0.0413 -0.8810
  141OSM    H4G15494   1.596   3.709   6.695  1.1022  1.7825 -0.3507
  141OSM    C5F15495   1.497   3.852   6.566 -0.3732  0.1222 -0.0172
  141OSM    H5F15496   1.562   3.938   6.591 -0.2365 -0.0183  0.1104
  141OSM    H5G15497   1.396   3.897   6.558  0.2791  1.6672  0.0375
  141OSM    C6F15498   1.552   3.781   6.443 -0.0913  0.0934  0.4260
  141OSM    H6F15499   1.506   3.680   6.440  0.8653 -0.3336 -2.2938
  141OSM    H6G15500   1.662   3.773   6.443 -0.0211  0.8713  0.8735
  141OSM    C7F15501   1.511   3.856   6.309 -0.3769  0.0778 -0.7649
  141OSM    H7F15502   1.571   3.829   6.219  2.4887  3.0810  0.0205
  141OSM    H7G15503   1.522   3.966   6.320  1.9493 -0.1539 -0.1268
  141OSM    C8F15504   1.360   3.828   6.276  0.0233 -0.1050  0.1347
  141OSM    H8F15505   1.332   3.903   6.199 -0.6673  0.2572  0.7265
  141OSM    H8G15506   1.299   3.853   6.365  0.2395 -0.6989  0.4539
  141OSM    C9F15507   1.325   3.694   6.221  0.4529 -0.4946  0.0930
  141OSM    H9F15508   1.279   3.633   6.300 -0.8806  0.9154  0.4802
  141OSM   C10F15509   1.332   3.645   6.096 -0.3751 -0.5418 -0.5209
  141OSM   H10F15510   1.286   3.547   6.081  0.9401 -1.9451  3.2776
  141OSM   C11F15511   1.382   3.712   5.980  0.5685  0.0668  0.0509
  141OSM   H11F15512   1.479   3.662   5.963 -1.3487 -4.0478  0.0755
  141OSM   H11G15513   1.409   3.817   6.006 -1.6325  0.4829  0.8641
  141OSM   C12F15514   1.306   3.693   5.850 -0.1088  0.2501  0.9077
  141OSM   H12F15515   1.366   3.744   5.773  1.2690 -3.2946 -0.5777
  141OSM   H12G15516   1.206   3.742   5.855 -0.4958 -0.4848  0.5592
  141OSM   C13F15517   1.304   3.543   5.803  0.4808 -0.2538  0.1735
  141OSM   H13F15518   1.236   3.488   5.870  1.2653 -1.1146  0.2805
  141OSM   H13G15519   1.406   3.499   5.803  0.6943  0.2204 -0.2779
  141OSM   C14F15520   1.244   3.535   5.655  0.5864 -0.4769  0.2391
  141OSM   H14F15521   1.241   3.633   5.603  2.6331 -0.7707 -0.5013
  141OSM   H14G15522   1.141   3.493   5.664  0.7709 -0.9318  0.2265
  141OSM   C15F15523   1.326   3.440   5.565  0.1662  0.4793 -0.2710
  141OSM   H15F15524   1.330   3.346   5.624 -1.3244 -0.4056 -1.5165
  141OSM   H15G15525   1.432   3.474   5.562  0.6622 -0.9536  0.1052
  141OSM   C16F15526   1.274   3.397   5.425  0.0555 -0.6695  0.9693
  141OSM   H16F15527   1.249   3.486   5.364 -0.1410 -2.1081 -1.1415
  141OSM   H16G15528   1.180   3.341   5.439 -0.6643  0.4254  0.6386
  141OSM   C17F15529   1.368   3.304   5.348 -0.3932 -0.8862 -0.6009
  141OSM   H17F15530   1.406   3.221   5.412  0.4361 -1.5923 -1.9560
  141OSM   H17G15531   1.456   3.369   5.328 -0.6622 -0.7300 -1.2910
  141OSM   C18F15532   1.323   3.251   5.217  0.3317 -0.6120 -0.3635
  141OSM   H18F15533   1.295   3.334   5.148  1.2125  0.0170  0.0135
  141OSM   H18G15534   1.236   3.184   5.232 -0.1756  0.1392  0.1156
  141OSM   H18H15535   1.394   3.187   5.161  0.2699 -0.4083 -0.6801
  142OSM      N15536   0.754   2.099   8.124 -0.3320 -0.1760  0.6081
  142OSM    C1515537   0.648   2.201   8.149  0.8861 -0.0229  0.0665
  142OSM   H15A15538   0.613   2.204   8.251  0.2792 -0.4852 -0.1280
  142OSM   H15B15539   0.565   2.188   8.081  1.5752 -0.8791 -0.6214
  142OSM   H15C15540   0.689   2.296   8.117 -1.1754 -0.0912 -3.1784
  142OSM    C1415541   0.878   2.123   8.213  0.1012 -0.0182  0.1290
  142OSM   H14A15542   0.961   2.058   8.187  0.2717  1.1376 -2.4945
  142OSM   H14B15543   0.858   2.122   8.319  0.2387  0.3260  0.1585
  142OSM   H14C15544   0.922   2.218   8.190  1.0359 -0.2497  0.9006
  142OSM    C1315545   0.704   1.961   8.167  0.6851  0.2430  0.3291
  142OSM   H13A15546   0.777   1.883   8.160 -1.5670 -2.0482  0.9606
  142OSM   H13B15547   0.628   1.933   8.096  0.0815  0.9033  0.6971
  142OSM   H13C15548   0.657   1.961   8.264 -0.4185 -1.5759 -0.1563
  142OSM    C1215549   0.787   2.101   7.971  0.1115  0.3951 -0.3021
  142OSM   H12A15550   0.836   2.194   7.949 -1.1782  1.3006  0.5009
  142OSM   H12B15551   0.702   2.110   7.906 -0.6069 -1.6421  0.2502
  142OSM    C1115552   0.876   1.985   7.912  0.1091 -0.7760  0.4646
  142OSM   H11A15553   0.886   1.996   7.802 -0.0100 -0.1558  0.5082
  142OSM   H11B15554   0.819   1.891   7.929 -1.5445  0.1461  0.2010
  142OSM      P15555   1.124   2.071   7.957  0.1571 -0.5148  0.0689
  142OSM    O1315556   1.066   2.205   7.985 -0.0167 -0.5348  0.1848
  142OSM    O1415557   1.236   2.028   8.040 -0.7800 -0.0127  0.5415
  142OSM    O1115558   1.151   2.050   7.805 -0.2653  0.5663  0.0287
  142OSM    O1215559   1.004   1.973   7.979 -0.1000 -0.2381 -0.4950
  142OSM    C1S15560   1.214   1.921   7.765  0.4475 -0.2701 -0.3061
  142OSM    H1S15561   1.147   1.834   7.756  0.6164 -0.5416  0.8687
  142OSM    H1T15562   1.303   1.906   7.830  1.0735 -1.5835 -1.4308
  142OSM     NF15563   1.278   1.806   7.560 -0.2577  0.2647 -0.2416
  142OSM    HNF15564   1.366   1.759   7.553  0.9777  2.5646 -1.4135
  142OSM    C2S15565   1.268   1.936   7.620 -0.1053 -0.3354  0.1123
  142OSM    H2S15566   1.195   1.991   7.556 -0.9913 -1.6363 -0.0415
  142OSM    C3S15567   1.398   2.028   7.617 -0.2044  0.3818 -0.3401
  142OSM    H3S15568   1.462   2.000   7.703  0.1342  3.3522  0.4902
  142OSM     O315569   1.378   2.168   7.646 -0.1633  0.6117  0.0852
  142OSM    HO315570   1.290   2.161   7.686 -1.5554  1.3640 -2.6030
  142OSM    C4S15571   1.469   2.021   7.488  0.3479 -0.1597 -0.0965
  142OSM    H4S15572   1.404   2.025   7.399  0.0013 -1.2257  0.1052
  142OSM    C5S15573   1.605   2.023   7.468 -0.2852  0.3681  0.3904
  142OSM    H5S15574   1.675   2.034   7.552  1.6875 -1.9278 -0.8156
  142OSM    C6S15575   1.672   2.034   7.335  0.2618  0.3103 -0.9041
  142OSM    H6S15576   1.777   2.001   7.350  0.7371  2.7396  2.0062
  142OSM    H6T15577   1.686   2.142   7.312 -3.8406  1.6384  1.6611
  142OSM    C7S15578   1.632   1.954   7.209  0.5838  0.5279 -0.1474
  142OSM    H7S15579   1.522   1.965   7.196  0.3580 -2.3751 -1.5431
  142OSM    H7T15580   1.652   1.846   7.226  3.0914  1.2278  2.0343
  142OSM    C8S15581   1.702   2.003   7.080 -0.1089 -0.3272 -0.2477
  142OSM    H8S15582   1.813   1.997   7.087  0.0358  0.6104 -1.4040
  142OSM    H8T15583   1.682   2.112   7.075 -1.1006 -0.3433  2.2195
  142OSM    C9S15584   1.667   1.913   6.958 -0.7615 -0.6871 -0.6266
  142OSM    H9S15585   1.557   1.895   6.958 -0.7577 -1.0407  1.7309
  142OSM    H9T15586   1.718   1.814   6.959  2.6015  0.9022 -1.1341
  142OSM   C10S15587   1.694   1.986   6.821  0.0554 -0.0088  0.2498
  142OSM   H10S15588   1.805   1.994   6.814  0.0259 -0.6457 -1.4168
  142OSM   H10T15589   1.649   2.087   6.828 -0.1740 -0.1721  1.3646
  142OSM   C11S15590   1.636   1.904   6.700  0.5307 -0.6060 -1.4999
  142OSM   H11S15591   1.529   1.896   6.725  1.3092 -0.6457  2.3387
  142OSM   H11T15592   1.674   1.800   6.689 -2.2554 -1.7459 -1.0809
  142OSM   C12S15593   1.665   1.974   6.565 -0.6437  0.9948 -0.8356
  142OSM   H12S15594   1.774   1.991   6.554 -0.6979  0.9423 -1.4963
  142OSM   H12T15595   1.613   2.072   6.563 -0.6694  1.2629  3.8389
  142OSM   C13S15596   1.621   1.879   6.456 -0.3874  0.4906  0.8170
  142OSM   H13S15597   1.511   1.867   6.461 -0.5926  1.0411 -1.2704
  142OSM   H13T15598   1.678   1.786   6.478 -0.0135  0.7785  1.0692
  142OSM   C14S15599   1.661   1.933   6.320 -0.0227  0.5151 -0.1337
  142OSM   H14S15600   1.771   1.946   6.328  0.1233 -1.6008  3.1002
  142OSM   H14T15601   1.592   2.020   6.316 -1.3114 -0.3549  1.8125
  142OSM   C15S15602   1.620   1.833   6.207 -0.3405  0.3855  0.6244
  142OSM   H15S15603   1.616   1.896   6.116  1.4390 -0.6978 -0.2642
  142OSM   H15T15604   1.521   1.784   6.217  0.2705 -0.8807  0.6329
  142OSM   C16S15605   1.717   1.718   6.183 -0.0590  0.0887  0.1998
  142OSM   H16S15606   1.724   1.642   6.263  0.5453  1.9618  2.0043
  142OSM   H16T15607   1.820   1.758   6.180  0.7817 -1.9177  0.4372
  142OSM   C17S15608   1.679   1.643   6.051 -0.3734 -0.0781  0.0158
  142OSM   H17S15609   1.656   1.709   5.964 -3.1114 -0.2936  0.4841
  142OSM   H17T15610   1.593   1.573   6.061 -1.3223  0.5237 -2.9460
  142OSM   C18S15611   1.800   1.563   5.997  0.1503 -0.0330 -0.4727
  142OSM   H18S15612   1.834   1.486   6.070 -0.6380  1.3065  1.3765
  142OSM   H18T15613   1.888   1.627   5.975 -1.5055  3.0227  1.1525
  142OSM   H18U15614   1.777   1.512   5.901  0.2669 -0.8882 -0.0608
  142OSM    C1F15615   1.168   1.739   7.522 -0.2706 -0.7985  0.5833
  142OSM     OF15616   1.060   1.792   7.539 -0.1798  0.2187  0.2827
  142OSM    C2F15617   1.176   1.607   7.448  0.6276 -0.4406 -0.0986
  142OSM    H2F15618   1.205   1.527   7.519  0.4556 -1.4953 -1.1824
  142OSM    H2G15619   1.261   1.619   7.376  1.0099  0.0121  0.4186
  142OSM    C3F15620   1.049   1.580   7.370 -0.2751  0.4089  0.5673
  142OSM    H3F15621   1.039   1.667   7.301  0.1249 -0.1813 -0.2560
  142OSM    H3G15622   0.959   1.579   7.435 -0.8819  1.9345 -0.1972
  142OSM    C4F15623   1.056   1.453   7.273  0.0019 -0.1584 -0.1475
  142OSM    H4F15624   1.079   1.355   7.319  0.8816 -0.7718 -1.8053
  142OSM    H4G15625   1.137   1.488   7.205  1.4479  0.1130  1.6633
  142OSM    C5F15626   0.935   1.453   7.178  0.4254 -0.0435  0.5693
  142OSM    H5F15627   0.932   1.558   7.142  0.1443  0.1040  1.0089
  142OSM    H5G15628   0.839   1.425   7.226  0.0394  0.5596  0.1633
  142OSM    C6F15629   0.954   1.367   7.047  0.3693  0.2934  0.1129
  142OSM    H6F15630   1.005   1.274   7.078  0.6029  0.5611  0.5465
  142OSM    H6G15631   1.026   1.424   6.984 -1.1295 -0.5697 -2.5518
  142OSM    C7F15632   0.821   1.357   6.969 -0.4954 -0.0734 -0.3811
  142OSM    H7F15633   0.796   1.461   6.939 -0.3921 -0.5803 -2.3099
  142OSM    H7G15634   0.737   1.314   7.028 -0.4133 -0.3491 -0.4616
  142OSM    C8F15635   0.844   1.272   6.835 -0.4884  0.6059  0.3185
  142OSM    H8F15636   0.743   1.273   6.788 -0.0832  0.4193 -0.5707
  142OSM    H8G15637   0.881   1.176   6.877  0.3543  1.7174  2.2498
  142OSM    C9F15638   0.941   1.333   6.733 -0.0976  0.9327 -0.4514
  142OSM    H9F15639   0.944   1.443   6.733 -2.1584  1.0230 -1.1474
  142OSM   C10F15640   1.008   1.267   6.638 -0.5414 -0.0698  0.0047
  142OSM   H10F15641   1.063   1.324   6.561 -1.0997 -0.3010 -0.5715
  142OSM   C11F15642   0.998   1.120   6.616 -0.0679 -0.0935  0.0848
  142OSM   H11F15643   0.939   1.078   6.700 -0.4378  0.6515  0.2117
  142OSM   H11G15644   1.099   1.076   6.622  1.1091  2.3156 -0.6781
  142OSM   C12F15645   0.917   1.107   6.492 -1.0533 -0.1035 -0.5723
  142OSM   H12F15646   0.816   1.147   6.516 -0.1977  0.4122  2.6626
  142OSM   H12G15647   0.905   1.005   6.449 -0.8901  0.8664 -3.1251
  142OSM   C13F15648   0.970   1.175   6.353  0.3688 -0.0723 -0.0475
  142OSM   H13F15649   1.069   1.138   6.320  0.9179  0.8737  0.4850
  142OSM   H13G15650   0.985   1.284   6.372 -2.7167  0.4289  0.0771
  142OSM   C14F15651   0.867   1.159   6.242  0.4513 -0.8202 -0.1446
  142OSM   H14F15652   0.779   1.197   6.296  1.1604  0.9938 -0.1931
  142OSM   H14G15653   0.848   1.056   6.204 -0.4510 -0.6411 -0.1874
  142OSM   C15F15654   0.896   1.243   6.115 -0.2814  0.2229 -1.3951
  142OSM   H15F15655   0.995   1.232   6.066  1.7631  2.8068  1.7166
  142OSM   H15G15656   0.887   1.350   6.145  1.2208 -0.6727  2.9789
  142OSM   C16F15657   0.789   1.216   6.009 -0.5422  0.6067 -0.2116
  142OSM   H16F15658   0.688   1.257   6.033 -1.2366 -1.4217  0.6036
  142OSM   H16G15659   0.788   1.106   5.990  1.4168  0.3856  0.7675
  142OSM   C17F15660   0.835   1.279   5.875  0.2067  0.2799 -0.0407
  142OSM   H17F15661   0.932   1.239   5.841  0.8186  0.5728  1.2782
  142OSM   H17G15662   0.850   1.387   5.896  0.6631  0.0236  1.0228
  142OSM   C18F15663   0.736   1.267   5.757  0.2712  0.7307  0.0732
  142OSM   H18F15664   0.684   1.169   5.761 -3.9066  2.7260  0.2273
  142OSM   H18G15665   0.777   1.297   5.659  1.1104 -1.5097 -0.3117
  142OSM   H18H15666   0.651   1.333   5.786 -0.3960 -1.5158  3.9683
  143OSM      N15667   2.215   0.156   7.864 -0.5263 -0.7330 -0.0816
  143OSM    C1515668   2.282   0.229   7.756  0.5264  0.0055 -0.2491
  143OSM   H15A15669   2.319   0.159   7.682  0.8291 -0.3745  0.2550
  143OSM   H15B15670   2.364   0.283   7.800  0.1488 -0.8531  1.5669
  143OSM   H15C15671   2.217   0.296   7.701  1.5780 -0.5845 -2.3268
  143OSM    C1415672   2.296   0.052   7.914 -0.9712  0.1398  0.2359
  143OSM   H14A15673   2.379   0.103   7.961 -1.2058  2.4787 -1.6765
  143OSM   H14B15674   2.340  -0.017   7.844 -0.1160  0.1103  0.7990
  143OSM   H14C15675   2.240  -0.006   7.985 -0.5872 -0.4477  0.0628
  143OSM    C1315676   2.180   0.250   7.978  0.1539 -0.0574 -0.3552
  143OSM   H13A15677   2.265   0.305   8.016  0.4933 -1.3561  0.8331
  143OSM   H13B15678   2.130   0.195   8.057 -0.1965  2.5271  1.3473
  143OSM   H13C15679   2.099   0.314   7.947  0.2019  0.4287  0.4875
  143OSM    C1215680   2.083   0.106   7.804  0.1210 -0.3286  0.3907
  143OSM   H12A15681   2.009   0.185   7.802 -1.3985 -1.7018 -1.4890
  143OSM   H12B15682   2.050   0.038   7.880  2.0979 -2.2147 -0.3448
  143OSM    C1115683   2.081   0.032   7.667  0.4286  0.1094 -0.4034
  143OSM   H11A15684   2.125   0.093   7.585  2.4988  0.2848  0.7563
  143OSM   H11B15685   1.975   0.023   7.636  0.8521  1.7254 -2.5489
  143OSM      P15686   2.274  -0.127   7.593  0.2101 -0.0853  0.0667
  143OSM    O1315687   2.380  -0.032   7.627 -0.4828 -0.0439 -0.4805
  143OSM    O1415688   2.306  -0.271   7.612  0.3408  0.0221 -0.4516
  143OSM    O1115689   2.231  -0.108   7.452 -0.4447  0.2210  0.2455
  143OSM    O1215690   2.140  -0.094   7.674  0.2098 -0.0586 -0.7903
  143OSM    C1S15691   2.129  -0.189   7.400 -0.0693 -0.5844 -0.0851
  143OSM    H1S15692   2.032  -0.139   7.421  0.9169  0.8724  1.1515
  143OSM    H1T15693   2.124  -0.294   7.436 -0.8350  0.0576  1.7993
  143OSM     NF15694   2.019  -0.295   7.195 -0.3105 -0.7398  0.1729
  143OSM    HNF15695   2.041  -0.390   7.173 -0.9509 -0.2614 -2.9970
  143OSM    C2S15696   2.132  -0.208   7.240 -0.6982 -0.5714  0.4501
  143OSM    H2S15697   2.125  -0.106   7.198 -0.7713 -1.6350 -2.3786
  143OSM    C3S15698   2.269  -0.253   7.181  0.5902 -0.0134 -0.3099
  143OSM    H3S15699   2.279  -0.359   7.214  0.8179 -0.6212 -2.2100
  143OSM     O315700   2.382  -0.185   7.237  0.5694  0.3786 -0.1528
  143OSM    HO315701   2.336  -0.133   7.302 -0.6899 -0.0962 -0.6363
  143OSM    C4S15702   2.267  -0.257   7.030 -0.2958  0.4967 -0.0704
  143OSM    H4S15703   2.212  -0.339   6.982 -0.5850  1.6937 -1.8822
  143OSM    C5S15704   2.314  -0.156   6.955 -0.0791  0.0293  0.3526
  143OSM    H5S15705   2.359  -0.067   7.000  3.0678 -1.1068 -0.2657
  143OSM    C6S15706   2.282  -0.144   6.804 -0.4567 -0.1822  0.8897
  143OSM    H6S15707   2.377  -0.166   6.752 -1.4268  0.1346 -1.1378
  143OSM    H6T15708   2.245  -0.047   6.764 -1.3727 -0.6343  0.5924
  143OSM    C7S15709   2.176  -0.238   6.736 -0.5227 -0.5581 -0.7139
  143OSM    H7S15710   2.075  -0.224   6.780 -1.3478  1.0238 -2.9053
  143OSM    H7T15711   2.207  -0.341   6.763  0.2042 -0.1309  0.1020
  143OSM    C8S15712   2.155  -0.228   6.588  0.1494  0.1571 -0.3270
  143OSM    H8S15713   2.107  -0.129   6.575 -1.1724 -0.1394  1.8805
  143OSM    H8T15714   2.077  -0.298   6.551  0.7513 -0.4689 -0.4269
  143OSM    C9S15715   2.280  -0.255   6.494  0.4692  0.0536 -0.3571
  143OSM    H9S15716   2.310  -0.362   6.490  2.1404  0.4877 -0.4730
  143OSM    H9T15717   2.358  -0.185   6.531  1.1207 -0.8395  0.0093
  143OSM   C10S15718   2.251  -0.215   6.353 -0.5058  0.1670 -0.4304
  143OSM   H10S15719   2.336  -0.151   6.320 -0.0062 -0.6809 -0.7997
  143OSM   H10T15720   2.169  -0.142   6.339 -1.7752 -0.9275  0.9707
  143OSM   C11S15721   2.252  -0.343   6.254  0.2645 -0.2165  0.7290
  143OSM   H11S15722   2.155  -0.396   6.257 -0.3085  0.5986 -1.5006
  143OSM   H11T15723   2.312  -0.422   6.304 -0.1806 -0.5736  0.7074
  143OSM   C12S15724   2.285  -0.304   6.113 -0.5107 -0.0512 -0.7472
  143OSM   H12S15725   2.284  -0.398   6.055  2.8718  1.3164 -3.3680
  143OSM   H12T15726   2.388  -0.264   6.106  0.1158 -1.1418  1.4977
  143OSM   C13S15727   2.188  -0.196   6.055 -0.6138  0.0520 -0.0932
  143OSM   H13S15728   2.198  -0.093   6.097  0.3401  1.0660 -2.6388
  143OSM   H13T15729   2.085  -0.226   6.085 -0.9760  1.2944  0.0033
  143OSM   C14S15730   2.198  -0.196   5.896  0.0370  0.2356  0.0562
  143OSM   H14S15731   2.124  -0.275   5.871  0.7560 -0.4174 -0.0259
  143OSM   H14T15732   2.303  -0.226   5.877  0.6793  1.8142  0.8299
  143OSM   C15S15733   2.174  -0.059   5.845  0.2134  0.4771 -0.2238
  143OSM   H15S15734   2.234   0.016   5.899  0.5402 -0.0880  0.2084
  143OSM   H15T15735   2.069  -0.029   5.864 -0.0519 -0.1271 -0.6707
  143OSM   C16S15736   2.205  -0.057   5.692  0.5132  0.4451  0.2106
  143OSM   H16S15737   2.131  -0.120   5.638 -1.1235  2.8107 -0.5285
  143OSM   H16T15738   2.303  -0.106   5.676  0.5097  0.5897 -0.2837
  143OSM   C17S15739   2.218   0.086   5.635 -0.1334 -0.2463  0.5661
  143OSM   H17S15740   2.325   0.098   5.607  0.5679 -6.2595 -0.7107
  143OSM   H17T15741   2.189   0.161   5.711  1.1504 -0.3118  1.1521
  143OSM   C18S15742   2.144   0.114   5.507 -0.2225 -0.2522  0.1692
  143OSM   H18S15743   2.163   0.218   5.474  2.9239 -0.0607  2.1820
  143OSM   H18T15744   2.038   0.082   5.518 -0.0997 -1.3563 -1.4890
  143OSM   H18U15745   2.191   0.061   5.421  3.2090  1.8537  0.5756
  143OSM    C1F15746   1.897  -0.257   7.178 -0.1085  1.1392 -0.4192
  143OSM     OF15747   1.858  -0.152   7.230 -0.5561 -0.5055 -0.4897
  143OSM    C2F15748   1.800  -0.346   7.109  0.2741  0.4402  0.5964
  143OSM    H2F15749   1.699  -0.340   7.155  0.0461 -0.2524  0.2075
  143OSM    H2G15750   1.830  -0.453   7.107  2.9838  1.1485  0.1950
  143OSM    C3F15751   1.796  -0.305   6.960 -0.4652  0.5859  0.5117
  143OSM    H3F15752   1.893  -0.327   6.911 -1.2356 -1.7152 -0.1163
  143OSM    H3G15753   1.775  -0.196   6.957  0.3201  0.7344  0.0178
  143OSM    C4F15754   1.690  -0.383   6.881 -0.1949 -0.6347 -0.1678
  143OSM    H4F15755   1.599  -0.391   6.945  0.0193  0.6886  0.3329
  143OSM    H4G15756   1.725  -0.488   6.884 -0.4939 -0.7761 -1.3500
  143OSM    C5F15757   1.660  -0.331   6.734  0.2465  0.3062 -0.6541
  143OSM    H5F15758   1.638  -0.223   6.741  1.2030  0.4345  1.2701
  143OSM    H5G15759   1.570  -0.389   6.705  0.1021 -0.8348  1.7908
  143OSM    C6F15760   1.775  -0.369   6.639  0.3306 -0.2668 -0.0916
  143OSM    H6F15761   1.799  -0.475   6.660 -0.7153  0.1690  4.1018
  143OSM    H6G15762   1.869  -0.313   6.657  0.4974  0.1354 -1.9673
  143OSM    C7F15763   1.732  -0.358   6.496  0.7540 -0.4630  0.0015
  143OSM    H7F15764   1.685  -0.258   6.485  1.0787 -0.5115 -2.4842
  143OSM    H7G15765   1.657  -0.434   6.466 -0.1741  0.6835 -0.7317
  143OSM    C8F15766   1.845  -0.365   6.392  0.3670  0.1821  0.3139
  143OSM    H8F15767   1.918  -0.283   6.408  0.6887  0.3422 -1.6929
  143OSM    H8G15768   1.792  -0.346   6.297  0.0517 -0.2850  0.3934
  143OSM    C9F15769   1.912  -0.504   6.387  0.0475 -0.0740 -0.0680
  143OSM    H9F15770   1.954  -0.535   6.484 -0.4732  1.7639  0.7954
  143OSM   C10F15771   1.916  -0.585   6.284 -0.4178  0.3046  0.6844
  143OSM   H10F15772   1.983  -0.672   6.289  0.4229  0.9308  0.5635
  143OSM   C11F15773   1.850  -0.577   6.149  0.6430  0.4668  0.2030
  143OSM   H11F15774   1.777  -0.494   6.141 -2.4580 -2.0487  0.4220
  143OSM   H11G15775   1.801  -0.676   6.134  0.3488  1.0158 -3.2210
  143OSM   C12F15776   1.954  -0.565   6.033  0.2279 -0.2804  0.0956
  143OSM   H12F15777   2.045  -0.620   6.064 -1.0413 -0.2948  4.3772
  143OSM   H12G15778   1.974  -0.456   6.018  0.3924 -0.2473  0.5641
  143OSM   C13F15779   1.898  -0.625   5.897 -0.1946 -0.2729 -0.8743
  143OSM   H13F15780   1.810  -0.562   5.872  1.7519  3.4999  0.9266
  143OSM   H13G15781   1.853  -0.724   5.920  0.3738 -0.4425 -0.4722
  143OSM   C14F15782   1.991  -0.622   5.776  0.7799 -0.6523  0.1372
  143OSM   H14F15783   2.074  -0.695   5.791 -0.0977 -1.6825  0.1591
  143OSM   H14G15784   2.021  -0.516   5.766 -1.4564 -0.0557 -0.9104
  143OSM   C15F15785   1.929  -0.655   5.647 -0.3682 -0.2774 -0.0474
  143OSM   H15F15786   1.874  -0.752   5.651 -1.6155  0.4359  0.7419
  143OSM   H15G15787   2.007  -0.671   5.569 -2.2279 -0.1999 -2.0448
  143OSM   C16F15788   1.832  -0.547   5.591  0.0337 -0.1417  0.3725
  143OSM   H16F15789   1.868  -0.445   5.612 -0.0312  0.1396 -0.8108
  143OSM   H16G15790   1.735  -0.557   5.645 -0.6136  1.6208 -0.3908
  143OSM   C17F15791   1.812  -0.565   5.439 -0.2293  1.2849 -0.2714
  143OSM   H17F15792   1.768  -0.667   5.436  1.1265  0.6380  0.8614
  143OSM   H17G15793   1.906  -0.582   5.383  0.1129  0.6755  0.4678
  143OSM   C18F15794   1.737  -0.460   5.361 -0.0883  0.6147  0.1106
  143OSM   H18F15795   1.740  -0.493   5.255 -2.4070 -1.3319  0.5587
  143OSM   H18G15796   1.798  -0.367   5.364  1.3875 -0.1381 -2.6390
  143OSM   H18H15797   1.636  -0.433   5.397 -1.6650 -1.2177 -2.5472
  144OSM      N15798   6.707   5.945   7.887  0.1893 -0.3484  0.2506
  144OSM    C1515799   6.740   5.803   7.867  0.1087  0.1190 -0.4294
  144OSM   H15A15800   6.677   5.770   7.786  3.1798 -0.6205 -2.7371
  144OSM   H15B15801   6.724   5.740   7.953  3.5230 -0.5842 -0.1647
  144OSM   H15C15802   6.841   5.795   7.828 -0.3152 -0.3408 -1.4534
  144OSM    C1415803   6.675   6.020   7.765 -0.9805 -0.1830  0.1334
  144OSM   H14A15804   6.640   6.121   7.781 -0.8197 -0.0515 -0.3340
  144OSM   H14B15805   6.599   5.971   7.706 -0.3114 -0.9634 -0.1002
  144OSM   H14C15806   6.770   6.028   7.714 -0.9047  1.9164  0.5176
  144OSM    C1315807   6.592   5.947   7.982 -0.2725  0.3953  0.2848
  144OSM   H13A15808   6.502   5.906   7.937  0.5739 -0.3396 -0.7998
  144OSM   H13B15809   6.580   6.041   8.034  0.1517  1.3763 -1.3047
  144OSM   H13C15810   6.606   5.875   8.061  0.4750 -0.5167 -0.6523
  144OSM    C1215811   6.824   6.018   7.954 -0.2502  0.4575 -0.5798
  144OSM   H12A15812   6.853   5.960   8.040  0.3596  0.3774 -0.8288
  144OSM   H12B15813   6.790   6.112   7.994  0.1497  0.2007  0.4034
  144OSM    C1115814   6.950   6.028   7.871  0.3112  0.0761  0.0584
  144OSM   H11A15815   6.984   5.929   7.833  1.7398  1.2441 -1.8991
  144OSM   H11B15816   7.026   6.074   7.938 -0.9158  1.8254  0.2931
  144OSM      P15817   6.955   6.271   7.794 -0.0473  0.0718 -0.3956
  144OSM    O1315818   6.858   6.314   7.904 -0.6947  0.4757  0.1888
  144OSM    O1415819   7.099   6.308   7.815  0.2231 -0.6369  0.3380
  144OSM    O1115820   6.907   6.342   7.665 -0.0788  0.0911  0.6533
  144OSM    O1215821   6.939   6.117   7.756  0.5987  0.6686 -0.4071
  144OSM    C1S15822   6.879   6.283   7.537  0.3601  0.0174 -0.2223
  144OSM    H1S15823   6.775   6.243   7.539  1.1300 -2.1322 -0.9339
  144OSM    H1T15824   6.930   6.186   7.523 -2.7747 -1.8376  0.1683
  144OSM     NF15825   6.922   6.284   7.303 -0.3672  0.4550 -0.1097
  144OSM    HNF15826   7.019   6.267   7.283 -0.1500  1.1130  0.3612
  144OSM    C2S15827   6.907   6.369   7.419  0.0231  0.2235 -0.0904
  144OSM    H2S15828   6.815   6.426   7.398  1.3508  1.8537 -1.7773
  144OSM    C3S15829   7.022   6.481   7.433 -0.7502 -0.1113  0.5995
  144OSM    H3S15830   7.120   6.433   7.454 -1.9947 -1.8251  2.9301
  144OSM     O315831   7.013   6.572   7.541 -0.1569 -0.1734  0.2924
  144OSM    HO315832   6.967   6.528   7.613 -0.5249  0.9341  0.7589
  144OSM    C4S15833   7.024   6.570   7.311  0.0146 -0.1477  0.0334
  144OSM    H4S15834   6.990   6.674   7.324  0.1889 -0.0014 -0.6036
  144OSM    C5S15835   7.096   6.546   7.197  0.3823  0.2667 -0.2515
  144OSM    H5S15836   7.146   6.448   7.189 -1.9428 -1.0366  0.3495
  144OSM    C6S15837   7.116   6.654   7.086 -0.0055 -0.5662  0.7292
  144OSM    H6S15838   7.215   6.687   7.050 -0.5914  0.0878 -0.3199
  144OSM    H6T15839   7.069   6.750   7.115  0.0266  0.0790 -1.2584
  144OSM    C7S15840   7.033   6.622   6.957 -0.3223  0.3026 -0.1533
  144OSM    H7S15841   6.928   6.595   6.983 -1.2954  3.1455 -0.8166
  144OSM    H7T15842   7.078   6.534   6.906 -0.1086 -0.8397  1.8923
  144OSM    C8S15843   7.020   6.737   6.865 -1.0712  0.1820  0.2751
  144OSM    H8S15844   7.124   6.775   6.855 -2.0600  4.2787  3.1570
  144OSM    H8T15845   6.948   6.814   6.899 -1.2002  0.3720 -0.4133
  144OSM    C9S15846   6.971   6.685   6.728 -0.6075 -0.3274  1.2009
  144OSM    H9S15847   6.868   6.646   6.739 -0.4378 -0.6868  1.5689
  144OSM    H9T15848   7.045   6.611   6.690 -1.3002 -0.5430  0.2404
  144OSM   C10S15849   6.976   6.788   6.617  0.5170 -0.4401  0.7635
  144OSM   H10S15850   7.081   6.815   6.597  0.6118  1.3692  3.3395
  144OSM   H10T15851   6.928   6.885   6.638 -0.0017 -0.4127 -0.4546
  144OSM   C11S15852   6.904   6.725   6.490  0.1216 -0.0198  0.1867
  144OSM   H11S15853   6.802   6.692   6.518  0.5845  1.1899  3.7345
  144OSM   H11T15854   6.963   6.633   6.465  1.4519  0.7803  0.2579
  144OSM   C12S15855   6.918   6.827   6.372  0.0923  0.7489  0.1494
  144OSM   H12S15856   7.028   6.839   6.366  0.0670  1.3307  0.7544
  144OSM   H12T15857   6.863   6.920   6.400 -3.0548 -1.3205  1.3937
  144OSM   C13S15858   6.874   6.769   6.240  1.0182 -0.4663  0.0145
  144OSM   H13S15859   6.767   6.802   6.235  0.3305 -2.2161  1.7348
  144OSM   H13T15860   6.893   6.660   6.241  1.5249 -0.3775  1.1337
  144OSM   C14S15861   6.951   6.838   6.122  0.2967  0.3903  0.0789
  144OSM   H14S15862   7.056   6.802   6.119 -0.5103 -2.0825 -2.0086
  144OSM   H14T15863   6.946   6.947   6.144 -3.6761  0.9152 -2.4462
  144OSM   C15S15864   6.879   6.808   5.983 -0.7190  0.0212 -0.1235
  144OSM   H15S15865   6.774   6.841   5.995 -0.4556  0.5001  0.9872
  144OSM   H15T15866   6.885   6.699   5.961 -1.4031  0.3855 -2.3903
  144OSM   C16S15867   6.939   6.887   5.869  0.6833  1.0217 -0.2135
  144OSM   H16S15868   7.042   6.847   5.855  0.0802 -0.2438 -1.2482
  144OSM   H16T15869   6.942   6.997   5.887 -1.0054  1.0842 -0.1446
  144OSM   C17S15870   6.851   6.869   5.740  0.0978  0.9504  0.0514
  144OSM   H17S15871   6.746   6.886   5.773 -0.5342 -1.3814 -0.5856
  144OSM   H17T15872   6.854   6.759   5.720 -0.3595  0.7739  0.9033
  144OSM   C18S15873   6.899   6.944   5.612  0.7246  0.4926 -0.0484
  144OSM   H18S15874   6.909   7.053   5.632 -2.6109  0.6681  1.3302
  144OSM   H18T15875   6.830   6.944   5.525 -1.0037  0.3090  1.2601
  144OSM   H18U15876   7.002   6.907   5.593  1.0080  1.6318 -0.8564
  144OSM    C1F15877   6.840   6.190   7.258 -0.3158  1.0283  1.1612
  144OSM     OF15878   6.726   6.187   7.297  0.4283  0.3228  0.0680
  144OSM    C2F15879   6.898   6.084   7.175 -0.6817  0.2825 -0.7514
  144OSM    H2F15880   6.906   5.991   7.235 -0.9392  0.6087 -0.2059
  144OSM    H2G15881   7.002   6.114   7.149  0.3077 -2.3586 -0.1361
  144OSM    C3F15882   6.812   6.069   7.048  0.0818  0.6745 -0.5061
  144OSM    H3F15883   6.712   6.027   7.074 -0.0283  1.1970 -0.0740
  144OSM    H3G15884   6.852   5.989   6.982 -0.4583 -2.0585  2.2193
  144OSM    C4F15885   6.805   6.200   6.967  0.4523 -0.1905  0.7768
  144OSM    H4F15886   6.740   6.276   7.016  0.4075 -0.3105  0.9051
  144OSM    H4G15887   6.759   6.169   6.871  2.5589  1.0233 -0.6946
  144OSM    C5F15888   6.937   6.256   6.926  0.0497 -0.6516 -0.6584
  144OSM    H5F15889   7.015   6.178   6.937  1.6399  1.0432  0.7236
  144OSM    H5G15890   6.972   6.344   6.983  2.2785 -3.0345  1.9477
  144OSM    C6F15891   6.947   6.303   6.778 -0.0727  0.4936  0.4393
  144OSM    H6F15892   7.046   6.349   6.758 -0.6435  1.3542 -0.5156
  144OSM    H6G15893   6.869   6.378   6.755  0.4453  0.4934 -1.5165
  144OSM    C7F15894   6.924   6.183   6.677 -0.5955  0.0919 -0.4554
  144OSM    H7F15895   6.816   6.157   6.682 -0.6312  0.3151 -0.0453
  144OSM    H7G15896   6.986   6.094   6.700 -0.4435  0.2252 -0.3470
  144OSM    C8F15897   6.962   6.209   6.532  0.7614  0.5335  0.3689
  144OSM    H8F15898   6.892   6.284   6.491  0.3397 -0.5384 -0.9585
  144OSM    H8G15899   6.934   6.123   6.467  1.2602  0.1238  0.6841
  144OSM    C9F15900   7.101   6.246   6.493 -0.4831  0.0795 -0.2030
  144OSM    H9F15901   7.175   6.209   6.565  0.8562 -2.8400 -2.8672
  144OSM   C10F15902   7.135   6.338   6.399 -0.0483 -0.6600 -0.5840
  144OSM   H10F15903   7.242   6.354   6.381 -0.7567  3.0805 -2.3733
  144OSM   C11F15904   7.039   6.394   6.299 -0.3775  0.1608 -1.2893
  144OSM   H11F15905   7.008   6.498   6.322  1.2698  1.0380 -2.8245
  144OSM   H11G15906   6.944   6.338   6.285 -2.4599  2.9898  0.5175
  144OSM   C12F15907   7.114   6.413   6.169  0.3842 -0.6506  0.1346
  144OSM   H12F15908   7.025   6.450   6.114  1.2986 -0.2199 -1.1081
  144OSM   H12G15909   7.153   6.321   6.120  0.1957  0.1187 -1.5443
  144OSM   C13F15910   7.220   6.530   6.161 -0.6026 -0.0463  0.1094
  144OSM   H13F15911   7.317   6.482   6.186 -0.2816  0.8327  0.5724
  144OSM   H13G15912   7.192   6.611   6.232  0.7916 -0.9032  1.7225
  144OSM   C14F15913   7.236   6.597   6.027  0.4351 -0.6001  0.4269
  144OSM   H14F15914   7.302   6.686   6.039  0.7548 -0.8444  0.4865
  144OSM   H14G15915   7.136   6.645   6.021  1.2878  1.4733  1.6948
  144OSM   C15F15916   7.263   6.503   5.915  0.0844  0.0977 -0.0429
  144OSM   H15F15917   7.222   6.401   5.932  0.5623  0.0224  0.7177
  144OSM   H15G15918   7.373   6.485   5.919 -0.2295 -1.7290  2.1226
  144OSM   C16F15919   7.224   6.552   5.776 -0.4694 -0.4332  0.2390
  144OSM   H16F15920   7.116   6.580   5.779 -0.5415 -0.7857  1.1738
  144OSM   H16G15921   7.234   6.464   5.709 -0.4121 -0.7548  0.6606
  144OSM   C17F15922   7.306   6.670   5.713  0.2203 -0.6440  0.2022
  144OSM   H17F15923   7.416   6.658   5.713  0.5254  1.3536 -2.1513
  144OSM   H17G15924   7.297   6.765   5.770  0.5145 -0.4717 -0.0379
  144OSM   C18F15925   7.281   6.694   5.559  0.1036 -0.1100 -0.0430
  144OSM   H18F15926   7.194   6.761   5.546  0.5596  0.3180 -0.9200
  144OSM   H18G15927   7.269   6.595   5.509 -1.2936 -2.4399  4.2914
  144OSM   H18H15928   7.368   6.753   5.523  0.2761 -1.6818 -2.3975
  145OSM      N15929   1.754   1.331   8.048  0.0110 -0.0114 -0.7531
  145OSM    C1515930   1.874   1.297   8.139 -0.5923  0.2955 -0.2588
  145OSM   H15A15931   1.883   1.364   8.223  0.1934  0.9205 -0.8262
  145OSM   H15B15932   1.956   1.298   8.069  0.0133  0.1113  0.4297
  145OSM   H15C15933   1.863   1.193   8.168  0.4204  0.2542  0.0437
  145OSM    C1415934   1.634   1.355   8.131  0.2317  0.1475 -0.4106
  145OSM   H14A15935   1.617   1.276   8.204 -1.2405  1.3272  0.5967
  145OSM   H14B15936   1.549   1.355   8.065 -0.6154  1.9866  0.6064
  145OSM   H14C15937   1.648   1.446   8.188 -0.1792 -0.3034  0.4316
  145OSM    C1315938   1.772   1.456   7.977 -0.3390 -0.2386  0.6045
  145OSM   H13A15939   1.788   1.541   8.042 -0.8648 -0.1306  0.5925
  145OSM   H13B15940   1.687   1.472   7.912 -0.0588 -0.0657  0.2764
  145OSM   H13C15941   1.861   1.453   7.915 -1.3326  1.5787 -1.0449
  145OSM    C1215942   1.724   1.209   7.964 -0.2492  0.2052  0.5398
  145OSM   H12A15943   1.646   1.240   7.897  0.6243  2.4404  0.4864
  145OSM   H12B15944   1.687   1.117   8.008 -1.6723  0.2590 -0.4773
  145OSM    C1115945   1.849   1.145   7.885  0.3396 -0.2294 -0.5935
  145OSM   H11A15946   1.800   1.071   7.817  0.6851  0.0247 -1.1243
  145OSM   H11B15947   1.905   1.088   7.962  0.6833 -0.6439 -1.1406
  145OSM      P15948   2.074   1.254   7.806  0.3199 -0.0898 -0.4376
  145OSM    O1315949   2.131   1.336   7.914  0.2953 -0.3477 -0.1238
  145OSM    O1415950   2.130   1.120   7.788 -0.2475 -0.4272  0.7085
  145OSM    O1115951   2.091   1.340   7.677 -0.1648  0.0091 -0.0147
  145OSM    O1215952   1.917   1.249   7.818 -0.2773 -0.2550  0.1479
  145OSM    C1S15953   2.064   1.291   7.544  0.6706 -0.3229 -0.4094
  145OSM    H1S15954   1.954   1.294   7.530  0.2125 -0.6674  2.4970
  145OSM    H1T15955   2.107   1.189   7.534  1.9368  0.0452  0.8914
  145OSM     NF15956   2.108   1.326   7.300 -0.0440  0.0930 -1.0586
  145OSM    HNF15957   2.193   1.294   7.260  1.5243  2.2002  0.3802
  145OSM    C2S15958   2.121   1.387   7.432  0.2448  0.2685  1.3255
  145OSM    H2S15959   2.045   1.469   7.436  0.1417  0.2778 -0.0972
  145OSM    C3S15960   2.262   1.443   7.464  0.3529  0.7650  0.2047
  145OSM    H3S15961   2.326   1.352   7.476 -1.7973 -0.7517  0.7165
  145OSM     O315962   2.267   1.508   7.593  0.1094 -0.3858 -0.5317
  145OSM    HO315963   2.189   1.481   7.642 -0.7147  1.4957 -0.7075
  145OSM    C4S15964   2.302   1.537   7.367  0.3762 -0.4218 -0.3814
  145OSM    H4S15965   2.231   1.618   7.346 -0.8501 -1.8239 -1.9337
  145OSM    C5S15966   2.413   1.530   7.293 -0.1994  0.2470  0.0989
  145OSM    H5S15967   2.482   1.446   7.309  0.8550  1.2210  0.8287
  145OSM    C6S15968   2.446   1.636   7.190  0.6355 -0.3575  0.2178
  145OSM    H6S15969   2.530   1.692   7.237  0.4314 -0.6575  0.9532
  145OSM    H6T15970   2.361   1.707   7.181  1.0889  0.2309  0.5132
  145OSM    C7S15971   2.486   1.582   7.051  0.4238  0.4365 -0.4932
  145OSM    H7S15972   2.402   1.519   7.016 -0.8332  1.1203  1.1692
  145OSM    H7T15973   2.574   1.515   7.064 -0.7598 -1.4004 -1.5108
  145OSM    C8S15974   2.527   1.689   6.948  0.4312 -0.5157 -0.9594
  145OSM    H8S15975   2.624   1.729   6.987 -0.2571 -0.7642  1.1398
  145OSM    H8T15976   2.451   1.770   6.945  1.4902  0.5554 -0.1064
  145OSM    C9S15977   2.536   1.626   6.812  0.3319  0.2813 -0.0729
  145OSM    H9S15978   2.533   1.705   6.734  1.4367  0.7835  0.3679
  145OSM    H9T15979   2.438   1.576   6.796 -1.2006  2.6668  1.1353
  145OSM   C10S15980   2.642   1.523   6.797  0.8224 -0.1614 -0.8298
  145OSM   H10S15981   2.619   1.440   6.867 -1.9412 -0.4212 -1.9422
  145OSM   H10T15982   2.745   1.559   6.822  1.3827 -1.0862 -1.7634
  145OSM   C11S15983   2.644   1.458   6.655  1.1090 -1.2005 -0.0510
  145OSM   H11S15984   2.551   1.399   6.646  1.0280 -1.5943  2.6208
  145OSM   H11T15985   2.729   1.387   6.658  0.5517 -1.8541  0.7749
  145OSM   C12S15986   2.657   1.562   6.539 -0.0085 -0.1097  0.0546
  145OSM   H12S15987   2.737   1.636   6.560 -0.2206 -0.0562  0.7078
  145OSM   H12T15988   2.563   1.620   6.530 -1.2279 -2.0819 -0.4741
  145OSM   C13S15989   2.681   1.494   6.401  0.5864  0.0851  0.3654
  145OSM   H13S15990   2.595   1.429   6.374  2.9096 -2.7005 -0.9329
  145OSM   H13T15991   2.768   1.427   6.413 -0.9770 -1.7487  2.2772
  145OSM   C14S15992   2.712   1.598   6.298 -0.3670 -0.5642  0.9562
  145OSM   H14S15993   2.809   1.646   6.325  0.6549 -0.6382 -2.1638
  145OSM   H14T15994   2.628   1.671   6.294 -0.5590 -0.8084  0.5107
  145OSM   C15S15995   2.744   1.541   6.158 -1.0105 -0.6594  0.1615
  145OSM   H15S15996   2.647   1.491   6.138 -1.1823  0.3515 -1.6951
  145OSM   H15T15997   2.822   1.463   6.151 -1.6036 -1.1631 -0.9979
  145OSM   C16S15998   2.767   1.650   6.053  0.0029  0.0893  0.4402
  145OSM   H16S15999   2.859   1.705   6.083 -0.9597  1.2019  1.4073
  145OSM   H16T16000   2.678   1.716   6.052 -0.7160 -0.8564  0.8365
  145OSM   C17S16001   2.773   1.599   5.914 -0.1399  0.0446  0.5744
  145OSM   H17S16002   2.849   1.522   5.893 -0.9426 -0.8181  0.7652
  145OSM   H17T16003   2.797   1.683   5.845 -0.0566  0.2249  0.8232
  145OSM   C18S16004   2.648   1.525   5.871  0.7312  0.2446 -0.6462
  145OSM   H18S16005   2.554   1.579   5.894 -0.1012 -1.5703  0.4459
  145OSM   H18T16006   2.639   1.431   5.928 -1.3663  1.4821  1.1926
  145OSM   H18U16007   2.656   1.505   5.762  0.6090  0.3821 -0.6802
  145OSM    C1F16008   1.996   1.295   7.250 -1.4905  0.3056  0.4090
  145OSM     OF16009   1.887   1.355   7.275 -0.4419  0.1584 -0.3389
  145OSM    C2F16010   1.982   1.173   7.175  0.0983  0.6074 -0.3924
  145OSM    H2F16011   1.889   1.122   7.209  0.8176  0.5061  1.5378
  145OSM    H2G16012   2.062   1.098   7.196  0.2442  1.5673  3.0375
  145OSM    C3F16013   1.984   1.188   7.022  0.7214 -0.0418  0.5500
  145OSM    H3F16014   2.074   1.246   6.990  0.5059  1.1116  1.9056
  145OSM    H3G16015   1.903   1.261   6.998  1.4870  0.3797 -0.8806
  145OSM    C4F16016   1.965   1.058   6.941  0.3793  0.0574 -0.8349
  145OSM    H4F16017   1.880   1.012   6.996 -0.0475  0.2660 -1.3129
  145OSM    H4G16018   2.060   1.001   6.948  0.3006 -0.1798 -1.5999
  145OSM    C5F16019   1.913   1.076   6.800 -0.6234  0.0190 -0.3170
  145OSM    H5F16020   1.985   1.142   6.747 -1.1329 -0.2773 -1.3936
  145OSM    H5G16021   1.813   1.124   6.811 -1.6570 -2.3860  1.9386
  145OSM    C6F16022   1.900   0.956   6.707  0.4297  0.0539  0.0566
  145OSM    H6F16023   1.828   0.891   6.759 -1.9242  2.5917  0.1957
  145OSM    H6G16024   1.995   0.900   6.690  1.0032  0.3564  2.0431
  145OSM    C7F16025   1.834   0.989   6.565  0.1928 -0.3211 -0.2818
  145OSM    H7F16026   1.734   1.035   6.579  1.0325  1.5648 -0.1532
  145OSM    H7G16027   1.825   0.891   6.515  2.2001 -0.4769 -0.4174
  145OSM    C8F16028   1.916   1.071   6.462  0.6966  0.3806 -0.6903
  145OSM    H8F16029   1.974   1.154   6.507 -0.6579  0.9927 -0.0079
  145OSM    H8G16030   1.844   1.124   6.395 -0.6774 -0.5835 -0.0406
  145OSM    C9F16031   2.003   0.973   6.381  0.0652 -0.8936 -0.1100
  145OSM    H9F16032   2.042   0.888   6.439  0.7866 -0.2866  0.2955
  145OSM   C10F16033   2.025   0.983   6.247 -0.7675 -0.2147 -0.4445
  145OSM   H10F16034   2.073   0.894   6.204  0.6328  0.7826 -1.0364
  145OSM   C11F16035   1.975   1.091   6.150 -0.0601 -0.4093  0.0467
  145OSM   H11F16036   2.053   1.109   6.073 -2.1435  0.3981 -2.0015
  145OSM   H11G16037   1.953   1.186   6.204 -0.0127 -0.5115  0.2482
  145OSM   C12F16038   1.856   1.042   6.063 -0.0859  0.3399 -0.4527
  145OSM   H12F16039   1.763   1.052   6.123  0.1107  1.2570 -0.2892
  145OSM   H12G16040   1.880   0.935   6.042 -1.9426 -0.0581 -0.6809
  145OSM   C13F16041   1.832   1.113   5.933 -0.0116 -0.2879 -0.1848
  145OSM   H13F16042   1.800   1.214   5.969  0.6559  0.4751 -1.6468
  145OSM   H13G16043   1.743   1.074   5.880 -0.8764  1.2888  0.0324
  145OSM   C14F16044   1.955   1.138   5.844  0.7761 -0.1115 -0.7861
  145OSM   H14F16045   2.039   1.177   5.905  2.1353 -3.3189 -0.3836
  145OSM   H14G16046   1.937   1.210   5.762 -1.1538  1.6308  1.0451
  145OSM   C15F16047   2.015   1.011   5.785  0.1739  0.5787  0.4567
  145OSM   H15F16048   2.034   0.934   5.864  3.4520 -0.5285 -1.2081
  145OSM   H15G16049   2.119   1.030   5.751  0.8561 -1.7652  0.9964
  145OSM   C16F16050   1.933   0.942   5.676 -0.1830  0.6222 -0.2580
  145OSM   H16F16051   1.851   0.996   5.623  0.2860  0.8934 -0.7097
  145OSM   H16G16052   1.889   0.855   5.730  0.1878  0.3284 -0.4289
  145OSM   C17F16053   2.025   0.893   5.568 -0.1679 -0.6695  0.3565
  145OSM   H17F16054   2.121   0.856   5.612 -0.4883  0.1222  1.8105
  145OSM   H17G16055   2.055   0.979   5.504  1.7359 -0.8586  0.9283
  145OSM   C18F16056   1.968   0.780   5.477 -0.2903  0.2115 -0.5930
  145OSM   H18F16057   2.050   0.713   5.445 -0.0740  0.5397 -0.7391
  145OSM   H18G16058   1.913   0.835   5.398 -1.1334  1.3111  0.7037
  145OSM   H18H16059   1.900   0.718   5.538  1.0452 -1.5501 -0.8166
  146OSM      N16060   1.486   3.103   7.869 -0.2012  0.3966  0.6707
  146OSM    C1516061   1.413   3.111   8.004 -0.4621  0.5164 -0.2737
  146OSM   H15A16062   1.317   3.158   8.002 -1.7822 -1.9859 -0.2253
  146OSM   H15B16063   1.472   3.177   8.066  0.2215  0.8581 -1.2634
  146OSM   H15C16064   1.413   3.013   8.051 -0.6708  1.0800  0.9226
  146OSM    C1416065   1.417   3.009   7.778 -0.0245 -0.4148  0.4292
  146OSM   H14A16066   1.464   3.026   7.682  0.1795  4.2489  1.1236
  146OSM   H14B16067   1.315   3.042   7.768  0.0343  0.2196  1.7202
  146OSM   H14C16068   1.425   2.904   7.803 -0.8850 -0.6437 -0.2151
  146OSM    C1316069   1.490   3.235   7.802  0.2000  0.0759  0.3003
  146OSM   H13A16070   1.549   3.301   7.863  0.1543  1.1138 -0.7390
  146OSM   H13B16071   1.390   3.276   7.799  0.6862  1.4006  1.4488
  146OSM   H13C16072   1.538   3.226   7.706 -0.3494  2.7903 -0.3097
  146OSM    C1216073   1.634   3.062   7.900  0.3709  0.4774 -0.3355
  146OSM   H12A16074   1.633   2.956   7.921 -0.1532  0.3482 -0.9562
  146OSM   H12B16075   1.668   3.123   7.982 -1.3800  1.0616 -0.0118
  146OSM    C1116076   1.735   3.083   7.788 -0.2174  0.4375  0.1406
  146OSM   H11A16077   1.834   3.066   7.835 -1.6619 -1.2889  2.8156
  146OSM   H11B16078   1.730   3.190   7.757  1.6271  0.4605 -0.2175
  146OSM      P16079   1.762   2.832   7.707  0.2524  0.2462 -0.1637
  146OSM    O1316080   1.909   2.835   7.738  0.0863  0.0062  0.5257
  146OSM    O1416081   1.668   2.771   7.798  1.2280 -0.7173 -0.3537
  146OSM    O1116082   1.742   2.767   7.568 -0.1781 -0.1705 -1.0027
  146OSM    O1216083   1.719   2.987   7.678  0.4583 -0.1946  0.1067
  146OSM    C1S16084   1.679   2.830   7.454  0.3145 -0.0656  0.4010
  146OSM    H1S16085   1.756   2.867   7.382  0.4196 -1.3977 -0.2057
  146OSM    H1T16086   1.608   2.909   7.484 -0.5774 -1.8784  3.4980
  146OSM     NF16087   1.533   2.781   7.252  0.1671  0.7964  0.0584
  146OSM    HNF16088   1.433   2.791   7.256  0.2064  2.3506 -1.7166
  146OSM    C2S16089   1.608   2.721   7.369 -0.0404 -0.6496  0.0667
  146OSM    H2S16090   1.684   2.654   7.323 -2.3311 -1.3340 -3.0059
  146OSM    C3S16091   1.531   2.617   7.456  0.3402 -0.6541 -0.0328
  146OSM    H3S16092   1.466   2.682   7.519  0.2523 -0.9930  0.2327
  146OSM     O316093   1.614   2.542   7.547  0.1618 -0.3546  0.3576
  146OSM    HO316094   1.686   2.600   7.573  0.6222 -1.8656  2.8965
  146OSM    C4S16095   1.456   2.519   7.373 -0.5016  0.4231 -0.5692
  146OSM    H4S16096   1.353   2.557   7.358 -0.4973  0.7460  0.1906
  146OSM    C5S16097   1.498   2.405   7.316 -0.6579  0.7265 -0.1054
  146OSM    H5S16098   1.604   2.380   7.328 -0.8455  0.5912  1.4528
  146OSM    C6S16099   1.412   2.308   7.229  0.0035  0.0280  0.0381
  146OSM    H6S16100   1.306   2.313   7.262  0.6204 -1.1172  2.4292
  146OSM    H6T16101   1.446   2.202   7.238  1.2347  0.4407  0.4911
  146OSM    C7S16102   1.418   2.351   7.077 -0.5520 -0.1477 -0.2506
  146OSM    H7S16103   1.521   2.362   7.037 -0.9344  0.6892 -1.0384
  146OSM    H7T16104   1.391   2.458   7.064  0.5590  0.1300 -0.3803
  146OSM    C8S16105   1.336   2.258   6.981 -0.0343 -0.2135 -0.1066
  146OSM    H8S16106   1.228   2.264   7.008 -0.1874  1.2682 -0.9642
  146OSM    H8T16107   1.378   2.159   7.010 -0.9461 -0.4388  0.4753
  146OSM    C9S16108   1.353   2.297   6.836  0.1855  0.1863 -0.1165
  146OSM    H9S16109   1.462   2.302   6.819  0.6186 -0.9339  2.0082
  146OSM    H9T16110   1.296   2.391   6.818  0.1748 -0.1064 -1.8103
  146OSM   C10S16111   1.315   2.183   6.733 -0.4450  0.1281  0.5723
  146OSM   H10S16112   1.208   2.151   6.739 -0.1643 -0.9953 -0.2216
  146OSM   H10T16113   1.375   2.091   6.744 -1.5639 -1.0199 -2.0720
  146OSM   C11S16114   1.324   2.240   6.596 -0.3988 -0.5099  0.8366
  146OSM   H11S16115   1.432   2.264   6.587 -0.6480  1.7614  2.8646
  146OSM   H11T16116   1.261   2.331   6.587  2.1171  1.2259 -0.0907
  146OSM   C12S16117   1.280   2.136   6.495 -0.3982 -0.4410  0.0097
  146OSM   H12S16118   1.179   2.100   6.523  0.1373 -0.8908  1.4759
  146OSM   H12T16119   1.350   2.049   6.496  2.0951  1.4183 -0.7342
  146OSM   C13S16120   1.285   2.201   6.353  0.2197  0.6679 -0.3360
  146OSM   H13S16121   1.391   2.230   6.337  0.0876  0.2620 -2.1871
  146OSM   H13T16122   1.233   2.299   6.358 -1.0288 -0.0186  3.0582
  146OSM   C14S16123   1.228   2.124   6.228 -0.2676 -0.0313 -0.5758
  146OSM   H14S16124   1.121   2.106   6.250  0.7178 -0.6632  5.0549
  146OSM   H14T16125   1.271   2.021   6.232 -0.2988 -0.0928 -1.5968
  146OSM   C15S16126   1.230   2.200   6.101 -0.1029  0.1295 -0.4352
  146OSM   H15S16127   1.337   2.228   6.087 -0.3014 -0.2773 -3.2829
  146OSM   H15T16128   1.175   2.297   6.103 -2.1907 -1.0082  0.2734
  146OSM   C16S16129   1.196   2.112   5.979  0.4225 -0.3585  0.0067
  146OSM   H16S16130   1.098   2.062   5.977  0.3363 -0.1671 -1.4465
  146OSM   H16T16131   1.273   2.033   5.993 -0.6523 -1.6329 -1.0823
  146OSM   C17S16132   1.217   2.184   5.842 -0.1342  0.3679 -0.4030
  146OSM   H17S16133   1.236   2.112   5.759  1.5190  0.6258 -0.2841
  146OSM   H17T16134   1.305   2.250   5.853 -0.7896  1.2066 -0.0858
  146OSM   C18S16135   1.098   2.269   5.803 -0.8165  0.4736 -0.3249
  146OSM   H18S16136   1.123   2.322   5.708 -0.5404 -2.1695 -1.8099
  146OSM   H18T16137   1.074   2.341   5.884 -3.1429 -1.2579  0.6259
  146OSM   H18U16138   1.009   2.212   5.770 -0.5729  1.1725 -2.3415
  146OSM    C1F16139   1.589   2.839   7.150  0.2049  0.4780 -0.2394
  146OSM     OF16140   1.711   2.831   7.129 -0.4743 -0.4658 -0.5733
  146OSM    C2F16141   1.486   2.907   7.062  0.4366  0.0850  0.5603
  146OSM    H2F16142   1.507   3.004   7.012  1.0423 -0.2499  0.1561
  146OSM    H2G16143   1.394   2.937   7.116 -0.6650  0.5341 -1.4574
  146OSM    C3F16144   1.428   2.824   6.941  0.5710  0.8541 -0.3214
  146OSM    H3F16145   1.338   2.875   6.899  0.3296  0.6275 -0.0777
  146OSM    H3G16146   1.390   2.731   6.987  0.3378  1.7768  1.4355
  146OSM    C4F16147   1.520   2.784   6.828  0.3004  0.2695  0.6245
  146OSM    H4F16148   1.609   2.730   6.868  0.1219  2.0146  3.7265
  146OSM    H4G16149   1.567   2.876   6.787  0.2056 -0.6246 -1.6135
  146OSM    C5F16150   1.443   2.707   6.721  0.6032 -0.1969  0.3620
  146OSM    H5F16151   1.335   2.728   6.734  0.7045  0.5584  0.0709
  146OSM    H5G16152   1.452   2.603   6.759 -0.0937 -0.7501 -0.9575
  146OSM    C6F16153   1.495   2.744   6.581  0.7080 -0.3151 -0.3064
  146OSM    H6F16154   1.580   2.676   6.562 -1.5510 -2.9736 -1.6187
  146OSM    H6G16155   1.539   2.846   6.580  3.1235 -1.2940  0.5344
  146OSM    C7F16156   1.384   2.724   6.471 -0.0023 -0.4320  0.8263
  146OSM    H7F16157   1.284   2.764   6.498 -0.1312  0.2293 -0.5180
  146OSM    H7G16158   1.370   2.614   6.457 -1.3397 -0.0557 -1.3035
  146OSM    C8F16159   1.429   2.780   6.328 -0.1496 -0.3240  0.1787
  146OSM    H8F16160   1.528   2.735   6.305 -1.2897 -2.5456 -0.7170
  146OSM    H8G16161   1.449   2.889   6.337  0.3506 -0.1797 -2.1368
  146OSM    C9F16162   1.323   2.759   6.219  0.3955  0.0718 -0.0258
  146OSM    H9F16163   1.256   2.845   6.235  0.9906  0.7302 -0.9833
  146OSM   C10F16164   1.314   2.682   6.115  0.4115  0.4064  0.3018
  146OSM   H10F16165   1.226   2.698   6.051  1.4373  2.0320 -0.7832
  146OSM   C11F16166   1.399   2.568   6.073  0.2382 -0.2538 -0.0589
  146OSM   H11F16167   1.332   2.488   6.035 -0.3324 -0.4976  1.3941
  146OSM   H11G16168   1.457   2.518   6.154 -1.0636 -1.9925 -0.1314
  146OSM   C12F16169   1.509   2.609   5.974 -0.7601  0.0819 -0.0965
  146OSM   H12F16170   1.583   2.528   5.958  0.1862  1.0008 -0.4610
  146OSM   H12G16171   1.559   2.697   6.019 -0.8656  0.5030 -0.7922
  146OSM   C13F16172   1.472   2.639   5.829 -0.1769  0.0784 -0.3636
  146OSM   H13F16173   1.558   2.673   5.768 -1.2525 -0.3861 -2.2251
  146OSM   H13G16174   1.399   2.722   5.825 -0.4106 -0.1668 -2.1731
  146OSM   C14F16175   1.424   2.517   5.760 -0.1258 -0.4513  0.1623
  146OSM   H14F16176   1.484   2.427   5.783 -1.7794 -1.1053  2.3503
  146OSM   H14G16177   1.323   2.491   5.800  0.5691  1.3528  3.4446
  146OSM   C15F16178   1.424   2.522   5.608  0.1523  0.0240  0.2521
  146OSM   H15F16179   1.523   2.538   5.559  0.0352 -3.6471 -1.4801
  146OSM   H15G16180   1.354   2.605   5.582 -0.8557  0.0693  2.8483
  146OSM   C16F16181   1.369   2.396   5.543  0.1461 -0.2034  0.2001
  146OSM   H16F16182   1.260   2.389   5.564  0.6879 -1.3384  3.0421
  146OSM   H16G16183   1.415   2.314   5.603 -1.6956 -3.4166 -2.4518
  146OSM   C17F16184   1.411   2.390   5.393  0.0434  0.3174 -0.8747
  146OSM   H17F16185   1.519   2.367   5.378  0.1909 -1.4280  2.0850
  146OSM   H17G16186   1.373   2.483   5.346 -0.5715  0.6610  0.2580
  146OSM   C18F16187   1.345   2.268   5.323  0.2291  0.0214  0.0598
  146OSM   H18F16188   1.341   2.278   5.213 -0.7720  1.7255  0.2218
  146OSM   H18G16189   1.241   2.251   5.360  0.3482 -1.0903 -0.0679
  146OSM   H18H16190   1.389   2.172   5.357 -0.8965 -0.9570 -1.1157
  147OSM      N16191   5.983   6.102   2.782 -0.1137 -0.1774 -0.0927
  147OSM    C1516192   5.890   6.057   2.669  0.1517  0.0122 -0.5714
  147OSM   H15A16193   5.817   6.135   2.656 -0.4400  0.1452  2.6296
  147OSM   H15B16194   5.831   5.975   2.708  1.3605  1.1207  4.3232
  147OSM   H15C16195   5.937   6.029   2.576 -0.1288  2.2037 -1.4210
  147OSM    C1416196   6.088   6.007   2.823  0.4736  0.1365  0.5611
  147OSM   H14A16197   6.042   5.930   2.883 -0.0641 -0.0496 -0.0718
  147OSM   H14B16198   6.155   6.059   2.891 -1.8356  0.9984  2.3135
  147OSM   H14C16199   6.129   5.955   2.738 -3.7629 -2.4542 -0.1866
  147OSM    C1316200   6.057   6.224   2.750 -0.2362 -0.2461  0.9007
  147OSM   H13A16201   6.113   6.278   2.825 -1.3369  0.5481  1.1896
  147OSM   H13B16202   5.986   6.296   2.712  0.1508 -0.4290 -0.1951
  147OSM   H13C16203   6.117   6.205   2.663 -1.2641  1.9627 -0.3785
  147OSM    C1216204   5.891   6.129   2.896 -0.4243 -0.3744 -0.1321
  147OSM   H12A16205   5.803   6.186   2.869 -1.2951 -1.5721  0.0426
  147OSM   H12B16206   5.940   6.191   2.969 -0.9731 -0.2575  0.1403
  147OSM    C1116207   5.832   6.003   2.967  0.7299  0.2586 -0.3659
  147OSM   H11A16208   5.784   6.026   3.065  0.2220 -0.4359 -0.4430
  147OSM   H11B16209   5.911   5.932   2.998 -1.5376 -1.5310  1.7175
  147OSM      P16210   5.605   6.006   2.839 -0.7142  0.3874  0.1062
  147OSM    O1316211   5.615   6.153   2.860 -0.8872 -0.0241  0.0303
  147OSM    O1416212   5.557   5.962   2.705  0.3499  0.2471  0.3015
  147OSM    O1116213   5.496   5.954   2.947 -0.1511 -0.2140  0.1313
  147OSM    O1216214   5.738   5.934   2.884  0.0973  0.1838  0.6766
  147OSM    C1S16215   5.511   5.842   3.041 -0.3139 -0.4321 -0.9340
  147OSM    H1S16216   5.611   5.792   3.039  0.3086  0.7799 -2.4681
  147OSM    H1T16217   5.429   5.770   3.022 -0.5262 -0.5590  0.3719
  147OSM     NF16218   5.528   5.797   3.283  0.3478  0.0269 -0.2046
  147OSM    HNF16219   5.448   5.771   3.336  0.4492  0.7042  0.2862
  147OSM    C2S16220   5.502   5.898   3.186 -0.0266  0.1734  0.8732
  147OSM    H2S16221   5.585   5.971   3.177 -0.8763  1.5236  3.0350
  147OSM    C3S16222   5.367   5.968   3.206 -0.4564  0.2060 -0.6745
  147OSM    H3S16223   5.289   5.888   3.207  0.4660 -0.7085 -1.2121
  147OSM     O316224   5.330   6.066   3.115 -0.2168  0.3876 -0.5779
  147OSM    HO316225   5.404   6.059   3.054  0.3095  0.3947  0.0450
  147OSM    C4S16226   5.372   6.040   3.343 -0.0622 -0.6275 -0.4718
  147OSM    H4S16227   5.459   6.108   3.351 -1.8529  1.6827  0.5181
  147OSM    C5S16228   5.281   6.018   3.442 -0.1041  0.5911 -0.5286
  147OSM    H5S16229   5.194   5.952   3.427  0.3782 -0.7443  1.9517
  147OSM    C6S16230   5.287   6.074   3.582  0.3123 -0.8377  0.3205
  147OSM    H6S16231   5.222   6.036   3.664  0.7474  1.4822  1.8333
  147OSM    H6T16232   5.224   6.164   3.567 -1.7770 -1.9939  1.7168
  147OSM    C7S16233   5.418   6.126   3.645  0.3827  0.8010 -0.2548
  147OSM    H7S16234   5.462   6.208   3.583  1.9151 -0.3852 -0.8112
  147OSM    H7T16235   5.492   6.043   3.652 -0.4726  0.1233  1.0587
  147OSM    C8S16236   5.400   6.182   3.781 -0.4995 -0.0700 -0.6027
  147OSM    H8S16237   5.355   6.118   3.859 -1.4834  1.4668  0.1428
  147OSM    H8T16238   5.331   6.269   3.784  0.4273  0.6779  1.8912
  147OSM    C9S16239   5.541   6.232   3.825 -0.4753 -0.3385 -0.6912
  147OSM    H9S16240   5.581   6.312   3.758 -2.4317  1.0313 -0.3027
  147OSM    H9T16241   5.604   6.141   3.818  1.1421  0.7616 -1.1523
  147OSM   C10S16242   5.531   6.282   3.969 -0.3435 -0.0146  0.3387
  147OSM   H10S16243   5.497   6.194   4.027 -0.1498 -0.3322 -0.0235
  147OSM   H10T16244   5.465   6.371   3.983 -0.3958 -0.2013  1.3434
  147OSM   C11S16245   5.667   6.315   4.039 -0.1863  0.2343  0.7200
  147OSM   H11S16246   5.718   6.407   4.004 -0.9904 -0.2268 -1.9072
  147OSM   H11T16247   5.734   6.228   4.024 -1.9119 -1.5301  2.5854
  147OSM   C12S16248   5.650   6.338   4.190  0.0324  0.0673 -0.1102
  147OSM   H12S16249   5.598   6.436   4.194 -0.4913 -0.2144  0.0061
  147OSM   H12T16250   5.749   6.350   4.239  0.5732 -2.7038 -0.3562
  147OSM   C13S16251   5.578   6.222   4.265  0.1683 -0.3185  0.5371
  147OSM   H13S16252   5.623   6.130   4.221 -0.2929 -0.1037 -0.3966
  147OSM   H13T16253   5.472   6.214   4.234  0.8459 -1.5336 -1.6495
  147OSM   C14S16254   5.586   6.229   4.416 -0.5219 -0.4192  0.4340
  147OSM   H14S16255   5.515   6.304   4.457  0.3258  1.3710 -1.2146
  147OSM   H14T16256   5.685   6.271   4.443 -0.2368 -1.0683  0.3918
  147OSM   C15S16257   5.578   6.089   4.481  0.9005 -0.0376 -1.1095
  147OSM   H15S16258   5.672   6.031   4.463  0.6415 -0.4534 -1.1230
  147OSM   H15T16259   5.494   6.035   4.433 -1.3374  1.2084  1.1785
  147OSM   C16S16260   5.554   6.089   4.631  0.4796  0.1902  0.3139
  147OSM   H16S16261   5.494   6.002   4.667 -1.5223  1.8382  1.1508
  147OSM   H16T16262   5.488   6.171   4.666  1.4302  0.9408  0.3717
  147OSM   C17S16263   5.681   6.093   4.719 -1.3224 -0.4845 -1.0119
  147OSM   H17S16264   5.750   6.178   4.699 -0.1150 -1.1299  0.2003
  147OSM   H17T16265   5.740   5.999   4.710 -2.6303 -1.3829 -0.5537
  147OSM   C18S16266   5.638   6.120   4.866 -0.4442 -0.4027  0.2492
  147OSM   H18S16267   5.715   6.138   4.943 -1.0270  0.1387  0.7139
  147OSM   H18T16268   5.575   6.034   4.896  2.2543 -2.6969 -0.2869
  147OSM   H18U16269   5.571   6.209   4.862  0.6036  0.4598  1.4715
  147OSM    C1F16270   5.639   5.737   3.304  0.0192 -0.8655  0.6848
  147OSM     OF16271   5.735   5.774   3.240  0.0896  0.3995 -0.2197
  147OSM    C2F16272   5.644   5.628   3.397  0.0495 -0.4703 -0.0903
  147OSM    H2F16273   5.612   5.536   3.345 -1.4133  1.3651 -2.6735
  147OSM    H2G16274   5.569   5.642   3.477 -1.3158 -1.6055 -1.1265
  147OSM    C3F16275   5.796   5.601   3.447 -0.0461 -0.0121  0.6166
  147OSM    H3F16276   5.828   5.675   3.523  1.1630  0.4043 -0.2668
  147OSM    H3G16277   5.866   5.601   3.361 -0.2961 -1.3333  0.3883
  147OSM    C4F16278   5.813   5.454   3.492  0.1795 -0.3192  0.5740
  147OSM    H4F16279   5.917   5.435   3.526  0.3877 -1.4762 -0.6061
  147OSM    H4G16280   5.812   5.384   3.406  3.8098  0.9225 -0.6695
  147OSM    C5F16281   5.717   5.412   3.605 -0.4177 -1.0668 -0.1559
  147OSM    H5F16282   5.713   5.301   3.607 -1.4007 -1.0469 -0.4196
  147OSM    H5G16283   5.612   5.444   3.587 -0.0526 -0.3650 -1.1298
  147OSM    C6F16284   5.756   5.470   3.740 -0.7038  0.2275 -0.3877
  147OSM    H6F16285   5.744   5.580   3.736 -0.5594  0.2510 -0.1780
  147OSM    H6G16286   5.863   5.446   3.760 -0.7327 -0.1287 -0.6401
  147OSM    C7F16287   5.679   5.414   3.863 -0.6375 -0.0194  0.3696
  147OSM    H7F16288   5.704   5.307   3.877 -2.1386 -0.3752  0.5090
  147OSM    H7G16289   5.575   5.443   3.837 -0.9633 -0.4318  1.1813
  147OSM    C8F16290   5.700   5.498   3.988 -0.6442  0.3256  0.2964
  147OSM    H8F16291   5.664   5.602   3.974 -0.6767  0.6153  2.2945
  147OSM    H8G16292   5.808   5.505   4.012 -0.4149  0.3449 -0.6963
  147OSM    C9F16293   5.624   5.433   4.103  0.1658  0.3057 -0.4970
  147OSM    H9F16294   5.562   5.344   4.084  0.1688 -0.0858  1.1254
  147OSM   C10F16295   5.627   5.476   4.234 -0.1854 -0.1935 -0.6940
  147OSM   H10F16296   5.579   5.413   4.310 -0.9034 -1.9658 -2.5111
  147OSM   C11F16297   5.712   5.596   4.276  0.1106 -0.0570  0.4337
  147OSM   H11F16298   5.761   5.643   4.188 -2.7661 -1.9596 -2.4107
  147OSM   H11G16299   5.790   5.551   4.340 -0.8868 -0.6072  1.3009
  147OSM   C12F16300   5.640   5.705   4.347  0.3108  0.3018  0.7347
  147OSM   H12F16301   5.564   5.754   4.281 -0.1609  0.1811  1.1798
  147OSM   H12G16302   5.718   5.781   4.370  0.0522  0.7161  0.2750
  147OSM   C13F16303   5.583   5.649   4.481 -0.2532  0.0650  1.0734
  147OSM   H13F16304   5.555   5.542   4.472  0.6335 -0.0572 -0.4418
  147OSM   H13G16305   5.494   5.709   4.511  0.5492  0.9698  1.6822
  147OSM   C14F16306   5.692   5.650   4.593 -0.0137  0.3990  0.1450
  147OSM   H14F16307   5.728   5.756   4.590  0.6781  0.1602 -3.0589
  147OSM   H14G16308   5.781   5.589   4.567 -1.1369 -0.4752 -1.7904
  147OSM   C15F16309   5.655   5.620   4.735 -0.8829 -0.3922 -1.4711
  147OSM   H15F16310   5.571   5.687   4.764  2.0590  2.2041  2.1092
  147OSM   H15G16311   5.741   5.663   4.790  0.9847 -1.4116 -3.4589
  147OSM   C16F16312   5.620   5.470   4.755  0.5274 -0.1282  0.4542
  147OSM   H16F16313   5.714   5.413   4.745 -0.5482 -2.2421  1.8013
  147OSM   H16G16314   5.556   5.437   4.670  0.4171  1.0650  0.0520
  147OSM   C17F16315   5.533   5.441   4.881 -0.5278 -0.1309 -0.3890
  147OSM   H17F16316   5.521   5.331   4.886 -0.4676 -0.1004  0.5183
  147OSM   H17G16317   5.432   5.483   4.863 -2.0416 -3.0998  0.6433
  147OSM   C18F16318   5.578   5.501   5.016 -0.1072 -0.0387 -0.1615
  147OSM   H18F16319   5.679   5.458   5.035  0.2505  0.6168 -0.5390
  147OSM   H18G16320   5.510   5.471   5.099  0.8782  1.6096  1.2977
  147OSM   H18H16321   5.587   5.612   5.014  2.4461 -0.1909 -0.6528
  148OSM      N16322   3.881   6.196   2.901  0.3694  0.6528  0.0441
  148OSM    C1516323   3.908   6.160   2.751  0.4189 -0.4673  0.5273
  148OSM   H15A16324   3.956   6.240   2.696 -1.0464 -1.0861 -1.7806
  148OSM   H15B16325   3.816   6.138   2.699  0.5844 -0.2840  0.1540
  148OSM   H15C16326   3.966   6.069   2.740 -1.6117 -1.5236 -2.6951
  148OSM    C1416327   4.020   6.216   2.956 -0.2577  0.6916  0.7490
  148OSM   H14A16328   4.068   6.125   2.987 -0.9756 -0.0722 -0.3171
  148OSM   H14B16329   4.015   6.276   3.046  4.4479  1.5542  0.6627
  148OSM   H14C16330   4.074   6.287   2.895  0.2043  0.4739  0.9019
  148OSM    C1316331   3.803   6.319   2.912 -0.0162  0.4165 -0.0290
  148OSM   H13A16332   3.853   6.398   2.857  2.4885  1.3908  3.3396
  148OSM   H13B16333   3.785   6.348   3.014  0.6851  2.2374 -0.3841
  148OSM   H13C16334   3.705   6.295   2.875 -0.6316 -0.7437  2.2073
  148OSM    C1216335   3.807   6.078   2.971 -0.2747  0.1541 -0.2160
  148OSM   H12A16336   3.866   5.990   2.948  2.1055  0.6707  3.1675
  148OSM   H12B16337   3.713   6.058   2.922 -2.4999  1.4195  3.2558
  148OSM    C1116338   3.790   6.068   3.123  0.0061  0.2391 -0.0670
  148OSM   H11A16339   3.885   6.083   3.179 -0.4446  1.3144  0.4482
  148OSM   H11B16340   3.750   5.969   3.151  1.6382 -0.1902  0.9139
  148OSM      P16341   3.551   6.187   3.125 -0.0797 -0.3889 -0.0755
  148OSM    O1316342   3.480   6.282   3.210  0.1071 -0.4248  0.1231
  148OSM    O1416343   3.543   6.209   2.975  0.3260 -0.1860 -0.0032
  148OSM    O1116344   3.497   6.040   3.153 -0.0390 -0.5378  0.4422
  148OSM    O1216345   3.713   6.181   3.159  0.1925  0.7142  0.3406
  148OSM    C1S16346   3.520   5.969   3.273  0.1592 -0.6257  0.2459
  148OSM    H1S16347   3.570   6.039   3.343 -3.4869  1.2843  1.2331
  148OSM    H1T16348   3.578   5.875   3.262 -0.7887 -1.2186  0.1392
  148OSM     NF16349   3.393   5.881   3.477  0.1754  0.2795 -0.3130
  148OSM    HNF16350   3.417   5.789   3.506 -1.0593  0.2340  0.6825
  148OSM    C2S16351   3.383   5.928   3.338 -0.3126  0.3818 -0.6428
  148OSM    H2S16352   3.309   6.010   3.343 -0.9589 -0.2497  1.1117
  148OSM    C3S16353   3.326   5.816   3.240 -0.2518  0.6140 -0.6569
  148OSM    H3S16354   3.405   5.738   3.242 -0.1993  0.6819  0.4730
  148OSM     O316355   3.309   5.853   3.101  0.0779 -0.1733 -0.1988
  148OSM    HO316356   3.351   5.938   3.087 -0.0775 -0.2551 -1.2579
  148OSM    C4S16357   3.198   5.750   3.302 -0.3165 -0.5636  0.3936
  148OSM    H4S16358   3.218   5.673   3.379  0.2491  0.0278  0.8447
  148OSM    C5S16359   3.073   5.788   3.284  0.4609  0.7832 -0.4205
  148OSM    H5S16360   3.050   5.881   3.230  0.1412  0.9315 -0.0386
  148OSM    C6S16361   2.958   5.738   3.363  0.5972 -0.0591  0.5725
  148OSM    H6S16362   2.887   5.703   3.286  1.8428 -1.0057 -0.1785
  148OSM    H6T16363   2.904   5.817   3.419 -1.7444  0.2592 -1.9139
  148OSM    C7S16364   2.984   5.617   3.453 -0.4279 -0.0806  0.0933
  148OSM    H7S16365   3.049   5.535   3.417  0.1125  0.3105  0.1761
  148OSM    H7T16366   2.891   5.561   3.479  0.2527 -1.8761 -1.1707
  148OSM    C8S16367   3.028   5.656   3.601 -0.2185  0.1294 -0.5967
  148OSM    H8S16368   2.945   5.699   3.660  0.3808  2.4138 -1.3270
  148OSM    H8T16369   3.109   5.732   3.597  0.4546 -0.4571  0.9316
  148OSM    C9S16370   3.097   5.544   3.694 -0.0773  0.1944  1.0495
  148OSM    H9S16371   3.177   5.504   3.629  1.0035  2.8090  0.6521
  148OSM    H9T16372   3.023   5.461   3.702 -0.3663  0.3704  0.2977
  148OSM   C10S16373   3.132   5.587   3.837 -0.3073 -0.0805  0.6560
  148OSM   H10S16374   3.056   5.662   3.867 -0.8063 -0.5184  0.5010
  148OSM   H10T16375   3.227   5.644   3.824 -0.8898  0.8380  0.3165
  148OSM   C11S16376   3.166   5.474   3.942  0.5900  0.0795 -0.7057
  148OSM   H11S16377   3.208   5.391   3.882 -2.3005 -2.2721  0.2767
  148OSM   H11T16378   3.073   5.420   3.969 -0.3772  1.6177 -0.7838
  148OSM   C12S16379   3.255   5.510   4.056  1.1109 -0.6940 -0.1678
  148OSM   H12S16380   3.213   5.600   4.105  0.8732 -1.2910  0.7419
  148OSM   H12T16381   3.351   5.548   4.015  0.1123  4.8690  1.8301
  148OSM   C13S16382   3.279   5.390   4.144  0.6598  0.2057 -0.0727
  148OSM   H13S16383   3.299   5.295   4.090  2.3674 -0.3402  1.4382
  148OSM   H13T16384   3.183   5.366   4.196  0.6071  1.0656  0.2395
  148OSM   C14S16385   3.401   5.411   4.234 -0.1610 -0.0792  0.0875
  148OSM   H14S16386   3.480   5.458   4.172 -0.3615 -0.0775 -0.1675
  148OSM   H14T16387   3.448   5.323   4.282  1.4911 -0.2302 -1.6706
  148OSM   C15S16388   3.362   5.503   4.349  0.3553  0.3396 -1.0360
  148OSM   H15S16389   3.334   5.594   4.292 -2.2477 -0.9131 -1.8506
  148OSM   H15T16390   3.449   5.531   4.413 -0.5846  3.5756 -0.9977
  148OSM   C16S16391   3.240   5.466   4.436  0.0863 -0.6796 -0.6486
  148OSM   H16S16392   3.263   5.368   4.484  0.9227  0.3067  1.0984
  148OSM   H16T16393   3.149   5.448   4.376 -1.6800 -1.0671  1.9567
  148OSM   C17S16394   3.200   5.572   4.537  0.4029 -0.9058 -0.2530
  148OSM   H17S16395   3.196   5.667   4.480  0.4660  0.0062  1.2259
  148OSM   H17T16396   3.284   5.579   4.608 -0.8261 -0.9558  1.2496
  148OSM   C18S16397   3.071   5.555   4.613  0.5815  0.1414 -0.0422
  148OSM   H18S16398   3.067   5.645   4.678  0.5967  0.3206 -0.2836
  148OSM   H18T16399   3.054   5.462   4.670 -1.9155  1.1196  0.9369
  148OSM   H18U16400   2.977   5.566   4.555  0.2802  0.0147  0.4170
  148OSM    C1F16401   3.396   5.969   3.580  0.0269  0.2715  0.6449
  148OSM     OF16402   3.396   6.089   3.555  0.5694 -0.1309 -0.6131
  148OSM    C2F16403   3.391   5.905   3.710 -0.6465  0.2453 -0.1267
  148OSM    H2F16404   3.492   5.880   3.749 -1.4598 -1.4691  0.9964
  148OSM    H2G16405   3.332   5.811   3.705 -1.4520  0.6463  1.2951
  148OSM    C3F16406   3.314   5.998   3.804  0.3638 -0.5149 -0.1049
  148OSM    H3F16407   3.215   6.029   3.763  0.4428 -0.5112 -0.2918
  148OSM    H3G16408   3.361   6.097   3.824  0.9350 -1.2267  2.5197
  148OSM    C4F16409   3.298   5.936   3.943  0.7977 -0.0487  1.0588
  148OSM    H4F16410   3.219   5.858   3.944  0.2198  0.5047 -0.0176
  148OSM    H4G16411   3.263   6.018   4.009 -0.7312  0.4086 -0.2582
  148OSM    C5F16412   3.425   5.884   4.007  0.2795  0.6912 -0.0082
  148OSM    H5F16413   3.512   5.951   3.993  1.7797 -1.1916 -0.0500
  148OSM    H5G16414   3.441   5.794   3.944  1.1168 -0.4662  1.7808
  148OSM    C6F16415   3.427   5.839   4.155  0.8641 -0.9777  0.2274
  148OSM    H6F16416   3.518   5.775   4.162  2.4567  1.3160  1.7750
  148OSM    H6G16417   3.338   5.776   4.180 -0.7054  1.4170  1.0103
  148OSM    C7F16418   3.455   5.950   4.262 -0.2696  0.1093  0.4776
  148OSM    H7F16419   3.390   6.041   4.263  0.6799  0.8183 -0.2432
  148OSM    H7G16420   3.552   6.001   4.248 -0.6088  0.8412  0.7465
  148OSM    C8F16421   3.465   5.877   4.396  0.5254  0.5908  0.0859
  148OSM    H8F16422   3.543   5.799   4.386  1.4732  1.6256 -0.8673
  148OSM    H8G16423   3.374   5.815   4.408  0.8982 -0.0121 -0.1783
  148OSM    C9F16424   3.501   5.970   4.510 -0.5305 -0.3731 -0.6281
  148OSM    H9F16425   3.523   6.077   4.495  1.5437 -0.5119  0.9330
  148OSM   C10F16426   3.522   5.917   4.635 -0.4270 -0.4368 -0.2956
  148OSM   H10F16427   3.557   5.983   4.715  1.7485 -0.5815 -1.0543
  148OSM   C11F16428   3.514   5.768   4.679  0.0566  0.0765 -0.9655
  148OSM   H11F16429   3.503   5.694   4.598  1.9300 -2.1740  0.6929
  148OSM   H11G16430   3.426   5.763   4.746 -0.3003 -0.0554 -1.4382
  148OSM   C12F16431   3.643   5.726   4.755  0.0658 -0.2700 -0.5010
  148OSM   H12F16432   3.684   5.801   4.826 -2.0171 -2.1921  2.9969
  148OSM   H12G16433   3.717   5.696   4.678 -1.3624  2.1963 -3.0446
  148OSM   C13F16434   3.615   5.619   4.865  0.3669 -0.1490 -0.0696
  148OSM   H13F16435   3.539   5.656   4.937 -0.8747 -0.5820 -1.1023
  148OSM   H13G16436   3.713   5.606   4.916  1.7908  2.9157 -1.7151
  148OSM   C14F16437   3.573   5.483   4.803 -0.1272 -0.9830 -0.1122
  148OSM   H14F16438   3.646   5.469   4.721 -0.4312  1.3450 -0.8640
  148OSM   H14G16439   3.479   5.484   4.744 -0.9399 -2.8843  1.0367
  148OSM   C15F16440   3.566   5.361   4.898 -0.3352 -0.2072 -0.2307
  148OSM   H15F16441   3.659   5.341   4.956  0.1093  3.0094  0.3425
  148OSM   H15G16442   3.540   5.275   4.832  4.0092 -0.5450 -1.8586
  148OSM   C16F16443   3.448   5.377   4.996 -0.0851  0.3099  0.0371
  148OSM   H16F16444   3.369   5.409   4.925 -1.1494  0.6481  1.3346
  148OSM   H16G16445   3.475   5.458   5.067 -2.1434  0.5924  0.5799
  148OSM   C17F16446   3.408   5.248   5.061 -0.3647  0.2593  0.3609
  148OSM   H17F16447   3.434   5.167   4.990 -1.8243  0.1324 -0.0627
  148OSM   H17G16448   3.298   5.260   5.074 -0.2169  3.1488 -0.4196
  148OSM   C18F16449   3.476   5.236   5.201 -0.5638 -0.1286  0.5090
  148OSM   H18F16450   3.428   5.154   5.260  0.8805  0.9185  3.3744
  148OSM   H18G16451   3.471   5.332   5.257  0.2590  0.4334 -0.3517
  148OSM   H18H16452   3.583   5.207   5.187 -0.7148  0.1779 -1.4608
  149OSM      N16453   5.891   4.920   2.564 -0.2163  0.0017 -0.4977
  149OSM    C1516454   5.772   4.986   2.502  0.1003 -0.7022 -0.5646
  149OSM   H15A16455   5.762   4.967   2.396 -0.8654 -1.7686 -0.3043
  149OSM   H15B16456   5.786   5.092   2.513  0.1747 -0.7772  0.0756
  149OSM   H15C16457   5.678   4.956   2.546  0.7116 -3.7008 -1.0849
  149OSM    C1416458   6.010   5.005   2.528 -0.7761  0.2323 -0.6222
  149OSM   H14A16459   6.009   5.109   2.555  1.8529 -0.1915  1.5469
  149OSM   H14B16460   6.027   4.997   2.422  0.1684 -2.3648 -0.3458
  149OSM   H14C16461   6.101   4.969   2.574 -1.5819  1.6126  2.2829
  149OSM    C1316462   5.872   4.920   2.716 -0.1625  0.1811  0.1056
  149OSM   H13A16463   5.839   5.017   2.749 -0.7086  0.3144 -0.7901
  149OSM   H13B16464   5.972   4.917   2.757 -0.8100 -3.6288  1.7365
  149OSM   H13C16465   5.815   4.834   2.747 -2.3843  0.5569 -2.5701
  149OSM    C1216466   5.912   4.781   2.504  0.4621  0.3707 -0.3482
  149OSM   H12A16467   6.013   4.749   2.524 -0.1607 -0.8010  1.0964
  149OSM   H12B16468   5.877   4.765   2.403 -0.1134  0.5070 -0.1736
  149OSM    C1116469   5.828   4.673   2.570  0.4228  0.2771  0.1534
  149OSM   H11A16470   5.824   4.584   2.504  1.3713  1.5188 -1.6577
  149OSM   H11B16471   5.724   4.710   2.581  0.6638  0.2146  4.3637
  149OSM      P16472   5.891   4.510   2.774  0.2877  0.3145  0.1564
  149OSM    O1316473   5.773   4.420   2.746  0.1675 -0.3552  0.1610
  149OSM    O1416474   6.030   4.462   2.754 -0.4194 -0.0928 -0.8305
  149OSM    O1116475   5.872   4.553   2.923 -0.1837 -0.6980  0.2526
  149OSM    O1216476   5.866   4.649   2.705 -0.2951  0.0767  0.0980
  149OSM    C1S16477   5.745   4.623   2.951  0.2235  0.1948  0.1722
  149OSM    H1S16478   5.654   4.566   2.924  0.2271 -0.0415  0.6380
  149OSM    H1T16479   5.742   4.720   2.898  2.3365  0.0972 -0.2515
  149OSM     NF16480   5.609   4.696   3.153  0.3026  0.3700 -0.6225
  149OSM    HNF16481   5.597   4.783   3.200 -1.4279  0.2531 -0.7867
  149OSM    C2S16482   5.732   4.647   3.097 -0.1720  0.0455 -0.0491
  149OSM    H2S16483   5.750   4.543   3.131  2.8757  0.2514 -0.7158
  149OSM    C3S16484   5.854   4.728   3.146 -0.3180  0.1308 -0.6815
  149OSM    H3S16485   5.842   4.835   3.115 -1.4587  0.6195  1.2669
  149OSM     O316486   5.985   4.700   3.097  0.3927  0.4473  0.0377
  149OSM    HO316487   5.976   4.642   3.022  2.6174  0.8790 -0.6345
  149OSM    C4S16488   5.860   4.720   3.301 -0.6629  0.4105 -0.5512
  149OSM    H4S16489   5.851   4.814   3.357  0.0880  0.0133  0.2697
  149OSM    C5S16490   5.888   4.601   3.371  0.1621 -0.7865 -0.2894
  149OSM    H5S16491   5.913   4.515   3.306  1.6526 -1.7697  1.4773
  149OSM    C6S16492   5.901   4.584   3.518 -0.0888 -0.5345 -0.4216
  149OSM    H6S16493   5.996   4.617   3.566 -0.3853 -1.1789  0.6316
  149OSM    H6T16494   5.892   4.475   3.535 -2.3220 -0.8062 -2.7389
  149OSM    C7S16495   5.779   4.641   3.591  0.2010 -0.3526  0.1333
  149OSM    H7S16496   5.691   4.579   3.562  1.1090 -0.4654 -2.6722
  149OSM    H7T16497   5.759   4.739   3.544 -0.5325 -1.3846 -1.8160
  149OSM    C8S16498   5.824   4.646   3.736  0.4572 -0.0324  0.7185
  149OSM    H8S16499   5.914   4.711   3.737 -1.0236  2.1413  0.8529
  149OSM    H8T16500   5.860   4.544   3.758 -1.2550 -1.8204 -3.6870
  149OSM    C9S16501   5.718   4.696   3.828  0.0832 -0.3786  0.0727
  149OSM    H9S16502   5.632   4.627   3.814  1.0312 -1.5876  0.0446
  149OSM    H9T16503   5.687   4.797   3.793  0.1909  0.2279  1.6562
  149OSM   C10S16504   5.764   4.686   3.976  0.2632 -0.4093 -0.3533
  149OSM   H10S16505   5.865   4.730   3.988  0.2281 -0.6258  0.8560
  149OSM   H10T16506   5.784   4.577   3.984  1.0073 -0.3690 -1.4486
  149OSM   C11S16507   5.661   4.731   4.085 -0.7888 -0.4648  0.3121
  149OSM   H11S16508   5.579   4.656   4.079 -1.7255  0.6119 -1.1269
  149OSM   H11T16509   5.638   4.837   4.061  0.5165  0.3412  2.3723
  149OSM   C12S16510   5.711   4.711   4.228 -0.5982 -0.4858  0.0190
  149OSM   H12S16511   5.810   4.762   4.223 -1.5335  1.3322 -1.2114
  149OSM   H12T16512   5.725   4.601   4.241  0.7219 -0.0384  3.1464
  149OSM   C13S16513   5.623   4.752   4.347 -0.5484 -0.5992  0.0563
  149OSM   H13S16514   5.519   4.712   4.338 -0.6531 -0.6908  1.4066
  149OSM   H13T16515   5.626   4.863   4.348 -1.3392 -0.5675  1.0095
  149OSM   C14S16516   5.673   4.703   4.486 -0.1543  0.3214  0.1752
  149OSM   H14S16517   5.782   4.724   4.489 -0.0691 -0.1589  0.7857
  149OSM   H14T16518   5.666   4.592   4.494 -3.5161  0.2761 -1.5833
  149OSM   C15S16519   5.608   4.767   4.609  0.3485 -0.1141 -0.5020
  149OSM   H15S16520   5.500   4.744   4.615 -0.2035  2.4205  0.2585
  149OSM   H15T16521   5.620   4.877   4.618  0.9114 -0.3246  2.7944
  149OSM   C16S16522   5.679   4.711   4.737  0.0889 -0.2143  0.3741
  149OSM   H16S16523   5.787   4.709   4.712 -0.1414  1.1684 -0.8556
  149OSM   H16T16524   5.643   4.609   4.762  3.5324 -1.4475  0.8889
  149OSM   C17S16525   5.654   4.806   4.857  0.1989  0.6653  0.1725
  149OSM   H17S16526   5.548   4.834   4.876  0.2955  1.0817  0.1182
  149OSM   H17T16527   5.717   4.893   4.826  1.8821 -0.1139  1.3036
  149OSM   C18S16528   5.717   4.736   4.979 -0.3417  0.1452 -0.3515
  149OSM   H18S16529   5.659   4.646   5.010  1.0751 -0.8693 -0.5262
  149OSM   H18T16530   5.724   4.816   5.055  0.6161 -0.6541  0.4232
  149OSM   H18U16531   5.817   4.693   4.956 -0.5967 -2.0481  2.2515
  149OSM    C1F16532   5.504   4.619   3.158  0.8806 -0.0795  0.1549
  149OSM     OF16533   5.514   4.509   3.117 -0.9421 -0.1045  0.4083
  149OSM    C2F16534   5.376   4.671   3.227 -0.1173  0.5160 -0.2351
  149OSM    H2F16535   5.413   4.752   3.293 -0.5457  0.8589 -0.4134
  149OSM    H2G16536   5.346   4.578   3.280 -0.4779  0.8338  0.1164
  149OSM    C3F16537   5.263   4.712   3.129 -0.3188 -0.5386 -0.2571
  149OSM    H3F16538   5.173   4.709   3.194 -0.5920  2.6297 -0.3407
  149OSM    H3G16539   5.240   4.638   3.049 -0.5693 -1.5000  0.6731
  149OSM    C4F16540   5.281   4.850   3.065  0.3425 -0.3830 -0.3816
  149OSM    H4F16541   5.302   4.827   2.958 -0.6219 -2.7369 -0.1186
  149OSM    H4G16542   5.376   4.889   3.107  1.0768 -3.5203  1.1566
  149OSM    C5F16543   5.155   4.931   3.074  0.0137  0.0573  0.0930
  149OSM    H5F16544   5.075   4.873   3.023  1.0167 -0.1007 -1.4036
  149OSM    H5G16545   5.180   5.012   3.002  0.1805 -0.7842 -0.8237
  149OSM    C6F16546   5.113   4.980   3.205  0.6558 -0.2008  0.1855
  149OSM    H6F16547   5.206   5.018   3.252  1.5435 -1.1033 -0.7980
  149OSM    H6G16548   5.083   4.899   3.276 -0.3513  0.7557  0.8879
  149OSM    C7F16549   4.999   5.084   3.197 -0.1056 -0.0518 -0.5483
  149OSM    H7F16550   4.902   5.045   3.161  0.0786 -0.0190 -1.0879
  149OSM    H7G16551   5.044   5.166   3.137  1.7940 -0.7722 -0.1836
  149OSM    C8F16552   4.968   5.147   3.336 -0.5558  0.1059  0.7239
  149OSM    H8F16553   4.925   5.058   3.387  0.9862 -1.1363 -0.0452
  149OSM    H8G16554   4.889   5.225   3.337 -0.7070 -0.0419  0.5185
  149OSM    C9F16555   5.095   5.195   3.399  0.3798 -0.1903 -0.1030
  149OSM    H9F16556   5.173   5.235   3.332  2.1400 -2.0809  0.7459
  149OSM   C10F16557   5.122   5.184   3.529  0.4827 -0.3070  0.3661
  149OSM   H10F16558   5.216   5.228   3.566 -0.2608  2.6116 -0.9109
  149OSM   C11F16559   5.034   5.125   3.636  0.0542  0.4842 -0.0780
  149OSM   H11F16560   5.073   5.026   3.668 -0.8759  0.1148 -0.0465
  149OSM   H11G16561   4.935   5.101   3.591  0.3961 -0.4316 -0.3429
  149OSM   C12F16562   5.013   5.221   3.754 -1.3478 -0.2505 -0.9757
  149OSM   H12F16563   4.976   5.318   3.716 -0.5695  0.5659  0.2961
  149OSM   H12G16564   5.109   5.238   3.807 -2.5526  0.0347  1.2167
  149OSM   C13F16565   4.916   5.158   3.848 -0.2817  0.5806 -0.1331
  149OSM   H13F16566   4.929   5.047   3.847 -1.4363  0.4265 -0.0384
  149OSM   H13G16567   4.811   5.181   3.820  0.4624  2.5416 -1.5335
  149OSM   C14F16568   4.948   5.203   3.996 -0.6161 -0.1194 -0.3037
  149OSM   H14F16569   4.916   5.309   4.012  0.2980  0.1540 -0.2166
  149OSM   H14G16570   5.055   5.204   4.027 -0.7127  1.3514  0.1018
  149OSM   C15F16571   4.867   5.110   4.093  0.0529 -0.4678  0.4759
  149OSM   H15F16572   4.878   5.006   4.056 -1.4320 -1.1050  1.7052
  149OSM   H15G16573   4.757   5.122   4.082  0.2587  0.4760 -0.8499
  149OSM   C16F16574   4.913   5.109   4.239  1.0003 -0.2510 -0.3886
  149OSM   H16F16575   5.023   5.117   4.244  0.9269  0.8062 -0.1648
  149OSM   H16G16576   4.885   5.009   4.278  0.9471  0.2520  0.9167
  149OSM   C17F16577   4.847   5.213   4.325  0.4798 -0.9450  0.2129
  149OSM   H17F16578   4.740   5.238   4.309  0.7357 -0.4269 -0.7381
  149OSM   H17G16579   4.891   5.312   4.301  0.1624 -0.6899  0.6771
  149OSM   C18F16580   4.866   5.189   4.474 -0.8828 -1.0610 -0.5116
  149OSM   H18F16581   4.974   5.189   4.499 -1.3289 -0.2780  1.6950
  149OSM   H18G16582   4.822   5.096   4.515 -1.0743 -0.1666  1.4309
  149OSM   H18H16583   4.828   5.282   4.523 -1.0137 -0.3229 -1.9452
  150OSM      N16584   1.813   5.557   2.665 -0.1215  0.2324  0.2025
  150OSM    C1516585   1.671   5.567   2.637 -1.1349 -0.7355  0.2285
  150OSM   H15A16586   1.650   5.670   2.612  0.7685 -0.3300  0.1634
  150OSM   H15B16587   1.608   5.547   2.723 -0.1523 -0.1040  1.1226
  150OSM   H15C16588   1.630   5.502   2.561  1.0806  0.1296 -1.8378
  150OSM    C1416589   1.838   5.416   2.698 -0.5266  0.3689 -0.2401
  150OSM   H14A16590   1.944   5.403   2.720 -0.6100  1.5734  1.0007
  150OSM   H14B16591   1.806   5.349   2.620  0.2060 -0.8549  0.4767
  150OSM   H14C16592   1.783   5.400   2.790 -2.7453  2.7645 -1.0499
  150OSM    C1316593   1.880   5.590   2.537 -0.1522 -0.0972  0.2147
  150OSM   H13A16594   1.836   5.681   2.498 -1.2741 -0.3954  0.7351
  150OSM   H13B16595   1.859   5.513   2.465  0.7390  0.8206 -1.0799
  150OSM   H13C16596   1.987   5.598   2.543 -0.1786 -0.7133  2.1768
  150OSM    C1216597   1.848   5.652   2.776  0.0318  0.0823  0.2755
  150OSM   H12A16598   1.949   5.632   2.810 -0.0825 -1.4608 -0.1845
  150OSM   H12B16599   1.777   5.628   2.854 -1.1260  2.0829 -0.1037
  150OSM    C1116600   1.838   5.805   2.759  0.4582  0.5478  0.8441
  150OSM   H11A16601   1.903   5.834   2.673  2.4287  0.2077  2.1501
  150OSM   H11B16602   1.877   5.850   2.852 -0.2236 -0.2895  1.5482
  150OSM      P16603   1.586   5.866   2.826  0.1443  0.3404  0.0820
  150OSM    O1316604   1.502   5.980   2.783  0.1432  0.3254 -0.3185
  150OSM    O1416605   1.518   5.737   2.839 -0.3146 -0.4523 -0.1176
  150OSM    O1116606   1.657   5.908   2.965  0.2255 -0.0214  0.3963
  150OSM    O1216607   1.704   5.847   2.722 -0.2770  0.2298 -0.1774
  150OSM    C1S16608   1.608   5.846   3.084  0.2460 -0.1307  0.1757
  150OSM    H1S16609   1.630   5.737   3.084 -0.5383 -0.3446 -1.9597
  150OSM    H1T16610   1.497   5.848   3.092  0.3032  1.2384  0.8559
  150OSM     NF16611   1.619   5.850   3.332  0.3623  0.0042  0.1894
  150OSM    HNF16612   1.548   5.892   3.389  0.4404  0.1926  0.1478
  150OSM    C2S16613   1.661   5.917   3.211  0.0620 -0.4021  0.4683
  150OSM    H2S16614   1.771   5.899   3.207  0.1056 -0.8130  2.3247
  150OSM    C3S16615   1.635   6.073   3.218  0.2498 -0.2471  0.3688
  150OSM    H3S16616   1.529   6.095   3.244 -0.0344  1.1856 -1.7319
  150OSM     O316617   1.645   6.138   3.091 -0.0360 -0.3223  0.0127
  150OSM    HO316618   1.664   6.070   3.026  2.0454 -0.2874  0.5112
  150OSM    C4S16619   1.725   6.136   3.323  0.1069 -0.5771  0.3020
  150OSM    H4S16620   1.678   6.144   3.422  0.1392  1.8067  0.1765
  150OSM    C5S16621   1.848   6.186   3.305  0.6249  0.1184 -0.0229
  150OSM    H5S16622   1.905   6.174   3.211  1.4047  2.6771  0.0437
  150OSM    C6S16623   1.934   6.258   3.405 -0.2314 -0.1333  0.2906
  150OSM    H6S16624   1.969   6.352   3.358 -0.2188 -0.4750 -0.3930
  150OSM    H6T16625   2.028   6.206   3.436 -0.7010 -1.4028 -0.3160
  150OSM    C7S16626   1.861   6.319   3.531  0.1662  0.0311 -0.0654
  150OSM    H7S16627   1.816   6.233   3.585  1.4807 -1.4999 -1.2898
  150OSM    H7T16628   1.783   6.389   3.494  0.4039  0.5877  0.4641
  150OSM    C8S16629   1.966   6.383   3.627  0.2833  0.6877  0.2913
  150OSM    H8S16630   2.003   6.479   3.585 -1.9062  1.2462 -0.4635
  150OSM    H8T16631   2.044   6.304   3.631 -2.1664 -1.8620  0.9463
  150OSM    C9S16632   1.904   6.393   3.764 -0.4268  0.2326 -0.1842
  150OSM    H9S16633   1.872   6.291   3.794 -1.6793  0.5681 -0.3127
  150OSM    H9T16634   1.822   6.467   3.752  0.3632  1.4737  1.5664
  150OSM   C10S16635   2.015   6.451   3.861  0.5393  0.3169 -0.7456
  150OSM   H10S16636   2.024   6.555   3.823 -2.7103  0.0434 -2.6808
  150OSM   H10T16637   2.114   6.406   3.841  0.3400 -0.5782  0.2076
  150OSM   C11S16638   1.969   6.467   4.012  0.1270 -0.8346  0.0358
  150OSM   H11S16639   1.869   6.515   4.006  0.0458 -1.2031 -2.2545
  150OSM   H11T16640   2.038   6.530   4.073 -1.1228  1.1032 -0.4754
  150OSM   C12S16641   1.958   6.341   4.086 -0.6181  0.4327  0.8338
  150OSM   H12S16642   2.061   6.302   4.104 -0.2624  1.3500  0.8675
  150OSM   H12T16643   1.906   6.269   4.020 -2.6107  1.9890  0.6282
  150OSM   C13S16644   1.904   6.342   4.225  0.1400  0.1671  0.0463
  150OSM   H13S16645   1.904   6.233   4.248  2.7015  0.3832  1.4258
  150OSM   H13T16646   1.799   6.376   4.236 -0.3097 -1.6408  1.9231
  150OSM   C14S16647   2.005   6.413   4.325 -0.4916  0.5766 -0.3403
  150OSM   H14S16648   2.037   6.515   4.296  0.2284 -0.0091 -1.7212
  150OSM   H14T16649   2.101   6.360   4.312 -0.3565  1.2324 -2.5659
  150OSM   C15S16650   1.959   6.406   4.469  0.3436  0.3004  0.0958
  150OSM   H15S16651   1.915   6.307   4.497  0.2625  0.7942  1.8675
  150OSM   H15T16652   1.878   6.481   4.475  0.5316  0.4369  1.1390
  150OSM   C16S16653   2.071   6.437   4.567  0.0860 -0.6036 -0.4185
  150OSM   H16S16654   2.120   6.535   4.550 -1.6328  0.5214  0.7500
  150OSM   H16T16655   2.128   6.343   4.554 -0.5541 -1.0460 -0.1093
  150OSM   C17S16656   2.037   6.432   4.714  0.1112 -0.3202  0.2384
  150OSM   H17S16657   1.954   6.506   4.724 -0.2474 -0.7595  0.5390
  150OSM   H17T16658   2.129   6.467   4.765  0.0548  2.6677 -1.4510
  150OSM   C18S16659   1.993   6.302   4.769 -0.2833  0.0033 -0.5293
  150OSM   H18S16660   2.066   6.219   4.769  0.5296  0.7055 -0.1885
  150OSM   H18T16661   1.911   6.262   4.706 -0.7865 -1.0279  0.7155
  150OSM   H18U16662   1.962   6.313   4.876  0.2042  0.7400 -0.4564
  150OSM    C1F16663   1.636   5.726   3.368 -0.5379  0.9582 -0.0533
  150OSM     OF16664   1.731   5.659   3.321  0.3335  0.2512 -0.1600
  150OSM    C2F16665   1.549   5.667   3.474 -0.3528 -0.1041 -0.2192
  150OSM    H2F16666   1.458   5.616   3.436  0.8855 -2.7730  0.1175
  150OSM    H2G16667   1.513   5.748   3.541 -1.9525 -1.1414  0.2211
  150OSM    C3F16668   1.629   5.573   3.568 -0.6187  0.6655 -0.2293
  150OSM    H3F16669   1.722   5.623   3.601 -0.6692  0.9439 -0.5030
  150OSM    H3G16670   1.648   5.482   3.507 -3.3686  1.7165 -2.8551
  150OSM    C4F16671   1.538   5.523   3.683  0.2986 -0.0041  0.5193
  150OSM    H4F16672   1.451   5.471   3.639 -1.7580  2.8127  0.9897
  150OSM    H4G16673   1.493   5.616   3.725 -2.1496 -0.5185 -0.7863
  150OSM    C5F16674   1.603   5.424   3.781 -0.0697 -0.0705 -0.3278
  150OSM    H5F16675   1.711   5.440   3.803 -0.2978 -0.7426  1.4860
  150OSM    H5G16676   1.600   5.326   3.729 -2.7468  0.1307 -0.6834
  150OSM    C6F16677   1.539   5.413   3.919  1.3436 -0.4073 -0.5360
  150OSM    H6F16678   1.572   5.316   3.962  0.4580 -1.7612 -2.6910
  150OSM    H6G16679   1.428   5.409   3.912  1.1022  0.7498  1.8133
  150OSM    C7F16680   1.566   5.535   4.019 -0.0958  0.9156  0.0364
  150OSM    H7F16681   1.524   5.631   3.981 -0.9218  0.9929  1.1018
  150OSM    H7G16682   1.677   5.545   4.018  0.1171 -0.8420  1.5164
  150OSM    C8F16683   1.510   5.507   4.157  0.0923  0.1819  0.2257
  150OSM    H8F16684   1.403   5.477   4.144  0.4496 -0.4708 -1.4983
  150OSM    H8G16685   1.512   5.602   4.213  1.3165  1.2152 -1.4805
  150OSM    C9F16686   1.585   5.405   4.242 -0.4066  0.1738 -0.2077
  150OSM    H9F16687   1.642   5.330   4.186 -0.0541 -0.4115  0.9096
  150OSM   C10F16688   1.586   5.392   4.377 -0.0312 -0.1291  0.0064
  150OSM   H10F16689   1.654   5.324   4.430  2.0540  2.1092  0.3939
  150OSM   C11F16690   1.489   5.467   4.465  0.1135 -0.4484 -0.4596
  150OSM   H11F16691   1.412   5.529   4.415  1.5697  2.2584  0.4211
  150OSM   H11G16692   1.546   5.519   4.545  0.0755 -1.4232  0.2241
  150OSM   C12F16693   1.402   5.365   4.534 -0.5188  0.7799 -0.4256
  150OSM   H12F16694   1.368   5.290   4.460  0.6204 -0.5632  0.3790
  150OSM   H12G16695   1.310   5.416   4.571 -2.8651 -1.7641 -2.3680
  150OSM   C13F16696   1.467   5.307   4.661 -0.7116  0.1225 -0.2400
  150OSM   H13F16697   1.507   5.389   4.723  0.6559 -0.5839 -0.1483
  150OSM   H13G16698   1.549   5.247   4.615 -0.8649  0.4272 -0.9249
  150OSM   C14F16699   1.358   5.238   4.745 -0.4455  0.6014 -0.8196
  150OSM   H14F16700   1.316   5.152   4.689  1.8055  0.1779 -1.9595
  150OSM   H14G16701   1.280   5.316   4.761  0.8626  1.9068 -0.6305
  150OSM   C15F16702   1.404   5.195   4.885 -0.7537  0.7280 -0.7144
  150OSM   H15F16703   1.421   5.296   4.928 -0.7456 -0.2942  1.8994
  150OSM   H15G16704   1.497   5.133   4.887 -0.1258  1.6527  1.5054
  150OSM   C16F16705   1.298   5.137   4.968  0.0425  0.1019 -0.2989
  150OSM   H16F16706   1.263   5.038   4.934  1.4842 -0.9366  1.1218
  150OSM   H16G16707   1.212   5.204   4.949 -0.5526 -0.2410  1.0657
  150OSM   C17F16708   1.342   5.150   5.118 -0.3059 -0.4432 -1.0423
  150OSM   H17F16709   1.428   5.222   5.121 -0.9345  0.4104 -2.4452
  150OSM   H17G16710   1.387   5.053   5.148 -0.2641  0.4936  2.3138
  150OSM   C18F16711   1.236   5.192   5.220  0.2351 -0.2729  0.1933
  150OSM   H18F16712   1.281   5.204   5.320 -0.3345 -0.3990  0.4678
  150OSM   H18G16713   1.151   5.120   5.230 -0.6458  0.5317 -1.1017
  150OSM   H18H16714   1.185   5.287   5.193 -1.0215 -0.1476  2.7311
  151OSM      N16715   2.562   5.327   2.893  0.2619  0.4400  0.0212
  151OSM    C1516716   2.473   5.217   2.855  0.4724  0.4915  0.9244
  151OSM   H15A16717   2.415   5.240   2.766 -1.5362 -0.6318  1.8578
  151OSM   H15B16718   2.403   5.193   2.934 -1.4326  1.4203 -0.3810
  151OSM   H15C16719   2.533   5.131   2.830 -0.2014  0.1040  0.5885
  151OSM    C1416720   2.632   5.291   3.019 -0.0130  0.1651 -0.4144
  151OSM   H14A16721   2.716   5.354   3.043  0.8219 -0.5502 -1.3423
  151OSM   H14B16722   2.674   5.192   3.007 -3.3281 -1.4322 -0.0772
  151OSM   H14C16723   2.563   5.292   3.101 -0.6567 -2.1729 -0.8465
  151OSM    C1316724   2.656   5.347   2.776 -0.1528  0.4635 -0.1874
  151OSM   H13A16725   2.607   5.394   2.693 -2.5447  1.2216  1.5565
  151OSM   H13B16726   2.688   5.249   2.742  0.6427  1.0786 -1.2651
  151OSM   H13C16727   2.748   5.393   2.809 -1.6862  2.2304  1.8655
  151OSM    C1216728   2.496   5.464   2.924 -0.0262  0.3163 -0.3347
  151OSM   H12A16729   2.453   5.505   2.833 -2.4518  0.8240  0.9580
  151OSM   H12B16730   2.566   5.544   2.946  3.2058 -2.0712 -1.2102
  151OSM    C1116731   2.371   5.475   3.016  0.3478  0.1840 -0.0186
  151OSM   H11A16732   2.335   5.580   3.015  0.9707  0.4135  1.1530
  151OSM   H11B16733   2.410   5.452   3.117  1.0387 -1.9082 -0.6990
  151OSM      P16734   2.177   5.417   2.853  0.1194  0.3649 -0.1362
  151OSM    O1316735   2.257   5.506   2.759  0.7678 -0.3799 -0.6201
  151OSM    O1416736   2.116   5.288   2.807 -0.3608 -0.3911 -0.6591
  151OSM    O1116737   2.063   5.511   2.912 -0.5094  0.2712  0.5377
  151OSM    O1216738   2.265   5.387   2.981  0.0052  0.1729 -1.0207
  151OSM    C1S16739   1.980   5.475   3.018  0.0856 -0.5202 -0.3078
  151OSM    H1S16740   1.979   5.366   3.035  2.1346 -0.3853  1.0211
  151OSM    H1T16741   1.878   5.503   2.983  0.8876  0.9081 -1.6501
  151OSM     NF16742   1.932   5.476   3.264  0.0660  0.7391  0.2492
  151OSM    HNF16743   1.851   5.528   3.286  1.1545  3.1879 -1.1581
  151OSM    C2S16744   2.016   5.536   3.160 -0.3829 -0.3067 -0.2006
  151OSM    H2S16745   2.125   5.520   3.177 -0.2637  0.8709  0.2094
  151OSM    C3S16746   2.013   5.697   3.157 -0.5002 -0.4647 -0.0217
  151OSM    H3S16747   1.906   5.720   3.140 -0.5218 -1.6153 -1.6128
  151OSM     O316748   2.085   5.757   3.052 -0.0887 -0.2379  0.3831
  151OSM    HO316749   2.121   5.690   2.993  0.5519  1.2443 -0.9764
  151OSM    C4S16750   2.039   5.760   3.292  0.0759 -0.3857 -0.3344
  151OSM    H4S16751   1.953   5.793   3.352  2.1633  1.5562  1.8057
  151OSM    C5S16752   2.153   5.813   3.338 -0.2563  0.0744 -0.1256
  151OSM    H5S16753   2.250   5.814   3.287  0.7554  0.4241  1.7208
  151OSM    C6S16754   2.153   5.885   3.477 -0.3093  0.4653  0.6745
  151OSM    H6S16755   2.197   5.986   3.475  0.4739  0.1674  1.9062
  151OSM    H6T16756   2.224   5.835   3.547  2.3121  2.2773 -0.5583
  151OSM    C7S16757   2.018   5.908   3.549  0.1353  0.1743 -0.0808
  151OSM    H7S16758   1.959   5.818   3.577  2.7472 -1.2105  1.2477
  151OSM    H7T16759   1.953   5.952   3.470 -1.3965 -0.0496  1.0146
  151OSM    C8S16760   2.017   5.992   3.680 -0.3501  0.6083  0.1653
  151OSM    H8S16761   1.920   6.039   3.708 -1.1345 -1.0423  0.3656
  151OSM    H8T16762   2.096   6.068   3.662 -1.5639  2.0885  0.7942
  151OSM    C9S16763   2.059   5.904   3.801 -0.5878  0.4072 -0.8554
  151OSM    H9S16764   2.157   5.855   3.779 -0.9665 -1.1619  0.7902
  151OSM    H9T16765   1.977   5.833   3.822  0.5893 -0.4224  1.1454
  151OSM   C10S16766   2.077   5.992   3.929 -0.1171 -0.7957  0.2657
  151OSM   H10S16767   2.001   6.073   3.929  2.0063  1.3863 -2.2013
  151OSM   H10T16768   2.175   6.045   3.931  0.2745 -1.4722  2.4856
  151OSM   C11S16769   2.068   5.913   4.062  1.0112 -0.1659 -0.2646
  151OSM   H11S16770   2.146   5.834   4.058  0.0373 -1.1227 -0.7891
  151OSM   H11T16771   1.972   5.858   4.067  0.5777  0.6868  2.3192
  151OSM   C12S16772   2.074   5.994   4.187 -0.4215 -0.2203  0.2232
  151OSM   H12S16773   1.978   6.050   4.183 -1.1021 -0.8329  3.7756
  151OSM   H12T16774   2.159   6.064   4.173 -0.5962 -0.0024  0.2465
  151OSM   C13S16775   2.078   5.914   4.315  0.8411 -0.4884  0.1311
  151OSM   H13S16776   2.166   5.847   4.303  0.7856 -0.9738  2.0957
  151OSM   H13T16777   1.990   5.847   4.323 -0.5765  1.3359  0.2976
  151OSM   C14S16778   2.092   5.990   4.446  0.6075 -0.2934  0.6749
  151OSM   H14S16779   1.995   6.034   4.475  0.3450 -0.3634 -0.0773
  151OSM   H14T16780   2.164   6.074   4.436  0.1234 -0.0593 -1.3077
  151OSM   C15S16781   2.140   5.900   4.558  0.3251  0.0983  0.1872
  151OSM   H15S16782   2.242   5.883   4.517  0.7702  1.8811  0.4512
  151OSM   H15T16783   2.094   5.799   4.554  2.2723 -0.8537  0.6341
  151OSM   C16S16784   2.131   5.970   4.692  0.1764 -0.1246 -0.7354
  151OSM   H16S16785   2.025   6.002   4.701  0.3573  0.4572 -0.6406
  151OSM   H16T16786   2.205   6.053   4.695  2.7940 -2.3252 -0.6158
  151OSM   C17S16787   2.163   5.878   4.809  0.4925  1.2751  0.1081
  151OSM   H17S16788   2.076   5.809   4.817  0.6727  1.2098  1.9135
  151OSM   H17T16789   2.157   5.943   4.899 -1.2721  2.5812 -0.8665
  151OSM   C18S16790   2.287   5.798   4.795  0.2457 -0.1432  0.1084
  151OSM   H18S16791   2.368   5.872   4.776 -1.2818  1.4014 -0.6118
  151OSM   H18T16792   2.290   5.726   4.710 -0.7627  0.8795 -0.8204
  151OSM   H18U16793   2.307   5.747   4.892 -0.2834  0.3438  0.4761
  151OSM    C1F16794   1.947   5.344   3.278  0.0640 -0.8114 -0.5478
  151OSM     OF16795   2.056   5.294   3.268 -0.3483 -0.1709  0.1671
  151OSM    C2F16796   1.831   5.253   3.301 -0.1084  0.9148  0.2122
  151OSM    H2F16797   1.808   5.204   3.204  0.8159  1.7307 -0.4267
  151OSM    H2G16798   1.742   5.299   3.349 -1.2360 -2.1448  1.3717
  151OSM    C3F16799   1.869   5.130   3.402  0.5432  0.7849 -0.5503
  151OSM    H3F16800   1.907   5.168   3.499  0.0645  1.1472 -0.4979
  151OSM    H3G16801   1.962   5.081   3.366  0.8559  0.8871  0.0937
  151OSM    C4F16802   1.746   5.040   3.427 -0.0854 -0.4092 -0.2737
  151OSM    H4F16803   1.711   5.018   3.323  1.3779  1.2678 -1.1651
  151OSM    H4G16804   1.659   5.085   3.479  2.4898  0.9459  3.2586
  151OSM    C5F16805   1.786   4.924   3.513  0.0192  0.1852  0.0291
  151OSM    H5F16806   1.861   4.856   3.469 -1.7733 -2.0818  0.2991
  151OSM    H5G16807   1.703   4.851   3.520 -0.2378  0.0599 -3.0418
  151OSM    C6F16808   1.835   4.968   3.650  0.4804 -0.4025 -0.4360
  151OSM    H6F16809   1.797   5.072   3.663 -0.4005 -0.7217 -0.3790
  151OSM    H6G16810   1.945   4.981   3.651  0.4945 -0.5028  0.6719
  151OSM    C7F16811   1.779   4.888   3.765  0.1156 -0.3879 -0.2291
  151OSM    H7F16812   1.814   4.784   3.746 -0.1185 -0.3993 -0.6220
  151OSM    H7G16813   1.668   4.889   3.764  0.0216  0.9971  2.4780
  151OSM    C8F16814   1.816   4.942   3.908  0.3001  0.5736 -0.1515
  151OSM    H8F16815   1.922   4.974   3.898 -0.3105  2.1193 -2.1387
  151OSM    H8G16816   1.815   4.859   3.983  0.0414  0.7063 -0.0074
  151OSM    C9F16817   1.715   5.051   3.948 -0.2773  0.9310 -0.4985
  151OSM    H9F16818   1.713   5.150   3.900 -1.9970  1.2028  0.0877
  151OSM   C10F16819   1.651   5.046   4.059  0.5044 -0.7908 -0.7915
  151OSM   H10F16820   1.569   5.117   4.076  1.2742 -0.5727  2.7004
  151OSM   C11F16821   1.649   4.947   4.173  0.0535 -0.2532 -0.4846
  151OSM   H11F16822   1.736   4.879   4.182 -0.4520 -0.9110 -0.4518
  151OSM   H11G16823   1.563   4.876   4.164 -0.3390  0.0107  0.9763
  151OSM   C12F16824   1.635   4.993   4.324 -0.2266  0.8027 -0.0341
  151OSM   H12F16825   1.529   5.020   4.340 -0.3847  1.3442 -1.7950
  151OSM   H12G16826   1.687   5.090   4.341 -0.2494  0.5015  2.1115
  151OSM   C13F16827   1.689   4.888   4.420  0.2353  0.5976 -0.5692
  151OSM   H13F16828   1.798   4.868   4.413  0.1105 -0.1007 -0.5743
  151OSM   H13G16829   1.647   4.788   4.396 -0.4799  0.3833  1.3522
  151OSM   C14F16830   1.645   4.917   4.567 -0.0630  0.5566  0.0257
  151OSM   H14F16831   1.535   4.906   4.564  0.0976 -1.4372 -0.0189
  151OSM   H14G16832   1.685   5.019   4.583  0.3500  0.6569 -1.4905
  151OSM   C15F16833   1.718   4.813   4.663 -0.4787 -0.5326 -0.2252
  151OSM   H15F16834   1.828   4.810   4.648 -0.5916  0.1092 -1.2738
  151OSM   H15G16835   1.676   4.711   4.649  0.8005 -0.7796 -2.7696
  151OSM   C16F16836   1.698   4.846   4.808  0.9220  0.1047  0.3655
  151OSM   H16F16837   1.703   4.749   4.862  1.2794 -0.5395 -0.7965
  151OSM   H16G16838   1.594   4.881   4.822  0.4188 -0.8743 -0.7876
  151OSM   C17F16839   1.802   4.935   4.880  0.1715 -0.0475  0.6428
  151OSM   H17F16840   1.801   5.030   4.823 -1.9041 -0.3423  0.1258
  151OSM   H17G16841   1.901   4.884   4.869 -1.4880 -3.3939 -0.0639
  151OSM   C18F16842   1.783   4.960   5.034 -0.1887  0.0631  0.2909
  151OSM   H18F16843   1.682   5.002   5.053 -0.4270  0.0928 -0.9039
  151OSM   H18G16844   1.858   5.030   5.076  0.3211 -0.9525  1.1328
  151OSM   H18H16845   1.798   4.866   5.090 -0.8459  0.1242  0.5746
  152OSM      N16846   3.126   0.174   2.606  0.0065  0.2806  0.0023
  152OSM    C1516847   3.085   0.222   2.466 -0.3550 -0.1698  0.2232
  152OSM   H15A16848   3.065   0.136   2.404 -1.4461 -0.0364  0.3835
  152OSM   H15B16849   3.172   0.273   2.427  0.6837 -1.4050  0.8418
  152OSM   H15C16850   3.007   0.295   2.477  0.3028  0.2490  2.7383
  152OSM    C1416851   3.171   0.295   2.686 -0.2887 -0.9745  0.6327
  152OSM   H14A16852   3.196   0.277   2.790  0.9542  0.9621  0.7223
  152OSM   H14B16853   3.088   0.363   2.697 -0.6845 -1.1876 -0.8375
  152OSM   H14C16854   3.256   0.346   2.641 -3.2289  1.9493 -2.1537
  152OSM    C1316855   3.007   0.107   2.657 -0.8426  0.1328  0.2548
  152OSM   H13A16856   2.917   0.167   2.649 -1.9566 -1.3383  1.2030
  152OSM   H13B16857   3.021   0.082   2.761 -0.6417 -0.9937 -0.0359
  152OSM   H13C16858   2.978   0.030   2.587  0.6188 -0.0842 -0.1390
  152OSM    C1216859   3.239   0.072   2.590  0.5261 -0.5905  0.1445
  152OSM   H12A16860   3.327   0.131   2.567 -1.0923  1.5961 -0.7502
  152OSM   H12B16861   3.216   0.010   2.505 -1.4957  0.1280  0.1299
  152OSM    C1116862   3.270  -0.022   2.715 -0.1568 -0.9233 -1.0311
  152OSM   H11A16863   3.270   0.043   2.805 -1.8380 -2.9457  0.5466
  152OSM   H11B16864   3.373  -0.061   2.711  0.3868  0.1814  0.8520
  152OSM      P16865   3.194  -0.269   2.690  0.0763  0.1343 -0.1958
  152OSM    O1316866   3.091  -0.324   2.600  0.3516 -0.6976  0.2525
  152OSM    O1416867   3.330  -0.292   2.645 -0.0581  0.0448  0.4991
  152OSM    O1116868   3.176  -0.352   2.827 -0.0502 -0.2055  0.0955
  152OSM    O1216869   3.172  -0.116   2.733 -0.2073  0.6758 -0.1219
  152OSM    C1S16870   3.230  -0.302   2.951 -0.3546  0.0636 -0.0394
  152OSM    H1S16871   3.241  -0.191   2.953 -2.2401  0.3265 -1.5799
  152OSM    H1T16872   3.328  -0.348   2.977 -0.6294  0.5300  2.0168
  152OSM     NF16873   3.179  -0.269   3.186  0.5053 -0.7649 -0.1113
  152OSM    HNF16874   3.213  -0.317   3.266  1.4075  0.0303 -0.0052
  152OSM    C2S16875   3.137  -0.343   3.065 -0.1095 -0.1409  0.0868
  152OSM    H2S16876   3.034  -0.311   3.036  0.1905  0.5960 -0.1846
  152OSM    C3S16877   3.136  -0.496   3.073 -0.2833  0.8781  0.1907
  152OSM    H3S16878   3.238  -0.527   3.103 -0.3928  0.7424  0.4277
  152OSM     O316879   3.106  -0.561   2.946  0.3897 -0.5368 -0.0112
  152OSM    HO316880   3.122  -0.486   2.889 -1.1392  1.0316  1.4980
  152OSM    C4S16881   3.052  -0.545   3.189 -0.1636  0.1400 -0.8661
  152OSM    H4S16882   3.108  -0.537   3.283  0.8040  1.4899 -1.5398
  152OSM    C5S16883   2.917  -0.564   3.188 -0.4845  0.5714 -0.0569
  152OSM    H5S16884   2.862  -0.565   3.092  1.2681 -1.6542 -1.1538
  152OSM    C6S16885   2.842  -0.572   3.316  0.0977  0.3484 -0.2968
  152OSM    H6S16886   2.768  -0.655   3.311  0.6282 -0.1056 -0.5969
  152OSM    H6T16887   2.780  -0.480   3.318 -0.9016 -0.2925 -0.7993
  152OSM    C7S16888   2.925  -0.578   3.445 -0.2063  0.0758  0.0668
  152OSM    H7S16889   2.988  -0.486   3.450 -0.7142  0.3861  0.9548
  152OSM    H7T16890   2.997  -0.663   3.450  1.0295  1.1599  2.3532
  152OSM    C8S16891   2.826  -0.575   3.561 -0.3434 -0.2700  0.7124
  152OSM    H8S16892   2.755  -0.659   3.544 -1.0743  0.3553  0.5994
  152OSM    H8T16893   2.771  -0.478   3.569 -0.8716 -0.3806 -1.0963
  152OSM    C9S16894   2.903  -0.609   3.689 -0.0679  0.3081 -0.0876
  152OSM    H9S16895   2.993  -0.546   3.705  0.0975 -0.3190  1.7442
  152OSM    H9T16896   2.942  -0.712   3.672  0.3189  0.4429 -0.0403
  152OSM   C10S16897   2.826  -0.631   3.815 -0.0969  0.0146 -0.1403
  152OSM   H10S16898   2.762  -0.721   3.810  0.8484 -0.6946  0.2238
  152OSM   H10T16899   2.750  -0.551   3.829 -0.0353  0.2425 -1.0634
  152OSM   C11S16900   2.927  -0.640   3.929  0.5157  1.0102  0.1055
  152OSM   H11S16901   3.013  -0.570   3.917  0.6976  0.7929  0.1443
  152OSM   H11T16902   2.959  -0.746   3.921 -0.6304  0.5667  1.0305
  152OSM   C12S16903   2.870  -0.625   4.069 -0.1311  0.1292  0.0685
  152OSM   H12S16904   2.770  -0.674   4.062 -0.9760  1.7438  0.4465
  152OSM   H12T16905   2.855  -0.516   4.083 -0.8547 -0.0249  0.5154
  152OSM   C13S16906   2.954  -0.696   4.181 -0.3920 -0.3367  0.1055
  152OSM   H13S16907   3.060  -0.661   4.185 -0.5604  0.1397  0.5685
  152OSM   H13T16908   2.940  -0.803   4.158  0.0761 -0.1911 -0.9336
  152OSM   C14S16909   2.893  -0.652   4.321  0.0733  0.6926  0.7626
  152OSM   H14S16910   2.793  -0.700   4.318 -1.5991  3.9348  0.0966
  152OSM   H14T16911   2.894  -0.541   4.326  1.0371  0.7699 -0.4713
  152OSM   C15S16912   2.981  -0.711   4.435  0.4921  0.8009 -0.3752
  152OSM   H15S16913   3.079  -0.658   4.431  0.9993 -0.1017 -0.0890
  152OSM   H15T16914   2.989  -0.818   4.409  1.6810  1.3337 -2.4464
  152OSM   C16S16915   2.925  -0.694   4.578  0.7874 -0.3843  0.0121
  152OSM   H16S16916   2.827  -0.744   4.593  0.1132  1.4279  1.9267
  152OSM   H16T16917   2.898  -0.588   4.591 -1.4919 -1.0242  1.0228
  152OSM   C17S16918   3.022  -0.740   4.683  0.0622  0.0805  0.0264
  152OSM   H17S16919   3.103  -0.663   4.682  0.3473 -0.1926  1.0825
  152OSM   H17T16920   3.068  -0.834   4.645 -2.1405 -0.9848 -0.1266
  152OSM   C18S16921   2.950  -0.758   4.814  0.8109 -0.4828  0.3950
  152OSM   H18S16922   2.913  -0.659   4.850 -0.2592 -1.1779  1.2634
  152OSM   H18T16923   3.001  -0.807   4.899 -0.6044 -0.7274  1.1283
  152OSM   H18U16924   2.865  -0.825   4.790  0.0415  0.5105  0.2872
  152OSM    C1F16925   3.174  -0.131   3.198  0.2463  0.3454 -0.6173
  152OSM     OF16926   3.118  -0.055   3.121 -0.0835  0.1835 -0.2210
  152OSM    C2F16927   3.250  -0.082   3.315  0.6388  0.9776 -0.6293
  152OSM    H2F16928   3.217  -0.156   3.391  0.8688  1.4339 -0.0829
  152OSM    H2G16929   3.218   0.023   3.331 -0.4139  1.3443 -4.1897
  152OSM    C3F16930   3.396  -0.090   3.288 -0.5918 -0.3678  0.6770
  152OSM    H3F16931   3.422  -0.033   3.197 -4.3515 -1.7715 -1.5372
  152OSM    H3G16932   3.430  -0.194   3.273 -0.2682  0.0462 -1.8243
  152OSM    C4F16933   3.487  -0.039   3.399 -0.1920  0.0499 -0.2448
  152OSM    H4F16934   3.465   0.068   3.416  0.3555 -0.3943  5.2337
  152OSM    H4G16935   3.593  -0.052   3.366 -0.4112  0.5565 -1.1684
  152OSM    C5F16936   3.473  -0.105   3.536 -0.4618 -0.2646 -0.1701
  152OSM    H5F16937   3.493  -0.214   3.532 -3.6898 -0.9106 -0.9426
  152OSM    H5G16938   3.369  -0.109   3.575  0.0905 -0.6663  1.3734
  152OSM    C6F16939   3.558  -0.041   3.643 -0.1955  0.3082  0.1037
  152OSM    H6F16940   3.547   0.069   3.653 -1.1838  0.2792 -0.5366
  152OSM    H6G16941   3.664  -0.062   3.617 -1.1415 -2.8689 -1.7917
  152OSM    C7F16942   3.523  -0.097   3.782 -0.0580 -0.2918  0.0230
  152OSM    H7F16943   3.521  -0.207   3.762  0.2053 -0.1646 -0.7123
  152OSM    H7G16944   3.417  -0.072   3.802 -0.4429 -1.9322  0.1814
  152OSM    C8F16945   3.616  -0.065   3.899  1.1489 -0.0555 -0.5376
  152OSM    H8F16946   3.719  -0.091   3.864  1.3622 -0.3151  0.2609
  152OSM    H8G16947   3.586  -0.136   3.979 -0.1296  0.5215 -0.4909
  152OSM    C9F16948   3.618   0.078   3.959  1.6726 -0.4367 -0.2287
  152OSM    H9F16949   3.677   0.151   3.901  0.8419  2.1405  1.9287
  152OSM   C10F16950   3.548   0.122   4.064  0.1431 -0.6926 -0.1773
  152OSM   H10F16951   3.566   0.223   4.104 -0.6894 -0.7529  0.3844
  152OSM   C11F16952   3.462   0.031   4.149  0.2575  0.0718  0.4831
  152OSM   H11F16953   3.466  -0.079   4.132  1.9298  0.1263  0.3263
  152OSM   H11G16954   3.357   0.060   4.126 -0.5586 -0.6827  3.0128
  152OSM   C12F16955   3.494   0.062   4.296 -0.3240  0.2403 -0.0105
  152OSM   H12F16956   3.410   0.035   4.364 -0.3919  1.0500  0.2451
  152OSM   H12G16957   3.517   0.169   4.315  0.8868 -0.5413  3.9589
  152OSM   C13F16958   3.609  -0.031   4.348 -0.1267 -0.6101  0.3979
  152OSM   H13F16959   3.703  -0.014   4.290  0.5295 -1.7327  1.0901
  152OSM   H13G16960   3.583  -0.138   4.335 -0.1529 -0.4782 -0.7500
  152OSM   C14F16961   3.650   0.011   4.494  0.7037  0.6423  0.3969
  152OSM   H14F16962   3.577  -0.019   4.572  1.1321 -2.7864 -0.3516
  152OSM   H14G16963   3.669   0.120   4.501  3.7888  0.2421 -0.1747
  152OSM   C15F16964   3.772  -0.061   4.545  1.1562  0.5953 -0.6213
  152OSM   H15F16965   3.860  -0.041   4.480  1.5321  0.4047 -0.1823
  152OSM   H15G16966   3.738  -0.167   4.549 -2.4572  1.6754  0.4277
  152OSM   C16F16967   3.823  -0.005   4.683  0.1937 -0.3471  0.4878
  152OSM   H16F16968   3.809   0.104   4.668 -3.0390 -1.0682 -3.5287
  152OSM   H16G16969   3.932  -0.022   4.691  0.0801 -2.2797 -1.3799
  152OSM   C17F16970   3.748  -0.060   4.808 -0.1361  0.2353 -0.2851
  152OSM   H17F16971   3.718  -0.167   4.807 -1.8574  0.6782  0.4202
  152OSM   H17G16972   3.651  -0.012   4.785 -1.1030  0.9946  4.2771
  152OSM   C18F16973   3.803  -0.020   4.949 -0.0430  0.1871  0.8159
  152OSM   H18F16974   3.888  -0.084   4.979 -0.6049  0.6485  3.6110
  152OSM   H18G16975   3.734  -0.042   5.033  0.6588  0.9412  1.6123
  152OSM   H18H16976   3.843   0.083   4.939 -0.2385  0.2228  0.3282
  153OSM      N16977   1.797   0.491   2.613 -0.0341  0.1469  0.6934
  153OSM    C1516978   1.770   0.455   2.466  0.2609 -0.4312  0.0084
  153OSM   H15A16979   1.669   0.419   2.449 -0.5494  1.1344  1.1918
  153OSM   H15B16980   1.840   0.383   2.428  1.0251  0.4791 -0.3367
  153OSM   H15C16981   1.774   0.541   2.401  0.1212 -0.9860 -0.7538
  153OSM    C1416982   1.927   0.564   2.632 -0.7566  0.7467  0.0243
  153OSM   H14A16983   2.006   0.502   2.592  0.2552  1.5511  0.7225
  153OSM   H14B16984   1.934   0.591   2.736  0.1944  0.9883 -0.0923
  153OSM   H14C16985   1.931   0.657   2.577  0.7147  0.4458 -0.4273
  153OSM    C1316986   1.691   0.583   2.667  0.6924  0.4113 -0.0346
  153OSM   H13A16987   1.594   0.539   2.649  0.3538  1.3003 -0.4703
  153OSM   H13B16988   1.693   0.683   2.625 -0.1325 -0.4887 -2.3808
  153OSM   H13C16989   1.706   0.596   2.773  0.7710  0.0113  0.0023
  153OSM    C1216990   1.801   0.364   2.697  0.5712  0.2980 -0.3762
  153OSM   H12A16991   1.876   0.296   2.659  0.3658  0.5765 -1.3048
  153OSM   H12B16992   1.702   0.323   2.688 -0.5127  2.4886  0.7875
  153OSM    C1116993   1.824   0.392   2.854 -0.4643  0.0045  0.1206
  153OSM   H11A16994   1.768   0.479   2.895  1.4768 -0.0266  3.1292
  153OSM   H11B16995   1.928   0.425   2.871 -0.0705 -1.6979  1.3085
  153OSM      P16996   1.626   0.253   2.959 -0.2547 -0.2394 -0.0871
  153OSM    O1316997   1.543   0.314   2.849 -0.0688 -0.1666  0.0615
  153OSM    O1416998   1.598   0.113   3.007  0.3930  0.1984  0.5840
  153OSM    O1116999   1.604   0.339   3.092  0.2315  0.3605  0.2185
  153OSM    O1217000   1.786   0.277   2.928 -0.7772 -0.6684 -0.2869
  153OSM    C1S17001   1.698   0.360   3.195  0.4713  0.3723  0.2511
  153OSM    H1S17002   1.776   0.433   3.164 -1.4403  1.5237 -2.2754
  153OSM    H1T17003   1.749   0.266   3.225  0.4245  0.0747 -0.5708
  153OSM     NF17004   1.712   0.431   3.437  0.0766 -0.4959 -0.8087
  153OSM    HNF17005   1.676   0.376   3.512  0.3959  0.5666  0.1422
  153OSM    C2S17006   1.636   0.426   3.319  0.2439 -1.2724  0.2865
  153OSM    H2S17007   1.609   0.531   3.296 -2.9599 -1.8617  0.8658
  153OSM    C3S17008   1.496   0.366   3.350  0.1518  0.1320  0.4454
  153OSM    H3S17009   1.513   0.257   3.368 -0.3093 -0.3236 -1.6566
  153OSM     O317010   1.398   0.365   3.245  0.0601  0.1829 -0.1035
  153OSM    HO317011   1.451   0.364   3.165 -0.3825 -0.1064 -0.3941
  153OSM    C4S17012   1.425   0.427   3.473  0.3892 -0.4559 -0.6554
  153OSM    H4S17013   1.417   0.535   3.456 -0.0430 -0.4198 -0.2301
  153OSM    C5S17014   1.387   0.371   3.586  0.8329 -0.5477 -0.1145
  153OSM    H5S17015   1.414   0.265   3.601  0.7422 -0.3040  2.1468
  153OSM    C6S17016   1.321   0.449   3.697 -0.0374  0.3871 -0.2920
  153OSM    H6S17017   1.265   0.533   3.649  0.1438 -0.0651 -1.3161
  153OSM    H6T17018   1.401   0.489   3.764 -0.2209 -0.5094  0.4880
  153OSM    C7S17019   1.223   0.348   3.768  0.2149 -0.3094 -0.4209
  153OSM    H7S17020   1.277   0.257   3.803  1.1310  0.5749  0.5507
  153OSM    H7T17021   1.131   0.315   3.715 -1.2194  1.6542  0.6939
  153OSM    C8S17022   1.159   0.410   3.903 -0.1059  0.0396 -0.0878
  153OSM    H8S17023   1.050   0.413   3.884 -0.1344  2.5082  0.2379
  153OSM    H8T17024   1.183   0.518   3.913  0.4553 -0.2983  3.2189
  153OSM    C9S17025   1.189   0.337   4.032 -0.2590  0.5512  0.1018
  153OSM    H9S17026   1.298   0.319   4.042 -0.4519 -0.2284  0.9155
  153OSM    H9T17027   1.157   0.232   4.012  1.6631  0.0611 -0.6695
  153OSM   C10S17028   1.115   0.401   4.146 -0.5263 -0.6558  0.0885
  153OSM   H10S17029   1.006   0.403   4.123  0.0353  1.9414 -3.0997
  153OSM   H10T17030   1.141   0.508   4.156 -1.0594 -0.3863 -1.2851
  153OSM   C11S17031   1.142   0.327   4.274 -0.2940  0.1629 -0.3304
  153OSM   H11S17032   1.245   0.350   4.308 -1.1208  5.2038 -0.4846
  153OSM   H11T17033   1.126   0.220   4.248  1.7122 -0.2518 -0.0299
  153OSM   C12S17034   1.033   0.377   4.380 -0.9245  0.0266  0.3374
  153OSM   H12S17035   0.934   0.360   4.332 -0.9162 -1.1582  0.7068
  153OSM   H12T17036   1.038   0.488   4.374 -0.6226  0.0055  0.1889
  153OSM   C13S17037   1.048   0.326   4.522 -0.2387  0.3990 -0.3584
  153OSM   H13S17038   1.018   0.219   4.520 -0.3169  0.2770  2.4987
  153OSM   H13T17039   0.978   0.387   4.583 -0.3967  0.4784 -0.6214
  153OSM   C14S17040   1.188   0.344   4.595 -0.4935 -0.2356  0.2217
  153OSM   H14S17041   1.215   0.452   4.593 -1.2920 -0.0063  1.2109
  153OSM   H14T17042   1.265   0.289   4.536 -1.3660 -0.0321 -1.1428
  153OSM   C15S17043   1.201   0.278   4.737  0.4269  0.0902 -0.1860
  153OSM   H15S17044   1.163   0.173   4.731  1.7620 -0.4041 -0.3562
  153OSM   H15T17045   1.134   0.326   4.811 -1.2099 -1.2944 -0.6818
  153OSM   C16S17046   1.339   0.252   4.799 -0.0857 -0.4357  0.1668
  153OSM   H16S17047   1.388   0.349   4.823  0.9509 -0.4833 -1.5968
  153OSM   H16T17048   1.401   0.194   4.727 -0.5325 -0.3438 -0.2869
  153OSM   C17S17049   1.321   0.176   4.924 -0.4987  0.2281 -0.2687
  153OSM   H17S17050   1.263   0.083   4.908  0.3633 -0.6445  1.4331
  153OSM   H17T17051   1.256   0.243   4.985 -1.0468 -0.9312  0.4379
  153OSM   C18S17052   1.454   0.135   5.000 -0.0526 -0.1180  0.2887
  153OSM   H18S17053   1.426   0.073   5.088  0.6407 -0.5653  0.2110
  153OSM   H18T17054   1.499   0.229   5.037 -0.0419 -0.1837  0.4432
  153OSM   H18U17055   1.532   0.086   4.937  0.9279  1.0037  0.6003
  153OSM    C1F17056   1.816   0.509   3.455  0.2869  0.0062  0.1163
  153OSM     OF17057   1.828   0.601   3.374 -0.0139  0.1359  0.4168
  153OSM    C2F17058   1.901   0.488   3.574 -0.3223 -0.1733  0.3265
  153OSM    H2F17059   1.965   0.398   3.569 -0.7314 -0.3956 -2.4172
  153OSM    H2G17060   1.839   0.473   3.666  1.4052 -2.8588  1.1756
  153OSM    C3F17061   1.989   0.610   3.595 -0.2024  0.6895  0.0452
  153OSM    H3F17062   1.930   0.704   3.604 -0.2041  0.5542  1.6223
  153OSM    H3G17063   2.056   0.619   3.506 -0.5235  0.8636 -0.1816
  153OSM    C4F17064   2.054   0.584   3.731  0.6514  0.7110 -1.0338
  153OSM    H4F17065   2.070   0.474   3.737  2.4251  0.8729 -2.1514
  153OSM    H4G17066   1.987   0.612   3.815 -0.2901  1.2478 -1.9331
  153OSM    C5F17067   2.187   0.650   3.745 -0.2488 -0.3909  0.4174
  153OSM    H5F17068   2.177   0.760   3.727  0.9581 -0.7379 -3.2011
  153OSM    H5G17069   2.253   0.597   3.673 -0.8584  0.0834 -0.5112
  153OSM    C6F17070   2.247   0.625   3.888  0.0292  0.1585 -0.5171
  153OSM    H6F17071   2.243   0.515   3.903  1.7773  0.0619 -0.5883
  153OSM    H6G17072   2.175   0.661   3.965 -1.8502  1.0264 -2.5693
  153OSM    C7F17073   2.386   0.679   3.914  0.2117 -0.4135 -0.2379
  153OSM    H7F17074   2.376   0.788   3.935 -2.8303 -0.8756  1.2707
  153OSM    H7G17075   2.460   0.656   3.834 -1.5376 -1.5562 -1.6158
  153OSM    C8F17076   2.440   0.620   4.053  0.2858 -0.6283 -0.5453
  153OSM    H8F17077   2.384   0.659   4.141  1.0802 -1.3665  0.3089
  153OSM    H8G17078   2.539   0.668   4.061 -0.4544  0.8069  0.4453
  153OSM    C9F17079   2.443   0.467   4.055  0.0461  0.3950  0.3116
  153OSM    H9F17080   2.467   0.414   3.961 -2.5247 -3.1622  1.4478
  153OSM   C10F17081   2.421   0.388   4.164  0.4898  1.0920  0.3607
  153OSM   H10F17082   2.410   0.281   4.139  1.0779  0.1810  3.4516
  153OSM   C11F17083   2.380   0.433   4.298  0.2104  0.3933 -0.4950
  153OSM   H11F17084   2.281   0.392   4.326 -0.3501  0.6984 -1.9531
  153OSM   H11G17085   2.359   0.542   4.304  0.3675  0.3874  0.1502
  153OSM   C12F17086   2.492   0.394   4.399  0.3058 -0.2144 -0.1242
  153OSM   H12F17087   2.585   0.447   4.372  0.1203  0.1598 -0.0400
  153OSM   H12G17088   2.516   0.285   4.398  0.5878 -0.1539 -1.9869
  153OSM   C13F17089   2.459   0.431   4.552  0.3941 -0.3195  0.1261
  153OSM   H13F17090   2.348   0.422   4.548  0.4908 -1.3890 -3.2761
  153OSM   H13G17091   2.479   0.539   4.564 -1.6324  0.3889 -2.0395
  153OSM   C14F17092   2.536   0.350   4.659  0.3629  0.6238  0.1922
  153OSM   H14F17093   2.642   0.375   4.637  0.4881 -0.1486 -0.1057
  153OSM   H14G17094   2.509   0.245   4.635  1.7951  0.2769  0.0155
  153OSM   C15F17095   2.490   0.364   4.806  0.2503 -0.5893 -0.3710
  153OSM   H15F17096   2.382   0.339   4.811  0.4495 -1.2457  3.0811
  153OSM   H15G17097   2.505   0.469   4.838  0.4005 -1.0712  1.2168
  153OSM   C16F17098   2.555   0.281   4.915  0.3066  0.1715  0.1755
  153OSM   H16F17099   2.527   0.175   4.899 -2.3129  0.8317 -0.0891
  153OSM   H16G17100   2.508   0.310   5.012 -2.0906 -1.3951 -0.4406
  153OSM   C17F17101   2.705   0.290   4.915 -0.4127 -0.4937 -0.4767
  153OSM   H17F17102   2.738   0.396   4.907  2.2348 -1.2278 -0.3768
  153OSM   H17G17103   2.750   0.240   4.826 -0.3350  0.3481 -0.9246
  153OSM   C18F17104   2.770   0.222   5.038  0.3971  0.1287  0.5859
  153OSM   H18F17105   2.880   0.211   5.028  0.0930 -2.8399 -0.6682
  153OSM   H18G17106   2.728   0.119   5.042 -1.0673  0.6067 -0.9382
  153OSM   H18H17107   2.742   0.269   5.135 -0.7718  0.0854  0.2919
  154OSM      N17108   6.645   3.119   2.250  0.2294 -0.0953  0.3561
  154OSM    C1517109   6.528   3.052   2.312 -0.3524 -0.8313 -0.1497
  154OSM   H15A17110   6.433   3.090   2.277 -1.3395 -1.2370  1.9056
  154OSM   H15B17111   6.519   3.090   2.412 -1.7018  1.9849 -1.2248
  154OSM   H15C17112   6.521   2.944   2.314 -1.5807 -0.7619  0.9313
  154OSM    C1417113   6.679   3.081   2.111 -0.7937 -0.0836 -0.2271
  154OSM   H14A17114   6.710   2.979   2.096 -2.5309 -0.7523  0.4224
  154OSM   H14B17115   6.747   3.149   2.062  0.9108  0.1655  2.3037
  154OSM   H14C17116   6.586   3.097   2.058  0.0649  1.7968 -1.2474
  154OSM    C1317117   6.615   3.273   2.235 -0.1378  0.2824  0.3870
  154OSM   H13A17118   6.702   3.328   2.202  1.2401 -0.3748  2.6217
  154OSM   H13B17119   6.583   3.316   2.329 -1.1825 -0.7728  0.5465
  154OSM   H13C17120   6.534   3.275   2.164 -0.0514 -0.3948  0.2673
  154OSM    C1217121   6.766   3.112   2.339  0.1006 -0.3427  0.8682
  154OSM   H12A17122   6.839   3.175   2.291 -0.5390  1.8586  2.6345
  154OSM   H12B17123   6.808   3.012   2.334 -1.1164 -0.8162 -1.9062
  154OSM    C1117124   6.746   3.163   2.487 -1.0896 -0.1005 -0.6967
  154OSM   H11A17125   6.845   3.133   2.529  0.1835 -0.5594 -3.7264
  154OSM   H11B17126   6.679   3.107   2.555  0.1343 -0.6280  0.1139
  154OSM      P17127   6.825   3.392   2.558 -0.3406 -0.0110 -0.0056
  154OSM    O1317128   6.941   3.369   2.464  0.0055  0.8431  0.4593
  154OSM    O1417129   6.779   3.536   2.576  0.0853  0.0577  0.5231
  154OSM    O1117130   6.870   3.320   2.695 -0.0390  0.4678 -1.0292
  154OSM    O1217131   6.711   3.300   2.505 -0.6911 -0.3949  0.3164
  154OSM    C1S17132   6.794   3.334   2.815 -0.0026 -0.6990  0.1179
  154OSM    H1S17133   6.715   3.255   2.813 -1.3254  0.5834 -1.4566
  154OSM    H1T17134   6.752   3.437   2.822  3.3290  0.8679 -0.9772
  154OSM     NF17135   6.817   3.275   3.063 -0.4971  0.5492  0.4780
  154OSM    HNF17136   6.827   3.339   3.139 -0.6217  0.7254  0.3483
  154OSM    C2S17137   6.891   3.311   2.937  0.4739 -0.4458  0.4509
  154OSM    H2S17138   6.956   3.225   2.911 -0.0617  0.0222 -2.8483
  154OSM    C3S17139   6.985   3.435   2.949 -0.9835  0.1616 -1.0691
  154OSM    H3S17140   6.916   3.518   2.974 -0.8454  1.0073 -3.2620
  154OSM     O317141   7.042   3.485   2.828  0.4559 -0.0389  0.6515
  154OSM    HO317142   6.990   3.444   2.758 -1.1305  1.3149  0.9647
  154OSM    C4S17143   7.090   3.412   3.062  0.3692 -0.3371  0.7378
  154OSM    H4S17144   7.041   3.430   3.159  0.0049  0.3230  0.4397
  154OSM    C5S17145   7.217   3.377   3.048  0.3932  0.8572  0.0300
  154OSM    H5S17146   7.248   3.343   2.948  1.3009 -1.5547  1.0588
  154OSM    C6S17147   7.304   3.344   3.160 -0.6113 -0.1530  0.2586
  154OSM    H6S17148   7.381   3.424   3.160 -1.3796  0.5966 -0.1015
  154OSM    H6T17149   7.337   3.238   3.151 -1.4632 -0.3340 -0.9750
  154OSM    C7S17150   7.249   3.343   3.301 -0.2181 -0.0587 -0.4772
  154OSM    H7S17151   7.190   3.249   3.306  3.4454 -2.7698 -2.8216
  154OSM    H7T17152   7.196   3.439   3.321 -0.4630 -0.1470 -0.6891
  154OSM    C8S17153   7.355   3.340   3.412 -0.7332  0.3138  0.2854
  154OSM    H8S17154   7.435   3.413   3.386 -1.5037  1.6582  1.5515
  154OSM    H8T17155   7.401   3.239   3.412  0.8877  1.0133 -0.6770
  154OSM    C9S17156   7.304   3.369   3.557 -0.0630 -0.5188  0.3042
  154OSM    H9S17157   7.248   3.276   3.581  0.7859 -1.3511 -0.8265
  154OSM    H9T17158   7.233   3.453   3.543 -1.2842 -1.6897 -0.6930
  154OSM   C10S17159   7.413   3.393   3.658  0.7423 -0.3543 -0.1332
  154OSM   H10S17160   7.495   3.456   3.619 -0.2328 -0.4671 -2.4998
  154OSM   H10T17161   7.449   3.289   3.673 -2.0354 -1.6844 -1.8278
  154OSM   C11S17162   7.346   3.439   3.794 -0.4987  0.2645 -0.5675
  154OSM   H11S17163   7.266   3.367   3.820  0.7865 -0.9140  0.2390
  154OSM   H11T17164   7.291   3.535   3.782  2.2396  2.0794  0.2621
  154OSM   C12S17165   7.447   3.456   3.906  0.0742 -0.5743  0.7435
  154OSM   H12S17166   7.523   3.531   3.874  0.1231  0.4293  3.0537
  154OSM   H12T17167   7.504   3.361   3.909  1.1358 -0.0604 -1.4343
  154OSM   C13S17168   7.383   3.494   4.044 -0.7949 -0.4366  1.0187
  154OSM   H13S17169   7.290   3.438   4.070 -0.4945 -0.0411  3.1485
  154OSM   H13T17170   7.345   3.598   4.035 -1.1972 -0.5599  1.2380
  154OSM   C14S17171   7.468   3.451   4.165 -0.2070  0.5936 -0.5575
  154OSM   H14S17172   7.573   3.484   4.150 -0.4420  1.8345  0.3576
  154OSM   H14T17173   7.474   3.342   4.186 -2.0743  0.3363 -1.1338
  154OSM   C15S17174   7.433   3.507   4.300  0.6050  0.4047 -0.7632
  154OSM   H15S17175   7.325   3.490   4.322  0.4223  2.1662 -0.1217
  154OSM   H15T17176   7.442   3.618   4.305 -0.5342  0.5274 -1.1757
  154OSM   C16S17177   7.500   3.433   4.421 -0.2647  1.1492 -0.2082
  154OSM   H16S17178   7.610   3.449   4.421  0.4385 -2.5209  1.7016
  154OSM   H16T17179   7.481   3.324   4.410  2.2077  0.7508 -1.1559
  154OSM   C17S17180   7.444   3.483   4.550  1.2540 -0.4333 -0.1490
  154OSM   H17S17181   7.334   3.491   4.541  1.4561 -0.3074 -3.9704
  154OSM   H17T17182   7.478   3.587   4.567 -0.1976  0.3703 -1.8846
  154OSM   C18S17183   7.497   3.405   4.670  0.5996 -0.2970  0.2902
  154OSM   H18S17184   7.443   3.308   4.677 -3.2170  1.3626 -2.2429
  154OSM   H18T17185   7.473   3.464   4.761  0.7157  0.2206 -0.0049
  154OSM   H18U17186   7.606   3.387   4.665  0.5135 -0.6936 -0.2520
  154OSM    C1F17187   6.759   3.156   3.089  0.1494  0.2965 -0.3202
  154OSM     OF17188   6.775   3.066   3.011  0.3428  0.6007  0.0743
  154OSM    C2F17189   6.672   3.152   3.211 -0.2189  0.6376 -0.3771
  154OSM    H2F17190   6.594   3.073   3.202 -0.3808  0.1094  3.6998
  154OSM    H2G17191   6.613   3.245   3.224 -1.0886 -0.1621  2.0537
  154OSM    C3F17192   6.758   3.129   3.336  0.3074  0.4528  0.0491
  154OSM    H3F17193   6.833   3.210   3.345  1.1258 -0.4632  2.2688
  154OSM    H3G17194   6.825   3.041   3.333  1.3440  1.2157  0.3912
  154OSM    C4F17195   6.665   3.135   3.457  0.2671  0.4527 -0.1843
  154OSM    H4F17196   6.583   3.062   3.439 -1.9412  2.6262  0.6070
  154OSM    H4G17197   6.617   3.235   3.452 -1.3799 -0.3736 -2.2518
  154OSM    C5F17198   6.732   3.096   3.594 -0.9106  0.4314  0.0811
  154OSM    H5F17199   6.815   3.169   3.611 -2.1100  1.9356 -0.2540
  154OSM    H5G17200   6.763   2.990   3.603 -0.4258  0.4897 -0.7521
  154OSM    C6F17201   6.638   3.134   3.707  0.0821  0.0262  1.0571
  154OSM    H6F17202   6.535   3.093   3.690  0.1716  0.7016 -1.6215
  154OSM    H6G17203   6.628   3.244   3.708 -0.0305  0.0156  1.1598
  154OSM    C7F17204   6.702   3.110   3.847 -0.0897  0.5199  0.4155
  154OSM    H7F17205   6.810   3.135   3.845  0.5037 -1.8214  1.1223
  154OSM    H7G17206   6.691   3.001   3.865 -2.9210  0.6331 -0.0846
  154OSM    C8F17207   6.641   3.196   3.968  0.1705  0.3392  0.4416
  154OSM    H8F17208   6.546   3.154   4.007  1.4015 -1.3712  1.7571
  154OSM    H8G17209   6.610   3.297   3.933  0.0541 -0.9196 -3.6727
  154OSM    C9F17210   6.727   3.202   4.097  0.2061 -0.2960  0.0939
  154OSM    H9F17211   6.832   3.178   4.077  0.5777  0.5827  0.8987
  154OSM   C10F17212   6.678   3.217   4.226 -0.5565 -0.1377 -0.2982
  154OSM   H10F17213   6.749   3.220   4.310 -0.7663  0.7948 -0.1497
  154OSM   C11F17214   6.528   3.224   4.265  0.3968 -0.7356  0.5206
  154OSM   H11F17215   6.465   3.156   4.204 -0.5036  0.8682 -0.4346
  154OSM   H11G17216   6.481   3.322   4.242  1.5509 -0.6679 -1.9191
  154OSM   C12F17217   6.503   3.202   4.412  0.3059  0.0909 -0.3126
  154OSM   H12F17218   6.565   3.118   4.451 -0.5323 -0.8930 -1.0369
  154OSM   H12G17219   6.399   3.175   4.440 -0.1359  1.3124 -0.7367
  154OSM   C13F17220   6.534   3.321   4.505 -0.5847 -0.1690 -0.4146
  154OSM   H13F17221   6.461   3.404   4.506 -0.5222 -0.1035  0.9560
  154OSM   H13G17222   6.628   3.367   4.468 -0.6570  0.4085  0.1100
  154OSM   C14F17223   6.558   3.270   4.647 -0.3018 -0.4739 -0.2787
  154OSM   H14F17224   6.622   3.350   4.691 -0.4839  1.2025 -2.8401
  154OSM   H14G17225   6.602   3.169   4.657  1.4241  0.2406 -0.2737
  154OSM   C15F17226   6.426   3.270   4.718 -0.1461 -0.2846  0.5882
  154OSM   H15F17227   6.344   3.206   4.679  0.6097 -0.3308 -1.0014
  154OSM   H15G17228   6.388   3.374   4.718 -0.9297 -0.5598  1.3965
  154OSM   C16F17229   6.439   3.232   4.870 -0.5118 -0.6786  0.3686
  154OSM   H16F17230   6.525   3.288   4.912  0.1839 -0.1828 -1.5928
  154OSM   H16G17231   6.465   3.124   4.873  1.5961 -0.2057  0.4851
  154OSM   C17F17232   6.307   3.267   4.951 -0.3717 -0.4274 -0.3006
  154OSM   H17F17233   6.219   3.222   4.900 -1.5848  0.2645  1.0835
  154OSM   H17G17234   6.282   3.375   4.965  0.6983 -0.4592  2.6297
  154OSM   C18F17235   6.323   3.204   5.096 -0.0922  0.1644  0.6705
  154OSM   H18F17236   6.298   3.096   5.105  1.5403 -0.3589 -0.6229
  154OSM   H18G17237   6.259   3.253   5.173  0.8197 -2.2715  3.1518
  154OSM   H18H17238   6.428   3.224   5.124 -0.1901  1.2952  0.2831
  155OSM      N17239   3.485   2.876   2.778 -0.2165  0.3208  0.4519
  155OSM    C1517240   3.622   2.854   2.832  0.2918  0.9939  0.1822
  155OSM   H15A17241   3.668   2.768   2.786  0.3282  0.7283  0.7090
  155OSM   H15B17242   3.620   2.837   2.939 -0.4744 -0.0327  0.0170
  155OSM   H15C17243   3.677   2.946   2.818 -0.1851  1.2963  0.2624
  155OSM    C1417244   3.427   3.006   2.844 -0.6100  0.2408  0.3089
  155OSM   H14A17245   3.493   3.090   2.831 -0.0731  0.0383  1.5821
  155OSM   H14B17246   3.428   2.979   2.949  1.3823 -2.6997 -0.3231
  155OSM   H14C17247   3.327   3.023   2.807 -2.2146 -4.8399  1.4610
  155OSM    C1317248   3.485   2.890   2.626  0.1904  0.3439 -0.5352
  155OSM   H13A17249   3.527   2.801   2.580  1.0021  1.4746 -2.0522
  155OSM   H13B17250   3.555   2.967   2.598  2.1731 -1.0937  0.1604
  155OSM   H13C17251   3.387   2.915   2.590  0.3643  1.7376 -0.0737
  155OSM    C1217252   3.394   2.761   2.820  0.7776  0.2117 -0.0026
  155OSM   H12A17253   3.430   2.668   2.780 -1.2604 -0.0113 -1.4355
  155OSM   H12B17254   3.297   2.779   2.776 -0.0385 -0.3905  1.4773
  155OSM    C1117255   3.372   2.743   2.976  0.4390 -0.5325 -0.6223
  155OSM   H11A17256   3.283   2.678   2.985  0.5778 -1.1645 -3.0250
  155OSM   H11B17257   3.341   2.835   3.030  0.1861 -0.2017 -1.3070
  155OSM      P17258   3.544   2.543   3.028 -0.0397  0.2155 -0.2238
  155OSM    O1317259   3.553   2.501   2.881 -0.6088  0.0418 -0.0941
  155OSM    O1417260   3.665   2.522   3.117 -0.6409 -0.6497  0.7965
  155OSM    O1117261   3.428   2.454   3.097  0.2757 -0.0487 -0.3240
  155OSM    O1217262   3.489   2.688   3.045  0.5356  0.3705  0.3206
  155OSM    C1S17263   3.370   2.518   3.217  0.1373  0.9458 -0.0207
  155OSM    H1S17264   3.277   2.574   3.192  0.4042  1.0004 -0.9180
  155OSM    H1T17265   3.429   2.598   3.267 -0.6133  1.1912  0.5001
  155OSM     NF17266   3.265   2.499   3.436  0.1994  0.0833 -0.1084
  155OSM    HNF17267   3.323   2.556   3.493 -0.8474 -1.0015  2.1611
  155OSM    C2S17268   3.339   2.423   3.335  0.0229 -0.9328  0.4275
  155OSM    H2S17269   3.283   2.336   3.295  3.1569 -2.1867 -1.7000
  155OSM    C3S17270   3.478   2.362   3.381 -0.7080  0.0641 -0.2191
  155OSM    H3S17271   3.540   2.454   3.392 -0.8444  0.3588 -1.6704
  155OSM     O317272   3.523   2.272   3.285 -0.2959 -0.5149  0.3982
  155OSM    HO317273   3.505   2.317   3.203  3.5068  0.3491 -0.1266
  155OSM    C4S17274   3.469   2.289   3.513 -0.1140  0.0839  0.4116
  155OSM    H4S17275   3.409   2.199   3.493 -0.1049  0.3979 -1.2451
  155OSM    C5S17276   3.489   2.339   3.635  0.1254 -0.3985 -1.0013
  155OSM    H5S17277   3.518   2.444   3.648  0.5365 -0.4307 -1.6279
  155OSM    C6S17278   3.441   2.271   3.765 -0.3001  0.3758  0.3107
  155OSM    H6S17279   3.517   2.214   3.823 -0.4286  0.6834  0.7853
  155OSM    H6T17280   3.365   2.194   3.738 -1.3738  0.9554  1.5942
  155OSM    C7S17281   3.378   2.357   3.883  0.3009  0.6604  0.5664
  155OSM    H7S17282   3.298   2.426   3.849  0.8781  0.5568 -1.0839
  155OSM    H7T17283   3.460   2.426   3.910  1.3554 -0.1806 -0.3808
  155OSM    C8S17284   3.324   2.268   3.997 -0.3603 -0.4841  0.2924
  155OSM    H8S17285   3.412   2.206   4.026  1.4347  1.0365 -1.6136
  155OSM    H8T17286   3.238   2.203   3.969 -2.3646  0.9446  2.7503
  155OSM    C9S17287   3.278   2.358   4.111  0.7088 -0.2153 -0.2177
  155OSM    H9S17288   3.260   2.286   4.194  0.7778 -1.7957 -1.5095
  155OSM    H9T17289   3.185   2.412   4.085  1.7705  2.3037  0.8611
  155OSM   C10S17290   3.374   2.467   4.157 -0.0433 -0.6185 -0.3448
  155OSM   H10S17291   3.348   2.557   4.098  1.2241  0.0325  0.0497
  155OSM   H10T17292   3.481   2.435   4.153  0.1120 -0.0358 -1.1280
  155OSM   C11S17293   3.356   2.507   4.303 -0.2160  0.7541 -0.8225
  155OSM   H11S17294   3.369   2.410   4.355  2.3589 -0.2059 -3.0283
  155OSM   H11T17295   3.265   2.562   4.334  0.0025  0.0120  1.2461
  155OSM   C12S17296   3.466   2.596   4.365 -0.3116 -0.1495  0.4887
  155OSM   H12S17297   3.473   2.684   4.298  2.7076 -1.1335 -0.6436
  155OSM   H12T17298   3.562   2.543   4.380 -0.3803 -0.0388  1.3805
  155OSM   C13S17299   3.429   2.637   4.514  0.0593 -0.8458  0.2056
  155OSM   H13S17300   3.428   2.540   4.569 -1.0489 -0.6017  0.6378
  155OSM   H13T17301   3.328   2.680   4.525  1.1603  1.9260  0.2270
  155OSM   C14S17302   3.525   2.732   4.582 -0.4078  0.2687  0.2846
  155OSM   H14S17303   3.612   2.747   4.515 -0.5569 -0.1430 -0.0047
  155OSM   H14T17304   3.558   2.693   4.681 -1.2932  1.8075  1.2222
  155OSM   C15S17305   3.466   2.878   4.600 -0.4240 -0.0469 -0.3208
  155OSM   H15S17306   3.389   2.877   4.680 -0.7072  1.5136 -0.5391
  155OSM   H15T17307   3.409   2.897   4.507  0.4703 -1.1125 -1.1164
  155OSM   C16S17308   3.570   2.988   4.623 -0.1332  0.1596 -0.4370
  155OSM   H16S17309   3.524   3.089   4.618  0.4473  0.3683 -2.2568
  155OSM   H16T17310   3.639   2.992   4.536 -0.0176 -0.0418 -0.3561
  155OSM   C17S17311   3.664   2.967   4.741 -0.0992  0.0971 -0.6144
  155OSM   H17S17312   3.737   3.051   4.748  0.0297 -0.0111 -0.6571
  155OSM   H17T17313   3.720   2.872   4.729  1.8681  1.1797 -0.5218
  155OSM   C18S17314   3.597   2.960   4.884  0.0620 -0.0041 -0.6360
  155OSM   H18S17315   3.548   2.861   4.895 -2.8357  1.3962 -0.0047
  155OSM   H18T17316   3.512   3.030   4.900 -0.9760 -1.6835  1.6853
  155OSM   H18U17317   3.676   2.966   4.962 -0.0822 -2.2190 -0.2582
  155OSM    C1F17318   3.140   2.523   3.416 -0.4386 -0.1031  0.4510
  155OSM     OF17319   3.075   2.447   3.342 -0.4069 -0.2335 -0.6826
  155OSM    C2F17320   3.093   2.659   3.464  0.8405  0.0886 -0.5656
  155OSM    H2F17321   3.081   2.732   3.381 -0.7953 -0.4348 -0.8368
  155OSM    H2G17322   3.168   2.708   3.529 -0.1825  0.4448  0.3621
  155OSM    C3F17323   2.971   2.635   3.557 -0.3845 -0.2635  0.2259
  155OSM    H3F17324   2.899   2.573   3.501 -1.5497 -0.1613  1.5505
  155OSM    H3G17325   2.926   2.736   3.570  0.7357 -0.0014  2.8337
  155OSM    C4F17326   3.021   2.576   3.696  0.1784  0.3565  0.0349
  155OSM    H4F17327   3.095   2.648   3.738  1.0048 -0.2153 -0.4212
  155OSM    H4G17328   3.076   2.481   3.680 -0.4198  0.2566 -1.6078
  155OSM    C5F17329   2.906   2.558   3.799 -0.1093  0.1774  0.1341
  155OSM    H5F17330   2.840   2.476   3.764 -1.1947  0.3000  1.7723
  155OSM    H5G17331   2.867   2.662   3.795  0.7793  0.4687 -1.6355
  155OSM    C6F17332   2.963   2.524   3.941 -1.0221 -0.6543 -0.8968
  155OSM    H6F17333   3.017   2.617   3.968 -0.5667 -1.3919  0.8946
  155OSM    H6G17334   3.029   2.435   3.933 -0.3747 -0.1738 -0.9161
  155OSM    C7F17335   2.863   2.499   4.049  0.6027  0.6713 -1.1670
  155OSM    H7F17336   2.798   2.411   4.029 -0.4519  0.9134  0.9080
  155OSM    H7G17337   2.788   2.582   4.053  1.6168  1.6190 -1.4941
  155OSM    C8F17338   2.917   2.501   4.188  0.3954  0.5136  0.3452
  155OSM    H8F17339   2.993   2.420   4.178  0.2177  0.5191 -1.1845
  155OSM    H8G17340   2.848   2.464   4.267  0.4405 -1.7212 -0.5986
  155OSM    C9F17341   2.999   2.625   4.226  0.1519  0.4580  0.3903
  155OSM    H9F17342   3.081   2.649   4.156  1.7937 -3.0781  0.8652
  155OSM   C10F17343   2.989   2.706   4.331 -0.0323  0.1321 -0.0357
  155OSM   H10F17344   3.075   2.775   4.333  1.0803 -0.9037 -3.7975
  155OSM   C11F17345   2.887   2.724   4.442 -0.3095  0.6210 -0.1548
  155OSM   H11F17346   2.915   2.811   4.504 -1.7675 -1.1244  3.2118
  155OSM   H11G17347   2.885   2.639   4.514 -1.2056  1.5472  0.9359
  155OSM   C12F17348   2.744   2.740   4.393  0.6930  0.1889  0.6866
  155OSM   H12F17349   2.717   2.640   4.354  2.7425 -1.0549  2.2832
  155OSM   H12G17350   2.744   2.809   4.305  0.6423 -1.5536 -0.7339
  155OSM   C13F17351   2.642   2.786   4.493 -0.4657  0.2800 -0.6967
  155OSM   H13F17352   2.541   2.761   4.454 -1.5995  1.2901  1.3991
  155OSM   H13G17353   2.651   2.897   4.495  1.0591  0.1614  0.3634
  155OSM   C14F17354   2.656   2.738   4.639  0.0725 -0.8562  0.1317
  155OSM   H14F17355   2.760   2.761   4.671  0.3229 -0.3185 -1.0230
  155OSM   H14G17356   2.650   2.627   4.640 -0.8579 -0.8157 -0.4444
  155OSM   C15F17357   2.548   2.789   4.727 -0.3931 -0.8311 -0.0958
  155OSM   H15F17358   2.444   2.773   4.691 -0.6535 -0.2695  0.3908
  155OSM   H15G17359   2.549   2.900   4.722  0.8296 -0.8301 -0.3073
  155OSM   C16F17360   2.571   2.753   4.874 -0.3092  0.4166 -0.4567
  155OSM   H16F17361   2.512   2.819   4.940  0.8952  0.5510  0.5228
  155OSM   H16G17362   2.680   2.763   4.895 -0.2693  1.2467 -1.0073
  155OSM   C17F17363   2.518   2.616   4.912 -0.1066  0.1210 -0.0072
  155OSM   H17F17364   2.557   2.548   4.835 -0.0901 -0.6642  0.6846
  155OSM   H17G17365   2.408   2.629   4.901  0.3557  3.0200 -2.5168
  155OSM   C18F17366   2.560   2.566   5.050 -0.3475  0.2936  0.3797
  155OSM   H18F17367   2.670   2.580   5.059 -0.1993 -0.8195  0.4900
  155OSM   H18G17368   2.551   2.459   5.080 -0.5284 -0.1827 -1.2517
  155OSM   H18H17369   2.512   2.625   5.131 -2.0982 -1.7526  0.9243
  156OSM      N17370   5.200   2.059   3.285  0.4586  0.4997  0.1927
  156OSM    C1517371   5.135   2.103   3.160  0.3561 -0.5180 -0.8105
  156OSM   H15A17372   5.180   2.195   3.126  1.6203 -0.4905  0.7998
  156OSM   H15B17373   5.031   2.123   3.182  0.5882 -1.6388  1.7474
  156OSM   H15C17374   5.150   2.033   3.080 -1.2095 -0.4224 -1.2254
  156OSM    C1417375   5.347   2.097   3.270  0.8560  0.5041  0.5416
  156OSM   H14A17376   5.398   2.108   3.365  1.8772  2.6755 -0.1779
  156OSM   H14B17377   5.359   2.190   3.216  0.1125 -0.7548 -1.9350
  156OSM   H14C17378   5.393   2.020   3.209  1.8613 -0.0929  2.0028
  156OSM    C1317379   5.154   2.134   3.402 -0.2115 -0.5316 -0.0206
  156OSM   H13A17380   5.048   2.113   3.411  0.1171 -1.7015  1.4826
  156OSM   H13B17381   5.180   2.237   3.383  1.6717 -0.6613  1.5314
  156OSM   H13C17382   5.198   2.112   3.498  0.1607  0.4050  0.0346
  156OSM    C1217383   5.175   1.914   3.319  1.4133 -0.0715 -0.0619
  156OSM   H12A17384   5.071   1.887   3.325  1.5481 -0.2958  1.8023
  156OSM   H12B17385   5.211   1.898   3.420  0.2844 -0.4715  0.2936
  156OSM    C1117386   5.227   1.805   3.227 -0.2017 -0.1981  0.4319
  156OSM   H11A17387   5.194   1.821   3.122 -0.6545 -0.0568  0.5922
  156OSM   H11B17388   5.186   1.710   3.267  0.4552  0.2810  2.3075
  156OSM      P17389   5.449   1.675   3.267 -0.0405  0.0874  0.2878
  156OSM    O1317390   5.395   1.548   3.206 -0.1969  0.3886 -0.4961
  156OSM    O1417391   5.590   1.697   3.250 -0.4994  0.2979 -0.1814
  156OSM    O1117392   5.425   1.676   3.419 -0.1333  0.2456 -0.5366
  156OSM    O1217393   5.371   1.804   3.222  0.0539  0.3618 -0.4497
  156OSM    C1S17394   5.460   1.791   3.497 -0.4104 -0.6507  0.1787
  156OSM    H1S17395   5.385   1.871   3.479  0.0440 -0.0803  0.8049
  156OSM    H1T17396   5.557   1.840   3.478 -1.9432  3.3609  1.7109
  156OSM     NF17397   5.427   1.873   3.734  0.1335 -0.1634  0.1578
  156OSM    HNF17398   5.506   1.907   3.785  1.0201 -0.8279 -0.7517
  156OSM    C2S17399   5.460   1.754   3.651  0.4881 -0.3550 -0.5944
  156OSM    H2S17400   5.374   1.688   3.675 -0.9356  2.1330  1.6890
  156OSM    C3S17401   5.582   1.673   3.693  0.1284  0.3971  0.3730
  156OSM    H3S17402   5.675   1.726   3.719  0.3221 -0.5999  1.8738
  156OSM     O317403   5.620   1.578   3.593  0.3001  0.7093  0.2358
  156OSM    HO317404   5.549   1.590   3.530 -0.5861 -1.4184  0.7441
  156OSM    C4S17405   5.554   1.605   3.825 -0.1963 -0.0347 -0.2257
  156OSM    H4S17406   5.544   1.675   3.910 -0.0400 -0.8435  0.4751
  156OSM    C5S17407   5.542   1.480   3.863  0.7351 -0.4706  0.2230
  156OSM    H5S17408   5.551   1.401   3.787 -1.8420 -2.6295  1.9514
  156OSM    C6S17409   5.513   1.431   4.000 -0.2132  0.1163  0.4818
  156OSM    H6S17410   5.576   1.344   4.030 -1.4509 -0.7995  0.5236
  156OSM    H6T17411   5.406   1.399   3.995  0.7591 -3.4962 -0.1994
  156OSM    C7S17412   5.539   1.528   4.116  0.0513  0.0744 -0.6158
  156OSM    H7S17413   5.484   1.625   4.111  2.0958  1.3298 -0.2814
  156OSM    H7T17414   5.647   1.552   4.124  0.2250 -0.6379 -0.7910
  156OSM    C8S17415   5.510   1.460   4.260  0.1421 -0.3633  0.1520
  156OSM    H8S17416   5.589   1.386   4.285 -1.7427 -2.2096  0.9432
  156OSM    H8T17417   5.419   1.399   4.239  0.0274 -0.6198  1.3649
  156OSM    C9S17418   5.488   1.567   4.369 -0.5783 -0.0743  0.1593
  156OSM    H9S17419   5.394   1.619   4.342  0.0600  1.1384  0.1646
  156OSM    H9T17420   5.580   1.629   4.375  0.3583 -1.4413  0.3180
  156OSM   C10S17421   5.468   1.503   4.508 -0.1649 -0.2454  0.9820
  156OSM   H10S17422   5.376   1.442   4.500 -0.5757  0.5513 -1.4256
  156OSM   H10T17423   5.453   1.580   4.586  2.9923  1.0134  0.5031
  156OSM   C11S17424   5.592   1.422   4.552  0.3861  0.3736 -0.5131
  156OSM   H11S17425   5.684   1.464   4.506  0.7706  2.2247  1.7391
  156OSM   H11T17426   5.592   1.326   4.496  2.8360 -1.0146  1.6068
  156OSM   C12S17427   5.616   1.421   4.705  0.3611  0.4050  0.7593
  156OSM   H12S17428   5.536   1.371   4.764 -0.2101  1.6497  1.0750
  156OSM   H12T17429   5.627   1.519   4.755  2.6892  0.9071 -0.6320
  156OSM   C13S17430   5.746   1.347   4.749  0.5227  0.0995  0.4532
  156OSM   H13S17431   5.826   1.420   4.725 -1.6272  2.1231 -1.0024
  156OSM   H13T17432   5.750   1.255   4.687 -0.8466  0.0301  0.4436
  156OSM   C14S17433   5.753   1.313   4.898 -0.5123  0.3639  0.0305
  156OSM   H14S17434   5.848   1.256   4.904  0.2645  1.5545 -0.5314
  156OSM   H14T17435   5.673   1.242   4.926 -1.4698  0.5442 -2.0107
  156OSM   C15S17436   5.770   1.433   4.989  0.3051 -0.3838  0.3725
  156OSM   H15S17437   5.672   1.480   5.008 -0.1335  0.7947 -3.7625
  156OSM   H15T17438   5.831   1.512   4.940 -1.0406  0.3053 -0.2455
  156OSM   C16S17439   5.841   1.388   5.118  0.4244 -0.7994 -0.1645
  156OSM   H16S17440   5.869   1.472   5.185  0.9681  0.2721 -1.6914
  156OSM   H16T17441   5.947   1.352   5.115  1.1733  1.3077 -0.4359
  156OSM   C17S17442   5.760   1.296   5.198  0.5080  0.8121  0.0895
  156OSM   H17S17443   5.744   1.196   5.152  0.2490  0.0862  1.7201
  156OSM   H17T17444   5.658   1.337   5.212  0.6576  1.8753 -1.5332
  156OSM   C18S17445   5.830   1.279   5.331 -0.2915 -0.1965 -0.1434
  156OSM   H18S17446   5.925   1.223   5.324 -0.2786 -0.3758  1.3337
  156OSM   H18T17447   5.760   1.212   5.384  0.8723 -2.4073 -1.2557
  156OSM   H18U17448   5.831   1.377   5.384 -2.1622  0.1852 -0.7468
  156OSM    C1F17449   5.314   1.941   3.715  0.0914  0.3741 -0.5149
  156OSM     OF17450   5.224   1.881   3.656 -0.1178 -0.2475 -0.2208
  156OSM    C2F17451   5.304   2.089   3.764  0.1061  0.6758  0.5549
  156OSM    H2F17452   5.369   2.142   3.690  1.0037 -0.2853  0.6282
  156OSM    H2G17453   5.364   2.090   3.858  1.8955 -0.0793 -0.5115
  156OSM    C3F17454   5.160   2.128   3.800  0.1510 -0.3921 -0.3333
  156OSM    H3F17455   5.093   2.132   3.711  0.9112  0.0371 -0.8969
  156OSM    H3G17456   5.168   2.232   3.836 -0.6326 -0.4759  0.1056
  156OSM    C4F17457   5.085   2.043   3.904  0.2393  0.7482 -1.1222
  156OSM    H4F17458   5.071   1.938   3.870  3.0902  0.4186 -1.4888
  156OSM    H4G17459   4.983   2.088   3.907 -1.1142 -1.9379 -2.3900
  156OSM    C5F17460   5.154   2.054   4.042  0.4531  0.5897  0.2652
  156OSM    H5F17461   5.183   2.158   4.069 -0.1418  0.5584  1.0850
  156OSM    H5G17462   5.247   1.996   4.031  0.6136  1.0526 -0.9850
  156OSM    C6F17463   5.069   2.000   4.162 -0.1664 -0.9875 -0.1372
  156OSM    H6F17464   5.012   1.913   4.123 -2.6576  1.1828 -1.6658
  156OSM    H6G17465   4.995   2.077   4.192 -2.3970 -2.4934 -1.4676
  156OSM    C7F17466   5.161   1.952   4.275  0.4365  0.0745  0.0245
  156OSM    H7F17467   5.216   2.037   4.321 -0.7070  0.1821  1.2625
  156OSM    H7G17468   5.235   1.886   4.226 -1.5925 -2.1278 -0.2275
  156OSM    C8F17469   5.087   1.869   4.382  0.6722  0.4998 -0.1762
  156OSM    H8F17470   5.016   1.799   4.334  1.9742 -0.8863 -0.1602
  156OSM    H8G17471   5.016   1.938   4.433  0.3792  1.1674 -1.4549
  156OSM    C9F17472   5.188   1.799   4.471  0.3592  0.2916  0.6267
  156OSM    H9F17473   5.214   1.695   4.444  1.3409  0.9510 -1.1279
  156OSM   C10F17474   5.251   1.865   4.573 -0.1103 -0.1961  0.1720
  156OSM   H10F17475   5.329   1.810   4.627 -1.8432 -0.7978  2.1950
  156OSM   C11F17476   5.221   2.006   4.615 -0.1938 -0.4919 -0.7230
  156OSM   H11F17477   5.117   2.037   4.591  0.1720  0.4447 -1.1380
  156OSM   H11G17478   5.299   2.075   4.577  1.5824 -1.7902  0.3871
  156OSM   C12F17479   5.227   2.030   4.769 -0.8774 -0.3727 -0.4785
  156OSM   H12F17480   5.333   2.057   4.792 -0.9920  0.1567 -0.5799
  156OSM   H12G17481   5.192   1.940   4.824 -1.6108 -1.4257 -2.5806
  156OSM   C13F17482   5.143   2.146   4.818 -0.3608  1.0011  0.2416
  156OSM   H13F17483   5.044   2.161   4.770 -0.4244  4.6223  1.1567
  156OSM   H13G17484   5.188   2.244   4.791  0.9417  0.5746  0.7981
  156OSM   C14F17485   5.103   2.146   4.968 -0.2444 -0.3544 -0.3992
  156OSM   H14F17486   5.057   2.048   4.991 -0.5122  0.0734  0.9323
  156OSM   H14G17487   5.022   2.221   4.984 -0.0217 -0.2212  0.1006
  156OSM   C15F17488   5.229   2.173   5.054  0.6263  0.1045 -0.6046
  156OSM   H15F17489   5.264   2.277   5.036  0.7993  0.3766  1.1102
  156OSM   H15G17490   5.311   2.108   5.020 -0.1667 -1.1857 -0.1270
  156OSM   C16F17491   5.202   2.158   5.207  0.0288 -0.2818  0.2974
  156OSM   H16F17492   5.145   2.062   5.214  1.7382 -1.4851 -1.2370
  156OSM   H16G17493   5.132   2.244   5.217  0.7252  0.6262 -1.9888
  156OSM   C17F17494   5.321   2.182   5.303 -0.6379  0.9061  0.1645
  156OSM   H17F17495   5.399   2.103   5.293 -0.2581  1.2418  0.4676
  156OSM   H17G17496   5.275   2.187   5.403 -3.1890 -1.5592 -0.7453
  156OSM   C18F17497   5.401   2.318   5.286 -0.1058  0.0237  0.2948
  156OSM   H18F17498   5.471   2.323   5.200  0.7684 -0.8021  0.9438
  156OSM   H18G17499   5.452   2.352   5.379  0.4551  1.0988 -0.3864
  156OSM   H18H17500   5.322   2.396   5.279  0.2813  0.6716  2.4817
  157OSM      N17501   4.391   3.744   2.721 -0.3442 -0.1976 -0.1485
  157OSM    C1517502   4.370   3.767   2.873  0.6134 -0.2660  0.3482
  157OSM   H15A17503   4.459   3.791   2.929 -0.6544 -0.4358  2.5704
  157OSM   H15B17504   4.334   3.673   2.912 -0.0613 -0.2013 -0.1032
  157OSM   H15C17505   4.306   3.852   2.893  1.7040  0.6980 -0.1060
  157OSM    C1417506   4.259   3.731   2.651 -0.7504  0.5220  0.2320
  157OSM   H14A17507   4.207   3.825   2.656  2.1539  2.1857  1.4199
  157OSM   H14B17508   4.208   3.646   2.695  2.3023 -0.2564  2.6825
  157OSM   H14C17509   4.272   3.717   2.545 -3.0172  1.3678 -0.2118
  157OSM    C1317510   4.467   3.866   2.667 -0.2971 -0.1144 -0.2711
  157OSM   H13A17511   4.415   3.958   2.686 -0.2238  0.0629 -0.9112
  157OSM   H13B17512   4.483   3.850   2.561  0.9584 -1.6756  0.1094
  157OSM   H13C17513   4.566   3.867   2.711  0.2708 -2.6763 -1.2734
  157OSM    C1217514   4.469   3.616   2.703 -0.4634 -0.9762 -0.1578
  157OSM   H12A17515   4.565   3.626   2.752  0.5047  1.0241 -2.2610
  157OSM   H12B17516   4.493   3.592   2.601  0.9207  0.7013 -0.2696
  157OSM    C1117517   4.403   3.491   2.765  0.2461 -0.3367 -0.1582
  157OSM   H11A17518   4.439   3.396   2.721 -0.9441 -1.0438  0.3475
  157OSM   H11B17519   4.293   3.493   2.747  0.1430 -0.7681  0.3904
  157OSM      P17520   4.346   3.408   3.006 -0.2013  0.3904  0.4446
  157OSM    O1317521   4.207   3.461   3.010 -0.0381  0.5443  0.2103
  157OSM    O1417522   4.356   3.263   2.982 -0.2031  0.0393  0.2174
  157OSM    O1117523   4.409   3.434   3.143 -0.7283  0.4035  0.5097
  157OSM    O1217524   4.434   3.494   2.906 -0.6163 -0.1994  0.2576
  157OSM    C1S17525   4.545   3.398   3.163  0.1821  0.2999 -0.4272
  157OSM    H1S17526   4.613   3.464   3.105 -0.6718 -1.2239 -3.4004
  157OSM    H1T17527   4.569   3.296   3.126  0.4040  0.1037  0.2627
  157OSM     NF17528   4.723   3.370   3.334 -0.3237  0.0964 -0.0665
  157OSM    HNF17529   4.756   3.277   3.350  0.1908  0.0996 -1.0597
  157OSM    C2S17530   4.580   3.393   3.320  0.5866  0.0608 -0.3442
  157OSM    H2S17531   4.553   3.492   3.364 -0.2689  0.8286 -2.4228
  157OSM    C3S17532   4.497   3.288   3.404 -0.6110  0.3562 -0.2534
  157OSM    H3S17533   4.542   3.192   3.373  0.9464  2.0942 -3.9540
  157OSM     O317534   4.363   3.282   3.375  1.2326  0.3085  0.1246
  157OSM    HO317535   4.354   3.333   3.294  1.2612 -0.6535 -0.5027
  157OSM    C4S17536   4.527   3.304   3.553 -0.0642  0.4867  0.1205
  157OSM    H4S17537   4.510   3.408   3.587  1.1949  1.5470 -2.2776
  157OSM    C5S17538   4.572   3.208   3.641 -0.2707 -0.8586  0.8084
  157OSM    H5S17539   4.582   3.104   3.609  2.0852 -0.2343 -0.6792
  157OSM    C6S17540   4.599   3.238   3.789 -0.4051  0.0398  0.0907
  157OSM    H6S17541   4.563   3.338   3.820 -0.0860  0.5425 -1.1274
  157OSM    H6T17542   4.709   3.243   3.800 -0.1885  2.7822 -2.2284
  157OSM    C7S17543   4.532   3.126   3.879  0.0396 -0.1850  0.6534
  157OSM    H7S17544   4.582   3.030   3.854 -1.1543 -0.4226 -0.9812
  157OSM    H7T17545   4.425   3.119   3.848  0.6542  1.0899 -2.0059
  157OSM    C8S17546   4.543   3.170   4.024 -0.5292  0.2084 -0.3487
  157OSM    H8S17547   4.477   3.258   4.039 -0.3027 -0.1664  3.8886
  157OSM    H8T17548   4.648   3.191   4.050 -0.9771  0.5785  1.2605
  157OSM    C9S17549   4.495   3.059   4.115  0.3933  0.0778 -0.0686
  157OSM    H9S17550   4.563   2.971   4.118 -1.4631 -1.3968  0.5738
  157OSM    H9T17551   4.391   3.030   4.087  0.4389 -2.7134  2.1353
  157OSM   C10S17552   4.499   3.121   4.253 -0.7101  0.5302 -1.0739
  157OSM   H10S17553   4.436   3.210   4.274  2.5117  2.0832  3.6979
  157OSM   H10T17554   4.600   3.151   4.289 -1.0486  0.2040  0.2043
  157OSM   C11S17555   4.461   3.020   4.362 -0.4574 -0.0415 -0.9464
  157OSM   H11S17556   4.532   2.935   4.352 -0.4758 -0.1641 -0.1041
  157OSM   H11T17557   4.356   2.987   4.343 -0.7535  0.8169 -0.8718
  157OSM   C12S17558   4.478   3.070   4.505  0.9854 -0.1918 -0.0737
  157OSM   H12S17559   4.389   3.125   4.542 -0.5781 -1.6966 -1.4215
  157OSM   H12T17560   4.568   3.135   4.501  1.7356 -1.2422 -0.8111
  157OSM   C13S17561   4.511   2.954   4.609  0.4206 -0.6106  0.8126
  157OSM   H13S17562   4.580   2.874   4.577 -0.8270 -2.2708  2.0436
  157OSM   H13T17563   4.423   2.887   4.624  0.8214 -2.1712 -2.8345
  157OSM   C14S17564   4.540   2.996   4.749 -0.5812 -0.4334  0.3259
  157OSM   H14S17565   4.481   3.087   4.774  2.4877  1.6290  0.6781
  157OSM   H14T17566   4.648   3.024   4.751 -0.7361  0.1856  1.4713
  157OSM   C15S17567   4.516   2.891   4.858  0.9075 -0.8980 -0.4072
  157OSM   H15S17568   4.555   2.793   4.823  0.9131 -0.1072 -2.8640
  157OSM   H15T17569   4.408   2.870   4.872  0.4788 -0.1566 -2.2459
  157OSM   C16S17570   4.576   2.916   4.996 -0.0316  0.4722  0.0208
  157OSM   H16S17571   4.681   2.951   4.985  1.0858 -1.4101  3.2793
  157OSM   H16T17572   4.580   2.818   5.047  0.4738 -0.9627 -2.5732
  157OSM   C17S17573   4.503   3.018   5.076  0.5039 -0.1146  0.6604
  157OSM   H17S17574   4.406   2.973   5.107 -0.5410  1.6509  0.1057
  157OSM   H17T17575   4.478   3.104   5.010  1.0085 -2.0001 -2.1853
  157OSM   C18S17576   4.586   3.078   5.198 -0.1110  0.4245 -0.1650
  157OSM   H18S17577   4.679   3.118   5.153 -0.0724  2.5606  1.6220
  157OSM   H18T17578   4.611   2.994   5.267  1.1680 -0.8678 -2.0866
  157OSM   H18U17579   4.527   3.161   5.241  3.1860  1.2479  3.3370
  157OSM    C1F17580   4.817   3.458   3.304  0.3032  0.0919 -0.1807
  157OSM     OF17581   4.790   3.570   3.255  0.4499 -0.4359 -0.0183
  157OSM    C2F17582   4.961   3.409   3.309  0.1234  0.2697 -0.3484
  157OSM    H2F17583   5.016   3.438   3.217  2.3468 -1.4835  0.3371
  157OSM    H2G17584   4.961   3.299   3.300  1.5639  0.2808 -0.7215
  157OSM    C3F17585   5.044   3.469   3.432  0.5658 -0.2606 -0.6030
  157OSM    H3F17586   5.038   3.580   3.428 -0.6585 -0.2928 -0.1477
  157OSM    H3G17587   5.152   3.448   3.418  0.6554 -0.3724  0.2291
  157OSM    C4F17588   4.988   3.436   3.576  0.2902  0.3925  1.2869
  157OSM    H4F17589   4.995   3.325   3.586 -1.3308 -0.0232 -1.2882
  157OSM    H4G17590   4.882   3.468   3.571  0.5245  1.0467 -0.2017
  157OSM    C5F17591   5.054   3.496   3.698  0.5802 -0.5606 -0.1782
  157OSM    H5F17592   5.057   3.607   3.689 -0.2652 -0.2224  2.6177
  157OSM    H5G17593   5.163   3.472   3.693  0.6337 -0.8265  1.6943
  157OSM    C6F17594   5.005   3.445   3.837  0.2295  0.3115  0.1964
  157OSM    H6F17595   5.083   3.478   3.908  3.4954 -1.8348 -2.1037
  157OSM    H6G17596   5.011   3.334   3.836 -2.4195  0.1114 -0.3362
  157OSM    C7F17597   4.862   3.486   3.885  0.2190 -0.2638  0.4683
  157OSM    H7F17598   4.795   3.443   3.808  0.6531  2.9986 -1.9774
  157OSM    H7G17599   4.859   3.597   3.879 -1.2724 -0.3544 -3.3560
  157OSM    C8F17600   4.828   3.444   4.031  0.0446  0.1084 -0.5797
  157OSM    H8F17601   4.837   3.334   4.044 -0.8718  0.2065  1.4361
  157OSM    H8G17602   4.718   3.458   4.040  0.0157 -0.4745  0.0590
  157OSM    C9F17603   4.899   3.528   4.130 -0.8250 -0.0324  0.1372
  157OSM    H9F17604   5.008   3.521   4.130 -0.7601  0.6396  1.6270
  157OSM   C10F17605   4.849   3.603   4.228  0.1361 -0.5664 -0.2945
  157OSM   H10F17606   4.921   3.661   4.288  0.2718 -0.9112 -0.1192
  157OSM   C11F17607   4.701   3.620   4.261 -0.4168  0.1872 -0.5375
  157OSM   H11F17608   4.643   3.603   4.168  0.0500 -0.3456 -0.7391
  157OSM   H11G17609   4.678   3.720   4.302 -0.7885 -0.6032  1.2886
  157OSM   C12F17610   4.652   3.519   4.362 -0.3228 -0.4559 -0.3310
  157OSM   H12F17611   4.689   3.419   4.330 -1.2038 -0.9698  0.2130
  157OSM   H12G17612   4.541   3.525   4.363 -0.2861  0.5393  1.0938
  157OSM   C13F17613   4.690   3.551   4.516 -0.4991  0.5268 -0.0087
  157OSM   H13F17614   4.679   3.658   4.543 -0.6378  0.3822  0.5217
  157OSM   H13G17615   4.798   3.526   4.522 -0.5600  0.2508 -0.0419
  157OSM   C14F17616   4.606   3.473   4.608 -0.0551 -0.1086  0.6474
  157OSM   H14F17617   4.625   3.364   4.611 -1.6271 -0.4282  0.0613
  157OSM   H14G17618   4.498   3.491   4.591 -0.5277 -1.8957  1.4772
  157OSM   C15F17619   4.622   3.518   4.751 -0.5769 -0.0195 -0.3568
  157OSM   H15F17620   4.595   3.625   4.746  0.9383  0.3607 -0.7527
  157OSM   H15G17621   4.722   3.499   4.795 -1.1984 -0.3633  0.9732
  157OSM   C16F17622   4.522   3.448   4.845 -0.6310 -0.1234  0.0431
  157OSM   H16F17623   4.540   3.339   4.831  1.6036  0.4639 -2.6499
  157OSM   H16G17624   4.415   3.470   4.830 -0.6156 -0.7325 -1.0945
  157OSM   C17F17625   4.542   3.469   5.000  0.1589 -0.4828 -0.0804
  157OSM   H17F17626   4.647   3.435   5.015  0.3809  0.9241  2.1217
  157OSM   H17G17627   4.468   3.410   5.058 -0.8607  0.5936 -0.2485
  157OSM   C18F17628   4.538   3.623   5.029  0.1338 -0.4653 -0.6985
  157OSM   H18F17629   4.554   3.653   5.135  0.6207  0.6588 -1.0664
  157OSM   H18G17630   4.433   3.654   5.012 -0.9304 -2.5984  1.4247
  157OSM   H18H17631   4.600   3.689   4.964  0.3498  0.2862  0.2413
  158OSM      N17632   2.049   1.225   2.712 -0.8894  0.5369 -0.6411
  158OSM    C1517633   2.037   1.140   2.835 -0.2031 -0.7230 -0.2048
  158OSM   H15A17634   2.126   1.081   2.852  1.0533  0.6414 -1.6835
  158OSM   H15B17635   1.956   1.070   2.826 -1.6280  0.8843 -0.3818
  158OSM   H15C17636   2.020   1.209   2.917  0.3438  0.1753 -0.8178
  158OSM    C1417637   2.185   1.286   2.717  0.6361  0.0896  0.1406
  158OSM   H14A17638   2.265   1.223   2.682 -1.0905 -1.9469 -0.3467
  158OSM   H14B17639   2.197   1.318   2.820 -1.8290  1.4750  0.0819
  158OSM   H14C17640   2.185   1.376   2.657  0.7065 -1.1917 -1.8454
  158OSM    C1317641   2.039   1.135   2.600  0.4375 -0.0590  0.1720
  158OSM   H13A17642   1.956   1.066   2.606  0.9103 -0.7636 -1.0149
  158OSM   H13B17643   2.128   1.074   2.596  0.4540  0.0369 -1.8811
  158OSM   H13C17644   2.027   1.184   2.504  0.9323  1.2858  0.7756
  158OSM    C1217645   1.935   1.319   2.713 -0.3166  0.0742 -0.1376
  158OSM   H12A17646   1.839   1.269   2.713  0.4713 -1.4899  0.1097
  158OSM   H12B17647   1.933   1.380   2.624 -1.6784  3.5227  2.0801
  158OSM    C1117648   1.931   1.412   2.833 -0.3176 -0.7339 -0.0228
  158OSM   H11A17649   1.881   1.348   2.909 -0.0762 -0.5609  0.2863
  158OSM   H11B17650   1.850   1.483   2.805  0.3363  1.7545  3.6669
  158OSM      P17651   2.067   1.550   3.007  0.3654 -0.1124 -0.1014
  158OSM    O1317652   2.204   1.533   3.052 -0.0867  0.0946 -0.6384
  158OSM    O1417653   2.020   1.694   3.005  0.0596  0.8276  0.5976
  158OSM    O1117654   1.974   1.465   3.096  0.0075  0.5073  0.5069
  158OSM    O1217655   2.054   1.471   2.874 -0.0512 -0.2882  0.1780
  158OSM    C1S17656   2.007   1.450   3.232 -0.2685  0.2237  0.1900
  158OSM    H1S17657   2.022   1.546   3.286  3.5828  0.4997 -1.0854
  158OSM    H1T17658   2.107   1.403   3.240 -0.5762 -0.5034 -0.1878
  158OSM     NF17659   1.896   1.382   3.451 -0.3774  0.1376  0.0541
  158OSM    HNF17660   1.907   1.300   3.506 -0.8007  0.3506  0.4700
  158OSM    C2S17661   1.892   1.369   3.308 -0.4850 -0.3876 -0.0465
  158OSM    H2S17662   1.796   1.408   3.270  0.1216  1.8030  0.5253
  158OSM    C3S17663   1.896   1.220   3.259  0.7982 -0.2835 -0.3796
  158OSM    H3S17664   1.995   1.181   3.291  1.2275  1.5021  0.5936
  158OSM     O317665   1.888   1.211   3.118 -0.3865  0.1172 -0.1461
  158OSM    HO317666   1.897   1.301   3.085  1.1113  0.0435  0.0315
  158OSM    C4S17667   1.778   1.140   3.311  0.5180 -0.2474  0.2963
  158OSM    H4S17668   1.679   1.181   3.285 -0.2426 -1.8247  0.6302
  158OSM    C5S17669   1.776   1.025   3.393 -0.0156 -0.6297 -0.6039
  158OSM    H5S17670   1.872   0.987   3.431 -0.8187 -0.3918  1.8676
  158OSM    C6S17671   1.659   0.947   3.440  0.3077  0.9950  0.0371
  158OSM    H6S17672   1.641   0.865   3.367 -1.3434 -0.3064  1.7908
  158OSM    H6T17673   1.567   1.009   3.440 -1.3763 -1.3502  0.4218
  158OSM    C7S17674   1.667   0.886   3.584 -0.2235  0.5536 -0.4963
  158OSM    H7S17675   1.699   0.968   3.653 -0.9034 -0.2397  0.8002
  158OSM    H7T17676   1.745   0.807   3.589 -0.9751 -0.1753 -0.0805
  158OSM    C8S17677   1.532   0.834   3.634  0.1267  0.0117 -0.2239
  158OSM    H8S17678   1.515   0.750   3.564 -0.4772 -0.3191  0.3077
  158OSM    H8T17679   1.460   0.912   3.602  0.1628  1.2373  2.3940
  158OSM    C9S17680   1.521   0.809   3.784 -0.4027  0.2807 -1.0441
  158OSM    H9S17681   1.429   0.751   3.803 -0.6777  1.3784  1.2717
  158OSM    H9T17682   1.532   0.907   3.834  2.5043 -0.2027 -0.5480
  158OSM   C10S17683   1.639   0.728   3.835 -0.1706  0.4723 -0.3383
  158OSM   H10S17684   1.726   0.797   3.843 -0.7695  1.1671  0.4116
  158OSM   H10T17685   1.660   0.657   3.753  1.0845  1.9175 -1.3086
  158OSM   C11S17686   1.606   0.645   3.958  0.2780 -0.1229  0.5071
  158OSM   H11S17687   1.692   0.582   3.988  1.1451 -0.7720 -2.9007
  158OSM   H11T17688   1.516   0.582   3.942 -1.0667  0.8142  3.5370
  158OSM   C12S17689   1.586   0.736   4.080  0.3755 -0.3521  0.0982
  158OSM   H12S17690   1.480   0.771   4.085  0.5000 -0.0775  3.4418
  158OSM   H12T17691   1.658   0.819   4.063 -1.9040  1.6785 -0.2585
  158OSM   C13S17692   1.621   0.679   4.222  0.3923 -0.6702  0.0719
  158OSM   H13S17693   1.727   0.644   4.217  0.7213 -0.0941  2.1790
  158OSM   H13T17694   1.558   0.589   4.240 -0.8519  0.1753  0.0608
  158OSM   C14S17695   1.582   0.785   4.332 -0.3051  0.4883  0.4198
  158OSM   H14S17696   1.474   0.811   4.320 -0.3657 -0.2847 -1.0232
  158OSM   H14T17697   1.627   0.886   4.323  1.9048 -0.4563  0.2195
  158OSM   C15S17698   1.606   0.728   4.474  1.1583 -0.5609 -0.4905
  158OSM   H15S17699   1.709   0.691   4.493  1.4599  0.2819 -0.4375
  158OSM   H15T17700   1.535   0.646   4.496 -1.7093  2.1266  1.2390
  158OSM   C16S17701   1.586   0.839   4.578  0.4552 -0.3368  0.5013
  158OSM   H16S17702   1.478   0.862   4.583  0.8463  2.4028 -1.3428
  158OSM   H16T17703   1.644   0.926   4.540  0.6882 -0.8912 -0.4245
  158OSM   C17S17704   1.643   0.806   4.717 -0.3948  0.3379  0.5036
  158OSM   H17S17705   1.751   0.780   4.714 -0.8016 -1.3617 -0.7511
  158OSM   H17T17706   1.588   0.719   4.758  0.2167 -0.3109 -0.0312
  158OSM   C18S17707   1.628   0.926   4.816  0.0705  0.0063  0.2197
  158OSM   H18S17708   1.679   1.018   4.779 -1.5557  1.5717  1.6557
  158OSM   H18T17709   1.663   0.912   4.921 -0.6961 -0.1733  0.4585
  158OSM   H18U17710   1.520   0.952   4.816  0.8097  3.7261  1.3813
  158OSM    C1F17711   1.881   1.508   3.503  0.1315 -0.3836 -0.2601
  158OSM     OF17712   1.846   1.602   3.429  0.1830  0.1605  0.3944
  158OSM    C2F17713   1.893   1.530   3.651  0.4372  0.3370  0.2829
  158OSM    H2F17714   1.983   1.481   3.693 -0.9137 -0.7356  2.0250
  158OSM    H2G17715   1.815   1.470   3.701  0.5121  0.2186  0.2578
  158OSM    C3F17716   1.869   1.678   3.674  0.1863 -0.4238 -0.2827
  158OSM    H3F17717   1.769   1.711   3.638  1.6305  3.1949 -1.4500
  158OSM    H3G17718   1.940   1.750   3.628  0.1278  0.5903  1.1262
  158OSM    C4F17719   1.877   1.717   3.824  0.4955  0.1867 -0.1515
  158OSM    H4F17720   1.817   1.646   3.885  0.9600 -1.4945 -1.5402
  158OSM    H4G17721   1.838   1.819   3.840  0.2646 -0.1845  2.0124
  158OSM    C5F17722   2.023   1.731   3.874  0.0110 -0.0308 -0.1609
  158OSM    H5F17723   2.084   1.793   3.805  0.0837 -0.1549 -0.2088
  158OSM    H5G17724   2.078   1.634   3.881 -0.7145 -0.6069 -1.9043
  158OSM    C6F17725   2.015   1.791   4.020 -0.0199 -0.3349 -0.0373
  158OSM    H6F17726   1.937   1.871   4.015 -1.5906 -1.8726 -1.3350
  158OSM    H6G17727   2.110   1.831   4.063 -0.5686 -1.0480  1.9713
  158OSM    C7F17728   1.953   1.693   4.122  0.2290 -0.3497 -0.4727
  158OSM    H7F17729   1.887   1.618   4.072  0.6334 -1.1180  0.1307
  158OSM    H7G17730   1.910   1.737   4.215 -0.0723 -0.5079 -0.5371
  158OSM    C8F17731   2.070   1.611   4.192 -0.0922  0.0362  0.3955
  158OSM    H8F17732   2.131   1.683   4.250 -0.4953 -0.4523  1.4588
  158OSM    H8G17733   2.132   1.568   4.110 -0.0124 -0.3533  0.6569
  158OSM    C9F17734   2.000   1.511   4.284 -0.3525 -0.0273  0.1878
  158OSM    H9F17735   1.913   1.455   4.245 -1.6281  2.4044 -0.6948
  158OSM   C10F17736   2.020   1.501   4.419  0.5565  0.5509  0.6020
  158OSM   H10F17737   1.956   1.433   4.476  1.6170 -2.0362 -1.0950
  158OSM   C11F17738   2.127   1.581   4.493 -0.0878  0.5691  0.7763
  158OSM   H11F17739   2.219   1.595   4.433  0.2256  0.1148  1.1499
  158OSM   H11G17740   2.158   1.522   4.581  1.2961  0.9792  0.5790
  158OSM   C12F17741   2.059   1.712   4.535 -0.4735 -0.0862 -0.6450
  158OSM   H12F17742   1.976   1.686   4.604 -0.5298 -0.0427 -0.6964
  158OSM   H12G17743   2.010   1.767   4.452 -1.8082  0.7174  0.6288
  158OSM   C13F17744   2.152   1.819   4.604 -0.5010 -0.0117  0.9099
  158OSM   H13F17745   2.180   1.883   4.517  2.3220 -0.3515  1.4954
  158OSM   H13G17746   2.240   1.757   4.629 -1.1897 -0.5624  2.0536
  158OSM   C14F17747   2.084   1.891   4.721  0.2107 -1.2047 -0.0445
  158OSM   H14F17748   1.986   1.931   4.686  1.3131  1.1021 -0.6853
  158OSM   H14G17749   2.139   1.983   4.752  0.1392 -1.6402  1.4239
  158OSM   C15F17750   2.060   1.803   4.846 -0.0519  0.0995  0.2766
  158OSM   H15F17751   2.155   1.756   4.878  0.6871  0.1133 -1.7435
  158OSM   H15G17752   1.990   1.723   4.813 -1.2040  1.1656  0.0816
  158OSM   C16F17753   1.993   1.870   4.966 -0.1885 -0.4609  0.2565
  158OSM   H16F17754   1.980   1.804   5.055  1.2064 -0.2708  0.6276
  158OSM   H16G17755   1.889   1.896   4.938 -1.0717 -1.9756  1.9237
  158OSM   C17F17756   2.078   1.991   5.007  0.6650  0.1062  0.0476
  158OSM   H17F17757   2.100   2.064   4.926  2.8394 -0.1673  0.3084
  158OSM   H17G17758   2.171   1.944   5.046  0.3771 -1.5358 -1.1517
  158OSM   C18F17759   2.019   2.064   5.124  0.6851 -0.2674 -0.0292
  158OSM   H18F17760   1.967   1.986   5.184 -0.7667 -0.3404 -1.3234
  158OSM   H18G17761   1.948   2.138   5.082  2.1104  0.9127 -0.4259
  158OSM   H18H17762   2.097   2.120   5.179  1.1813 -1.1302  0.1629
  159OSM      N17763   4.916   2.937   2.867  0.0394  0.3024  0.1652
  159OSM    C1517764   4.767   2.947   2.857  0.4301  0.4443 -0.7103
  159OSM   H15A17765   4.734   3.047   2.883  0.9758  0.1362  1.3544
  159OSM   H15B17766   4.720   2.878   2.925  2.3043  0.9594  1.2666
  159OSM   H15C17767   4.723   2.923   2.762 -1.9118  2.8339 -0.3355
  159OSM    C1417768   4.967   2.801   2.848 -0.8002  0.5201 -0.1862
  159OSM   H14A17769   4.930   2.764   2.753 -1.0866  0.4234 -0.0390
  159OSM   H14B17770   4.928   2.731   2.920  1.5522 -1.1990 -0.4933
  159OSM   H14C17771   5.074   2.793   2.856 -0.7081  1.8366  0.2882
  159OSM    C1317772   4.967   3.020   2.755 -0.3906 -0.4815  0.9993
  159OSM   H13A17773   5.074   3.031   2.761 -0.4536  1.0828 -0.0043
  159OSM   H13B17774   4.933   3.123   2.754 -2.3609 -1.0907  0.2477
  159OSM   H13C17775   4.940   2.972   2.662 -0.1388  1.7672 -0.3096
  159OSM    C1217776   4.964   2.979   3.006  0.3717 -0.0319  0.4165
  159OSM   H12A17777   4.935   3.077   3.040  1.2126  0.7502 -0.9884
  159OSM   H12B17778   5.072   2.985   3.009  0.3258  1.4895 -0.1438
  159OSM    C1117779   4.924   2.899   3.133 -0.4586  0.7376  0.7242
  159OSM   H11A17780   4.971   2.931   3.228  0.9699 -1.1573  0.7275
  159OSM   H11B17781   4.975   2.801   3.116 -4.1724 -1.1220 -0.8799
  159OSM      P17782   4.696   2.983   3.218 -0.1088  0.0578 -0.1664
  159OSM    O1317783   4.759   3.111   3.195  0.0385  0.3084  0.5416
  159OSM    O1417784   4.555   2.968   3.185 -0.0556  0.2889 -0.1319
  159OSM    O1117785   4.720   2.938   3.366  0.1056 -0.0378  0.1959
  159OSM    O1217786   4.784   2.874   3.143  0.7569  0.3372 -0.3503
  159OSM    C1S17787   4.696   2.798   3.400 -0.0084 -0.0694 -0.9516
  159OSM    H1S17788   4.787   2.740   3.374 -0.1116 -0.6732 -0.0435
  159OSM    H1T17789   4.619   2.745   3.340 -0.0279 -1.7740  0.4693
  159OSM     NF17790   4.708   2.649   3.598 -0.4276 -0.4042 -0.2587
  159OSM    HNF17791   4.645   2.572   3.591 -0.0199 -0.8093  0.3858
  159OSM    C2S17792   4.660   2.775   3.556  0.2198 -0.3502  0.5730
  159OSM    H2S17793   4.727   2.847   3.608  0.0429  0.6168 -0.5019
  159OSM    C3S17794   4.505   2.791   3.585 -0.1309  0.5771 -0.2867
  159OSM    H3S17795   4.450   2.709   3.534 -1.4304  1.4343 -0.3109
  159OSM     O317796   4.439   2.902   3.528 -0.1562  0.0035 -0.2779
  159OSM    HO317797   4.502   2.953   3.477  0.1854  2.3842  2.2316
  159OSM    C4S17798   4.477   2.772   3.733  0.3907 -1.5165  0.5921
  159OSM    H4S17799   4.521   2.849   3.798  0.1883 -1.1569  0.3017
  159OSM    C5S17800   4.392   2.682   3.793 -0.2754 -0.2386 -0.9974
  159OSM    H5S17801   4.353   2.600   3.731  0.4056 -0.7120 -0.8014
  159OSM    C6S17802   4.371   2.690   3.942 -0.1092 -0.5737 -0.1791
  159OSM    H6S17803   4.265   2.669   3.968 -0.1478  0.9109  0.9856
  159OSM    H6T17804   4.388   2.794   3.975 -0.9156 -0.3920 -0.3165
  159OSM    C7S17805   4.451   2.592   4.024 -0.5327 -0.4881  0.4987
  159OSM    H7S17806   4.557   2.612   3.998 -0.4675 -0.9265  0.4162
  159OSM    H7T17807   4.423   2.491   3.984  0.3951 -0.0008 -1.5346
  159OSM    C8S17808   4.435   2.615   4.177  0.4036 -0.4170  0.1677
  159OSM    H8S17809   4.335   2.573   4.204  0.8632 -1.8424 -0.2204
  159OSM    H8T17810   4.447   2.725   4.182 -0.4765 -0.3018 -0.0705
  159OSM    C9S17811   4.537   2.545   4.263 -0.5571 -0.3556  0.6450
  159OSM    H9S17812   4.638   2.589   4.246 -1.3566  1.1435 -0.4900
  159OSM    H9T17813   4.545   2.441   4.225 -0.3235  0.7025 -2.5455
  159OSM   C10S17814   4.492   2.547   4.405 -0.0814  0.1353  0.0252
  159OSM   H10S17815   4.386   2.516   4.400  0.4086 -1.5177 -0.8435
  159OSM   H10T17816   4.496   2.653   4.438  0.5518  0.2215 -0.2977
  159OSM   C11S17817   4.566   2.451   4.501 -0.0241  0.2505 -0.2277
  159OSM   H11S17818   4.674   2.468   4.479  0.3194 -1.9497 -0.4415
  159OSM   H11T17819   4.563   2.342   4.480 -1.5754  0.3175 -0.4545
  159OSM   C12S17820   4.536   2.463   4.648 -0.4024  0.4121 -0.2532
  159OSM   H12S17821   4.426   2.456   4.665 -1.1785  1.7770 -3.7662
  159OSM   H12T17822   4.561   2.563   4.691  1.2008  0.2644 -0.7824
  159OSM   C13S17823   4.635   2.371   4.728 -0.1359  0.4774 -0.2202
  159OSM   H13S17824   4.741   2.396   4.709  0.1874  1.0267  2.0330
  159OSM   H13T17825   4.624   2.264   4.700 -0.1043  0.6527 -0.9250
  159OSM   C14S17826   4.623   2.378   4.884 -0.4514  0.5564  0.2341
  159OSM   H14S17827   4.520   2.368   4.926  0.3464  0.7970  2.3705
  159OSM   H14T17828   4.668   2.471   4.924  1.3347  0.1934 -0.8097
  159OSM   C15S17829   4.698   2.262   4.952  0.5677 -0.3808  0.1875
  159OSM   H15S17830   4.804   2.251   4.921  0.5350  0.4912 -0.2683
  159OSM   H15T17831   4.651   2.161   4.957  2.7258 -1.4370  0.2340
  159OSM   C16S17832   4.719   2.291   5.101  0.9761 -0.4861 -0.2275
  159OSM   H16S17833   4.621   2.318   5.145  0.3986 -1.9885 -0.5392
  159OSM   H16T17834   4.784   2.380   5.112  1.6940 -1.0511  0.2754
  159OSM   C17S17835   4.779   2.178   5.192  0.5121  0.2086 -0.1620
  159OSM   H17S17836   4.887   2.173   5.165  0.1822  1.4703 -1.9013
  159OSM   H17T17837   4.726   2.086   5.160  2.7113 -0.5430 -1.8968
  159OSM   C18S17838   4.765   2.184   5.342 -0.0520  0.0812  0.7945
  159OSM   H18S17839   4.782   2.082   5.383 -0.1956  0.9798  3.2540
  159OSM   H18T17840   4.669   2.224   5.380 -0.7303 -0.4897 -0.2769
  159OSM   H18U17841   4.841   2.252   5.387  0.9247 -0.5097  0.0849
  159OSM    C1F17842   4.835   2.612   3.602 -0.1594 -0.0628 -0.1383
  159OSM     OF17843   4.926   2.692   3.589 -0.2310 -0.1608  0.1766
  159OSM    C2F17844   4.866   2.469   3.617 -1.1232 -0.1651 -0.1359
  159OSM    H2F17845   4.886   2.432   3.514  0.0184 -1.4668  0.5164
  159OSM    H2G17846   4.785   2.410   3.665 -0.3030 -1.4324 -0.2494
  159OSM    C3F17847   4.998   2.446   3.691  0.3180  0.0487  0.2628
  159OSM    H3F17848   5.085   2.498   3.643  0.2813  1.1737  1.3709
  159OSM    H3G17849   5.020   2.338   3.697  1.2965  0.3218  2.7685
  159OSM    C4F17850   4.996   2.480   3.842 -0.7690 -0.8515  0.0439
  159OSM    H4F17851   5.014   2.588   3.859  0.0577 -1.3497  2.7234
  159OSM    H4G17852   5.088   2.433   3.880 -0.9341  0.1027  1.7271
  159OSM    C5F17853   4.889   2.423   3.934  0.1471  0.5001  0.6920
  159OSM    H5F17854   4.887   2.312   3.923 -1.5209  0.7011 -2.4790
  159OSM    H5G17855   4.785   2.454   3.909 -1.1619 -4.1772 -0.6684
  159OSM    C6F17856   4.908   2.471   4.078 -0.5067 -0.2341 -0.2174
  159OSM    H6F17857   4.804   2.482   4.115 -0.6271 -1.3470 -0.2083
  159OSM    H6G17858   4.959   2.569   4.095  1.7126 -1.5642  1.4766
  159OSM    C7F17859   4.990   2.383   4.172 -0.2277  0.9337  0.1717
  159OSM    H7F17860   5.090   2.425   4.195  0.7405 -1.5601  0.8242
  159OSM    H7G17861   5.024   2.296   4.112 -3.6761  1.5272 -2.9966
  159OSM    C8F17862   4.924   2.365   4.311  0.6527 -0.1464 -0.1115
  159OSM    H8F17863   4.838   2.296   4.294  0.8884 -0.3156 -0.6344
  159OSM    H8G17864   4.881   2.463   4.341  1.8813 -0.4383  3.0549
  159OSM    C9F17865   5.018   2.318   4.417 -0.3838 -0.1297 -0.1345
  159OSM    H9F17866   5.042   2.213   4.394 -0.1532 -0.4383  1.3653
  159OSM   C10F17867   5.058   2.383   4.529 -0.0817  0.2840 -0.2881
  159OSM   H10F17868   5.135   2.340   4.594 -0.6218 -0.9009 -0.4023
  159OSM   C11F17869   5.021   2.518   4.583  0.0264 -0.5014 -0.0769
  159OSM   H11F17870   4.919   2.544   4.549 -0.6400 -1.2024  1.3020
  159OSM   H11G17871   5.087   2.603   4.555 -1.0589  0.7046  0.9233
  159OSM   C12F17872   5.007   2.509   4.736 -0.1721  0.1013 -0.2598
  159OSM   H12F17873   5.108   2.498   4.782 -0.7787 -0.2549  1.0155
  159OSM   H12G17874   4.964   2.416   4.780  2.8309 -1.2624  0.0408
  159OSM   C13F17875   4.939   2.629   4.794  0.3754  0.1874 -1.0945
  159OSM   H13F17876   4.833   2.632   4.761  0.2419 -2.0843 -1.0512
  159OSM   H13G17877   4.994   2.722   4.770  0.8191  0.5424  1.1008
  159OSM   C14F17878   4.928   2.622   4.945 -0.0306  0.1373  0.3323
  159OSM   H14F17879   4.895   2.518   4.965  1.3648 -0.1160  1.5084
  159OSM   H14G17880   4.835   2.676   4.973  0.1574  0.9279 -0.5219
  159OSM   C15F17881   5.054   2.646   5.021 -0.5525 -0.3735  0.0298
  159OSM   H15F17882   5.071   2.751   5.053 -0.2355 -0.8828  1.6370
  159OSM   H15G17883   5.142   2.607   4.965  0.9230  1.0810  1.2377
  159OSM   C16F17884   5.061   2.577   5.157 -1.2212  0.7504  0.6780
  159OSM   H16F17885   5.159   2.599   5.206 -1.5579  1.3447  1.1052
  159OSM   H16G17886   5.049   2.468   5.144 -2.5993  0.9482  0.1735
  159OSM   C17F17887   4.956   2.639   5.250  0.0838  0.6600  0.4200
  159OSM   H17F17888   4.855   2.647   5.203  0.7638  0.3837 -1.1246
  159OSM   H17G17889   4.977   2.748   5.254 -0.3911  0.7279  1.7239
  159OSM   C18F17890   4.950   2.578   5.391  0.3425 -0.4346 -0.0594
  159OSM   H18F17891   4.898   2.482   5.409 -0.5086 -0.5401 -2.7372
  159OSM   H18G17892   4.899   2.654   5.454  0.3135 -0.9911  0.5975
  159OSM   H18H17893   5.053   2.571   5.434  0.3192  0.0221  0.0835
  160OSM      N17894   1.703   3.095   2.971 -0.0189  0.7422 -0.1498
  160OSM    C1517895   1.671   3.208   3.054 -0.4180 -0.2523  0.4552
  160OSM   H15A17896   1.635   3.191   3.155 -2.2482  0.0797 -0.1183
  160OSM   H15B17897   1.598   3.268   3.001  0.7707  0.1413 -0.7895
  160OSM   H15C17898   1.760   3.269   3.060  0.5631 -1.3265 -2.0502
  160OSM    C1417899   1.580   3.014   2.968 -0.4023 -0.0835 -0.2008
  160OSM   H14A17900   1.501   3.080   2.935  0.8598  2.8555  2.1251
  160OSM   H14B17901   1.550   2.983   3.067  2.1857 -1.2994  0.3055
  160OSM   H14C17902   1.581   2.924   2.910 -1.6128 -0.9983  1.1137
  160OSM    C1317903   1.738   3.132   2.831  0.4644 -0.3840  0.5314
  160OSM   H13A17904   1.753   3.044   2.770 -0.0284 -2.8427  3.6788
  160OSM   H13B17905   1.834   3.181   2.838 -0.7052  2.2340 -0.7710
  160OSM   H13C17906   1.667   3.204   2.795 -1.5926 -1.5536  2.0596
  160OSM    C1217907   1.826   3.024   3.020 -0.3639  0.7190 -0.1708
  160OSM   H12A17908   1.910   3.092   3.019  0.0523  0.2111 -0.8032
  160OSM   H12B17909   1.840   2.945   2.947  0.1448  0.1489  0.5314
  160OSM    C1117910   1.823   2.965   3.162 -0.1082 -0.2424 -0.1546
  160OSM   H11A17911   1.790   3.037   3.240  0.3241 -0.5196  0.2913
  160OSM   H11B17912   1.929   2.945   3.190  0.6178  1.8295 -1.2426
  160OSM      P17913   1.758   2.722   3.120  0.0149  0.2487  0.0093
  160OSM    O1317914   1.642   2.628   3.155  0.1249 -0.5024  0.5027
  160OSM    O1417915   1.789   2.743   2.973  0.5572 -0.0338 -0.2527
  160OSM    O1117916   1.891   2.663   3.183  0.5954  0.4184  0.1732
  160OSM    O1217917   1.732   2.856   3.187 -0.1060 -0.4930 -0.0380
  160OSM    C1S17918   1.911   2.702   3.321 -0.2293 -0.2947 -0.3161
  160OSM    H1S17919   1.853   2.644   3.395  1.6391  0.5212  1.9262
  160OSM    H1T17920   1.903   2.809   3.348 -0.2764 -0.5700  0.7883
  160OSM     NF17921   2.092   2.706   3.494  0.2559  0.5172  0.1857
  160OSM    HNF17922   2.154   2.782   3.509  0.2470  0.4185  0.7673
  160OSM    C2S17923   2.063   2.677   3.354 -0.3292  0.7233  0.3400
  160OSM    H2S17924   2.075   2.568   3.339 -2.5764  0.4133  0.4309
  160OSM    C3S17925   2.163   2.748   3.262 -0.2188  0.4595 -0.4072
  160OSM    H3S17926   2.160   2.857   3.284 -2.4309  0.3316  0.2104
  160OSM     O317927   2.137   2.751   3.123 -0.5448 -0.3260 -0.2259
  160OSM    HO317928   2.045   2.725   3.121 -0.8709  0.7017  0.7166
  160OSM    C4S17929   2.301   2.688   3.295  0.2770  0.5305 -0.2009
  160OSM    H4S17930   2.368   2.740   3.365  0.6896  1.0136 -0.9422
  160OSM    C5S17931   2.347   2.564   3.258 -0.1660 -0.5791 -1.1279
  160OSM    H5S17932   2.280   2.491   3.210 -0.2440 -0.2592 -1.5057
  160OSM    C6S17933   2.481   2.503   3.312  0.7895  0.0225 -0.1138
  160OSM    H6S17934   2.566   2.551   3.259 -0.3638  1.5907 -0.6444
  160OSM    H6T17935   2.479   2.393   3.304 -0.2419  0.1243 -1.6682
  160OSM    C7S17936   2.508   2.529   3.462  0.0219  0.3606 -0.1233
  160OSM    H7S17937   2.539   2.635   3.471  0.5435  0.5010 -2.8966
  160OSM    H7T17938   2.600   2.475   3.497  0.9258  2.5770  1.1562
  160OSM    C8S17939   2.404   2.492   3.558  0.2863  0.4693 -0.2034
  160OSM    H8S17940   2.358   2.394   3.536  3.5011 -0.9264 -1.4208
  160OSM    H8T17941   2.313   2.555   3.544  0.8626  1.2438 -0.5584
  160OSM    C9S17942   2.450   2.486   3.706 -0.0008 -0.3133 -0.4231
  160OSM    H9S17943   2.503   2.580   3.731  3.0115 -1.7309 -1.0558
  160OSM    H9T17944   2.534   2.414   3.713  1.1406  0.8549 -1.5443
  160OSM   C10S17945   2.337   2.449   3.806 -0.5201  0.3958 -0.3742
  160OSM   H10S17946   2.286   2.359   3.766 -2.2928  0.6463  1.1569
  160OSM   H10T17947   2.253   2.522   3.816 -3.1030 -2.5680  1.0356
  160OSM   C11S17948   2.387   2.422   3.944 -0.0982 -0.0487  0.1347
  160OSM   H11S17949   2.481   2.362   3.946 -0.5155 -0.7070  1.1590
  160OSM   H11T17950   2.308   2.358   3.988 -0.9750  2.8290  3.0939
  160OSM   C12S17951   2.400   2.546   4.039  0.2956  0.6521 -0.2748
  160OSM   H12S17952   2.313   2.615   4.027  1.0437  1.6606 -0.0240
  160OSM   H12T17953   2.495   2.601   4.023 -0.2033  2.0579  1.3014
  160OSM   C13S17954   2.382   2.519   4.185  0.3526  0.4137 -0.5659
  160OSM   H13S17955   2.277   2.488   4.206  0.6828  0.7779  1.8402
  160OSM   H13T17956   2.395   2.620   4.229 -0.1449  0.9269 -1.5612
  160OSM   C14S17957   2.493   2.423   4.232 -0.1269  0.3619  0.2400
  160OSM   H14S17958   2.591   2.473   4.216  0.5451 -0.9730  0.0119
  160OSM   H14T17959   2.491   2.327   4.176  0.8773  0.2653  0.3555
  160OSM   C15S17960   2.471   2.387   4.380  0.8386 -0.6691  0.0358
  160OSM   H15S17961   2.394   2.307   4.387  0.1893 -0.0481  0.1190
  160OSM   H15T17962   2.434   2.477   4.433 -1.0630 -0.7567 -1.0638
  160OSM   C16S17963   2.608   2.347   4.427  0.6477 -0.4664 -0.1439
  160OSM   H16S17964   2.679   2.431   4.418 -0.6306  0.6627  0.0747
  160OSM   H16T17965   2.648   2.262   4.367  0.4670  0.1057 -1.0901
  160OSM   C17S17966   2.609   2.303   4.574  0.1091 -0.1854 -0.6747
  160OSM   H17S17967   2.548   2.213   4.598 -3.6705  2.1835 -0.6095
  160OSM   H17T17968   2.571   2.377   4.647 -0.6224 -2.3814  1.3339
  160OSM   C18S17969   2.750   2.267   4.624 -0.9608 -0.7991  0.1723
  160OSM   H18S17970   2.750   2.222   4.726 -2.4146 -0.9122  0.1402
  160OSM   H18T17971   2.814   2.358   4.624 -2.4657  0.3033  0.7864
  160OSM   H18U17972   2.801   2.186   4.567  1.0723 -1.8262  3.1259
  160OSM    C1F17973   2.025   2.653   3.601  1.3007  0.2391  0.4592
  160OSM     OF17974   1.965   2.545   3.601 -0.2639 -0.3122  0.1904
  160OSM    C2F17975   2.019   2.744   3.721  0.3362  0.2829 -0.0389
  160OSM    H2F17976   2.037   2.848   3.687 -1.7213  0.1781 -1.6795
  160OSM    H2G17977   2.109   2.718   3.780 -0.0167  0.1214  0.4286
  160OSM    C3F17978   1.891   2.736   3.801  0.2447  0.1022 -0.2377
  160OSM    H3F17979   1.875   2.633   3.838  0.2555  0.8791  2.1734
  160OSM    H3G17980   1.805   2.764   3.736 -0.7346 -1.2043  0.4383
  160OSM    C4F17981   1.890   2.819   3.927  0.3901 -0.1493 -0.3240
  160OSM    H4F17982   1.783   2.823   3.957  0.2384 -1.8762 -0.5327
  160OSM    H4G17983   1.922   2.924   3.913  1.7677 -0.6027 -0.7282
  160OSM    C5F17984   1.967   2.766   4.051  0.0081  0.0296  0.7982
  160OSM    H5F17985   2.069   2.730   4.025  0.7039  0.8728  2.2261
  160OSM    H5G17986   1.906   2.676   4.076 -0.8839  0.5342  0.4883
  160OSM    C6F17987   1.990   2.848   4.174  0.2555 -0.4088 -0.2969
  160OSM    H6F17988   1.892   2.865   4.222  0.7773  1.5146  0.1915
  160OSM    H6G17989   2.033   2.950   4.159 -0.7655 -0.0825 -1.1161
  160OSM    C7F17990   2.058   2.770   4.283 -0.5285 -0.4824  0.0223
  160OSM    H7F17991   2.168   2.787   4.275 -0.7883  1.6614  0.3002
  160OSM    H7G17992   2.032   2.663   4.278 -0.8654 -0.3732 -0.5618
  160OSM    C8F17993   2.003   2.812   4.426  0.4311 -0.0447 -0.0763
  160OSM    H8F17994   2.054   2.746   4.500  0.1941  0.8475  0.9048
  160OSM    H8G17995   1.899   2.773   4.431  0.8608 -1.4264 -1.0814
  160OSM    C9F17996   1.998   2.955   4.465  0.0809 -0.3121 -0.3592
  160OSM    H9F17997   1.965   3.023   4.385  1.5165  2.6718  1.4270
  160OSM   C10F17998   2.025   2.998   4.590  0.2372 -0.6878  0.9144
  160OSM   H10F17999   2.030   3.108   4.600 -2.1481 -0.4532  0.0314
  160OSM   C11F18000   2.062   2.916   4.712  0.4999 -0.1830  0.8028
  160OSM   H11F18001   2.075   2.809   4.683 -1.7845 -0.5255  0.8714
  160OSM   H11G18002   1.983   2.905   4.789  1.0715 -1.4824  1.2326
  160OSM   C12F18003   2.198   2.965   4.772 -0.0751 -0.3729  0.0654
  160OSM   H12F18004   2.272   2.977   4.690 -0.1388 -0.3627  0.0090
  160OSM   H12G18005   2.224   2.880   4.839 -2.4571 -2.4777 -1.5000
  160OSM   C13F18006   2.188   3.090   4.852  0.2143 -0.0522 -0.2309
  160OSM   H13F18007   2.129   3.077   4.945 -0.6878  2.1379 -0.4159
  160OSM   H13G18008   2.140   3.166   4.786 -0.2047 -1.0281 -1.0877
  160OSM   C14F18009   2.326   3.130   4.904 -0.0612  0.2686  0.1169
  160OSM   H14F18010   2.387   3.157   4.815  1.8959 -1.1596  0.9567
  160OSM   H14G18011   2.369   3.032   4.933  0.1446  0.1999 -0.4163
  160OSM   C15F18012   2.340   3.234   5.012 -0.2134 -0.0790 -0.0113
  160OSM   H15F18013   2.444   3.229   5.049 -0.7870 -0.3500  1.7010
  160OSM   H15G18014   2.289   3.208   5.108  1.8165 -1.9786  0.6476
  160OSM   C16F18015   2.319   3.387   4.975 -1.0290  0.8600  0.0402
  160OSM   H16F18016   2.262   3.398   4.880 -0.6712 -0.5261 -0.3611
  160OSM   H16G18017   2.411   3.449   4.963 -1.9811  2.1847 -0.6553
  160OSM   C17F18018   2.241   3.451   5.092 -0.2921 -0.0476 -0.4264
  160OSM   H17F18019   2.289   3.415   5.185  1.8578  1.0567 -1.0519
  160OSM   H17G18020   2.135   3.416   5.091 -0.4404  0.2384  1.4767
  160OSM   C18F18021   2.253   3.602   5.095  1.2459  0.8461 -0.5973
  160OSM   H18F18022   2.358   3.638   5.093  1.7894 -0.7304 -2.3673
  160OSM   H18G18023   2.202   3.638   5.188  0.2445 -0.6175 -0.5562
  160OSM   H18H18024   2.222   3.652   5.001  0.9100 -0.3235 -1.1202
  161OSM      N18025   5.492   1.144   2.944  0.7145 -0.0222  0.4669
  161OSM    C1518026   5.455   1.284   2.971 -0.0043  0.0440  0.0697
  161OSM   H15A18027   5.495   1.326   3.062  0.0896  0.8806 -0.3487
  161OSM   H15B18028   5.347   1.297   2.976 -0.0143 -0.0576  0.1275
  161OSM   H15C18029   5.473   1.350   2.887 -1.9962 -2.5466 -2.6123
  161OSM    C1418030   5.454   1.055   3.054 -0.0595 -0.6366 -0.0660
  161OSM   H14A18031   5.454   0.952   3.020 -0.4148 -0.6823  0.0718
  161OSM   H14B18032   5.363   1.084   3.103  0.8929  0.7860  0.9523
  161OSM   H14C18033   5.530   1.063   3.131  0.2460  2.6639 -0.5719
  161OSM    C1318034   5.426   1.095   2.824 -0.1767 -0.4354 -0.2580
  161OSM   H13A18035   5.434   1.160   2.737 -1.3540 -0.9031 -0.7431
  161OSM   H13B18036   5.319   1.088   2.838 -0.6811 -0.9447 -3.4083
  161OSM   H13C18037   5.460   0.996   2.796 -0.0072 -0.2172 -0.8418
  161OSM    C1218038   5.645   1.126   2.921  0.0718 -0.6198 -0.2904
  161OSM   H12A18039   5.660   1.028   2.879 -0.0288 -0.4217 -0.7903
  161OSM   H12B18040   5.703   1.136   3.011 -2.2478  0.5628  1.1997
  161OSM    C1118041   5.723   1.224   2.830 -0.3341 -0.5544  0.1656
  161OSM   H11A18042   5.679   1.214   2.728 -0.3709 -0.7410  0.1995
  161OSM   H11B18043   5.828   1.188   2.818 -0.2095 -0.1153 -0.0819
  161OSM      P18044   5.850   1.430   2.924 -0.3495 -0.3441 -0.3706
  161OSM    O1318045   5.962   1.366   2.855 -0.0015  0.4914  0.0114
  161OSM    O1418046   5.834   1.579   2.916  0.1668 -0.1790 -0.4838
  161OSM    O1118047   5.856   1.389   3.071 -0.2362 -0.2322  0.6567
  161OSM    O1218048   5.721   1.362   2.865  0.1116 -0.4122  0.3443
  161OSM    C1S18049   5.760   1.376   3.173  0.3149 -0.0301 -0.1856
  161OSM    H1S18050   5.720   1.272   3.175  0.7748 -0.2131 -0.3283
  161OSM    H1T18051   5.674   1.446   3.162 -0.3312 -0.5477  1.3467
  161OSM     NF18052   5.734   1.360   3.428  0.2180  0.1344 -0.1058
  161OSM    HNF18053   5.706   1.439   3.482  1.2149 -0.9259  2.0928
  161OSM    C2S18054   5.824   1.403   3.322  0.1397  0.0423  0.4917
  161OSM    H2S18055   5.906   1.328   3.321  0.9316  0.8623 -1.8117
  161OSM    C3S18056   5.890   1.542   3.346 -0.3531  0.4511  0.9787
  161OSM    H3S18057   5.799   1.606   3.345 -0.8388 -0.0606 -3.0345
  161OSM     O318058   5.966   1.578   3.228 -0.3407  0.6888 -0.1776
  161OSM    HO318059   5.940   1.522   3.155  0.0157  2.0294 -1.3773
  161OSM    C4S18060   5.968   1.561   3.480  0.6673 -0.0435 -0.3625
  161OSM    H4S18061   5.922   1.618   3.563  1.6545 -2.5018  2.0187
  161OSM    C5S18062   6.096   1.528   3.498 -0.9441 -0.6912 -0.4265
  161OSM    H5S18063   6.149   1.466   3.423  1.7798 -0.9387  1.5381
  161OSM    C6S18064   6.179   1.540   3.624 -0.1290  0.3897 -0.2899
  161OSM    H6S18065   6.263   1.613   3.620  0.3751 -0.0193  1.7843
  161OSM    H6T18066   6.228   1.440   3.620  0.8033  0.8575 -2.3715
  161OSM    C7S18067   6.099   1.560   3.755 -0.1135  0.0917  0.4303
  161OSM    H7S18068   6.012   1.492   3.768  1.1657 -1.3129  1.9938
  161OSM    H7T18069   6.047   1.658   3.749 -2.4162 -1.1175 -1.0006
  161OSM    C8S18070   6.182   1.551   3.887 -0.0414  0.4847 -0.4801
  161OSM    H8S18071   6.262   1.626   3.874  0.8492 -0.5548 -1.1897
  161OSM    H8T18072   6.222   1.447   3.900 -0.8833  0.3234  1.0424
  161OSM    C9S18073   6.108   1.581   4.023 -0.5056  0.3838 -0.0132
  161OSM    H9S18074   6.020   1.515   4.037  0.4492 -0.5302  2.1643
  161OSM    H9T18075   6.075   1.685   4.000 -0.4343  0.3151 -0.4500
  161OSM   C10S18076   6.199   1.567   4.141 -0.6682 -0.2102 -0.7382
  161OSM   H10S18077   6.285   1.638   4.139 -0.1138 -0.8265  0.3504
  161OSM   H10T18078   6.228   1.460   4.138  0.5353  0.0736  0.0711
  161OSM   C11S18079   6.135   1.586   4.278 -0.0145 -0.0856  0.2094
  161OSM   H11S18080   6.029   1.555   4.290 -0.0394 -0.2920 -0.5355
  161OSM   H11T18081   6.136   1.694   4.306  1.4542 -0.2935  1.0818
  161OSM   C12S18082   6.211   1.519   4.392 -0.7538  0.3446 -0.4366
  161OSM   H12S18083   6.317   1.547   4.375  0.2171 -0.8901  2.8263
  161OSM   H12T18084   6.211   1.408   4.382  0.8605  0.4111 -1.3616
  161OSM   C13S18085   6.179   1.571   4.533  0.9486  0.1870  0.1418
  161OSM   H13S18086   6.078   1.539   4.569  0.3557  0.1008 -1.5045
  161OSM   H13T18087   6.173   1.682   4.536  3.1396  0.3190  1.8724
  161OSM   C14S18088   6.273   1.529   4.641 -0.0934 -0.1363  0.1308
  161OSM   H14S18089   6.370   1.583   4.632 -0.2325 -0.1048 -1.3227
  161OSM   H14T18090   6.290   1.420   4.626 -1.2854 -0.6450  2.1249
  161OSM   C15S18091   6.225   1.546   4.782 -0.1411 -0.1117  1.1861
  161OSM   H15S18092   6.292   1.482   4.843 -1.1274 -1.0445  1.3038
  161OSM   H15T18093   6.120   1.511   4.787  0.8770 -4.6051 -2.1422
  161OSM   C16S18094   6.257   1.682   4.834  0.6427  0.1107 -0.3708
  161OSM   H16S18095   6.206   1.760   4.773  1.3612  2.1418  1.5109
  161OSM   H16T18096   6.366   1.705   4.835  0.8664 -0.9275  0.2473
  161OSM   C17S18097   6.210   1.691   4.976  0.1271 -0.5018 -0.1313
  161OSM   H17S18098   6.105   1.655   4.970  0.0511  0.0111 -4.0528
  161OSM   H17T18099   6.223   1.798   5.002  0.9712  0.0056 -2.4063
  161OSM   C18S18100   6.286   1.629   5.090 -0.0487  0.1544  0.5402
  161OSM   H18S18101   6.347   1.701   5.149  0.0308  1.5550 -1.1510
  161OSM   H18T18102   6.353   1.553   5.044 -0.2591  0.2493  0.0664
  161OSM   H18U18103   6.222   1.577   5.164  0.8010 -0.5103  0.8310
  161OSM    C1F18104   5.673   1.244   3.430  0.1868 -0.6549  0.4326
  161OSM     OF18105   5.725   1.141   3.413  0.2178  0.5897  0.2979
  161OSM    C2F18106   5.530   1.260   3.461  0.6580 -0.1181  1.3869
  161OSM    H2F18107   5.473   1.221   3.374  0.1082 -0.7313  2.0122
  161OSM    H2G18108   5.514   1.370   3.463  1.7284  0.4295 -3.9969
  161OSM    C3F18109   5.496   1.193   3.597 -0.1040  0.1575  0.1850
  161OSM    H3F18110   5.575   1.193   3.674  0.3522  0.9936 -0.2694
  161OSM    H3G18111   5.489   1.087   3.562  0.8377  0.2353 -0.2951
  161OSM    C4F18112   5.357   1.235   3.650 -0.8118  0.1830 -0.2694
  161OSM    H4F18113   5.288   1.244   3.563  0.8619 -0.8768 -1.7907
  161OSM    H4G18114   5.357   1.336   3.695  0.3337  0.4069 -0.7370
  161OSM    C5F18115   5.297   1.127   3.741 -0.2576  0.7614  0.2941
  161OSM    H5F18116   5.292   1.032   3.685  0.8757  1.7328 -1.5507
  161OSM    H5G18117   5.195   1.161   3.770 -1.0605 -0.7654 -0.6047
  161OSM    C6F18118   5.376   1.094   3.870 -0.1443 -0.1424 -0.0554
  161OSM    H6F18119   5.380   1.185   3.934  1.5244 -0.9387  1.0488
  161OSM    H6G18120   5.482   1.080   3.840  1.0165  2.4412  2.3122
  161OSM    C7F18121   5.334   0.976   3.961  0.0280  0.4315 -0.1435
  161OSM    H7F18122   5.304   0.884   3.908  2.1738  0.3510 -1.3224
  161OSM    H7G18123   5.243   1.015   4.012 -1.9817 -0.1450 -3.0229
  161OSM    C8F18124   5.444   0.934   4.063  0.0363 -0.3066 -0.0296
  161OSM    H8F18125   5.534   0.908   4.003  1.9333  1.7340  1.7601
  161OSM    H8G18126   5.408   0.850   4.125  1.0807  1.6427  3.5048
  161OSM    C9F18127   5.483   1.051   4.153 -0.1663 -0.1863 -0.1162
  161OSM    H9F18128   5.557   1.121   4.112  2.3006  0.3733  4.5537
  161OSM   C10F18129   5.447   1.085   4.276  0.3979 -0.0887 -0.2823
  161OSM   H10F18130   5.484   1.173   4.330  1.3075 -0.5567 -0.1326
  161OSM   C11F18131   5.345   1.007   4.360  0.6051 -0.2673  0.5035
  161OSM   H11F18132   5.338   0.900   4.330  4.4978 -0.0369 -1.8622
  161OSM   H11G18133   5.246   1.054   4.339  0.4947 -0.5422  0.4087
  161OSM   C12F18134   5.376   1.028   4.517  0.4901  0.3368 -0.2320
  161OSM   H12F18135   5.297   0.964   4.561 -0.5147  0.7168 -1.4070
  161OSM   H12G18136   5.362   1.128   4.562  0.3313  0.6213 -0.8918
  161OSM   C13F18137   5.511   0.971   4.560  0.0764  0.0605  0.0082
  161OSM   H13F18138   5.577   1.058   4.583  0.3015 -0.6185  2.1516
  161OSM   H13G18139   5.550   0.913   4.473 -4.1531  0.9677 -2.7963
  161OSM   C14F18140   5.509   0.885   4.688  0.2912  0.3738  0.7363
  161OSM   H14F18141   5.617   0.869   4.711  0.6330  0.8636 -0.4589
  161OSM   H14G18142   5.461   0.786   4.672  2.4250 -0.5986 -0.0108
  161OSM   C15F18143   5.445   0.954   4.806 -0.6766  0.4963  0.3146
  161OSM   H15F18144   5.341   0.980   4.776  0.1217  2.3486 -1.0054
  161OSM   H15G18145   5.491   1.055   4.821 -0.7458  0.7402 -1.0008
  161OSM   C16F18146   5.444   0.867   4.928 -0.1065  0.1424  0.2628
  161OSM   H16F18147   5.380   0.781   4.901  0.5453 -0.0096 -0.8356
  161OSM   H16G18148   5.393   0.924   5.009 -1.2676 -1.6680  0.8569
  161OSM   C17F18149   5.586   0.819   4.978  0.5225 -0.4531 -0.3915
  161OSM   H17F18150   5.644   0.766   4.900 -1.0294 -1.5112 -0.8788
  161OSM   H17G18151   5.557   0.744   5.055 -0.0321  0.5072  0.3716
  161OSM   C18F18152   5.665   0.933   5.046 -0.1375  0.3499 -0.1264
  161OSM   H18F18153   5.768   0.893   5.057  0.3322  1.0092 -1.9075
  161OSM   H18G18154   5.635   0.949   5.152  1.5623 -0.7065  0.5541
  161OSM   H18H18155   5.667   1.028   4.989  0.8224  0.6977  0.4661
  162OSM      N18156   0.641   1.512   3.003 -0.2069 -0.1098  0.2974
  162OSM    C1518157   0.764   1.515   3.084  0.1830  0.1800 -0.3258
  162OSM   H15A18158   0.851   1.483   3.029  0.5357  1.2184 -0.3847
  162OSM   H15B18159   0.765   1.449   3.169  0.6577 -0.8965 -1.1347
  162OSM   H15C18160   0.789   1.609   3.130  1.1360 -0.5064  0.5935
  162OSM    C1418161   0.650   1.637   2.914 -0.0442 -0.2505 -0.3370
  162OSM   H14A18162   0.738   1.625   2.853  1.3048 -1.2905  1.7084
  162OSM   H14B18163   0.649   1.726   2.975  0.6127 -1.4504  1.4815
  162OSM   H14C18164   0.569   1.647   2.843 -0.8830 -0.0734  0.6152
  162OSM    C1318165   0.646   1.392   2.917  0.7100  0.0518  0.0757
  162OSM   H13A18166   0.544   1.370   2.890 -0.2321  0.4568  2.9890
  162OSM   H13B18167   0.669   1.309   2.982  0.3882  0.4834  0.7530
  162OSM   H13C18168   0.712   1.391   2.831  0.9600  1.7499  0.2170
  162OSM    C1218169   0.520   1.517   3.092  0.5449  0.5010 -0.3871
  162OSM   H12A18170   0.434   1.528   3.029  0.1954 -0.2008 -0.0447
  162OSM   H12B18171   0.522   1.603   3.157  1.6043  0.7208 -0.6889
  162OSM    C1118172   0.482   1.392   3.181  0.1933 -0.6569 -0.4847
  162OSM   H11A18173   0.401   1.422   3.251  0.3692 -1.9554  0.3201
  162OSM   H11B18174   0.565   1.363   3.249 -0.3141 -2.9398 -0.7480
  162OSM      P18175   0.312   1.272   3.029 -0.3736 -0.2262  0.0931
  162OSM    O1318176   0.327   1.349   2.900  0.3033 -0.3722  0.3428
  162OSM    O1418177   0.264   1.130   3.020  0.1429  0.5071  0.1022
  162OSM    O1118178   0.205   1.357   3.113 -0.1534  0.9751  0.0250
  162OSM    O1218179   0.450   1.274   3.108  0.5623 -0.3018  0.0668
  162OSM    C1S18180   0.151   1.317   3.236  0.1666  0.5823 -0.7078
  162OSM    H1S18181   0.234   1.292   3.305 -1.8077 -0.1754  1.5297
  162OSM    H1T18182   0.072   1.239   3.230 -0.0630  0.8025 -0.5782
  162OSM     NF18183   0.064   1.393   3.469 -0.1622  0.2999  0.6408
  162OSM    HNF18184  -0.033   1.370   3.478  0.4202 -3.7513 -1.3861
  162OSM    C2S18185   0.091   1.430   3.326 -0.3632 -0.4085  1.0841
  162OSM    H2S18186   0.175   1.502   3.326 -1.3181  0.7576 -0.6197
  162OSM    C3S18187  -0.026   1.503   3.249  0.4235 -0.4358 -0.3600
  162OSM    H3S18188  -0.108   1.428   3.250 -0.3864  0.2353  3.6671
  162OSM     O318189   0.014   1.546   3.119  0.7837  0.0844 -0.1317
  162OSM    HO318190   0.098   1.505   3.097  0.0338 -1.0802 -0.9847
  162OSM    C4S18191  -0.069   1.622   3.326  0.3367 -0.0915 -0.3687
  162OSM    H4S18192  -0.003   1.710   3.319  0.5663 -0.2292  0.0451
  162OSM    C5S18193  -0.186   1.641   3.386  0.1741  0.5873 -0.1603
  162OSM    H5S18194  -0.258   1.558   3.395  0.6522  0.0872 -0.8785
  162OSM    C6S18195  -0.219   1.769   3.457  0.5752 -0.0499 -0.0486
  162OSM    H6S18196  -0.324   1.776   3.494  0.9115 -0.5012  1.0552
  162OSM    H6T18197  -0.206   1.850   3.383  1.0519 -0.0429  0.0416
  162OSM    C7S18198  -0.124   1.785   3.580  0.6729 -0.2426  0.6723
  162OSM    H7S18199  -0.159   1.880   3.627  2.4618  0.1214  1.3307
  162OSM    H7T18200  -0.020   1.796   3.544 -0.1058  1.5910 -1.2696
  162OSM    C8S18201  -0.146   1.668   3.674 -0.4371  0.0963  0.3898
  162OSM    H8S18202  -0.102   1.573   3.637 -0.7329  0.9642 -2.4205
  162OSM    H8T18203  -0.253   1.656   3.702 -0.0701  0.4556  2.0906
  162OSM    C9S18204  -0.080   1.701   3.809  0.0890  0.1636 -0.0178
  162OSM    H9S18205  -0.136   1.796   3.822  0.0446  0.0973  0.2893
  162OSM    H9T18206   0.028   1.725   3.810 -0.0500  0.9851 -1.6057
  162OSM   C10S18207  -0.121   1.606   3.924  0.5430 -0.7357  0.4258
  162OSM   H10S18208  -0.054   1.520   3.908  1.3386 -0.0825  0.2135
  162OSM   H10T18209  -0.227   1.583   3.899  0.2602  2.5387 -2.1090
  162OSM   C11S18210  -0.121   1.670   4.062 -0.3972  0.6691  0.1671
  162OSM   H11S18211  -0.209   1.738   4.071 -1.7287 -0.8982 -0.5448
  162OSM   H11T18212  -0.024   1.726   4.060 -0.7983  1.3791  0.1300
  162OSM   C12S18213  -0.121   1.575   4.174 -0.6538  0.0486 -0.1300
  162OSM   H12S18214  -0.038   1.503   4.160  0.8667  1.7822 -0.4027
  162OSM   H12T18215  -0.216   1.517   4.175 -0.4075 -0.3749 -0.5950
  162OSM   C13S18216  -0.115   1.629   4.322 -0.1996 -0.1894  0.4452
  162OSM   H13S18217  -0.120   1.536   4.382 -2.3682 -1.6829 -1.8252
  162OSM   H13T18218  -0.202   1.694   4.345 -0.9179 -0.3579 -1.5771
  162OSM   C14S18219   0.007   1.718   4.353  0.2733  0.0675 -0.1703
  162OSM   H14S18220   0.019   1.794   4.273  3.3994  0.7990  0.8496
  162OSM   H14T18221   0.097   1.653   4.359  0.3023  0.1150 -0.0974
  162OSM   C15S18222  -0.001   1.805   4.482 -0.1660  0.4049 -0.1357
  162OSM   H15S18223  -0.093   1.867   4.486 -0.1258  0.4072  1.2800
  162OSM   H15T18224   0.083   1.876   4.492 -0.7744  0.9200  1.6531
  162OSM   C16S18225   0.010   1.720   4.613 -0.2496  0.0336  0.4242
  162OSM   H16S18226   0.110   1.675   4.629 -1.1527 -2.2585 -0.0260
  162OSM   H16T18227  -0.045   1.625   4.599  0.7661 -0.7279  1.4025
  162OSM   C17S18228  -0.039   1.785   4.739  0.1600  0.0889 -0.1680
  162OSM   H17S18229  -0.145   1.815   4.723 -0.9823 -2.6569  1.5013
  162OSM   H17T18230   0.017   1.881   4.749 -0.0806  0.3088 -0.8884
  162OSM   C18S18231  -0.029   1.708   4.872 -0.6597  0.1035  0.2068
  162OSM   H18S18232  -0.071   1.766   4.958 -2.1107 -1.2135  0.4351
  162OSM   H18T18233   0.078   1.696   4.897 -0.2708 -0.9556 -1.7538
  162OSM   H18U18234  -0.073   1.606   4.876 -0.8272  0.1879  0.7096
  162OSM    C1F18235   0.159   1.362   3.560  0.1274 -0.3611 -0.5227
  162OSM     OF18236   0.276   1.367   3.534 -0.0678  0.0731  0.0485
  162OSM    C2F18237   0.115   1.304   3.693  0.1039  0.2501 -0.4716
  162OSM    H2F18238   0.080   1.200   3.677 -0.7259  0.8430 -2.9209
  162OSM    H2G18239   0.035   1.372   3.731  0.4099  0.8729 -0.9194
  162OSM    C3F18240   0.241   1.289   3.791 -0.4529  0.1575 -0.4513
  162OSM    H3F18241   0.301   1.383   3.796  1.1132 -0.8498  1.2984
  162OSM    H3G18242   0.316   1.221   3.745 -2.3780 -0.3121 -3.0991
  162OSM    C4F18243   0.220   1.230   3.925  0.0592  0.6370  0.1748
  162OSM    H4F18244   0.298   1.153   3.939 -2.2277 -2.4683 -2.5754
  162OSM    H4G18245   0.122   1.180   3.909  2.1701 -3.0209 -2.7107
  162OSM    C5F18246   0.211   1.319   4.046 -0.3682  0.8158 -0.5141
  162OSM    H5F18247   0.118   1.379   4.037 -0.1615  1.9321  3.1150
  162OSM    H5G18248   0.300   1.384   4.058  0.0952  0.3716 -1.4661
  162OSM    C6F18249   0.185   1.238   4.169  0.3907  0.0704 -0.3286
  162OSM    H6F18250   0.258   1.159   4.195  0.3502  0.1763  0.1358
  162OSM    H6G18251   0.091   1.179   4.166 -0.1348  0.6149  2.4177
  162OSM    C7F18252   0.168   1.336   4.287  0.6185  0.6472  0.9795
  162OSM    H7F18253   0.082   1.400   4.258  1.0804  0.4145 -1.0069
  162OSM    H7G18254   0.250   1.412   4.293 -1.5329  3.4622 -2.0057
  162OSM    C8F18255   0.149   1.264   4.424  0.6571  0.2759 -0.0831
  162OSM    H8F18256   0.238   1.199   4.438  1.7505  0.8337 -3.5026
  162OSM    H8G18257   0.064   1.194   4.418  1.1331 -0.4402  1.0694
  162OSM    C9F18258   0.126   1.362   4.532 -0.8294 -0.0703  1.1172
  162OSM    H9F18259   0.088   1.464   4.516 -0.4705  0.1071  1.3768
  162OSM   C10F18260   0.173   1.341   4.654  0.1948 -0.0429  0.3302
  162OSM   H10F18261   0.139   1.418   4.724 -2.0326 -0.4855 -0.1985
  162OSM   C11F18262   0.250   1.218   4.703  0.1488 -0.9342 -0.2149
  162OSM   H11F18263   0.327   1.178   4.634 -0.9268 -3.1886 -0.2018
  162OSM   H11G18264   0.175   1.137   4.717  1.6591 -2.1195  1.5303
  162OSM   C12F18265   0.314   1.240   4.839 -0.1517  0.0537  0.1340
  162OSM   H12F18266   0.382   1.328   4.838  0.1372 -0.1653  0.0929
  162OSM   H12G18267   0.377   1.151   4.860 -1.3405 -1.0238 -0.6843
  162OSM   C13F18268   0.209   1.255   4.956 -0.6422  0.0255  0.2783
  162OSM   H13F18269   0.136   1.171   4.963  0.5151 -0.9161  1.6911
  162OSM   H13G18270   0.154   1.347   4.928 -1.5277 -0.2672  1.0201
  162OSM   C14F18271   0.270   1.266   5.099  0.6950 -0.0074 -0.1039
  162OSM   H14F18272   0.311   1.168   5.131  1.4398  0.4823  0.4855
  162OSM   H14G18273   0.195   1.298   5.174  0.3856  0.3148 -0.5451
  162OSM   C15F18274   0.376   1.372   5.099  0.1847 -0.0200  0.0076
  162OSM   H15F18275   0.347   1.458   5.035  3.4886 -0.2713 -2.0572
  162OSM   H15G18276   0.464   1.326   5.050  0.9252 -0.2523  1.5137
  162OSM   C16F18277   0.400   1.434   5.240  0.2971  0.5499  0.1370
  162OSM   H16F18278   0.300   1.471   5.273  0.9334  0.2421  2.5168
  162OSM   H16G18279   0.473   1.518   5.235  1.1509 -0.2392 -2.2758
  162OSM   C17F18280   0.468   1.334   5.335  0.9423  0.7688 -0.1189
  162OSM   H17F18281   0.564   1.295   5.295  0.2542  0.3055 -1.4130
  162OSM   H17G18282   0.394   1.252   5.347 -0.0130  1.1466 -2.6835
  162OSM   C18F18283   0.508   1.387   5.472  0.2416  0.1339 -0.1156
  162OSM   H18F18284   0.418   1.417   5.529 -1.0693 -0.5704 -1.7168
  162OSM   H18G18285   0.571   1.477   5.458 -1.2212  1.0136 -1.3435
  162OSM   H18H18286   0.566   1.317   5.536 -0.9289  0.5754  1.4911
  163OSM      N18287   5.646   2.631   3.033 -0.4882 -0.0685 -0.0403
  163OSM    C1518288   5.751   2.558   2.943 -0.1951 -0.2272 -0.0494
  163OSM   H15A18289   5.838   2.622   2.949 -0.9861  1.0266 -1.3419
  163OSM   H15B18290   5.727   2.547   2.839  0.2414  1.1122 -0.3092
  163OSM   H15C18291   5.779   2.461   2.980  2.4809  1.0343  1.6143
  163OSM    C1418292   5.517   2.557   3.013 -0.2755 -0.1648 -0.3401
  163OSM   H14A18293   5.522   2.452   3.036  0.1371 -0.0910 -0.0716
  163OSM   H14B18294   5.494   2.564   2.907 -0.4648 -0.0745 -0.2928
  163OSM   H14C18295   5.432   2.596   3.067 -0.9654 -2.4770  0.3196
  163OSM    C1318296   5.693   2.626   3.174  0.0090  0.8341  0.3704
  163OSM   H13A18297   5.717   2.524   3.199 -0.9435  0.4905 -0.0715
  163OSM   H13B18298   5.630   2.659   3.255 -0.1065 -0.3663  0.7824
  163OSM   H13C18299   5.787   2.678   3.187  1.2721 -0.9517 -1.1763
  163OSM    C1218300   5.642   2.777   2.998  0.1130  0.0175  0.0550
  163OSM   H12A18301   5.744   2.812   3.007  1.4186 -3.5357  0.7559
  163OSM   H12B18302   5.574   2.825   3.068 -0.1083  0.0909 -0.2092
  163OSM    C1118303   5.594   2.821   2.859 -0.1987  0.2658  0.8496
  163OSM   H11A18304   5.654   2.786   2.772  1.6671  1.5442  1.5526
  163OSM   H11B18305   5.606   2.932   2.855 -0.2689  0.2725  0.8225
  163OSM      P18306   5.339   2.821   2.900  0.2528 -0.1220  0.6870
  163OSM    O1318307   5.272   2.927   2.818  0.4816  0.7467  0.4257
  163OSM    O1418308   5.244   2.711   2.931 -0.3015  0.3000 -0.0960
  163OSM    O1118309   5.382   2.883   3.041  0.2478 -0.2899 -0.1642
  163OSM    O1218310   5.469   2.776   2.822  0.1358  0.0265  0.1810
  163OSM    C1S18311   5.335   2.819   3.171 -0.0840 -0.7736  0.7039
  163OSM    H1S18312   5.381   2.720   3.190 -0.6635 -1.0303  0.7744
  163OSM    H1T18313   5.226   2.798   3.169 -0.9044  2.7846 -0.3647
  163OSM     NF18314   5.330   2.827   3.422 -0.1059  0.0655  0.2397
  163OSM    HNF18315   5.246   2.850   3.470 -0.5316 -0.2751 -0.3295
  163OSM    C2S18316   5.358   2.906   3.299  0.2204 -0.1189 -0.5930
  163OSM    H2S18317   5.465   2.936   3.307  0.1803 -0.3704  1.6186
  163OSM    C3S18318   5.270   3.029   3.289  0.3094 -0.7146  0.3120
  163OSM    H3S18319   5.164   2.996   3.291 -0.1148  0.3465 -1.6432
  163OSM     O318320   5.277   3.087   3.155  0.0753  0.3087  0.2852
  163OSM    HO318321   5.317   3.011   3.113 -1.3755  0.2352 -1.0591
  163OSM    C4S18322   5.295   3.127   3.407  0.1370 -0.0685 -0.1708
  163OSM    H4S18323   5.243   3.105   3.501  0.3750 -1.1019 -0.2731
  163OSM    C5S18324   5.373   3.231   3.410 -0.2081 -0.1535 -0.5453
  163OSM    H5S18325   5.434   3.251   3.321 -0.4901  2.8052 -0.1674
  163OSM    C6S18326   5.394   3.320   3.530 -0.3758  0.3129  0.2385
  163OSM    H6S18327   5.340   3.416   3.512  1.6995  1.4065 -0.5389
  163OSM    H6T18328   5.502   3.346   3.532 -0.6394  1.7385 -1.3976
  163OSM    C7S18329   5.353   3.261   3.663  0.3735  0.5907 -0.0951
  163OSM    H7S18330   5.385   3.156   3.682 -0.7137  0.1772 -0.4249
  163OSM    H7T18331   5.242   3.258   3.676  0.4969 -1.8280  1.0163
  163OSM    C8S18332   5.419   3.341   3.776  0.2892 -0.2708  0.1658
  163OSM    H8S18333   5.405   3.450   3.762  0.1672 -0.1539  1.1032
  163OSM    H8T18334   5.528   3.330   3.757 -0.1026 -1.1035 -1.8603
  163OSM    C9S18335   5.374   3.297   3.920  0.2058 -0.1116  0.1089
  163OSM    H9S18336   5.397   3.188   3.916  0.2648 -0.0809 -0.3845
  163OSM    H9T18337   5.266   3.319   3.933  0.4240  1.0579  0.0551
  163OSM   C10S18338   5.444   3.366   4.047  0.4789  0.2532 -0.4899
  163OSM   H10S18339   5.455   3.475   4.025  0.0800  0.4519  0.2539
  163OSM   H10T18340   5.547   3.327   4.037  0.5855  0.9384 -2.5757
  163OSM   C11S18341   5.355   3.335   4.168 -0.0005 -0.7006  0.0564
  163OSM   H11S18342   5.343   3.225   4.171 -2.0629 -0.4913  1.7826
  163OSM   H11T18343   5.256   3.385   4.163  1.0572  1.7157  1.4265
  163OSM   C12S18344   5.410   3.370   4.310  0.3649 -0.2699  0.5994
  163OSM   H12S18345   5.451   3.473   4.302  1.5990 -0.7930 -0.2031
  163OSM   H12T18346   5.499   3.309   4.336  1.7134  0.9465 -0.9507
  163OSM   C13S18347   5.299   3.368   4.408 -0.5018 -0.7449 -0.9204
  163OSM   H13S18348   5.269   3.264   4.433  0.6341 -0.6658  0.8987
  163OSM   H13T18349   5.206   3.411   4.364  0.0800 -0.5022 -1.9503
  163OSM   C14S18350   5.332   3.428   4.548  0.8670 -0.0166 -0.1720
  163OSM   H14S18351   5.233   3.437   4.599  1.5331 -0.2693  1.2226
  163OSM   H14T18352   5.378   3.528   4.537 -1.7493  1.0571 -2.4836
  163OSM   C15S18353   5.413   3.336   4.641  0.2814 -0.1834  0.2857
  163OSM   H15S18354   5.512   3.315   4.595 -1.0464 -1.4121 -2.2781
  163OSM   H15T18355   5.362   3.237   4.643 -0.3095  0.0922  3.1624
  163OSM   C16S18356   5.437   3.402   4.777  0.3655  0.2075 -0.0097
  163OSM   H16S18357   5.352   3.465   4.809  0.6987  0.1044  1.1345
  163OSM   H16T18358   5.523   3.471   4.762  1.2107 -0.7380  0.3302
  163OSM   C17S18359   5.451   3.300   4.887 -0.1704  0.0270 -0.6072
  163OSM   H17S18360   5.549   3.248   4.897 -0.2895 -0.4507 -1.7222
  163OSM   H17T18361   5.369   3.227   4.873 -0.9251  0.2179  2.2742
  163OSM   C18S18362   5.424   3.362   5.028 -0.4006 -0.6729  0.5942
  163OSM   H18S18363   5.323   3.407   5.038 -0.4068 -0.7301  0.7948
  163OSM   H18T18364   5.491   3.450   5.035 -0.0231 -0.7023 -1.8359
  163OSM   H18U18365   5.442   3.283   5.104  1.9301 -1.5993 -0.8291
  163OSM    C1F18366   5.406   2.720   3.458  0.3306  0.1433 -0.5204
  163OSM     OF18367   5.518   2.703   3.410  0.3204 -0.0553  0.5573
  163OSM    C2F18368   5.354   2.634   3.573 -0.0355  0.1649  0.2686
  163OSM    H2F18369   5.306   2.544   3.530  1.3839 -0.6404  0.3075
  163OSM    H2G18370   5.276   2.690   3.628  0.2708  0.9242 -0.0613
  163OSM    C3F18371   5.470   2.598   3.673 -0.2545 -0.1878 -0.7208
  163OSM    H3F18372   5.507   2.693   3.718 -1.1444 -0.4305  0.5824
  163OSM    H3G18373   5.551   2.542   3.621  1.2924  0.6499  0.6801
  163OSM    C4F18374   5.422   2.518   3.799  0.1146 -0.6078 -0.0208
  163OSM    H4F18375   5.444   2.414   3.769  0.4673 -0.0861 -1.6503
  163OSM    H4G18376   5.311   2.530   3.806  0.1292 -0.7520  0.5323
  163OSM    C5F18377   5.499   2.551   3.929  0.1926  0.3198 -0.0290
  163OSM    H5F18378   5.507   2.662   3.933 -1.2211  0.4895 -1.2400
  163OSM    H5G18379   5.607   2.526   3.918  0.1892  0.0464  0.5176
  163OSM    C6F18380   5.438   2.497   4.064 -0.2435 -0.4661 -0.6386
  163OSM    H6F18381   5.420   2.388   4.054  1.9882 -1.3513  3.0192
  163OSM    H6G18382   5.342   2.549   4.085 -0.3000 -0.6096 -0.5345
  163OSM    C7F18383   5.534   2.514   4.177 -0.1881 -0.4016  0.3306
  163OSM    H7F18384   5.610   2.587   4.143  1.7329 -1.7837  1.4507
  163OSM    H7G18385   5.594   2.422   4.193  1.7650  1.1217  2.3338
  163OSM    C8F18386   5.470   2.562   4.301 -0.7335 -0.3289  0.0138
  163OSM    H8F18387   5.394   2.636   4.269  0.3854 -0.4023 -3.0536
  163OSM    H8G18388   5.550   2.619   4.353  0.0958 -3.0511  1.9594
  163OSM    C9F18389   5.403   2.455   4.379 -0.3339 -0.5021 -0.3161
  163OSM    H9F18390   5.309   2.418   4.335  0.2564 -1.6601 -0.6642
  163OSM   C10F18391   5.436   2.419   4.504  0.0351  0.2510  0.8466
  163OSM   H10F18392   5.367   2.342   4.542 -1.4034 -0.3704 -2.5764
  163OSM   C11F18393   5.549   2.469   4.588  0.7485 -0.8245 -0.5519
  163OSM   H11F18394   5.616   2.527   4.520 -0.2444  1.5801  0.4011
  163OSM   H11G18395   5.614   2.386   4.622  2.8204 -0.0641 -2.4233
  163OSM   C12F18396   5.509   2.563   4.705  0.0394 -0.2505  0.0113
  163OSM   H12F18397   5.456   2.652   4.665  3.8173  1.0298 -2.7327
  163OSM   H12G18398   5.602   2.600   4.754 -2.4969  3.1470  2.7725
  163OSM   C13F18399   5.416   2.500   4.807 -0.4112  0.6145  0.1811
  163OSM   H13F18400   5.430   2.391   4.820 -0.3116  0.5179 -0.7189
  163OSM   H13G18401   5.313   2.505   4.765 -1.0928 -0.5875  1.5829
  163OSM   C14F18402   5.438   2.549   4.955 -0.1370  0.0240  0.4463
  163OSM   H14F18403   5.536   2.507   4.984  0.8744  1.3488 -0.8490
  163OSM   H14G18404   5.360   2.512   5.025  0.7437 -1.1285  0.8261
  163OSM   C15F18405   5.446   2.706   4.961 -0.1764 -0.1573  0.2475
  163OSM   H15F18406   5.350   2.753   4.931 -0.1621 -0.7473 -0.7937
  163OSM   H15G18407   5.522   2.762   4.902  0.9207  0.3923  2.1169
  163OSM   C16F18408   5.471   2.767   5.105 -0.3160  0.4189  0.4117
  163OSM   H16F18409   5.574   2.747   5.141  0.5071  0.1725 -1.8901
  163OSM   H16G18410   5.395   2.725   5.174  0.5030 -0.7499  0.6326
  163OSM   C17F18411   5.447   2.917   5.106 -0.6396  0.7834 -0.2811
  163OSM   H17F18412   5.339   2.941   5.098 -0.6503  1.0497  0.5554
  163OSM   H17G18413   5.497   2.967   5.019 -1.4053  1.7972 -0.1512
  163OSM   C18F18414   5.483   2.978   5.240 -0.0883  0.6240 -0.0522
  163OSM   H18F18415   5.467   2.908   5.324 -1.4797 -0.5591 -1.2629
  163OSM   H18G18416   5.429   3.074   5.254 -2.3487 -0.6684  0.4437
  163OSM   H18H18417   5.594   2.993   5.239 -0.2725  2.5115 -2.0248
  164OSM      N18418   2.375   2.368   2.886  0.2582 -0.2022 -0.1910
  164OSM    C1518419   2.455   2.331   2.765 -0.7686 -0.4332 -0.7257
  164OSM   H15A18420   2.414   2.365   2.671 -0.9394 -0.2458 -0.5844
  164OSM   H15B18421   2.475   2.225   2.756  1.5735  0.0292 -1.5554
  164OSM   H15C18422   2.555   2.370   2.753 -0.9836  0.1888 -0.5627
  164OSM    C1418423   2.441   2.285   2.997 -0.0614 -0.0889  0.2385
  164OSM   H14A18424   2.392   2.276   3.092 -0.2486 -1.1171  0.0554
  164OSM   H14B18425   2.542   2.320   3.010 -0.2964  0.0657  1.7706
  164OSM   H14C18426   2.454   2.181   2.969  1.9458  0.5710 -1.5843
  164OSM    C1318427   2.397   2.514   2.912  0.0520  0.4147 -0.8789
  164OSM   H13A18428   2.373   2.564   2.819  1.4884  0.4426 -1.2522
  164OSM   H13B18429   2.501   2.527   2.937 -0.2763  0.8077  0.3600
  164OSM   H13C18430   2.337   2.553   2.993 -0.3527 -0.8369 -0.5498
  164OSM    C1218431   2.229   2.339   2.867  0.8885  0.7336  0.0070
  164OSM   H12A18432   2.230   2.236   2.835  0.7649  0.4939  0.7539
  164OSM   H12B18433   2.185   2.401   2.791  0.8182 -0.4122 -0.9079
  164OSM    C1118434   2.144   2.351   2.988  0.8071 -0.0876  0.2973
  164OSM   H11A18435   2.157   2.448   3.042  2.4857 -1.8630  3.3632
  164OSM   H11B18436   2.167   2.286   3.075  2.8352  0.4119  0.1851
  164OSM      P18437   1.920   2.216   2.985 -0.4077  0.0858 -0.0970
  164OSM    O1318438   1.779   2.237   2.961 -0.5734  0.8380 -0.0661
  164OSM    O1418439   1.980   2.094   2.928 -0.5738  0.1756  0.2344
  164OSM    O1118440   1.930   2.206   3.141  0.2383 -0.3141 -0.7807
  164OSM    O1218441   2.002   2.348   2.954  0.5641  0.3748  0.6238
  164OSM    C1S18442   1.860   2.304   3.220  0.7953 -0.3922  0.3646
  164OSM    H1S18443   1.752   2.287   3.200  1.1476 -1.1149 -1.0923
  164OSM    H1T18444   1.882   2.410   3.195 -0.6872  0.0096  0.6373
  164OSM     NF18445   1.793   2.391   3.442  0.3698 -0.2646 -0.0305
  164OSM    HNF18446   1.845   2.463   3.487  0.3869  0.4288 -1.1447
  164OSM    C2S18447   1.868   2.290   3.373  0.7902  1.1119 -0.3262
  164OSM    H2S18448   1.824   2.193   3.407  0.4910  1.7760  1.2647
  164OSM    C3S18449   2.016   2.270   3.421  0.0124  0.0494 -0.2861
  164OSM    H3S18450   2.068   2.369   3.426  0.5500 -0.1816 -1.0445
  164OSM     O318451   2.095   2.192   3.330 -0.2476  0.3235 -0.7693
  164OSM    HO318452   2.037   2.179   3.255  0.7755 -0.6884 -1.4223
  164OSM    C4S18453   2.020   2.230   3.567 -0.4400 -0.7539 -0.2972
  164OSM    H4S18454   2.000   2.315   3.634 -3.2145  0.6350 -2.6695
  164OSM    C5S18455   2.041   2.107   3.614  0.2806  0.1742  0.3645
  164OSM    H5S18456   2.049   2.028   3.538 -1.3670  1.1132 -0.8301
  164OSM    C6S18457   2.030   2.072   3.760 -0.0414 -0.1941  0.1263
  164OSM    H6S18458   2.115   2.004   3.784  0.8594  0.9337  0.1890
  164OSM    H6T18459   1.936   2.017   3.779 -0.9369  0.5350 -1.9368
  164OSM    C7S18460   2.052   2.189   3.865 -0.3705  0.0075  0.0112
  164OSM    H7S18461   1.962   2.252   3.852  0.4384  1.3727  0.7220
  164OSM    H7T18462   2.136   2.250   3.825 -2.2573  2.0840 -1.0465
  164OSM    C8S18463   2.061   2.146   4.003 -0.1335 -0.4545 -0.4226
  164OSM    H8S18464   2.158   2.097   4.024 -0.8727 -1.8779 -0.2598
  164OSM    H8T18465   1.980   2.076   4.029 -0.3637 -0.2788 -0.6578
  164OSM    C9S18466   2.058   2.255   4.106  0.1507 -0.6036  0.5605
  164OSM    H9S18467   1.958   2.302   4.097 -0.1277 -0.7751  2.5001
  164OSM    H9T18468   2.130   2.337   4.087 -0.7802  0.0970 -0.0221
  164OSM   C10S18469   2.088   2.208   4.253  0.5349  0.1548  0.5489
  164OSM   H10S18470   2.197   2.183   4.252  0.1098 -2.0054 -1.2421
  164OSM   H10T18471   2.027   2.125   4.293  1.3551  0.3852  2.3762
  164OSM   C11S18472   2.063   2.330   4.352  0.6220  0.0486  0.4197
  164OSM   H11S18473   1.955   2.351   4.333  1.1466  1.6617 -1.0696
  164OSM   H11T18474   2.121   2.419   4.321  1.6512 -0.7854 -0.1059
  164OSM   C12S18475   2.070   2.287   4.500 -0.3351 -0.5878  0.5634
  164OSM   H12S18476   2.173   2.262   4.534 -0.2942 -0.5130  0.4936
  164OSM   H12T18477   2.007   2.199   4.525  0.4606 -1.7750 -1.3600
  164OSM   C13S18478   2.036   2.406   4.596  0.1000 -0.1435 -0.7876
  164OSM   H13S18479   1.933   2.445   4.578  0.1212  0.1732 -0.2450
  164OSM   H13T18480   2.115   2.475   4.557 -0.1424  0.1383 -0.7843
  164OSM   C14S18481   2.056   2.369   4.740  0.7118 -0.8734  0.4797
  164OSM   H14S18482   2.151   2.311   4.751  1.8446  0.7426 -0.3127
  164OSM   H14T18483   1.968   2.306   4.765 -0.3395  0.9061  1.5025
  164OSM   C15S18484   2.050   2.487   4.832  0.6088 -0.1496  0.5135
  164OSM   H15S18485   1.944   2.520   4.841  0.6713  0.5417 -0.9588
  164OSM   H15T18486   2.100   2.580   4.796 -0.4623  0.8931  1.5870
  164OSM   C16S18487   2.107   2.467   4.972 -0.2160 -0.3338 -0.0602
  164OSM   H16S18488   2.209   2.425   4.960 -0.6718 -1.2523 -0.9006
  164OSM   H16T18489   2.044   2.395   5.029 -2.2459  0.7273 -0.8775
  164OSM   C17S18490   2.118   2.599   5.044  0.2604  0.1845 -0.3538
  164OSM   H17S18491   2.198   2.664   5.004  0.5872 -0.5374 -0.8918
  164OSM   H17T18492   2.160   2.597   5.147 -0.1130  1.1878 -0.1671
  164OSM   C18S18493   1.990   2.682   5.062  0.5118 -0.0429  0.5142
  164OSM   H18S18494   1.952   2.712   4.962  1.0567  4.3557  1.4263
  164OSM   H18T18495   2.008   2.775   5.120  1.2686  0.5269 -0.5893
  164OSM   H18U18496   1.910   2.620   5.108 -0.9114 -0.4737 -2.3445
  164OSM    C1F18497   1.661   2.396   3.436 -0.5615 -0.7199  0.0319
  164OSM     OF18498   1.595   2.297   3.403  0.0882 -0.2661 -0.4593
  164OSM    C2F18499   1.598   2.527   3.481  0.5126  0.2568  0.3673
  164OSM    H2F18500   1.540   2.571   3.397 -0.1694  1.5601  1.4847
  164OSM    H2G18501   1.667   2.607   3.512 -0.7747  1.0244  1.3623
  164OSM    C3F18502   1.507   2.495   3.602  1.1526 -0.0926 -0.0975
  164OSM    H3F18503   1.430   2.416   3.588  0.4415  0.1011  2.2804
  164OSM    H3G18504   1.445   2.587   3.603 -0.7517 -1.2972 -0.4403
  164OSM    C4F18505   1.578   2.489   3.734  0.6397 -0.0809 -0.3269
  164OSM    H4F18506   1.640   2.581   3.735  0.2828  0.1661 -0.8208
  164OSM    H4G18507   1.659   2.412   3.728  0.1915 -0.4866 -1.6915
  164OSM    C5F18508   1.495   2.479   3.860 -0.6745  0.3484  1.1298
  164OSM    H5F18509   1.459   2.374   3.862 -1.8060  0.6891  0.0521
  164OSM    H5G18510   1.409   2.547   3.876 -1.3891 -0.4852  0.8813
  164OSM    C6F18511   1.594   2.498   3.979  0.2834  0.0185  0.0973
  164OSM    H6F18512   1.631   2.603   3.988  1.9118 -0.4103 -1.1243
  164OSM    H6G18513   1.681   2.432   3.957  0.4601  0.1853  0.2917
  164OSM    C7F18514   1.523   2.454   4.107  0.0523  0.0609 -0.0891
  164OSM    H7F18515   1.466   2.359   4.100 -1.1013  0.6283  1.1880
  164OSM    H7G18516   1.444   2.529   4.128  1.3976  1.7992 -0.9834
  164OSM    C8F18517   1.618   2.455   4.236  0.5353  0.8724  0.7780
  164OSM    H8F18518   1.663   2.555   4.248 -1.2192  1.9370 -0.9656
  164OSM    H8G18519   1.713   2.401   4.216  1.0036  1.8206  0.4288
  164OSM    C9F18520   1.539   2.408   4.356 -0.9909 -0.4499  0.1391
  164OSM    H9F18521   1.455   2.345   4.322 -0.3908 -0.8664 -0.5945
  164OSM   C10F18522   1.554   2.452   4.484  0.1316 -0.4904  0.2703
  164OSM   H10F18523   1.482   2.421   4.561  1.8272 -0.1935  2.0587
  164OSM   C11F18524   1.664   2.547   4.538 -0.8162 -0.2385  0.2116
  164OSM   H11F18525   1.634   2.654   4.539 -2.3284 -0.6384  2.2105
  164OSM   H11G18526   1.753   2.530   4.473 -1.4415 -1.0187 -0.4695
  164OSM   C12F18527   1.694   2.518   4.688 -0.0229 -1.1306  0.0613
  164OSM   H12F18528   1.780   2.581   4.722 -0.0336 -1.1785  0.1797
  164OSM   H12G18529   1.712   2.410   4.705  2.8312 -0.5155  1.6147
  164OSM   C13F18530   1.580   2.564   4.772  0.3652  0.0174 -0.5624
  164OSM   H13F18531   1.495   2.492   4.776  1.6688 -1.5625 -0.3720
  164OSM   H13G18532   1.542   2.661   4.733  0.4346  0.6814  0.9413
  164OSM   C14F18533   1.619   2.608   4.914  0.8925 -0.2837 -1.0082
  164OSM   H14F18534   1.695   2.689   4.918  0.4637  0.1304 -1.1806
  164OSM   H14G18535   1.655   2.510   4.952  0.5383  0.5037  1.4952
  164OSM   C15F18536   1.494   2.639   5.005  0.1550 -0.3928 -0.6589
  164OSM   H15F18537   1.422   2.559   4.978 -0.8965  0.7337 -1.2312
  164OSM   H15G18538   1.446   2.734   4.975 -0.3444 -0.4809 -0.1561
  164OSM   C16F18539   1.518   2.641   5.159 -0.1467  0.0835 -0.3143
  164OSM   H16F18540   1.555   2.537   5.175 -0.8937  0.0484  1.3641
  164OSM   H16G18541   1.429   2.663   5.220 -0.9222  1.7373 -1.9405
  164OSM   C17F18542   1.630   2.739   5.204  0.7366  0.9063  0.1296
  164OSM   H17F18543   1.586   2.841   5.210 -0.4411  0.5216 -1.2163
  164OSM   H17G18544   1.721   2.741   5.140  1.7909  1.5168  1.5905
  164OSM   C18F18545   1.678   2.709   5.351  0.0496 -0.3662 -0.7841
  164OSM   H18F18546   1.769   2.769   5.377  0.1215 -0.5402 -0.6349
  164OSM   H18G18547   1.703   2.602   5.364 -1.2234 -0.7090 -1.0674
  164OSM   H18H18548   1.591   2.734   5.416 -0.3083 -2.5088 -0.3649
  165SAPS     N18549   5.353   5.775   7.932  0.1360 -0.9421 -0.1438
  165SAPS   HN118550   5.302   5.761   7.843 -1.8206 -1.2492  0.9765
  165SAPS   HN218551   5.324   5.706   8.004 -1.0076 -0.9674 -0.6161
  165SAPS   HN318552   5.343   5.870   7.973  0.6309 -1.3176  0.9062
  165SAPS   C1218553   5.501   5.755   7.900 -0.9566 -0.3499  0.4359
  165SAPS  H12A18554   5.553   5.816   7.973  1.9138  0.0795 -1.7824
  165SAPS   C1318555   5.550   5.611   7.903 -0.2571  0.8514  0.8598
  165SAPS  O13A18556   5.476   5.513   7.934 -0.0909  0.3362  0.3526
  165SAPS  O13B18557   5.674   5.595   7.898 -0.0289  0.1058  0.5694
  165SAPS   C1118558   5.534   5.813   7.755  0.2686  0.4106  0.0796
  165SAPS  H11A18559   5.442   5.796   7.695  0.1307 -1.3018  0.7110
  165SAPS  H11B18560   5.620   5.758   7.709  1.1622  1.4805  0.4319
  165SAPS     P18561   5.687   6.026   7.737 -0.1147 -0.2684 -0.0649
  165SAPS   O1318562   5.701   6.143   7.832 -0.0324 -0.4034  0.6056
  165SAPS   O1418563   5.802   5.936   7.726  0.7575  0.0737  0.2068
  165SAPS   O1218564   5.553   5.953   7.766 -0.5193 -0.0507  0.6753
  165SAPS   O1118565   5.672   6.085   7.594 -0.8252 -0.7671  0.0054
  165SAPS    C118566   5.542   6.116   7.541  0.2370  0.1001  0.2892
  165SAPS    HA18567   5.494   6.025   7.499  0.0663 -0.9017  2.5168
  165SAPS    HB18568   5.466   6.144   7.617 -0.5036  0.3015 -0.5090
  165SAPS    C218569   5.542   6.232   7.436 -1.0989 -0.0402 -0.1158
  165SAPS    HS18570   5.442   6.237   7.387 -1.5014  0.8257  0.7693
  165SAPS   O2118571   5.650   6.214   7.334 -0.9041 -0.3043 -0.0553
  165SAPS   C2118572   5.631   6.118   7.251 -0.0128  0.3700  0.7420
  165SAPS   O2218573   5.545   6.032   7.245 -0.2493  0.4579  0.4995
  165SAPS   C2218574   5.746   6.136   7.150 -1.3533 -0.0433 -0.1344
  165SAPS   H2R18575   5.724   6.227   7.090 -0.1007 -0.2872 -1.0094
  165SAPS   H2S18576   5.840   6.153   7.208 -0.4018  1.8068 -2.1109
  165SAPS    C318577   5.568   6.373   7.509 -0.6961 -0.5326  0.4644
  165SAPS    HX18578   5.663   6.367   7.566 -0.1341  2.1826 -0.0517
  165SAPS    HY18579   5.486   6.385   7.584 -1.4796  0.1633 -0.4690
  165SAPS   O3118580   5.569   6.482   7.410  0.0797  0.3450  0.3162
  165SAPS   C3118581   5.659   6.583   7.426 -0.4452  0.4595 -0.6446
  165SAPS   O3218582   5.738   6.592   7.519  0.1736 -0.4094  0.4208
  165SAPS   C3218583   5.649   6.685   7.317 -0.8884  0.7545  0.1702
  165SAPS   H2X18584   5.738   6.750   7.303 -1.1865  0.7834 -1.8406
  165SAPS   H2Y18585   5.566   6.751   7.351 -1.9168 -1.1923  1.6674
  165SAPS   C2318586   5.766   6.011   7.067  0.9807  0.6693  0.1682
  165SAPS   H3R18587   5.688   6.012   6.988 -0.9747  0.8656  2.0093
  165SAPS   H3S18588   5.750   5.917   7.124  0.5440 -0.9221 -2.3863
  165SAPS   C2418589   5.909   6.009   7.009 -0.5032  0.5240 -0.2449
  165SAPS   H4R18590   5.979   6.035   7.091 -1.3105 -1.8872  1.2867
  165SAPS   H4S18591   5.921   6.087   6.931 -0.9709 -0.9619 -1.8758
  165SAPS   C2518592   5.962   5.877   6.953 -0.0105 -0.2253 -0.0192
  165SAPS   H5R18593   5.953   5.794   7.026  1.7005  0.4536  1.0223
  165SAPS   C2618594   6.025   5.860   6.834 -0.3033  0.2629 -0.0766
  165SAPS   H6R18595   6.066   5.764   6.799 -2.8348 -0.2392 -1.9838
  165SAPS   C2718596   6.046   5.958   6.723 -0.0030  0.3348 -0.2474
  165SAPS   H7R18597   6.153   5.960   6.694  0.0262 -2.8824 -0.6707
  165SAPS   H7S18598   6.024   6.055   6.771 -2.9971 -2.0834  3.8676
  165SAPS   C2818599   5.949   5.946   6.610 -0.0249 -0.0793  0.3712
  165SAPS   H8R18600   5.845   5.959   6.644  0.1983  0.3034  0.9082
  165SAPS   C2918601   5.968   5.922   6.480 -0.0703  0.3883  0.1833
  165SAPS   H9R18602   5.879   5.914   6.415 -0.4373 -0.4484  0.7755
  165SAPS  C21018603   6.092   5.904   6.405 -0.0989 -0.0908  0.3036
  165SAPS  H10R18604   6.076   5.839   6.316  2.4063 -0.6241  0.1547
  165SAPS  H10S18605   6.167   5.845   6.464 -1.9512 -2.4457  0.4598
  165SAPS  C21118606   6.153   6.040   6.370  0.3902 -0.9278 -0.5804
  165SAPS  H11R18607   6.162   6.112   6.452  0.9774  1.1683 -2.3722
  165SAPS  C21218608   6.193   6.080   6.250 -0.0352  0.0991  0.2612
  165SAPS  H12R18609   6.231   6.183   6.242 -0.4274  0.1599 -1.1056
  165SAPS  C21318610   6.195   5.999   6.121 -0.3908  0.3715 -0.7580
  165SAPS  H13R18611   6.122   6.034   6.045  0.7094  1.7525 -1.2132
  165SAPS  H13S18612   6.155   5.895   6.128 -1.0570  0.6724  0.2126
  165SAPS  C21418613   6.330   6.008   6.059 -0.4900  0.8014 -0.3838
  165SAPS  H14R18614   6.417   5.987   6.122 -0.0447  0.9503 -0.9431
  165SAPS  C21518615   6.376   6.056   5.941  0.3769 -0.3452 -0.6764
  165SAPS  H15R18616   6.484   6.042   5.926  1.0188  0.4639  2.5861
  165SAPS  C21618617   6.280   6.098   5.833  0.0645 -0.3346 -0.0285
  165SAPS  H16R18618   6.313   6.199   5.800 -0.9730  0.5072  1.3886
  165SAPS  H16S18619   6.181   6.115   5.882  0.2323 -1.9485  0.9645
  165SAPS  C21718620   6.267   6.005   5.711 -0.6754  0.1421 -0.2802
  165SAPS  H17R18621   6.193   6.037   5.634 -0.3888 -0.5490 -0.8523
  165SAPS  H17S18622   6.237   5.905   5.749 -0.6259  1.3944  3.4547
  165SAPS  C21818623   6.410   5.979   5.646  0.0307 -0.0842 -0.1085
  165SAPS  H18R18624   6.464   5.918   5.721 -0.4756 -0.7942 -0.3133
  165SAPS  H18S18625   6.460   6.076   5.628 -0.3718 -0.3167 -3.0959
  165SAPS  C21918626   6.379   5.912   5.511 -0.5392  0.2092 -0.8678
  165SAPS  H19R18627   6.343   5.991   5.442 -1.8054 -0.2608 -0.7790
  165SAPS  H19S18628   6.306   5.834   5.541  0.3844 -0.2864  0.1663
  165SAPS  C22018629   6.497   5.848   5.445  0.2797 -0.2258 -0.8249
  165SAPS  H20R18630   6.462   5.797   5.353  1.3009 -0.4050 -1.1259
  165SAPS  H20S18631   6.545   5.767   5.504 -0.6754  0.4419  0.9580
  165SAPS  H20T18632   6.574   5.922   5.411 -0.4807  1.1863  0.4028
  165SAPS   C3318633   5.604   6.622   7.178  0.0849 -0.1436 -0.4314
  165SAPS   H3X18634   5.577   6.705   7.109  0.3183 -1.5626 -2.3313
  165SAPS   H3Y18635   5.514   6.557   7.183  0.9398 -1.4141 -1.0218
  165SAPS   C3418636   5.721   6.548   7.114  0.3716  0.0987 -0.9026
  165SAPS   H4X18637   5.749   6.457   7.171 -0.0818  0.7671  0.4165
  165SAPS   H4Y18638   5.810   6.614   7.123  0.9441 -0.5736 -1.4626
  165SAPS   C3518639   5.686   6.506   6.970  0.4545 -0.5394 -0.5173
  165SAPS   H5X18640   5.595   6.442   6.977 -2.3894  3.2981  0.8335
  165SAPS   H5Y18641   5.767   6.438   6.934 -0.1716 -0.2500 -2.6006
  165SAPS   C3618642   5.644   6.609   6.869 -0.4637 -0.1645  0.7543
  165SAPS   H6X18643   5.721   6.689   6.869 -1.8056  1.1762  0.0734
  165SAPS   H6Y18644   5.544   6.652   6.890 -1.0084 -1.3449  0.6517
  165SAPS   C3718645   5.657   6.563   6.719 -0.3809  0.0827  0.7746
  165SAPS   H7X18646   5.585   6.478   6.718 -1.0309  0.6116 -0.9262
  165SAPS   H7Y18647   5.757   6.524   6.691  0.1145  0.3619  2.0803
  165SAPS   C3818648   5.611   6.656   6.610  0.1881 -0.3103 -0.0115
  165SAPS   H8X18649   5.666   6.753   6.616 -0.3096  0.0852 -1.3816
  165SAPS   H8Y18650   5.504   6.680   6.630 -0.1185 -2.0449  0.5599
  165SAPS   C3918651   5.626   6.593   6.468 -0.6842 -0.8182 -0.2872
  165SAPS   H9X18652   5.555   6.507   6.464 -0.3758 -1.1176  0.4606
  165SAPS   H9Y18653   5.731   6.560   6.452 -0.7904 -0.6366 -1.4308
  165SAPS  C31018654   5.593   6.698   6.353 -0.2107  0.0070 -0.4348
  165SAPS  H10X18655   5.663   6.782   6.369 -0.3500 -0.3753  2.9718
  165SAPS  H10Y18656   5.491   6.737   6.375  0.3123  0.5508  1.1423
  165SAPS  C31118657   5.623   6.635   6.212 -0.5874 -0.1182  0.1353
  165SAPS  H11X18658   5.544   6.563   6.181 -3.0251  2.5476 -0.2250
  165SAPS  H11Y18659   5.724   6.588   6.211 -0.3695  0.3276  0.5657
  165SAPS  C31218660   5.627   6.739   6.097  0.3150  0.0831  0.2291
  165SAPS  H12X18661   5.710   6.809   6.122  0.5129  0.2262 -0.7772
  165SAPS  H12Y18662   5.529   6.790   6.091 -1.3386 -2.9603 -0.6918
  165SAPS  C31318663   5.668   6.667   5.961 -0.3273 -0.3849  0.4345
  165SAPS  H13X18664   5.577   6.626   5.913 -1.8581  2.5994  0.5769
  165SAPS  H13Y18665   5.739   6.585   5.986 -0.7823 -0.8763  0.1353
  165SAPS  C31418666   5.733   6.750   5.853  0.6129 -0.4657 -0.1116
  165SAPS  H14X18667   5.763   6.690   5.764  1.9641  0.0271 -0.0065
  165SAPS  H14Y18668   5.815   6.814   5.893 -0.4949  0.3560  0.9180
  165SAPS  C31518669   5.628   6.845   5.796 -0.6150 -0.5354 -0.3423
  165SAPS  H15X18670   5.585   6.900   5.882 -3.0093 -0.6141 -1.4130
  165SAPS  H15Y18671   5.539   6.790   5.758 -1.0496 -1.3512  1.7019
  165SAPS  C31618672   5.687   6.946   5.697 -0.4882 -0.0098 -0.1512
  165SAPS  H16X18673   5.726   6.893   5.607  0.0843 -0.2381  0.2292
  165SAPS  H16Y18674   5.778   6.992   5.741  1.1835 -2.3174 -0.9812
  165SAPS  C31718675   5.593   7.051   5.643  0.1820 -0.1131  0.3021
  165SAPS  H17X18676   5.548   7.105   5.729  1.9844 -1.9063  2.5134
  165SAPS  H17Y18677   5.504   7.009   5.592 -0.6531 -0.7379  2.1794
  165SAPS  C31818678   5.666   7.140   5.542  0.0481 -0.2529  0.1972
  165SAPS  H18X18679   5.723   7.080   5.468  0.1998 -1.3800  1.2027
  165SAPS  H18Y18680   5.733   7.210   5.596  1.4531 -0.0372 -1.7157
  165SAPS  H18Z18681   5.599   7.202   5.478 -2.0050 -2.7426 -0.2249
  166SAPS     N18682   3.139   4.835   7.767 -0.0293 -0.0424  0.2756
  166SAPS   HN118683   3.101   4.870   7.857  0.5390  0.0853  0.4721
  166SAPS   HN218684   3.082   4.759   7.725 -1.2679  1.0806 -0.1517
  166SAPS   HN318685   3.233   4.796   7.791 -0.3474 -0.4790  0.8177
  166SAPS   C1218686   3.156   4.946   7.671  0.2370  1.0943  1.2107
  166SAPS  H12A18687   3.061   4.985   7.639  1.0767  1.2329 -1.3421
  166SAPS   C1318688   3.238   5.068   7.721  0.3336 -0.0938 -0.7035
  166SAPS  O13A18689   3.307   5.061   7.831  0.6539  0.2458  0.7217
  166SAPS  O13B18690   3.250   5.169   7.658  0.8683  0.0599  0.3540
  166SAPS   C1118691   3.228   4.897   7.547  0.0159 -0.0327  0.2927
  166SAPS  H11A18692   3.336   4.888   7.571  0.0140  1.0191  0.7645
  166SAPS  H11B18693   3.211   4.976   7.471 -0.5320 -2.2824 -2.0687
  166SAPS     P18694   3.064   4.775   7.378  0.1071  0.2383 -0.1488
  166SAPS   O1318695   3.050   4.631   7.335 -0.7148 -0.6731 -0.2863
  166SAPS   O1418696   2.941   4.840   7.429  0.5504 -0.1709  0.5395
  166SAPS   O1218697   3.171   4.773   7.496  0.4258 -0.1890 -0.4773
  166SAPS   O1118698   3.135   4.865   7.266  0.1779 -0.1719 -0.5264
  166SAPS    C118699   3.261   4.829   7.213  0.3067  0.2101 -0.0684
  166SAPS    HA18700   3.324   4.920   7.200  0.5795  0.3871  2.1124
  166SAPS    HB18701   3.323   4.759   7.273 -0.0249 -0.0064  0.0203
  166SAPS    C218702   3.247   4.763   7.062 -0.3632 -0.6541 -0.2133
  166SAPS    HS18703   3.348   4.779   7.017  0.4641 -0.7739  1.5335
  166SAPS   O2118704   3.140   4.831   6.995 -0.1399 -0.3958  0.0204
  166SAPS   C2118705   3.154   4.958   6.974 -0.5678  0.2881 -0.0916
  166SAPS   O2218706   3.262   5.019   6.982  0.5823 -0.0605  0.2587
  166SAPS   C2218707   3.014   5.012   6.947  0.7570  0.3326  0.1280
  166SAPS   H2R18708   2.962   4.934   6.887 -0.1426 -0.1482  1.4853
  166SAPS   H2S18709   2.953   5.012   7.040 -2.4261  0.2580 -1.7961
  166SAPS    C318710   3.227   4.615   7.048  0.1091  0.2515 -0.0612
  166SAPS    HX18711   3.123   4.595   7.080  0.1684 -0.0853 -0.0788
  166SAPS    HY18712   3.295   4.560   7.116 -0.4973 -1.8967 -1.1192
  166SAPS   O3118713   3.238   4.571   6.905 -0.0557  0.5080 -0.2310
  166SAPS   C3118714   3.231   4.439   6.903  0.3154 -0.5631  0.0102
  166SAPS   O3218715   3.208   4.363   6.993 -0.1913 -0.4592 -0.3529
  166SAPS   C3218716   3.244   4.393   6.758 -0.1008 -0.0740 -0.7353
  166SAPS   H2X18717   3.349   4.416   6.728 -0.1224 -1.0725 -1.6401
  166SAPS   H2Y18718   3.170   4.451   6.699  0.7555  2.5780  0.6578
  166SAPS   C2318719   2.990   5.152   6.881 -0.1228  0.6119  0.7840
  166SAPS   H3R18720   3.062   5.155   6.797  0.5213 -1.7937  1.1571
  166SAPS   H3S18721   3.011   5.235   6.951 -2.1218  0.7795  1.2500
  166SAPS   C2418722   2.843   5.175   6.820 -0.4471  0.0364 -0.1534
  166SAPS   H4R18723   2.818   5.283   6.826 -0.2556  0.0336  0.7603
  166SAPS   H4S18724   2.772   5.124   6.888 -1.4146  0.6700 -0.6631
  166SAPS   C2518725   2.833   5.133   6.677  0.1352 -0.4104  0.4616
  166SAPS   H5R18726   2.923   5.150   6.616  0.1888 -2.7463 -0.2256
  166SAPS   C2618727   2.721   5.087   6.614  0.5199  0.1896  0.1158
  166SAPS   H6R18728   2.729   5.068   6.506  1.6689  0.3457  0.1545
  166SAPS   C2718729   2.580   5.086   6.672 -0.4584 -0.0171  0.2494
  166SAPS   H7R18730   2.571   5.178   6.733  2.8056  0.8484 -0.3711
  166SAPS   H7S18731   2.564   5.000   6.741  1.1048 -0.5559 -0.0282
  166SAPS   C2818732   2.472   5.070   6.569  0.0677  0.0821  0.3311
  166SAPS   H8R18733   2.437   4.967   6.555 -1.8757  1.0652 -3.2665
  166SAPS   C2918734   2.400   5.168   6.504 -0.4243 -0.5194  0.7792
  166SAPS   H9R18735   2.312   5.143   6.443  0.1931 -0.8295 -0.0122
  166SAPS  C21018736   2.421   5.313   6.527 -1.0055  0.0197  0.0774
  166SAPS  H10R18737   2.483   5.334   6.617  0.5494 -0.3749 -0.8670
  166SAPS  H10S18738   2.325   5.364   6.551 -0.4850  0.5646  1.0802
  166SAPS  C21118739   2.496   5.364   6.405 -0.0788  0.0277 -0.3984
  166SAPS  H11R18740   2.596   5.321   6.389 -0.1629  0.5908 -2.6960
  166SAPS  C21218741   2.458   5.467   6.327 -0.0771 -0.3614 -0.2134
  166SAPS  H12R18742   2.509   5.499   6.235 -1.3396 -0.1820 -0.8721
  166SAPS  C21318743   2.338   5.554   6.351  0.3058  0.4843  0.7171
  166SAPS  H13R18744   2.325   5.566   6.461  1.3053 -2.4695  1.2478
  166SAPS  H13S18745   2.249   5.499   6.316  1.5237 -0.4484 -1.0605
  166SAPS  C21418746   2.354   5.696   6.289  0.1704  0.5276 -0.1125
  166SAPS  H14R18747   2.460   5.725   6.284  0.4132  0.2527  2.2833
  166SAPS  C21518748   2.259   5.781   6.247  0.3924 -0.6279 -0.2046
  166SAPS  H15R18749   2.291   5.884   6.223  0.5959 -0.9060 -1.1625
  166SAPS  C21618750   2.112   5.757   6.257  0.0766 -0.5661 -0.3359
  166SAPS  H16R18751   2.073   5.842   6.317 -2.3353 -1.4541 -0.5184
  166SAPS  H16S18752   2.086   5.655   6.295  3.5881 -2.0300 -1.4926
  166SAPS  C21718753   2.017   5.761   6.132  0.8166  0.2088  0.2681
  166SAPS  H17R18754   2.011   5.864   6.090 -1.5840  0.5230  1.2380
  166SAPS  H17S18755   1.916   5.746   6.176 -0.1514 -0.3210 -1.9926
  166SAPS  C21818756   2.047   5.655   6.027  0.2227  0.8238  0.3409
  166SAPS  H18R18757   1.972   5.573   6.028  0.4020  0.6426  1.9286
  166SAPS  H18S18758   2.139   5.597   6.048  1.2409  1.6201 -1.6814
  166SAPS  C21918759   2.061   5.700   5.885  0.4621  0.5020 -0.1934
  166SAPS  H19R18760   1.968   5.756   5.865 -0.8428 -0.0516  3.4488
  166SAPS  H19S18761   2.079   5.614   5.817  2.4994  0.9034 -0.2282
  166SAPS  C22018762   2.181   5.791   5.874 -0.4287 -0.2094  0.1833
  166SAPS  H20R18763   2.278   5.739   5.885 -0.6067 -1.0996 -2.0197
  166SAPS  H20S18764   2.179   5.875   5.947  2.5216  0.4791 -0.4241
  166SAPS  H20T18765   2.178   5.846   5.778  0.8274 -1.9867 -0.9305
  166SAPS   C3318766   3.210   4.239   6.740  0.0398  1.2285 -0.1687
  166SAPS   H3X18767   3.260   4.176   6.817 -0.4876  3.0790  1.8018
  166SAPS   H3Y18768   3.264   4.212   6.647  0.9856  0.7989  0.4929
  166SAPS   C3418769   3.063   4.202   6.717  0.8684 -0.4837  0.5930
  166SAPS   H4X18770   2.989   4.244   6.789  0.1075 -1.2808  0.3050
  166SAPS   H4Y18771   3.049   4.092   6.718  0.6206 -0.5705 -2.5670
  166SAPS   C3518772   3.013   4.238   6.572 -0.1561 -0.1179  0.3237
  166SAPS   H5X18773   3.086   4.202   6.496 -0.9125  0.8065 -0.8988
  166SAPS   H5Y18774   3.011   4.349   6.561  0.1696 -0.0275  1.1669
  166SAPS   C3618775   2.875   4.179   6.527 -0.0180 -0.0328  0.7664
  166SAPS   H6X18776   2.868   4.082   6.580 -0.6253  0.9261  2.5643
  166SAPS   H6Y18777   2.888   4.159   6.419  0.5842 -3.3801  1.3577
  166SAPS   C3718778   2.751   4.265   6.561  0.0586 -0.0227 -0.3568
  166SAPS   H7X18779   2.763   4.359   6.502 -0.7025 -0.3594 -1.0634
  166SAPS   H7Y18780   2.753   4.286   6.670 -1.0709  1.2951 -0.5640
  166SAPS   C3818781   2.607   4.212   6.533 -0.2173  0.3002  0.0206
  166SAPS   H8X18782   2.535   4.296   6.538 -0.1397  0.3065  1.4863
  166SAPS   H8Y18783   2.583   4.146   6.620  1.6741 -0.7694 -0.2246
  166SAPS   C3918784   2.593   4.124   6.404 -0.1857  0.4120  0.3625
  166SAPS   H9X18785   2.492   4.077   6.402  0.3772 -0.8112  0.1897
  166SAPS   H9Y18786   2.671   4.045   6.407  0.4484  0.9581 -1.1284
  166SAPS  C31018787   2.601   4.200   6.278 -0.6050  0.0592 -0.2170
  166SAPS  H10X18788   2.694   4.261   6.278  0.1530 -0.8812 -3.5553
  166SAPS  H10Y18789   2.525   4.281   6.283  1.1178  1.7001  1.3764
  166SAPS  C31118790   2.597   4.116   6.149 -0.1709 -0.1531  0.3522
  166SAPS  H11X18791   2.491   4.091   6.129 -0.4712  1.5171 -0.3281
  166SAPS  H11Y18792   2.657   4.022   6.150 -0.2237 -0.1999 -0.4115
  166SAPS  C31218793   2.632   4.205   6.029 -0.4479  0.2625  0.5960
  166SAPS  H12X18794   2.735   4.240   6.050 -0.5283  1.2909 -0.6103
  166SAPS  H12Y18795   2.569   4.295   6.014 -3.0690 -1.8522 -2.5472
  166SAPS  C31318796   2.628   4.120   5.896  0.2417 -0.5158 -0.0576
  166SAPS  H13X18797   2.530   4.068   5.904  1.3268 -2.4899  1.3123
  166SAPS  H13Y18798   2.699   4.035   5.885  1.4916  0.5518 -0.6175
  166SAPS  C31418799   2.629   4.204   5.773  0.1196 -0.4955 -0.4305
  166SAPS  H14X18800   2.714   4.276   5.772  0.0707 -0.4471 -1.8018
  166SAPS  H14Y18801   2.541   4.272   5.768  1.3009  1.1664  0.2782
  166SAPS  C31518802   2.649   4.115   5.649 -0.5070  0.5631 -0.0264
  166SAPS  H15X18803   2.578   4.136   5.566 -0.2875  1.6418  0.0495
  166SAPS  H15Y18804   2.642   4.011   5.688  0.0917  0.4752 -0.1414
  166SAPS  C31618805   2.796   4.134   5.601  0.1951  0.4454 -0.1120
  166SAPS  H16X18806   2.828   4.040   5.552 -0.9922  1.4643 -3.0715
  166SAPS  H16Y18807   2.870   4.165   5.678  0.6634 -0.6977 -0.0829
  166SAPS  C31718808   2.801   4.234   5.478 -0.3729  0.1094  0.5662
  166SAPS  H17X18809   2.775   4.333   5.521  1.5240  0.3175  1.3627
  166SAPS  H17Y18810   2.724   4.212   5.402  1.8390  2.8060 -2.7741
  166SAPS  C31818811   2.935   4.248   5.412 -0.2380 -0.3411 -0.2463
  166SAPS  H18X18812   2.950   4.346   5.361 -1.2071  0.4152  0.8642
  166SAPS  H18Y18813   2.941   4.168   5.335 -0.8814 -1.2193  0.5817
  166SAPS  H18Z18814   3.016   4.244   5.488 -2.5924  0.1353  2.4716
  167SAPS     N18815   5.234   6.174   7.792 -0.3586  0.1796 -0.4612
  167SAPS   HN118816   5.325   6.218   7.817 -1.4431  2.3774 -0.1497
  167SAPS   HN218817   5.240   6.080   7.747  3.6664 -1.1662  2.3091
  167SAPS   HN318818   5.177   6.234   7.730 -0.5569 -0.1045 -0.5582
  167SAPS   C1218819   5.158   6.168   7.919  0.9324 -0.5612 -1.0222
  167SAPS  H12A18820   5.061   6.122   7.904  0.4670  0.1101 -0.1607
  167SAPS   C1318821   5.205   6.084   8.036 -0.2273 -0.8270 -0.7186
  167SAPS  O13A18822   5.319   6.031   8.024  0.7155  0.0133 -0.0704
  167SAPS  O13B18823   5.144   6.082   8.150 -0.0375 -0.1702  0.1670
  167SAPS   C1118824   5.131   6.319   7.966  0.1129 -0.2180 -0.3687
  167SAPS  H11A18825   5.224   6.359   8.012 -1.1313  2.1921  0.2147
  167SAPS  H11B18826   5.060   6.333   8.050  0.4826  2.6161 -0.4320
  167SAPS     P18827   4.993   6.518   7.853  0.1828  0.3052  0.3969
  167SAPS   O1318828   4.859   6.481   7.802 -0.5537  0.1813 -0.2651
  167SAPS   O1418829   5.001   6.594   7.984 -0.6282  0.4988  0.3171
  167SAPS   O1218830   5.092   6.392   7.856 -1.0074  0.1176  0.1596
  167SAPS   O1118831   5.052   6.593   7.725  0.1879 -0.2132 -0.2141
  167SAPS    C118832   5.182   6.559   7.678 -0.1545  0.1986 -0.7270
  167SAPS    HA18833   5.261   6.555   7.756  0.9847  1.2394 -1.7864
  167SAPS    HB18834   5.186   6.456   7.636  2.7432  0.4642 -1.3146
  167SAPS    C218835   5.227   6.672   7.572 -0.7208  0.9414  0.1222
  167SAPS    HS18836   5.309   6.627   7.513 -1.4681 -0.9736  0.4935
  167SAPS   O2118837   5.271   6.795   7.632 -0.9432  0.1546  1.0734
  167SAPS   C2118838   5.400   6.786   7.672 -0.0045  0.1051 -0.7586
  167SAPS   O2218839   5.475   6.693   7.660  0.0546  0.0469 -0.2265
  167SAPS   C2218840   5.447   6.921   7.739  0.3847 -0.4008  0.2039
  167SAPS   H2R18841   5.420   7.002   7.668  0.1648 -1.2244 -0.6885
  167SAPS   H2S18842   5.381   6.922   7.828  1.5637 -1.1812  1.1137
  167SAPS    C318843   5.120   6.694   7.466  0.6996  0.2030 -0.4539
  167SAPS    HX18844   5.048   6.760   7.519  0.0310  0.4646 -1.6678
  167SAPS    HY18845   5.065   6.599   7.448  1.3135 -0.1947 -0.3099
  167SAPS   O3118846   5.170   6.764   7.349 -0.3319  0.1306 -0.0190
  167SAPS   C3118847   5.184   6.695   7.227  0.2191 -0.4131 -0.0513
  167SAPS   O3218848   5.166   6.577   7.214  0.0469 -0.0856  0.3478
  167SAPS   C3218849   5.230   6.783   7.115 -0.9367  0.4463  0.1018
  167SAPS   H2X18850   5.296   6.715   7.056  2.0197  0.8554  2.6499
  167SAPS   H2Y18851   5.299   6.858   7.158 -1.5608  0.7833  0.5347
  167SAPS   C2318852   5.594   6.930   7.800  0.4548 -0.1289 -0.0586
  167SAPS   H3R18853   5.629   6.830   7.832 -0.6511 -0.1496  1.1600
  167SAPS   H3S18854   5.607   7.004   7.882  3.3204 -0.4104 -0.1644
  167SAPS   C2418855   5.702   6.973   7.695  0.1965 -0.6032  0.2730
  167SAPS   H4R18856   5.714   6.903   7.610  0.0235  0.3427 -0.5506
  167SAPS   H4S18857   5.800   6.982   7.746  1.7035  1.9571 -2.7342
  167SAPS   C2518858   5.664   7.106   7.637 -0.7353 -0.0890  0.7753
  167SAPS   H5R18859   5.621   7.175   7.711 -0.2711  0.4556  0.5351
  167SAPS   C2618860   5.679   7.160   7.515  0.1311 -0.4250  0.4607
  167SAPS   H6R18861   5.636   7.258   7.488  0.3301  0.1867  2.2698
  167SAPS   C2718862   5.742   7.087   7.394 -0.1483 -0.1873 -0.3107
  167SAPS   H7R18863   5.799   6.996   7.424 -1.2724 -0.3815  1.3251
  167SAPS   H7S18864   5.812   7.153   7.338 -2.2288  1.8163 -0.6462
  167SAPS   C2818865   5.633   7.044   7.303 -0.2612  0.4312  0.0545
  167SAPS   H8R18866   5.546   6.997   7.351 -0.9809  0.4216 -1.1991
  167SAPS   C2918867   5.651   7.015   7.169  0.5774 -0.1744 -0.5454
  167SAPS   H9R18868   5.565   6.977   7.112 -0.5849 -0.4897  1.3139
  167SAPS  C21018869   5.773   7.052   7.081  0.4342  0.2969 -0.8654
  167SAPS  H10R18870   5.782   6.962   7.017  1.4983  0.0775 -0.4364
  167SAPS  H10S18871   5.869   7.041   7.137  0.1931 -0.3347 -0.5700
  167SAPS  C21118872   5.760   7.182   7.008 -0.5548 -0.3059 -1.2790
  167SAPS  H11R18873   5.806   7.271   7.055  0.1178 -1.7994  1.0501
  167SAPS  C21218874   5.702   7.210   6.893  0.3713 -0.2299 -0.0068
  167SAPS  H12R18875   5.705   7.314   6.856 -0.3955 -0.3585 -0.4616
  167SAPS  C21318876   5.642   7.115   6.795 -0.5619 -0.1750  0.3072
  167SAPS  H13R18877   5.549   7.158   6.751  1.0190  0.7499 -2.3124
  167SAPS  H13S18878   5.622   7.013   6.835 -0.7472 -1.1228 -2.0403
  167SAPS  C21418879   5.755   7.094   6.698  0.4764  1.0792 -0.2965
  167SAPS  H14R18880   5.851   7.060   6.740 -0.1375 -0.5354 -0.1170
  167SAPS  C21518881   5.749   7.138   6.572 -0.5991 -1.0406  0.3340
  167SAPS  H15R18882   5.848   7.138   6.524 -0.3357 -2.5794  0.8168
  167SAPS  C21618883   5.625   7.199   6.501  0.1909  0.2663 -0.3236
  167SAPS  H16R18884   5.666   7.288   6.447 -1.3908  0.4835 -1.2385
  167SAPS  H16S18885   5.550   7.237   6.574  1.4250 -0.5460  1.4460
  167SAPS  C21718886   5.556   7.109   6.401  0.2626 -0.2758  0.1825
  167SAPS  H17R18887   5.459   7.149   6.364  0.5837  1.3697  1.0553
  167SAPS  H17S18888   5.529   7.025   6.468  0.5087  1.5750  2.7433
  167SAPS  C21818889   5.645   7.063   6.280  1.3063  0.6256 -0.2142
  167SAPS  H18R18890   5.585   6.989   6.223 -0.9758  0.0228  2.7245
  167SAPS  H18S18891   5.722   6.998   6.326 -0.0000 -0.6567  0.2481
  167SAPS  C21918892   5.693   7.176   6.187  0.7792  0.4191 -0.3793
  167SAPS  H19R18893   5.734   7.262   6.245 -1.1500  2.5707 -1.9873
  167SAPS  H19S18894   5.602   7.217   6.137 -0.2190 -0.6639  0.5011
  167SAPS  C22018895   5.789   7.128   6.070  0.1642  0.5200 -0.3470
  167SAPS  H20R18896   5.740   7.053   6.004 -1.8541  2.9567 -1.8331
  167SAPS  H20S18897   5.886   7.089   6.108 -0.6492 -1.3180 -0.0994
  167SAPS  H20T18898   5.825   7.217   6.013  1.3523 -0.1735 -0.7218
  167SAPS   C3318899   5.126   6.849   7.026  0.3769 -1.2253  0.1112
  167SAPS   H3X18900   5.044   6.876   7.095  1.5354  0.7220  0.8161
  167SAPS   H3Y18901   5.087   6.777   6.951 -0.3503 -1.6539  0.8894
  167SAPS   C3418902   5.169   6.991   6.971 -0.0646  0.1602  0.1200
  167SAPS   H4X18903   5.177   7.050   7.065 -2.6671  1.8042 -0.5704
  167SAPS   H4Y18904   5.089   7.040   6.911 -0.4610 -1.0770 -0.3818
  167SAPS   C3518905   5.296   6.987   6.883  0.6654  0.1544 -0.2871
  167SAPS   H5X18906   5.372   6.964   6.961 -0.8529  0.2481  1.2786
  167SAPS   H5Y18907   5.314   7.092   6.850 -1.2249  1.5167  2.6214
  167SAPS   C3618908   5.290   6.882   6.767 -0.3366  1.2664 -0.0148
  167SAPS   H6X18909   5.279   6.777   6.799 -2.6464  0.8343 -1.8807
  167SAPS   H6Y18910   5.390   6.886   6.719 -1.3245 -0.5498 -2.4493
  167SAPS   C3718911   5.183   6.910   6.666 -0.1853 -0.5971  0.8909
  167SAPS   H7X18912   5.076   6.893   6.691 -0.7939  0.0676 -1.1146
  167SAPS   H7Y18913   5.209   6.837   6.587  3.0668 -0.3364  1.5872
  167SAPS   C3818914   5.172   7.050   6.596 -0.0110  0.1406  0.3205
  167SAPS   H8X18915   5.275   7.071   6.559 -1.3377  1.2746 -3.1619
  167SAPS   H8Y18916   5.153   7.125   6.675 -1.3915 -0.8464  0.9527
  167SAPS   C3918917   5.060   7.059   6.493  0.1323 -0.2635 -0.2299
  167SAPS   H9X18918   4.987   7.136   6.526 -0.9974 -1.1657 -0.5428
  167SAPS   H9Y18919   5.018   6.957   6.480  1.9792 -0.8285 -2.4288
  167SAPS  C31018920   5.113   7.101   6.357  0.4847 -0.2903  0.4855
  167SAPS  H10X18921   5.165   7.199   6.367  0.0913  0.0866 -0.9017
  167SAPS  H10Y18922   5.031   7.119   6.285  2.0733  0.6922 -1.1715
  167SAPS  C31118923   5.197   7.001   6.279 -0.1547 -0.1212  0.4377
  167SAPS  H11X18924   5.129   6.919   6.248 -0.6865  0.7497 -0.7729
  167SAPS  H11Y18925   5.275   6.965   6.349  0.6457  1.7649  0.5770
  167SAPS  C31218926   5.270   7.056   6.150 -0.1577  1.2242 -0.0676
  167SAPS  H12X18927   5.336   6.977   6.108 -2.9725 -0.8306 -0.9706
  167SAPS  H12Y18928   5.326   7.149   6.174 -3.9694  3.8672 -0.4564
  167SAPS  C31318929   5.177   7.072   6.034  0.7028  0.2853  0.1181
  167SAPS  H13X18930   5.098   7.147   6.056  0.8967  0.2954  0.7968
  167SAPS  H13Y18931   5.133   6.972   6.015  1.4682  0.1110 -0.7725
  167SAPS  C31418932   5.259   7.120   5.910  0.5649 -0.2362  0.2111
  167SAPS  H14X18933   5.346   7.055   5.885  1.6709  1.8468 -1.7575
  167SAPS  H14Y18934   5.295   7.220   5.943  0.6639 -0.5614  1.1060
  167SAPS  C31518935   5.181   7.159   5.791 -0.5593  0.6391  0.9199
  167SAPS  H15X18936   5.254   7.206   5.722  1.4233 -0.5974  2.0717
  167SAPS  H15Y18937   5.113   7.239   5.827  1.2691  1.5765  2.4697
  167SAPS  C31618938   5.102   7.037   5.743  0.8416  0.3782  0.4987
  167SAPS  H16X18939   5.048   6.988   5.827 -0.5201 -0.4369 -0.8092
  167SAPS  H16Y18940   5.166   6.968   5.684  3.1122  0.3943  2.7434
  167SAPS  C31718941   4.990   7.088   5.651  0.7724 -0.2438 -0.1917
  167SAPS  H17X18942   5.027   7.146   5.564  0.5821  2.9065  1.6784
  167SAPS  H17Y18943   4.922   7.163   5.698  0.2297 -0.7084 -0.2198
  167SAPS  C31818944   4.897   6.973   5.603 -0.1879 -0.2550  0.2856
  167SAPS  H18X18945   4.958   6.891   5.561 -0.2042 -0.0756 -0.0874
  167SAPS  H18Y18946   4.821   7.016   5.535 -1.5610  0.0746  1.9406
  167SAPS  H18Z18947   4.846   6.918   5.686 -1.2990  0.6238  0.2131
  168SAPS     N18948   3.447   0.586   7.673  0.6563  0.1946  0.2421
  168SAPS   HN118949   3.536   0.630   7.704  1.2062  0.4546 -1.6051
  168SAPS   HN218950   3.381   0.660   7.640 -1.3136 -0.8724  1.5540
  168SAPS   HN318951   3.406   0.536   7.754  2.2901 -2.1052 -0.2611
  168SAPS   C1218952   3.480   0.482   7.566 -0.5702 -0.0559 -0.2029
  168SAPS  H12A18953   3.479   0.541   7.476 -1.2024  0.6418  0.2560
  168SAPS   C1318954   3.618   0.424   7.594  0.5090 -0.2053  0.3898
  168SAPS  O13A18955   3.691   0.473   7.682  0.5094  0.3983  0.0501
  168SAPS  O13B18956   3.657   0.345   7.504  0.1836  0.2685 -0.1389
  168SAPS   C1118957   3.375   0.368   7.555  0.0661  0.5200 -0.3638
  168SAPS  H11A18958   3.385   0.309   7.649  0.2737  1.2072  0.0517
  168SAPS  H11B18959   3.399   0.303   7.468  0.1303 -0.9695  0.7203
  168SAPS     P18960   3.154   0.417   7.422  0.1998 -0.1115  0.4720
  168SAPS   O1318961   3.119   0.275   7.398 -0.2593 -0.0378 -1.0656
  168SAPS   O1418962   3.033   0.504   7.444 -0.5159 -0.8474  0.1991
  168SAPS   O1218963   3.238   0.427   7.547  0.1499  0.6198  0.0861
  168SAPS   O1118964   3.247   0.477   7.306  0.2778 -0.1956 -0.2034
  168SAPS    C118965   3.264   0.620   7.295  0.3038 -0.2809 -0.1159
  168SAPS    HA18966   3.265   0.662   7.398 -0.2614 -3.0539  1.1234
  168SAPS    HB18967   3.366   0.646   7.261 -0.0128  2.8254  0.9722
  168SAPS    C218968   3.150   0.677   7.198 -0.6297  0.1944  0.7208
  168SAPS    HS18969   3.053   0.643   7.238 -1.0767 -2.5295 -2.2666
  168SAPS   O2118970   3.177   0.630   7.060  0.5256 -0.2336 -0.2391
  168SAPS   C2118971   3.070   0.573   6.998  0.3264 -0.2946  0.5334
  168SAPS   O2218972   2.956   0.568   7.036  0.1425 -0.0764 -0.6332
  168SAPS   C2218973   3.105   0.537   6.859 -0.3378 -0.2506 -0.2922
  168SAPS   H2R18974   3.018   0.495   6.804 -1.3360 -1.4071  1.9995
  168SAPS   H2S18975   3.137   0.618   6.791 -1.1796 -2.1172 -3.1122
  168SAPS    C318976   3.148   0.838   7.193 -0.3748  0.3727  0.6724
  168SAPS    HX18977   3.255   0.867   7.184  0.2540 -1.6683  0.9671
  168SAPS    HY18978   3.128   0.872   7.297  1.6794 -0.0871  1.2823
  168SAPS   O3118979   3.066   0.888   7.087 -0.9209 -0.0606 -0.0907
  168SAPS   C3118980   2.943   0.932   7.116 -0.2394 -0.0140  0.3126
  168SAPS   O3218981   2.901   0.930   7.233 -0.8119  0.2183  0.2995
  168SAPS   C3218982   2.864   0.985   6.991 -0.0374  0.2674 -0.6721
  168SAPS   H2X18983   2.933   1.049   6.933  1.6904  1.1864  2.1922
  168SAPS   H2Y18984   2.775   1.040   7.028 -0.4453 -0.1807 -0.9731
  168SAPS   C2318985   3.216   0.426   6.853  0.1225 -0.7213  0.2309
  168SAPS   H3R18986   3.176   0.338   6.908  1.5055 -1.1107  0.6644
  168SAPS   H3S18987   3.312   0.452   6.903 -0.4714 -0.4757  1.2867
  168SAPS   C2418988   3.242   0.393   6.704 -0.7177 -0.1386 -0.1604
  168SAPS   H4R18989   3.325   0.319   6.706  0.3078  0.9574 -1.1963
  168SAPS   H4S18990   3.291   0.482   6.660  0.9962 -0.2332  1.4406
  168SAPS   C2518991   3.122   0.337   6.634 -0.5559 -0.6504 -0.6952
  168SAPS   H5R18992   3.036   0.331   6.703 -0.6007 -1.1718 -0.7955
  168SAPS   C2618993   3.106   0.311   6.502  1.2108 -0.2095  0.0610
  168SAPS   H6R18994   3.006   0.283   6.466  1.4828  1.1511 -1.8748
  168SAPS   C2718995   3.216   0.320   6.397 -0.0618 -0.5318 -0.5698
  168SAPS   H7R18996   3.208   0.232   6.330 -0.8227 -1.8613  1.1859
  168SAPS   H7S18997   3.319   0.310   6.437  0.2684 -2.9411 -1.8768
  168SAPS   C2818998   3.198   0.442   6.317  0.2759 -0.0669  0.2651
  168SAPS   H8R18999   3.247   0.533   6.356  0.9446 -0.3077  0.0063
  168SAPS   C2919000   3.146   0.453   6.197 -0.1758 -0.0129  0.4914
  168SAPS   H9R19001   3.135   0.553   6.153  2.6951  0.0579 -0.3223
  168SAPS  C21019002   3.070   0.343   6.127 -0.1461  0.3782  0.6162
  168SAPS  H10R19003   2.988   0.385   6.065  0.1648  0.8257  0.5066
  168SAPS  H10S19004   3.029   0.276   6.205 -1.9937  0.7624  0.0260
  168SAPS  C21119005   3.155   0.256   6.037 -0.3806 -0.1509 -0.4072
  168SAPS  H11R19006   3.216   0.180   6.089  0.9312  1.2611  0.2010
  168SAPS  C21219007   3.180   0.264   5.907 -0.1989 -0.5359  0.0446
  168SAPS  H12R19008   3.261   0.201   5.867 -0.4759 -1.3369  0.7004
  168SAPS  C21319009   3.116   0.359   5.806  0.2781  0.5735 -0.0080
  168SAPS  H13R19010   3.073   0.446   5.859 -0.1427  0.5203 -0.2622
  168SAPS  H13S19011   3.036   0.304   5.753  2.4124 -1.9307 -0.8186
  168SAPS  C21419012   3.222   0.403   5.706  0.1823  0.2234 -0.2773
  168SAPS  H14R19013   3.316   0.435   5.754 -0.7054  1.0007  1.0028
  168SAPS  C21519014   3.211   0.413   5.569  0.1224 -0.1432 -0.2802
  168SAPS  H15R19015   3.298   0.440   5.508 -0.4865 -2.6142 -2.4610
  168SAPS  C21619016   3.084   0.366   5.500 -0.6107 -0.3858  0.7005
  168SAPS  H16R19017   3.060   0.422   5.407 -0.5159  0.1421  0.9853
  168SAPS  H16S19018   2.994   0.375   5.564 -1.2558  1.8919 -0.4183
  168SAPS  C21719019   3.091   0.221   5.465  0.0353  0.4508  0.2458
  168SAPS  H17R19020   2.990   0.176   5.449 -1.3755  2.7270  2.1158
  168SAPS  H17S19021   3.134   0.159   5.546 -1.3960  0.3675  0.9772
  168SAPS  C21819022   3.190   0.183   5.350  0.3728  0.3601 -0.1274
  168SAPS  H18R19023   3.288   0.209   5.394  0.5199 -1.4084  0.6867
  168SAPS  H18S19024   3.185   0.243   5.257 -2.6966 -1.6280 -1.4338
  168SAPS  C21919025   3.197   0.036   5.297  0.1185  0.3429 -0.3180
  168SAPS  H19R19026   3.202  -0.025   5.390 -1.8303  0.1567 -0.2871
  168SAPS  H19S19027   3.295   0.015   5.248  1.3156  1.5877  1.4107
  168SAPS  C22019028   3.078  -0.012   5.203  0.2923 -0.6432  0.5693
  168SAPS  H20R19029   3.099  -0.114   5.167 -1.0556 -1.1325  1.0927
  168SAPS  H20S19030   3.082   0.061   5.120  1.9957 -0.5086  0.7433
  168SAPS  H20T19031   2.976  -0.009   5.249  0.4149 -0.6394  0.8446
  168SAPS   C3319032   2.817   0.857   6.916  0.6369 -0.0185  0.2810
  168SAPS   H3X19033   2.751   0.785   6.970  1.3091 -1.7708 -1.1335
  168SAPS   H3Y19034   2.902   0.795   6.881 -0.0365 -0.0547 -1.4053
  168SAPS   C3419035   2.739   0.885   6.790 -0.6861 -0.5162  0.0333
  168SAPS   H4X19036   2.795   0.955   6.724 -1.7976 -0.6861 -1.1355
  168SAPS   H4Y19037   2.651   0.949   6.811 -0.0613  0.3026  0.2176
  168SAPS   C3519038   2.703   0.776   6.694  0.8198 -0.0011  0.7198
  168SAPS   H5X19039   2.642   0.822   6.613  1.2699 -2.1214 -0.9255
  168SAPS   H5Y19040   2.640   0.702   6.747 -1.9347  0.9269 -1.0207
  168SAPS   C3619041   2.826   0.699   6.633 -1.1323 -0.4136 -0.2871
  168SAPS   H6X19042   2.781   0.615   6.577  0.5120 -0.2492 -1.9366
  168SAPS   H6Y19043   2.878   0.654   6.720 -0.0769  0.8082 -0.2585
  168SAPS   C3719044   2.912   0.781   6.535 -0.1867 -0.0047  0.5609
  168SAPS   H7X19045   3.002   0.716   6.525 -1.3837 -1.8186  1.1403
  168SAPS   H7Y19046   2.949   0.872   6.586 -0.3561 -0.0123  0.6969
  168SAPS   C3819047   2.845   0.814   6.399  0.3238  0.5273  1.1092
  168SAPS   H8X19048   2.922   0.875   6.346  0.0038 -0.0538 -0.0419
  168SAPS   H8Y19049   2.753   0.872   6.417 -1.0624  0.3010 -3.8814
  168SAPS   C3919050   2.815   0.694   6.302  0.6382 -0.0488  0.3331
  168SAPS   H9X19051   2.746   0.622   6.350 -0.7136 -0.6886 -2.3649
  168SAPS   H9Y19052   2.908   0.637   6.277  0.6590 -0.0413  0.3929
  168SAPS  C31019053   2.769   0.739   6.161  0.2361 -0.6137 -0.1911
  168SAPS  H10X19054   2.849   0.799   6.110  0.7301 -2.7761 -2.1410
  168SAPS  H10Y19055   2.687   0.806   6.194 -1.1864 -2.4212  0.0601
  168SAPS  C31119056   2.708   0.626   6.076  0.4463 -0.6581  0.2807
  168SAPS  H11X19057   2.623   0.578   6.128 -0.3381  0.5296  0.1360
  168SAPS  H11Y19058   2.779   0.542   6.059 -0.8367 -1.6616 -0.2561
  168SAPS  C31219059   2.683   0.675   5.929  0.5790  0.3357  0.7364
  168SAPS  H12X19060   2.596   0.743   5.930 -1.6471 -2.0026 -4.1141
  168SAPS  H12Y19061   2.638   0.594   5.868  2.0059  0.5336 -0.6495
  168SAPS  C31319062   2.801   0.729   5.848  0.3741  0.7130  0.0383
  168SAPS  H13X19063   2.877   0.648   5.845 -1.2469 -1.0177  2.1056
  168SAPS  H13Y19064   2.853   0.820   5.884  2.3041 -0.4955  0.4624
  168SAPS  C31419065   2.771   0.761   5.703  0.0815  0.0143  0.1067
  168SAPS  H14X19066   2.837   0.842   5.667  0.8291 -1.1841 -1.3572
  168SAPS  H14Y19067   2.664   0.786   5.689 -0.2230 -1.6804 -1.0109
  168SAPS  C31519068   2.792   0.637   5.608 -0.0124 -0.5364  0.9314
  168SAPS  H15X19069   2.746   0.555   5.667  0.3730 -1.2345  0.2907
  168SAPS  H15Y19070   2.899   0.616   5.585 -0.1785  1.2758 -2.1986
  168SAPS  C31619071   2.711   0.649   5.474 -0.4001  0.3010  0.3747
  168SAPS  H16X19072   2.732   0.753   5.441  0.4505 -0.4459 -1.6020
  168SAPS  H16Y19073   2.604   0.628   5.497 -1.1877  1.8294 -1.5569
  168SAPS  C31719074   2.736   0.541   5.363 -0.2699 -0.3786 -0.3916
  168SAPS  H17X19075   2.726   0.448   5.424  1.2748 -1.5214 -1.7969
  168SAPS  H17Y19076   2.832   0.542   5.307 -0.4245 -1.6922 -0.7220
  168SAPS  C31819077   2.626   0.538   5.245 -1.2795  0.2010 -0.4602
  168SAPS  H18X19078   2.608   0.646   5.223  0.5103  0.6213 -0.0064
  168SAPS  H18Y19079   2.531   0.493   5.279 -0.5504 -1.4528 -0.4971
  168SAPS  H18Z19080   2.659   0.488   5.151 -0.2205  0.2007 -0.1000
  169SAPS     N19081   0.200   3.361   7.789 -0.1284 -0.5160 -0.0376
  169SAPS   HN119082   0.122   3.293   7.798 -1.7169  1.4620  2.2168
  169SAPS   HN219083   0.280   3.314   7.740 -0.7002 -0.7583 -0.7513
  169SAPS   HN319084   0.229   3.387   7.885 -1.2358  0.1180  0.1277
  169SAPS   C1219085   0.147   3.468   7.698  0.1272  0.3980  0.1279
  169SAPS  H12A19086   0.058   3.512   7.742 -1.7013 -2.0208 -0.9467
  169SAPS   C1319087   0.234   3.593   7.666  0.4127  0.7906 -0.2416
  169SAPS  O13A19088   0.350   3.599   7.718 -0.6112 -0.1212 -0.2487
  169SAPS  O13B19089   0.173   3.693   7.617  0.5817  0.2292  0.3706
  169SAPS   C1119090   0.112   3.407   7.553 -0.0127 -0.2019 -0.7832
  169SAPS  H11A19091   0.199   3.350   7.514 -0.3973 -0.8368 -0.7181
  169SAPS  H11B19092   0.086   3.486   7.479 -2.0937 -1.1682 -1.1513
  169SAPS     P19093  -0.138   3.340   7.529  0.1316 -0.1827 -0.1830
  169SAPS   O1319094  -0.219   3.226   7.566 -0.5232 -0.5677  0.0096
  169SAPS   O1419095  -0.188   3.470   7.580 -0.3608  0.3171 -0.4051
  169SAPS   O1219096   0.007   3.313   7.570  0.0624 -0.5261 -0.8155
  169SAPS   O1119097  -0.134   3.355   7.377  0.1332 -0.5786  0.2739
  169SAPS    C119098  -0.055   3.280   7.288 -1.3181  1.0346 -0.0045
  169SAPS    HA19099   0.048   3.321   7.289 -2.0869  3.1278  0.1394
  169SAPS    HB19100  -0.066   3.171   7.301  1.4339  0.6335 -0.5530
  169SAPS    C219101  -0.106   3.306   7.143  0.0527 -0.0656 -0.0021
  169SAPS    HS19102  -0.078   3.411   7.123 -2.1767  0.8354  1.3222
  169SAPS   O2119103  -0.250   3.290   7.136  0.0357  0.0539  0.1920
  169SAPS   C2119104  -0.328   3.392   7.133 -0.0126 -0.1598 -0.4844
  169SAPS   O2219105  -0.302   3.507   7.146 -0.7103 -0.5349  0.0993
  169SAPS   C2219106  -0.477   3.349   7.113  0.0427  0.9574 -0.3744
  169SAPS   H2R19107  -0.492   3.240   7.127 -1.0528  1.0144 -0.9774
  169SAPS   H2S19108  -0.533   3.409   7.188 -3.5687 -2.5652  0.0480
  169SAPS    C319109  -0.045   3.206   7.031 -0.0509  0.3110  0.1209
  169SAPS    HX19110  -0.096   3.107   7.030  0.4331  0.0532  0.6887
  169SAPS    HY19111   0.064   3.192   7.042 -0.2451 -1.9693 -0.2733
  169SAPS   O3119112  -0.058   3.261   6.894  0.2700  0.6853  0.0764
  169SAPS   C3119113   0.004   3.381   6.875 -0.2792 -0.0043 -0.7426
  169SAPS   O3219114   0.082   3.425   6.956 -0.1250 -0.5769 -0.3088
  169SAPS   C3219115  -0.045   3.452   6.748 -0.0333  0.0130 -0.2074
  169SAPS   H2X19116  -0.038   3.561   6.764  1.8436 -0.2635  1.1028
  169SAPS   H2Y19117  -0.147   3.412   6.726  0.7478 -1.1708 -1.8682
  169SAPS   C2319118  -0.530   3.390   6.973 -0.2286  0.2717 -0.6727
  169SAPS   H3R19119  -0.461   3.359   6.892  2.0397 -2.8412  2.1843
  169SAPS   H3S19120  -0.554   3.497   6.959 -1.4427 -0.0315 -1.0139
  169SAPS   C2419121  -0.670   3.326   6.953  0.0055 -1.1244 -0.1577
  169SAPS   H4R19122  -0.705   3.360   6.853  0.9671 -0.1867 -0.1914
  169SAPS   H4S19123  -0.743   3.371   7.024  0.0054 -2.0898  0.4792
  169SAPS   C2519124  -0.692   3.184   6.968 -0.5835  1.1019  0.4299
  169SAPS   H5R19125  -0.714   3.152   7.071 -0.8576 -1.2563 -0.2903
  169SAPS   C2619126  -0.668   3.092   6.874  0.0064 -0.3248  0.5909
  169SAPS   H6R19127  -0.685   2.988   6.904 -1.1714 -0.3246  0.0091
  169SAPS   C2719128  -0.629   3.114   6.727  0.3727  0.2434  0.4066
  169SAPS   H7R19129  -0.625   3.012   6.683 -0.7930 -0.6924  2.3310
  169SAPS   H7S19130  -0.530   3.158   6.703  0.5005 -0.4028 -0.3064
  169SAPS   C2819131  -0.733   3.180   6.644  0.3353 -0.6052  0.6805
  169SAPS   H8R19132  -0.822   3.217   6.697 -0.1542 -0.4413 -0.2350
  169SAPS   C2919133  -0.719   3.199   6.508  0.2467  0.9443  0.3887
  169SAPS   H9R19134  -0.800   3.244   6.449  0.8531  0.0418 -1.1821
  169SAPS  C21019135  -0.604   3.154   6.419  0.4336  0.1781  0.3002
  169SAPS  H10R19136  -0.562   3.061   6.462  0.2792 -0.1007 -0.1423
  169SAPS  H10S19137  -0.532   3.238   6.426  0.2283  0.4680 -0.8890
  169SAPS  C21119138  -0.651   3.120   6.279  0.4299 -0.0018 -0.2738
  169SAPS  H11R19139  -0.683   3.016   6.260 -0.2808 -0.0825  1.2404
  169SAPS  C21219140  -0.652   3.203   6.173 -0.0728  0.7095 -0.0075
  169SAPS  H12R19141  -0.669   3.156   6.075 -0.4296  1.7965 -0.4825
  169SAPS  C21319142  -0.611   3.348   6.173  0.6889 -0.3065  0.5872
  169SAPS  H13R19143  -0.603   3.401   6.270  1.7858  1.3612 -0.3679
  169SAPS  H13S19144  -0.689   3.400   6.113 -1.4101 -3.7182  0.1007
  169SAPS  C21419145  -0.477   3.368   6.099 -0.3662 -0.1531 -0.2026
  169SAPS  H14R19146  -0.390   3.344   6.161  1.6850  2.0545 -2.0184
  169SAPS  C21519147  -0.450   3.415   5.974  0.6708  0.5221 -0.5068
  169SAPS  H15R19148  -0.352   3.438   5.929  0.6728  1.0778 -0.2276
  169SAPS  C21619149  -0.556   3.457   5.878  0.2369  0.0615 -0.1662
  169SAPS  H16R19150  -0.535   3.563   5.853 -4.0918  0.8593 -1.2571
  169SAPS  H16S19151  -0.661   3.459   5.915  0.4063  0.0145  0.3343
  169SAPS  C21719152  -0.566   3.372   5.751  0.1836  0.2070 -0.3040
  169SAPS  H17R19153  -0.464   3.360   5.707  1.4478 -0.0483  2.4978
  169SAPS  H17S19154  -0.634   3.418   5.676 -0.9402 -0.5281  0.2477
  169SAPS  C21819155  -0.616   3.229   5.775 -0.4306  0.7184 -0.1259
  169SAPS  H18R19156  -0.698   3.244   5.849  1.5615  1.4669  2.0628
  169SAPS  H18S19157  -0.527   3.176   5.816 -0.9887 -0.6114 -0.5793
  169SAPS  C21919158  -0.661   3.165   5.640 -0.5484  0.0077  0.0152
  169SAPS  H19R19159  -0.748   3.219   5.597 -0.1345 -0.8949 -2.0897
  169SAPS  H19S19160  -0.698   3.065   5.671  0.6338  0.1722  2.1042
  169SAPS  C22019161  -0.559   3.149   5.530  0.1232 -0.0432  0.4134
  169SAPS  H20R19162  -0.593   3.097   5.438  1.8156  0.9179 -0.7839
  169SAPS  H20S19163  -0.467   3.091   5.553 -0.4596 -1.5918 -0.8937
  169SAPS  H20T19164  -0.524   3.244   5.487  2.4951 -1.6135 -1.3753
  169SAPS   C3319165   0.037   3.414   6.627 -0.3797 -0.0406  0.6799
  169SAPS   H3X19166   0.137   3.461   6.616  0.4274 -1.4947  1.4601
  169SAPS   H3Y19167  -0.011   3.461   6.538 -1.5699 -0.2371  1.2019
  169SAPS   C3419168   0.039   3.260   6.600 -0.0829 -0.1860 -0.6512
  169SAPS   H4X19169  -0.063   3.219   6.620 -0.4334  0.7911 -0.3649
  169SAPS   H4Y19170   0.105   3.217   6.678 -0.9798  1.1691  0.9127
  169SAPS   C3519171   0.084   3.220   6.467 -0.7850 -0.3340 -0.3440
  169SAPS   H5X19172   0.081   3.109   6.469 -1.0801 -0.3190  0.2127
  169SAPS   H5Y19173   0.188   3.249   6.441 -1.2771 -0.3445 -2.5644
  169SAPS   C3619174  -0.005   3.267   6.348  0.3876 -0.7417 -0.2207
  169SAPS   H6X19175   0.011   3.373   6.321 -1.6067 -0.3012  0.1798
  169SAPS   H6Y19176  -0.109   3.253   6.384  0.1375 -0.5047 -0.8439
  169SAPS   C3719177   0.022   3.195   6.214 -0.3546 -0.4938 -0.9355
  169SAPS   H7X19178  -0.009   3.088   6.221  1.5630 -0.9903  1.1388
  169SAPS   H7Y19179   0.132   3.198   6.202 -0.2501 -0.4974 -0.0513
  169SAPS   C3819180  -0.029   3.267   6.088 -0.3224 -0.0282 -0.0272
  169SAPS   H8X19181  -0.007   3.376   6.091  2.3571 -0.5036 -0.2363
  169SAPS   H8Y19182  -0.138   3.266   6.110  0.0197 -1.8313  1.9470
  169SAPS   C3919183   0.007   3.208   5.949  0.3708  0.3671  0.5227
  169SAPS   H9X19184  -0.039   3.109   5.927 -0.1568  0.6564  0.3099
  169SAPS   H9Y19185   0.117   3.194   5.953  0.0429 -3.5303 -0.1723
  169SAPS  C31019186  -0.041   3.310   5.844  0.4752  0.1148  0.0668
  169SAPS  H10X19187  -0.009   3.414   5.867  0.9428 -0.1232  0.5236
  169SAPS  H10Y19188  -0.152   3.308   5.842  0.3673  2.5269  0.7725
  169SAPS  C31119189   0.011   3.286   5.697 -0.2251 -0.5220  0.4021
  169SAPS  H11X19190  -0.019   3.183   5.669 -1.8772 -0.2333  0.9893
  169SAPS  H11Y19191   0.122   3.294   5.697 -0.2928  1.2757 -1.2215
  169SAPS  C31219192  -0.051   3.380   5.599  0.1297 -0.1302 -0.8023
  169SAPS  H12X19193  -0.009   3.482   5.609  3.5244 -1.4440 -0.4394
  169SAPS  H12Y19194  -0.161   3.372   5.616 -0.0272  0.7824 -1.3578
  169SAPS  C31319195  -0.027   3.353   5.448  0.6058 -0.0193 -0.2279
  169SAPS  H13X19196  -0.077   3.254   5.437 -1.4741  0.9575 -0.1270
  169SAPS  H13Y19197   0.082   3.348   5.431  0.7263  3.9535 -1.8804
  169SAPS  C31419198  -0.090   3.449   5.352 -0.4520  0.2967  1.1899
  169SAPS  H14X19199  -0.081   3.398   5.254  2.4717  1.0346  0.9982
  169SAPS  H14Y19200  -0.019   3.534   5.343 -0.2585  0.0531  0.3554
  169SAPS  C31519201  -0.236   3.481   5.382 -0.3766 -0.7658 -0.2343
  169SAPS  H15X19202  -0.253   3.527   5.482  1.0272  0.1501 -0.3931
  169SAPS  H15Y19203  -0.289   3.384   5.371  0.5871 -1.1887 -1.4301
  169SAPS  C31619204  -0.286   3.583   5.281  0.7965 -0.5943 -0.6630
  169SAPS  H16X19205  -0.292   3.536   5.180 -1.1414  1.8589 -1.8089
  169SAPS  H16Y19206  -0.214   3.666   5.296 -1.0739  1.2809 -1.5703
  169SAPS  C31719207  -0.422   3.632   5.313  0.1313 -0.2675 -0.3022
  169SAPS  H17X19208  -0.440   3.722   5.251  0.9226 -0.2211 -0.4770
  169SAPS  H17Y19209  -0.430   3.681   5.413 -1.5525  0.9465 -0.9815
  169SAPS  C31819210  -0.538   3.535   5.299 -0.5017  0.3783  0.2498
  169SAPS  H18X19211  -0.539   3.451   5.372  2.7532 -1.5560 -1.6938
  169SAPS  H18Y19212  -0.535   3.491   5.197 -0.0359  2.1858 -0.5536
  169SAPS  H18Z19213  -0.632   3.595   5.307 -1.3040 -0.5300 -1.7747
  170SAPS     N19214   0.699   0.460   8.250  0.2206  0.0139 -0.3506
  170SAPS   HN119215   0.711   0.459   8.353 -0.2901  0.5982 -0.2757
  170SAPS   HN219216   0.638   0.378   8.231 -1.2782  0.8229  0.7244
  170SAPS   HN319217   0.791   0.448   8.203 -0.1291  2.6733 -1.9629
  170SAPS   C1219218   0.634   0.585   8.201  0.7755  0.5163  0.0853
  170SAPS  H12A19219   0.541   0.594   8.255  0.7618 -2.1696  0.6295
  170SAPS   C1319220   0.722   0.713   8.196 -0.3772  0.2915  0.1202
  170SAPS  O13A19221   0.847   0.695   8.216 -0.1179  0.0523 -0.1906
  170SAPS  O13B19222   0.674   0.827   8.176  0.0571  0.5851  0.5978
  170SAPS   C1119223   0.580   0.563   8.055  0.3675  0.2081  0.0519
  170SAPS  H11A19224   0.660   0.503   8.005  0.3928 -0.8620  1.2999
  170SAPS  H11B19225   0.556   0.661   8.010 -1.3741  0.6980  1.9161
  170SAPS     P19226   0.323   0.546   8.009 -0.4703  0.1738 -0.0396
  170SAPS   O1319227   0.219   0.444   8.020  0.0576 -0.0801 -0.8559
  170SAPS   O1419228   0.300   0.673   8.081 -0.4613  0.1593  0.0102
  170SAPS   O1219229   0.458   0.485   8.056  0.6357  0.4523 -0.3598
  170SAPS   O1119230   0.344   0.575   7.860 -0.1206  0.1534 -0.4647
  170SAPS    C119231   0.428   0.496   7.775 -0.2760  0.3908 -0.5852
  170SAPS    HA19232   0.527   0.546   7.775 -0.1922  0.5336  3.4302
  170SAPS    HB19233   0.445   0.392   7.810  1.8707 -0.0335 -2.6302
  170SAPS    C219234   0.365   0.457   7.641  1.1099  0.4122  0.1365
  170SAPS    HS19235   0.440   0.388   7.596 -0.0644 -1.2554  0.6066
  170SAPS   O2119236   0.358   0.567   7.544  0.9445  0.1528  0.1362
  170SAPS   C2119237   0.479   0.619   7.505  0.4107 -1.0583 -0.9667
  170SAPS   O2219238   0.582   0.573   7.542  0.0897 -0.0587 -0.5261
  170SAPS   C2219239   0.463   0.728   7.413 -0.7098 -0.4801  0.6013
  170SAPS   H2R19240   0.446   0.683   7.312  0.2326 -0.7763  0.5662
  170SAPS   H2S19241   0.376   0.793   7.433 -0.6500 -0.4079  0.6260
  170SAPS    C319242   0.222   0.384   7.649 -0.3071  0.2670  0.4281
  170SAPS    HX19243   0.148   0.464   7.670 -1.1477 -0.6350  0.9922
  170SAPS    HY19244   0.236   0.309   7.729 -0.6526  1.0920  1.2815
  170SAPS   O3119245   0.198   0.306   7.530  0.3421 -0.7217  0.1743
  170SAPS   C3119246   0.068   0.277   7.510  0.1887 -0.3308  0.6003
  170SAPS   O3219247  -0.027   0.313   7.578 -0.0191  0.6249  0.4408
  170SAPS   C3219248   0.041   0.190   7.385 -0.6376  0.0949 -0.2032
  170SAPS   H2X19249   0.025   0.085   7.418 -2.0460  1.0209  2.4345
  170SAPS   H2Y19250   0.136   0.190   7.327  0.8256  1.6993  1.9920
  170SAPS   C2319251   0.590   0.823   7.404  0.4797  0.4298 -0.0453
  170SAPS   H3R19252   0.682   0.772   7.368  1.0889  2.5819 -1.7690
  170SAPS   H3S19253   0.626   0.839   7.508 -1.1910 -2.5850  1.1216
  170SAPS   C2419254   0.559   0.933   7.310 -0.4445 -0.7505  0.0316
  170SAPS   H4R19255   0.478   1.002   7.342 -0.4385 -0.7859  0.1221
  170SAPS   H4S19256   0.520   0.884   7.218 -0.5251 -1.4655  0.4380
  170SAPS   C2519257   0.679   1.015   7.277 -0.0039 -0.6624 -0.7671
  170SAPS   H5R19258   0.728   1.056   7.367  0.3452 -0.1369 -1.1923
  170SAPS   C2619259   0.726   1.054   7.158 -0.2984  0.0407  0.4560
  170SAPS   H6R19260   0.813   1.120   7.144 -1.1574  0.7235 -2.6673
  170SAPS   C2719261   0.650   1.020   7.030  0.1012  0.1579  0.7117
  170SAPS   H7R19262   0.680   1.093   6.952 -4.3884 -0.2995 -1.8276
  170SAPS   H7S19263   0.542   1.043   7.044 -0.5429 -1.1184 -1.5183
  170SAPS   C2819264   0.648   0.881   6.976 -0.1576 -0.3765 -0.1835
  170SAPS   H8R19265   0.687   0.805   7.044 -1.3613  0.0808  1.0605
  170SAPS   C2919266   0.619   0.843   6.851  0.1095  0.4665 -0.0237
  170SAPS   H9R19267   0.596   0.736   6.837 -0.3387  0.8453 -2.9412
  170SAPS  C21019268   0.587   0.932   6.733 -0.0821 -0.0166 -0.6752
  170SAPS  H10R19269   0.669   0.915   6.661  0.9631 -1.4738  0.8087
  170SAPS  H10S19270   0.589   1.039   6.761 -2.3740  0.4898 -2.1564
  170SAPS  C21119271   0.448   0.905   6.674  0.1080  0.4676 -0.3588
  170SAPS  H11R19272   0.372   0.860   6.740  0.4878  0.4595  0.0796
  170SAPS  C21219273   0.397   0.972   6.569  0.2810  0.2966  0.6623
  170SAPS  H12R19274   0.295   0.950   6.535 -0.5385  3.6905  0.5207
  170SAPS  C21319275   0.471   1.073   6.483  0.3650 -0.0714 -0.1462
  170SAPS  H13R19276   0.551   1.126   6.537  2.5735 -1.6335 -1.7113
  170SAPS  H13S19277   0.400   1.158   6.472 -1.3375 -1.3480  0.4452
  170SAPS  C21419278   0.514   1.034   6.346 -0.1444  0.8897 -0.6814
  170SAPS  H14R19279   0.622   1.026   6.325  0.0565 -3.1356  1.0877
  170SAPS  C21519280   0.442   1.019   6.233  0.7382  0.1623 -0.4021
  170SAPS  H15R19281   0.499   1.004   6.140 -1.5401 -0.8467 -1.7341
  170SAPS  C21619282   0.292   1.044   6.216 -0.2512  0.2110 -1.5326
  170SAPS  H16R19283   0.230   1.041   6.309 -1.6289 -1.8347 -2.4522
  170SAPS  H16S19284   0.246   0.973   6.144  0.7064 -2.2241  0.0851
  170SAPS  C21719285   0.265   1.182   6.151  0.7109  0.5007  0.4568
  170SAPS  H17R19286   0.290   1.270   6.214  0.5037  1.2730 -0.5271
  170SAPS  H17S19287   0.155   1.176   6.140  0.7515  0.7349 -0.1042
  170SAPS  C21819288   0.343   1.211   6.026 -0.0183 -0.5481 -1.1529
  170SAPS  H18R19289   0.345   1.124   5.957  2.4250 -1.0349 -0.5605
  170SAPS  H18S19290   0.445   1.231   6.065 -0.1667 -1.1986 -0.4073
  170SAPS  C21919291   0.303   1.342   5.956  0.6661 -0.1761 -0.1771
  170SAPS  H19R19292   0.339   1.437   6.002  0.3279 -0.1355  0.0057
  170SAPS  H19S19293   0.193   1.355   5.953  0.8180  1.3860  0.1332
  170SAPS  C22019294   0.362   1.357   5.818 -0.1004 -0.1556  1.0209
  170SAPS  H20R19295   0.306   1.433   5.759  0.2594 -0.0215  0.8431
  170SAPS  H20S19296   0.370   1.262   5.761  0.4183 -0.1400  1.0579
  170SAPS  H20T19297   0.462   1.406   5.828 -0.9880  1.5808  1.7783
  170SAPS   C3319298  -0.073   0.245   7.305 -0.7183 -0.7607 -0.2806
  170SAPS   H3X19299  -0.028   0.321   7.237 -0.2833  0.2294  1.0779
  170SAPS   H3Y19300  -0.154   0.291   7.366 -1.3817 -2.7472  0.4163
  170SAPS   C3419301  -0.143   0.143   7.211  0.6882 -0.7016  0.2713
  170SAPS   H4X19302  -0.203   0.195   7.133 -0.7205 -2.3398  0.2144
  170SAPS   H4Y19303  -0.219   0.093   7.274  0.1672 -2.0126 -1.3213
  170SAPS   C3519304  -0.056   0.044   7.145  0.2514 -1.1007  0.3096
  170SAPS   H5X19305  -0.046  -0.046   7.210  0.9065 -0.4389  1.1395
  170SAPS   H5Y19306   0.041   0.095   7.133 -0.8593  1.4666  1.4737
  170SAPS   C3619307  -0.104  -0.011   7.009  0.2050 -0.5591  0.2966
  170SAPS   H6X19308  -0.204  -0.057   7.022  2.5176 -5.9727  1.5980
  170SAPS   H6Y19309  -0.035  -0.095   6.986  0.5242 -0.6526  1.5170
  170SAPS   C3719310  -0.089   0.086   6.891 -0.7614  0.0685 -0.0363
  170SAPS   H7X19311   0.016   0.087   6.856 -0.9291 -1.5877 -0.6811
  170SAPS   H7Y19312  -0.117   0.191   6.915 -1.4180  0.2312 -1.4130
  170SAPS   C3819313  -0.190   0.056   6.771 -0.7045 -0.3800 -0.2605
  170SAPS   H8X19314  -0.295   0.064   6.808 -0.4055  0.8339  0.3538
  170SAPS   H8Y19315  -0.171  -0.052   6.755 -0.2655 -0.2034 -0.9553
  170SAPS   C3919316  -0.159   0.134   6.645  0.8020 -0.2086  0.4893
  170SAPS   H9X19317  -0.051   0.122   6.623  0.7096  0.6983 -0.5147
  170SAPS   H9Y19318  -0.183   0.242   6.655  2.2939  0.1002  0.8995
  170SAPS  C31019319  -0.235   0.093   6.517 -0.3083 -0.2090  0.0775
  170SAPS  H10X19320  -0.344   0.110   6.531 -0.1678 -0.5138  1.7004
  170SAPS  H10Y19321  -0.209  -0.012   6.496  1.6450  0.4602 -1.0864
  170SAPS  C31119322  -0.193   0.184   6.399 -0.0464  0.3795  0.1722
  170SAPS  H11X19323  -0.082   0.193   6.395 -0.0107 -0.2942 -1.6683
  170SAPS  H11Y19324  -0.224   0.290   6.405  0.4467  0.5763 -0.5288
  170SAPS  C31219325  -0.250   0.142   6.257 -0.1843 -0.8228  0.4540
  170SAPS  H12X19326  -0.358   0.134   6.279 -0.1723  1.7395  1.8052
  170SAPS  H12Y19327  -0.208   0.042   6.231 -0.5080 -0.5826 -1.0695
  170SAPS  C31319328  -0.227   0.254   6.156 -0.0164 -0.0807 -0.6417
  170SAPS  H13X19329  -0.117   0.260   6.139 -0.1015 -0.7379 -1.4920
  170SAPS  H13Y19330  -0.263   0.344   6.211 -1.0409 -0.6398 -0.3870
  170SAPS  C31419331  -0.302   0.228   6.025 -0.0630  0.2248 -0.0067
  170SAPS  H14X19332  -0.407   0.258   6.048  0.5916  0.8509  2.4710
  170SAPS  H14Y19333  -0.297   0.120   6.002  1.5579  0.2009  0.3728
  170SAPS  C31519334  -0.245   0.326   5.917 -0.3715 -0.0012  0.0651
  170SAPS  H15X19335  -0.134   0.325   5.916 -0.3548  0.8737 -1.1024
  170SAPS  H15Y19336  -0.279   0.427   5.949 -0.7673 -0.1369  0.0814
  170SAPS  C31619337  -0.291   0.302   5.770  0.8616  0.7665 -0.3234
  170SAPS  H16X19338  -0.401   0.294   5.777  0.8346 -0.6529 -1.7691
  170SAPS  H16Y19339  -0.255   0.206   5.728  2.4452  1.1395  0.0813
  170SAPS  C31719340  -0.250   0.414   5.682 -0.1113  0.5290  0.2128
  170SAPS  H17X19341  -0.143   0.439   5.669 -0.0183 -0.2590 -0.5853
  170SAPS  H17Y19342  -0.293   0.512   5.712 -0.3395  0.3113  0.6093
  170SAPS  C31819343  -0.289   0.379   5.539 -0.2640  0.5081  0.0975
  170SAPS  H18X19344  -0.399   0.367   5.540 -0.2961  0.8082  0.3925
  170SAPS  H18Y19345  -0.236   0.284   5.517 -1.6414 -0.2147 -0.2070
  170SAPS  H18Z19346  -0.263   0.459   5.466 -1.0297  1.0188  0.3672
  171SAPS     N19347   6.514   1.847   7.879 -0.2042  0.1799  0.1492
  171SAPS   HN119348   6.446   1.826   7.804  0.6989 -0.5390 -0.4944
  171SAPS   HN219349   6.491   1.947   7.898  0.1595  0.2422  0.2790
  171SAPS   HN319350   6.609   1.845   7.835  0.4819 -0.7130  1.6223
  171SAPS   C1219351   6.507   1.751   7.998 -0.0805  0.3428  0.1435
  171SAPS  H12A19352   6.588   1.783   8.061 -0.1336  0.7216  0.0178
  171SAPS   C1319353   6.369   1.759   8.078  0.4471  0.3397  0.0424
  171SAPS  O13A19354   6.283   1.837   8.040  0.4647 -0.8025  0.4855
  171SAPS  O13B19355   6.362   1.691   8.183 -0.4596  0.0777 -0.1252
  171SAPS   C1119356   6.533   1.605   7.950 -0.0907  0.5714 -0.0270
  171SAPS  H11A19357   6.442   1.575   7.894  0.4298  1.3438 -1.3415
  171SAPS  H11B19358   6.539   1.539   8.039  1.0884  2.7122  1.5823
  171SAPS     P19359   6.650   1.477   7.763  0.2862 -0.2278  0.1306
  171SAPS   O1319360   6.751   1.510   7.656 -0.3345  0.3644  0.2733
  171SAPS   O1419361   6.656   1.342   7.831 -0.2811 -0.2212  0.3179
  171SAPS   O1219362   6.655   1.591   7.873  0.8937 -0.1496  0.2424
  171SAPS   O1119363   6.505   1.493   7.699 -0.0689  0.2146 -0.1571
  171SAPS    C119364   6.487   1.520   7.557 -0.8840 -0.1242 -0.1943
  171SAPS    HA19365   6.394   1.579   7.545 -0.7468  0.2513  0.5342
  171SAPS    HB19366   6.571   1.581   7.518 -0.8662 -0.8124 -1.2905
  171SAPS    C219367   6.491   1.388   7.468 -0.3359  0.7320 -0.3691
  171SAPS    HS19368   6.591   1.345   7.489 -0.4861  0.5996  0.1002
  171SAPS   O2119369   6.486   1.429   7.327 -0.4427  0.3459  0.0876
  171SAPS   C2119370   6.501   1.340   7.234 -0.6259  0.8431  0.1848
  171SAPS   O2219371   6.554   1.232   7.253  1.1022  0.1034  0.0372
  171SAPS   C2219372   6.481   1.388   7.094  0.5076  0.1634  0.6066
  171SAPS   H2R19373   6.553   1.468   7.069  1.4342 -0.7841  0.1562
  171SAPS   H2S19374   6.510   1.313   7.016  0.8217  1.6786 -0.7877
  171SAPS    C319375   6.383   1.282   7.516 -0.2592  0.1381 -0.1521
  171SAPS    HX19376   6.389   1.275   7.627 -2.1734 -1.8185 -0.0952
  171SAPS    HY19377   6.408   1.181   7.476  2.0535  0.5007  0.2444
  171SAPS   O3119378   6.253   1.328   7.473 -0.1299  0.0531 -0.4892
  171SAPS   C3119379   6.151   1.237   7.506 -0.4402  0.1624 -0.5965
  171SAPS   O3219380   6.173   1.137   7.570 -0.1625 -0.5980  0.1587
  171SAPS   C3219381   6.022   1.265   7.446 -0.5616 -0.9447  0.2914
  171SAPS   H2X19382   5.998   1.373   7.442 -0.2271 -0.7734  2.0513
  171SAPS   H2Y19383   5.944   1.227   7.515 -0.1881  1.1176  1.9340
  171SAPS   C2319384   6.334   1.443   7.067 -0.0824  1.2565  0.0679
  171SAPS   H3R19385   6.329   1.538   7.124  2.6610  1.0550  0.7719
  171SAPS   H3S19386   6.258   1.370   7.101  1.4289  0.7863  2.7201
  171SAPS   C2419387   6.309   1.462   6.915 -0.6054  0.2613 -0.1401
  171SAPS   H4R19388   6.200   1.486   6.917 -1.1824 -2.0901  0.1813
  171SAPS   H4S19389   6.306   1.366   6.858  1.0181  0.0012  0.1759
  171SAPS   C2519390   6.402   1.572   6.851  0.3120  0.1804  0.2994
  171SAPS   H5R19391   6.423   1.659   6.914  0.5570  1.8624 -1.9953
  171SAPS   C2619392   6.467   1.560   6.737 -0.1340 -0.1955  0.7728
  171SAPS   H6R19393   6.537   1.639   6.709 -0.4007 -0.2760 -0.1555
  171SAPS   C2719394   6.470   1.446   6.642  0.4224 -0.2450 -0.3725
  171SAPS   H7R19395   6.364   1.412   6.644  0.1936  0.1582  4.3207
  171SAPS   H7S19396   6.524   1.365   6.695 -1.5021 -0.3289  1.6283
  171SAPS   C2819397   6.515   1.483   6.508 -0.2572  0.0947 -0.0839
  171SAPS   H8R19398   6.487   1.584   6.474 -0.3460  1.1122  2.7701
  171SAPS   C2919399   6.599   1.412   6.435 -0.0191 -0.3538  0.2842
  171SAPS   H9R19400   6.632   1.440   6.334  0.0918 -1.0128  0.1338
  171SAPS  C21019401   6.654   1.274   6.473  0.2512 -0.2934 -0.2381
  171SAPS  H10R19402   6.663   1.210   6.382  1.7494 -0.4707  0.0107
  171SAPS  H10S19403   6.586   1.210   6.533  1.4176 -1.4443 -0.1075
  171SAPS  C21119404   6.795   1.265   6.546 -0.0506 -0.1020  0.1182
  171SAPS  H11R19405   6.865   1.350   6.552  1.0050 -1.0559  3.6902
  171SAPS  C21219406   6.824   1.172   6.638  0.8122  0.5820 -0.7376
  171SAPS  H12R19407   6.925   1.170   6.682 -0.7367  0.1731  3.0985
  171SAPS  C21319408   6.748   1.048   6.666 -0.8156 -0.5064 -0.2970
  171SAPS  H13R19409   6.811   0.957   6.653 -0.8770 -0.4264 -1.1813
  171SAPS  H13S19410   6.668   1.038   6.590  0.6100 -2.8246 -1.5998
  171SAPS  C21419411   6.688   1.044   6.809 -0.7705  0.7693  0.2882
  171SAPS  H14R19412   6.598   1.106   6.818 -1.7891 -0.4951 -0.8821
  171SAPS  C21519413   6.713   0.958   6.907  0.4283 -0.5107  0.0244
  171SAPS  H15R19414   6.653   0.963   6.999 -0.8682  0.4605 -0.8393
  171SAPS  C21619415   6.807   0.847   6.911  0.0764  0.1908 -0.4349
  171SAPS  H16R19416   6.886   0.861   6.834  0.5914  1.0415  0.2406
  171SAPS  H16S19417   6.756   0.753   6.880 -0.6132  1.4467 -3.3765
  171SAPS  C21719418   6.884   0.822   7.048  0.3567  0.2108  0.0491
  171SAPS  H17R19419   6.922   0.917   7.093 -3.3769  0.8617  2.2591
  171SAPS  H17S19420   6.964   0.747   7.029  0.2471  0.1859 -0.3235
  171SAPS  C21819421   6.788   0.759   7.154  0.2446  0.3949  0.0196
  171SAPS  H18R19422   6.728   0.681   7.104 -1.6263  1.5053  0.4426
  171SAPS  H18S19423   6.723   0.841   7.192 -1.2707  0.4654 -2.5049
  171SAPS  C21919424   6.869   0.707   7.274  0.4800  0.3488 -0.3492
  171SAPS  H19R19425   6.913   0.793   7.330 -0.5779  0.0275  1.0442
  171SAPS  H19S19426   6.947   0.642   7.230  0.2567 -0.3282  0.2373
  171SAPS  C22019427   6.788   0.617   7.369  0.9111  0.0640  0.1152
  171SAPS  H20R19428   6.734   0.546   7.303  2.3794 -0.4288 -0.6008
  171SAPS  H20S19429   6.721   0.681   7.431  1.6288  0.0147  0.9586
  171SAPS  H20T19430   6.842   0.552   7.441 -2.1887 -2.9149  0.0172
  171SAPS   C3319431   6.003   1.210   7.301 -0.2875 -0.1531 -0.6411
  171SAPS   H3X19432   5.905   1.158   7.306 -0.8787  0.9710 -0.3728
  171SAPS   H3Y19433   6.082   1.137   7.271 -0.0680 -1.3476  2.4532
  171SAPS   C3419434   5.971   1.311   7.188 -0.8651 -0.5029 -0.6898
  171SAPS   H4X19435   6.053   1.383   7.170  0.7815 -1.6763  1.6838
  171SAPS   H4Y19436   5.890   1.373   7.232  0.0898  0.1465  0.1955
  171SAPS   C3519437   5.949   1.249   7.048 -0.5900  0.4808  0.3548
  171SAPS   H5X19438   5.862   1.183   7.070  1.6787 -2.6834  0.5886
  171SAPS   H5Y19439   6.038   1.188   7.021 -1.0336 -0.5655  1.1659
  171SAPS   C3619440   5.916   1.354   6.938 -0.6688  0.2798 -0.0525
  171SAPS   H6X19441   5.993   1.435   6.938 -1.5419  1.1553 -1.7295
  171SAPS   H6Y19442   5.821   1.403   6.967 -0.5376  1.3113 -1.2827
  171SAPS   C3719443   5.909   1.297   6.797  0.2745 -0.2856  0.0434
  171SAPS   H7X19444   5.848   1.204   6.792  0.3349 -0.2596 -2.2328
  171SAPS   H7Y19445   5.997   1.240   6.760 -0.5943 -1.1942 -0.7056
  171SAPS   C3819446   5.856   1.397   6.697  0.2928 -0.4455  1.1869
  171SAPS   H8X19447   5.912   1.492   6.703 -0.7207  0.4579 -1.7811
  171SAPS   H8Y19448   5.748   1.412   6.719 -0.1413 -1.1786 -0.3152
  171SAPS   C3919449   5.864   1.367   6.549  0.0635  0.3493  0.8722
  171SAPS   H9X19450   5.838   1.459   6.492  0.6466  0.5413  0.9157
  171SAPS   H9Y19451   5.791   1.286   6.522  3.2217 -1.6821 -2.7024
  171SAPS  C31019452   6.000   1.319   6.492  0.1809 -0.1792 -0.8575
  171SAPS  H10X19453   6.002   1.208   6.490  0.5989 -0.1630 -1.8031
  171SAPS  H10Y19454   6.083   1.358   6.555  0.4959  0.3873 -1.6164
  171SAPS  C31119455   6.027   1.368   6.346  0.3323  0.5374 -0.1889
  171SAPS  H11X19456   6.025   1.479   6.354 -0.6043  0.4790  0.5087
  171SAPS  H11Y19457   5.945   1.327   6.284  0.7186 -1.0261  0.2990
  171SAPS  C31219458   6.158   1.323   6.297 -0.0573 -0.8503 -0.2080
  171SAPS  H12X19459   6.152   1.212   6.294 -3.5843 -0.7444 -0.3480
  171SAPS  H12Y19460   6.235   1.361   6.368 -0.9441  1.7323 -0.5306
  171SAPS  C31319461   6.183   1.377   6.160  0.5239  0.2296  0.1923
  171SAPS  H13X19462   6.180   1.488   6.163  0.9552  0.2232  1.0401
  171SAPS  H13Y19463   6.096   1.345   6.098 -0.4622  1.0823  1.1058
  171SAPS  C31419464   6.312   1.325   6.101 -0.0775  0.0369  0.0650
  171SAPS  H14X19465   6.322   1.216   6.117  3.0735  0.0219 -1.2463
  171SAPS  H14Y19466   6.392   1.376   6.159  0.7032  1.0238 -1.7848
  171SAPS  C31519467   6.342   1.367   5.956  0.2159 -0.4768  0.0499
  171SAPS  H15X19468   6.449   1.354   5.930  0.2896  1.7579 -0.9905
  171SAPS  H15Y19469   6.347   1.478   5.953 -0.7939 -0.2828  2.8452
  171SAPS  C31619470   6.244   1.306   5.850 -0.2443  0.5333  0.1925
  171SAPS  H16X19471   6.134   1.313   5.861 -1.0408 -1.8873 -4.0490
  171SAPS  H16Y19472   6.275   1.201   5.834 -1.5886  0.2794 -0.9877
  171SAPS  C31719473   6.275   1.374   5.711  0.2108 -0.3792 -0.1201
  171SAPS  H17X19474   6.382   1.351   5.691  0.0707 -1.0717 -0.1124
  171SAPS  H17Y19475   6.244   1.481   5.712  0.1004 -0.3067 -2.6924
  171SAPS  C31819476   6.194   1.314   5.597  0.0548  0.2373  0.3133
  171SAPS  H18X19477   6.086   1.341   5.600  0.1946  0.9209 -0.5458
  171SAPS  H18Y19478   6.205   1.203   5.593  1.8363  0.3584  0.7767
  171SAPS  H18Z19479   6.224   1.347   5.496 -1.6859  0.2645 -0.2273
  172SAPS     N19480   0.963   5.834   7.519  0.4380  0.2686  0.6033
  172SAPS   HN119481   1.038   5.780   7.567  0.7901  0.6780  0.5276
  172SAPS   HN219482   0.939   5.787   7.429 -1.0271  1.7405  0.1686
  172SAPS   HN319483   0.998   5.930   7.497  1.5244 -0.1516  0.3935
  172SAPS   C1219484   0.842   5.842   7.605  0.2888 -0.2401 -0.7970
  172SAPS  H12A19485   0.754   5.810   7.552 -0.2778 -0.9198  0.5093
  172SAPS   C1319486   0.848   5.753   7.733  1.0685 -1.1264  0.3957
  172SAPS  O13A19487   0.959   5.722   7.781  0.1099 -0.4513 -0.1625
  172SAPS  O13B19488   0.739   5.729   7.801 -0.5940  0.1765 -0.2850
  172SAPS   C1119489   0.811   5.991   7.641 -0.0463  0.4488 -0.4418
  172SAPS  H11A19490   0.754   5.983   7.736  0.8582  1.4048  0.2027
  172SAPS  H11B19491   0.744   6.035   7.564 -0.2022  3.5955  1.2992
  172SAPS     P19492   0.906   6.224   7.701  0.1601  0.2473 -0.2376
  172SAPS   O1319493   0.835   6.235   7.832 -0.3444 -0.0906 -0.0224
  172SAPS   O1419494   1.043   6.290   7.701 -0.1166  0.4169 -0.5858
  172SAPS   O1219495   0.925   6.068   7.663  0.2541 -0.0215  0.2462
  172SAPS   O1119496   0.817   6.277   7.584  0.4106  0.3260  0.3852
  172SAPS    C119497   0.871   6.303   7.452 -0.5233  0.7727 -0.5713
  172SAPS    HA19498   0.966   6.251   7.429 -0.0297  1.0107  0.8592
  172SAPS    HB19499   0.798   6.260   7.380  0.1898  2.0545 -2.1088
  172SAPS    C219500   0.886   6.459   7.432 -0.1363  0.4355 -0.0800
  172SAPS    HS19501   0.954   6.501   7.509 -1.5211  0.5674  1.1199
  172SAPS   O2119502   0.758   6.527   7.450 -0.6390 -0.6976  0.1023
  172SAPS   C2119503   0.760   6.663   7.451  0.8620 -0.1351 -0.7200
  172SAPS   O2219504   0.851   6.729   7.484 -0.0249 -0.0716  0.6158
  172SAPS   C2219505   0.617   6.702   7.430  0.9477  0.2793 -0.1024
  172SAPS   H2R19506   0.568   6.659   7.340 -0.5268 -2.1040  1.7153
  172SAPS   H2S19507   0.547   6.663   7.507 -0.4999 -1.2455 -2.0907
  172SAPS    C319508   0.958   6.484   7.296 -0.4869 -0.6887  1.1284
  172SAPS    HX19509   1.057   6.436   7.315 -0.3408  0.0522  2.3410
  172SAPS    HY19510   0.973   6.593   7.278  1.2626 -0.7143  2.1396
  172SAPS   O3119511   0.896   6.416   7.191  0.0859  0.3011 -0.0351
  172SAPS   C3119512   0.805   6.492   7.127  0.1544  0.6830  0.1903
  172SAPS   O3219513   0.790   6.612   7.127 -0.8117 -0.1205 -0.0842
  172SAPS   C3219514   0.713   6.401   7.044  0.0223  0.1196  0.0340
  172SAPS   H2X19515   0.619   6.397   7.105 -1.4548 -1.7618 -2.2024
  172SAPS   H2Y19516   0.754   6.298   7.050 -2.4930 -0.9886 -0.5263
  172SAPS   C2319517   0.613   6.856   7.427  0.4785 -0.3422 -0.2052
  172SAPS   H3R19518   0.683   6.902   7.500 -0.5643  1.4427 -0.2551
  172SAPS   H3S19519   0.516   6.887   7.471  0.5038  1.6869 -1.4390
  172SAPS   C2419520   0.644   6.925   7.293  1.0870 -0.7419  0.2167
  172SAPS   H4R19521   0.580   6.891   7.208  1.2474 -0.0777 -0.1758
  172SAPS   H4S19522   0.748   6.895   7.268  0.8033 -2.5812  1.0509
  172SAPS   C2519523   0.647   7.079   7.286  0.6070  0.4436 -0.3014
  172SAPS   H5R19524   0.711   7.133   7.358  0.4268  0.0141  0.1870
  172SAPS   C2619525   0.578   7.160   7.206  0.1600 -0.3003 -0.3147
  172SAPS   H6R19526   0.582   7.267   7.229  0.4291 -0.2477 -0.5933
  172SAPS   C2719527   0.485   7.121   7.094 -0.1719  0.0640 -0.3866
  172SAPS   H7R19528   0.515   7.029   7.039  1.3410 -2.1093  3.6509
  172SAPS   H7S19529   0.479   7.208   7.025 -0.5450  1.2470  1.0899
  172SAPS   C2819530   0.342   7.094   7.145 -0.9418  1.3369  0.1738
  172SAPS   H8R19531   0.319   7.106   7.251 -0.8699  3.5471 -0.0041
  172SAPS   C2919532   0.242   7.070   7.063 -0.6171 -0.1157 -0.3052
  172SAPS   H9R19533   0.142   7.060   7.109 -1.2008  2.2766 -0.8869
  172SAPS  C21019534   0.240   7.109   6.920  0.2495  0.2313  0.3959
  172SAPS  H10R19535   0.321   7.063   6.861 -2.1034  1.0197 -3.8894
  172SAPS  H10S19536   0.254   7.220   6.917 -0.4280  0.3127 -0.8173
  172SAPS  C21119537   0.104   7.099   6.855  0.0378  0.2858 -0.5118
  172SAPS  H11R19538   0.032   7.068   6.931 -0.2845  2.1910  0.0095
  172SAPS  C21219539   0.070   7.123   6.727  0.7765 -0.3667 -0.3038
  172SAPS  H12R19540  -0.035   7.125   6.696  0.4384  1.0492  0.7890
  172SAPS  C21319541   0.163   7.173   6.619  0.4971  0.2100 -0.7099
  172SAPS  H13R19542   0.125   7.114   6.533 -0.3136  0.0838 -0.2767
  172SAPS  H13S19543   0.267   7.140   6.639 -0.2048 -1.0134  1.2525
  172SAPS  C21419544   0.153   7.317   6.607  0.3833  0.4120  0.1254
  172SAPS  H14R19545   0.205   7.371   6.688 -0.8988 -0.9209  1.9160
  172SAPS  C21519546   0.083   7.386   6.516 -0.1128  0.1348 -0.3412
  172SAPS  H15R19547   0.092   7.496   6.516 -1.0638  0.2311 -1.1948
  172SAPS  C21619548   0.001   7.330   6.404 -0.1526  0.3114 -0.0334
  172SAPS  H16R19549  -0.099   7.376   6.409 -2.3789 -3.3806 -3.6863
  172SAPS  H16S19550  -0.007   7.219   6.401  0.3801  0.2760 -0.2476
  172SAPS  C21719551   0.072   7.385   6.274 -0.2631  0.0421  0.0212
  172SAPS  H17R19552   0.181   7.365   6.266  0.0942  1.3478  1.1750
  172SAPS  H17S19553   0.079   7.496   6.273 -0.9406  0.1130  1.1889
  172SAPS  C21819554  -0.000   7.332   6.153  0.1873  0.5470 -0.2305
  172SAPS  H18R19555  -0.111   7.340   6.156 -0.0061 -1.6137  0.0391
  172SAPS  H18S19556   0.023   7.225   6.132  1.2938  1.1296 -2.3138
  172SAPS  C21919557   0.053   7.396   6.027 -0.6255 -0.1883 -0.6388
  172SAPS  H19R19558   0.164   7.382   6.026 -0.7505 -1.2228 -1.0675
  172SAPS  H19S19559   0.027   7.502   6.047 -3.1608 -1.4366  3.9755
  172SAPS  C22019560  -0.024   7.351   5.905 -0.0819  0.3431 -0.2327
  172SAPS  H20R19561  -0.133   7.356   5.928 -0.7702 -2.5107 -2.2663
  172SAPS  H20S19562  -0.010   7.241   5.894  0.1493  0.5407 -2.2338
  172SAPS  H20T19563  -0.001   7.404   5.810 -2.4068  1.4143 -0.2683
  172SAPS   C3319564   0.681   6.446   6.898 -0.7329 -0.5015 -0.3153
  172SAPS   H3X19565   0.644   6.550   6.905  1.2215  0.2815 -0.8281
  172SAPS   H3Y19566   0.612   6.375   6.848  0.7768 -1.8208 -0.6118
  172SAPS   C3419567   0.801   6.453   6.798 -0.2627 -0.3832  0.0509
  172SAPS   H4X19568   0.882   6.379   6.817  1.6885  1.5189 -0.4683
  172SAPS   H4Y19569   0.861   6.543   6.823  2.9851 -2.7721  1.7121
  172SAPS   C3519570   0.751   6.454   6.653  0.6482  0.2206 -0.0065
  172SAPS   H5X19571   0.666   6.526   6.650 -0.5855 -1.2073 -0.6212
  172SAPS   H5Y19572   0.714   6.355   6.619 -1.2534  1.2061 -1.0260
  172SAPS   C3619573   0.855   6.500   6.555  0.0492 -0.4033 -0.2254
  172SAPS   H6X19574   0.940   6.429   6.560  0.7645  0.3356 -1.4117
  172SAPS   H6Y19575   0.880   6.605   6.583 -0.1980 -0.2391 -0.6192
  172SAPS   C3719576   0.811   6.524   6.405 -0.1951  0.2888 -0.1419
  172SAPS   H7X19577   0.718   6.584   6.404 -0.8326 -0.3629  3.7406
  172SAPS   H7Y19578   0.787   6.426   6.358  1.1461 -0.3621  0.4533
  172SAPS   C3819579   0.919   6.594   6.324 -0.2114  0.1678 -0.2104
  172SAPS   H8X19580   1.011   6.531   6.319  0.1037  0.4517  1.4473
  172SAPS   H8Y19581   0.953   6.674   6.393 -2.3586 -0.1963  1.4006
  172SAPS   C3919582   0.858   6.639   6.195 -0.0690  0.4710 -0.7533
  172SAPS   H9X19583   0.766   6.699   6.212 -0.5264 -0.5858  0.6313
  172SAPS   H9Y19584   0.839   6.553   6.128 -1.6116  1.7152 -2.0074
  172SAPS  C31019585   0.946   6.743   6.118 -0.2891  0.4360 -0.4329
  172SAPS  H10X19586   1.043   6.696   6.095  0.8762  2.7496 -0.5126
  172SAPS  H10Y19587   0.962   6.822   6.195 -1.1118  0.1639  0.0360
  172SAPS  C31119588   0.879   6.795   5.995  0.4001 -0.1760 -0.5975
  172SAPS  H11X19589   0.785   6.846   6.026 -1.7085 -3.5412 -0.9637
  172SAPS  H11Y19590   0.841   6.703   5.947 -0.8354 -0.1798  0.3304
  172SAPS  C31219591   0.959   6.884   5.899  0.1705  0.2458 -0.0331
  172SAPS  H12X19592   1.054   6.837   5.867  1.2603  1.7322  0.8773
  172SAPS  H12Y19593   0.989   6.978   5.952  0.2085  1.0469 -1.4293
  172SAPS  C31319594   0.879   6.925   5.770  0.3681  0.5723 -0.8888
  172SAPS  H13X19595   0.784   6.970   5.807 -0.6842 -1.3076 -1.1517
  172SAPS  H13Y19596   0.844   6.831   5.723  1.9896  0.2916 -1.6037
  172SAPS  C31419597   0.943   7.012   5.661 -0.5538  0.0785  0.0230
  172SAPS  H14X19598   0.869   7.031   5.581  0.6089  1.1297 -0.8186
  172SAPS  H14Y19599   1.027   6.957   5.614 -1.3441  0.5072 -1.9956
  172SAPS  C31519600   0.988   7.150   5.716  0.6132 -0.2446 -0.9618
  172SAPS  H15X19601   1.072   7.129   5.786 -1.0166 -3.1099  0.2915
  172SAPS  H15Y19602   0.899   7.191   5.769  0.0347  0.6707 -2.5500
  172SAPS  C31619603   1.040   7.240   5.605 -0.4223 -0.1653 -0.5919
  172SAPS  H16X19604   1.110   7.322   5.632  0.5379 -0.3982 -2.2373
  172SAPS  H16Y19605   1.104   7.186   5.532 -0.2934  0.8834 -1.2790
  172SAPS  C31719606   0.926   7.307   5.526 -0.7567  0.2111 -0.3703
  172SAPS  H17X19607   0.885   7.395   5.580  2.7539  1.0773  1.1578
  172SAPS  H17Y19608   0.850   7.227   5.511 -0.8398 -0.1871  1.8489
  172SAPS  C31819609   0.969   7.345   5.384  0.2533 -0.4290  0.1735
  172SAPS  H18X19610   0.990   7.251   5.328 -1.1796  0.1179 -1.3756
  172SAPS  H18Y19611   1.059   7.409   5.392  0.1474 -0.4205  1.4933
  172SAPS  H18Z19612   0.884   7.397   5.335  1.4798  0.0612 -1.5420
  173SAPS     N19613   4.975   1.164   3.095 -0.0508 -0.1334 -0.1004
  173SAPS   HN119614   5.047   1.239   3.107 -1.9796  2.3356 -2.7151
  173SAPS   HN219615   4.894   1.175   3.159 -0.6840 -0.2851 -0.8700
  173SAPS   HN319616   5.000   1.063   3.088 -1.5496 -0.7547  2.4253
  173SAPS   C1219617   4.932   1.200   2.951  0.2758  0.3017 -0.5897
  173SAPS  H12A19618   4.857   1.122   2.940  1.5851 -1.4785  2.1177
  173SAPS   C1319619   4.866   1.340   2.925  0.2020 -0.3034  0.1060
  173SAPS  O13A19620   4.858   1.418   3.024 -0.4923  0.6773  0.4135
  173SAPS  O13B19621   4.799   1.351   2.819 -0.2220  0.0209  0.3826
  173SAPS   C1119622   5.048   1.178   2.853 -0.2732  0.5501  0.7523
  173SAPS  H11A19623   5.117   1.264   2.865 -0.9687  1.8151 -2.9234
  173SAPS  H11B19624   5.012   1.187   2.748  2.7659 -0.5774 -0.5186
  173SAPS     P19625   5.078   0.910   2.863 -0.5231 -0.0206  1.1243
  173SAPS   O1319626   5.006   0.894   2.730 -0.3030 -0.1201 -0.4174
  173SAPS   O1419627   5.195   0.832   2.889 -0.1928  0.2415  0.0012
  173SAPS   O1219628   5.120   1.060   2.879  0.1379 -0.3786  0.1794
  173SAPS   O1119629   4.981   0.901   2.987 -1.2732  0.3156  0.4489
  173SAPS    C119630   4.888   0.795   3.011 -0.3056 -0.1629  0.5464
  173SAPS    HA19631   4.788   0.830   2.980 -0.4826  0.9232  2.1916
  173SAPS    HB19632   4.917   0.703   2.955  1.9750 -1.2723  3.2952
  173SAPS    C219633   4.888   0.763   3.167  0.8588  1.0834 -0.6288
  173SAPS    HS19634   4.857   0.857   3.217 -0.7148  0.8192 -1.0540
  173SAPS   O2119635   5.018   0.719   3.193 -0.5091 -0.2317  0.0979
  173SAPS   C2119636   5.106   0.811   3.241  0.4105 -0.4286 -0.3281
  173SAPS   O2219637   5.080   0.926   3.268 -0.2879  0.1408  0.0482
  173SAPS   C2219638   5.248   0.750   3.254 -0.3973 -0.9732 -0.0422
  173SAPS   H2R19639   5.218   0.664   3.319  1.1661 -0.7831  1.0119
  173SAPS   H2S19640   5.285   0.725   3.153 -2.1355  2.1920 -1.6083
  173SAPS    C319641   4.780   0.656   3.211 -0.6405  0.1588 -0.3988
  173SAPS    HX19642   4.802   0.566   3.150  1.9209 -0.0193  0.6712
  173SAPS    HY19643   4.684   0.691   3.167 -0.4413 -0.7349 -1.5930
  173SAPS   O3119644   4.784   0.632   3.350 -0.6127 -0.0062 -0.0922
  173SAPS   C3119645   4.703   0.702   3.424  0.4224  0.0327 -0.7405
  173SAPS   O3219646   4.614   0.775   3.382 -0.0729 -0.0833  0.2987
  173SAPS   C3219647   4.724   0.676   3.572  0.2225 -0.0051 -0.2780
  173SAPS   H2X19648   4.647   0.718   3.641  1.1792 -1.9561  2.1568
  173SAPS   H2Y19649   4.820   0.715   3.610 -0.1181  3.0300 -2.2485
  173SAPS   C2319650   5.341   0.836   3.343 -0.2026  0.6702 -0.1576
  173SAPS   H3R19651   5.289   0.872   3.435 -0.3777 -1.3821  0.5887
  173SAPS   H3S19652   5.395   0.917   3.290  0.8387  0.6040  0.7461
  173SAPS   C2419653   5.462   0.746   3.383 -0.1404 -0.3942  0.0324
  173SAPS   H4R19654   5.525   0.710   3.299 -1.1399 -1.0065 -0.4651
  173SAPS   H4S19655   5.410   0.666   3.439 -3.0732  0.8796 -0.6672
  173SAPS   C2519656   5.554   0.819   3.474 -1.0169  0.5361 -0.5560
  173SAPS   H5R19657   5.567   0.927   3.455  0.4887  0.2396 -1.3673
  173SAPS   C2619658   5.604   0.762   3.586  0.5726 -0.3432  0.4195
  173SAPS   H6R19659   5.677   0.820   3.644  0.8003  0.0386 -0.2418
  173SAPS   C2719660   5.566   0.630   3.643  0.4585  1.1163 -0.9501
  173SAPS   H7R19661   5.657   0.569   3.664 -1.1060 -1.0766 -0.1500
  173SAPS   H7S19662   5.514   0.553   3.581 -1.7038 -0.1528  2.2153
  173SAPS   C2819663   5.481   0.646   3.764  0.2473  0.5850 -0.5780
  173SAPS   H8R19664   5.388   0.701   3.741  0.3422  2.2341  2.4107
  173SAPS   C2919665   5.485   0.597   3.885  0.9459 -0.2154 -0.4898
  173SAPS   H9R19666   5.411   0.630   3.959  2.3651  1.2699  0.3373
  173SAPS  C21019667   5.591   0.501   3.937 -0.0536 -0.0529 -1.3691
  173SAPS  H10R19668   5.659   0.466   3.856  2.0576  2.1536 -0.6553
  173SAPS  H10S19669   5.525   0.422   3.979  1.5809 -0.1343  1.2820
  173SAPS  C21119670   5.658   0.581   4.051 -0.4667 -0.3845  0.0112
  173SAPS  H11R19671   5.740   0.646   4.019 -0.8604  0.4536  0.6663
  173SAPS  C21219672   5.634   0.573   4.185 -0.3593 -0.2893  0.4765
  173SAPS  H12R19673   5.689   0.644   4.248 -0.9305  1.0635 -0.5130
  173SAPS  C21319674   5.542   0.478   4.259 -0.3242 -0.3205  0.0917
  173SAPS  H13R19675   5.596   0.382   4.272  1.6765  0.5697 -1.2755
  173SAPS  H13S19676   5.452   0.441   4.204 -0.7781  1.4545 -0.4549
  173SAPS  C21419677   5.490   0.516   4.396  0.0810  0.5207  0.1811
  173SAPS  H14R19678   5.403   0.583   4.384 -0.0268  0.3822  0.1844
  173SAPS  C21519679   5.535   0.474   4.521  0.1378 -0.3035  0.0648
  173SAPS  H15R19680   5.477   0.515   4.606 -0.2654 -0.8454  0.0571
  173SAPS  C21619681   5.660   0.400   4.540  0.0201  0.4432 -0.0967
  173SAPS  H16R19682   5.725   0.416   4.451 -0.4733  0.6948 -0.4180
  173SAPS  H16S19683   5.644   0.291   4.555 -1.9499  0.2005 -3.0722
  173SAPS  C21719684   5.749   0.453   4.655  0.0237 -0.2709  0.8417
  173SAPS  H17R19685   5.846   0.399   4.645 -0.5018 -0.8046 -2.3690
  173SAPS  H17S19686   5.700   0.422   4.750 -3.2671  1.9563  0.0201
  173SAPS  C21819687   5.772   0.603   4.643  0.3333 -0.3681  0.0450
  173SAPS  H18R19688   5.677   0.652   4.674 -0.8131 -2.0446 -0.6504
  173SAPS  H18S19689   5.791   0.625   4.535 -0.3984 -1.0207 -0.2318
  173SAPS  C21919690   5.893   0.650   4.716  0.6499 -0.0285 -0.0858
  173SAPS  H19R19691   5.898   0.761   4.708  0.9142  0.1423  1.7992
  173SAPS  H19S19692   5.976   0.605   4.658 -0.2801  0.7951 -2.1521
  173SAPS  C22019693   5.895   0.609   4.866  0.8200 -0.2807 -0.3210
  173SAPS  H20R19694   5.806   0.657   4.913  1.2523 -0.6958  0.9718
  173SAPS  H20S19695   5.987   0.642   4.918  1.5130  1.7931 -2.6949
  173SAPS  H20T19696   5.887   0.499   4.881 -0.5127  0.1459  3.1903
  173SAPS   C3319697   4.700   0.532   3.607 -0.3261  0.7802  0.1480
  173SAPS   H3X19698   4.771   0.467   3.551 -0.5460  1.9809 -1.5890
  173SAPS   H3Y19699   4.599   0.499   3.575 -1.4331  3.2788  0.8059
  173SAPS   C3419700   4.708   0.507   3.758  0.4594  1.1443  0.0575
  173SAPS   H4X19701   4.652   0.584   3.816  1.9567  2.6325 -0.4061
  173SAPS   H4Y19702   4.813   0.516   3.792  0.7910 -1.6491 -0.0042
  173SAPS   C3519703   4.665   0.362   3.788  0.4216 -0.3845 -0.3999
  173SAPS   H5X19704   4.717   0.291   3.720  1.1925 -0.6654  0.4604
  173SAPS   H5Y19705   4.554   0.356   3.778  0.1342 -1.7014  2.5004
  173SAPS   C3619706   4.699   0.321   3.933 -0.3070  0.3704 -0.2262
  173SAPS   H6X19707   4.810   0.322   3.927 -0.2239 -1.3944  0.4232
  173SAPS   H6Y19708   4.668   0.217   3.957  1.6083 -0.0053  0.8014
  173SAPS   C3719709   4.651   0.417   4.044  0.6496 -0.0793 -0.2661
  173SAPS   H7X19710   4.542   0.437   4.035  0.0452 -2.2451  1.3442
  173SAPS   H7Y19711   4.705   0.511   4.021  2.2740 -1.0282 -0.4037
  173SAPS   C3819712   4.695   0.377   4.188 -0.4999  0.3524  0.1253
  173SAPS   H8X19713   4.805   0.365   4.201 -0.8333 -1.8496  1.5584
  173SAPS   H8Y19714   4.647   0.281   4.218 -0.4136  0.2045 -0.2081
  173SAPS   C3919715   4.644   0.479   4.297 -0.1276  0.2270 -0.6371
  173SAPS   H9X19716   4.534   0.477   4.316  0.0700  0.0663  0.5440
  173SAPS   H9Y19717   4.671   0.579   4.255  1.9845  0.1635  0.4634
  173SAPS  C31019718   4.705   0.462   4.435  0.3494 -0.4391 -0.2034
  173SAPS  H10X19719   4.659   0.533   4.508  0.3538  0.6576 -1.2413
  173SAPS  H10Y19720   4.813   0.484   4.427  0.3039  0.3684  1.0332
  173SAPS  C31119721   4.699   0.322   4.490 -0.2719  0.1588  0.1612
  173SAPS  H11X19722   4.770   0.261   4.429 -0.4819  1.8475 -1.9065
  173SAPS  H11Y19723   4.599   0.285   4.461  0.5286 -0.8344 -1.5356
  173SAPS  C31219724   4.721   0.307   4.642  0.6991 -0.2841  0.2460
  173SAPS  H12X19725   4.653   0.376   4.696  0.4898  1.4610 -2.0410
  173SAPS  H12Y19726   4.827   0.335   4.661  0.2553  1.4108  0.3908
  173SAPS  C31319727   4.690   0.173   4.707  0.0489 -0.3959  0.6375
  173SAPS  H13X19728   4.740   0.091   4.652 -2.0415  1.1334 -4.0131
  173SAPS  H13Y19729   4.585   0.149   4.680  0.3680 -0.2436 -0.8198
  173SAPS  C31419730   4.709   0.171   4.860 -0.0527  0.0743 -0.1178
  173SAPS  H14X19731   4.664   0.084   4.913 -1.5964  2.0507  2.0666
  173SAPS  H14Y19732   4.654   0.262   4.893 -1.3474 -0.9066  0.5157
  173SAPS  C31519733   4.858   0.175   4.905 -0.3944  0.0810 -1.0397
  173SAPS  H15X19734   4.907   0.268   4.870  1.7882 -0.3059  0.7685
  173SAPS  H15Y19735   4.925   0.100   4.857  1.5634 -0.1739  1.8549
  173SAPS  C31619736   4.871   0.166   5.060 -0.0855  1.0195  0.1553
  173SAPS  H16X19737   4.794   0.098   5.101  1.7490 -0.6923  0.9152
  173SAPS  H16Y19738   4.845   0.269   5.095 -0.0913  1.6768 -1.6823
  173SAPS  C31719739   5.013   0.140   5.105  0.4239 -0.0846  0.0877
  173SAPS  H17X19740   5.086   0.189   5.037 -0.6795 -0.1926 -1.2074
  173SAPS  H17Y19741   5.029   0.030   5.109  1.2939  0.0633  2.4774
  173SAPS  C31819742   5.044   0.199   5.245 -0.1138 -0.3863 -0.4330
  173SAPS  H18X19743   5.140   0.150   5.270 -0.1737 -1.4321 -2.1228
  173SAPS  H18Y19744   4.970   0.178   5.325 -0.5483  0.7656 -0.5089
  173SAPS  H18Z19745   5.067   0.307   5.236  3.4252 -0.7871  1.8864
  174SAPS     N19746   1.885   4.521   2.662 -0.6479  0.0991  0.2155
  174SAPS   HN119747   1.943   4.500   2.747 -0.0117 -0.3889 -0.3236
  174SAPS   HN219748   1.798   4.470   2.686 -0.6916  0.5419  1.0268
  174SAPS   HN319749   1.929   4.474   2.580 -2.0491  1.4289 -1.3555
  174SAPS   C1219750   1.865   4.667   2.632  0.0021 -0.5829 -0.0451
  174SAPS  H12A19751   1.880   4.728   2.720  0.0148 -0.4356 -0.1474
  174SAPS   C1319752   1.954   4.716   2.515 -0.0281 -0.7609  1.0643
  174SAPS  O13A19753   2.020   4.625   2.454 -0.0512 -0.1747 -0.3583
  174SAPS  O13B19754   1.940   4.832   2.466  0.0607  0.4118  0.3439
  174SAPS   C1119755   1.721   4.667   2.586  0.1805 -1.1227 -0.4960
  174SAPS  H11A19756   1.711   4.616   2.487  1.6080  0.4790 -1.5253
  174SAPS  H11B19757   1.695   4.773   2.562  2.7631 -0.0541  1.0497
  174SAPS     P19758   1.535   4.710   2.769  0.3498 -0.1602 -0.1946
  174SAPS   O1319759   1.444   4.784   2.680  0.8350 -0.4609  0.3039
  174SAPS   O1419760   1.473   4.626   2.878 -0.4853  0.4800  0.3531
  174SAPS   O1219761   1.633   4.615   2.686 -0.3488 -0.4836  0.4730
  174SAPS   O1119762   1.641   4.807   2.831 -0.1165  0.1802  0.1562
  174SAPS    C119763   1.704   4.779   2.950  0.1501  0.3043  0.1625
  174SAPS    HA19764   1.703   4.672   2.980  0.2665  0.9096  2.4970
  174SAPS    HB19765   1.809   4.811   2.937  0.4075  0.1798  1.7141
  174SAPS    C219766   1.649   4.867   3.065 -1.2627  0.8390  0.4372
  174SAPS    HS19767   1.736   4.889   3.130  2.5081 -1.3223 -3.3431
  174SAPS   O2119768   1.540   4.810   3.130  0.7884  0.5261  0.3411
  174SAPS   C2119769   1.565   4.708   3.211 -0.2602 -0.0469  0.4137
  174SAPS   O2219770   1.678   4.668   3.241  0.3073 -0.3623  0.1583
  174SAPS   C2219771   1.438   4.656   3.262 -0.0150  0.0088 -0.0226
  174SAPS   H2R19772   1.390   4.733   3.326  0.9853 -0.7420  1.7082
  174SAPS   H2S19773   1.373   4.629   3.175 -0.5416  0.6844  0.1519
  174SAPS    C319774   1.597   4.994   3.003 -0.0292  0.4198  0.1705
  174SAPS    HX19775   1.513   4.970   2.934 -0.4686  2.2686 -0.0140
  174SAPS    HY19776   1.673   5.052   2.946  0.1484 -0.4784 -0.5227
  174SAPS   O3119777   1.547   5.085   3.107  0.0057  0.3125 -0.3581
  174SAPS   C3119778   1.418   5.080   3.130 -0.4512  0.0527  0.5997
  174SAPS   O3219779   1.341   5.015   3.063  0.1546  0.3243 -0.4217
  174SAPS   C3219780   1.393   5.161   3.255 -0.4896  0.8268  0.4408
  174SAPS   H2X19781   1.306   5.225   3.228 -1.0566 -0.1269 -0.0196
  174SAPS   H2Y19782   1.484   5.222   3.276  0.0753 -0.1253  0.8216
  174SAPS   C2319783   1.456   4.535   3.369  0.2523  0.3690 -0.0334
  174SAPS   H3R19784   1.527   4.459   3.328 -1.8620 -0.3495 -2.5970
  174SAPS   H3S19785   1.364   4.477   3.390  1.4273 -1.3622  0.5690
  174SAPS   C2419786   1.519   4.577   3.506  0.0885  0.5769 -0.2195
  174SAPS   H4R19787   1.624   4.601   3.479  0.4995  0.5860  1.3105
  174SAPS   H4S19788   1.529   4.494   3.579  2.6098 -0.7820 -1.9673
  174SAPS   C2519789   1.465   4.698   3.569  0.1081 -0.6359  0.2842
  174SAPS   H5R19790   1.484   4.792   3.514  2.5173 -1.2371 -0.0271
  174SAPS   C2619791   1.402   4.710   3.686  0.3226  0.6646 -0.4730
  174SAPS   H6R19792   1.369   4.808   3.724 -0.5398 -0.7605  2.7962
  174SAPS   C2719793   1.349   4.597   3.769 -0.3075 -0.5149  0.1768
  174SAPS   H7R19794   1.384   4.497   3.736  1.7932  0.1661  0.1603
  174SAPS   H7S19795   1.238   4.593   3.760 -0.7401 -1.1082  4.1845
  174SAPS   C2819796   1.398   4.631   3.910  0.5461  0.4345  0.2177
  174SAPS   H8R19797   1.505   4.615   3.929  0.4303 -1.0249 -0.2319
  174SAPS   C2919798   1.324   4.665   4.017 -0.1023  0.0429 -0.7019
  174SAPS   H9R19799   1.377   4.643   4.111 -0.1120 -1.8474 -1.0894
  174SAPS  C21019800   1.174   4.686   4.029  0.0220  0.3366 -0.4722
  174SAPS  H10R19801   1.126   4.622   3.953  0.7674 -0.3779 -0.3525
  174SAPS  H10S19802   1.147   4.789   3.997  1.0610  0.3060 -1.5304
  174SAPS  C21119803   1.130   4.655   4.167  0.0355  0.1374  0.1760
  174SAPS  H11R19804   1.097   4.552   4.189  0.8774  0.2656  2.2524
  174SAPS  C21219805   1.115   4.750   4.262  0.0399 -0.5607  0.1592
  174SAPS  H12R19806   1.065   4.727   4.357 -0.0310  0.5665  0.4144
  174SAPS  C21319807   1.168   4.889   4.249  0.4621 -0.2322 -0.1471
  174SAPS  H13R19808   1.083   4.952   4.214  0.5158 -1.8472 -3.5659
  174SAPS  H13S19809   1.233   4.902   4.160  0.8362 -1.7606 -0.1268
  174SAPS  C21419810   1.238   4.937   4.372  0.4527 -0.3080 -0.1537
  174SAPS  H14R19811   1.343   4.905   4.365  0.5407 -0.6617  2.1935
  174SAPS  C21519812   1.180   4.989   4.484  0.0571  0.6874  0.2039
  174SAPS  H15R19813   1.242   5.014   4.572 -1.8489 -0.4474  1.9667
  174SAPS  C21619814   1.033   5.006   4.510 -0.3634  0.0670 -0.0227
  174SAPS  H16R19815   1.002   4.930   4.585  0.7014  1.1621  1.5861
  174SAPS  H16S19816   0.982   4.980   4.415 -0.1851  0.5853 -0.2607
  174SAPS  C21719817   0.979   5.151   4.544 -0.1320  0.6242 -1.3820
  174SAPS  H17R19818   1.045   5.218   4.485  0.5863 -0.2194 -1.5566
  174SAPS  H17S19819   1.020   5.171   4.645 -1.6731  1.1307 -0.8274
  174SAPS  C21819820   0.830   5.177   4.534 -0.1964  0.6040  0.1787
  174SAPS  H18R19821   0.793   5.160   4.431 -1.6174  0.9682  0.6006
  174SAPS  H18S19822   0.814   5.287   4.547  0.3033  0.7966 -0.7439
  174SAPS  C21919823   0.738   5.107   4.635  0.4708 -0.2041 -0.8151
  174SAPS  H19R19824   0.750   5.156   4.734 -2.0934 -2.6779  0.8860
  174SAPS  H19S19825   0.776   5.004   4.646 -0.5256 -0.6355 -1.2293
  174SAPS  C22019826   0.593   5.101   4.601  0.2009  0.0778 -0.7745
  174SAPS  H20R19827   0.540   5.198   4.608 -0.0094  0.0007 -1.2348
  174SAPS  H20S19828   0.540   5.030   4.668  2.4374  0.7309  1.8787
  174SAPS  H20T19829   0.587   5.066   4.495 -1.3546  1.6040 -1.2390
  174SAPS   C3319830   1.375   5.083   3.390  0.3960 -0.4103  0.3208
  174SAPS   H3X19831   1.465   5.028   3.425  1.8171  1.5186 -0.1094
  174SAPS   H3Y19832   1.300   5.003   3.376 -0.1253 -0.1721  1.6114
  174SAPS   C3419833   1.318   5.161   3.499 -0.5450 -0.3336 -0.0954
  174SAPS   H4X19834   1.209   5.174   3.480 -0.5418 -0.4363 -0.1842
  174SAPS   H4Y19835   1.360   5.264   3.493 -1.5520  0.0367 -1.1403
  174SAPS   C3519836   1.336   5.093   3.636  0.1474  0.3567 -0.5860
  174SAPS   H5X19837   1.442   5.068   3.659  0.1253  2.1320  1.7974
  174SAPS   H5Y19838   1.281   4.997   3.625  2.4680 -1.1018 -0.3271
  174SAPS   C3619839   1.277   5.179   3.748  0.1475  0.5679 -0.6216
  174SAPS   H6X19840   1.178   5.219   3.718 -0.6924 -0.3553  0.7876
  174SAPS   H6Y19841   1.347   5.264   3.766  3.1229 -1.7746 -0.1800
  174SAPS   C3719842   1.265   5.100   3.877 -0.0511 -0.1361 -0.0422
  174SAPS   H7X19843   1.357   5.049   3.912 -1.6212 -2.4499  1.0261
  174SAPS   H7Y19844   1.202   5.010   3.857 -0.0106 -0.7951  2.3870
  174SAPS   C3819845   1.201   5.189   3.985 -0.2409  0.8937  0.0212
  174SAPS   H8X19846   1.272   5.270   4.013  1.4686 -1.5575  3.6146
  174SAPS   H8Y19847   1.187   5.129   4.077  3.8488 -2.4814 -1.1940
  174SAPS   C3919848   1.069   5.262   3.955  0.0256 -0.3174 -0.0391
  174SAPS   H9X19849   0.990   5.196   3.914  0.2445 -2.4079  2.6373
  174SAPS   H9Y19850   1.093   5.337   3.876 -0.8708  3.8504  3.2946
  174SAPS  C31019851   1.024   5.346   4.078 -0.3943 -0.3010 -0.0702
  174SAPS  H10X19852   1.084   5.436   4.100  1.3036 -1.3361 -0.2691
  174SAPS  H10Y19853   1.054   5.281   4.163 -1.8735  2.5953  2.8682
  174SAPS  C31119854   0.876   5.373   4.081  0.1816 -0.2832 -0.2385
  174SAPS  H11X19855   0.844   5.435   3.994 -0.2274  0.3709  0.3708
  174SAPS  H11Y19856   0.856   5.428   4.176 -0.5698  1.5611 -1.4071
  174SAPS  C31219857   0.792   5.249   4.080  0.3405 -0.0722 -0.1813
  174SAPS  H12X19858   0.847   5.167   4.130 -0.0022 -1.0164 -1.3255
  174SAPS  H12Y19859   0.768   5.213   3.978  2.2216 -2.2646  0.0786
  174SAPS  C31319860   0.655   5.254   4.143  0.0869  0.0158 -0.9761
  174SAPS  H13X19861   0.589   5.326   4.090  1.0382  0.1271 -2.0467
  174SAPS  H13Y19862   0.683   5.293   4.244 -0.2600 -0.6755 -0.6098
  174SAPS  C31419863   0.580   5.119   4.148  0.9827  0.6126  0.1250
  174SAPS  H14X19864   0.645   5.043   4.195  0.0799  1.2430  2.5544
  174SAPS  H14Y19865   0.556   5.088   4.044  4.0197  0.3892 -0.5775
  174SAPS  C31519866   0.450   5.123   4.230  0.0178  0.0233  0.2561
  174SAPS  H15X19867   0.474   5.145   4.336 -2.0298 -0.0349  0.7745
  174SAPS  H15Y19868   0.394   5.028   4.224  0.3621 -0.1119 -1.3608
  174SAPS  C31619869   0.349   5.225   4.178 -0.0018  0.3449  0.0579
  174SAPS  H16X19870   0.339   5.213   4.068 -1.0569  1.7414 -0.0147
  174SAPS  H16Y19871   0.397   5.324   4.197  0.2337  0.1162  0.7055
  174SAPS  C31719872   0.218   5.217   4.247  0.4598 -0.6884  0.6453
  174SAPS  H17X19873   0.166   5.315   4.244 -0.5203 -1.1384  1.8423
  174SAPS  H17Y19874   0.230   5.195   4.355  0.2470 -3.1154  0.2361
  174SAPS  C31819875   0.129   5.119   4.175  0.5403  0.1813 -0.1118
  174SAPS  H18X19876   0.069   5.179   4.102 -1.9398 -1.0176  0.8316
  174SAPS  H18Y19877   0.053   5.064   4.234 -0.3575  0.8509 -0.6197
  174SAPS  H18Z19878   0.185   5.045   4.114  1.3388  0.4912  0.2256
  175SAPS     N19879   5.796   4.072   2.899  0.0783 -0.2190  0.0928
  175SAPS   HN119880   5.888   4.108   2.868  0.1002 -0.7165 -0.4429
  175SAPS   HN219881   5.741   4.147   2.945  1.2617  0.2227  0.8280
  175SAPS   HN319882   5.804   3.988   2.961  0.8414 -0.3185 -0.1380
  175SAPS   C1219883   5.731   4.021   2.770 -0.3839  0.3002 -0.0114
  175SAPS  H12A19884   5.768   4.071   2.683  0.6899  0.6969  0.6563
  175SAPS   C1319885   5.769   3.874   2.749 -0.0235 -0.2932  0.7348
  175SAPS  O13A19886   5.821   3.818   2.844 -0.3874  0.4454  0.2223
  175SAPS  O13B19887   5.705   3.804   2.660 -0.2134 -0.1193 -0.0890
  175SAPS   C1119888   5.574   4.028   2.782  0.4766 -0.3792  0.5860
  175SAPS  H11A19889   5.528   3.971   2.866 -0.6593  1.1540  1.0658
  175SAPS  H11B19890   5.548   3.981   2.685 -0.7408  2.3077 -0.5103
  175SAPS     P19891   5.381   4.201   2.748  0.2946 -0.2588  0.3151
  175SAPS   O1319892   5.373   4.337   2.697  0.3689 -0.0085 -0.1226
  175SAPS   O1419893   5.315   4.096   2.662  0.2948  0.0671  0.0939
  175SAPS   O1219894   5.528   4.162   2.784  0.3566 -1.0921  0.0999
  175SAPS   O1119895   5.291   4.197   2.877  0.2514  0.0232 -0.1311
  175SAPS    C119896   5.346   4.248   2.996  0.2578  0.3255 -0.2278
  175SAPS    HA19897   5.457   4.245   3.004  0.2892 -2.1783 -0.7216
  175SAPS    HB19898   5.305   4.350   3.013 -0.9060 -0.3945  1.6578
  175SAPS    C219899   5.306   4.163   3.121  0.3140 -0.4121 -0.2580
  175SAPS    HS19900   5.366   4.071   3.107  1.2722  0.1385  0.1707
  175SAPS   O2119901   5.164   4.149   3.121  0.6517 -0.6236 -0.3903
  175SAPS   C2119902   5.129   4.037   3.175  0.1829  0.4613 -0.2049
  175SAPS   O2219903   5.194   3.936   3.191  0.1146  0.6519 -0.1300
  175SAPS   C2219904   4.974   4.049   3.185  0.4312  0.6168 -0.7064
  175SAPS   H2R19905   4.931   4.150   3.166  0.6236  0.7107 -0.6475
  175SAPS   H2S19906   4.924   3.981   3.113  0.0006  0.2053 -0.0306
  175SAPS    C319907   5.351   4.227   3.260 -0.2893 -0.3220 -0.0893
  175SAPS    HX19908   5.299   4.325   3.273  0.1618 -0.1615  0.5340
  175SAPS    HY19909   5.459   4.246   3.241 -0.3997 -0.3289 -0.7705
  175SAPS   O3119910   5.330   4.153   3.386  0.0656  0.3136  0.1728
  175SAPS   C3119911   5.417   4.048   3.404 -0.6963  1.0353 -0.2497
  175SAPS   O3219912   5.510   4.022   3.330  0.0255  0.0773  0.4099
  175SAPS   C3219913   5.377   3.970   3.529 -0.2596  0.0251  0.8928
  175SAPS   H2X19914   5.287   3.918   3.487 -0.9570 -0.9504  3.4389
  175SAPS   H2Y19915   5.357   4.037   3.615  3.0929  1.7364  0.4945
  175SAPS   C2319916   4.926   4.010   3.324  0.6262  0.8536  0.3660
  175SAPS   H3R19917   4.815   4.009   3.328  0.5485 -1.5505 -0.4390
  175SAPS   H3S19918   4.951   4.079   3.407  0.7261  0.4170  0.7014
  175SAPS   C2419919   4.965   3.868   3.382 -0.3650 -0.0743 -0.6004
  175SAPS   H4R19920   5.072   3.854   3.408 -0.6255 -0.4149  0.3245
  175SAPS   H4S19921   4.958   3.798   3.296  2.0629 -0.1695 -0.7919
  175SAPS   C2519922   4.881   3.835   3.503  0.6235 -0.2847 -0.4633
  175SAPS   H5R19923   4.811   3.754   3.478  0.6048 -0.7970  1.1228
  175SAPS   C2619924   4.921   3.878   3.630 -0.1873 -0.2783  0.1561
  175SAPS   H6R19925   4.861   3.867   3.721 -0.2386  2.3035  0.5217
  175SAPS   C2719926   5.047   3.971   3.649  0.4555  0.8508 -1.1557
  175SAPS   H7R19927   5.098   3.990   3.552  0.3177 -0.9383 -1.6167
  175SAPS   H7S19928   5.115   3.913   3.715 -3.0566 -0.0838  1.9751
  175SAPS   C2819929   5.015   4.101   3.714 -0.4721  0.3954  0.9009
  175SAPS   H8R19930   4.989   4.182   3.643  2.4637  0.8796  0.2777
  175SAPS   C2919931   5.022   4.129   3.848 -0.5348 -0.1549  1.0460
  175SAPS   H9R19932   4.996   4.230   3.884  1.6835  0.5782  0.7771
  175SAPS  C21019933   5.066   4.026   3.951  0.4779  0.2123 -0.1303
  175SAPS  H10R19934   5.175   4.007   3.941  0.6865 -0.8382  3.0904
  175SAPS  H10S19935   5.029   3.921   3.943  1.8805 -0.3001 -0.1531
  175SAPS  C21119936   5.031   4.058   4.091 -0.4386 -0.6324  0.3508
  175SAPS  H11R19937   5.126   4.064   4.145 -0.0327 -0.8218 -0.3334
  175SAPS  C21219938   4.916   4.088   4.144  0.0374 -0.7278  0.0068
  175SAPS  H12R19939   4.899   4.113   4.250  1.2794  0.5704 -0.0628
  175SAPS  C21319940   4.784   4.071   4.077 -0.1332 -0.5337 -0.2918
  175SAPS  H13R19941   4.785   4.117   3.976 -0.3784  2.8411  1.1275
  175SAPS  H13S19942   4.711   4.121   4.143  1.0871  0.3044  0.4575
  175SAPS  C21419943   4.737   3.930   4.079 -0.2755 -0.2399  0.1806
  175SAPS  H14R19944   4.796   3.868   4.148  0.7217  2.8310  2.3470
  175SAPS  C21519945   4.632   3.874   4.008 -0.1721 -0.1606  1.4545
  175SAPS  H15R19946   4.597   3.770   4.010 -2.5132  0.5342  0.4603
  175SAPS  C21619947   4.532   3.947   3.914 -0.3735  0.3982 -0.3766
  175SAPS  H16R19948   4.556   4.054   3.930 -0.0484 -0.0313  2.5640
  175SAPS  H16S19949   4.433   3.930   3.961 -0.3881  2.2044  0.3118
  175SAPS  C21719950   4.538   3.912   3.766 -0.3349 -0.5877 -0.4835
  175SAPS  H17R19951   4.574   3.807   3.752 -1.3406 -1.2127  1.3602
  175SAPS  H17S19952   4.616   3.975   3.720 -1.8532  0.7608 -1.3288
  175SAPS  C21819953   4.406   3.928   3.682 -0.4124 -0.2275  0.0345
  175SAPS  H18R19954   4.357   4.019   3.724  0.2536  0.5553 -0.8222
  175SAPS  H18S19955   4.347   3.839   3.711  2.0020 -1.4561  1.4764
  175SAPS  C21919956   4.438   3.949   3.536  0.4010 -0.1725  0.1849
  175SAPS  H19R19957   4.468   3.856   3.483 -1.1340 -1.1342  0.9414
  175SAPS  H19S19958   4.513   4.030   3.521  1.9988 -1.5869  0.2566
  175SAPS  C22019959   4.306   3.988   3.459 -0.4741  0.0842 -0.1045
  175SAPS  H20R19960   4.270   4.093   3.469 -0.5005  0.3042 -2.0753
  175SAPS  H20S19961   4.236   3.911   3.499  1.9096 -0.7831  2.7784
  175SAPS  H20T19962   4.317   3.971   3.350 -0.8970  1.9316 -0.4745
  175SAPS   C3319963   5.468   3.852   3.567  0.1861  0.9975 -0.0702
  175SAPS   H3X19964   5.564   3.894   3.602  0.3393  1.1667 -0.6955
  175SAPS   H3Y19965   5.479   3.777   3.485 -1.1765  2.0002 -1.2249
  175SAPS   C3419966   5.406   3.763   3.680 -0.3110 -0.0114 -0.6674
  175SAPS   H4X19967   5.458   3.666   3.678  0.7679  0.5712 -1.5791
  175SAPS   H4Y19968   5.300   3.752   3.649 -0.5416  0.0807  0.0610
  175SAPS   C3519969   5.401   3.836   3.818 -0.4290  0.5609  0.5049
  175SAPS   H5X19970   5.362   3.939   3.810 -1.7723  0.1350  1.2700
  175SAPS   H5Y19971   5.506   3.838   3.855  0.2874 -0.8128 -1.2655
  175SAPS   C3619972   5.323   3.752   3.919 -0.9044  0.5545 -0.1394
  175SAPS   H6X19973   5.349   3.645   3.903  0.0144  0.7670 -0.0840
  175SAPS   H6Y19974   5.215   3.755   3.891 -0.8962  0.9931 -0.1278
  175SAPS   C3719975   5.357   3.783   4.066  0.2000 -0.1633 -0.3447
  175SAPS   H7X19976   5.366   3.893   4.081 -1.2180 -0.1201  0.3253
  175SAPS   H7Y19977   5.456   3.741   4.093 -0.8307 -3.0020 -0.6033
  175SAPS   C3819978   5.248   3.750   4.165  0.0569  0.2266  0.3063
  175SAPS   H8X19979   5.215   3.646   4.142  1.5802 -0.4891  1.1988
  175SAPS   H8Y19980   5.164   3.820   4.148 -0.6770 -1.2180 -2.6049
  175SAPS   C3919981   5.293   3.740   4.313 -0.0902  0.2505  0.0586
  175SAPS   H9X19982   5.348   3.834   4.336  1.3986 -0.6779  0.4175
  175SAPS   H9Y19983   5.368   3.659   4.325 -0.1496  0.2574  0.4824
  175SAPS  C31019984   5.172   3.717   4.401  0.4916 -0.6139 -0.2382
  175SAPS  H10X19985   5.218   3.694   4.500  1.5866 -0.0700 -0.6119
  175SAPS  H10Y19986   5.115   3.629   4.366 -0.5351 -0.2360  0.4295
  175SAPS  C31119987   5.084   3.841   4.432  0.2095 -0.7313  0.4322
  175SAPS  H11X19988   5.033   3.878   4.341 -0.3555 -1.9844  0.2140
  175SAPS  H11Y19989   5.149   3.921   4.472 -2.2457  0.3777  2.4193
  175SAPS  C31219990   4.977   3.809   4.531  0.1049  0.0982  0.5762
  175SAPS  H12X19991   5.030   3.778   4.624  0.0298  1.0754  0.9565
  175SAPS  H12Y19992   4.920   3.720   4.497  1.1970 -0.3758 -0.0555
  175SAPS  C31319993   4.881   3.926   4.556 -0.1402 -0.7918  0.0934
  175SAPS  H13X19994   4.801   3.898   4.629  0.1353 -3.0000 -0.3929
  175SAPS  H13Y19995   4.830   3.946   4.459  1.8360  4.1915 -0.2123
  175SAPS  C31419996   4.946   4.059   4.591 -0.4465 -0.6829 -0.2428
  175SAPS  H14X19997   5.030   4.100   4.530 -0.0670  0.0833  0.7637
  175SAPS  H14Y19998   4.998   4.047   4.689  0.4783  1.1665 -0.4489
  175SAPS  C31519999   4.851   4.180   4.614 -0.1168 -0.2169 -0.1026
  175SAPS  H15X20000   4.814   4.179   4.719 -0.8460 -1.3004 -0.3425
  175SAPS  H15Y20001   4.760   4.178   4.550 -2.7376  1.0020  3.2855
  175SAPS  C31620002   4.934   4.311   4.617  0.6294 -0.6940  0.2062
  175SAPS  H16X20003   4.992   4.321   4.523 -1.7687  2.9414 -1.0874
  175SAPS  H16Y20004   5.008   4.313   4.700  0.4367 -0.0029  0.3642
  175SAPS  C31720005   4.845   4.435   4.618  0.0541  0.3073 -0.6677
  175SAPS  H17X20006   4.779   4.438   4.708 -0.0448  0.4672 -0.7444
  175SAPS  H17Y20007   4.781   4.421   4.528 -0.5008 -1.8951 -0.0014
  175SAPS  C31820008   4.916   4.570   4.625  0.2725 -0.3463  0.2404
  175SAPS  H18X20009   4.991   4.589   4.545 -0.6939 -0.1986 -0.6444
  175SAPS  H18Y20010   4.980   4.581   4.715 -0.8212  2.1649  0.7797
  175SAPS  H18Z20011   4.838   4.648   4.634 -1.0467 -1.6924  1.0040
  176SAPS     N20012   4.615   1.852   2.881 -0.0003 -0.1671  0.5786
  176SAPS   HN120013   4.548   1.802   2.942 -0.7199  2.4664  2.1003
  176SAPS   HN220014   4.648   1.796   2.800  0.9833 -0.4716  1.1712
  176SAPS   HN320015   4.702   1.874   2.935 -1.5041 -0.2736  3.2289
  176SAPS   C1220016   4.544   1.979   2.851  0.7093  0.3352 -0.0785
  176SAPS  H12A20017   4.603   2.035   2.781  1.0620  0.0475 -0.0161
  176SAPS   C1320018   4.402   1.970   2.785 -0.4245 -0.3131  0.4719
  176SAPS  O13A20019   4.373   1.866   2.729  0.3438 -0.1680 -0.5654
  176SAPS  O13B20020   4.328   2.074   2.765  0.0576  0.2142 -0.7741
  176SAPS   C1120021   4.520   2.058   2.993 -0.0495 -0.6199  0.7469
  176SAPS  H11A20022   4.447   2.002   3.055 -0.6879  0.4383  0.9658
  176SAPS  H11B20023   4.480   2.159   2.973  1.4040  0.2695  2.1644
  176SAPS     P20024   4.673   2.165   3.185  0.3162 -0.3405 -0.4867
  176SAPS   O1320025   4.665   2.095   3.309 -0.4073  0.0624 -0.4847
  176SAPS   O1420026   4.800   2.222   3.149 -0.0989  0.2789  0.2662
  176SAPS   O1220027   4.639   2.074   3.064 -0.0110  0.0722  0.3139
  176SAPS   O1120028   4.557   2.275   3.163  0.0976 -0.0311 -0.2855
  176SAPS    C120029   4.529   2.397   3.237 -0.0203 -0.4142 -0.3304
  176SAPS    HA20030   4.621   2.429   3.290  0.1332  0.3113 -1.0138
  176SAPS    HB20031   4.504   2.477   3.164  1.4874 -0.9481 -1.4976
  176SAPS    C220032   4.387   2.376   3.320 -0.0500  0.2264  0.2565
  176SAPS    HS20033   4.356   2.472   3.366 -2.3212 -0.5061  0.3847
  176SAPS   O2120034   4.403   2.280   3.426 -0.2104 -0.0272  0.1755
  176SAPS   C2120035   4.493   2.311   3.520 -0.1819 -0.8639  0.3663
  176SAPS   O2220036   4.554   2.415   3.534  0.0758  0.1125 -0.1612
  176SAPS   C2220037   4.489   2.193   3.625  0.5817 -0.1365 -0.2335
  176SAPS   H2R20038   4.382   2.162   3.629  0.3844  0.6171  1.2470
  176SAPS   H2S20039   4.558   2.118   3.582  0.9949  0.6032 -0.8794
  176SAPS    C320040   4.269   2.336   3.228  0.7349 -0.3529  0.0753
  176SAPS    HX20041   4.310   2.248   3.174  0.1727 -0.4245 -0.2501
  176SAPS    HY20042   4.240   2.418   3.158 -1.9203 -1.1668  0.1356
  176SAPS   O3120043   4.150   2.296   3.305 -0.1983 -0.8304  0.3316
  176SAPS   C3120044   4.079   2.397   3.353 -0.0093  0.0354  0.2955
  176SAPS   O3220045   4.102   2.511   3.318 -0.2505 -0.2097 -0.0994
  176SAPS   C3220046   3.982   2.360   3.458 -0.3337  0.5840  0.7375
  176SAPS   H2X20047   3.959   2.252   3.464 -1.0088  0.5225 -1.7878
  176SAPS   H2Y20048   3.891   2.402   3.411 -0.4484  0.1395  0.5648
  176SAPS   C2320049   4.542   2.242   3.757  0.2822  0.7599 -0.3557
  176SAPS   H3R20050   4.469   2.321   3.787 -0.3139  0.3558 -0.7097
  176SAPS   H3S20051   4.645   2.281   3.749  0.3433  1.0031  1.3228
  176SAPS   C2420052   4.532   2.134   3.872 -0.1741 -0.2900  0.2484
  176SAPS   H4R20053   4.443   2.071   3.852 -0.5064 -0.0908  1.0816
  176SAPS   H4S20054   4.523   2.192   3.966  4.1010 -1.5739  1.6483
  176SAPS   C2520055   4.657   2.053   3.877 -0.2505 -0.5748  0.7269
  176SAPS   H5R20056   4.679   2.012   3.778 -1.1635 -0.0679  0.3005
  176SAPS   C2620057   4.723   2.021   3.988 -0.1616  0.1615  0.2182
  176SAPS   H6R20058   4.795   1.938   3.974  0.7220  1.0663 -0.7980
  176SAPS   C2720059   4.685   2.046   4.129 -0.9459 -0.2879  0.1159
  176SAPS   H7R20060   4.691   2.156   4.142 -2.7565 -0.1401 -0.0557
  176SAPS   H7S20061   4.772   2.009   4.187  0.4839 -0.4575 -2.0423
  176SAPS   C2820062   4.554   1.980   4.179 -0.7168  0.2956  0.4090
  176SAPS   H8R20063   4.474   1.946   4.112 -0.4477 -1.3088  0.8514
  176SAPS   C2920064   4.525   1.986   4.309 -0.0384 -0.4045 -0.4822
  176SAPS   H9R20065   4.428   1.943   4.340  0.1798 -1.8818 -1.7411
  176SAPS  C21020066   4.616   2.030   4.426  0.0950 -0.0187  0.3542
  176SAPS  H10R20067   4.604   2.139   4.448 -2.1298  0.2612 -1.8391
  176SAPS  H10S20068   4.724   2.025   4.401  0.1929 -1.8800  1.0148
  176SAPS  C21120069   4.588   1.953   4.554  0.6015  0.1315  0.3501
  176SAPS  H11R20070   4.485   1.918   4.567  0.7437 -0.8751 -0.9949
  176SAPS  C21220071   4.667   1.934   4.661  0.0018  0.1484 -0.2472
  176SAPS  H12R20072   4.621   1.892   4.752  1.8172  0.7480  0.9824
  176SAPS  C21320073   4.812   1.977   4.685  0.1648  0.2545 -0.0179
  176SAPS  H13R20074   4.811   2.051   4.768 -0.5043 -0.7319  0.8639
  176SAPS  H13S20075   4.856   2.021   4.593  1.5147 -1.4569 -0.2451
  176SAPS  C21420076   4.881   1.849   4.729 -0.7058 -0.1969  0.1725
  176SAPS  H14R20077   4.927   1.805   4.639  0.4855  2.6256 -0.7261
  176SAPS  C21520078   4.922   1.810   4.852  0.6237  1.0713 -0.3774
  176SAPS  H15R20079   4.977   1.716   4.871 -1.9199 -0.1771  1.3981
  176SAPS  C21620080   4.876   1.869   4.982 -0.0660  0.5726 -0.1798
  176SAPS  H16R20081   4.840   1.974   4.969  0.6467  0.8402 -0.0343
  176SAPS  H16S20082   4.956   1.880   5.059  0.8848  0.1290 -1.0869
  176SAPS  C21720083   4.762   1.782   5.047 -0.0689  0.3600  0.4675
  176SAPS  H17R20084   4.674   1.773   4.980  0.4742  2.8702 -0.7119
  176SAPS  H17S20085   4.721   1.840   5.133 -0.6271  1.5951 -0.6075
  176SAPS  C21820086   4.809   1.641   5.097 -0.0310 -0.5609  0.1074
  176SAPS  H18R20087   4.903   1.657   5.154 -0.8608 -1.0800  1.7196
  176SAPS  H18S20088   4.829   1.574   5.011  1.6605 -0.1619  0.1588
  176SAPS  C21920089   4.696   1.574   5.176 -0.3081 -0.2797  0.0250
  176SAPS  H19R20090   4.723   1.470   5.205 -2.7709 -0.4606  1.9597
  176SAPS  H19S20091   4.604   1.563   5.114 -1.1599  2.3193  0.7181
  176SAPS  C22020092   4.655   1.639   5.312 -0.1269 -0.1673 -0.0122
  176SAPS  H20R20093   4.608   1.568   5.383 -0.2469  1.2417  1.3648
  176SAPS  H20S20094   4.568   1.702   5.283 -1.2293 -1.9093 -0.7045
  176SAPS  H20T20095   4.739   1.697   5.354  0.4542 -0.8152 -0.2461
  176SAPS   C3320096   4.005   2.433   3.594 -0.7463 -0.3348 -0.9110
  176SAPS   H3X20097   3.919   2.454   3.661 -0.9164 -1.1732 -0.8585
  176SAPS   H3Y20098   4.052   2.531   3.568  1.3528 -1.3678 -1.2274
  176SAPS   C3420099   4.094   2.344   3.682  0.3854 -0.6616 -0.7102
  176SAPS   H4X20100   4.200   2.353   3.651 -0.0993  0.7927 -2.0777
  176SAPS   H4Y20101   4.053   2.241   3.673 -2.2940  0.1551  0.9277
  176SAPS   C3520102   4.094   2.389   3.833 -0.5242  0.5887  0.4760
  176SAPS   H5X20103   3.993   2.400   3.876 -1.2018  0.3823 -0.9819
  176SAPS   H5Y20104   4.147   2.487   3.824 -0.9961  1.0040  1.9557
  176SAPS   C3620105   4.175   2.277   3.892  0.6067  0.4960  0.0441
  176SAPS   H6X20106   4.282   2.303   3.872  0.5611  0.3083 -0.4396
  176SAPS   H6Y20107   4.158   2.181   3.841  1.7953  0.7007 -0.7780
  176SAPS   C3720108   4.145   2.265   4.039 -0.6939  0.4013  0.2379
  176SAPS   H7X20109   4.037   2.251   4.060 -0.9530  0.4099 -1.0100
  176SAPS   H7Y20110   4.173   2.364   4.081 -1.5292  0.2097  1.2704
  176SAPS   C3820111   4.232   2.156   4.100  0.2347 -0.0070 -0.3025
  176SAPS   H8X20112   4.342   2.170   4.096  0.2744 -0.4425 -1.1061
  176SAPS   H8Y20113   4.215   2.065   4.038  1.4420 -0.0584 -0.5782
  176SAPS   C3920114   4.192   2.123   4.248 -0.3258 -0.1994  1.0675
  176SAPS   H9X20115   4.247   2.033   4.282  0.3742 -0.6847 -1.1685
  176SAPS   H9Y20116   4.085   2.096   4.257  0.2901 -3.6082 -0.4636
  176SAPS  C31020117   4.227   2.240   4.348 -0.1799  0.2179  0.4739
  176SAPS  H10X20118   4.175   2.327   4.304 -1.2622 -0.8793 -0.4859
  176SAPS  H10Y20119   4.333   2.270   4.332  0.9585 -2.8235  1.5239
  176SAPS  C31120120   4.180   2.223   4.495  0.4589 -0.6398  0.2316
  176SAPS  H11X20121   4.083   2.169   4.499  1.2596 -2.0520  1.9016
  176SAPS  H11Y20122   4.155   2.321   4.542 -0.8302 -0.4814 -0.7186
  176SAPS  C31220123   4.280   2.149   4.587  0.4021  0.5680  0.2313
  176SAPS  H12X20124   4.386   2.172   4.566  0.8205 -0.9309  0.5687
  176SAPS  H12Y20125   4.255   2.042   4.569 -0.5110  0.8414 -0.1658
  176SAPS  C31320126   4.269   2.179   4.733  0.2561  0.5016  0.7489
  176SAPS  H13X20127   4.163   2.182   4.765  0.5485  1.5567  1.6452
  176SAPS  H13Y20128   4.313   2.280   4.747  1.9034 -0.1020  0.2394
  176SAPS  C31420129   4.343   2.085   4.828  0.5385 -0.2722 -0.8457
  176SAPS  H14X20130   4.447   2.086   4.790  0.8801 -0.7291  0.0416
  176SAPS  H14Y20131   4.302   1.982   4.825  0.3507 -0.2632  0.4354
  176SAPS  C31520132   4.324   2.143   4.967  0.5918 -0.3827 -0.1622
  176SAPS  H15X20133   4.217   2.146   4.995 -0.1675  0.2743 -2.8372
  176SAPS  H15Y20134   4.361   2.248   4.973 -1.3182  0.4027 -1.1487
  176SAPS  C31620135   4.399   2.058   5.074 -0.2462 -0.3822  0.8310
  176SAPS  H16X20136   4.503   2.096   5.083  0.6672 -1.6579 -2.7964
  176SAPS  H16Y20137   4.421   1.962   5.024  0.8965  0.7497 -0.9826
  176SAPS  C31720138   4.322   2.040   5.208 -0.7550 -0.0294 -0.7504
  176SAPS  H17X20139   4.235   1.972   5.207 -2.8984  2.4233  1.8999
  176SAPS  H17Y20140   4.284   2.135   5.251  0.5491 -0.1416  0.7487
  176SAPS  C31820141   4.419   2.003   5.329 -0.4448  0.7864 -0.4712
  176SAPS  H18X20142   4.492   2.086   5.325  0.5119 -0.0537 -4.1951
  176SAPS  H18Y20143   4.472   1.908   5.308 -2.0506 -0.4737  0.8751
  176SAPS  H18Z20144   4.352   2.004   5.418 -1.0491 -0.1779 -0.8920
  177SAPS     N20145   6.076   3.735   2.907  0.8137 -0.6524 -0.0754
  177SAPS   HN120146   5.980   3.758   2.875  0.2953  0.0074  1.8650
  177SAPS   HN220147   6.061   3.643   2.953  1.9432 -0.0733  1.5272
  177SAPS   HN320148   6.087   3.806   2.981 -1.3616  1.3071 -1.4870
  177SAPS   C1220149   6.181   3.739   2.801 -0.3178  0.5193  0.0955
  177SAPS  H12A20150   6.267   3.723   2.864 -2.1572 -1.5814  2.2835
  177SAPS   C1320151   6.164   3.626   2.696  0.8091  0.5086  0.2152
  177SAPS  O13A20152   6.057   3.554   2.687 -0.3410 -0.0016  0.1032
  177SAPS  O13B20153   6.256   3.617   2.619  0.1043  0.3129 -0.2164
  177SAPS   C1120154   6.188   3.873   2.741 -0.8543 -0.2152  0.9843
  177SAPS  H11A20155   6.097   3.887   2.679 -0.0224 -0.7085 -0.4078
  177SAPS  H11B20156   6.274   3.866   2.671 -0.2024 -1.2228  1.8519
  177SAPS     P20157   6.168   4.117   2.829  0.2804  0.1495 -0.1801
  177SAPS   O1320158   6.188   4.140   2.680 -0.2053  0.2902  0.0831
  177SAPS   O1420159   6.040   4.149   2.894  0.0758  0.4381  0.1594
  177SAPS   O1220160   6.210   3.975   2.841 -0.2341  0.9259  0.2370
  177SAPS   O1120161   6.282   4.202   2.892 -0.2971  0.3559 -0.0961
  177SAPS    C120162   6.408   4.147   2.941  0.7961  0.1344  0.3421
  177SAPS    HA20163   6.462   4.076   2.874  0.5124  0.2423 -0.0039
  177SAPS    HB20164   6.475   4.233   2.961 -1.4629  1.5936  2.1849
  177SAPS    C220165   6.392   4.077   3.080  0.0179 -0.4548  0.0892
  177SAPS    HS20166   6.309   4.004   3.064  1.1717 -2.0295  0.9886
  177SAPS   O2120167   6.353   4.188   3.167 -0.5047 -0.1681 -0.1075
  177SAPS   C2120168   6.265   4.167   3.255  0.0999 -0.6565 -0.3501
  177SAPS   O2220169   6.191   4.071   3.268 -0.0522 -0.3816 -0.6327
  177SAPS   C2220170   6.259   4.283   3.353  0.3127 -0.7215  0.0314
  177SAPS   H2R20171   6.358   4.333   3.342 -0.3267  0.2028 -1.9888
  177SAPS   H2S20172   6.183   4.355   3.316 -1.0207 -1.6851  0.8167
  177SAPS    C320173   6.506   3.993   3.146 -0.0460 -0.0880  0.4820
  177SAPS    HX20174   6.589   4.062   3.117 -0.5324 -0.2118 -1.2895
  177SAPS    HY20175   6.524   3.898   3.091  1.7374  0.6816 -0.3403
  177SAPS   O3120176   6.488   3.974   3.290  0.7329 -0.0844  0.0819
  177SAPS   C3120177   6.431   3.852   3.320 -0.4422 -0.2562  0.0666
  177SAPS   O3220178   6.394   3.772   3.233  0.0019 -0.1322  0.2190
  177SAPS   C3220179   6.412   3.841   3.473 -0.2298  0.2601  0.3030
  177SAPS   H2X20180   6.471   3.919   3.527 -0.4982 -0.1336  1.1767
  177SAPS   H2Y20181   6.456   3.741   3.487 -1.1996 -0.3794 -0.9979
  177SAPS   C2320182   6.236   4.249   3.503 -0.1202 -0.8225 -0.5544
  177SAPS   H3R20183   6.308   4.168   3.530 -1.0466 -0.6826  2.7164
  177SAPS   H3S20184   6.136   4.203   3.516 -0.4514  0.1771  0.6500
  177SAPS   C2420185   6.251   4.372   3.596 -0.4245  0.3626  0.0260
  177SAPS   H4R20186   6.156   4.430   3.588 -0.4284  0.7808  2.4659
  177SAPS   H4S20187   6.331   4.419   3.534  0.3879 -2.6985 -1.4644
  177SAPS   C2520188   6.311   4.348   3.732 -0.2826 -0.1250  0.7856
  177SAPS   H5R20189   6.394   4.275   3.728  1.3662  1.7351 -1.6619
  177SAPS   C2620190   6.281   4.412   3.840  0.0611  0.7704  0.0949
  177SAPS   H6R20191   6.336   4.386   3.932 -0.2442  0.0373  0.0830
  177SAPS   C2720192   6.174   4.517   3.858 -0.4240 -0.4024  0.1085
  177SAPS   H7R20193   6.105   4.527   3.772  2.4165  2.2748 -2.0831
  177SAPS   H7S20194   6.235   4.610   3.858  0.3649 -0.8629  2.2837
  177SAPS   C2820195   6.097   4.509   3.983  0.0085  0.0310  0.3309
  177SAPS   H8R20196   6.034   4.419   3.994  1.3894 -0.8308  1.5921
  177SAPS   C2920197   6.096   4.600   4.087 -0.1250  1.0161 -0.1085
  177SAPS   H9R20198   6.044   4.571   4.179  0.6679  0.4176  0.1604
  177SAPS  C21020199   6.164   4.733   4.098 -0.2749  0.4326 -0.2637
  177SAPS  H10R20200   6.184   4.778   3.999  0.2971 -1.4890 -1.0711
  177SAPS  H10S20201   6.273   4.727   4.119 -0.3869  2.1961  1.0456
  177SAPS  C21120202   6.097   4.821   4.202  0.1727  0.1989  0.3931
  177SAPS  H11R20203   6.014   4.883   4.164  0.8481  1.9016  1.5355
  177SAPS  C21220204   6.149   4.838   4.326  0.4436 -0.8104  0.1108
  177SAPS  H12R20205   6.085   4.900   4.391 -0.2990  0.8154 -2.0295
  177SAPS  C21320206   6.269   4.778   4.389 -0.0671  0.4102 -0.0293
  177SAPS  H13R20207   6.318   4.843   4.464 -0.7794  1.1518 -0.1901
  177SAPS  H13S20208   6.348   4.763   4.312 -2.2107 -1.4700 -2.0362
  177SAPS  C21420209   6.238   4.645   4.446  0.5881  0.8331  0.1221
  177SAPS  H14R20210   6.257   4.556   4.384  0.8274 -0.5920  2.1250
  177SAPS  C21520211   6.208   4.607   4.571 -0.7654  0.7477  0.1859
  177SAPS  H15R20212   6.193   4.501   4.594  1.2912  0.3186 -0.2076
  177SAPS  C21620213   6.189   4.690   4.691 -0.0837 -0.9555  0.3885
  177SAPS  H16R20214   6.089   4.672   4.736 -0.3673  0.0254  0.1701
  177SAPS  H16S20215   6.208   4.795   4.661 -0.2544 -1.0635 -0.1153
  177SAPS  C21720216   6.300   4.662   4.793 -0.9984  0.4977  0.0139
  177SAPS  H17R20217   6.299   4.739   4.873  1.9024 -0.1562  0.7931
  177SAPS  H17S20218   6.396   4.667   4.737 -1.2079 -0.6039 -0.4514
  177SAPS  C21820219   6.293   4.530   4.868  0.1731  1.1147 -0.0442
  177SAPS  H18R20220   6.283   4.456   4.786  2.6001  0.5546  0.0919
  177SAPS  H18S20221   6.194   4.527   4.920 -1.2562 -0.6333 -2.6431
  177SAPS  C21920222   6.394   4.487   4.967  0.0240  0.0781 -0.4065
  177SAPS  H19R20223   6.388   4.556   5.055 -0.4410  0.9120 -1.0774
  177SAPS  H19S20224   6.493   4.501   4.918 -0.5574  2.0591 -1.1084
  177SAPS  C22020225   6.366   4.348   5.018 -0.6281 -0.1057  0.1241
  177SAPS  H20R20226   6.395   4.283   4.934 -0.2038 -0.8341  0.8235
  177SAPS  H20S20227   6.256   4.343   5.032 -0.7193 -0.5033 -0.6954
  177SAPS  H20T20228   6.421   4.311   5.106 -1.8358  0.0492  0.9774
  177SAPS   C3320229   6.270   3.845   3.528  0.1067 -0.4809  0.0482
  177SAPS   H3X20230   6.210   3.773   3.468 -3.3578  1.7148  0.6439
  177SAPS   H3Y20231   6.224   3.941   3.497  0.2198 -0.0525  1.1735
  177SAPS   C3420232   6.262   3.822   3.674  0.1776 -0.0648 -0.7538
  177SAPS   H4X20233   6.314   3.727   3.699  0.0277  0.1445  0.4482
  177SAPS   H4Y20234   6.154   3.810   3.696  0.5500 -0.1365  1.2100
  177SAPS   C3520235   6.322   3.939   3.753 -0.7274 -0.4096 -0.1654
  177SAPS   H5X20236   6.293   4.042   3.725  2.0254 -0.2517 -2.9075
  177SAPS   H5Y20237   6.427   3.929   3.718 -0.0526 -0.3920  1.7224
  177SAPS   C3620238   6.317   3.931   3.909 -0.0720 -0.1049 -0.3801
  177SAPS   H6X20239   6.408   3.987   3.939  0.2297  0.4850 -2.2870
  177SAPS   H6Y20240   6.307   3.829   3.952  0.9107  1.1574  3.1818
  177SAPS   C3720241   6.184   4.003   3.956  0.0891 -0.2260  0.0561
  177SAPS   H7X20242   6.091   3.949   3.931 -0.1864 -0.8616  2.2078
  177SAPS   H7Y20243   6.184   4.110   3.924  1.5216  0.1140  1.0621
  177SAPS   C3820244   6.176   4.021   4.107 -0.5247  0.5264 -0.2976
  177SAPS   H8X20245   6.265   4.081   4.137 -0.4756 -0.6651  2.1977
  177SAPS   H8Y20246   6.184   3.928   4.169 -0.2894 -0.0238 -1.1402
  177SAPS   C3920247   6.060   4.101   4.167 -0.4648 -0.3434 -0.2347
  177SAPS   H9X20248   5.966   4.041   4.163 -0.4628 -0.3505 -0.1801
  177SAPS   H9Y20249   6.058   4.192   4.104  0.1773 -0.0024  0.2237
  177SAPS  C31020250   6.094   4.152   4.304 -0.1538 -0.0075  0.1036
  177SAPS  H10X20251   6.016   4.227   4.332  0.7210  2.1823 -2.8874
  177SAPS  H10Y20252   6.196   4.192   4.317  0.7675 -2.6388  1.8888
  177SAPS  C31120253   6.097   4.035   4.404 -0.5963 -0.2411  0.2436
  177SAPS  H11X20254   6.199   3.993   4.419 -0.3075  0.1497 -0.5810
  177SAPS  H11Y20255   6.027   3.957   4.368  0.2456 -0.7978 -0.2110
  177SAPS  C31220256   6.026   4.085   4.529 -0.1453 -0.3259 -0.1839
  177SAPS  H12X20257   5.983   4.005   4.593  2.2274 -0.7857  0.9375
  177SAPS  H12Y20258   5.935   4.136   4.490  0.1299  0.1756 -0.1836
  177SAPS  C31320259   6.114   4.190   4.602  0.2662  0.1900 -0.0663
  177SAPS  H13X20260   6.125   4.275   4.531  0.4672  0.1384 -0.0974
  177SAPS  H13Y20261   6.216   4.147   4.612  0.6442  1.0781 -0.0213
  177SAPS  C31420262   6.064   4.218   4.740  0.1979  0.1435 -0.8865
  177SAPS  H14X20263   6.132   4.274   4.808 -0.5111  1.2861 -1.0742
  177SAPS  H14Y20264   6.031   4.128   4.795 -1.8177  1.4481  0.1869
  177SAPS  C31520265   5.936   4.310   4.740 -0.2847  0.3020  0.3243
  177SAPS  H15X20266   5.851   4.242   4.717 -0.0059 -0.3213  1.0804
  177SAPS  H15Y20267   5.955   4.379   4.655  0.4554 -0.4635 -0.1491
  177SAPS  C31620268   5.922   4.405   4.864 -0.6021  0.3362 -0.0734
  177SAPS  H16X20269   5.839   4.475   4.844 -1.1016  0.4953  2.2505
  177SAPS  H16Y20270   6.008   4.475   4.864 -1.4122  1.4123 -2.2261
  177SAPS  C31720271   5.892   4.330   4.998 -0.0987 -0.0657  0.1170
  177SAPS  H17X20272   5.868   4.409   5.073  0.5039 -0.3012  0.5734
  177SAPS  H17Y20273   5.984   4.282   5.039 -1.0428 -2.2700 -0.2384
  177SAPS  C31820274   5.778   4.226   4.980  0.1157 -0.7313  0.0734
  177SAPS  H18X20275   5.809   4.138   4.919 -0.4016  0.4969 -2.0834
  177SAPS  H18Y20276   5.696   4.283   4.932  2.2375  3.3393  0.8245
  177SAPS  H18Z20277   5.752   4.188   5.081 -0.0095  0.2943  0.4391
  178SAPS     N20278   4.375   1.585   2.723 -0.3367 -0.3044 -0.1238
  178SAPS   HN120279   4.311   1.590   2.804  1.3038 -0.9481  1.2653
  178SAPS   HN220280   4.463   1.544   2.761  1.2232  2.7283 -0.0864
  178SAPS   HN320281   4.397   1.678   2.681  1.9821 -1.4836 -1.7918
  178SAPS   C1220282   4.326   1.493   2.617 -0.2550  0.7003 -0.2869
  178SAPS  H12A20283   4.250   1.431   2.662  0.7855 -0.0551  0.4814
  178SAPS   C1320284   4.280   1.569   2.494  0.3434 -0.8099  0.4698
  178SAPS  O13A20285   4.321   1.691   2.470  0.0660  0.2949  0.3426
  178SAPS  O13B20286   4.237   1.507   2.395  0.0829 -0.0524 -0.6899
  178SAPS   C1120287   4.438   1.392   2.585  0.1382  0.7970  0.0534
  178SAPS  H11A20288   4.536   1.431   2.550  0.2822 -1.1149 -1.9499
  178SAPS  H11B20289   4.398   1.333   2.499 -2.3613  2.4580 -0.0279
  178SAPS     P20290   4.382   1.173   2.739 -0.0387  0.3036 -0.5049
  178SAPS   O1320291   4.250   1.177   2.669 -0.6418  0.3188 -0.3688
  178SAPS   O1420292   4.479   1.063   2.706 -0.0650 -0.3117 -0.6066
  178SAPS   O1220293   4.456   1.306   2.702 -0.0652 -0.3649  0.5965
  178SAPS   O1120294   4.373   1.186   2.900 -0.4403  0.2242  0.1516
  178SAPS    C120295   4.433   1.291   2.969  0.1626  0.2233  0.5204
  178SAPS    HA20296   4.535   1.318   2.935 -0.0681  1.7108  0.9456
  178SAPS    HB20297   4.358   1.373   2.961 -2.3321 -2.0991 -2.0290
  178SAPS    C220298   4.447   1.243   3.116  0.0391  0.7381 -0.0222
  178SAPS    HS20299   4.490   1.140   3.110 -0.4095  0.4257  1.4590
  178SAPS   O2120300   4.315   1.248   3.186  0.0171  0.4732  0.4357
  178SAPS   C2120301   4.313   1.173   3.294  0.4607 -0.2221 -0.1153
  178SAPS   O2220302   4.383   1.078   3.320  0.1728 -0.0960  0.2537
  178SAPS   C2220303   4.178   1.199   3.364 -0.4720  0.1742 -0.4738
  178SAPS   H2R20304   4.165   1.309   3.374 -3.4651 -0.1989  0.5631
  178SAPS   H2S20305   4.089   1.162   3.308 -0.7128 -1.9142  1.1586
  178SAPS    C320306   4.550   1.321   3.203 -0.7637 -0.3061  0.5986
  178SAPS    HX20307   4.520   1.427   3.211 -1.5856 -0.5882  1.4572
  178SAPS    HY20308   4.639   1.335   3.137 -1.1785  0.1700  0.1302
  178SAPS   O3120309   4.573   1.279   3.337  0.0197  0.5119  0.0167
  178SAPS   C3120310   4.672   1.194   3.356  0.3800  0.2610  1.3618
  178SAPS   O3220311   4.762   1.176   3.275 -0.3912 -0.3298 -0.9682
  178SAPS   C3220312   4.656   1.115   3.486 -0.2066 -0.0431  0.5093
  178SAPS   H2X20313   4.590   1.027   3.465 -0.4163  0.8374 -3.2144
  178SAPS   H2Y20314   4.597   1.180   3.554 -0.7184  0.7575 -0.6599
  178SAPS   C2320315   4.173   1.134   3.507  0.1383 -0.1027 -0.1607
  178SAPS   H3R20316   4.232   1.042   3.522  0.1636  0.1433  1.4212
  178SAPS   H3S20317   4.065   1.112   3.523  0.0816 -2.0402 -2.6679
  178SAPS   C2420318   4.216   1.233   3.612 -0.0894  0.5735 -0.0911
  178SAPS   H4R20319   4.168   1.333   3.602 -0.0670  0.5970  0.0344
  178SAPS   H4S20320   4.322   1.259   3.592  0.0528 -0.1757 -0.3468
  178SAPS   C2520321   4.191   1.183   3.755 -0.4272 -0.5228 -0.0178
  178SAPS   H5R20322   4.087   1.192   3.788  0.1068  2.0080  1.2087
  178SAPS   C2620323   4.280   1.149   3.849 -0.5040 -0.7911 -0.0462
  178SAPS   H6R20324   4.250   1.145   3.954  2.6883  1.1761  1.0720
  178SAPS   C2720325   4.430   1.153   3.848  0.0508 -0.1928 -0.6236
  178SAPS   H7R20326   4.475   1.151   3.746 -0.4669 -0.8042 -0.8431
  178SAPS   H7S20327   4.463   1.055   3.887 -1.2932 -1.0900 -1.6737
  178SAPS   C2820328   4.480   1.269   3.929  0.1415  0.4882  0.8599
  178SAPS   H8R20329   4.487   1.366   3.878  0.4727  0.5278  0.9783
  178SAPS   C2920330   4.511   1.263   4.059 -0.0673  0.5492 -0.0747
  178SAPS   H9R20331   4.524   1.357   4.115 -2.3691  0.8412  0.0628
  178SAPS  C21020332   4.499   1.146   4.146 -0.4797  0.4685  0.1589
  178SAPS  H10R20333   4.539   1.052   4.103  1.1711  0.3229  1.8838
  178SAPS  H10S20334   4.393   1.127   4.172 -0.0516  0.1601  1.7927
  178SAPS  C21120335   4.590   1.150   4.269 -0.1637  0.1843  0.3749
  178SAPS  H11R20336   4.692   1.114   4.250  0.2315  0.2796  2.2039
  178SAPS  C21220337   4.560   1.189   4.391  0.0893 -0.2274 -0.1607
  178SAPS  H12R20338   4.644   1.198   4.462  1.6865 -0.9880 -1.8661
  178SAPS  C21320339   4.424   1.233   4.432  0.1159 -0.1126  1.0168
  178SAPS  H13R20340   4.348   1.153   4.418  2.6048 -2.5492  0.5629
  178SAPS  H13S20341   4.394   1.323   4.374 -1.4089  0.2860  2.3542
  178SAPS  C21420342   4.415   1.260   4.578  0.3899  0.2126  0.0344
  178SAPS  H14R20343   4.414   1.166   4.635 -0.3297 -0.1041 -0.4879
  178SAPS  C21520344   4.387   1.376   4.638  0.3738  0.6938 -0.4869
  178SAPS  H15R20345   4.391   1.378   4.748 -1.7359 -0.8964 -0.3084
  178SAPS  C21620346   4.366   1.515   4.580  0.1235 -0.0437  0.3329
  178SAPS  H16R20347   4.257   1.517   4.560 -0.1240  1.7456  1.6601
  178SAPS  H16S20348   4.431   1.522   4.491  1.8421  1.0923  1.6060
  178SAPS  C21720349   4.410   1.613   4.692  0.4266  0.3433 -0.2703
  178SAPS  H17R20350   4.415   1.717   4.652 -1.9628 -0.0253 -1.7740
  178SAPS  H17S20351   4.505   1.586   4.742  0.4941  0.8457 -0.1258
  178SAPS  C21820352   4.313   1.624   4.814  0.0024  0.8746  0.5501
  178SAPS  H18R20353   4.275   1.524   4.844  0.4644  0.5211 -0.0218
  178SAPS  H18S20354   4.223   1.681   4.784 -1.3214 -1.1237  0.5915
  178SAPS  C21920355   4.377   1.676   4.944 -0.7301 -0.1930  0.5570
  178SAPS  H19R20356   4.441   1.758   4.904 -0.4255 -0.5745  0.2466
  178SAPS  H19S20357   4.439   1.596   4.989 -0.6400 -0.2153  0.3932
  178SAPS  C22020358   4.280   1.727   5.051 -0.2061 -0.3457 -0.1009
  178SAPS  H20R20359   4.348   1.792   5.111  0.7562 -2.0019  0.6844
  178SAPS  H20S20360   4.235   1.654   5.122 -3.4932  1.4192 -0.1822
  178SAPS  H20T20361   4.200   1.783   4.997  0.8048  1.3013  0.0214
  178SAPS   C3320362   4.791   1.071   3.553  0.2060  0.7649 -0.7131
  178SAPS   H3X20363   4.860   1.158   3.547  2.0045 -0.4130  1.3723
  178SAPS   H3Y20364   4.834   0.980   3.506 -1.7597 -0.6161  0.0454
  178SAPS   C3420365   4.777   1.046   3.706 -0.2371  0.4936 -0.0664
  178SAPS   H4X20366   4.711   0.958   3.719  0.6730  0.0578  2.0820
  178SAPS   H4Y20367   4.742   1.137   3.760  1.4607  1.6028 -0.7249
  178SAPS   C3520368   4.917   1.003   3.755 -0.4084  0.1992 -0.3816
  178SAPS   H5X20369   4.980   1.094   3.745 -3.4679  2.7750  1.6874
  178SAPS   H5Y20370   4.964   0.921   3.697  1.9918 -0.5253  2.3554
  178SAPS   C3620371   4.921   0.979   3.905 -0.2455  0.7241  0.9464
  178SAPS   H6X20372   4.840   1.037   3.953 -2.4142 -0.8132 -0.6225
  178SAPS   H6Y20373   5.019   1.008   3.949  0.1702  2.8314 -1.1503
  178SAPS   C3720374   4.869   0.835   3.937  0.5030  0.1052  0.0554
  178SAPS   H7X20375   4.924   0.775   3.862  0.1472  0.1813 -0.2680
  178SAPS   H7Y20376   4.758   0.824   3.929  0.5308 -2.0653  1.6439
  178SAPS   C3820377   4.898   0.784   4.079 -0.6480  0.2625  0.0896
  178SAPS   H8X20378   5.006   0.785   4.108 -0.8355  0.3918  0.7963
  178SAPS   H8Y20379   4.861   0.682   4.101 -1.2867  0.1509 -1.3823
  178SAPS   C3920380   4.838   0.885   4.189 -0.5675  0.2968  0.3989
  178SAPS   H9X20381   4.728   0.881   4.204 -0.4305 -0.6328  1.2538
  178SAPS   H9Y20382   4.853   0.989   4.152  0.3815 -0.0755 -0.2933
  178SAPS  C31020383   4.900   0.875   4.327 -0.3686 -0.4709  0.9237
  178SAPS  H10X20384   4.870   0.949   4.404  1.3139 -0.2697  1.4194
  178SAPS  H10Y20385   5.007   0.898   4.306 -0.9227  0.3654 -1.1729
  178SAPS  C31120386   4.886   0.738   4.391  0.0398 -0.7991  0.6947
  178SAPS  H11X20387   4.881   0.658   4.315  2.1963 -0.5853  0.2685
  178SAPS  H11Y20388   4.788   0.741   4.444 -0.6167  2.3278 -0.4370
  178SAPS  C31220389   5.005   0.702   4.482 -0.3650  0.0964 -1.2546
  178SAPS  H12X20390   5.098   0.697   4.421  0.0829 -2.7399 -0.4438
  178SAPS  H12Y20391   4.990   0.608   4.539 -0.7953  1.4120  0.9107
  178SAPS  C31320392   5.039   0.814   4.588 -0.1250 -0.0892  0.8192
  178SAPS  H13X20393   4.949   0.865   4.629 -0.4175  0.9688 -1.0563
  178SAPS  H13Y20394   5.092   0.892   4.530 -1.0359 -1.3928 -1.9143
  178SAPS  C31420395   5.130   0.760   4.702 -1.0460 -0.5693  0.1758
  178SAPS  H14X20396   5.149   0.843   4.774 -0.4176 -1.9602  1.6819
  178SAPS  H14Y20397   5.233   0.729   4.673  0.2801  0.9750  2.7986
  178SAPS  C31520398   5.075   0.645   4.782 -0.0446 -0.1835  0.3190
  178SAPS  H15X20399   5.130   0.632   4.878  0.0574  0.2451  0.3244
  178SAPS  H15Y20400   5.079   0.551   4.723  1.6417 -1.2447  2.0101
  178SAPS  C31620401   4.925   0.668   4.816 -0.3186 -0.1732 -0.6361
  178SAPS  H16X20402   4.861   0.676   4.726 -1.7302  1.9258  0.4916
  178SAPS  H16Y20403   4.907   0.768   4.861 -0.8700  0.2077 -1.6775
  178SAPS  C31720404   4.860   0.556   4.905  0.1701 -0.3419 -0.3652
  178SAPS  H17X20405   4.911   0.542   5.003  1.3786 -0.8839 -1.0537
  178SAPS  H17Y20406   4.843   0.462   4.849 -1.3951 -1.6315  2.0874
  178SAPS  C31820407   4.714   0.595   4.952  0.4971 -0.6474 -0.1002
  178SAPS  H18X20408   4.654   0.506   4.980 -1.3544  0.0450 -1.6458
  178SAPS  H18Y20409   4.658   0.633   4.864  0.4648  1.1519  0.6528
  178SAPS  H18Z20410   4.700   0.667   5.035  0.4830 -0.7580 -0.0077
  179SAPS     N20411   1.177   4.114   2.526  0.2599 -0.3167 -0.2257
  179SAPS   HN120412   1.268   4.145   2.488  0.1532  0.6625  0.3008
  179SAPS   HN220413   1.182   4.107   2.629 -1.6513  1.7537  0.0917
  179SAPS   HN320414   1.150   4.025   2.478 -2.4955  0.7128 -0.7618
  179SAPS   C1220415   1.083   4.224   2.484  0.2895  0.7193 -0.3005
  179SAPS  H12A20416   1.143   4.309   2.512  0.0711  1.5764 -2.2986
  179SAPS   C1320417   1.056   4.236   2.333  0.5663 -0.5316 -0.4053
  179SAPS  O13A20418   1.129   4.173   2.249  0.0685 -0.1270 -0.0725
  179SAPS  O13B20419   0.999   4.341   2.292  0.1971 -0.6541  0.2151
  179SAPS   C1120420   0.948   4.209   2.557  0.2128  0.0458 -0.7176
  179SAPS  H11A20421   0.876   4.129   2.531 -2.5306  0.6739  3.8452
  179SAPS  H11B20422   0.892   4.303   2.537  0.3337 -0.1326 -1.9320
  179SAPS     P20423   0.870   4.245   2.808  0.0338  0.1556 -0.0504
  179SAPS   O1320424   0.823   4.377   2.767 -0.2535 -0.0012 -0.3937
  179SAPS   O1420425   0.769   4.144   2.837  0.2741 -0.6310  0.0372
  179SAPS   O1220426   0.970   4.196   2.699  1.0041  0.0047  0.4399
  179SAPS   O1120427   0.964   4.263   2.939  0.2636 -0.2922 -0.6635
  179SAPS    C120428   1.089   4.325   2.933  0.2672 -0.5113  0.3288
  179SAPS    HA20429   1.165   4.261   2.881 -0.4951 -2.2043  1.2373
  179SAPS    HB20430   1.079   4.430   2.897  0.4659  0.0754  1.9445
  179SAPS    C220431   1.155   4.350   3.073  0.0233  0.1357 -0.3153
  179SAPS    HS20432   1.246   4.410   3.050 -0.1303 -0.0941 -1.6086
  179SAPS   O2120433   1.183   4.230   3.145  0.0944 -0.1408 -0.2306
  179SAPS   C2120434   1.299   4.164   3.111  0.3391 -0.2488 -0.1984
  179SAPS   O2220435   1.374   4.219   3.034 -0.5447  0.3695  0.1059
  179SAPS   C2220436   1.314   4.019   3.156  0.3639  0.1548 -0.3057
  179SAPS   H2R20437   1.210   3.981   3.156  0.3202  0.2650  0.0676
  179SAPS   H2S20438   1.378   3.952   3.095  0.8112 -0.5289  0.8623
  179SAPS    C320439   1.058   4.443   3.160 -0.3782  0.0964  0.4972
  179SAPS    HX20440   0.956   4.409   3.132 -0.0396  0.5937 -1.4775
  179SAPS    HY20441   1.068   4.548   3.125  1.7896  0.1131  1.0383
  179SAPS   O3120442   1.095   4.447   3.300 -0.4661  0.3841 -0.8171
  179SAPS   C3120443   1.036   4.352   3.369 -0.0576 -1.1666 -0.4218
  179SAPS   O3220444   0.956   4.274   3.326 -0.3923  0.6331  0.4756
  179SAPS   C3220445   1.084   4.359   3.510  0.1759  0.3475 -0.5005
  179SAPS   H2X20446   1.158   4.440   3.530 -1.5746  1.4178  2.2570
  179SAPS   H2Y20447   1.148   4.270   3.530  0.0029 -0.0907 -1.8114
  179SAPS   C2320448   1.353   4.016   3.313  0.1524 -0.7194  0.3661
  179SAPS   H3R20449   1.364   3.910   3.341  0.0025 -0.2827  2.1521
  179SAPS   H3S20450   1.270   4.064   3.370 -1.7162 -2.0024 -1.1247
  179SAPS   C2420451   1.485   4.093   3.344 -0.2308 -0.3136  0.3740
  179SAPS   H4R20452   1.461   4.197   3.376 -1.9613 -0.7412  0.5986
  179SAPS   H4S20453   1.537   4.098   3.246  2.5301 -1.4821  1.6728
  179SAPS   C2520454   1.570   4.027   3.453  0.0929 -0.1551  0.2143
  179SAPS   H5R20455   1.632   3.945   3.415 -0.4385  0.7968 -2.9610
  179SAPS   C2620456   1.587   4.066   3.581  0.2609 -0.5971  0.1001
  179SAPS   H6R20457   1.650   3.995   3.636  1.6158 -0.0934 -0.7294
  179SAPS   C2720458   1.517   4.188   3.646  0.4210  0.6167 -0.2273
  179SAPS   H7R20459   1.510   4.271   3.572 -0.1136  1.2568  0.5235
  179SAPS   H7S20460   1.566   4.228   3.738 -0.6678  1.0434  0.1894
  179SAPS   C2820461   1.381   4.137   3.693 -0.4562 -0.5649  0.2047
  179SAPS   H8R20462   1.321   4.078   3.623 -1.7549  1.6074 -0.5926
  179SAPS   C2920463   1.325   4.152   3.814 -0.8569  0.4851  0.1568
  179SAPS   H9R20464   1.221   4.118   3.825 -0.0462 -1.8414  1.4283
  179SAPS  C21020465   1.365   4.218   3.944 -0.2907  1.2956  0.5612
  179SAPS  H10R20466   1.275   4.227   4.008 -1.5077 -3.4633 -0.1020
  179SAPS  H10S20467   1.409   4.316   3.916  2.0117 -0.4491 -2.7408
  179SAPS  C21120468   1.466   4.139   4.024 -0.0515 -0.5150  1.2316
  179SAPS  H11R20469   1.533   4.092   3.950 -2.3874 -2.4539  0.2377
  179SAPS  C21220470   1.492   4.143   4.155 -0.1579 -0.0042  0.3916
  179SAPS  H12R20471   1.575   4.080   4.189  1.4037  0.6139 -2.0577
  179SAPS  C21320472   1.403   4.222   4.252 -0.7676  0.1040  0.2337
  179SAPS  H13R20473   1.401   4.170   4.350 -1.0158 -1.2812 -0.4806
  179SAPS  H13S20474   1.297   4.224   4.218 -0.7060  3.0668 -0.0276
  179SAPS  C21420475   1.434   4.368   4.273  0.5225 -0.2982  0.0432
  179SAPS  H14R20476   1.510   4.411   4.207  1.3382 -0.6885  0.7182
  179SAPS  C21520477   1.371   4.448   4.365 -0.2422  0.2115 -0.4222
  179SAPS  H15R20478   1.406   4.551   4.387 -1.3280  0.5203 -0.0999
  179SAPS  C21620479   1.253   4.412   4.454  0.6392 -0.0293 -0.1352
  179SAPS  H16R20480   1.211   4.317   4.413 -0.5688  1.8763 -3.8400
  179SAPS  H16S20481   1.172   4.485   4.432  0.7031 -0.1234 -0.7111
  179SAPS  C21720482   1.300   4.413   4.606  0.0042 -0.1245  0.8206
  179SAPS  H17R20483   1.379   4.335   4.616 -0.7955 -0.9927  0.5217
  179SAPS  H17S20484   1.208   4.375   4.656 -2.0830  1.9893 -1.1642
  179SAPS  C21820485   1.331   4.553   4.651  0.2150 -0.4114  0.5548
  179SAPS  H18R20486   1.241   4.618   4.649  0.0899 -0.5863 -0.9315
  179SAPS  H18S20487   1.402   4.603   4.581  1.7973 -0.7049  1.8887
  179SAPS  C21920488   1.400   4.564   4.785 -0.7512 -0.2138  0.2548
  179SAPS  H19R20489   1.387   4.669   4.819 -2.1299  0.1517 -1.2423
  179SAPS  H19S20490   1.509   4.545   4.774 -0.3272  2.0140  0.1363
  179SAPS  C22020491   1.339   4.474   4.895 -0.1237 -0.1946 -0.3206
  179SAPS  H20R20492   1.229   4.476   4.908  0.1996 -0.3999  3.3554
  179SAPS  H20S20493   1.382   4.514   4.989 -1.2436 -0.8532  0.4853
  179SAPS  H20T20494   1.375   4.371   4.876 -0.8828 -0.1160 -2.4895
  179SAPS   C3320495   0.979   4.371   3.624 -0.1374  0.5270  0.1902
  179SAPS   H3X20496   0.903   4.298   3.589 -1.3955  2.2889 -0.8703
  179SAPS   H3Y20497   0.928   4.468   3.642 -0.3556  0.4374  0.0604
  179SAPS   C3420498   1.028   4.328   3.759 -0.4838 -0.0815 -0.7309
  179SAPS   H4X20499   1.118   4.389   3.779 -1.2535  0.1436  2.4589
  179SAPS   H4Y20500   1.071   4.226   3.767  1.1911  0.7582  1.8424
  179SAPS   C3520501   0.924   4.345   3.873 -0.5602  0.2985  0.0372
  179SAPS   H5X20502   0.835   4.281   3.852 -0.3553  0.2795 -0.7985
  179SAPS   H5Y20503   0.892   4.451   3.867  2.1547  1.2463  1.0491
  179SAPS   C3620504   0.991   4.304   4.002  0.2693  0.9022 -0.6216
  179SAPS   H6X20505   1.086   4.353   4.032  1.5804 -2.6204  1.5330
  179SAPS   H6Y20506   1.007   4.195   4.000  1.3775  1.0440 -0.2278
  179SAPS   C3720507   0.891   4.320   4.123  0.3783 -0.2932 -0.3046
  179SAPS   H7X20508   0.788   4.301   4.088  0.4498  2.2143 -2.1416
  179SAPS   H7Y20509   0.903   4.421   4.166  2.8516  0.2187 -1.9843
  179SAPS   C3820510   0.914   4.219   4.236  0.6926  0.1513  0.4503
  179SAPS   H8X20511   1.014   4.234   4.282  1.1110 -0.3556 -0.2692
  179SAPS   H8Y20512   0.920   4.117   4.193 -0.1542  0.7032 -1.0811
  179SAPS   C3920513   0.818   4.222   4.349 -0.8646 -0.6553 -0.2558
  179SAPS   H9X20514   0.817   4.132   4.414  0.9228 -0.0360  0.6713
  179SAPS   H9Y20515   0.721   4.227   4.294  0.5124  1.3121 -2.6959
  179SAPS  C31020516   0.809   4.362   4.432  0.3543  0.0482  0.2298
  179SAPS  H10X20517   0.704   4.364   4.467  0.6914 -1.9060  1.4675
  179SAPS  H10Y20518   0.825   4.440   4.354 -1.3825 -0.3214 -0.5228
  179SAPS  C31120519   0.895   4.357   4.551 -0.3090  0.6052 -0.0648
  179SAPS  H11X20520   1.003   4.356   4.528 -0.2168 -1.3153  0.2615
  179SAPS  H11Y20521   0.876   4.259   4.600 -1.6515  2.1262  2.6559
  179SAPS  C31220522   0.858   4.467   4.653  0.0306 -0.2879 -0.5054
  179SAPS  H12X20523   0.754   4.447   4.688  0.0755 -0.3262 -0.3935
  179SAPS  H12Y20524   0.847   4.570   4.613  0.6257  0.7912  1.9572
  179SAPS  C31320525   0.947   4.464   4.778 -0.4862 -0.4870  0.6287
  179SAPS  H13X20526   1.044   4.498   4.737 -1.0140  1.4119  0.8474
  179SAPS  H13Y20527   0.960   4.358   4.807 -2.3931 -0.8860  0.1556
  179SAPS  C31420528   0.912   4.564   4.897 -0.3174 -0.3340  0.0132
  179SAPS  H14X20529   1.004   4.565   4.959 -1.2317  1.6171  1.4438
  179SAPS  H14Y20530   0.833   4.524   4.964 -2.8261  0.7882 -2.0853
  179SAPS  C31520531   0.885   4.709   4.861 -0.0086  0.2889 -0.0794
  179SAPS  H15X20532   0.789   4.716   4.806 -0.0807  3.6900  0.2646
  179SAPS  H15Y20533   0.967   4.747   4.796  0.1175 -0.0110 -0.0927
  179SAPS  C31620534   0.874   4.793   4.990  0.7640 -0.5355 -0.1753
  179SAPS  H16X20535   0.970   4.806   5.044  0.1437  0.8877  0.6367
  179SAPS  H16Y20536   0.812   4.729   5.057  0.4622 -1.5284 -1.3594
  179SAPS  C31720537   0.805   4.927   4.957  0.4376 -0.2598 -0.1877
  179SAPS  H17X20538   0.751   4.958   5.049  0.4497  2.2765 -0.9581
  179SAPS  H17Y20539   0.743   4.904   4.868  0.2853 -3.1558  0.5621
  179SAPS  C31820540   0.915   5.030   4.934  0.2533 -0.2253  0.1854
  179SAPS  H18X20541   0.872   5.132   4.947  1.2676  0.0757  1.3807
  179SAPS  H18Y20542   0.966   5.013   4.837 -0.0453 -0.4821  0.0709
  179SAPS  H18Z20543   0.995   5.024   5.011  1.2513 -1.6261 -0.9133
  180SAPS     N20544   5.729   1.801   3.045  0.1437  0.2803 -0.1550
  180SAPS   HN120545   5.821   1.835   3.078 -0.6416  1.6744  0.6983
  180SAPS   HN220546   5.668   1.783   3.127  0.9989 -0.3878  0.3489
  180SAPS   HN320547   5.743   1.708   3.001  0.0222 -0.5131  1.4172
  180SAPS   C1220548   5.668   1.892   2.941  0.5392  0.1828 -0.6609
  180SAPS  H12A20549   5.746   1.937   2.882  0.2797  0.7821 -0.5538
  180SAPS   C1320550   5.563   1.814   2.851  0.3188 -0.3218 -0.1850
  180SAPS  O13A20551   5.530   1.698   2.876 -0.2048  0.3788  0.0520
  180SAPS  O13B20552   5.498   1.877   2.763  0.7746  0.1722 -0.0756
  180SAPS   C1120553   5.582   1.995   3.022 -0.0008  0.9148  0.5701
  180SAPS  H11A20554   5.499   1.949   3.080 -4.5140  1.5850 -4.5602
  180SAPS  H11B20555   5.531   2.062   2.949 -1.9750 -1.7493 -0.6448
  180SAPS     P20556   5.696   2.219   3.093 -0.3047 -0.3467  0.0557
  180SAPS   O1320557   5.756   2.235   2.957 -1.0052 -0.0981  0.5330
  180SAPS   O1420558   5.575   2.292   3.127  0.3459 -0.4722  0.3322
  180SAPS   O1220559   5.670   2.067   3.105  0.3920 -0.1195 -0.1795
  180SAPS   O1120560   5.806   2.237   3.206  0.2722  0.2607  0.3214
  180SAPS    C120561   5.867   2.126   3.275  0.0241 -0.8469 -0.9361
  180SAPS    HA20562   5.894   2.039   3.212  1.3134 -1.2592  0.1353
  180SAPS    HB20563   5.951   2.173   3.330 -1.6839 -1.2659  2.3364
  180SAPS    C220564   5.778   2.075   3.393  0.4848 -0.3966  0.4422
  180SAPS    HS20565   5.676   2.057   3.355 -0.0668  2.3803  0.4743
  180SAPS   O2120566   5.780   2.176   3.495  0.1364 -0.6343  0.3615
  180SAPS   C2120567   5.679   2.168   3.580 -0.4887 -0.7493 -0.8066
  180SAPS   O2220568   5.585   2.091   3.570 -0.7262  0.2686 -0.0402
  180SAPS   C2220569   5.697   2.278   3.689 -0.8690  0.3357 -0.3153
  180SAPS   H2R20570   5.679   2.377   3.643 -3.0512  1.7189  3.0930
  180SAPS   H2S20571   5.613   2.272   3.762 -1.2558 -2.2086 -0.8569
  180SAPS    C320572   5.831   1.940   3.456 -0.1095 -0.2170  0.0603
  180SAPS    HX20573   5.816   1.863   3.377 -2.5033  0.5704 -0.3260
  180SAPS    HY20574   5.762   1.900   3.534 -1.5512 -0.6121 -1.3598
  180SAPS   O3120575   5.970   1.939   3.500  0.2303 -0.5290 -0.3756
  180SAPS   C3120576   5.999   1.955   3.630 -0.1679 -0.1954  1.0582
  180SAPS   O3220577   5.920   1.964   3.716  0.3253 -1.0103 -0.2721
  180SAPS   C3220578   6.152   1.944   3.644  0.3966  0.0836 -0.1262
  180SAPS   H2X20579   6.196   2.030   3.589  1.0162 -1.0293 -1.4475
  180SAPS   H2Y20580   6.185   1.849   3.598 -1.1760 -1.0664  1.0131
  180SAPS   C2320581   5.836   2.282   3.766  0.2097 -0.1716  0.0978
  180SAPS   H3R20582   5.920   2.298   3.695 -2.1212 -0.8754 -3.0092
  180SAPS   H3S20583   5.846   2.190   3.828 -2.9524  0.3063  1.5059
  180SAPS   C2420584   5.846   2.397   3.868 -0.2463  0.6876 -0.6167
  180SAPS   H4R20585   5.770   2.382   3.948  0.7862  0.7351  0.3921
  180SAPS   H4S20586   5.836   2.495   3.815 -2.0220  1.0401  0.2659
  180SAPS   C2520587   5.979   2.385   3.934 -0.0995 -0.0959 -0.0731
  180SAPS   H5R20588   6.067   2.355   3.876  0.3023  0.8469  0.0377
  180SAPS   C2620589   6.001   2.413   4.066 -0.0090  0.1834 -0.2093
  180SAPS   H6R20590   6.102   2.402   4.109  0.4632 -0.8150 -1.5221
  180SAPS   C2720591   5.895   2.459   4.157 -0.4095 -0.1588 -0.1858
  180SAPS   H7R20592   5.839   2.366   4.178 -1.1186  0.3191  0.0472
  180SAPS   H7S20593   5.823   2.517   4.095 -0.4930 -0.8708 -0.7707
  180SAPS   C2820594   5.927   2.537   4.283 -0.7096 -0.4223  0.6674
  180SAPS   H8R20595   5.952   2.644   4.276  1.1302 -0.7287  1.9673
  180SAPS   C2920596   5.929   2.484   4.408 -0.5037  0.2119  0.2880
  180SAPS   H9R20597   5.948   2.555   4.490  1.1070 -0.7112  0.7635
  180SAPS  C21020598   5.913   2.347   4.457  0.1597 -0.7284  0.3483
  180SAPS  H10R20599   5.921   2.272   4.375  1.4787  0.2351 -0.4355
  180SAPS  H10S20600   5.807   2.341   4.490  0.8355 -0.0769  2.9398
  180SAPS  C21120601   6.003   2.314   4.579 -0.2751  0.9416  0.8109
  180SAPS  H11R20602   6.091   2.253   4.555  0.0707  1.5384  0.5392
  180SAPS  C21220603   5.988   2.353   4.704 -0.5055  0.1417  0.6869
  180SAPS  H12R20604   6.053   2.321   4.786  1.8112 -2.0350 -1.8073
  180SAPS  C21320605   5.879   2.446   4.754  0.1449  0.1384 -0.5794
  180SAPS  H13R20606   5.817   2.380   4.818 -0.8186  1.4371 -0.1336
  180SAPS  H13S20607   5.814   2.476   4.669 -1.8494  0.4119  0.9892
  180SAPS  C21420608   5.937   2.568   4.821 -0.3394 -0.2370 -0.3348
  180SAPS  H14R20609   6.007   2.622   4.756  1.2335 -2.5223 -0.6571
  180SAPS  C21520610   5.912   2.609   4.949  0.4993  1.0747 -0.0880
  180SAPS  H15R20611   5.960   2.702   4.982 -1.6114  1.4211  2.3462
  180SAPS  C21620612   5.824   2.540   5.054  0.5058 -0.2239 -0.0751
  180SAPS  H16R20613   5.731   2.496   5.012  0.2532 -2.4363  2.4594
  180SAPS  H16S20614   5.792   2.610   5.134  3.5559  2.3944 -0.9358
  180SAPS  C21720615   5.903   2.430   5.126  0.4304 -0.4051 -0.5381
  180SAPS  H17R20616   6.003   2.461   5.161 -0.9468  1.7715  1.7334
  180SAPS  H17S20617   5.922   2.351   5.049  0.1494 -1.7106  0.6818
  180SAPS  C21820618   5.839   2.379   5.253  0.6868  0.5661 -0.0706
  180SAPS  H18R20619   5.736   2.362   5.215  1.7256  2.6739 -4.5276
  180SAPS  H18S20620   5.824   2.459   5.328 -0.8442  2.0866 -1.8944
  180SAPS  C21920621   5.917   2.268   5.327  0.4744 -0.1505  0.8205
  180SAPS  H19R20622   5.944   2.182   5.261 -0.9106 -0.9391  1.2529
  180SAPS  H19S20623   5.838   2.235   5.397 -0.4522  0.7978  0.2653
  180SAPS  C22020624   6.046   2.306   5.406 -0.1483  0.3174 -0.1665
  180SAPS  H20R20625   6.132   2.327   5.340 -0.4732 -0.6191 -0.9089
  180SAPS  H20S20626   6.028   2.395   5.471 -2.8213  1.4003 -2.2159
  180SAPS  H20T20627   6.082   2.223   5.472 -0.3900 -0.0648 -0.5165
  180SAPS   C3320628   6.185   1.935   3.793 -0.6255 -0.8968  0.0154
  180SAPS   H3X20629   6.294   1.910   3.799 -0.1860  0.8130 -0.4653
  180SAPS   H3Y20630   6.122   1.862   3.848 -1.2307 -0.8267 -0.5736
  180SAPS   C3420631   6.178   2.068   3.868  0.0694 -0.9899  0.7069
  180SAPS   H4X20632   6.074   2.107   3.875  0.3990  0.2334 -0.8091
  180SAPS   H4Y20633   6.239   2.139   3.809 -1.0662  0.1412  0.8478
  180SAPS   C3520634   6.243   2.064   4.008 -0.3234  0.1472  0.3023
  180SAPS   H5X20635   6.253   2.168   4.046 -0.1173  0.6304 -1.0175
  180SAPS   H5Y20636   6.349   2.031   3.993 -0.5444  0.2407 -1.6681
  180SAPS   C3620637   6.155   1.991   4.109 -0.0063  0.0407  0.2176
  180SAPS   H6X20638   6.164   1.883   4.082 -1.2718  0.0513 -0.2952
  180SAPS   H6Y20639   6.051   2.025   4.093 -0.3266 -0.2753  1.5698
  180SAPS   C3720640   6.189   2.033   4.261 -0.1690 -0.3301  0.2982
  180SAPS   H7X20641   6.121   1.961   4.311 -0.1850 -1.2845 -1.0328
  180SAPS   H7Y20642   6.166   2.136   4.294 -0.0108 -0.5244  1.0349
  180SAPS   C3820643   6.332   1.994   4.296 -0.4043  0.3920  0.1090
  180SAPS   H8X20644   6.415   2.027   4.230  0.0606 -0.0554  0.4625
  180SAPS   H8Y20645   6.342   1.884   4.300  1.2217  0.4991 -0.2345
  180SAPS   C3920646   6.367   2.053   4.434 -0.0936 -0.6034  0.3752
  180SAPS   H9X20647   6.353   2.163   4.436  0.9316 -0.4373  2.8483
  180SAPS   H9Y20648   6.476   2.035   4.447  0.3689  1.5342 -0.1005
  180SAPS  C31020649   6.302   2.005   4.564  0.9060  0.2329  0.0955
  180SAPS  H10X20650   6.332   1.900   4.584  0.0920 -0.1592 -0.6675
  180SAPS  H10Y20651   6.191   2.009   4.556  0.9170  0.3895  0.0092
  180SAPS  C31120652   6.346   2.093   4.685 -0.6871 -0.6446 -0.3616
  180SAPS  H11X20653   6.351   2.201   4.660  3.1922 -0.9234 -1.4570
  180SAPS  H11Y20654   6.454   2.073   4.704 -0.8602 -0.7112  0.5755
  180SAPS  C31220655   6.266   2.056   4.816 -0.6263 -0.4464  0.5949
  180SAPS  H12X20656   6.273   1.946   4.832  1.8232 -0.3870  0.3935
  180SAPS  H12Y20657   6.160   2.090   4.819 -0.6312 -0.4083 -0.0065
  180SAPS  C31320658   6.332   2.106   4.952  0.2105  0.4528  0.8979
  180SAPS  H13X20659   6.442   2.088   4.947  0.6184  2.6044  1.1487
  180SAPS  H13Y20660   6.289   2.045   5.034  0.2270 -1.8710 -0.7161
  180SAPS  C31420661   6.309   2.250   4.985 -0.1837 -1.0201 -0.1149
  180SAPS  H14X20662   6.199   2.261   4.993 -0.3395  0.3649 -2.8925
  180SAPS  H14Y20663   6.348   2.313   4.902 -0.2486 -1.2036 -0.2838
  180SAPS  C31520664   6.378   2.289   5.118  0.3626  0.2317 -0.5460
  180SAPS  H15X20665   6.340   2.227   5.202  0.6772 -0.4584 -0.9060
  180SAPS  H15Y20666   6.363   2.399   5.130  2.1562  0.7391 -2.3514
  180SAPS  C31620667   6.534   2.269   5.110 -0.4810  0.0416 -0.1758
  180SAPS  H16X20668   6.566   2.292   5.007 -3.9226  1.5073 -1.0359
  180SAPS  H16Y20669   6.557   2.167   5.150 -0.7144 -0.0156 -0.1859
  180SAPS  C31720670   6.604   2.374   5.197 -0.1318 -0.3882 -0.3424
  180SAPS  H17X20671   6.567   2.373   5.302  0.8733  0.6974  0.0378
  180SAPS  H17Y20672   6.572   2.474   5.162  0.7106 -0.0560 -0.2022
  180SAPS  C31820673   6.756   2.365   5.183 -0.9434  0.4121  0.0867
  180SAPS  H18X20674   6.781   2.257   5.188 -1.3258  0.3828  2.0060
  180SAPS  H18Y20675   6.803   2.416   5.270 -0.3726  0.8634 -0.4804
  180SAPS  H18Z20676   6.796   2.405   5.087  2.3938 -1.4047  0.5802
  181POPC     N20677   4.235   2.991   7.897  0.0393  0.5351  0.1554
  181POPC   C1220678   4.245   3.012   7.749  0.4791 -0.2372  0.7721
  181POPC  H12A20679   4.187   3.100   7.730 -1.0696 -0.6408  3.1505
  181POPC  H12B20680   4.193   2.933   7.697 -0.9073 -0.7814  2.8634
  181POPC   C1320681   4.090   2.964   7.934 -0.3761  0.3008  0.2329
  181POPC  H13A20682   4.070   2.865   7.897  1.0748 -0.9237  2.4696
  181POPC  H13B20683   4.069   2.957   8.040 -0.4272  1.2752  0.2988
  181POPC  H13C20684   4.034   3.045   7.890  0.9384  0.8040 -0.5700
  181POPC   C1420685   4.326   2.874   7.934 -0.0581 -0.2094 -0.0844
  181POPC  H14A20686   4.332   2.885   8.041 -1.5889  1.2193 -0.1002
  181POPC  H14B20687   4.289   2.777   7.904 -1.4999 -0.2584  1.6608
  181POPC  H14C20688   4.426   2.885   7.895  0.2044 -0.6242  0.4654
  181POPC   C1520689   4.277   3.109   7.975 -0.2897 -0.2378  0.0487
  181POPC  H15A20690   4.376   3.142   7.948 -0.8928  0.6579 -1.1561
  181POPC  H15B20691   4.281   3.086   8.080  1.1711  0.1818  0.1000
  181POPC  H15C20692   4.209   3.193   7.970  0.9108  1.0894  3.1345
  181POPC   C1120693   4.388   3.042   7.689  0.6032  0.0054  0.6373
  181POPC  H11A20694   4.378   3.009   7.583 -0.8852 -0.8181  1.0082
  181POPC  H11B20695   4.455   2.966   7.734 -0.1538  0.1165  2.0056
  181POPC     P20696   4.345   3.288   7.636 -0.3539  0.2305  0.1094
  181POPC   O1320697   4.409   3.410   7.668 -0.0027 -0.0714 -0.1584
  181POPC   O1420698   4.201   3.277   7.669 -0.2817  0.5360  0.3030
  181POPC   O1220699   4.433   3.178   7.706 -0.0648  0.5427  0.2310
  181POPC   O1120700   4.366   3.255   7.480  0.2422 -0.1963 -0.8225
  181POPC    C120701   4.481   3.223   7.407  0.4790 -0.3544 -0.5399
  181POPC    HA20702   4.487   3.113   7.396  0.6468 -0.3947 -0.0551
  181POPC    HB20703   4.571   3.266   7.455 -1.2665  1.2347  1.5065
  181POPC    C220704   4.479   3.285   7.271  0.1994 -0.3190 -0.4471
  181POPC    HS20705   4.440   3.386   7.292 -0.1515 -0.4043 -0.6893
  181POPC   O2120706   4.391   3.200   7.194 -0.6111 -0.2653  0.2618
  181POPC   C2120707   4.323   3.265   7.103  0.7031  0.9164 -0.6348
  181POPC   O2220708   4.306   3.390   7.104 -0.8657  0.4385  0.0745
  181POPC   C2220709   4.257   3.167   7.006 -0.0727  0.6087 -0.4893
  181POPC   H2R20710   4.153   3.140   7.035  0.6902 -2.2434 -0.0464
  181POPC   H2S20711   4.307   3.068   7.007  1.3179  1.2775 -1.0873
  181POPC    C320712   4.611   3.298   7.194 -0.3628  0.4047  0.3491
  181POPC    HX20713   4.645   3.196   7.170 -1.6307  0.8016 -3.8869
  181POPC    HY20714   4.685   3.338   7.267  0.8004 -2.5166  0.8905
  181POPC   O3120715   4.605   3.380   7.072 -0.5645 -0.3441  0.0294
  181POPC   C3120716   4.717   3.391   7.011  0.0512  0.1264 -0.8202
  181POPC   O3220717   4.829   3.365   7.054 -0.4549 -0.0700 -0.0508
  181POPC   C3220718   4.683   3.454   6.875 -0.6229  0.6818  0.0067
  181POPC   H2X20719   4.652   3.559   6.896 -1.3454 -0.0139  2.7209
  181POPC   H2Y20720   4.597   3.411   6.820 -0.8095  0.0137  0.8036
  181POPC   C2320721   4.265   3.217   6.856 -0.0758  0.4798 -0.0638
  181POPC   H3R20722   4.236   3.132   6.791  2.7110 -3.1336  2.9354
  181POPC   H3S20723   4.372   3.238   6.832  0.3444 -1.8186 -0.4496
  181POPC   C2420724   4.174   3.334   6.829  0.0129  0.1950  0.4880
  181POPC   H4R20725   4.222   3.427   6.866  0.2420 -0.2614  1.3697
  181POPC   H4S20726   4.088   3.321   6.898  0.3510  0.7153  1.0158
  181POPC   C2520727   4.113   3.340   6.693  0.4759  0.3939  0.5282
  181POPC   H5R20728   4.046   3.428   6.684 -1.2526 -0.9008  0.4090
  181POPC   H5S20729   4.050   3.250   6.680 -0.6090  0.4625  4.2262
  181POPC   C2620730   4.215   3.362   6.580 -0.7223 -0.8297  0.5275
  181POPC   H6R20731   4.299   3.291   6.574  0.0014 -0.0319  0.9653
  181POPC   H6S20732   4.273   3.454   6.601 -1.1923 -0.6522  1.1022
  181POPC   C2720733   4.143   3.363   6.447 -0.2252  0.4220  0.7632
  181POPC   H7R20734   4.046   3.418   6.449 -0.7315 -0.3892 -0.5096
  181POPC   H7S20735   4.113   3.260   6.419 -0.2668  1.0899 -1.9709
  181POPC   C2820736   4.208   3.427   6.329 -0.4737  0.3715 -0.1459
  181POPC   H8R20737   4.236   3.529   6.362 -1.5244  0.3837  0.7839
  181POPC   H8S20738   4.129   3.425   6.250  0.9526 -1.6982 -1.6386
  181POPC   C2920739   4.341   3.369   6.294  0.7703 -0.3556  0.2586
  181POPC   H9120740   4.414   3.361   6.375 -0.0444 -1.9165  0.8708
  181POPC  C21020741   4.385   3.346   6.166  0.7674  0.5300 -1.1054
  181POPC  H10120742   4.490   3.318   6.153  0.1557 -2.7755  0.1545
  181POPC  C21120743   4.311   3.367   6.039 -0.3856  0.3880  0.7419
  181POPC  H11R20744   4.205   3.333   6.046 -0.9077  1.1497 -2.1863
  181POPC  H11S20745   4.359   3.298   5.967  0.2022 -0.6303  2.0660
  181POPC  C21220746   4.304   3.512   6.001 -0.2686 -0.3069 -0.1744
  181POPC  H12R20747   4.399   3.569   6.009 -0.9898  0.7658  1.0966
  181POPC  H12S20748   4.231   3.572   6.059  0.9551  1.6836 -0.6124
  181POPC  C21320749   4.272   3.549   5.860  0.1476 -0.1456 -0.5962
  181POPC  H13R20750   4.357   3.513   5.799 -0.2321 -4.3352  0.9896
  181POPC  H13S20751   4.265   3.660   5.862  0.5031 -0.1266  0.8380
  181POPC  C21420752   4.135   3.486   5.822 -0.3115  0.1437  1.1386
  181POPC  H14R20753   4.078   3.523   5.910 -0.3455  1.6599  0.5123
  181POPC  H14S20754   4.137   3.375   5.826 -1.4560 -0.1744 -2.6021
  181POPC  C21520755   4.073   3.544   5.687 -0.8395  0.5223 -0.4161
  181POPC  H15R20756   4.147   3.527   5.606  1.1964 -0.4863  1.5308
  181POPC  H15S20757   4.071   3.655   5.695 -2.9959  0.4828  0.3014
  181POPC  C21620758   3.947   3.470   5.653 -0.2591 -0.2445 -0.1605
  181POPC  H16R20759   3.868   3.478   5.731  2.5207 -0.1077  2.8956
  181POPC  H16S20760   3.965   3.360   5.656  1.9418  0.0215 -1.0993
  181POPC  C21720761   3.902   3.487   5.509  0.4525 -0.3538  0.0838
  181POPC  H17R20762   3.983   3.469   5.434 -1.3084  0.1974 -2.0523
  181POPC  H17S20763   3.872   3.593   5.499 -0.3747 -0.7561 -2.7864
  181POPC  C21820764   3.775   3.413   5.459  1.0634  0.5288 -0.2164
  181POPC  H18R20765   3.798   3.305   5.452  0.2698  0.3362  0.0017
  181POPC  H18S20766   3.728   3.445   5.364 -0.9080 -0.2537  0.4344
  181POPC  H18T20767   3.695   3.437   5.532  0.2594 -2.0530 -0.1667
  181POPC   C3320768   4.810   3.457   6.793  0.3034  0.6332 -0.5736
  181POPC   H3X20769   4.838   3.354   6.762 -0.3095 -0.2232  1.5608
  181POPC   H3Y20770   4.897   3.503   6.845  1.4827 -1.7322 -0.3173
  181POPC   C3420771   4.797   3.545   6.669 -0.0467  0.3064  0.0194
  181POPC   H4X20772   4.798   3.648   6.709 -0.2391  0.3952 -0.2037
  181POPC   H4Y20773   4.711   3.527   6.601 -0.1775 -0.9767  0.5021
  181POPC   C3520774   4.918   3.548   6.575  0.6496  0.1059  0.0021
  181POPC   H5X20775   5.002   3.601   6.627  0.6008 -0.7336  0.9672
  181POPC   H5Y20776   4.893   3.618   6.493 -1.7129  1.5334  1.7976
  181POPC   C3620777   4.975   3.412   6.528  0.3888  0.3519  0.2292
  181POPC   H6X20778   4.897   3.346   6.484  1.2358 -1.3076  1.1140
  181POPC   H6Y20779   5.012   3.362   6.620 -1.4914  0.4972  1.1229
  181POPC   C3720780   5.098   3.415   6.436 -0.4345 -0.9049  0.4456
  181POPC   H7X20781   5.125   3.313   6.401 -0.7719 -0.6256 -0.6801
  181POPC   H7Y20782   5.189   3.440   6.495 -2.1561  4.6084  1.2952
  181POPC   C3820783   5.095   3.507   6.313  0.5882  0.5960 -0.8412
  181POPC   H8X20784   5.190   3.497   6.257  0.7476 -2.0645 -0.2546
  181POPC   H8Y20785   5.076   3.612   6.342 -0.0479  0.5635 -1.1309
  181POPC   C3920786   4.964   3.477   6.226 -0.1243  0.1637 -0.1109
  181POPC   H9X20787   4.867   3.497   6.277  0.3373 -0.3491  1.0152
  181POPC   H9Y20788   4.960   3.369   6.200  0.4392 -0.2477  1.4078
  181POPC  C31020789   4.963   3.572   6.103 -0.3238  1.1493 -0.0023
  181POPC  H10X20790   5.055   3.558   6.043  0.5193  0.2615  1.4652
  181POPC  H10Y20791   4.967   3.666   6.162  0.0981  2.3143 -1.7977
  181POPC  C31120792   4.837   3.557   6.020  0.7083 -0.9947  0.2118
  181POPC  H11X20793   4.807   3.655   5.977  1.5278 -1.2915 -1.0573
  181POPC  H11Y20794   4.755   3.510   6.080 -2.2611 -0.2331 -2.9162
  181POPC  C31220795   4.855   3.461   5.900 -0.3695  0.2463  0.4539
  181POPC  H12X20796   4.901   3.374   5.953  2.4703  1.5229  0.2458
  181POPC  H12Y20797   4.934   3.499   5.832  1.0229 -1.2225  1.1901
  181POPC  C31320798   4.729   3.408   5.827 -0.4633  0.0850 -0.2484
  181POPC  H13X20799   4.695   3.487   5.757 -1.5412  1.2802  1.5356
  181POPC  H13Y20800   4.654   3.381   5.905  1.4164 -0.0407  1.5914
  181POPC  C31420801   4.735   3.272   5.765  0.2540  0.2677  0.1781
  181POPC  H14X20802   4.630   3.237   5.757 -0.1946  1.7614 -0.9051
  181POPC  H14Y20803   4.793   3.199   5.825 -0.2398  0.3532  0.7723
  181POPC  C31520804   4.789   3.267   5.625  0.3104 -0.2043 -0.2881
  181POPC  H15X20805   4.896   3.295   5.627  0.6122 -0.9573 -2.5104
  181POPC  H15Y20806   4.734   3.347   5.571 -1.2241 -0.3575  0.9755
  181POPC  C31620807   4.777   3.126   5.564 -0.0953  0.2988 -0.2802
  181POPC  H16X20808   4.836   3.052   5.622 -2.1498 -0.2381  1.2260
  181POPC  H16Y20809   4.812   3.128   5.458  1.7437 -0.6010  0.2676
  181POPC  H16Z20810   4.670   3.098   5.555  0.2012 -1.2438  0.7108
  182POPC     N20811   2.146   2.498   7.831  0.2319 -0.3511  0.3678
  182POPC   C1220812   2.146   2.456   7.682  0.7433  0.1620  0.0295
  182POPC  H12A20813   2.051   2.413   7.652  0.1597  2.3007 -1.4466
  182POPC  H12B20814   2.224   2.387   7.656  3.5717  3.0960  0.1800
  182POPC   C1320815   2.142   2.378   7.927 -0.2965 -0.1569 -0.4219
  182POPC  H13A20816   2.127   2.417   8.026  0.0780 -2.3057  0.5217
  182POPC  H13B20817   2.060   2.308   7.919  0.8107 -1.3908 -1.3000
  182POPC  H13C20818   2.229   2.315   7.927 -1.1756 -1.4165  0.1906
  182POPC   C1420819   2.278   2.569   7.861  0.1005  0.1190  0.0713
  182POPC  H14A20820   2.313   2.616   7.770 -0.3692 -3.2056 -1.9929
  182POPC  H14B20821   2.269   2.643   7.940 -0.1983  0.5399 -0.3500
  182POPC  H14C20822   2.351   2.493   7.883 -1.2395 -1.2009  0.0845
  182POPC   C1520823   2.036   2.590   7.865 -0.1474 -0.4000 -0.6886
  182POPC  H15A20824   2.028   2.670   7.793 -0.3127 -0.7146 -1.0227
  182POPC  H15B20825   2.047   2.632   7.964 -2.4161 -0.0976 -0.5053
  182POPC  H15C20826   1.943   2.535   7.871  0.3220 -1.1051  0.7318
  182POPC   C1120827   2.163   2.573   7.577 -0.2414 -0.0936 -0.0403
  182POPC  H11A20828   2.088   2.648   7.609 -1.0886 -1.1209  0.4528
  182POPC  H11B20829   2.126   2.534   7.479  0.4644  2.7759 -1.5527
  182POPC     P20830   2.399   2.574   7.487 -0.1545 -0.2212  0.0239
  182POPC   O1320831   2.462   2.447   7.531  0.0005  0.4987 -0.4440
  182POPC   O1420832   2.498   2.682   7.472  0.4029 -0.0891  0.5860
  182POPC   O1220833   2.288   2.628   7.573  0.4265 -0.1016  0.5376
  182POPC   O1120834   2.335   2.554   7.348 -0.1099  0.1251  0.2903
  182POPC    C120835   2.291   2.659   7.262 -0.1846  0.4354 -0.2006
  182POPC    HA20836   2.289   2.753   7.320 -1.8361 -0.5233  1.4002
  182POPC    HB20837   2.191   2.629   7.225 -0.9485  1.0950  1.2729
  182POPC    C220838   2.383   2.665   7.144 -0.1579 -0.2140  0.0466
  182POPC    HS20839   2.368   2.769   7.107  1.0945 -0.6801 -1.9064
  182POPC   O2120840   2.344   2.567   7.046 -0.0894  0.5260  0.2080
  182POPC   C2120841   2.370   2.602   6.922 -0.4062  0.0932 -0.5237
  182POPC   O2220842   2.366   2.722   6.891  0.5174  0.5340 -0.2539
  182POPC   C2220843   2.403   2.473   6.838 -0.0104  0.0352 -0.5572
  182POPC   H2R20844   2.320   2.400   6.835 -1.1550  1.3216 -1.4085
  182POPC   H2S20845   2.498   2.430   6.878 -0.9667 -2.0740 -0.4261
  182POPC    C320846   2.537   2.668   7.164  0.5454  0.2505  0.1133
  182POPC    HX20847   2.566   2.571   7.209 -0.3537 -0.3997 -0.6616
  182POPC    HY20848   2.560   2.742   7.243  0.8234 -1.5398  1.7891
  182POPC   O3120849   2.606   2.683   7.036 -0.1738  0.1891  0.8640
  182POPC   C3120850   2.633   2.806   7.008 -0.1682  1.1209  0.5617
  182POPC   O3220851   2.612   2.898   7.085 -0.4120  0.0211 -0.0071
  182POPC   C3220852   2.690   2.821   6.867  0.3684 -0.4857 -0.3497
  182POPC   H2X20853   2.627   2.758   6.802 -0.6562 -0.3851  0.5213
  182POPC   H2Y20854   2.789   2.771   6.876  0.0113 -1.4475 -1.6114
  182POPC   C2320855   2.427   2.506   6.691 -0.3926  0.3827 -0.1530
  182POPC   H3R20856   2.494   2.592   6.669  0.7043 -0.6080 -0.8031
  182POPC   H3S20857   2.330   2.542   6.651 -0.0388  0.5813 -0.8607
  182POPC   C2420858   2.468   2.384   6.605 -0.0222  0.5636  0.1889
  182POPC   H4R20859   2.379   2.317   6.597  1.9944 -2.2142 -0.5681
  182POPC   H4S20860   2.558   2.334   6.647  1.3392  2.9735  0.3054
  182POPC   C2520861   2.524   2.431   6.464 -0.3454  0.5027 -0.0297
  182POPC   H5R20862   2.590   2.351   6.422 -0.2982  1.0648 -1.0569
  182POPC   H5S20863   2.585   2.523   6.473 -0.3801  0.7953 -2.2411
  182POPC   C2620864   2.414   2.448   6.351 -0.3334  0.9856  0.0805
  182POPC   H6R20865   2.349   2.536   6.373 -0.3531  0.6797  1.3428
  182POPC   H6S20866   2.355   2.354   6.342  0.4041  0.0645  3.4486
  182POPC   C2720867   2.481   2.471   6.214 -0.1740  0.6256 -0.8377
  182POPC   H7R20868   2.557   2.390   6.209 -0.2837  0.2270  2.1936
  182POPC   H7S20869   2.532   2.570   6.212  0.5443  0.3174  0.5831
  182POPC   C2820870   2.389   2.457   6.091 -0.2106 -0.1928  0.0705
  182POPC   H8R20871   2.305   2.529   6.098 -0.7726 -0.6646 -1.2934
  182POPC   H8S20872   2.350   2.353   6.098 -1.1509  0.1225 -0.2933
  182POPC   C2920873   2.470   2.488   5.969 -0.0628  0.3345 -0.6347
  182POPC   H9120874   2.554   2.557   5.985 -1.0890  0.9654  2.6406
  182POPC  C21020875   2.435   2.435   5.851 -0.4134 -0.1983  0.3444
  182POPC  H10120876   2.506   2.456   5.769  3.4179 -0.8374  3.2339
  182POPC  C21120877   2.316   2.346   5.812 -0.3914 -0.3642  0.3023
  182POPC  H11R20878   2.248   2.340   5.899 -1.1993  3.1181  0.0666
  182POPC  H11S20879   2.365   2.247   5.805 -0.0394 -0.3432  2.0163
  182POPC  C21220880   2.254   2.375   5.677 -0.0887 -0.1651  0.2580
  182POPC  H12R20881   2.213   2.279   5.641  0.8691 -0.6573  0.4481
  182POPC  H12S20882   2.325   2.407   5.598  0.2126  0.3632  0.7336
  182POPC  C21320883   2.161   2.494   5.680  0.1305  0.6899 -0.3785
  182POPC  H13R20884   2.219   2.578   5.723 -0.3565  0.2801  1.1340
  182POPC  H13S20885   2.084   2.479   5.758  2.8539  0.5296  2.4692
  182POPC  C21420886   2.099   2.530   5.545 -0.4375 -0.1834 -0.6565
  182POPC  H14R20887   2.176   2.544   5.466 -0.2979 -1.9611 -0.8757
  182POPC  H14S20888   2.043   2.626   5.553 -0.5393 -0.0092 -2.8765
  182POPC  C21520889   2.001   2.426   5.490 -0.2581 -0.3715  0.4195
  182POPC  H15R20890   2.058   2.337   5.454  0.9124  0.6401 -0.3054
  182POPC  H15S20891   1.949   2.466   5.400  1.0356 -0.5817 -0.4482
  182POPC  C21620892   1.898   2.381   5.595  0.5029  0.4771 -0.5293
  182POPC  H16R20893   1.854   2.466   5.652  1.6397  0.9526 -0.3470
  182POPC  H16S20894   1.953   2.315   5.665  1.1168  0.4362 -1.0441
  182POPC  C21720895   1.780   2.313   5.524 -0.1483  0.6666  0.1115
  182POPC  H17R20896   1.721   2.388   5.467 -1.4261 -1.0300 -0.9011
  182POPC  H17S20897   1.703   2.279   5.598  0.5298  0.5033  0.7546
  182POPC  C21820898   1.826   2.193   5.437  0.2863 -0.5411 -0.7432
  182POPC  H18R20899   1.880   2.223   5.345  0.1834 -2.6296 -1.5299
  182POPC  H18S20900   1.739   2.133   5.403 -0.2375  0.3515 -1.0256
  182POPC  H18T20901   1.892   2.124   5.493 -1.4198  0.9592  3.5647
  182POPC   C3320902   2.694   2.963   6.808  0.3973  0.0722 -0.6095
  182POPC   H3X20903   2.757   3.024   6.875 -0.1522 -1.2323  1.1566
  182POPC   H3Y20904   2.592   3.004   6.793 -0.1608 -1.6157 -1.7416
  182POPC   C3420905   2.749   2.974   6.666  0.0362  0.6025  0.1826
  182POPC   H4X20906   2.856   2.947   6.677 -0.2316  0.3186  2.6164
  182POPC   H4Y20907   2.758   3.079   6.629 -0.9987  0.8250  0.5231
  182POPC   C3520908   2.670   2.886   6.562 -0.1409 -0.1298 -0.2116
  182POPC   H5X20909   2.564   2.920   6.564  0.0144  0.3663  0.0391
  182POPC   H5Y20910   2.679   2.777   6.579  0.2935 -0.2905 -1.4528
  182POPC   C3620911   2.727   2.895   6.414 -0.3246  0.1577 -0.1790
  182POPC   H6X20912   2.821   2.836   6.410  0.1203  0.7358  1.0654
  182POPC   H6Y20913   2.764   3.000   6.418  2.5132 -0.7863  0.1915
  182POPC   C3720914   2.624   2.864   6.307 -0.7863  0.3243 -0.6600
  182POPC   H7X20915   2.524   2.912   6.318 -1.1049  0.7335 -4.2584
  182POPC   H7Y20916   2.603   2.755   6.303  1.5326 -0.1242 -2.1015
  182POPC   C3820917   2.684   2.908   6.178  0.0695 -0.2468  0.0388
  182POPC   H8X20918   2.781   2.853   6.171  0.2873 -0.2214  2.2881
  182POPC   H8Y20919   2.709   3.016   6.184 -0.3262  0.0647 -2.5493
  182POPC   C3920920   2.587   2.867   6.062 -0.0198  1.1728 -0.4368
  182POPC   H9X20921   2.484   2.903   6.084 -0.6168  0.4308 -1.9163
  182POPC   H9Y20922   2.582   2.757   6.051 -0.1945  0.9802  1.3076
  182POPC  C31020923   2.632   2.931   5.933 -0.3731  0.6020 -0.5048
  182POPC  H10X20924   2.735   2.899   5.906 -0.3686 -0.0996  0.3366
  182POPC  H10Y20925   2.635   3.042   5.935 -1.4614  0.6269  1.2794
  182POPC  C31120926   2.544   2.882   5.819  0.0484 -0.0114 -0.2284
  182POPC  H11X20927   2.439   2.906   5.847 -0.0853 -0.2796 -0.4948
  182POPC  H11Y20928   2.564   2.774   5.801 -0.4640  0.0924 -1.5248
  182POPC  C31220929   2.559   2.951   5.687 -0.0514  0.2896  0.4095
  182POPC  H12X20930   2.665   2.973   5.663 -0.7968  2.9144 -0.8297
  182POPC  H12Y20931   2.507   3.048   5.703  0.0563  0.3923  0.1577
  182POPC  C31320932   2.500   2.867   5.573 -0.6728 -0.3440 -0.1847
  182POPC  H13X20933   2.395   2.845   5.601 -1.0057  1.9847  0.5285
  182POPC  H13Y20934   2.556   2.770   5.567 -0.6693 -0.3176 -0.6057
  182POPC  C31420935   2.488   2.945   5.444  0.0879 -0.2030  0.4977
  182POPC  H14X20936   2.591   2.977   5.419 -0.6665  1.8991 -0.1491
  182POPC  H14Y20937   2.420   3.031   5.464 -0.5542 -0.2065 -1.4510
  182POPC  C31520938   2.440   2.865   5.326  0.2038  0.4074  0.8014
  182POPC  H15X20939   2.496   2.769   5.319 -1.1374 -0.5096  2.1543
  182POPC  H15Y20940   2.450   2.925   5.233 -0.9611  1.0191  1.0657
  182POPC  C31620941   2.288   2.826   5.319 -0.6460  0.4925  0.3944
  182POPC  H16X20942   2.254   2.755   5.397 -1.5045 -0.0949 -0.4851
  182POPC  H16Y20943   2.261   2.790   5.218 -0.4369  0.0671  0.4895
  182POPC  H16Z20944   2.231   2.921   5.332  1.0170  1.3885  1.5347
  183POPC     N20945   4.361   1.851   7.219  0.1104  0.5399 -0.0750
  183POPC   C1220946   4.288   1.719   7.211 -0.0843  0.3333  0.6440
  183POPC  H12A20947   4.298   1.677   7.310 -0.7051 -2.0729 -0.2320
  183POPC  H12B20948   4.331   1.660   7.131 -1.7482 -1.3385  0.9143
  183POPC   C1320949   4.502   1.827   7.263  0.5027 -0.0955  0.5251
  183POPC  H13A20950   4.547   1.754   7.198 -0.4388 -0.2184  0.0051
  183POPC  H13B20951   4.562   1.917   7.263 -0.6393  0.7402 -1.4877
  183POPC  H13C20952   4.510   1.775   7.357 -0.8540  0.3449  0.9091
  183POPC   C1420953   4.359   1.916   7.082  0.3573 -0.5883 -0.3213
  183POPC  H14A20954   4.433   1.995   7.080  2.8582 -2.7228  0.8568
  183POPC  H14B20955   4.387   1.845   7.006 -0.7298 -2.5026  0.9746
  183POPC  H14C20956   4.260   1.952   7.061  0.2019 -1.5884 -1.4410
  183POPC   C1520957   4.285   1.936   7.310  0.7283 -0.1805 -0.2449
  183POPC  H15A20958   4.272   1.893   7.408 -0.9073 -0.3236 -0.4979
  183POPC  H15B20959   4.186   1.956   7.273  0.7643 -1.8411 -1.3694
  183POPC  H15C20960   4.337   2.029   7.324 -0.4955  0.6868 -1.1867
  183POPC   C1120961   4.135   1.737   7.160  0.8075  1.1790 -0.4119
  183POPC  H11A20962   4.085   1.814   7.223  0.9748 -0.1007  1.3616
  183POPC  H11B20963   4.089   1.641   7.192 -1.4213  2.8027  1.6432
  183POPC     P20964   4.153   1.665   6.918  0.4830  0.4781 -0.2083
  183POPC   O1320965   4.090   1.688   6.791  0.0466  0.6577 -0.3143
  183POPC   O1420966   4.129   1.533   6.980 -0.2520  0.2911 -0.4246
  183POPC   O1220967   4.113   1.772   7.024  0.4287  0.7025 -0.0451
  183POPC   O1120968   4.305   1.693   6.905  0.4321 -0.3280  0.0186
  183POPC    C120969   4.391   1.588   6.846 -0.0250  0.2334 -0.1283
  183POPC    HA20970   4.371   1.588   6.736 -0.3285  1.3163 -0.0836
  183POPC    HB20971   4.380   1.486   6.890 -2.4555  1.4499  2.3232
  183POPC    C220972   4.539   1.637   6.865  0.9515  0.2779 -0.0384
  183POPC    HS20973   4.554   1.661   6.972  0.6937 -1.1598  0.3383
  183POPC   O2120974   4.561   1.751   6.780  0.5207 -0.4758 -0.3983
  183POPC   C2120975   4.671   1.825   6.813 -1.5945 -0.0132  0.8219
  183POPC   O2220976   4.738   1.821   6.916 -0.2421 -0.5847 -0.5471
  183POPC   C2220977   4.705   1.904   6.687 -0.2039 -0.0988 -0.4477
  183POPC   H2R20978   4.661   2.002   6.714  0.0344 -0.6405  2.2083
  183POPC   H2S20979   4.663   1.848   6.601  0.0511 -0.3820 -0.3891
  183POPC    C320980   4.635   1.519   6.835 -0.2764 -0.4324 -0.8030
  183POPC    HX20981   4.613   1.442   6.912  1.3504 -1.0518 -0.9259
  183POPC    HY20982   4.735   1.557   6.864  0.1214 -2.0072 -0.0188
  183POPC   O3120983   4.629   1.459   6.702 -0.1891 -0.0189 -0.3901
  183POPC   C3120984   4.706   1.515   6.604  0.1500 -0.3575  0.3184
  183POPC   O3220985   4.790   1.602   6.616 -0.4375  0.5678 -0.0443
  183POPC   C3220986   4.650   1.482   6.469 -0.5901  0.4541  0.0034
  183POPC   H2X20987   4.547   1.521   6.458 -1.1568  0.0689  3.0185
  183POPC   H2Y20988   4.651   1.371   6.460  1.0968  0.4623 -0.2342
  183POPC   C2320989   4.859   1.932   6.674 -0.2770  0.1220  0.2289
  183POPC   H3R20990   4.909   1.834   6.659 -0.0973 -0.1311  2.2854
  183POPC   H3S20991   4.889   1.980   6.769 -1.1216  1.9577 -0.3754
  183POPC   C2420992   4.900   2.025   6.569  0.9001  0.5752 -0.1085
  183POPC   H4R20993   4.985   2.084   6.609 -0.3977  3.5424 -1.4257
  183POPC   H4S20994   4.820   2.100   6.558  0.5356  0.0596 -1.1044
  183POPC   C2520995   4.930   1.970   6.433 -0.4037  0.1666  0.3893
  183POPC   H5R20996   4.943   1.860   6.443  0.1684  0.3330  1.5983
  183POPC   H5S20997   5.029   2.002   6.394 -1.4049 -0.0333 -2.5181
  183POPC   C2620998   4.813   2.006   6.338 -0.0478  0.4834  0.6400
  183POPC   H6R20999   4.804   2.116   6.320  1.7736  0.5354 -0.1693
  183POPC   H6S21000   4.723   1.964   6.388 -0.0725  0.9936  1.0329
  183POPC   C2721001   4.821   1.942   6.197 -0.2445 -0.8704 -0.0226
  183POPC   H7R21002   4.841   1.833   6.201 -0.0588 -0.8284  0.2193
  183POPC   H7S21003   4.909   1.985   6.144 -1.9243  0.2448 -2.0600
  183POPC   C2821004   4.703   1.968   6.099  0.2079  0.0836  0.2198
  183POPC   H8R21005   4.703   2.078   6.092  1.6886  0.0022 -1.8925
  183POPC   H8S21006   4.610   1.929   6.146  0.8390  1.3427  2.6801
  183POPC   C2921007   4.726   1.906   5.968 -0.5070  0.0955  0.0628
  183POPC   H9121008   4.830   1.898   5.934 -0.0528  1.8239  0.9201
  183POPC  C21021009   4.629   1.863   5.885  0.0305 -0.5768 -0.1165
  183POPC  H10121010   4.659   1.800   5.800 -1.1550  0.5282 -1.3937
  183POPC  C21121011   4.479   1.878   5.905  0.0791  0.7141  0.1052
  183POPC  H11R21012   4.431   1.884   5.805  1.4549  1.6075 -0.5341
  183POPC  H11S21013   4.448   1.971   5.956 -3.4892 -1.0377  1.4736
  183POPC  C21221014   4.405   1.756   5.969  0.4618 -0.7565  0.4362
  183POPC  H12R21015   4.461   1.724   6.059  1.8227  1.2520  0.3783
  183POPC  H12S21016   4.408   1.667   5.902 -0.0653 -0.6071  0.2036
  183POPC  C21321017   4.256   1.784   6.000  0.4658  0.3062 -0.7683
  183POPC  H13R21018   4.202   1.695   6.039  1.2449 -0.8118 -2.1611
  183POPC  H13S21019   4.196   1.820   5.914  2.4167  1.9103 -1.5202
  183POPC  C21421020   4.236   1.898   6.100  0.4458  0.3143  0.4601
  183POPC  H14R21021   4.129   1.897   6.131  0.0570 -0.1097 -0.8658
  183POPC  H14S21022   4.253   1.996   6.051  0.0277 -0.5088 -1.4053
  183POPC  C21521023   4.318   1.877   6.229 -0.0844 -0.2834 -0.4885
  183POPC  H15R21024   4.293   1.963   6.294  0.9367  0.0560 -0.5167
  183POPC  H15S21025   4.427   1.890   6.209  0.1653  0.3195  1.1575
  183POPC  C21621026   4.277   1.762   6.319  0.1113  0.4492  0.8369
  183POPC  H16R21027   4.320   1.666   6.285 -0.1653  0.5619  0.1462
  183POPC  H16S21028   4.166   1.766   6.328 -0.2707  0.7015 -2.5186
  183POPC  C21721029   4.338   1.767   6.459  0.1013 -0.6504  0.4938
  183POPC  H17R21030   4.444   1.800   6.457 -0.4639  1.6191  2.8311
  183POPC  H17S21031   4.327   1.668   6.508 -2.4618 -0.7236 -0.1053
  183POPC  C21821032   4.271   1.862   6.553  0.2027  0.9880 -0.1345
  183POPC  H18R21033   4.160   1.868   6.550 -0.0980 -1.3854  2.0541
  183POPC  H18S21034   4.313   1.965   6.542  0.7522  0.7767 -0.0591
  183POPC  H18T21035   4.291   1.823   6.655  1.2578 -0.9516 -1.0499
  183POPC   C3321036   4.747   1.546   6.365  0.8907  0.1570  0.0205
  183POPC   H3X21037   4.853   1.512   6.360  1.2464  1.0805  0.8119
  183POPC   H3Y21038   4.749   1.655   6.386  3.0449 -0.1218  1.6575
  183POPC   C3421039   4.677   1.507   6.235  0.2249 -0.2646 -0.7266
  183POPC   H4X21040   4.579   1.557   6.220  0.8379  0.4934 -2.3876
  183POPC   H4Y21041   4.661   1.397   6.234  1.2705 -0.4316 -0.5430
  183POPC   C3521042   4.773   1.537   6.114 -0.1994  0.2929  0.0668
  183POPC   H5X21043   4.865   1.479   6.139 -1.5790 -2.2695 -0.4432
  183POPC   H5Y21044   4.800   1.645   6.113 -0.6164  0.4002 -0.0470
  183POPC   C3621045   4.723   1.479   5.981  1.0541 -0.0244  0.2507
  183POPC   H6X21046   4.632   1.537   5.955  0.3396 -0.1478  2.3214
  183POPC   H6Y21047   4.702   1.372   5.999 -1.8309  0.5915  1.1202
  183POPC   C3721048   4.825   1.499   5.868  0.1122 -0.5142  0.8719
  183POPC   H7X21049   4.927   1.493   5.911 -0.3938  1.7326  2.5523
  183POPC   H7Y21050   4.825   1.605   5.834 -0.6320 -0.9522 -0.6177
  183POPC   C3821051   4.788   1.420   5.754  0.4647  0.2454  0.9701
  183POPC   H8X21052   4.685   1.455   5.729 -0.4937 -1.1538  2.7219
  183POPC   H8Y21053   4.776   1.312   5.774 -2.1355  0.5171  1.2474
  183POPC   C3921054   4.869   1.439   5.624  0.1759  0.5505  0.6139
  183POPC   H9X21055   4.809   1.407   5.536 -0.2511 -0.6619  1.3294
  183POPC   H9Y21056   4.960   1.376   5.622  1.1988  1.9878 -1.7132
  183POPC  C31021057   4.920   1.583   5.586  0.2014  0.0583 -0.3893
  183POPC  H10X21058   4.976   1.624   5.672  0.0304 -0.4083 -0.0492
  183POPC  H10Y21059   4.827   1.642   5.570  0.2127 -0.0041 -0.6913
  183POPC  C31121060   5.011   1.589   5.463  0.0041  0.7657  0.1280
  183POPC  H11X21061   4.967   1.581   5.362 -0.2939  1.3147  0.2132
  183POPC  H11Y21062   5.075   1.499   5.474 -2.4248 -1.2425 -1.3465
  183POPC  C31221063   5.109   1.712   5.461 -0.1299 -0.4736  1.3544
  183POPC  H12X21064   5.192   1.705   5.535 -0.2837  0.0093  1.5730
  183POPC  H12Y21065   5.038   1.794   5.487 -0.3640 -0.5372  0.9289
  183POPC  C31321066   5.171   1.735   5.322 -0.4613  0.2803 -0.4501
  183POPC  H13X21067   5.231   1.828   5.311 -0.3285  0.1193 -1.1245
  183POPC  H13Y21068   5.083   1.746   5.255 -0.9154  0.2294  0.1358
  183POPC  C31421069   5.261   1.621   5.288  0.3982 -1.1358 -0.5465
  183POPC  H14X21070   5.246   1.526   5.343 -3.0919 -1.1529 -1.3116
  183POPC  H14Y21071   5.361   1.658   5.319  0.7208 -0.9934 -1.7110
  183POPC  C31521072   5.260   1.582   5.141 -0.0219 -0.0769 -0.1569
  183POPC  H15X21073   5.161   1.536   5.123 -0.9461  1.0961  1.6877
  183POPC  H15Y21074   5.331   1.500   5.115  1.3036  0.1523  2.3792
  183POPC  C31621075   5.281   1.700   5.046 -0.3220  0.2157  1.0762
  183POPC  H16X21076   5.380   1.751   5.051  0.2842 -0.9221  0.9147
  183POPC  H16Y21077   5.214   1.784   5.075 -1.7598 -0.3398 -0.4713
  183POPC  H16Z21078   5.261   1.677   4.939 -1.8479 -1.4699  1.6742
  184POPC     N21079   4.916   1.552   7.873 -0.8717  0.5144  1.0622
  184POPC   C1221080   4.796   1.622   7.935  0.1919 -0.5067  0.3645
  184POPC  H12A21081   4.818   1.664   8.032  1.0581 -0.2219  0.0506
  184POPC  H12B21082   4.715   1.551   7.942  1.0078 -1.5924 -0.7511
  184POPC   C1321083   4.970   1.449   7.968 -0.3149 -0.3965 -0.3829
  184POPC  H13A21084   5.042   1.389   7.914  1.2734 -1.6799  2.8561
  184POPC  H13B21085   5.019   1.484   8.058 -1.2634 -1.9838  0.8202
  184POPC  H13C21086   4.895   1.376   7.996  0.0090 -0.5916 -0.0089
  184POPC   C1421087   4.885   1.473   7.747  1.0025 -0.4782 -0.0625
  184POPC  H14A21088   4.818   1.536   7.691  3.7954  0.7763 -2.2327
  184POPC  H14B21089   4.966   1.448   7.681 -1.2942 -0.7640 -3.0071
  184POPC  H14C21090   4.831   1.385   7.780  1.8615 -0.3371  1.8355
  184POPC   C1521091   5.029   1.644   7.849 -0.6607  0.0574  0.1136
  184POPC  H15A21092   5.096   1.595   7.781 -1.9245  1.4575 -2.3076
  184POPC  H15B21093   5.075   1.688   7.937 -2.2291  1.1510  0.4377
  184POPC  H15C21094   4.992   1.728   7.791  0.9683  0.6429 -0.1271
  184POPC   C1121095   4.731   1.739   7.854 -0.3658 -0.1914  0.0022
  184POPC  H11A21096   4.809   1.818   7.843 -3.1205  2.7099 -0.0709
  184POPC  H11B21097   4.651   1.780   7.919 -0.6877  0.6085 -0.8804
  184POPC     P21098   4.697   1.773   7.590 -0.7490  0.4478 -0.3092
  184POPC   O1321099   4.609   1.890   7.606 -0.3717  0.1383 -0.0584
  184POPC   O1421100   4.663   1.679   7.478  0.2926 -0.3238 -0.0406
  184POPC   O1221101   4.688   1.692   7.730  0.5697 -0.3760  0.2851
  184POPC   O1121102   4.846   1.820   7.580  0.1231 -0.0686  0.3763
  184POPC    C121103   4.938   1.749   7.499 -0.2251 -0.0938  0.0106
  184POPC    HA21104   4.919   1.764   7.391  2.1217 -2.3924 -0.8313
  184POPC    HB21105   4.941   1.639   7.512  2.7323 -0.0857  0.0399
  184POPC    C221106   5.087   1.796   7.526  0.4984 -0.0810 -0.1526
  184POPC    HS21107   5.109   1.790   7.634 -1.8890 -2.2153  0.3140
  184POPC   O2121108   5.095   1.926   7.477 -0.4001  0.1260  0.6834
  184POPC   C2121109   5.202   2.007   7.506  0.3943  0.2209 -0.1071
  184POPC   O2221110   5.296   1.970   7.571 -0.2706 -0.0700  0.4219
  184POPC   C2221111   5.178   2.142   7.442 -0.0201  0.3396  0.0343
  184POPC   H2R21112   5.219   2.218   7.511  1.0415  0.9337 -1.2042
  184POPC   H2S21113   5.071   2.169   7.428  0.0617  1.0318  0.7008
  184POPC    C321114   5.187   1.713   7.449  0.0217  0.4180 -0.4159
  184POPC    HX21115   5.192   1.606   7.479  0.8915  0.3512 -0.7802
  184POPC    HY21116   5.291   1.749   7.460  0.2681 -0.3439 -0.1764
  184POPC   O3121117   5.170   1.736   7.314  0.1883  0.4468  0.3933
  184POPC   C3121118   5.105   1.638   7.243  0.3680 -0.5249 -0.7251
  184POPC   O3221119   5.069   1.531   7.288  0.1198 -0.0455  0.3768
  184POPC   C3221120   5.114   1.682   7.098 -0.1927  0.5074  0.3059
  184POPC   H2X21121   5.222   1.697   7.078  0.4106 -3.1268  0.1274
  184POPC   H2Y21122   5.057   1.776   7.084  1.6153  1.8861  1.5785
  184POPC   C2321123   5.273   2.165   7.317 -0.1754 -0.0347 -0.1281
  184POPC   H3R21124   5.373   2.124   7.345 -0.8754 -0.4469  1.9821
  184POPC   H3S21125   5.278   2.275   7.306  1.6498 -0.2766 -2.6427
  184POPC   C2421126   5.223   2.086   7.199  0.0291  0.4846  0.1758
  184POPC   H4R21127   5.123   2.125   7.170  0.0728  0.9381  0.6071
  184POPC   H4S21128   5.203   1.984   7.238  0.2893  0.5438  0.4748
  184POPC   C2521129   5.310   2.090   7.079  0.5450  0.5997  0.8594
  184POPC   H5R21130   5.412   2.055   7.108  0.2610 -1.1949 -0.0995
  184POPC   H5S21131   5.322   2.196   7.050 -1.9462  0.7057 -0.0551
  184POPC   C2621132   5.259   2.005   6.957 -0.0659 -0.2853 -0.8109
  184POPC   H6R21133   5.165   2.055   6.925 -0.3475  0.8864  1.6300
  184POPC   H6S21134   5.240   1.902   6.994  3.8022 -0.2052  1.9813
  184POPC   C2721135   5.353   1.999   6.836  0.2932  0.0996  1.1353
  184POPC   H7R21136   5.355   1.896   6.794  1.1856 -0.0046  1.4094
  184POPC   H7S21137   5.457   2.015   6.871  0.7517 -1.3419  0.5240
  184POPC   C2821138   5.318   2.090   6.719  0.2043  0.0261 -0.3978
  184POPC   H8R21139   5.276   2.176   6.775 -2.7390 -1.1013 -0.6660
  184POPC   H8S21140   5.238   2.050   6.653 -0.8962 -0.7235  1.3356
  184POPC   C2921141   5.443   2.133   6.647 -0.0898  0.3493  0.2616
  184POPC   H9121142   5.541   2.145   6.696 -0.1945  1.6796  0.1624
  184POPC  C21021143   5.443   2.145   6.510  0.3103 -0.3260  0.2880
  184POPC  H10121144   5.545   2.153   6.470  0.3002  2.1974  0.6060
  184POPC  C21121145   5.327   2.116   6.421 -0.6313 -0.8461 -1.0312
  184POPC  H11R21146   5.233   2.142   6.475 -1.0338  0.4902 -2.2882
  184POPC  H11S21147   5.330   2.005   6.418 -0.6481 -0.8599 -0.5091
  184POPC  C21221148   5.322   2.186   6.287 -0.3058 -0.7885  0.4560
  184POPC  H12R21149   5.325   2.295   6.307 -1.6368 -0.5690 -0.4595
  184POPC  H12S21150   5.219   2.179   6.248 -0.4675  0.5655  0.5757
  184POPC  C21321151   5.442   2.147   6.192  0.1627  0.1924 -0.1628
  184POPC  H13R21152   5.454   2.037   6.203 -0.3805  0.2189  0.8035
  184POPC  H13S21153   5.525   2.203   6.240  0.7654  1.6810 -2.7710
  184POPC  C21421154   5.430   2.201   6.045 -0.4050  0.3424  0.0986
  184POPC  H14R21155   5.531   2.189   5.999 -0.2395  1.0643  0.2656
  184POPC  H14S21156   5.408   2.310   6.043 -3.1753 -0.1727 -1.1960
  184POPC  C21521157   5.324   2.128   5.961 -0.2315 -0.1498 -0.4486
  184POPC  H15R21158   5.272   2.212   5.911  0.5237  0.9782  0.6228
  184POPC  H15S21159   5.255   2.083   6.035  1.2875  0.0911  1.1799
  184POPC  C21621160   5.386   2.038   5.863  0.1456 -0.0509 -0.1643
  184POPC  H16R21161   5.420   1.947   5.917  0.4226  0.2562  0.1809
  184POPC  H16S21162   5.480   2.077   5.819  1.4828 -0.7700  1.8876
  184POPC  C21721163   5.300   2.013   5.740  0.1899  0.0199  0.5087
  184POPC  H17R21164   5.364   1.964   5.664 -0.4104  0.8288 -0.5318
  184POPC  H17S21165   5.270   2.111   5.697 -2.0226 -1.1267 -0.7715
  184POPC  C21821166   5.177   1.926   5.751 -0.1969 -0.0431 -0.1877
  184POPC  H18R21167   5.106   1.959   5.830  0.9346  0.4512  0.6611
  184POPC  H18S21168   5.203   1.819   5.761  0.4976  0.1646  0.3413
  184POPC  H18T21169   5.118   1.938   5.657 -2.9787 -1.2275  1.3076
  184POPC   C3321170   5.062   1.568   7.002  0.3870  0.3408  0.3037
  184POPC   H3X21171   4.971   1.514   7.037 -0.4697  1.9785  0.7481
  184POPC   H3Y21172   5.141   1.491   6.997 -0.8189 -0.8467 -1.0860
  184POPC   C3421173   5.029   1.618   6.863 -0.0100  0.7493  0.2056
  184POPC   H4X21174   4.949   1.694   6.878 -2.1804 -1.1541 -0.9504
  184POPC   H4Y21175   4.987   1.543   6.792 -1.2442  0.4162  1.2455
  184POPC   C3521176   5.157   1.669   6.794 -0.3960  0.1313  0.0271
  184POPC   H5X21177   5.245   1.608   6.825 -0.1074 -0.5122 -1.9206
  184POPC   H5Y21178   5.175   1.777   6.813 -2.8934  0.7536 -0.8138
  184POPC   C3621179   5.163   1.657   6.642  0.3721 -0.5706 -0.5921
  184POPC   H6X21180   5.263   1.695   6.613  1.0360  0.6750  2.8298
  184POPC   H6Y21181   5.079   1.718   6.603 -1.1255 -2.6179 -0.7446
  184POPC   C3721182   5.140   1.517   6.570  0.0315 -1.3890 -0.1462
  184POPC   H7X21183   5.030   1.501   6.571 -0.0214 -1.4521 -2.5372
  184POPC   H7Y21184   5.203   1.445   6.628 -2.0835 -2.9248  0.3892
  184POPC   C3821185   5.192   1.529   6.422  0.7242 -0.4374  0.1096
  184POPC   H8X21186   5.197   1.433   6.367 -1.6784 -0.8139  0.4711
  184POPC   H8Y21187   5.298   1.563   6.428  1.1375 -1.8503  1.4131
  184POPC   C3921188   5.121   1.635   6.329  0.2489 -0.1774  0.4735
  184POPC   H9X21189   5.157   1.738   6.346  0.4849 -0.4093  1.4605
  184POPC   H9Y21190   5.013   1.639   6.356  0.8456  1.4462  2.8789
  184POPC  C31021191   5.126   1.608   6.179 -0.5338  0.2239  0.7220
  184POPC  H10X21192   5.066   1.685   6.125  1.7960  1.3459 -0.4016
  184POPC  H10Y21193   5.088   1.506   6.157 -0.2129  0.0710  0.8693
  184POPC  C31121194   5.270   1.631   6.133  0.7398 -0.2595 -0.4922
  184POPC  H11X21195   5.331   1.583   6.212  0.7416  0.8770  0.2277
  184POPC  H11Y21196   5.286   1.739   6.152  0.2506 -0.2012 -0.3777
  184POPC  C31221197   5.308   1.595   5.988  0.8439 -0.0181 -0.7725
  184POPC  H12X21198   5.247   1.653   5.916  1.1096  0.7331 -0.3970
  184POPC  H12Y21199   5.290   1.487   5.969 -1.3050 -0.2984  2.0900
  184POPC  C31321200   5.455   1.624   5.959  0.1466 -0.1751  0.3131
  184POPC  H13X21201   5.520   1.546   6.003 -0.5747 -0.4067  0.9898
  184POPC  H13Y21202   5.460   1.713   6.025  0.9463  0.7339 -0.9352
  184POPC  C31421203   5.485   1.654   5.814 -0.2922 -0.0931 -0.1386
  184POPC  H14X21204   5.591   1.683   5.799 -0.0406 -1.4330 -1.1758
  184POPC  H14Y21205   5.432   1.748   5.787 -0.4019  0.0535  0.5687
  184POPC  C31521206   5.443   1.551   5.720  1.0840 -0.7281  0.5784
  184POPC  H15X21207   5.334   1.533   5.731  0.2461  3.1114 -0.1319
  184POPC  H15Y21208   5.498   1.455   5.730  0.9646 -0.8546  0.0530
  184POPC  C31621209   5.471   1.593   5.569 -0.0218 -0.2783 -0.5132
  184POPC  H16X21210   5.447   1.512   5.497  0.1256 -0.5871 -0.2155
  184POPC  H16Y21211   5.576   1.623   5.549  0.5165 -1.3034  0.6749
  184POPC  H16Z21212   5.413   1.686   5.550 -1.1717 -0.6330  1.0597
  185POPC     N21213   5.161   5.407   2.636 -0.9060  0.6305  0.7228
  185POPC   C1221214   5.150   5.396   2.788  0.0214 -0.7057 -0.9769
  185POPC  H12A21215   5.049   5.362   2.807  0.5351 -1.4449  0.6763
  185POPC  H12B21216   5.155   5.488   2.845 -1.7297 -0.6171 -0.9232
  185POPC   C1321217   5.300   5.428   2.590  0.5894  0.1126  0.3998
  185POPC  H13A21218   5.361   5.495   2.649 -0.5864 -0.2206  2.0642
  185POPC  H13B21219   5.351   5.334   2.602  1.1806  0.3028 -0.4809
  185POPC  H13C21220   5.305   5.454   2.485  0.3978 -1.6093 -0.0553
  185POPC   C1421221   5.101   5.285   2.576 -0.6613  0.1295  0.0419
  185POPC  H14A21222   5.148   5.195   2.614  2.5181  1.4700 -0.3579
  185POPC  H14B21223   4.997   5.290   2.604 -0.3080 -0.5296  1.5705
  185POPC  H14C21224   5.113   5.280   2.469  1.1745  0.0667  0.2191
  185POPC   C1521225   5.081   5.524   2.585  0.2846 -0.1805  0.1311
  185POPC  H15A21226   5.116   5.617   2.627  1.2867 -0.5562  0.1579
  185POPC  H15B21227   4.979   5.516   2.618  0.3963 -0.7812  0.3485
  185POPC  H15C21228   5.081   5.526   2.477  0.6598 -0.4319  0.1224
  185POPC   C1121229   5.236   5.282   2.847 -0.0792 -1.2036 -0.3923
  185POPC  H11A21230   5.228   5.190   2.785  0.6046 -0.1082 -2.1969
  185POPC  H11B21231   5.195   5.254   2.946  1.3964 -2.7284 -0.1654
  185POPC     P21232   5.438   5.447   2.927 -0.1109  0.1959 -0.0914
  185POPC   O1321233   5.471   5.539   2.820 -0.2943 -0.5745  0.2865
  185POPC   O1421234   5.546   5.403   3.014 -0.0359  0.3629  0.2665
  185POPC   O1221235   5.377   5.314   2.864  0.5791  0.6354 -0.2047
  185POPC   O1121236   5.312   5.508   3.007 -0.3217  0.3412 -0.3584
  185POPC    C121237   5.294   5.478   3.150 -0.9396  0.6765  0.1612
  185POPC    HA21238   5.389   5.495   3.206  0.1531 -1.9374 -0.7371
  185POPC    HB21239   5.277   5.369   3.165 -0.0640  0.4836 -0.1725
  185POPC    C221240   5.184   5.564   3.207 -0.2458 -0.2870 -0.2719
  185POPC    HS21241   5.217   5.670   3.196  0.8700 -0.5156  0.7217
  185POPC   O2121242   5.158   5.530   3.350 -0.2242 -0.3455 -0.3440
  185POPC   C2121243   5.239   5.597   3.434 -0.1214 -0.2179 -0.5844
  185POPC   O2221244   5.317   5.689   3.403  0.2333  0.3584  0.3815
  185POPC   C2221245   5.217   5.548   3.575  0.4001 -0.7471 -0.1228
  185POPC   H2R21246   5.241   5.439   3.581 -2.3322 -1.5531 -1.8022
  185POPC   H2S21247   5.110   5.561   3.604  0.7044  0.1785  0.6307
  185POPC    C321248   5.049   5.539   3.121 -0.4011  0.5118 -0.0540
  185POPC    HX21249   5.035   5.429   3.109 -2.4059  0.7784 -0.3648
  185POPC    HY21250   5.065   5.590   3.024 -2.5804 -0.3740 -0.9542
  185POPC   O3121251   4.934   5.601   3.178  0.0729 -0.4089 -0.3291
  185POPC   C3121252   4.819   5.560   3.124  0.5331 -0.6526  0.0189
  185POPC   O3221253   4.797   5.482   3.037 -0.2032 -0.6647 -0.1243
  185POPC   C3221254   4.706   5.636   3.193 -0.3044 -0.0686 -0.3709
  185POPC   H2X21255   4.637   5.673   3.115  0.3528  1.0330 -0.4591
  185POPC   H2Y21256   4.737   5.726   3.252 -0.0554 -0.4436  0.0730
  185POPC   C2321257   5.288   5.634   3.679  0.6032  0.1054  0.6396
  185POPC   H3R21258   5.253   5.739   3.672 -0.0347 -0.1858 -1.1045
  185POPC   H3S21259   5.397   5.637   3.659  0.6352 -0.3273  0.7360
  185POPC   C2421260   5.279   5.580   3.819  0.6132 -0.6844 -0.2718
  185POPC   H4R21261   5.339   5.487   3.819  0.8189 -0.5583 -0.9110
  185POPC   H4S21262   5.175   5.588   3.858  0.3361  0.3659 -1.1714
  185POPC   C2521263   5.370   5.666   3.909  0.5322  0.2663 -0.2534
  185POPC   H5R21264   5.472   5.646   3.868  0.8041  1.7873 -0.3936
  185POPC   H5S21265   5.362   5.634   4.015 -2.1812  2.8389  0.4344
  185POPC   C2621266   5.351   5.817   3.911  0.3290 -0.7060  0.5695
  185POPC   H6R21267   5.242   5.839   3.917 -0.0976 -1.7531 -2.0309
  185POPC   H6S21268   5.371   5.855   3.809 -1.5918 -0.1832  0.3454
  185POPC   C2721269   5.460   5.886   3.996  0.5397 -0.2309 -0.2864
  185POPC   H7R21270   5.495   5.980   3.948 -0.9404 -0.4044 -1.8008
  185POPC   H7S21271   5.549   5.821   3.980  1.7573  1.3820 -0.3269
  185POPC   C2821272   5.416   5.919   4.144  0.1813  0.4078  0.7057
  185POPC   H8R21273   5.504   5.962   4.197  1.2775  0.3747 -1.0007
  185POPC   H8S21274   5.395   5.820   4.191 -1.1682  1.2576  1.9660
  185POPC   C2921275   5.297   6.011   4.149 -1.3022 -0.2689 -0.0949
  185POPC   H9121276   5.291   6.088   4.071  2.6975 -0.3795 -0.7233
  185POPC  C21021277   5.195   5.993   4.235  0.2799 -0.2494  0.2659
  185POPC  H10121278   5.108   6.060   4.229 -0.1314 -0.8554 -1.0438
  185POPC  C21121279   5.175   5.892   4.342 -0.6731  0.4056 -0.1369
  185POPC  H11R21280   5.091   5.928   4.405  0.3935  2.6862  0.0794
  185POPC  H11S21281   5.270   5.895   4.400  0.7399  2.5258 -2.3632
  185POPC  C21221282   5.149   5.749   4.279 -0.2875  0.5934 -0.0018
  185POPC  H12R21283   5.205   5.722   4.187  1.0067 -2.7334  1.5757
  185POPC  H12S21284   5.041   5.752   4.255 -0.2449 -1.6613 -0.7289
  185POPC  C21321285   5.172   5.627   4.368 -1.2868  0.0898  0.5755
  185POPC  H13R21286   5.273   5.616   4.413 -0.8092  0.5270 -0.3653
  185POPC  H13S21287   5.149   5.536   4.308 -2.6627  0.1772  0.9434
  185POPC  C21421288   5.060   5.627   4.467 -0.4299  1.0973  0.0211
  185POPC  H14R21289   4.972   5.584   4.414  0.2123 -1.2095  0.7059
  185POPC  H14S21290   5.036   5.717   4.527 -0.1295  0.1464  1.6315
  185POPC  C21521291   5.076   5.510   4.579  1.1797  0.5833 -0.5430
  185POPC  H15R21292   5.176   5.506   4.627  0.9310  0.3606 -0.0350
  185POPC  H15S21293   5.057   5.410   4.534  0.9517 -0.1327  1.0849
  185POPC  C21621294   4.978   5.510   4.697  0.4145 -0.3423 -0.9609
  185POPC  H16R21295   4.877   5.496   4.653  0.2465  1.1671 -1.1286
  185POPC  H16S21296   4.974   5.615   4.735 -1.2383  0.2799 -2.6946
  185POPC  C21721297   5.011   5.407   4.808  0.0532  0.4144 -0.7536
  185POPC  H17R21298   4.996   5.307   4.762  3.4662 -0.5335 -0.0752
  185POPC  H17S21299   4.935   5.417   4.888  1.5041  1.1778  0.5773
  185POPC  C21821300   5.152   5.404   4.866  0.2405 -0.5574  0.2932
  185POPC  H18R21301   5.168   5.332   4.949  3.0428 -1.6600 -1.0695
  185POPC  H18S21302   5.167   5.506   4.905 -0.8614 -0.7955  1.4278
  185POPC  H18T21303   5.235   5.392   4.794  1.3874  0.4891  1.3984
  185POPC   C3321304   4.619   5.541   3.283  0.1123  0.1317 -0.3878
  185POPC   H3X21305   4.629   5.435   3.254 -0.2830 -0.4235  1.3906
  185POPC   H3Y21306   4.510   5.560   3.288  0.3075  1.7124 -1.3355
  185POPC   C3421307   4.662   5.539   3.435  0.8195 -0.4256 -0.2809
  185POPC   H4X21308   4.650   5.635   3.489  0.5607 -0.1081 -0.8985
  185POPC   H4Y21309   4.773   5.525   3.435  1.4350  3.3922  1.0781
  185POPC   C3521310   4.587   5.432   3.527 -0.7525  0.3998 -0.0229
  185POPC   H5X21311   4.647   5.425   3.620  1.9301 -2.3312 -1.7994
  185POPC   H5Y21312   4.600   5.333   3.479 -1.2869  1.1882 -1.9076
  185POPC   C3621313   4.443   5.452   3.547 -0.2681 -0.5309  0.3989
  185POPC   H6X21314   4.395   5.444   3.447 -1.0924 -1.1482  0.8340
  185POPC   H6Y21315   4.430   5.558   3.577  2.3335  0.5750 -1.8938
  185POPC   C3721316   4.374   5.344   3.628 -0.1605 -0.6042 -0.3674
  185POPC   H7X21317   4.399   5.238   3.604 -2.6042 -1.0885 -1.1270
  185POPC   H7Y21318   4.263   5.350   3.625 -0.3451 -2.4435  0.7637
  185POPC   C3821319   4.397   5.364   3.775  0.3638 -0.5379 -0.4142
  185POPC   H8X21320   4.351   5.461   3.805 -2.3553 -0.7032 -3.4657
  185POPC   H8Y21321   4.508   5.365   3.789  0.1774 -0.1382  1.2337
  185POPC   C3921322   4.342   5.256   3.875 -0.1207 -0.5151  0.1520
  185POPC   H9X21323   4.383   5.157   3.845 -1.0181 -0.0215 -3.0356
  185POPC   H9Y21324   4.231   5.261   3.863 -0.0263 -0.7621 -0.9278
  185POPC  C31021325   4.378   5.272   4.021  0.1573  0.1915 -0.4454
  185POPC  H10X21326   4.355   5.377   4.050 -2.6434  1.0999 -4.9253
  185POPC  H10Y21327   4.486   5.255   4.040 -0.6796 -1.1327  4.2980
  185POPC  C31121328   4.286   5.178   4.105  0.4178 -0.2186  0.3787
  185POPC  H11X21329   4.301   5.075   4.068  0.9770  0.7801 -2.4081
  185POPC  H11Y21330   4.179   5.201   4.086  0.6877 -0.8851 -2.1631
  185POPC  C31221331   4.318   5.188   4.258 -0.2672  0.2526  0.7797
  185POPC  H12X21332   4.287   5.287   4.299 -1.7402 -0.8031  2.3585
  185POPC  H12Y21333   4.429   5.195   4.264 -0.0390 -1.3711 -0.7384
  185POPC  C31321334   4.242   5.078   4.330 -0.5642 -0.6289 -0.5810
  185POPC  H13X21335   4.280   4.979   4.296  2.4876 -0.4490  1.8093
  185POPC  H13Y21336   4.133   5.087   4.313 -1.0195 -1.2067  1.6816
  185POPC  C31421337   4.266   5.080   4.477  0.5870 -0.6852 -0.0137
  185POPC  H14X21338   4.369   5.112   4.501 -0.3835 -0.1536  4.4041
  185POPC  H14Y21339   4.252   4.981   4.526  1.3799 -0.0278  1.6238
  185POPC  C31521340   4.160   5.170   4.545 -0.1520 -0.0552  0.7067
  185POPC  H15X21341   4.074   5.105   4.571 -1.4931  0.8222 -1.2854
  185POPC  H15Y21342   4.122   5.241   4.469  0.9045 -2.0292 -1.8167
  185POPC  C31621343   4.205   5.243   4.669  0.0160  0.3718  0.0834
  185POPC  H16X21344   4.219   5.165   4.747 -0.7689  0.1897  0.0537
  185POPC  H16Y21345   4.127   5.310   4.712  0.1556 -0.1076  1.0989
  185POPC  H16Z21346   4.300   5.299   4.658  0.0126  0.4635  0.4954
  186POPC     N21347   6.617   1.340   2.666 -0.8720 -0.0055 -0.3790
  186POPC   C1221348   6.584   1.389   2.806 -0.4632  0.2208  0.4970
  186POPC  H12A21349   6.487   1.436   2.805  1.1567  3.9866  2.2576
  186POPC  H12B21350   6.658   1.464   2.829 -0.5937  0.8969 -1.1682
  186POPC   C1321351   6.609   1.443   2.569 -0.2189 -0.3342  0.6020
  186POPC  H13A21352   6.678   1.525   2.578  0.9821 -1.2838  0.2590
  186POPC  H13B21353   6.632   1.407   2.470  0.3962  1.5245  0.0206
  186POPC  H13C21354   6.511   1.486   2.558  0.5930  1.2196 -0.9793
  186POPC   C1421355   6.751   1.287   2.667 -0.3381 -0.1836 -0.0967
  186POPC  H14A21356   6.762   1.196   2.724 -1.2900 -0.9128 -1.0295
  186POPC  H14B21357   6.770   1.248   2.567 -1.3770  0.3157 -0.5044
  186POPC  H14C21358   6.827   1.360   2.686 -1.9786  1.7115 -0.4734
  186POPC   C1521359   6.529   1.229   2.622 -0.0635  0.6280  0.2302
  186POPC  H15A21360   6.555   1.178   2.530 -0.7580 -0.0250  0.3733
  186POPC  H15B21361   6.428   1.264   2.604  0.2103  1.5468  0.4756
  186POPC  H15C21362   6.538   1.142   2.686  1.1086 -1.1061 -2.1307
  186POPC   C1121363   6.581   1.291   2.927 -0.4688 -0.7610  1.5798
  186POPC  H11A21364   6.545   1.347   3.015  0.3064 -0.3380  1.6346
  186POPC  H11B21365   6.684   1.257   2.949 -0.0884 -1.3126 -0.7333
  186POPC     P21366   6.511   1.033   2.973  0.0166 -0.0736  0.2762
  186POPC   O1321367   6.615   0.963   2.892 -0.3595 -0.7813 -0.4588
  186POPC   O1421368   6.381   0.965   2.980  0.2629 -0.4185  0.2727
  186POPC   O1221369   6.495   1.177   2.902 -0.3381  0.3003  0.3480
  186POPC   O1121370   6.566   1.065   3.119 -0.7162 -0.0195  0.1259
  186POPC    C121371   6.476   1.128   3.209  0.6091  0.3079 -0.0124
  186POPC    HA21372   6.372   1.095   3.190  1.0862 -1.5965  0.4645
  186POPC    HB21373   6.495   1.237   3.208 -2.4536  0.9319  0.8768
  186POPC    C221374   6.508   1.083   3.354 -0.3527  0.2736  0.7986
  186POPC    HS21375   6.598   1.134   3.395 -1.1710  2.3030  0.1889
  186POPC   O2121376   6.494   0.939   3.366 -0.5107  0.2735 -0.5725
  186POPC   C2121377   6.570   0.884   3.466  0.4910  0.0785  0.9670
  186POPC   O2221378   6.650   0.941   3.540 -0.1623  0.1501  0.4553
  186POPC   C2221379   6.540   0.733   3.463 -0.3744 -0.3156  0.4531
  186POPC   H2R21380   6.610   0.686   3.391 -0.6367 -2.1972  1.3653
  186POPC   H2S21381   6.437   0.714   3.424  0.4419 -2.9983 -0.6256
  186POPC    C321382   6.391   1.142   3.441 -0.3669  0.1633 -0.3753
  186POPC    HX21383   6.287   1.109   3.423 -0.9205 -0.0049  2.6240
  186POPC    HY21384   6.390   1.251   3.421 -1.3371  0.2192 -0.0758
  186POPC   O3121385   6.400   1.111   3.579 -0.4501 -0.5458  0.0396
  186POPC   C3121386   6.447   1.195   3.678  0.0392 -0.5750  0.3968
  186POPC   O3221387   6.502   1.302   3.650  0.3451 -0.4003  0.6448
  186POPC   C3221388   6.449   1.130   3.821  0.7373 -0.5381  0.0440
  186POPC   H2X21389   6.531   1.055   3.823  1.1622 -0.1828 -1.8885
  186POPC   H2Y21390   6.353   1.075   3.828 -0.5801  1.3689 -1.7162
  186POPC   C2321391   6.538   0.668   3.600  0.6043  0.4365 -1.4341
  186POPC   H3R21392   6.634   0.671   3.657  0.8276 -0.9252 -1.6980
  186POPC   H3S21393   6.511   0.560   3.593 -0.4856  0.4891  1.1355
  186POPC   C2421394   6.427   0.725   3.696 -0.4858 -0.0364 -0.5033
  186POPC   H4R21395   6.327   0.700   3.654  0.0422 -0.9773 -1.2435
  186POPC   H4S21396   6.430   0.836   3.698  0.9868  0.0459 -3.0305
  186POPC   C2521397   6.437   0.666   3.839  0.6082  0.6113  0.6747
  186POPC   H5R21398   6.542   0.675   3.875  0.1564 -1.3924  2.6789
  186POPC   H5S21399   6.402   0.561   3.847 -2.3551  1.5727  1.5111
  186POPC   C2621400   6.340   0.734   3.932  0.4536 -0.2939 -0.4641
  186POPC   H6R21401   6.249   0.738   3.869  1.5712 -0.7102 -2.1623
  186POPC   H6S21402   6.362   0.840   3.955 -0.3631 -0.2665  0.2345
  186POPC   C2721403   6.313   0.661   4.061 -0.2665 -0.1626 -0.1021
  186POPC   H7R21404   6.233   0.586   4.047  1.5902 -2.1362 -0.7112
  186POPC   H7S21405   6.274   0.745   4.123 -0.4868 -0.4622  0.1679
  186POPC   C2821406   6.432   0.590   4.130 -0.3161 -0.3362 -0.4477
  186POPC   H8R21407   6.504   0.674   4.142 -0.7857 -0.1150  0.9520
  186POPC   H8S21408   6.482   0.511   4.070  0.2115 -1.1241  0.9840
  186POPC   C2921409   6.380   0.546   4.262 -0.3467 -0.0596  0.0536
  186POPC   H9121410   6.343   0.442   4.261 -1.4134  0.3075 -0.4901
  186POPC  C21021411   6.367   0.619   4.379  0.1817  0.1467 -0.4300
  186POPC  H10121412   6.341   0.569   4.474 -0.5780 -2.1083 -1.7489
  186POPC  C21121413   6.407   0.764   4.414  0.3564  0.0699  0.3128
  186POPC  H11R21414   6.318   0.824   4.442  1.0599  1.7473 -0.8553
  186POPC  H11S21415   6.439   0.814   4.320  0.0763  2.1212  1.2600
  186POPC  C21221416   6.512   0.774   4.526 -0.4089  0.0674 -0.4406
  186POPC  H12R21417   6.544   0.880   4.537  0.8006 -0.0245 -2.4925
  186POPC  H12S21418   6.611   0.725   4.511  0.3390  1.1612  0.7572
  186POPC  C21321419   6.460   0.716   4.658 -0.5795 -0.0224  0.5078
  186POPC  H13R21420   6.437   0.607   4.654 -1.5938  0.1461  1.2619
  186POPC  H13S21421   6.364   0.760   4.692 -2.8296 -4.7028  0.9939
  186POPC  C21421422   6.562   0.735   4.775  0.3869 -0.4366 -0.5263
  186POPC  H14R21423   6.605   0.837   4.765  1.2206 -0.7721 -0.4912
  186POPC  H14S21424   6.635   0.653   4.757 -0.8625 -2.1072  1.5019
  186POPC  C21521425   6.494   0.723   4.911  0.0090 -0.0833 -0.4921
  186POPC  H15R21426   6.419   0.806   4.907  0.6908  0.5025 -1.2890
  186POPC  H15S21427   6.583   0.751   4.971  2.1073 -0.2373 -3.3518
  186POPC  C21621428   6.450   0.585   4.942 -1.0483  0.3421 -0.2863
  186POPC  H16R21429   6.541   0.524   4.924 -1.2703 -0.3900  0.9885
  186POPC  H16S21430   6.364   0.559   4.878 -1.0429 -0.2866 -0.0432
  186POPC  C21721431   6.421   0.581   5.092 -0.2512  0.4300  0.2371
  186POPC  H17R21432   6.349   0.665   5.098  0.1114  1.1894 -3.4729
  186POPC  H17S21433   6.516   0.593   5.149 -0.1041 -0.3529  0.1684
  186POPC  C21821434   6.361   0.445   5.126  0.1659 -0.0616 -0.0372
  186POPC  H18R21435   6.436   0.380   5.076  3.3417  4.4836 -1.9171
  186POPC  H18S21436   6.352   0.427   5.236 -1.1405  0.3413 -0.0637
  186POPC  H18T21437   6.260   0.438   5.081 -0.7103  1.3411  1.5692
  186POPC   C3321438   6.474   1.223   3.947 -0.0373 -0.1706 -0.6973
  186POPC   H3X21439   6.394   1.300   3.951  0.6100  0.4547  1.6243
  186POPC   H3Y21440   6.570   1.279   3.950 -1.3837  2.2668  2.0867
  186POPC   C3421441   6.451   1.133   4.067  0.2624 -0.0153 -0.7629
  186POPC   H4X21442   6.534   1.059   4.077  0.1420 -0.0154  0.3382
  186POPC   H4Y21443   6.356   1.076   4.067  1.3182 -1.8790 -1.5680
  186POPC   C3521444   6.455   1.210   4.194  0.1312  0.5299  0.5592
  186POPC   H5X21445   6.357   1.258   4.216 -0.2921 -0.7490  1.5737
  186POPC   H5Y21446   6.526   1.294   4.177  0.5676 -0.0696 -0.6683
  186POPC   C3621447   6.477   1.120   4.315 -0.4073  0.0143  0.0041
  186POPC   H6X21448   6.572   1.063   4.310  0.0406  0.6612  0.7477
  186POPC   H6Y21449   6.390   1.052   4.327 -0.8325  0.4269 -0.7147
  186POPC   C3721450   6.477   1.220   4.433  0.1967 -0.4832 -0.5515
  186POPC   H7X21451   6.376   1.265   4.448  0.3645 -0.3662  0.2875
  186POPC   H7Y21452   6.550   1.303   4.417  0.3672 -0.2086  1.3729
  186POPC   C3821453   6.508   1.155   4.569 -0.0718  0.7055 -0.4750
  186POPC   H8X21454   6.615   1.124   4.564  0.0461  1.0143  0.0880
  186POPC   H8Y21455   6.435   1.074   4.587 -0.0203  0.5107 -1.0970
  186POPC   C3921456   6.509   1.241   4.701 -0.7205  0.0869  0.5753
  186POPC   H9X21457   6.416   1.299   4.717 -1.3534 -0.6007 -0.4936
  186POPC   H9Y21458   6.589   1.317   4.692  0.7364 -1.5951 -1.8448
  186POPC  C31021459   6.545   1.152   4.817 -1.1382 -0.1198 -0.0526
  186POPC  H10X21460   6.653   1.126   4.813 -1.1081 -0.3561  1.4916
  186POPC  H10Y21461   6.490   1.055   4.812 -0.6550 -0.3723 -0.6045
  186POPC  C31121462   6.528   1.217   4.956  0.2275 -0.2455  0.3768
  186POPC  H11X21463   6.432   1.272   4.963  0.2625  0.4848 -2.9795
  186POPC  H11Y21464   6.615   1.284   4.975  0.5583 -0.9510  1.4768
  186POPC  C31221465   6.550   1.112   5.074 -0.1788 -0.2361  0.0674
  186POPC  H12X21466   6.646   1.062   5.052 -2.0780 -3.6760 -1.2122
  186POPC  H12Y21467   6.476   1.029   5.073 -0.9098  0.3765  1.0060
  186POPC  C31321468   6.521   1.180   5.204 -0.3322 -0.2974  0.3991
  186POPC  H13X21469   6.496   1.092   5.268 -0.4986 -0.4733  0.0950
  186POPC  H13Y21470   6.435   1.247   5.184 -0.9333 -1.0153  0.5124
  186POPC  C31421471   6.645   1.253   5.250 -0.3954 -0.1613  0.2374
  186POPC  H14X21472   6.669   1.336   5.181 -0.2527 -2.1756 -2.2801
  186POPC  H14Y21473   6.727   1.177   5.252  1.4430  1.7378  0.7091
  186POPC  C31521474   6.637   1.304   5.394 -0.5534 -0.5297  0.1092
  186POPC  H15X21475   6.550   1.264   5.452 -0.5612  1.7500  1.8130
  186POPC  H15Y21476   6.611   1.411   5.386 -1.5096 -0.6862  0.9102
  186POPC  C31621477   6.765   1.284   5.480 -0.4699  0.0478 -0.5580
  186POPC  H16X21478   6.861   1.323   5.440  0.1629 -0.3743  0.5159
  186POPC  H16Y21479   6.781   1.175   5.492 -1.9522 -0.4815 -2.6349
  186POPC  H16Z21480   6.760   1.329   5.581  0.0208 -1.0777 -0.0084
  187POPC     N21481   3.987   5.626   2.277 -0.0701  0.3124  0.4475
  187POPC   C1221482   3.934   5.619   2.421  0.0632 -0.5813  0.7362
  187POPC  H12A21483   3.827   5.626   2.411  0.1980  0.2605 -0.2852
  187POPC  H12B21484   3.961   5.704   2.482  0.3775  0.5813 -0.9596
  187POPC   C1321485   3.917   5.740   2.200  0.2738 -0.0639  0.0108
  187POPC  H13A21486   3.809   5.731   2.200  0.3299 -0.8011  0.4792
  187POPC  H13B21487   3.958   5.829   2.246 -0.5710  1.5427 -2.1762
  187POPC  H13C21488   3.960   5.743   2.101  0.2690 -0.3014  0.0031
  187POPC   C1421489   4.133   5.652   2.279 -0.1468 -0.4501 -0.3028
  187POPC  H14A21490   4.192   5.574   2.324 -2.7887 -1.4793  1.6195
  187POPC  H14B21491   4.177   5.674   2.183  0.2452  3.9659  0.6706
  187POPC  H14C21492   4.152   5.744   2.332 -1.2385 -1.3415  1.7627
  187POPC   C1521493   3.954   5.498   2.200  0.2027  0.5297  0.4124
  187POPC  H15A21494   3.848   5.488   2.177  0.7874  0.1772 -2.5322
  187POPC  H15B21495   3.971   5.413   2.264 -0.6450  0.7084  0.8985
  187POPC  H15C21496   4.014   5.491   2.111 -1.6202  0.8870 -0.8991
  187POPC   C1121497   3.978   5.494   2.509 -0.3574 -0.2214  0.6818
  187POPC  H11A21498   3.956   5.512   2.616  0.1340  3.0823  0.3307
  187POPC  H11B21499   4.088   5.494   2.497 -0.3636  1.9357  0.1904
  187POPC     P21500   3.797   5.301   2.522 -0.1352 -0.6585  0.5344
  187POPC   O1321501   3.819   5.162   2.472  0.6230  0.0031 -0.3231
  187POPC   O1421502   3.664   5.359   2.493  0.2892 -0.2137 -0.2093
  187POPC   O1221503   3.914   5.386   2.452  0.4273 -0.2296 -0.0779
  187POPC   O1121504   3.833   5.317   2.678 -0.5493  0.9579 -0.2369
  187POPC    C121505   3.955   5.258   2.724 -0.1098  0.5108  0.5747
  187POPC    HA21506   4.027   5.338   2.752  0.0126  0.6197 -0.0297
  187POPC    HB21507   4.007   5.209   2.639  1.9630  2.3214  0.6958
  187POPC    C221508   3.942   5.154   2.835  0.3171  0.1630 -0.9901
  187POPC    HS21509   3.914   5.053   2.800  0.8833 -1.8866  3.7410
  187POPC   O2121510   3.857   5.211   2.935 -0.0287  0.8211 -0.1308
  187POPC   C2121511   3.780   5.126   2.997 -0.1332  0.9201 -0.3647
  187POPC   O2221512   3.748   5.013   2.956  0.1931 -0.2337 -0.7996
  187POPC   C2221513   3.711   5.195   3.114 -0.2291  0.2557  0.2042
  187POPC   H2R21514   3.605   5.214   3.086 -0.4634 -0.1518  0.7878
  187POPC   H2S21515   3.746   5.300   3.122 -0.3021  0.3110 -0.1995
  187POPC    C321516   4.074   5.126   2.910  0.0589 -0.1899  0.5291
  187POPC    HX21517   4.130   5.220   2.926  1.1212 -0.7929  0.4483
  187POPC    HY21518   4.131   5.062   2.839 -0.8113 -0.1731 -0.1967
  187POPC   O3121519   4.072   5.057   3.039 -0.4188 -0.6747 -0.1262
  187POPC   C3121520   4.111   4.927   3.043  0.1488 -0.5942  0.6963
  187POPC   O3221521   4.159   4.858   2.956  0.3633 -0.6735 -0.7603
  187POPC   C3221522   4.080   4.878   3.183 -0.2761  0.3131 -0.2386
  187POPC   H2X21523   3.969   4.881   3.187 -0.2779  2.8146 -0.2983
  187POPC   H2Y21524   4.106   4.952   3.262 -3.1895  1.4535 -0.1948
  187POPC   C2321525   3.735   5.122   3.250 -0.0557 -0.1243  0.2399
  187POPC   H3R21526   3.707   5.192   3.332 -1.4161 -0.1799 -0.1569
  187POPC   H3S21527   3.845   5.109   3.260 -0.0854  0.6284  1.8816
  187POPC   C2421528   3.686   4.981   3.266 -0.7186 -0.1883 -0.0778
  187POPC   H4R21529   3.743   4.917   3.196 -0.6139 -0.1587 -0.0193
  187POPC   H4S21530   3.580   4.976   3.233 -1.7027 -1.4408  2.9030
  187POPC   C2521531   3.721   4.929   3.400 -0.2797  0.2809 -0.3654
  187POPC   H5R21532   3.642   4.974   3.464  0.1605  3.1189 -1.6532
  187POPC   H5S21533   3.822   4.952   3.440 -0.6706  1.3721  0.0463
  187POPC   C2621534   3.691   4.781   3.420  0.1115 -0.0432  0.7348
  187POPC   H6R21535   3.764   4.733   3.352  1.5865  0.9082  1.6138
  187POPC   H6S21536   3.587   4.750   3.394  0.7795  0.1282 -2.4938
  187POPC   C2721537   3.716   4.740   3.568  0.8236 -0.3864  0.4581
  187POPC   H7R21538   3.632   4.771   3.633  2.1921  0.7642  1.7181
  187POPC   H7S21539   3.811   4.793   3.590 -0.7599  2.5413  0.6386
  187POPC   C2821540   3.748   4.587   3.593  0.6391  0.1404 -0.5583
  187POPC   H8R21541   3.787   4.576   3.697 -0.8339 -0.4807 -0.0411
  187POPC   H8S21542   3.828   4.554   3.525  1.6220  0.5760  0.3570
  187POPC   C2921543   3.616   4.502   3.597 -0.3949  0.0287 -0.2409
  187POPC   H9121544   3.584   4.470   3.497  1.6932 -0.6274 -0.7517
  187POPC  C21021545   3.562   4.455   3.709  0.9659 -0.1198 -0.1917
  187POPC  H10121546   3.469   4.400   3.687  1.3099 -0.2695 -1.3287
  187POPC  C21121547   3.576   4.490   3.860 -0.8125 -0.3166  0.1449
  187POPC  H11R21548   3.481   4.459   3.908 -1.1321  0.0980 -0.2202
  187POPC  H11S21549   3.594   4.599   3.867 -3.8964  0.2631  0.2629
  187POPC  C21221550   3.693   4.408   3.924  0.1055  0.5871 -0.8313
  187POPC  H12R21551   3.796   4.441   3.898  0.3389  0.0969 -0.5481
  187POPC  H12S21552   3.691   4.303   3.888  0.8870  0.5526 -0.7834
  187POPC  C21321553   3.677   4.402   4.075 -0.3601  0.8823 -0.2363
  187POPC  H13R21554   3.583   4.347   4.102 -0.1305  0.9396  0.7035
  187POPC  H13S21555   3.677   4.507   4.111 -1.4575  0.0387  2.4517
  187POPC  C21421556   3.800   4.333   4.146 -0.5360  0.4504  0.3202
  187POPC  H14R21557   3.885   4.403   4.131 -1.9728  2.1137 -0.3535
  187POPC  H14S21558   3.819   4.235   4.098 -1.6997  0.5846 -0.4361
  187POPC  C21521559   3.779   4.304   4.295  0.5870  0.2844  0.6560
  187POPC  H15R21560   3.705   4.221   4.291 -0.5408  1.2936 -1.5947
  187POPC  H15S21561   3.746   4.395   4.349  0.3752  0.5761  0.0507
  187POPC  C21621562   3.907   4.245   4.359 -0.6258  0.0111 -0.4015
  187POPC  H16R21563   3.984   4.324   4.346  0.4553 -0.9427 -0.0189
  187POPC  H16S21564   3.936   4.159   4.294  0.7544  0.7445 -0.8032
  187POPC  C21721565   3.891   4.211   4.509 -0.2261  0.2877  0.1101
  187POPC  H17R21566   3.813   4.132   4.511  0.0954 -0.0438 -0.3261
  187POPC  H17S21567   3.851   4.301   4.560  0.8938  1.5353 -1.1457
  187POPC  C21821568   4.018   4.162   4.578 -0.9271  0.5361 -0.5038
  187POPC  H18R21569   4.094   4.243   4.587  0.4322 -0.7804  0.2856
  187POPC  H18S21570   4.059   4.086   4.509 -2.3793 -1.0045  0.2727
  187POPC  H18T21571   3.995   4.117   4.676  0.2174 -0.7341 -0.8012
  187POPC   C3321572   4.126   4.734   3.215 -0.0667  0.4173  0.5010
  187POPC   H3X21573   4.232   4.710   3.190 -0.1257  2.3947 -2.2129
  187POPC   H3Y21574   4.072   4.664   3.148 -0.5335  1.8924 -0.7396
  187POPC   C3421575   4.096   4.681   3.351 -0.2003  0.4824  0.6828
  187POPC   H4X21576   4.135   4.578   3.360 -1.2547  0.1727  1.8647
  187POPC   H4Y21577   3.987   4.661   3.355 -0.2148  0.6006  0.9063
  187POPC   C3521578   4.151   4.768   3.467  0.0080 -0.7679 -0.6183
  187POPC   H5X21579   4.108   4.870   3.475  2.7432  0.4968 -0.8057
  187POPC   H5Y21580   4.261   4.781   3.471  0.0531 -1.2871  2.7046
  187POPC   C3621581   4.118   4.689   3.601 -0.2841 -0.5933 -0.3285
  187POPC   H6X21582   4.196   4.610   3.597  3.2314  2.5957 -0.9725
  187POPC   H6Y21583   4.016   4.645   3.598 -0.2199 -0.7285 -0.5633
  187POPC   C3721584   4.128   4.773   3.729  0.2778 -0.0963 -0.1503
  187POPC   H7X21585   4.064   4.864   3.729  0.6719  0.1962 -1.3851
  187POPC   H7Y21586   4.231   4.809   3.747 -1.0509  6.5105 -2.7848
  187POPC   C3821587   4.081   4.677   3.849 -0.0708 -0.1218 -0.2321
  187POPC   H8X21588   4.174   4.634   3.893  0.1444 -0.0873 -0.6408
  187POPC   H8Y21589   4.019   4.591   3.814  1.7931 -1.0363 -1.4657
  187POPC   C3921590   4.014   4.769   3.955 -0.2103 -0.2587 -0.3790
  187POPC   H9X21591   3.907   4.780   3.928 -0.2532  0.7523  0.1615
  187POPC   H9Y21592   4.062   4.869   3.950 -0.6453 -0.0936 -2.1125
  187POPC  C31021593   4.011   4.713   4.091  0.0589  0.1437  0.0594
  187POPC  H10X21594   3.997   4.604   4.078  2.6377 -0.0985 -1.5056
  187POPC  H10Y21595   3.926   4.752   4.150  0.1393  1.3505 -0.5827
  187POPC  C31121596   4.139   4.731   4.171 -0.0951 -0.3817  0.3757
  187POPC  H11X21597   4.152   4.841   4.184  1.5428 -0.3470 -1.1946
  187POPC  H11Y21598   4.223   4.688   4.113  0.2810 -0.5906  1.0678
  187POPC  C31221599   4.147   4.636   4.300 -0.1311 -0.1641 -0.3589
  187POPC  H12X21600   4.250   4.637   4.341 -0.7089  1.8029  1.1958
  187POPC  H12Y21601   4.116   4.534   4.266  2.6090 -1.5058  0.8382
  187POPC  C31321602   4.063   4.679   4.416  0.1333  0.6401 -0.3427
  187POPC  H13X21603   3.962   4.662   4.373  0.2955 -4.4737  0.5971
  187POPC  H13Y21604   4.083   4.786   4.439  1.0373  0.1496  1.3145
  187POPC  C31421605   4.089   4.584   4.536  0.1394 -0.6875  0.8357
  187POPC  H14X21606   4.199   4.578   4.549  0.6682  2.0703 -1.3127
  187POPC  H14Y21607   4.050   4.485   4.502 -1.7178  0.2739  0.0591
  187POPC  C31521608   4.008   4.632   4.662 -0.3146  0.3246 -0.0321
  187POPC  H15X21609   3.905   4.665   4.636 -0.7936 -2.0360 -1.3981
  187POPC  H15Y21610   4.066   4.722   4.693  0.6416 -0.0304 -0.7164
  187POPC  C31621611   4.013   4.525   4.763 -0.0795 -0.5018  0.6399
  187POPC  H16X21612   4.118   4.516   4.796  0.7376  2.1675 -0.9580
  187POPC  H16Y21613   3.985   4.423   4.726  2.0174 -0.1776 -2.1965
  187POPC  H16Z21614   3.950   4.543   4.853  1.5730  2.1145  1.3604
  188POPC     N21615   0.530   5.230   2.361 -0.1398  0.0195  0.4447
  188POPC   C1221616   0.477   5.330   2.460  0.2498  0.4515  0.2743
  188POPC  H12A21617   0.417   5.395   2.398  1.8351  1.9542  0.2526
  188POPC  H12B21618   0.561   5.386   2.498  2.2647 -0.6589 -2.2340
  188POPC   C1321619   0.431   5.169   2.272 -0.4135  0.4786  0.1314
  188POPC  H13A21620   0.488   5.113   2.199 -1.0686 -0.9512  0.6756
  188POPC  H13B21621   0.357   5.112   2.327  2.3504 -0.9356  2.7235
  188POPC  H13C21622   0.378   5.252   2.228  0.6011  1.0266 -0.0866
  188POPC   C1421623   0.631   5.289   2.271  0.5192 -0.0516  0.0775
  188POPC  H14A21624   0.585   5.355   2.198  0.6335 -0.1965 -0.1266
  188POPC  H14B21625   0.700   5.340   2.337  1.0643 -2.9672  1.9774
  188POPC  H14C21626   0.685   5.207   2.226 -0.7786 -1.8112  1.5326
  188POPC   C1521627   0.597   5.126   2.435 -0.0843 -0.0896 -0.4229
  188POPC  H15A21628   0.526   5.072   2.497 -0.9490 -0.3927 -1.6411
  188POPC  H15B21629   0.672   5.153   2.509 -0.1966  0.2227 -0.4212
  188POPC  H15C21630   0.647   5.056   2.370 -1.0482 -0.2600 -0.9981
  188POPC   C1121631   0.386   5.297   2.578 -0.0274 -0.0787  0.0961
  188POPC  H11A21632   0.373   5.398   2.620 -1.2922 -0.1670 -0.0333
  188POPC  H11B21633   0.440   5.229   2.647  0.0488 -0.4105 -0.2800
  188POPC     P21634   0.135   5.330   2.492 -0.1970 -0.2230  0.1010
  188POPC   O1321635   0.016   5.247   2.463 -0.2133  0.3233 -0.3633
  188POPC   O1421636   0.169   5.432   2.385 -0.0054  0.5948  0.7130
  188POPC   O1221637   0.258   5.244   2.535 -0.0691  0.4808  0.0742
  188POPC   O1121638   0.108   5.417   2.628 -0.3443  0.0935 -0.6529
  188POPC    C121639   0.058   5.342   2.737  0.3518  0.0307  0.2926
  188POPC    HA21640   0.128   5.264   2.771 -1.4267 -1.5750  0.4572
  188POPC    HB21641  -0.037   5.289   2.714  0.8205 -1.2353  1.1930
  188POPC    C221642   0.029   5.450   2.845 -0.0189  0.5249 -0.3904
  188POPC    HS21643  -0.013   5.384   2.924  0.3881 -0.7985 -1.2458
  188POPC   O2121644  -0.074   5.535   2.801  0.3663 -0.3926  0.0487
  188POPC   C2121645  -0.161   5.579   2.889  0.0786 -0.1507 -0.2748
  188POPC   O2221646  -0.163   5.549   3.007 -0.5743  0.3667 -0.1010
  188POPC   C2221647  -0.257   5.673   2.815 -0.1388  0.3121  0.7022
  188POPC   H2R21648  -0.307   5.603   2.745  0.5319 -1.0859  1.5616
  188POPC   H2S21649  -0.193   5.744   2.757  0.5433 -1.0686 -0.3081
  188POPC    C321650   0.156   5.525   2.878  0.3881  0.6770  0.5174
  188POPC    HX21651   0.167   5.602   2.799 -2.1214 -0.4396 -1.0068
  188POPC    HY21652   0.245   5.458   2.877 -1.6207 -2.1696 -0.0861
  188POPC   O3121653   0.143   5.599   2.997  0.4683  0.0086  0.2681
  188POPC   C3121654   0.138   5.532   3.107 -0.8387  0.2459  0.9927
  188POPC   O3221655   0.166   5.410   3.112  0.0305  0.0704 -0.0054
  188POPC   C3221656   0.106   5.637   3.220  0.0432 -0.6621  0.9193
  188POPC   H2X21657   0.014   5.684   3.179  0.3928  0.2476  1.1404
  188POPC   H2Y21658   0.196   5.703   3.228 -0.6803  0.7134 -1.2751
  188POPC   C2321659  -0.364   5.734   2.901  0.0813 -0.4923 -0.6591
  188POPC   H3R21660  -0.415   5.811   2.839 -1.9328 -0.6577  0.6991
  188POPC   H3S21661  -0.317   5.792   2.983  0.6470 -0.0362 -1.2921
  188POPC   C2421662  -0.467   5.640   2.962  0.0708 -0.1874 -0.0244
  188POPC   H4R21663  -0.419   5.552   3.010 -1.1835 -0.2698  1.1164
  188POPC   H4S21664  -0.539   5.615   2.882 -2.0585 -0.1957  1.8087
  188POPC   C2521665  -0.555   5.712   3.059  0.3581 -0.1657 -0.6721
  188POPC   H5R21666  -0.659   5.672   3.055  0.2736 -0.1990  1.0293
  188POPC   H5S21667  -0.555   5.822   3.043 -3.8036  0.6097  2.7858
  188POPC   C2621668  -0.524   5.685   3.211  0.1887  0.1336  0.1617
  188POPC   H6R21669  -0.531   5.576   3.227 -1.1825  0.0130 -1.0177
  188POPC   H6S21670  -0.608   5.731   3.266 -0.6199 -1.9659  0.7556
  188POPC   C2721671  -0.392   5.751   3.255 -0.3695 -0.5719  0.5814
  188POPC   H7R21672  -0.401   5.858   3.226  0.7137 -0.7250 -0.3670
  188POPC   H7S21673  -0.311   5.698   3.202  0.5163 -0.9180  2.2047
  188POPC   C2821674  -0.373   5.743   3.404 -0.6355  0.4493 -0.0246
  188POPC   H8R21675  -0.442   5.807   3.463  0.2003 -0.4085  1.9794
  188POPC   H8S21676  -0.272   5.782   3.432  1.6189 -3.6738 -1.5681
  188POPC   C2921677  -0.382   5.604   3.462  0.2423 -0.7186  0.2997
  188POPC   H9121678  -0.328   5.527   3.405 -0.9103 -0.1530 -1.6738
  188POPC  C21021679  -0.446   5.567   3.575 -0.0499 -0.4383 -0.0115
  188POPC  H10121680  -0.433   5.460   3.596  0.5436 -0.6321 -1.3111
  188POPC  C21121681  -0.525   5.639   3.680 -0.0816 -0.7839  0.2375
  188POPC  H11R21682  -0.621   5.586   3.696 -1.2284  1.1533  0.1585
  188POPC  H11S21683  -0.554   5.743   3.654  1.2776 -0.8159 -1.6550
  188POPC  C21221684  -0.433   5.620   3.808 -0.0995 -0.4920  0.1626
  188POPC  H12R21685  -0.347   5.691   3.806  0.7584 -1.4706  1.1365
  188POPC  H12S21686  -0.382   5.522   3.817 -1.7289 -1.2684  1.4208
  188POPC  C21321687  -0.514   5.633   3.944 -0.7767 -0.0853  0.7588
  188POPC  H13R21688  -0.600   5.564   3.933 -0.7984 -0.1630  1.4085
  188POPC  H13S21689  -0.539   5.740   3.955  2.5734  0.8415  0.5932
  188POPC  C21421690  -0.438   5.589   4.071 -0.4670  0.0070 -0.9284
  188POPC  H14R21691  -0.352   5.658   4.077 -0.9086  0.7416 -2.4265
  188POPC  H14S21692  -0.409   5.482   4.067  2.2824  0.6682 -0.6384
  188POPC  C21521693  -0.523   5.615   4.196 -0.2459 -0.0473 -0.6179
  188POPC  H15R21694  -0.624   5.569   4.192 -0.0689 -0.4303 -0.7193
  188POPC  H15S21695  -0.546   5.724   4.207  0.8188  0.0014  1.6468
  188POPC  C21621696  -0.446   5.574   4.328  0.3542  0.1133  0.8498
  188POPC  H16R21697  -0.356   5.638   4.345  1.7475 -1.5818  0.1018
  188POPC  H16S21698  -0.409   5.470   4.318  0.8992  0.5065 -2.9683
  188POPC  C21721699  -0.538   5.592   4.448  0.6866 -0.5174  0.4219
  188POPC  H17R21700  -0.476   5.553   4.532  0.4682 -0.4746  0.6039
  188POPC  H17S21701  -0.626   5.529   4.426  1.2224 -1.0411 -0.2595
  188POPC  C21821702  -0.604   5.727   4.484  0.2378 -0.4245 -0.1302
  188POPC  H18R21703  -0.642   5.732   4.588  2.3190  1.1706  0.6283
  188POPC  H18S21704  -0.688   5.746   4.414 -0.1809  0.1568  0.5193
  188POPC  H18T21705  -0.527   5.806   4.468  0.2498 -0.1441  1.1900
  188POPC   C3321706   0.085   5.555   3.351  0.2958 -0.1863 -0.0410
  188POPC   H3X21707   0.188   5.522   3.377  1.1683 -0.9951 -3.7823
  188POPC   H3Y21708   0.012   5.477   3.322 -0.2150  0.6143 -1.0068
  188POPC   C3421709   0.024   5.636   3.465  0.1882  0.1048 -0.5474
  188POPC   H4X21710  -0.072   5.689   3.445 -0.0195 -0.2811 -0.5785
  188POPC   H4Y21711   0.095   5.720   3.481  2.8535 -2.1813  0.5609
  188POPC   C3521712   0.021   5.565   3.598  0.0954 -0.0535  0.5403
  188POPC   H5X21713   0.125   5.533   3.620 -0.4985 -4.2377 -1.7608
  188POPC   H5Y21714  -0.044   5.477   3.616 -1.8966  1.1582 -0.4202
  188POPC   C3621715  -0.016   5.657   3.716 -0.5376  0.0064  0.4833
  188POPC   H6X21716  -0.127   5.647   3.712 -0.3834 -1.8298 -0.7355
  188POPC   H6Y21717   0.036   5.754   3.702  1.6961 -1.3293 -1.1186
  188POPC   C3721718   0.027   5.611   3.853  0.3119 -0.3994 -0.2572
  188POPC   H7X21719   0.138   5.619   3.861  0.0946  3.6270  0.3895
  188POPC   H7Y21720  -0.002   5.505   3.872 -0.4003 -0.1737 -0.0778
  188POPC   C3821721  -0.046   5.699   3.959 -0.3199  0.3591 -0.4400
  188POPC   H8X21722  -0.155   5.689   3.938 -0.1566 -1.5514 -0.5574
  188POPC   H8Y21723  -0.017   5.806   3.955 -1.4468  0.7035  0.1038
  188POPC   C3921724  -0.032   5.648   4.107 -0.1547 -0.0062 -0.2462
  188POPC   H9X21725  -0.069   5.543   4.109  0.8239 -0.3868 -0.9897
  188POPC   H9Y21726  -0.088   5.706   4.183 -0.2906  0.4826 -0.7097
  188POPC  C31021727   0.116   5.655   4.152  0.4334  0.9715  0.0356
  188POPC  H10X21728   0.173   5.737   4.103  1.7145 -0.8626 -1.7231
  188POPC  H10Y21729   0.175   5.568   4.115  0.4510  0.9536  0.1063
  188POPC  C31121730   0.132   5.655   4.304  0.5099  0.6087 -0.0699
  188POPC  H11X21731   0.097   5.753   4.342  0.2331  0.7717 -0.7193
  188POPC  H11Y21732   0.240   5.636   4.326  0.4854 -1.4230 -1.4720
  188POPC  C31221733   0.054   5.556   4.392  0.0362 -0.5241 -0.1394
  188POPC  H12X21734   0.076   5.453   4.358  1.9392 -0.3449  0.4595
  188POPC  H12Y21735  -0.056   5.572   4.389 -0.2241 -2.2915 -1.6419
  188POPC  C31321736   0.092   5.577   4.548 -0.4457 -0.6054  0.4618
  188POPC  H13X21737   0.067   5.673   4.598  0.0036  0.2509 -0.8852
  188POPC  H13Y21738   0.202   5.560   4.550 -0.2210  0.5470 -0.6692
  188POPC  C31421739   0.019   5.479   4.635  0.4654 -0.7431 -0.3962
  188POPC  H14X21740   0.032   5.379   4.588 -0.7313 -1.0146 -0.1953
  188POPC  H14Y21741  -0.090   5.492   4.655 -0.0403 -3.3215 -1.1659
  188POPC  C31521742   0.077   5.469   4.785 -0.3708  0.0034  0.3355
  188POPC  H15X21743   0.180   5.428   4.782 -0.4970 -0.3086 -2.6313
  188POPC  H15Y21744   0.010   5.394   4.831 -3.6788  1.5912 -1.5385
  188POPC  C31621745   0.078   5.597   4.869 -0.4558  0.3514 -0.1261
  188POPC  H16X21746   0.144   5.677   4.829 -0.8178  0.0575 -1.3520
  188POPC  H16Y21747   0.119   5.572   4.970 -1.0900 -0.2840 -0.0184
  188POPC  H16Z21748  -0.028   5.628   4.882 -1.6813 -2.1261 -3.0658
  189SAPI   C1221749   5.794   3.583   7.587 -0.3964  0.0453  0.7461
  189SAPI    H221750   5.760   3.507   7.514 -0.4267 -2.2835  3.0245
  189SAPI    O221751   5.843   3.518   7.708 -0.1967 -0.4952 -0.5455
  189SAPI   HO221752   5.860   3.425   7.690  1.0042 -0.2991 -0.5169
  189SAPI   C1321753   5.889   3.681   7.529 -0.4712  0.3051  0.1047
  189SAPI    H321754   5.850   3.743   7.445  0.4817  1.5114  0.5329
  189SAPI    O321755   6.001   3.619   7.470  0.2838  0.7800 -0.0012
  189SAPI   HO321756   6.052   3.684   7.421  1.1175 -0.6268 -1.0856
  189SAPI   C1421757   5.939   3.781   7.632 -0.0698 -0.8916 -0.1092
  189SAPI    H421758   5.998   3.728   7.710  1.0615  0.9906  0.3678
  189SAPI    O421759   6.024   3.885   7.592 -0.1212 -0.0054 -0.0016
  189SAPI   HO421760   5.971   3.946   7.540 -0.3043  0.0131  0.2037
  189SAPI   C1521761   5.817   3.838   7.717 -0.1133 -0.1684  0.8065
  189SAPI    H521762   5.782   3.925   7.657 -2.4812 -1.9645 -0.5596
  189SAPI    O521763   5.851   3.878   7.843 -0.3481 -0.2942 -0.1678
  189SAPI   HO521764   5.893   3.964   7.838 -1.5307  0.2528 -1.3747
  189SAPI   C1621765   5.688   3.760   7.720  0.3400 -0.0534 -0.7080
  189SAPI    H621766   5.699   3.696   7.810 -1.7122  1.1007  0.4234
  189SAPI    O621767   5.571   3.840   7.735 -0.5225 -0.1119 -0.0798
  189SAPI   HO621768   5.494   3.800   7.694 -1.8396  0.5224  1.6357
  189SAPI   C1121769   5.666   3.652   7.605  0.1484  0.1188 -0.2882
  189SAPI    H121770   5.634   3.710   7.516 -0.0710  0.6752  0.1385
  189SAPI     P21771   5.398   3.565   7.620  0.1425 -0.0013 -0.3501
  189SAPI   O1321772   5.360   3.702   7.655  0.2376 -0.0128 -0.0023
  189SAPI   O1421773   5.339   3.453   7.705  0.1046  0.6488 -0.2177
  189SAPI   O1221774   5.559   3.560   7.638 -0.1372  0.0398  0.1192
  189SAPI   O1121775   5.381   3.535   7.475  0.3590  0.0379  0.6032
  189SAPI    C121776   5.389   3.398   7.423  0.0182 -0.5825 -0.1182
  189SAPI    HA21777   5.489   3.361   7.455  0.8204  0.8848 -0.8390
  189SAPI    HB21778   5.312   3.330   7.467  0.1345  0.5956  2.0462
  189SAPI    C221779   5.383   3.390   7.266  0.0493  0.7262 -0.8640
  189SAPI    HS21780   5.407   3.288   7.228 -1.0900  0.0670  0.1134
  189SAPI   O2121781   5.475   3.489   7.212  0.2393 -0.3686 -0.1821
  189SAPI   C2121782   5.599   3.472   7.244  0.7011  0.1375  0.0145
  189SAPI   O2221783   5.658   3.369   7.283  0.3343 -0.1768 -0.3751
  189SAPI   C2221784   5.670   3.601   7.198  0.2325 -0.1689  0.2417
  189SAPI   H2R21785   5.590   3.669   7.162 -0.8887 -1.1419  0.8317
  189SAPI   H2S21786   5.707   3.641   7.295 -1.5343  0.4786  0.6983
  189SAPI    C321787   5.235   3.422   7.215 -0.2783 -0.1566  0.2520
  189SAPI    HX21788   5.222   3.529   7.241 -1.5404 -0.0852 -0.6268
  189SAPI    HY21789   5.159   3.371   7.277  1.4824 -1.5345  1.3889
  189SAPI   O3121790   5.215   3.402   7.075 -0.8228 -0.5037  0.1681
  189SAPI   C3121791   5.230   3.278   7.034  0.2273  0.4104 -0.3621
  189SAPI   O3221792   5.256   3.182   7.107 -0.3446  0.3150  0.3100
  189SAPI   C3221793   5.218   3.268   6.880  0.2999  0.2771  0.5561
  189SAPI   H2X21794   5.112   3.262   6.848  0.4842 -2.5241  0.1969
  189SAPI   H2Y21795   5.256   3.164   6.865  1.6329  0.8269 -0.0954
  189SAPI   C2321796   5.789   3.568   7.108 -0.3783 -0.2473  0.2012
  189SAPI   H3R21797   5.758   3.494   7.031 -0.2017 -1.0453  0.8977
  189SAPI   H3S21798   5.869   3.533   7.175  1.0161  2.1221 -0.1186
  189SAPI   C2421799   5.838   3.700   7.036 -0.2981  0.3010 -0.1405
  189SAPI   H4R21800   5.942   3.675   7.005  0.5208 -0.5935  2.9609
  189SAPI   H4S21801   5.853   3.768   7.123  0.4423 -1.9939  1.6315
  189SAPI   C2521802   5.752   3.760   6.924  0.6025  0.4019 -0.0454
  189SAPI   H5R21803   5.671   3.831   6.948  0.8591  0.0025  2.2469
  189SAPI   C2621804   5.770   3.744   6.793 -0.9352 -0.0577 -0.2672
  189SAPI   H6R21805   5.686   3.774   6.730 -1.2048 -2.1500 -0.9761
  189SAPI   C2721806   5.883   3.668   6.727 -0.2331  0.2544  0.2011
  189SAPI   H7R21807   5.829   3.587   6.674 -0.4807  0.1114  0.6645
  189SAPI   H7S21808   5.947   3.622   6.805 -2.0662 -0.8552  1.1301
  189SAPI   C2821809   5.959   3.757   6.630 -0.1677 -0.3862 -0.0459
  189SAPI   H8R21810   6.043   3.804   6.683  1.8918 -2.8026 -0.9327
  189SAPI   C2921811   5.927   3.799   6.507 -0.4546  0.2898 -0.1294
  189SAPI   H9R21812   5.997   3.867   6.458  0.9070 -1.5786 -0.8835
  189SAPI  C21021813   5.818   3.751   6.425 -0.4878  0.0957 -0.1843
  189SAPI  H10R21814   5.779   3.827   6.354 -0.9211 -1.0638 -1.2098
  189SAPI  H10S21815   5.736   3.723   6.495  0.7350  0.4553  1.4682
  189SAPI  C21121816   5.848   3.631   6.341 -0.0029 -0.2178 -0.8017
  189SAPI  H11R21817   5.918   3.561   6.389  1.1067  1.9167  0.9306
  189SAPI  C21221818   5.810   3.593   6.220  0.0505  0.3586 -0.2389
  189SAPI  H12R21819   5.835   3.493   6.180 -0.9801  0.7786 -2.0334
  189SAPI  C21321820   5.731   3.672   6.118  1.0559 -0.8394 -0.4973
  189SAPI  H13R21821   5.795   3.722   6.042  1.4529 -1.8124 -0.8281
  189SAPI  H13S21822   5.693   3.761   6.171  1.5309  0.4189 -2.1817
  189SAPI  C21421823   5.615   3.584   6.065  0.4293  0.2535 -1.1982
  189SAPI  H14R21824   5.525   3.580   6.126 -0.1550 -0.5890 -2.0802
  189SAPI  C21521825   5.631   3.500   5.962 -0.1815  0.5769 -0.6200
  189SAPI  H15R21826   5.552   3.431   5.927  1.0664 -0.6562 -1.0970
  189SAPI  C21621827   5.748   3.478   5.871 -0.4202 -0.0748 -0.5872
  189SAPI  H16R21828   5.816   3.399   5.908 -0.1205  0.7439  0.6789
  189SAPI  H16S21829   5.812   3.568   5.861  0.0513 -0.2755  0.4251
  189SAPI  C21721830   5.709   3.440   5.723  0.1828 -0.1260 -0.5462
  189SAPI  H17R21831   5.801   3.451   5.662 -0.2600 -1.4834 -1.5192
  189SAPI  H17S21832   5.637   3.517   5.687  1.9267  1.1366 -1.5122
  189SAPI  C21821833   5.652   3.299   5.700 -0.4039 -0.4871  0.0541
  189SAPI  H18R21834   5.565   3.287   5.768 -0.1722 -1.0249  0.2595
  189SAPI  H18S21835   5.722   3.220   5.734 -3.3048 -2.1085  2.7654
  189SAPI  C21921836   5.608   3.275   5.552 -0.0713 -0.6681  0.0755
  189SAPI  H19R21837   5.529   3.350   5.528  0.2517 -0.7764 -1.3843
  189SAPI  H19S21838   5.550   3.181   5.555  1.2069 -1.4974 -0.6416
  189SAPI  C22021839   5.713   3.279   5.447 -0.3900 -0.0858 -0.1853
  189SAPI  H20R21840   5.754   3.382   5.440 -1.3571  0.3000 -0.3283
  189SAPI  H20S21841   5.684   3.255   5.342  2.0906 -1.6419 -0.6024
  189SAPI  H20T21842   5.790   3.201   5.463 -1.1432 -0.3500  2.6371
  189SAPI   C3321843   5.302   3.364   6.797 -0.2226  0.1479 -0.1752
  189SAPI   H3X21844   5.272   3.471   6.805 -0.3145  0.2106 -1.3115
  189SAPI   H3Y21845   5.309   3.336   6.690 -3.6264  2.6580 -1.2302
  189SAPI   C3421846   5.455   3.364   6.840  0.3083 -0.3608 -1.2865
  189SAPI   H4X21847   5.506   3.266   6.828 -1.2967 -1.4388  0.1752
  189SAPI   H4Y21848   5.468   3.370   6.950 -1.2254  0.3160 -1.1227
  189SAPI   C3521849   5.534   3.477   6.779  1.2286  0.3819 -0.2671
  189SAPI   H5X21850   5.635   3.474   6.824  1.2940 -0.0489 -0.4349
  189SAPI   H5Y21851   5.488   3.570   6.819 -1.0313 -1.1557  0.9712
  189SAPI   C3621852   5.554   3.471   6.623  0.0009  0.5311 -0.4865
  189SAPI   H6X21853   5.615   3.562   6.599  0.8809 -0.2647 -1.3814
  189SAPI   H6Y21854   5.459   3.475   6.565 -0.9757 -1.4934  0.8601
  189SAPI   C3721855   5.640   3.348   6.573 -0.4620 -0.3855 -0.1524
  189SAPI   H7X21856   5.585   3.258   6.606 -2.6314  0.9929  0.1860
  189SAPI   H7Y21857   5.740   3.351   6.622 -0.0470 -1.4416 -0.9127
  189SAPI   C3821858   5.636   3.336   6.425  0.1902 -0.0747 -0.0468
  189SAPI   H8X21859   5.722   3.393   6.383 -0.1955  2.0663  1.9049
  189SAPI   H8Y21860   5.545   3.383   6.382 -0.7125 -1.1946  0.5719
  189SAPI   C3921861   5.643   3.191   6.370  0.0029 -0.1144  0.3329
  189SAPI   H9X21862   5.546   3.138   6.383  0.1789 -0.5470 -0.0893
  189SAPI   H9Y21863   5.729   3.135   6.410 -0.5239 -0.9581  0.3066
  189SAPI  C31021864   5.654   3.202   6.219 -0.5794 -0.1558 -0.4179
  189SAPI  H10X21865   5.757   3.236   6.198  1.0598 -3.2592  1.8387
  189SAPI  H10Y21866   5.570   3.265   6.180  0.0557  2.1428  1.7006
  189SAPI  C31121867   5.644   3.065   6.158  0.2660 -0.0309  0.8207
  189SAPI  H11X21868   5.538   3.033   6.173 -0.0688  0.6774  0.0576
  189SAPI  H11Y21869   5.705   2.994   6.217 -1.1886 -0.3941  1.9615
  189SAPI  C31221870   5.687   3.063   6.014 -0.2836  0.2342 -0.4329
  189SAPI  H12X21871   5.796   3.080   6.000 -0.0088 -0.8219  0.3133
  189SAPI  H12Y21872   5.639   3.146   5.959  0.3726 -0.1982 -1.6834
  189SAPI  C31321873   5.638   2.930   5.950  0.1236  0.6273 -0.5212
  189SAPI  H13X21874   5.531   2.915   5.975  0.6670 -1.1266  0.9534
  189SAPI  H13Y21875   5.697   2.847   5.993  0.8643  1.6272  0.4545
  189SAPI  C31421876   5.659   2.941   5.799 -0.5167  0.2906  0.1370
  189SAPI  H14X21877   5.765   2.960   5.773 -1.1395  2.4541 -1.1174
  189SAPI  H14Y21878   5.603   3.030   5.761 -0.9711 -0.5631 -1.2918
  189SAPI  C31521879   5.606   2.817   5.722 -0.1793 -0.2845 -0.1556
  189SAPI  H15X21880   5.498   2.802   5.743 -0.5166  1.2397 -0.7167
  189SAPI  H15Y21881   5.667   2.728   5.751 -1.7515 -0.6832  2.2503
  189SAPI  C31621882   5.624   2.821   5.573  0.3473  0.0206  0.3018
  189SAPI  H16X21883   5.555   2.905   5.550  0.2830 -0.2981 -0.7586
  189SAPI  H16Y21884   5.578   2.729   5.530  0.8242 -0.6290  1.1739
  189SAPI  C31721885   5.768   2.854   5.518  0.6862 -0.6555 -0.9229
  189SAPI  H17X21886   5.819   2.941   5.565 -1.0047  0.4336 -1.0188
  189SAPI  H17Y21887   5.755   2.885   5.412 -0.0610  1.4902 -0.2516
  189SAPI  C31821888   5.857   2.730   5.531 -0.1815  0.0678  0.2330
  189SAPI  H18X21889   5.881   2.706   5.636 -0.8957  0.2812  0.4522
  189SAPI  H18Y21890   5.953   2.749   5.478 -0.4667  1.0592  0.0445
  189SAPI  H18Z21891   5.804   2.643   5.485 -0.1602 -1.2853  2.6193
  190SAPI   C1221892   3.593   0.893   7.534 -0.6826 -0.5353  0.4361
  190SAPI    H221893   3.653   0.820   7.475  1.5661  0.7451  1.0239
  190SAPI    O221894   3.462   0.846   7.528  0.2740  0.5201 -0.6086
  190SAPI   HO221895   3.427   0.873   7.442 -1.6067 -0.0169 -0.0619
  190SAPI   C1321896   3.637   0.916   7.678  0.3505 -0.1309  0.5018
  190SAPI    H321897   3.735   0.968   7.671 -1.2464  2.9491 -0.7906
  190SAPI    O321898   3.652   0.794   7.751 -0.1781  0.2288 -0.0593
  190SAPI   HO321899   3.742   0.762   7.751  0.2522  1.3623  0.6928
  190SAPI   C1421900   3.556   1.024   7.750  0.6269  0.0791 -0.5175
  190SAPI    H421901   3.459   0.974   7.772 -0.3247  1.9863 -0.1678
  190SAPI    O421902   3.607   1.049   7.881  0.0259 -0.0796 -0.3807
  190SAPI   HO421903   3.538   1.104   7.920  1.8667  1.7805  0.4405
  190SAPI   C1521904   3.522   1.142   7.667  0.2839  0.1442  0.2162
  190SAPI    H521905   3.602   1.215   7.690 -0.0394  1.1789 -1.6996
  190SAPI    O521906   3.390   1.195   7.698  0.1452  0.5043  0.1578
  190SAPI   HO521907   3.403   1.289   7.713  2.7990  0.3273 -0.5679
  190SAPI   C1621908   3.537   1.136   7.513  0.2790 -0.4075 -0.6085
  190SAPI    H621909   3.432   1.126   7.477  0.0499  1.2886 -0.5022
  190SAPI    O621910   3.584   1.256   7.455  0.4851  0.0136 -0.1771
  190SAPI   HO621911   3.588   1.242   7.361 -1.2588  2.5008 -0.7324
  190SAPI   C1121912   3.609   1.021   7.463 -0.3144 -0.0118  0.2006
  190SAPI    H121913   3.717   1.044   7.464  0.2956 -2.3386 -1.8788
  190SAPI     P21914   3.665   1.045   7.195  0.3341 -0.2169 -0.1260
  190SAPI   O1321915   3.725   1.177   7.206  0.9022  0.3464  0.7724
  190SAPI   O1421916   3.568   1.014   7.080  0.1691 -0.1835 -1.2074
  190SAPI   O1221917   3.579   1.009   7.322 -0.0324  0.5460 -0.1213
  190SAPI   O1121918   3.774   0.935   7.210  0.1164  0.7010  0.2011
  190SAPI    C121919   3.903   0.978   7.168 -0.4245  0.3757 -0.7799
  190SAPI    HA21920   3.923   1.084   7.193 -0.6538  1.1903 -3.6943
  190SAPI    HB21921   3.973   0.928   7.239 -0.4361  2.0041  0.4275
  190SAPI    C221922   3.924   0.931   7.020 -0.2487 -0.7218  0.3217
  190SAPI    HS21923   4.035   0.928   7.012  0.0363 -0.2587  3.1721
  190SAPI   O2121924   3.875   1.026   6.928  0.6380  0.3351 -0.5986
  190SAPI   C2121925   3.948   1.138   6.910  0.4661 -0.8339 -0.3205
  190SAPI   O2221926   4.051   1.176   6.966  0.1044 -0.4134  0.4986
  190SAPI   C2221927   3.872   1.237   6.818  0.9924  0.0746  0.4477
  190SAPI   H2R21928   3.805   1.303   6.877  1.1558  1.3269 -0.7197
  190SAPI   H2S21929   3.951   1.304   6.778  0.3848  0.7272  0.3290
  190SAPI    C321930   3.888   0.783   6.982  0.6292  0.3980  0.7012
  190SAPI    HX21931   3.778   0.795   6.986  0.1898 -2.5025 -0.4098
  190SAPI    HY21932   3.932   0.713   7.057  0.8033  0.2128  0.4257
  190SAPI   O3121933   3.906   0.748   6.835 -0.7317 -0.0923 -0.5334
  190SAPI   C3121934   4.021   0.691   6.817  0.3920 -0.7035 -0.5107
  190SAPI   O3221935   4.121   0.703   6.891  0.1665 -0.0128  0.3941
  190SAPI   C3221936   4.019   0.616   6.686  0.3751  0.8427  0.5122
  190SAPI   H2X21937   3.930   0.551   6.691  0.8092  0.2829  1.1266
  190SAPI   H2Y21938   4.110   0.552   6.686  0.6868  1.2760 -0.0576
  190SAPI   C2321939   3.794   1.174   6.701  0.2562  0.5520 -0.4203
  190SAPI   H3R21940   3.747   1.252   6.639  1.1725  2.2111  0.8851
  190SAPI   H3S21941   3.714   1.115   6.752 -0.2850  0.3170 -1.5143
  190SAPI   C2421942   3.875   1.074   6.604 -0.6243  0.2251  0.3908
  190SAPI   H4R21943   3.790   1.015   6.565 -0.4961  0.0031  0.4487
  190SAPI   H4S21944   3.933   1.009   6.673 -2.7558  0.3062  2.3891
  190SAPI   C2521945   3.969   1.128   6.496 -0.3824 -0.7928  0.0757
  190SAPI   H5R21946   4.059   1.174   6.540  0.3513 -2.5761  0.5445
  190SAPI   C2621947   3.960   1.123   6.359 -0.1186 -0.7708 -0.7046
  190SAPI   H6R21948   4.033   1.177   6.297 -0.6795 -0.6709 -1.3023
  190SAPI   C2721949   3.838   1.078   6.281 -0.0944  0.2543 -0.2122
  190SAPI   H7R21950   3.764   1.033   6.351  1.5519 -0.3956  1.1962
  190SAPI   H7S21951   3.860   0.977   6.239 -1.0291 -0.2686  0.4937
  190SAPI   C2821952   3.783   1.184   6.193  0.3147 -0.0946 -0.6839
  190SAPI   H8R21953   3.730   1.264   6.247 -1.3296 -1.5896  0.0322
  190SAPI   C2921954   3.803   1.192   6.059  0.2855 -0.0112  0.1656
  190SAPI   H9R21955   3.764   1.281   6.007  0.6892  0.1541  0.1358
  190SAPI  C21021956   3.877   1.097   5.969  0.4064  0.1059  0.2440
  190SAPI  H10R21957   3.959   1.040   6.016 -0.2640 -1.5602 -0.5421
  190SAPI  H10S21958   3.923   1.158   5.888 -1.6651  1.1125 -0.2614
  190SAPI  C21121959   3.779   1.013   5.899  0.6573  0.4334 -0.2124
  190SAPI  H11R21960   3.739   0.930   5.959  0.2148 -0.1124 -1.2294
  190SAPI  C21221961   3.727   1.031   5.777  0.5531 -0.3265  0.1938
  190SAPI  H12R21962   3.637   0.971   5.754  1.4814 -2.3350  1.5042
  190SAPI  C21321963   3.761   1.130   5.673  0.0897  0.1664 -0.4321
  190SAPI  H13R21964   3.801   1.223   5.718 -1.0166 -0.8601  3.0146
  190SAPI  H13S21965   3.672   1.164   5.614  0.5982 -0.6967 -1.7421
  190SAPI  C21421966   3.856   1.080   5.568 -0.2505 -0.1154  0.1907
  190SAPI  H14R21967   3.851   0.973   5.545 -2.5575 -0.0149 -0.0026
  190SAPI  C21521968   3.956   1.152   5.507 -0.3713  0.1449 -0.1752
  190SAPI  H15R21969   4.012   1.104   5.425 -0.1570 -0.6302  0.4051
  190SAPI  C21621970   4.000   1.296   5.542  0.5009 -0.1083 -0.2689
  190SAPI  H16R21971   4.111   1.304   5.538  0.6848 -1.9872 -0.0672
  190SAPI  H16S21972   3.969   1.317   5.646 -1.7288 -1.7158 -0.5365
  190SAPI  C21721973   3.927   1.385   5.443 -0.2848 -0.2915  0.2971
  190SAPI  H17R21974   3.933   1.489   5.483 -0.0942 -0.6141  1.1163
  190SAPI  H17S21975   3.820   1.354   5.437 -0.5072  0.6602 -1.4362
  190SAPI  C21821976   3.960   1.385   5.294  0.0813  0.0383 -0.4376
  190SAPI  H18R21977   3.950   1.280   5.257 -0.4511 -0.2212  0.4138
  190SAPI  H18S21978   4.068   1.403   5.280  0.0502  0.3551 -0.2702
  190SAPI  C21921979   3.872   1.475   5.192  0.0107 -0.6522  0.1294
  190SAPI  H19R21980   3.770   1.432   5.179 -1.1829  2.0211  0.0528
  190SAPI  H19S21981   3.924   1.473   5.095 -1.0896 -1.8078 -0.4695
  190SAPI  C22021982   3.853   1.616   5.234  0.0971  0.2385 -0.1347
  190SAPI  H20R21983   3.770   1.633   5.306  1.0596  1.6007  0.6945
  190SAPI  H20S21984   3.834   1.677   5.144 -0.1123  1.2892  0.6009
  190SAPI  H20T21985   3.950   1.641   5.283  0.3298  0.5183 -0.7380
  190SAPI   C3321986   4.021   0.689   6.552  0.2317 -0.3833 -0.0556
  190SAPI   H3X21987   4.113   0.749   6.534  0.1676 -0.2260  0.1347
  190SAPI   H3Y21988   3.949   0.773   6.546  2.3275  1.5457  0.3234
  190SAPI   C3421989   4.000   0.610   6.419 -0.8285 -0.7164  0.3091
  190SAPI   H4X21990   3.900   0.564   6.430 -0.9497 -0.3848  0.6129
  190SAPI   H4Y21991   4.078   0.531   6.421  0.3884  0.4235  2.6418
  190SAPI   C3521992   4.016   0.691   6.293 -0.8587  0.5502  0.0809
  190SAPI   H5X21993   4.117   0.738   6.289 -1.1967  1.3247  0.2984
  190SAPI   H5Y21994   3.939   0.770   6.306 -0.1854  1.1048  0.8258
  190SAPI   C3621995   3.979   0.608   6.163  0.1305 -0.5834 -0.6487
  190SAPI   H6X21996   3.881   0.561   6.184 -1.1755  1.6718 -1.4131
  190SAPI   H6Y21997   4.047   0.521   6.147 -0.7891 -1.4601  0.0696
  190SAPI   C3721998   3.985   0.697   6.033 -0.1434  1.3332  0.0502
  190SAPI   H7X21999   4.078   0.759   6.040  1.7177 -1.3902  1.0909
  190SAPI   H7Y22000   3.898   0.763   6.010 -0.9154  0.9004  1.5967
  190SAPI   C3822001   4.003   0.600   5.914 -0.5660 -0.0177  1.3213
  190SAPI   H8X22002   3.911   0.540   5.899 -0.5812 -0.0220  1.4302
  190SAPI   H8Y22003   4.082   0.523   5.933 -2.1268 -2.3695 -0.9563
  190SAPI   C3922004   4.031   0.669   5.779 -0.4007  0.5038 -0.3044
  190SAPI   H9X22005   3.950   0.742   5.758 -1.1578 -0.4679 -0.8061
  190SAPI   H9Y22006   4.033   0.601   5.692 -1.4809  0.8837 -0.6384
  190SAPI  C31022007   4.160   0.755   5.758 -0.2621 -0.1901 -1.0942
  190SAPI  H10X22008   4.252   0.693   5.744 -1.5350 -3.0745  2.0141
  190SAPI  H10Y22009   4.171   0.822   5.846 -1.4593  0.9561 -1.7917
  190SAPI  C31122010   4.150   0.864   5.650  0.7798 -0.2246 -0.5197
  190SAPI  H11X22011   4.221   0.949   5.653 -1.4230  1.7639 -0.8400
  190SAPI  H11Y22012   4.059   0.920   5.680  1.2728 -0.2221  1.0424
  190SAPI  C31222013   4.144   0.816   5.501 -0.4309  0.4104  0.1768
  190SAPI  H12X22014   4.146   0.905   5.435 -1.0009 -0.4134 -0.9757
  190SAPI  H12Y22015   4.052   0.756   5.485 -0.8823  1.1449 -0.0327
  190SAPI  C31322016   4.273   0.745   5.477 -0.8120  0.2157  0.5959
  190SAPI  H13X22017   4.265   0.640   5.509  0.5323  0.0899  0.5809
  190SAPI  H13Y22018   4.362   0.779   5.534 -0.2623 -2.0483  1.1853
  190SAPI  C31422019   4.297   0.734   5.326 -0.5876 -0.5712 -0.1718
  190SAPI  H14X22020   4.331   0.837   5.301 -1.7398 -0.4836 -1.5338
  190SAPI  H14Y22021   4.203   0.728   5.267  0.0225  0.2708 -1.2751
  190SAPI  C31522022   4.403   0.631   5.277  0.3352 -0.0298  0.1000
  190SAPI  H15X22023   4.500   0.647   5.327  0.5159  0.5716 -0.4277
  190SAPI  H15Y22024   4.421   0.656   5.170 -1.1384 -1.0320 -0.4183
  190SAPI  C31622025   4.346   0.487   5.273  0.2953  0.1423  0.0000
  190SAPI  H16X22026   4.236   0.487   5.256  0.5468 -2.6798 -2.5536
  190SAPI  H16Y22027   4.351   0.447   5.377  2.5962  0.2040 -0.0346
  190SAPI  C31722028   4.418   0.390   5.176 -0.5665 -0.5494 -0.4946
  190SAPI  H17X22029   4.425   0.425   5.071 -0.4114  1.4122  0.1340
  190SAPI  H17Y22030   4.340   0.310   5.175 -1.3504  0.1970  0.1167
  190SAPI  C31822031   4.547   0.339   5.227  0.1830 -0.4989  0.2319
  190SAPI  H18X22032   4.533   0.278   5.318  0.7099 -2.3041 -0.8385
  190SAPI  H18Y22033   4.619   0.421   5.248  0.4204 -0.5255 -0.4331
  190SAPI  H18Z22034   4.588   0.275   5.146  0.8770 -0.7690  0.7837
  191SAPI   C1222035   1.182   1.350   3.013  0.3861 -0.1414 -0.6938
  191SAPI    H222036   1.247   1.280   3.070  1.0646  0.5325 -0.6272
  191SAPI    O222037   1.085   1.406   3.100  0.0606  0.1294  0.0396
  191SAPI   HO222038   1.047   1.332   3.148 -0.7992  0.1212 -0.6344
  191SAPI   C1322039   1.272   1.461   2.977  0.6190 -0.0474 -0.2780
  191SAPI    H322040   1.336   1.421   2.896 -2.6131  0.0834 -3.1574
  191SAPI    O322041   1.359   1.506   3.077 -0.0121  0.4044  0.0665
  191SAPI   HO322042   1.309   1.557   3.141 -3.0975 -1.5972 -0.5379
  191SAPI   C1422043   1.195   1.577   2.910 -0.4058 -0.1058 -0.5726
  191SAPI    H422044   1.140   1.632   2.988 -0.1171 -0.6776  0.0466
  191SAPI    O422045   1.289   1.673   2.855 -0.3533  0.2376  0.8618
  191SAPI   HO422046   1.282   1.753   2.907 -0.2626  2.2188 -1.9724
  191SAPI   C1522047   1.102   1.521   2.801 -0.3107  0.1266  0.7639
  191SAPI    H522048   1.163   1.506   2.710 -0.7396 -3.1715  0.9071
  191SAPI    O522049   1.007   1.621   2.769  0.0212 -0.7461  0.0230
  191SAPI   HO522050   1.004   1.627   2.673  0.9910  3.3046  0.0507
  191SAPI   C1622051   1.037   1.390   2.822  0.8534  0.6746  0.9985
  191SAPI    H622052   0.949   1.405   2.888 -0.6216 -0.1881 -0.6703
  191SAPI    O622053   0.989   1.338   2.695  1.1041  0.3601 -0.5071
  191SAPI   HO622054   0.965   1.245   2.703  0.5482  0.4069 -1.4976
  191SAPI   C1122055   1.128   1.289   2.885  0.1784 -0.3568  0.2464
  191SAPI    H122056   1.219   1.273   2.824  1.7424  1.1813  2.0641
  191SAPI     P22057   1.159   1.034   2.936 -0.2475  0.4720 -0.0818
  191SAPI   O1322058   1.294   1.084   2.912 -0.0370  0.7114  0.0493
  191SAPI   O1422059   1.109   0.911   2.865  0.1257  0.1172 -0.0470
  191SAPI   O1222060   1.061   1.167   2.910  0.2204  0.4068  0.6588
  191SAPI   O1122061   1.139   1.009   3.087 -0.1135  0.1865 -0.0929
  191SAPI    C122062   1.013   1.023   3.150  0.4776 -0.0918  0.1993
  191SAPI    HA22063   0.977   1.126   3.131 -4.3615 -1.3089  1.3503
  191SAPI    HB22064   0.942   0.949   3.106  0.0568 -0.0041  0.7116
  191SAPI    C222065   1.018   0.988   3.306  0.7585  0.2405  0.2296
  191SAPI    HS22066   0.922   1.019   3.353  0.1969  1.8484 -1.8367
  191SAPI   O2122067   1.127   1.049   3.369 -0.0702 -0.0451  0.2269
  191SAPI   C2122068   1.122   1.181   3.391  0.3398  0.2178  0.0337
  191SAPI   O2222069   1.028   1.253   3.360 -0.2068 -0.5744  0.5373
  191SAPI   C2222070   1.252   1.220   3.460  0.1162 -0.2259 -0.5627
  191SAPI   H2R22071   1.220   1.267   3.556 -0.1881 -0.3287 -0.6119
  191SAPI   H2S22072   1.287   1.121   3.498  0.7391 -0.0290 -0.6168
  191SAPI    C322073   1.021   0.831   3.327 -0.4864 -0.1873 -0.4728
  191SAPI    HX22074   1.113   0.790   3.282 -1.3116 -2.9852  0.1877
  191SAPI    HY22075   0.933   0.781   3.281 -0.3156 -0.0304 -0.9702
  191SAPI   O3122076   1.015   0.811   3.469 -0.5169  0.1972  0.3465
  191SAPI   C3122077   1.128   0.778   3.529 -0.8225  0.1739  0.0397
  191SAPI   O3222078   1.236   0.747   3.473  0.3714  0.2898 -0.6309
  191SAPI   C3222079   1.114   0.762   3.678 -0.3133 -0.0023 -0.5244
  191SAPI   H2X22080   1.211   0.742   3.729 -1.8621 -1.3292  2.1578
  191SAPI   H2Y22081   1.051   0.675   3.707 -1.1055  0.8625  0.4475
  191SAPI   C2322082   1.345   1.312   3.384 -0.1122 -0.8433 -0.1073
  191SAPI   H3R22083   1.286   1.403   3.361  1.6045  0.6818  1.2624
  191SAPI   H3S22084   1.370   1.281   3.281  3.0829  0.6893  0.0792
  191SAPI   C2422085   1.476   1.351   3.462 -0.2176 -0.1734  0.1425
  191SAPI   H4R22086   1.536   1.420   3.398 -0.8999  0.8847  0.6265
  191SAPI   H4S22087   1.539   1.259   3.472  1.3310  0.8554  0.1397
  191SAPI   C2522088   1.442   1.408   3.596  0.7560  0.5992 -0.0425
  191SAPI   H5R22089   1.376   1.496   3.595  0.3794  0.3182 -0.4258
  191SAPI   C2622090   1.446   1.333   3.710  0.2324 -0.2946  0.3893
  191SAPI   H6R22091   1.427   1.393   3.800  1.3404  2.8716 -1.3633
  191SAPI   C2722092   1.502   1.196   3.731  0.4260  0.0791  0.2818
  191SAPI   H7R22093   1.519   1.158   3.628  1.6651  2.6906 -0.5649
  191SAPI   H7S22094   1.426   1.143   3.792 -1.0496  0.7588 -0.9203
  191SAPI   C2822095   1.637   1.203   3.801  0.1245  0.3813  0.2971
  191SAPI   H8R22096   1.725   1.182   3.738 -0.6948  0.2402 -0.8161
  191SAPI   C2922097   1.661   1.216   3.930 -0.0171  1.0006 -0.0981
  191SAPI   H9R22098   1.766   1.199   3.958 -0.0718 -1.3700 -1.0838
  191SAPI  C21022099   1.554   1.238   4.027  0.4749  0.2930 -0.9730
  191SAPI  H10R22100   1.511   1.139   4.056  1.6110  0.0638 -0.0199
  191SAPI  H10S22101   1.468   1.302   3.997  0.3384  0.4977 -0.1579
  191SAPI  C21122102   1.615   1.314   4.140  0.1928  0.1665  0.1224
  191SAPI  H11R22103   1.702   1.375   4.114 -0.6121  1.5808  0.6613
  191SAPI  C21222104   1.573   1.330   4.266 -0.7849 -0.1545  0.9052
  191SAPI  H12R22105   1.638   1.401   4.319  1.9899 -1.1399 -0.9386
  191SAPI  C21322106   1.444   1.278   4.328 -0.5493 -0.1780 -0.4449
  191SAPI  H13R22107   1.394   1.200   4.267  0.4398 -0.9132 -0.3541
  191SAPI  H13S22108   1.375   1.364   4.336  1.1716  1.3012 -0.7412
  191SAPI  C21422109   1.476   1.218   4.467  0.4266 -0.2962  0.5536
  191SAPI  H14R22110   1.557   1.143   4.469  0.6083 -0.1511 -0.5591
  191SAPI  C21522111   1.417   1.249   4.580 -0.6423  0.0985  0.7033
  191SAPI  H15R22112   1.429   1.181   4.666 -2.5144 -1.1523  0.0371
  191SAPI  C21622113   1.306   1.343   4.595 -0.3234  0.0293 -0.0440
  191SAPI  H16R22114   1.226   1.320   4.522  0.8132  0.9574 -1.6456
  191SAPI  H16S22115   1.347   1.444   4.571  3.6836 -1.5989 -0.8231
  191SAPI  C21722116   1.234   1.328   4.728 -0.0979 -0.5198 -0.4402
  191SAPI  H17R22117   1.200   1.224   4.748  0.1287 -0.5780 -0.3524
  191SAPI  H17S22118   1.141   1.389   4.726 -0.6762 -1.0363  3.2297
  191SAPI  C21822119   1.316   1.391   4.846 -0.0917  0.0690 -1.0150
  191SAPI  H18R22120   1.332   1.499   4.827 -0.6039  0.1667 -0.8916
  191SAPI  H18S22121   1.417   1.344   4.857  0.2528  0.2319 -3.0159
  191SAPI  C21922122   1.251   1.380   4.986 -0.0611 -0.0987  0.1911
  191SAPI  H19R22123   1.236   1.273   5.009  2.5994 -0.3001  1.4548
  191SAPI  H19S22124   1.156   1.436   4.977  1.3135  2.3605 -0.0730
  191SAPI  C22022125   1.336   1.419   5.104  0.1950 -0.4783  0.2838
  191SAPI  H20R22126   1.374   1.523   5.092  1.0386 -0.9508 -1.4295
  191SAPI  H20S22127   1.415   1.340   5.102  0.4346 -0.2862  1.4011
  191SAPI  H20T22128   1.283   1.411   5.201 -2.4557 -0.4340 -1.0828
  191SAPI   C3322129   1.043   0.886   3.743 -0.3848  0.2973 -0.4620
  191SAPI   H3X22130   0.935   0.887   3.719 -0.8460 -3.0668  0.9579
  191SAPI   H3Y22131   1.085   0.979   3.699 -2.8688  2.0212  0.6554
  191SAPI   C3422132   1.072   0.899   3.893  0.2271  0.0249 -0.3568
  191SAPI   H4X22133   1.034   0.803   3.933 -2.4797  0.2537 -2.1645
  191SAPI   H4Y22134   1.007   0.982   3.928 -2.2326 -2.5082  1.4718
  191SAPI   C3522135   1.211   0.945   3.945  0.2903 -0.0555  0.5137
  191SAPI   H5X22136   1.239   1.035   3.886 -2.0212  0.7567  0.5614
  191SAPI   H5Y22137   1.277   0.859   3.922  0.9660  0.3592  0.8918
  191SAPI   C3622138   1.226   0.973   4.095 -0.2563  0.1808  0.5696
  191SAPI   H6X22139   1.158   1.059   4.113 -0.0876  0.4040  0.1523
  191SAPI   H6Y22140   1.327   0.998   4.133  0.4804 -2.2376  0.3889
  191SAPI   C3722141   1.173   0.861   4.189 -0.5619 -0.3587 -0.0830
  191SAPI   H7X22142   1.234   0.769   4.174  1.3529  1.2168 -2.8892
  191SAPI   H7Y22143   1.068   0.847   4.155 -0.9960 -0.5472  1.2694
  191SAPI   C3822144   1.176   0.899   4.337  0.3090 -0.4037 -0.5551
  191SAPI   H8X22145   1.143   1.005   4.351  0.4356 -0.3267 -0.8214
  191SAPI   H8Y22146   1.282   0.899   4.369 -0.1851 -1.7712  1.2133
  191SAPI   C3922147   1.100   0.787   4.415 -0.1908  0.8194 -0.0997
  191SAPI   H9X22148   1.129   0.685   4.383 -0.3040  0.0726  2.0013
  191SAPI   H9Y22149   0.990   0.785   4.397 -0.3669 -0.9893  0.8815
  191SAPI  C31022150   1.126   0.808   4.566 -0.5530  0.1993 -0.2622
  191SAPI  H10X22151   1.237   0.804   4.578 -0.1315 -0.7387 -3.4380
  191SAPI  H10Y22152   1.086   0.716   4.613 -1.1945  0.5902 -0.0306
  191SAPI  C31122153   1.070   0.933   4.627  0.2155 -0.1028 -0.4284
  191SAPI  H11X22154   0.963   0.950   4.603  0.3490 -1.0333 -1.8140
  191SAPI  H11Y22155   1.130   1.012   4.576 -1.5042 -1.0302 -4.2788
  191SAPI  C31222156   1.082   0.952   4.780 -0.0293 -0.1616  0.0218
  191SAPI  H12X22157   1.020   0.873   4.829 -0.9549  1.9141  2.4498
  191SAPI  H12Y22158   1.039   1.049   4.814  0.0615  0.0119 -0.3612
  191SAPI  C31322159   1.226   0.946   4.836  0.3760 -0.3186 -0.3264
  191SAPI  H13X22160   1.287   1.019   4.778  0.1393  1.0381  1.0519
  191SAPI  H13Y22161   1.263   0.842   4.834 -0.7200 -0.7063 -1.1209
  191SAPI  C31422162   1.219   0.993   4.986  0.1696  0.7587 -0.0385
  191SAPI  H14X22163   1.172   0.908   5.039  5.0391 -1.7768  0.7034
  191SAPI  H14Y22164   1.146   1.076   5.001 -1.7436 -0.9698  0.5925
  191SAPI  C31522165   1.359   1.006   5.056 -0.0288 -0.6425 -0.0724
  191SAPI  H15X22166   1.415   1.097   5.025  1.4852  0.2175  4.3415
  191SAPI  H15Y22167   1.408   0.912   5.024 -0.7730 -1.4059  0.9429
  191SAPI  C31622168   1.342   1.007   5.209  0.2220 -0.7997 -0.1992
  191SAPI  H16X22169   1.262   0.934   5.235 -0.8585 -0.0548 -1.3462
  191SAPI  H16Y22170   1.313   1.108   5.244  2.3601 -1.0087  2.5529
  191SAPI  C31722171   1.470   0.965   5.284 -0.1270  0.0298 -0.1749
  191SAPI  H17X22172   1.478   0.857   5.259 -1.0173 -0.0820 -0.0331
  191SAPI  H17Y22173   1.453   0.966   5.394 -1.0597 -2.7465 -0.2111
  191SAPI  C31822174   1.594   1.046   5.246  0.1109 -0.0295 -0.1888
  191SAPI  H18X22175   1.595   1.153   5.276 -0.2975  0.0070 -0.2975
  191SAPI  H18Y22176   1.609   1.058   5.137  0.2892  0.6436 -0.0937
  191SAPI  H18Z22177   1.683   1.001   5.295  1.1642  2.0783 -0.0408
  192SAPI   C1222178   3.120   1.060   2.920 -0.2888 -0.0087  0.0253
  192SAPI    H222179   3.095   1.163   2.886  3.5361  1.0706  0.0298
  192SAPI    O222180   3.115   1.060   3.062 -0.2530 -0.1685  0.3166
  192SAPI   HO222181   3.112   1.148   3.099  0.0101 -0.1850  0.3797
  192SAPI   C1322182   3.007   0.973   2.860 -0.0714 -0.5560 -0.7332
  192SAPI    H322183   3.015   0.969   2.749 -3.0173  0.0500 -1.0541
  192SAPI    O322184   2.882   1.031   2.889 -0.1352 -0.0025  0.1818
  192SAPI   HO322185   2.843   1.012   2.975 -0.8657  0.5574 -0.0156
  192SAPI   C1422186   3.026   0.835   2.914  0.2455  0.4593 -0.4390
  192SAPI    H422187   3.008   0.839   3.024  1.8124 -1.0529 -0.0928
  192SAPI    O422188   2.928   0.748   2.862  0.1913  1.0797 -0.6305
  192SAPI   HO422189   2.856   0.739   2.924  1.2138 -2.9329  0.2817
  192SAPI   C1522190   3.171   0.775   2.898  0.2692 -0.0793  0.1625
  192SAPI    H522191   3.164   0.745   2.791 -0.4507  0.0236  0.1768
  192SAPI    O522192   3.191   0.658   2.977  0.2680 -0.1742  0.3806
  192SAPI   HO522193   3.276   0.622   2.951 -0.1134 -0.3508 -0.6619
  192SAPI   C1622194   3.283   0.874   2.911 -0.5867 -0.2306 -0.2328
  192SAPI    H622195   3.303   0.888   3.019  0.5032 -0.5629 -0.3793
  192SAPI    O622196   3.411   0.826   2.861  0.3147  0.2902  1.1042
  192SAPI   HO622197   3.480   0.840   2.926  2.3329  0.5698 -1.0007
  192SAPI   C1122198   3.249   1.016   2.858  0.0134 -0.0801 -0.9265
  192SAPI    H122199   3.227   1.016   2.749 -1.3502  0.1343 -0.6750
  192SAPI     P22200   3.464   1.156   2.789 -0.5180  0.1369  0.0103
  192SAPI   O1322201   3.494   1.298   2.812 -0.0106 -0.1056  0.0861
  192SAPI   O1422202   3.436   1.113   2.648 -0.4512  0.0787  0.3119
  192SAPI   O1222203   3.343   1.123   2.887 -0.2413 -0.2359 -0.1005
  192SAPI   O1122204   3.588   1.073   2.845  0.1240  0.5414  0.1377
  192SAPI    C122205   3.657   1.110   2.960  0.2472 -0.7130 -0.4396
  192SAPI    HA22206   3.744   1.174   2.936  1.1826 -2.0223 -0.6421
  192SAPI    HB22207   3.598   1.159   3.041  0.4290 -0.0681 -0.6906
  192SAPI    C222208   3.735   0.982   3.018  0.0580 -0.7051  0.3473
  192SAPI    HS22209   3.810   0.955   2.940  0.3455 -3.5553  1.5003
  192SAPI   O2122210   3.642   0.880   3.013  0.3370 -0.1241 -0.0613
  192SAPI   C2122211   3.684   0.758   3.018 -0.2924  0.1211  0.0823
  192SAPI   O2222212   3.801   0.720   2.994  0.1671 -0.1441 -0.3391
  192SAPI   C2222213   3.583   0.668   3.091  0.8074  0.4422  1.4431
  192SAPI   H2R22214   3.491   0.729   3.102  0.4172  0.2384 -0.3031
  192SAPI   H2S22215   3.554   0.589   3.018  0.7711  0.8877  0.9742
  192SAPI    C322216   3.800   1.009   3.156 -0.5210  0.1034  0.1481
  192SAPI    HX22217   3.719   1.045   3.223 -1.0547  1.2713 -1.0663
  192SAPI    HY22218   3.862   1.101   3.149  2.2509 -1.7645 -1.5122
  192SAPI   O3122219   3.869   0.892   3.206 -0.6177 -0.2596  0.4196
  192SAPI   C3122220   4.000   0.886   3.167  0.0504 -0.8745 -0.5999
  192SAPI   O3222221   4.051   0.976   3.103  0.4935  0.2303  0.2638
  192SAPI   C3222222   4.074   0.764   3.227 -0.3707 -0.8376 -0.0611
  192SAPI   H2X22223   4.166   0.800   3.278  0.7723 -1.2787 -1.7104
  192SAPI   H2Y22224   4.102   0.698   3.142 -0.2569 -1.8163  0.7152
  192SAPI   C2322225   3.620   0.608   3.226  0.4837 -0.6307 -0.1844
  192SAPI   H3R22226   3.674   0.691   3.276 -2.3292  0.4901  1.1921
  192SAPI   H3S22227   3.688   0.521   3.211  1.4084 -0.1046  0.8022
  192SAPI   C2422228   3.504   0.580   3.320  0.0387  0.3802 -0.1700
  192SAPI   H4R22229   3.433   0.666   3.320  0.9682  1.2060  1.4130
  192SAPI   H4S22230   3.535   0.559   3.425 -1.4816  0.0460  0.2403
  192SAPI   C2522231   3.417   0.467   3.271  0.8949  0.4873  0.6029
  192SAPI   H5R22232   3.388   0.466   3.164 -1.5528 -1.1306  1.2068
  192SAPI   C2622233   3.372   0.363   3.344 -0.4384  0.0180  0.2890
  192SAPI   H6R22234   3.321   0.279   3.293  0.2566 -0.2410  0.0130
  192SAPI   C2722235   3.383   0.345   3.493 -0.0741  0.1248 -0.0959
  192SAPI   H7R22236   3.421   0.437   3.542 -0.5668  0.6575 -0.6908
  192SAPI   H7S22237   3.454   0.262   3.513 -2.4737 -2.5655 -1.7354
  192SAPI   C2822238   3.254   0.304   3.560  0.2433 -0.1616  0.3222
  192SAPI   H8R22239   3.166   0.320   3.497  0.1856 -1.0622  0.1575
  192SAPI   C2922240   3.231   0.255   3.683  0.0122  0.2315 -1.1209
  192SAPI   H9R22241   3.123   0.240   3.702  0.2368  0.9914  1.1212
  192SAPI  C21022242   3.319   0.232   3.803 -0.2775 -0.2082 -0.2158
  192SAPI  H10R22243   3.422   0.269   3.784  0.0052  0.2393  1.9740
  192SAPI  H10S22244   3.334   0.125   3.828  2.2806  0.3456  0.8614
  192SAPI  C21122245   3.256   0.280   3.933  0.5339  0.1229  0.3204
  192SAPI  H11R22246   3.189   0.213   3.988 -0.8217  0.2050 -1.1504
  192SAPI  C21222247   3.289   0.396   3.995  0.0792 -0.1700 -0.0153
  192SAPI  H12R22248   3.231   0.418   4.086  1.0177 -1.5354  0.9485
  192SAPI  C21322249   3.388   0.492   3.940  0.7490 -0.5665  0.5767
  192SAPI  H13R22250   3.363   0.529   3.838  4.0464 -0.4942 -0.3215
  192SAPI  H13S22251   3.488   0.447   3.921  1.6556  1.0161  1.4024
  192SAPI  C21422252   3.398   0.613   4.026 -0.0201  0.7525  0.5861
  192SAPI  H14R22253   3.336   0.699   3.994  0.5669  0.0201 -2.8668
  192SAPI  C21522254   3.476   0.630   4.132 -0.2676 -0.1589  0.2746
  192SAPI  H15R22255   3.470   0.729   4.180 -0.1656 -0.0773  0.1201
  192SAPI  C21622256   3.575   0.540   4.202  0.7056 -0.2322  0.0696
  192SAPI  H16R22257   3.683   0.553   4.178  0.6911  1.1296  0.6812
  192SAPI  H16S22258   3.549   0.442   4.156 -0.3994 -0.2413  0.6728
  192SAPI  C21722259   3.562   0.531   4.357  0.1057 -0.0131 -0.2714
  192SAPI  H17R22260   3.458   0.516   4.394  0.5826  0.2239  1.2401
  192SAPI  H17S22261   3.604   0.630   4.386  1.7366 -0.3147 -1.4719
  192SAPI  C21822262   3.653   0.419   4.425 -0.1021 -0.3462  0.1534
  192SAPI  H18R22263   3.656   0.321   4.372  0.3901  0.0886 -0.6463
  192SAPI  H18S22264   3.619   0.397   4.528  1.2888  0.1137  0.7294
  192SAPI  C21922265   3.796   0.462   4.437 -0.0307  0.5407  0.0433
  192SAPI  H19R22266   3.842   0.485   4.339  1.1153  2.1448  0.9085
  192SAPI  H19S22267   3.853   0.375   4.475  0.8335  2.3657  3.3441
  192SAPI  C22022268   3.828   0.578   4.528 -0.5463 -0.1013  0.1972
  192SAPI  H20R22269   3.788   0.558   4.630 -0.2324  3.6274  1.2284
  192SAPI  H20S22270   3.780   0.670   4.489  1.4525  0.9286  0.0119
  192SAPI  H20T22271   3.936   0.603   4.543 -0.6280 -0.2522  1.1167
  192SAPI   C3322272   3.996   0.676   3.335 -0.3985  0.1225 -0.6235
  192SAPI   H3X22273   3.911   0.618   3.293 -0.4680 -1.3789  1.4017
  192SAPI   H3Y22274   3.965   0.745   3.417  1.1811  5.2549 -3.8977
  192SAPI   C3422275   4.088   0.564   3.388 -0.0597  0.9494 -0.5409
  192SAPI   H4X22276   4.116   0.499   3.303  1.7699  1.0519 -0.0763
  192SAPI   H4Y22277   4.025   0.521   3.468 -1.4189  1.6719 -1.1933
  192SAPI   C3522278   4.224   0.600   3.453 -0.9889  0.0102 -0.2946
  192SAPI   H5X22279   4.284   0.668   3.389 -0.6285 -0.5129 -0.5181
  192SAPI   H5Y22280   4.298   0.518   3.465  1.0935  1.7674 -0.6880
  192SAPI   C3622281   4.212   0.681   3.581 -0.2764  1.1972 -0.9571
  192SAPI   H6X22282   4.150   0.620   3.651  0.2315 -1.5269 -2.7294
  192SAPI   H6Y22283   4.169   0.781   3.557  1.4619  1.5520 -2.8042
  192SAPI   C3722284   4.344   0.706   3.651  0.6681 -0.2796  0.1659
  192SAPI   H7X22285   4.408   0.747   3.569 -0.2079  0.7959 -0.0166
  192SAPI   H7Y22286   4.376   0.606   3.686 -0.2593 -0.6340  0.0166
  192SAPI   C3822287   4.340   0.796   3.768  0.0766 -0.2450 -0.1352
  192SAPI   H8X22288   4.274   0.883   3.747  4.4423  3.1956 -1.0923
  192SAPI   H8Y22289   4.440   0.841   3.787  0.6237 -1.1544 -0.8016
  192SAPI   C3922290   4.284   0.724   3.895 -0.3031  0.7830  0.6750
  192SAPI   H9X22291   4.359   0.644   3.912  2.1320  2.0231 -2.9639
  192SAPI   H9Y22292   4.179   0.693   3.872 -0.1275 -0.1491  1.0698
  192SAPI  C31022293   4.280   0.815   4.017  0.7247  0.7112 -0.6342
  192SAPI  H10X22294   4.211   0.900   3.997  1.7113  1.1288 -2.4712
  192SAPI  H10Y22295   4.385   0.851   4.021  0.5611  1.2511 -0.9661
  192SAPI  C31122296   4.241   0.748   4.154 -0.0447 -0.5578 -0.1833
  192SAPI  H11X22297   4.308   0.660   4.162 -0.4172 -0.8741 -0.4770
  192SAPI  H11Y22298   4.135   0.713   4.154  0.5791 -2.7042 -2.1254
  192SAPI  C31222299   4.260   0.841   4.281 -0.2636 -0.1740 -0.9270
  192SAPI  H12X22300   4.207   0.939   4.277  0.7796  0.4467 -0.1082
  192SAPI  H12Y22301   4.367   0.872   4.281 -0.2553  0.2013  2.7943
  192SAPI  C31322302   4.248   0.767   4.408 -0.2140 -0.6171  0.0268
  192SAPI  H13X22303   4.296   0.667   4.407  2.2798  0.4771 -0.1089
  192SAPI  H13Y22304   4.141   0.757   4.432  0.0489 -0.8099  1.1863
  192SAPI  C31422305   4.317   0.836   4.531 -0.6301 -0.2204 -0.2088
  192SAPI  H14X22306   4.282   0.793   4.627  0.9411 -1.7042 -0.2299
  192SAPI  H14Y22307   4.301   0.946   4.525 -0.4348 -0.1415  0.6189
  192SAPI  C31522308   4.475   0.816   4.526  0.3592  0.0541 -0.3280
  192SAPI  H15X22309   4.509   0.828   4.421 -2.0470  0.3840 -1.1395
  192SAPI  H15Y22310   4.491   0.711   4.556  2.0396  0.9015  1.9653
  192SAPI  C31622311   4.550   0.887   4.639  0.8131  0.8667 -0.1395
  192SAPI  H16X22312   4.547   0.996   4.620  0.3361  0.8385 -0.2470
  192SAPI  H16Y22313   4.656   0.858   4.654  0.8161  1.2897  0.7715
  192SAPI  C31722314   4.478   0.869   4.770 -0.2672 -0.0782  1.1735
  192SAPI  H17X22315   4.456   0.764   4.797  0.9092 -0.5159  0.5040
  192SAPI  H17Y22316   4.376   0.914   4.768  0.0020  0.5323  0.4503
  192SAPI  C31822317   4.569   0.924   4.879  0.4677  0.5880  0.3162
  192SAPI  H18X22318   4.660   0.860   4.885  1.0931  1.3494 -0.7502
  192SAPI  H18Y22319   4.532   0.912   4.984 -0.0944  1.2133  0.1969
  192SAPI  H18Z22320   4.593   1.032   4.873  0.9036  0.4428 -0.8374
  193SOD    SOD22321   3.714   5.001   7.843 -0.4068  0.2169 -0.5109
  194SOD    SOD22322   6.061   3.844   0.696 -0.0930 -0.2103  0.4080
  195SOD    SOD22323   1.604   1.173   7.564 -0.1663  0.1164  0.2327
  196SOD    SOD22324   5.142   3.359   2.263 -0.1665 -0.5693 -0.1432
  197SOD    SOD22325   2.292   2.255   1.469 -0.1181  0.0387 -0.5202
  198SOD    SOD22326   5.757   1.177   2.364  0.0412 -0.1648 -0.0689
  199SOD    SOD22327   0.274   1.908   8.151  0.0326  0.8225  0.0905
  200SOD    SOD22328   6.283   2.793   2.590  0.1638 -0.0406  0.1172
  201SOD    SOD22329   1.258   1.561   8.388 -0.2791  0.2190 -0.7853
  202SOD    SOD22330   2.254   4.811   8.466 -0.5723  0.1262 -0.3827
  203SOD    SOD22331   0.710   4.669   2.443 -0.1741  0.8669  0.2550
  204SOD    SOD22332   2.885   5.751   2.222 -0.3910 -0.5168  0.2398
  205SOD    SOD22333   3.527   1.937   2.533  0.3027 -0.1107  0.3822
  206SOD    SOD22334   5.270   3.961   0.603 -0.1230 -0.4906 -1.0077
  207SOD    SOD22335   3.393   2.268   0.464  0.3631 -0.3582 -0.0534
  208SOD    SOD22336   3.375   3.954   7.493 -0.1577 -0.1509  0.1609
  209SOD    SOD22337   0.617   6.060   2.916  0.1514 -0.1053  0.8012
  210SOD    SOD22338   4.220   4.514   8.631 -0.6155 -0.2597  0.0082
  211SOD    SOD22339   3.301   4.190   8.571 -0.1031 -0.5156 -0.0654
  212SOD    SOD22340   2.612   4.490   8.794  0.0806 -0.6689 -0.7636
  213SOD    SOD22341   5.036   2.490   1.757  0.1554  0.2025 -0.0583
  214SOD    SOD22342   5.552   0.372   1.090  0.2448 -0.0049 -0.4889
  215SOD    SOD22343   6.463   4.732   7.997  0.5409  0.1903 -0.1007
  216SOD    SOD22344   6.700   2.470   0.298 -0.6307  0.3765 -0.2030
  217SOD    SOD22345   6.361   0.323   1.263  0.0390  0.0389  0.2349
  218SOD    SOD22346   3.383   5.238   1.835 -0.1814 -0.2577 -0.1433
  219SOD    SOD22347   4.052   1.921   7.962  0.3608 -0.3155  0.0079
  220SOD    SOD22348   6.110   2.127   0.098  0.1835  0.2485 -0.3816
  221SOD    SOD22349   4.299   0.762   2.846 -0.1666  0.6964  0.1010
  222SOD    SOD22350   6.502   0.346   7.694 -0.2030 -0.1957 -0.0720
  223SOD    SOD22351   1.696   5.908   8.409  0.1423 -0.2694 -0.1440
  224SOD    SOD22352   6.559   0.369   8.795  0.3742 -0.4625 -0.0967
  225SOD    SOD22353   4.762   5.305   8.953  0.8756 -0.0612 -0.2031
  226SOD    SOD22354   6.183   0.840   7.986 -0.0377 -0.0666  0.0981
  227SOD    SOD22355   6.544   3.772   8.810 -0.1281  0.2627 -0.1132
  228SOD    SOD22356   3.210   0.134   7.842 -0.4566 -0.5987  0.0272
  229SOD    SOD22357   5.573   4.074   1.647  0.3966 -0.5056  0.0706
  230CLA    CLA22358   0.883   3.175   0.018  0.4082 -0.3119  0.1931
  231CLA    CLA22359   2.355   1.755   0.225  0.0055  0.2103 -0.1040
  232CLA    CLA22360   2.166   4.479   9.059 -0.3321  0.2509  0.5440
  233CLA    CLA22361   5.461   0.430   9.106 -0.0746 -0.3663 -0.0550
  234CLA    CLA22362   3.153   6.167   0.758  0.2026  0.0262 -0.2521
  235CLA    CLA22363   5.372   5.707   0.823 -0.5552 -0.5118 -0.2203
  236CLA    CLA22364   2.815   1.714   8.346  0.0514  0.3514 -0.2811
  237CLA    CLA22365   5.414   2.943   1.893  0.3215  0.0010  0.1251
  238CLA    CLA22366   4.897   3.851   1.892  0.2937 -0.2659  0.2800
  239CLA    CLA22367   0.339   6.161   2.504  0.0876 -0.1210  0.0856
  240CLA    CLA22368   6.310   5.648   8.660  0.6362  0.0953  0.0240
  241CLA    CLA22369   0.043   1.929   8.735 -0.2850 -0.0682 -0.3107
  242CLA    CLA22370   2.953   4.341   7.919  0.0426  0.2246  0.0945
  243CLA    CLA22371   6.538   4.579   1.793 -0.0555 -0.2607  0.0077
  244CLA    CLA22372   3.923   3.464   0.903 -0.5800  0.3061  0.1406
  245CLA    CLA22373   6.614   0.818   1.876 -0.3568  0.1945 -0.0886
  246CLA    CLA22374   2.768   3.143   8.313 -0.1901 -0.2981 -0.1362
  247TIP3   OH222375   4.026   1.920   0.134  0.3429  0.1323 -0.2202
  247TIP3    H122376   3.943   1.919   0.086 -0.5205 -2.4768  1.1589
  247TIP3    H222377   4.052   1.828   0.139  1.9470  0.6264  1.6631
  248TIP3   OH222378   2.595   2.536   1.662  0.2738 -0.0027  0.4553
  248TIP3    H122379   2.686   2.518   1.638  0.6730  0.8447  1.2709
  248TIP3    H222380   2.598   2.557   1.755 -0.8826 -0.7676  0.6889
  249TIP3   OH222381   2.906   5.115   3.123  0.4088  0.4938 -0.0172
  249TIP3    H122382   2.989   5.163   3.127 -0.2685  1.9234 -1.7504
  249TIP3    H222383   2.859   5.142   3.202 -0.1564  3.2141 -1.1668
  250TIP3   OH222384   1.895   1.600   2.149 -0.6629  0.1238  0.9793
  250TIP3    H122385   1.863   1.691   2.147 -0.6035  0.1662 -1.1637
  250TIP3    H222386   1.859   1.561   2.069  2.1508 -0.6906 -0.0085
  251TIP3   OH222387   0.437   0.905   8.058  0.1350 -0.5777 -0.5912
  251TIP3    H122388   0.523   0.907   8.101 -0.0376  1.4316 -0.2294
  251TIP3    H222389   0.395   0.826   8.092  0.0835  0.7922  2.8888
  252TIP3   OH222390   1.374   6.180   3.034 -0.8163  0.3607  0.4759
  252TIP3    H122391   1.455   6.130   3.034  0.4678  2.3411  0.2389
  252TIP3    H222392   1.305   6.114   3.029  0.8151 -1.2970 -2.5962
  253TIP3   OH222393   2.663   1.860   1.847 -0.1043 -0.1451 -0.3766
  253TIP3    H122394   2.720   1.937   1.836  0.9249 -0.8208  0.0314
  253TIP3    H222395   2.578   1.888   1.815 -0.3975  1.9519  1.8860
  254TIP3   OH222396   2.432   6.331   8.008  0.0063  0.4986  0.3638
  254TIP3    H122397   2.462   6.353   7.920  3.2594  1.2780  1.5292
  254TIP3    H222398   2.338   6.313   7.998  0.3846 -0.1676 -3.3423
  255TIP3   OH222399   0.296   4.690   1.644  0.3599 -0.9539  0.3815
  255TIP3    H122400   0.323   4.648   1.562  0.2470  1.4261 -0.9570
  255TIP3    H222401   0.314   4.783   1.630 -0.7572 -0.3410  2.6338
  256TIP3   OH222402   4.052   4.175   2.401  0.3492  0.1900 -0.2930
  256TIP3    H122403   4.107   4.173   2.480  1.0689 -0.5961 -0.7962
  256TIP3    H222404   4.087   4.104   2.347 -0.5073  0.3608 -1.0730
  257TIP3   OH222405   3.001   1.603   6.976 -0.0687 -0.4793  0.1008
  257TIP3    H122406   2.944   1.628   7.048 -0.6926 -0.7145 -0.3027
  257TIP3    H222407   3.072   1.667   6.978 -1.3993  1.0670 -0.6383
  258TIP3   OH222408   3.400   6.154   0.515  0.3561 -0.5360 -0.5148
  258TIP3    H122409   3.383   6.189   0.603 -0.0364 -1.0436 -0.3893
  258TIP3    H222410   3.314   6.154   0.473  0.6143  0.1521 -1.0707
  259TIP3   OH222411   5.248   5.792   7.399  0.4337 -0.3041  0.1044
  259TIP3    H122412   5.245   5.834   7.485  0.5358  0.1495 -0.1137
  259TIP3    H222413   5.173   5.732   7.400 -0.5680  0.8898 -0.0891
  260TIP3   OH222414   0.508   1.572   9.167  0.2345 -0.0113 -0.3624
  260TIP3    H122415   0.457   1.652   9.178  1.3294  0.9398 -1.7858
  260TIP3    H222416   0.599   1.601   9.168  0.6487 -1.1813 -1.2128
  261TIP3   OH222417   6.029   0.129   1.553 -0.2050  0.1618 -0.4207
  261TIP3    H122418   6.020   0.132   1.648 -1.1077 -0.2898 -0.4827
  261TIP3    H222419   5.949   0.171   1.521 -0.5525 -0.9038 -0.9887
  262TIP3   OH222420   4.783   1.102   0.680  0.6896  0.7027 -0.4293
  262TIP3    H122421   4.734   1.181   0.704 -2.4298 -1.2347  0.2151
  262TIP3    H222422   4.739   1.069   0.602  1.6906 -0.5768 -0.4890
  263TIP3   OH222423   1.606   0.572   9.065 -0.4957  0.1807 -0.2617
  263TIP3    H122424   1.636   0.646   9.013  2.5414 -1.1973 -0.6625
  263TIP3    H222425   1.613   0.601   9.156  1.0329  0.3276 -0.4010
  264TIP3   OH222426   2.923   6.654   0.073  0.0082  0.1079  0.6642
  264TIP3    H122427   3.001   6.652   0.018 -0.0935 -0.3389  0.5323
  264TIP3    H222428   2.853   6.682   0.014  0.3568  2.1591  1.1595
  265TIP3   OH222429   1.463   1.516   1.698 -0.1917  0.1753 -0.0533
  265TIP3    H122430   1.416   1.454   1.753 -0.3210  0.9340  0.7007
  265TIP3    H222431   1.552   1.481   1.694 -0.2280  0.0180  0.4913
  266TIP3   OH222432   3.757   1.755   8.219 -0.1463  0.0659  0.1715
  266TIP3    H122433   3.662   1.764   8.210 -0.2808 -0.0680  1.2764
  266TIP3    H222434   3.783   1.832   8.270  0.7101  1.4034 -2.1557
  267TIP3   OH222435   3.594   5.340   0.229  0.4184 -0.2796  0.0371
  267TIP3    H122436   3.544   5.346   0.311  0.2746 -0.0335 -0.0665
  267TIP3    H222437   3.591   5.429   0.193  2.0850  0.0814  0.6992
  268TIP3   OH222438   3.207   2.990   0.578  0.3265 -0.0484 -0.1659
  268TIP3    H122439   3.140   2.971   0.643  0.7893  2.6012  1.2429
  268TIP3    H222440   3.221   3.085   0.584  3.6735 -0.3452 -0.8572
  269TIP3   OH222441   1.830   4.850   7.597  0.0192  0.3888 -0.0007
  269TIP3    H122442   1.813   4.895   7.680  0.4991  1.8032 -0.6361
  269TIP3    H222443   1.759   4.879   7.539 -0.6962 -1.1098  0.0785
  270TIP3   OH222444   4.687   1.630   0.569 -0.2490  0.8875  0.0524
  270TIP3    H122445   4.606   1.602   0.611  0.0802 -0.9420 -0.4550
  270TIP3    H222446   4.742   1.660   0.642  0.0790 -1.6667  0.9627
  271TIP3   OH222447   0.059   1.382   8.433 -0.2240  0.2623  0.1424
  271TIP3    H122448   0.043   1.477   8.436 -0.1815  0.2747  0.0070
  271TIP3    H222449   0.153   1.374   8.420 -0.3856  0.2291 -1.2037
  272TIP3   OH222450   3.499   3.979   7.259 -0.0278 -0.0163  0.1131
  272TIP3    H122451   3.590   3.959   7.237 -0.0070 -0.9557  0.9703
  272TIP3    H222452   3.474   4.047   7.197  0.6450 -1.1080 -1.4455
  273TIP3   OH222453   0.170   4.573   0.339 -0.0143  0.0066  0.4730
  273TIP3    H122454   0.162   4.582   0.244  0.8201 -0.1951  0.3704
  273TIP3    H222455   0.167   4.663   0.372 -1.3868  0.0094  0.3640
  274TIP3   OH222456   5.640   1.158   0.020  0.7333 -0.2897 -0.0706
  274TIP3    H122457   5.694   1.236   0.020 -1.5478  1.4241  1.3667
  274TIP3    H222458   5.618   1.144  -0.072  0.1197  1.5881 -0.2537
  275TIP3   OH222459   1.997   0.044   8.851  0.1392  0.1084  0.0787
  275TIP3    H122460   1.971   0.088   8.770 -1.8262 -0.1458  0.5135
  275TIP3    H222461   1.945  -0.037   8.852  1.5610 -0.8389  0.6808
  276TIP3   OH222462   1.266   5.623   1.117  0.2554 -0.0297 -0.1975
  276TIP3    H122463   1.224   5.659   1.195  1.6986  0.8444  0.2041
  276TIP3    H222464   1.301   5.538   1.145  1.0374  0.4194  0.2014
  277TIP3   OH222465   0.609   2.451   1.667  0.2937 -0.0771  0.1501
  277TIP3    H122466   0.627   2.362   1.639 -2.8737 -0.6458 -0.5050
  277TIP3    H222467   0.514   2.453   1.682  0.6754  2.3281  3.3020
  278TIP3   OH222468   3.133   4.199   8.723 -0.4094 -0.1649 -0.1920
  278TIP3    H122469   3.132   4.271   8.787 -0.2631 -0.9045  0.6770
  278TIP3    H222470   3.098   4.124   8.772 -0.6778 -0.6523 -1.1187
  279TIP3   OH222471   2.533   5.014   7.525  0.1200  0.2878  0.7762
  279TIP3    H122472   2.487   5.085   7.481  0.1153 -0.2604 -0.1270
  279TIP3    H222473   2.625   5.039   7.522  0.2153 -0.1519 -0.3399
  280TIP3   OH222474   5.441   5.976   1.004  0.0532  0.1533  0.4427
  280TIP3    H122475   5.526   6.015   0.986 -0.6170  2.1109  1.2136
  280TIP3    H222476   5.429   5.910   0.936  1.9295  0.2196  0.0056
  281TIP3   OH222477   0.622   4.637   0.713  0.1190 -0.0338  0.2194
  281TIP3    H122478   0.613   4.547   0.743  0.1278 -0.1298 -0.0566
  281TIP3    H222479   0.680   4.631   0.637  0.5925  0.2782  0.5470
  282TIP3   OH222480   4.776   1.939   1.858 -0.1576  0.1187  0.1382
  282TIP3    H122481   4.787   1.856   1.811  1.5417  1.6197 -2.3744
  282TIP3    H222482   4.716   1.990   1.803  0.0809  1.1240  0.7774
  283TIP3   OH222483   3.108   4.580   1.943 -0.7418  1.1287 -0.2403
  283TIP3    H122484   3.091   4.495   1.903  0.0671  0.5105  0.7022
  283TIP3    H222485   3.072   4.574   2.031  1.0627  1.0550  0.5237
  284TIP3   OH222486   1.325   6.578   1.798  0.5511  0.2802  0.0118
  284TIP3    H122487   1.277   6.528   1.732 -0.6218 -0.1091  1.1083
  284TIP3    H222488   1.417   6.568   1.774  0.2055 -0.6494 -1.0016
  285TIP3   OH222489   3.571   6.691   2.900 -0.0526 -0.1456  0.6206
  285TIP3    H122490   3.543   6.605   2.932  0.0212 -0.2265  0.4656
  285TIP3    H222491   3.647   6.713   2.954  1.4622 -1.2674 -0.9346
  286TIP3   OH222492   1.752   4.761   0.851 -0.4097 -0.0530  0.1622
  286TIP3    H122493   1.735   4.694   0.785 -0.5004  0.0023  0.1293
  286TIP3    H222494   1.847   4.756   0.866 -0.5280 -0.7236  0.7353
  287TIP3   OH222495   1.219   0.782   7.758  0.1866 -0.1874 -0.2396
  287TIP3    H122496   1.236   0.753   7.668  0.0778 -0.2581 -0.2373
  287TIP3    H222497   1.306   0.786   7.798  0.1424 -1.1766 -0.0330
  288TIP3   OH222498   3.880   1.528   7.012  0.1093 -0.0543 -0.7928
  288TIP3    H122499   3.975   1.523   7.010  0.1834  1.0860 -0.9591
  288TIP3    H222500   3.858   1.595   6.947 -0.5852  1.9501  1.3611
  289TIP3   OH222501   4.388   4.300   7.577 -0.1507  0.6307 -0.0570
  289TIP3    H122502   4.476   4.279   7.545 -0.3770  1.0072 -0.9554
  289TIP3    H222503   4.332   4.231   7.540 -0.1928  0.2351  0.7401
  290TIP3   OH222504   4.210   4.133   2.644  0.2363  0.5152  0.0385
  290TIP3    H122505   4.215   4.057   2.703 -1.7940  0.1971 -0.1200
  290TIP3    H222506   4.294   4.178   2.655  0.5795 -0.4885  1.8702
  291TIP3   OH222507   5.448   5.586   2.269  0.2006  0.1178  0.3726
  291TIP3    H122508   5.521   5.527   2.284 -0.0486 -0.0695  0.8799
  291TIP3    H222509   5.374   5.527   2.252  0.4712  0.3019 -1.7467
  292TIP3   OH222510   2.354   4.862   1.778 -0.7786  0.4444  0.4592
  292TIP3    H122511   2.266   4.894   1.762 -1.6088 -1.2108  1.5092
  292TIP3    H222512   2.367   4.868   1.872 -0.0955 -0.0917  0.4181
  293TIP3   OH222513   2.020   5.691   0.976 -0.3015 -0.1111 -0.0505
  293TIP3    H122514   2.106   5.654   0.994 -0.6493 -1.4121 -0.8927
  293TIP3    H222515   2.035   5.784   0.965  0.7965 -0.1362  1.0686
  294TIP3   OH222516   5.512   0.833   1.856  0.4999  0.2299  0.5267
  294TIP3    H122517   5.446   0.872   1.799  0.8963 -2.2207 -1.8235
  294TIP3    H222518   5.593   0.835   1.805  1.4288  0.0422  1.9483
  295TIP3   OH222519   3.111   3.444   8.986  0.1543 -0.5360 -0.0572
  295TIP3    H122520   3.149   3.382   9.049  1.4723 -0.6167 -0.8936
  295TIP3    H222521   3.022   3.459   9.018 -0.1571 -2.7405  0.2647
  296TIP3   OH222522   6.348   4.634   7.026 -1.6649 -0.3507  0.2432
  296TIP3    H122523   6.361   4.715   6.977  0.1092 -1.1278 -0.6669
  296TIP3    H222524   6.424   4.630   7.085 -2.2867 -0.8491  1.0290
  297TIP3   OH222525   3.681   1.921   2.983  0.2960  0.2051 -0.2117
  297TIP3    H122526   3.713   1.853   2.924 -0.3419 -0.3282  0.0357
  297TIP3    H222527   3.613   1.877   3.035 -0.9872  1.3357 -0.8694
  298TIP3   OH222528   4.682   1.734   8.191 -0.1253  1.1103 -0.6402
  298TIP3    H122529   4.774   1.755   8.179 -0.4153  1.8076 -1.8590
  298TIP3    H222530   4.680   1.675   8.266  1.2625  1.4000 -0.3467
  299TIP3   OH222531   5.577   0.970   8.964 -1.0738 -0.1670  0.2102
  299TIP3    H122532   5.534   0.890   8.997 -1.8267 -0.3399 -1.1176
  299TIP3    H222533   5.667   0.944   8.949 -1.5323 -1.0724 -1.1293
  300TIP3   OH222534   4.146   6.138   1.807  0.2467 -0.3454 -0.4698
  300TIP3    H122535   4.171   6.051   1.838  0.8351  0.2004  0.6497
  300TIP3    H222536   4.199   6.152   1.729  1.4591 -0.3033  0.3378
  301TIP3   OH222537   5.602   4.174   2.411 -0.3908 -0.0864  0.2561
  301TIP3    H122538   5.597   4.259   2.454  0.6621 -0.2805  0.7801
  301TIP3    H222539   5.512   4.142   2.411 -0.8369  1.0863 -0.0991
  302TIP3   OH222540   4.949   5.912   1.308  0.2148  0.3947 -0.1722
  302TIP3    H122541   4.991   5.888   1.391  0.2912  0.3493 -0.2247
  302TIP3    H222542   4.864   5.949   1.335  0.4811  0.9187 -0.0452
  303TIP3   OH222543   6.695   5.834   8.664 -0.6127 -0.2119 -0.6556
  303TIP3    H122544   6.619   5.877   8.702 -0.6647 -0.4905 -0.4343
  303TIP3    H222545   6.762   5.902   8.660 -1.2354  0.3459 -1.9565
  304TIP3   OH222546   6.099   5.408   8.359  0.5168 -0.2005 -0.3013
  304TIP3    H122547   6.028   5.422   8.297  0.6226  1.6875 -0.0495
  304TIP3    H222548   6.175   5.448   8.318  1.4606 -2.1030 -0.5221
  305TIP3   OH222549   5.351   4.808   2.653  0.2863  0.4909 -0.5403
  305TIP3    H122550   5.261   4.779   2.641  0.4750 -0.7284  0.6804
  305TIP3    H222551   5.387   4.747   2.717  1.1278  2.6683  1.2141
  306TIP3   OH222552   1.740   4.374   3.228  0.3276  0.3155  0.0444
  306TIP3    H122553   1.685   4.411   3.159  1.9697 -0.3101 -1.6691
  306TIP3    H222554   1.817   4.432   3.231  0.2049  0.4409  1.5093
  307TIP3   OH222555   0.255   6.490   9.131  0.1477  0.5932 -0.8060
  307TIP3    H122556   0.226   6.483   9.222  0.4663  3.2755 -0.4111
  307TIP3    H222557   0.174   6.501   9.081  0.0663  0.7764 -0.6358
  308TIP3   OH222558   2.165   3.999   0.351 -0.4690 -0.3649  0.0789
  308TIP3    H122559   2.123   4.009   0.265  0.3082  0.8753 -0.1774
  308TIP3    H222560   2.238   3.939   0.335  1.1661  1.7008 -0.7284
  309TIP3   OH222561   6.518   6.154   2.301 -0.3700 -0.0135  0.5629
  309TIP3    H122562   6.612   6.150   2.314 -0.3706 -1.9993  0.1789
  309TIP3    H222563   6.489   6.063   2.304 -2.2979  0.5684  0.7874
  310TIP3   OH222564   2.508   4.811   1.556 -0.1577 -0.2654  0.2581
  310TIP3    H122565   2.536   4.900   1.536 -2.0762 -0.1570 -2.5221
  310TIP3    H222566   2.460   4.818   1.639  1.8891  0.7414  1.4189
  311TIP3   OH222567   1.377   0.962   1.892 -0.1845  0.3925 -0.1510
  311TIP3    H122568   1.355   0.876   1.857 -1.0666  0.1185  1.0013
  311TIP3    H222569   1.423   1.007   1.820 -0.6504 -0.6435 -1.1224
  312TIP3   OH222570   6.317   2.303   2.210  0.0461 -0.1726  0.0044
  312TIP3    H122571   6.321   2.208   2.195 -0.0245 -0.0223 -1.0400
  312TIP3    H222572   6.268   2.312   2.291 -0.5555 -1.0201 -0.2506
  313TIP3   OH222573   2.338   4.314   0.861 -0.0618 -0.4980 -0.3418
  313TIP3    H122574   2.243   4.315   0.853 -0.1775 -0.1009  0.8194
  313TIP3    H222575   2.370   4.319   0.772 -1.1250  2.5139 -0.6492
  314TIP3   OH222576   4.186   4.787   9.024 -0.2504  0.2104  0.3676
  314TIP3    H122577   4.208   4.742   9.106 -2.9699 -0.4391  0.8660
  314TIP3    H222578   4.216   4.727   8.955  0.3294 -0.1596  0.9298
  315TIP3   OH222579   1.010   1.681   2.484  0.0898 -0.0770  0.4282
  315TIP3    H122580   1.081   1.745   2.498  0.1346  0.4340 -1.7830
  315TIP3    H222581   1.048   1.616   2.425 -0.7066 -0.8830  0.7830
  316TIP3   OH222582   3.091   4.044   1.632 -0.8285  0.7757 -0.0032
  316TIP3    H122583   3.151   3.970   1.630 -2.2929 -0.5202  1.2019
  316TIP3    H222584   3.119   4.096   1.707  0.9867  2.2167 -1.5857
  317TIP3   OH222585   5.877   3.694   8.042 -0.0236  0.1055 -0.1006
  317TIP3    H122586   5.878   3.733   7.954  0.5807 -1.0012 -0.5997
  317TIP3    H222587   5.892   3.768   8.100  0.8170  0.6785 -1.0104
  318TIP3   OH222588   2.144   3.730   2.571  0.2656 -0.0133  0.1790
  318TIP3    H122589   2.197   3.721   2.650 -2.0921 -0.6151  1.8052
  318TIP3    H222590   2.090   3.651   2.569 -1.5935  1.2092 -0.5467
  319TIP3   OH222591   6.598   5.156   2.000  0.2290  0.3018  0.3176
  319TIP3    H122592   6.574   5.195   2.084 -0.4374  0.9510 -0.1703
  319TIP3    H222593   6.580   5.063   2.012  2.1189  0.0314  1.5943
  320TIP3   OH222594   1.187   5.345   7.962 -0.0517  0.2825  0.7819
  320TIP3    H122595   1.123   5.375   7.897  0.1874 -1.6487 -0.4369
  320TIP3    H222596   1.185   5.412   8.030 -0.9245  1.9896 -0.8162
  321TIP3   OH222597   5.450   1.180   0.847  0.0755 -0.4506  0.6534
  321TIP3    H122598   5.485   1.167   0.759  1.4348 -0.8717  1.2246
  321TIP3    H222599   5.361   1.212   0.833  1.0856  1.9380 -0.9055
  322TIP3   OH222600   2.210   4.019   0.894  0.1642  0.1621  0.2912
  322TIP3    H122601   2.186   3.988   0.807 -0.3558  0.9225  0.1618
  322TIP3    H222602   2.301   4.048   0.885 -0.2364  1.2956 -0.2938
  323TIP3   OH222603   6.059   6.619   8.681 -0.5002 -0.4105 -0.7966
  323TIP3    H122604   6.001   6.598   8.755  1.8909  1.3681  1.7656
  323TIP3    H222605   6.097   6.535   8.656 -1.9039 -1.1501 -0.5549
  324TIP3   OH222606   4.154   5.382   0.971  0.1255 -0.3892 -0.4520
  324TIP3    H122607   4.224   5.384   0.905 -0.3256 -1.2465 -0.9791
  324TIP3    H222608   4.187   5.323   1.039  0.5153  0.3522  0.0108
  325TIP3   OH222609   3.970   3.251   9.012  0.4510 -0.1040  0.0252
  325TIP3    H122610   4.025   3.233   9.088 -1.0869 -0.3920  1.1176
  325TIP3    H222611   3.899   3.306   9.046 -0.1731 -0.0861 -1.2449
  326TIP3   OH222612   5.425   5.571   9.021 -0.3872  0.5049  0.0079
  326TIP3    H122613   5.348   5.628   9.015 -1.1168 -0.6130 -2.2581
  326TIP3    H222614   5.495   5.621   8.978  0.4263  1.7638  2.5607
  327TIP3   OH222615   2.594   0.849   8.744  0.1481  0.1837  0.2219
  327TIP3    H122616   2.528   0.905   8.785 -0.1787 -0.8077  1.1054
  327TIP3    H222617   2.606   0.777   8.806  2.2140  0.4310  0.1892
  328TIP3   OH222618   1.718   1.353   8.825  0.0653 -0.1692  0.3134
  328TIP3    H122619   1.667   1.396   8.757 -0.7495  0.7834  1.4905
  328TIP3    H222620   1.681   1.265   8.832  0.1155 -0.2533 -0.4083
  329TIP3   OH222621   1.484   1.201   8.926 -0.7232 -0.2928 -0.3172
  329TIP3    H122622   1.484   1.119   8.975 -0.6872 -0.1464 -0.0729
  329TIP3    H222623   1.452   1.266   8.988  1.7714  0.3901  0.3567
  330TIP3   OH222624   0.829   4.581   2.614  0.1522 -0.6644 -0.0333
  330TIP3    H122625   0.821   4.495   2.655 -0.9597 -0.8908 -0.7047
  330TIP3    H222626   0.922   4.589   2.593  0.0943 -2.1949 -1.0042
  331TIP3   OH222627   0.051   1.913   0.665  0.3505  0.6151 -0.3115
  331TIP3    H122628  -0.032   1.928   0.619  1.2872 -0.1993 -2.4397
  331TIP3    H222629   0.056   1.818   0.675  1.2807  0.6007 -0.7760
  332TIP3   OH222630   2.695   1.658   9.113  0.1436 -0.2129  0.2959
  332TIP3    H122631   2.627   1.594   9.093  1.3885 -0.7364 -2.8800
  332TIP3    H222632   2.649   1.730   9.156 -1.8347 -1.8005  1.0030
  333TIP3   OH222633   3.916   0.642   1.000  0.0277  0.6913 -0.1450
  333TIP3    H122634   3.967   0.600   0.930  1.0354  0.7224  0.5509
  333TIP3    H222635   3.827   0.646   0.965 -0.3995 -2.9840  0.1000
  334TIP3   OH222636   2.078   2.680   8.184 -0.0648 -0.0932 -0.1366
  334TIP3    H122637   2.141   2.715   8.247 -0.2416 -1.0216  0.5925
  334TIP3    H222638   2.072   2.587   8.207  1.1234 -0.8651 -2.5894
  335TIP3   OH222639   3.964   2.878   0.202 -0.0284 -0.5057 -0.7545
  335TIP3    H122640   3.901   2.890   0.273  1.8124 -1.2530  1.0844
  335TIP3    H222641   3.949   2.788   0.173 -1.5140  0.1297 -2.1497
  336TIP3   OH222642   0.366   4.889   9.073 -0.1132  0.1824 -0.2274
  336TIP3    H122643   0.361   4.827   9.146  1.6341  0.2429 -0.0200
  336TIP3    H222644   0.277   4.923   9.064 -0.1984  0.9040  2.5216
  337TIP3   OH222645   3.272   0.566   9.095 -0.3833  0.4437 -0.4331
  337TIP3    H122646   3.365   0.544   9.096 -0.6707 -0.8561  0.3364
  337TIP3    H222647   3.269   0.658   9.067  1.1801  0.7906  0.4366
  338TIP3   OH222648   4.394   5.576   1.811 -0.4608  0.6221  0.7288
  338TIP3    H122649   4.408   5.664   1.845 -1.4892  0.9986  0.2223
  338TIP3    H222650   4.332   5.587   1.738  0.2385 -0.3862 -0.0586
  339TIP3   OH222651   4.051   1.847   8.186 -0.1256  0.0975 -0.1460
  339TIP3    H122652   3.991   1.799   8.243  0.1862  1.5873  1.5172
  339TIP3    H222653   4.137   1.809   8.203  0.2223  1.5333  1.6367
  340TIP3   OH222654   6.298   3.960   1.924  0.1352 -0.1586 -0.5298
  340TIP3    H122655   6.344   3.898   1.981  1.7802  0.3202 -1.2821
  340TIP3    H222656   6.289   3.914   1.840 -0.4843 -0.1208 -0.4896
  341TIP3   OH222657   4.238   0.918   9.147 -0.3308  0.2066 -0.2533
  341TIP3    H122658   4.183   0.895   9.222  0.7449 -0.9650  0.2282
  341TIP3    H222659   4.177   0.926   9.074 -1.3239  0.6830  0.6051
  342TIP3   OH222660   2.930   0.498   2.669  0.0761 -0.3350  0.7879
  342TIP3    H122661   2.982   0.577   2.656  0.3169 -0.4873  0.8279
  342TIP3    H222662   2.942   0.476   2.761 -0.4368 -0.1046  0.9132
  343TIP3   OH222663   2.507   6.514   2.124  0.3136 -0.4788 -0.1010
  343TIP3    H122664   2.421   6.548   2.099  0.3056 -0.3309  0.1190
  343TIP3    H222665   2.499   6.419   2.115 -0.7512 -0.7262  2.4580
  344TIP3   OH222666   3.406   2.680   8.202 -0.9170 -0.6583  0.2892
  344TIP3    H122667   3.472   2.736   8.242  1.1015 -2.3130 -0.5287
  344TIP3    H222668   3.347   2.657   8.273  1.2100 -1.6337  1.8423
  345TIP3   OH222669   2.136   3.313   8.280  0.0809 -0.4452 -0.1053
  345TIP3    H122670   2.141   3.295   8.187 -0.0016  0.8027 -0.3762
  345TIP3    H222671   2.059   3.371   8.289 -0.7311 -1.6260  0.9236
  346TIP3   OH222672   3.963   3.433   2.877 -0.0013 -0.2629 -0.1764
  346TIP3    H122673   4.043   3.454   2.926 -1.1390  1.2015  1.1391
  346TIP3    H222674   3.918   3.367   2.930 -0.0631 -0.4794 -0.4970
  347TIP3   OH222675   3.798   4.364   8.722  0.5597 -0.4386  0.5322
  347TIP3    H122676   3.790   4.291   8.660 -0.5677 -0.4551  0.6722
  347TIP3    H222677   3.769   4.327   8.806  0.0999  0.1356  0.6309
  348TIP3   OH222678   4.928   1.401   0.787 -0.0160  0.1252  0.0379
  348TIP3    H122679   4.954   1.460   0.858  2.0888 -0.6339 -0.0069
  348TIP3    H222680   4.835   1.419   0.773 -0.4945  0.3691  2.9141
  349TIP3   OH222681   3.502   5.867   1.278  0.2139 -0.0530 -0.6238
  349TIP3    H122682   3.529   5.909   1.196 -0.8765 -0.4083 -1.1902
  349TIP3    H222683   3.415   5.832   1.259 -1.2784  2.1764  1.5090
  350TIP3   OH222684   5.467   1.379   8.448 -0.6546 -0.2656 -0.3255
  350TIP3    H122685   5.422   1.313   8.501 -0.0349  1.4408  2.5508
  350TIP3    H222686   5.560   1.363   8.464 -0.4841  2.1659  1.7884
  351TIP3   OH222687   0.236   3.552   8.138 -0.1237  0.0106 -0.2930
  351TIP3    H122688   0.204   3.544   8.228 -1.8818  1.9805 -0.6753
  351TIP3    H222689   0.163   3.592   8.090  0.9460 -0.5365 -2.5041
  352TIP3   OH222690   5.136   3.512   9.117  0.9196 -0.4310  0.7257
  352TIP3    H122691   5.112   3.534   9.027 -0.9013  0.2640  1.3288
  352TIP3    H222692   5.135   3.416   9.120  1.0711 -0.4593  0.0019
  353TIP3   OH222693   6.651   4.804   2.315 -0.0405 -0.1408 -0.6389
  353TIP3    H122694   6.684   4.739   2.378 -1.3095  0.1871  0.4254
  353TIP3    H222695   6.603   4.751   2.251 -1.3703 -0.2850  0.4180
  354TIP3   OH222696   0.174   3.430   2.200 -0.2149 -0.2214  0.1820
  354TIP3    H122697   0.187   3.428   2.295  1.1214  1.5489  0.0851
  354TIP3    H222698   0.239   3.369   2.166 -0.4339 -0.5652  0.3755
  355TIP3   OH222699   2.266   6.177   2.579 -0.1312 -0.3218  0.3067
  355TIP3    H122700   2.174   6.173   2.605 -0.4307  2.1469 -0.0823
  355TIP3    H222701   2.272   6.117   2.505 -1.0322 -1.6998  1.3034
  356TIP3   OH222702   6.011   1.392   1.858 -0.2316 -0.5324  0.4921
  356TIP3    H122703   5.995   1.299   1.846 -0.6283 -0.2829 -1.0544
  356TIP3    H222704   5.924   1.431   1.868 -0.0288 -0.4498  2.4755
  357TIP3   OH222705   6.142   2.041   2.832 -0.2325 -0.4540 -0.7568
  357TIP3    H122706   6.061   2.092   2.825 -1.5264 -2.1356  1.0214
  357TIP3    H222707   6.183   2.072   2.913 -0.0636 -0.9255 -0.6573
  358TIP3   OH222708   2.605   4.162   7.012 -0.5768  0.0815 -0.3603
  358TIP3    H122709   2.684   4.209   6.986 -0.6518 -0.5261 -1.8143
  358TIP3    H222710   2.578   4.203   7.094  1.1219  0.4347  0.0565
  359TIP3   OH222711   1.790   3.131   7.433 -0.2510 -0.9151  0.7107
  359TIP3    H122712   1.822   3.216   7.463  2.8289 -2.4754  2.3973
  359TIP3    H222713   1.774   3.082   7.514  0.2115 -2.6028 -0.1785
  360TIP3   OH222714   6.146   0.268   1.344 -0.0403  0.0883  0.0468
  360TIP3    H122715   6.120   0.239   1.432  0.2034 -0.7608 -0.1472
  360TIP3    H222716   6.105   0.353   1.334 -0.8435 -0.2140  0.6322
  361TIP3   OH222717   1.909   5.974   7.107  0.2323 -0.1841  0.2461
  361TIP3    H122718   1.817   5.998   7.096  0.8500  1.9276 -0.9271
  361TIP3    H222719   1.920   5.892   7.059 -1.0617 -0.5520  0.5615
  362TIP3   OH222720   0.037   1.529   1.476 -0.4251  0.0633 -0.4299
  362TIP3    H122721  -0.005   1.461   1.529 -1.4496  0.5041 -0.6480
  362TIP3    H222722   0.110   1.560   1.530 -1.2350  0.2643  0.5975
  363TIP3   OH222723   0.198   3.659   0.339 -0.5541  0.3502  0.1519
  363TIP3    H122724   0.203   3.737   0.284 -1.1083  0.0830 -0.2877
  363TIP3    H222725   0.221   3.587   0.280  2.7645  0.3869  1.1655
  364TIP3   OH222726   5.894   4.607   0.542 -0.1461  0.0735  0.9459
  364TIP3    H122727   5.862   4.528   0.585  2.1186 -2.1972 -1.2002
  364TIP3    H222728   5.944   4.653   0.610 -1.5177 -0.2377  2.2307
  365TIP3   OH222729   0.298   6.194   0.960  1.0055  0.3669 -0.2860
  365TIP3    H122730   0.386   6.214   0.993  0.8304  1.6190 -0.5498
  365TIP3    H222731   0.243   6.264   0.994  0.7932  1.6931 -3.0935
  366TIP3   OH222732   3.588   6.100   1.113 -0.2125 -0.1240 -0.2628
  366TIP3    H122733   3.558   6.186   1.084  0.6553 -0.4439 -2.2921
  366TIP3    H222734   3.668   6.085   1.063 -0.1240 -1.9336  0.3570
  367TIP3   OH222735   4.503   5.006   2.235  0.3003  0.0068 -0.9115
  367TIP3    H122736   4.584   5.056   2.239  0.8610 -0.4264 -4.1515
  367TIP3    H222737   4.529   4.921   2.198 -1.4200 -0.6935 -0.6136
  368TIP3   OH222738   5.594   4.406   2.553  0.0447 -0.1470  0.0755
  368TIP3    H122739   5.646   4.429   2.630 -0.3377  0.8311  0.0619
  368TIP3    H222740   5.508   4.385   2.587  0.0903 -0.4938 -0.0187
  369TIP3   OH222741   0.852   0.755   0.694  0.0147 -0.3418 -0.1862
  369TIP3    H122742   0.875   0.675   0.647 -0.3914 -2.7587  3.3026
  369TIP3    H222743   0.761   0.772   0.668  0.6048  0.0040 -2.1722
  370TIP3   OH222744   5.304   1.278   1.503  0.5004  0.4851  0.1422
  370TIP3    H122745   5.234   1.250   1.444 -1.2825  0.3058  2.2234
  370TIP3    H222746   5.366   1.205   1.503  0.5985  0.5233 -1.5154
  371TIP3   OH222747   2.707   3.931   8.852 -0.3266  0.3599  0.7427
  371TIP3    H122748   2.679   3.983   8.777  1.2249  0.1201 -0.0290
  371TIP3    H222749   2.662   3.848   8.843  0.4826  0.0316 -0.3939
  372TIP3   OH222750   5.239   1.835   2.825 -0.2858  0.2380  0.4810
  372TIP3    H122751   5.334   1.844   2.820 -0.1897 -0.2785  1.2583
  372TIP3    H222752   5.224   1.779   2.901 -1.1939 -0.0000  0.1389
  373TIP3   OH222753   4.103   1.906   1.335 -0.1769  0.1722  0.0478
  373TIP3    H122754   4.109   1.941   1.246  0.4478 -1.7241 -0.6923
  373TIP3    H222755   4.014   1.873   1.342  0.3374 -1.4431 -0.6027
  374TIP3   OH222756   3.601   1.620   8.017 -0.6796  0.4916  0.1138
  374TIP3    H122757   3.535   1.681   8.051 -1.2904 -0.1564  0.1015
  374TIP3    H222758   3.605   1.550   8.081  2.2637  1.9738  1.7868
  375TIP3   OH222759   0.288   4.057   0.851 -0.4577 -0.4063  0.4303
  375TIP3    H122760   0.276   4.009   0.933 -2.5970 -1.8129 -0.6141
  375TIP3    H222761   0.353   4.006   0.802  0.3858  0.1151  0.9815
  376TIP3   OH222762   2.795   0.618   2.467  1.0213  0.1080 -0.0625
  376TIP3    H122763   2.863   0.585   2.526  1.7020 -0.9573 -1.3858
  376TIP3    H222764   2.735   0.666   2.524  0.8234 -2.1416  1.7493
  377TIP3   OH222765   5.370   1.880   8.215  0.1340  0.2726  0.1363
  377TIP3    H122766   5.444   1.838   8.170 -0.0873 -1.4874  1.2936
  377TIP3    H222767   5.334   1.941   8.151  2.2389  0.7712 -0.6520
  378TIP3   OH222768   5.341   4.038   8.963  0.1246 -0.2173  0.1655
  378TIP3    H122769   5.434   4.016   8.952  1.0684  3.1099  0.3450
  378TIP3    H222770   5.335   4.129   8.934 -2.5490  0.5368  2.6717
  379TIP3   OH222771   4.628   0.272   0.944  0.5534 -0.3640  0.3680
  379TIP3    H122772   4.658   0.238   0.860 -1.8498  2.1179 -1.6922
  379TIP3    H222773   4.702   0.323   0.977  1.2275 -0.6359 -0.6730
  380TIP3   OH222774   3.069   0.147   7.640  0.2935  0.1677  0.2467
  380TIP3    H122775   3.086   0.201   7.563  0.5906 -0.0989  0.1258
  380TIP3    H222776   3.074   0.057   7.609  0.1264  0.0634  0.5166
  381TIP3   OH222777   2.583   3.358   1.690 -0.0279  0.1699 -0.0173
  381TIP3    H122778   2.644   3.415   1.643 -1.1793  2.4550  1.0780
  381TIP3    H222779   2.497   3.397   1.675 -0.7319 -0.5675  1.7732
  382TIP3   OH222780   3.807   6.581   2.260  0.0289  1.2149 -0.3812
  382TIP3    H122781   3.794   6.651   2.324 -0.1129 -0.3038  1.3470
  382TIP3    H222782   3.814   6.502   2.313  1.0903  0.0200 -2.2113
  383TIP3   OH222783   4.730   2.696   0.097  0.2406 -0.7364  0.4737
  383TIP3    H122784   4.779   2.668   0.175  2.5578  0.9799 -0.2587
  383TIP3    H222785   4.743   2.791   0.093 -1.6661 -0.4704 -0.8473
  384TIP3   OH222786   1.380   1.164   8.328  0.3117 -0.1986 -0.4717
  384TIP3    H122787   1.338   1.106   8.391 -1.3724 -0.3581 -1.6828
  384TIP3    H222788   1.363   1.252   8.362  1.0379 -0.3294  0.2563
  385TIP3   OH222789   1.581   2.085   8.353  0.1505  0.0288 -0.7429
  385TIP3    H122790   1.635   2.165   8.353  0.0772  0.0925  0.3319
  385TIP3    H222791   1.504   2.108   8.301  0.3649  0.4956 -0.8625
  386TIP3   OH222792   4.339   1.278   9.181  0.1989  0.4984  0.2458
  386TIP3    H122793   4.282   1.280   9.259 -2.0387 -0.6898 -1.2627
  386TIP3    H222794   4.414   1.226   9.208 -0.8133 -0.3946  1.4656
  387TIP3   OH222795   2.474   1.477   0.203 -0.6877 -0.3648  0.8125
  387TIP3    H122796   2.464   1.570   0.223 -0.4136 -0.5331  1.7563
  387TIP3    H222797   2.389   1.439   0.223 -0.8616 -0.2911  0.2344
  388TIP3   OH222798   2.655   1.345   1.886 -0.3191 -0.3170  0.2358
  388TIP3    H122799   2.675   1.349   1.793  0.0445 -2.1306  0.2163
  388TIP3    H222800   2.564   1.315   1.890 -0.3711 -0.1323  0.4745
  389TIP3   OH222801   2.647   3.279   9.004 -0.1413  0.0080 -0.0579
  389TIP3    H122802   2.587   3.320   9.066 -0.0119  0.5121 -0.2645
  389TIP3    H222803   2.685   3.206   9.053 -0.0809  0.3665  0.4425
  390TIP3   OH222804   3.565   3.026   0.861  0.2383 -0.0627 -0.0748
  390TIP3    H122805   3.562   3.076   0.942 -1.4961  0.1079 -0.1953
  390TIP3    H222806   3.605   3.085   0.798 -0.1637  0.5254  0.2109
  391TIP3   OH222807   6.543   4.186   8.544 -0.2222  0.2766 -0.2727
  391TIP3    H122808   6.487   4.153   8.614  1.1134  0.0593  0.7347
  391TIP3    H222809   6.527   4.281   8.544  0.0761  0.3332  0.6128
  392TIP3   OH222810   1.683   4.677   2.026 -0.2466 -0.2078  0.2537
  392TIP3    H122811   1.593   4.661   2.054  0.2594 -1.0983  1.4443
  392TIP3    H222812   1.717   4.741   2.088 -0.0275  0.0657 -0.1440
  393TIP3   OH222813   1.804   2.172   8.879  0.0975 -0.2257 -0.9298
  393TIP3    H122814   1.798   2.244   8.942 -0.2273 -1.1755  0.1570
  393TIP3    H222815   1.740   2.194   8.811 -0.9064 -0.0851  0.0285
  394TIP3   OH222816   6.600   2.652   2.342 -1.0702  0.1117 -0.4074
  394TIP3    H122817   6.683   2.698   2.333 -2.0750  2.3901  0.9064
  394TIP3    H222818   6.615   2.589   2.413 -1.1491  2.6500  2.0874
  395TIP3   OH222819   3.126   2.107   9.183 -0.2087  0.1458  0.3042
  395TIP3    H122820   3.106   2.025   9.227 -0.4746 -1.2427 -2.2115
  395TIP3    H222821   3.058   2.116   9.116  0.0713  2.2000  0.2343
  396TIP3   OH222822   2.343   2.932   2.489 -0.3450 -0.2917  0.4280
  396TIP3    H122823   2.398   3.008   2.473  0.8508 -1.2345 -0.1865
  396TIP3    H222824   2.279   2.960   2.554  0.1991  1.1589  0.3570
  397TIP3   OH222825   6.075   1.046   0.078  0.1453 -0.4567 -0.4324
  397TIP3    H122826   6.030   0.970   0.042 -3.1457  1.4356 -0.6950
  397TIP3    H222827   6.107   1.018   0.163 -1.3379 -2.0364 -0.3540
  398TIP3   OH222828   3.983   2.783   9.017  0.3935 -0.2025 -0.1249
  398TIP3    H122829   4.053   2.845   8.997  0.4440 -0.0562  0.4789
  398TIP3    H222830   3.942   2.818   9.096 -1.0665  0.3042 -1.0573
  399TIP3   OH222831   2.674   6.429   8.911 -0.2878  0.5150 -0.0400
  399TIP3    H122832   2.665   6.362   8.843 -1.5987 -0.1383  0.7186
  399TIP3    H222833   2.594   6.482   8.903  0.7832  2.0983 -0.6998
  400TIP3   OH222834   2.710   5.431   7.594 -0.0396  0.2580 -0.2533
  400TIP3    H122835   2.709   5.520   7.560 -1.3480 -0.2272 -1.5746
  400TIP3    H222836   2.803   5.407   7.598  0.2202  0.3754 -3.4522
  401TIP3   OH222837   4.605   0.973   0.490 -0.4840 -0.4990  0.4301
  401TIP3    H122838   4.521   1.016   0.474 -1.7391 -2.8011  0.4015
  401TIP3    H222839   4.632   0.941   0.404 -0.4642 -1.2543  0.7067
  402TIP3   OH222840   2.691   1.786   2.314  0.1608 -0.0419  0.2099
  402TIP3    H122841   2.728   1.821   2.395  2.9361 -1.0607 -0.5161
  402TIP3    H222842   2.749   1.818   2.245 -0.4939 -1.4465 -1.0610
  403TIP3   OH222843   0.764   0.055   2.395  0.3698  0.5079  0.4825
  403TIP3    H122844   0.784   0.004   2.473  1.6472  1.5646  0.8899
  403TIP3    H222845   0.698   0.118   2.423 -0.8313 -0.5576  0.1097
  404TIP3   OH222846   4.688   4.835   8.594 -0.4255  0.4386  0.3409
  404TIP3    H122847   4.708   4.817   8.686  1.1057 -0.2218 -0.0808
  404TIP3    H222848   4.774   4.840   8.552 -1.0901  1.1833 -0.9757
  405TIP3   OH222849   4.118   3.224   0.260 -0.3739  0.2885  0.0580
  405TIP3    H122850   4.029   3.214   0.294  0.3654 -0.6190  1.8638
  405TIP3    H222851   4.122   3.316   0.233 -1.9334  0.2788 -0.3443
  406TIP3   OH222852   4.477   4.962   0.143 -0.0557 -0.5680 -0.0237
  406TIP3    H122853   4.443   5.008   0.066  1.4510 -0.0020 -0.3903
  406TIP3    H222854   4.399   4.941   0.195 -1.1396 -1.2429 -1.8392
  407TIP3   OH222855   6.010   3.394   2.290  0.7642  0.0214  0.4775
  407TIP3    H122856   5.997   3.380   2.384 -1.5435  0.3862  0.2630
  407TIP3    H222857   6.073   3.326   2.265 -0.9275 -2.1546  1.7296
  408TIP3   OH222858   0.480   2.007   0.977 -0.0649 -0.2357  0.2052
  408TIP3    H122859   0.410   2.005   0.911  0.1909 -2.3393 -0.0973
  408TIP3    H222860   0.480   1.918   1.013  0.8377  0.4393  1.9590
  409TIP3   OH222861   3.691   1.962   8.810  0.2752  0.3251 -0.5675
  409TIP3    H122862   3.707   1.872   8.838  0.1388  0.6304  0.5249
  409TIP3    H222863   3.766   1.984   8.756  0.7757 -0.1188 -0.0614
  410TIP3   OH222864   5.492   5.919   0.291  0.1297 -0.5528 -0.5749
  410TIP3    H122865   5.420   5.956   0.343  0.3893  0.4820 -0.9259
  410TIP3    H222866   5.459   5.835   0.261  0.0118 -1.2441  1.3506
  411TIP3   OH222867   0.113   1.218   0.587 -0.2840  0.2147 -0.6513
  411TIP3    H122868   0.100   1.297   0.639  2.4775  1.1617 -1.2449
  411TIP3    H222869   0.106   1.248   0.496  0.0426 -0.3735 -0.8774
  412TIP3   OH222870   0.490   2.139   1.229  0.3285  0.2049 -0.4845
  412TIP3    H122871   0.577   2.164   1.259  0.1994  0.1519 -0.0553
  412TIP3    H222872   0.505   2.093   1.146  0.8074 -0.7032  0.0854
  413TIP3   OH222873   6.128   4.767   0.996  0.2110  0.3144 -0.1778
  413TIP3    H122874   6.178   4.693   1.030 -2.3549 -1.8602 -0.8401
  413TIP3    H222875   6.184   4.803   0.927  2.4262  0.4280  1.5303
  414TIP3   OH222876   4.050   0.139   2.089 -0.1533  0.1223 -0.0840
  414TIP3    H122877   3.993   0.157   2.015 -0.2380 -0.6165 -0.2031
  414TIP3    H222878   3.995   0.153   2.166 -0.2442  0.2715 -0.1767
  415TIP3   OH222879   3.632   2.863   0.155 -0.0503 -0.1305  0.0895
  415TIP3    H122880   3.653   2.931   0.219 -0.4053  0.0532  0.0127
  415TIP3    H222881   3.551   2.823   0.187 -0.5215  0.3143 -0.5098
  416TIP3   OH222882   4.590   2.842   0.810  0.2697  0.1118  0.0391
  416TIP3    H122883   4.604   2.926   0.767 -0.4622 -0.5400 -1.5801
  416TIP3    H222884   4.531   2.861   0.882  0.7259  1.0967  0.1706
  417TIP3   OH222885   1.902   1.143   0.514  0.1211 -0.0694 -0.1068
  417TIP3    H122886   1.826   1.119   0.461  1.1283  0.7998 -2.0559
  417TIP3    H222887   1.965   1.073   0.499  1.1026  1.0701 -1.6248
  418TIP3   OH222888   5.364   2.329   8.639  0.2484  0.6356 -0.2928
  418TIP3    H122889   5.339   2.300   8.551 -0.5524  0.9917 -0.1920
  418TIP3    H222890   5.281   2.351   8.682  0.4026 -1.4516  1.2625
  419TIP3   OH222891   3.395   5.837   8.134  0.5409 -0.2829  0.4687
  419TIP3    H122892   3.484   5.809   8.115  0.1406 -1.4360  0.1718
  419TIP3    H222893   3.353   5.843   8.047  0.1597 -0.3907  0.6418
  420TIP3   OH222894   2.853   3.842   1.421 -0.4094  0.1455  0.0836
  420TIP3    H122895   2.913   3.900   1.376 -0.6450  0.4035  0.0976
  420TIP3    H222896   2.877   3.847   1.513  1.3032 -1.8156 -0.1767
  421TIP3   OH222897   1.384   0.780   2.848 -0.8698  0.2487 -0.1610
  421TIP3    H122898   1.402   0.760   2.939  0.6161 -1.2469 -0.7215
  421TIP3    H222899   1.303   0.831   2.849 -1.8557 -1.2471  1.8540
  422TIP3   OH222900   1.887   0.261   0.120  0.8899  0.0046  0.1293
  422TIP3    H122901   1.870   0.346   0.080  0.6574  0.7656  1.7671
  422TIP3    H222902   1.904   0.203   0.046  0.2725  1.2860 -1.0695
  423TIP3   OH222903   4.527   1.389   9.034 -0.3529 -0.5212 -0.4203
  423TIP3    H122904   4.506   1.445   8.959 -1.8866 -0.4783  0.0020
  423TIP3    H222905   4.454   1.402   9.094  0.5035 -1.0924  0.7882
  424TIP3   OH222906   4.271   2.696   2.461 -0.2829  0.3264  0.0038
  424TIP3    H122907   4.355   2.718   2.501 -0.3619  0.1854  0.2541
  424TIP3    H222908   4.247   2.612   2.501  0.2698 -0.4880 -1.3158
  425TIP3   OH222909   6.682   2.976   0.006  0.2104  0.4978  0.2345
  425TIP3    H122910   6.653   2.943   0.091 -1.0337  1.3071  0.1614
  425TIP3    H222911   6.613   2.949  -0.055 -0.5490  2.6210  0.0696
  426TIP3   OH222912   1.254   4.593   0.203 -0.7003 -0.3765  0.2977
  426TIP3    H122913   1.267   4.534   0.129 -0.1608  0.1123 -0.0074
  426TIP3    H222914   1.177   4.645   0.179  0.4413  0.9485 -0.7339
  427TIP3   OH222915   1.310   3.713   7.618 -0.7894 -0.0455  0.4645
  427TIP3    H122916   1.358   3.785   7.577 -1.8726  0.8545  0.7279
  427TIP3    H222917   1.341   3.634   7.573 -2.3521  0.9261 -2.5673
  428TIP3   OH222918   2.324   2.218   1.250 -0.4319  0.5897 -0.1160
  428TIP3    H122919   2.248   2.213   1.193  1.0678 -2.1517 -2.0724
  428TIP3    H222920   2.388   2.271   1.201  0.4558 -0.8285 -0.5457
  429TIP3   OH222921   3.688   1.876   1.068  0.6408 -0.2466  0.0283
  429TIP3    H122922   3.672   1.781   1.064 -0.1756 -0.2426  2.0155
  429TIP3    H222923   3.726   1.890   1.155  1.0747  1.2239 -0.3708
  430TIP3   OH222924   1.140   2.308   8.366  0.0422  0.3128 -0.0694
  430TIP3    H122925   1.202   2.251   8.321  0.5110  0.0958  0.8266
  430TIP3    H222926   1.139   2.388   8.314  0.3720 -0.0185 -0.6036
  431TIP3   OH222927   6.124   4.418   1.286 -0.2872 -0.3404  0.1845
  431TIP3    H122928   6.142   4.495   1.339 -0.6139  0.8358 -1.3593
  431TIP3    H222929   6.094   4.352   1.349  0.3468  0.6466  1.5731
  432TIP3   OH222930   3.398   0.178   7.982  0.7001  0.1128 -0.0244
  432TIP3    H122931   3.462   0.247   8.002 -0.6993  1.7202 -0.8702
  432TIP3    H222932   3.432   0.101   8.028  1.5553  1.7163  2.2644
  433TIP3   OH222933   4.093   4.207   8.316  1.0161  0.3929  0.2425
  433TIP3    H122934   4.114   4.300   8.328  1.0165  0.3122  0.8730
  433TIP3    H222935   4.031   4.187   8.386 -1.3709  0.6602 -1.6335
  434TIP3   OH222936   4.116   5.059   8.935  0.1598 -0.0149  0.1964
  434TIP3    H122937   4.114   5.048   9.030 -2.1668  2.8308  0.6222
  434TIP3    H222938   4.108   4.970   8.901  0.0763 -1.0486  2.6497
  435TIP3   OH222939   1.518   1.602   7.558  0.5283 -0.5125 -0.2273
  435TIP3    H122940   1.474   1.547   7.622 -0.3357 -0.4531 -0.7475
  435TIP3    H222941   1.611   1.594   7.578  0.2394 -0.0890  1.3449
  436TIP3   OH222942   0.467   6.698   8.506  0.2671  0.5226 -0.0952
  436TIP3    H122943   0.404   6.631   8.481 -0.3720  0.6584  1.1172
  436TIP3    H222944   0.547   6.674   8.458 -0.3909 -0.2234 -0.8504
  437TIP3   OH222945   4.788   6.221   7.976  0.1881  1.0833  0.6995
  437TIP3    H122946   4.759   6.270   8.053 -1.2033  1.4419 -0.0297
  437TIP3    H222947   4.750   6.268   7.902  0.9878  0.3830 -0.1776
  438TIP3   OH222948   1.571   3.783   9.019  0.1738  0.1375  0.3367
  438TIP3    H122949   1.549   3.784   8.926  1.0348 -0.1754  0.1222
  438TIP3    H222950   1.652   3.834   9.025  1.0004 -1.1456  0.6661
  439TIP3   OH222951   5.953   6.220   0.057 -0.0005 -0.2618  0.4021
  439TIP3    H122952   5.880   6.157   0.057  0.3807 -0.7404 -1.2858
  439TIP3    H222953   5.947   6.264  -0.027  2.2394 -0.9972 -0.2077
  440TIP3   OH222954   2.639   6.409   2.435  0.7249  0.1999 -0.1701
  440TIP3    H122955   2.666   6.499   2.455 -2.6394  1.4247 -0.3435
  440TIP3    H222956   2.642   6.404   2.340 -0.6258  0.7889 -0.2787
  441TIP3   OH222957   1.552   0.231   8.282 -0.4984  0.1000 -0.3165
  441TIP3    H122958   1.615   0.163   8.306 -0.8483 -0.2975 -0.5238
  441TIP3    H222959   1.505   0.249   8.364 -2.4615 -2.0497 -0.8638
  442TIP3   OH222960   0.025   0.012   2.910  0.2208  0.0544  0.6002
  442TIP3    H122961   0.090   0.081   2.898  0.2466 -0.0087  0.3651
  442TIP3    H222962   0.060  -0.042   2.981  0.9739 -0.6136 -0.2541
  443TIP3   OH222963   5.199   5.332   0.497 -0.0652  0.1554  0.1408
  443TIP3    H122964   5.195   5.424   0.472  0.4449  0.8278  2.3648
  443TIP3    H222965   5.169   5.285   0.419 -0.8035  2.2016 -0.8774
  444TIP3   OH222966   5.096   5.294   1.611  0.2984 -0.2814  0.2306
  444TIP3    H122967   5.104   5.372   1.665 -0.7715 -0.6371  0.9350
  444TIP3    H222968   5.168   5.238   1.638  0.8846  0.3275 -0.0590
  445TIP3   OH222969   4.182   6.476   0.037 -0.2083  0.2991 -0.0101
  445TIP3    H122970   4.228   6.530   0.101  0.1009  0.2204 -0.1636
  445TIP3    H222971   4.212   6.509  -0.048  0.8618 -0.8670 -0.1029
  446TIP3   OH222972   4.358   1.118   8.707  0.2410  0.1549  0.0870
  446TIP3    H122973   4.359   1.025   8.731 -0.1505  0.6567  2.3569
  446TIP3    H222974   4.330   1.162   8.788  0.5739  2.2602 -0.8938
  447TIP3   OH222975   1.174   5.792   7.894 -0.1971 -0.2149  0.3638
  447TIP3    H122976   1.104   5.768   7.833 -0.0165 -1.9799  0.8148
  447TIP3    H222977   1.208   5.875   7.859 -0.9146 -0.5501 -1.2340
  448TIP3   OH222978   2.974   2.603   7.254 -0.3548 -0.2033 -0.0923
  448TIP3    H122979   2.955   2.687   7.212 -0.0414 -0.4644 -0.7655
  448TIP3    H222980   2.897   2.585   7.309  0.2627  1.3108  1.3457
  449TIP3   OH222981   4.221   2.625   9.206  0.4580 -0.0815  0.1563
  449TIP3    H122982   4.285   2.693   9.229  0.2996 -0.5145  1.9364
  449TIP3    H222983   4.271   2.564   9.151  0.9269  0.8124 -0.4439
  450TIP3   OH222984   4.748   2.792   8.002  0.1249  0.4800 -0.1191
  450TIP3    H122985   4.782   2.790   7.912  1.4009  0.4109  0.3369
  450TIP3    H222986   4.698   2.873   8.007 -2.5991 -0.9858 -1.7642
  451TIP3   OH222987   3.896   1.802   2.851  0.2935 -0.7517 -0.0086
  451TIP3    H122988   3.989   1.807   2.829  0.3215 -1.1217  0.0189
  451TIP3    H222989   3.875   1.709   2.846 -0.2024 -0.6195 -0.5300
  452TIP3   OH222990   1.492   5.364   2.688  0.4745  0.1472 -0.3255
  452TIP3    H122991   1.467   5.297   2.625 -0.5675  0.0310  0.1941
  452TIP3    H222992   1.527   5.315   2.763 -2.4536 -0.0255  1.0489
  453TIP3   OH222993   0.428   4.562   8.073 -0.0509 -0.2595  0.6074
  453TIP3    H122994   0.484   4.586   8.147  0.4666 -1.3839  0.6106
  453TIP3    H222995   0.470   4.485   8.035 -0.3441  0.2688 -0.8414
  454TIP3   OH222996   5.184   1.374   2.606  0.8501 -0.0726 -0.3771
  454TIP3    H122997   5.109   1.378   2.547  0.1848  0.0453  0.4639
  454TIP3    H222998   5.184   1.459   2.650  0.8295 -0.4672  0.4042
  455TIP3   OH222999   4.123   1.796   2.699  0.0557  0.5304  0.3211
  455TIP3    H123000   4.199   1.848   2.724  0.6331 -0.0262 -0.2521
  455TIP3    H223001   4.108   1.819   2.607 -0.9560  1.2244  0.6384
  456TIP3   OH223002   1.127   0.210   2.048 -0.1084  0.1777  0.8001
  456TIP3    H123003   1.072   0.140   2.081 -0.2895  0.1011  0.3385
  456TIP3    H223004   1.097   0.288   2.094 -0.9503  0.2319  0.1727
  457TIP3   OH223005   6.090   1.288   8.687 -0.4583  0.2809 -0.1699
  457TIP3    H123006   6.049   1.230   8.752  0.8558 -0.6687 -0.1474
  457TIP3    H223007   6.162   1.236   8.650  2.1099  2.5016  1.2801
  458TIP3   OH223008   5.312   5.056   8.259  0.3328  0.0588  0.1331
  458TIP3    H123009   5.373   4.987   8.284  0.8160  1.3811  3.0608
  458TIP3    H223010   5.361   5.114   8.202  1.9541  1.0621  2.3810
  459TIP3   OH223011   6.259   3.198   7.649 -0.0781 -0.4272 -0.7041
  459TIP3    H123012   6.346   3.211   7.612 -0.3516 -0.7237 -1.4670
  459TIP3    H223013   6.202   3.253   7.597 -0.3586 -0.2686 -0.2330
  460TIP3   OH223014   3.190   0.480   0.128  0.3189 -0.5143 -0.1928
  460TIP3    H123015   3.256   0.429   0.174  0.1810 -0.5768 -0.0620
  460TIP3    H223016   3.229   0.500   0.043  0.7063 -0.1195  0.0738
  461TIP3   OH223017   0.101   3.209   8.668 -0.4220 -0.1464  0.6799
  461TIP3    H123018   0.167   3.176   8.728  1.3713 -1.2872 -1.7135
  461TIP3    H223019   0.029   3.147   8.675  0.2612 -0.9475  0.8135
  462TIP3   OH223020   3.584   2.840   0.523 -0.0892 -0.1034  0.2387
  462TIP3    H123021   3.503   2.817   0.479 -0.1302 -0.5412  0.5363
  462TIP3    H223022   3.581   2.792   0.606  0.6630 -0.4662  0.0678
  463TIP3   OH223023   3.775   3.178   0.777 -0.0676  0.5314 -0.3555
  463TIP3    H123024   3.817   3.157   0.694  1.3552  3.3484 -0.4943
  463TIP3    H223025   3.791   3.272   0.788 -3.9321  1.2192  1.0414
  464TIP3   OH223026   5.052   5.913   8.889  0.1480 -0.3473  0.0147
  464TIP3    H123027   5.093   5.960   8.816  0.6648  0.1979  0.6491
  464TIP3    H223028   5.048   5.976   8.960 -1.1693 -0.6117  0.1962
  465TIP3   OH223029   6.299   3.690   1.378  0.7481  0.4295  0.4306
  465TIP3    H123030   6.283   3.722   1.466  0.0671  0.4697  0.2925
  465TIP3    H223031   6.322   3.598   1.389 -0.2356  0.1924  0.5789
  466TIP3   OH223032   0.617   0.766   1.347  0.1408 -0.3338 -0.0702
  466TIP3    H123033   0.560   0.732   1.416  0.8495  0.2783  0.8467
  466TIP3    H223034   0.596   0.860   1.344 -1.2727 -0.6465 -2.0553
  467TIP3   OH223035   5.824   1.098   8.155 -0.5754  0.7308 -0.1941
  467TIP3    H123036   5.837   1.193   8.152 -2.7209  1.0502 -2.7731
  467TIP3    H223037   5.899   1.062   8.108  0.1830  1.0905  0.6873
  468TIP3   OH223038   6.120   3.717   7.235  0.2967 -0.3887  0.3733
  468TIP3    H123039   6.212   3.690   7.233  0.4700  0.0574  1.5323
  468TIP3    H223040   6.121   3.808   7.206  0.0028 -0.8471 -1.1776
  469TIP3   OH223041   2.728   1.892   1.523  0.2819 -0.1226  0.2662
  469TIP3    H123042   2.802   1.841   1.555 -0.1705 -1.2744 -0.4615
  469TIP3    H223043   2.717   1.962   1.588  1.4313 -0.4544  0.8489
  470TIP3   OH223044   4.561   0.516   8.334  0.3851 -0.7157 -0.0405
  470TIP3    H123045   4.505   0.445   8.304 -0.0649 -1.4989  2.4071
  470TIP3    H223046   4.503   0.572   8.386  1.7549 -1.5020  2.4977
  471TIP3   OH223047   5.284   1.704   2.209 -0.8912 -0.1815 -0.1830
  471TIP3    H123048   5.336   1.649   2.268 -1.4287  0.0345  0.5173
  471TIP3    H223049   5.202   1.719   2.257 -0.4495  1.9130  0.0209
  472TIP3   OH223050   4.092   4.927   1.086  0.5515  0.1295  0.3715
  472TIP3    H123051   4.056   4.913   0.998  1.5352 -1.5496  0.1965
  472TIP3    H223052   4.117   5.019   1.087 -0.5175  0.4554 -0.7133
  473TIP3   OH223053   2.402   3.309   8.173 -0.1043 -0.5165 -0.6322
  473TIP3    H123054   2.325   3.325   8.227 -0.0012  1.9929 -1.1042
  473TIP3    H223055   2.469   3.369   8.207  1.7290 -2.6276 -0.2181
  474TIP3   OH223056   4.562   6.574   2.932 -0.3021  0.1961  0.2314
  474TIP3    H123057   4.602   6.626   2.862  1.2615 -1.1659  0.0457
  474TIP3    H223058   4.547   6.638   3.002  1.1683  1.0093 -0.1374
  475TIP3   OH223059   5.344   3.240   8.757  0.2927 -0.1995  0.2523
  475TIP3    H123060   5.310   3.261   8.671 -1.3274 -1.0227  0.6588
  475TIP3    H223061   5.271   3.255   8.817  1.4405  0.5812  1.5346
  476TIP3   OH223062   4.674   1.304   8.033 -0.3296  0.1932 -0.4173
  476TIP3    H123063   4.660   1.282   7.941 -0.1262 -1.3145 -0.1076
  476TIP3    H223064   4.733   1.236   8.066  0.6398  1.4342  0.5163
  477TIP3   OH223065   0.947   4.526   1.629 -0.5318 -0.2003 -0.2953
  477TIP3    H123066   1.006   4.567   1.565 -0.2177 -0.3540 -0.1077
  477TIP3    H223067   0.941   4.591   1.700 -0.5352 -0.2107 -0.2859
  478TIP3   OH223068   1.322   6.352   8.646 -0.2361  0.6762 -0.2078
  478TIP3    H123069   1.380   6.347   8.722  0.5719  0.0213 -0.8464
  478TIP3    H223070   1.245   6.302   8.671 -0.5585  1.5605  0.6522
  479TIP3   OH223071   2.225   4.805   2.478  0.3154 -0.1422  0.0444
  479TIP3    H123072   2.152   4.745   2.466  1.1200 -0.7862 -2.2843
  479TIP3    H223073   2.185   4.892   2.473 -0.4966 -0.4796  0.5068
  480TIP3   OH223074   6.237   3.584   3.109  0.0746  0.1019  0.3316
  480TIP3    H123075   6.237   3.500   3.155  2.0318  0.0810  0.3575
  480TIP3    H223076   6.292   3.641   3.163  0.8662  0.6409 -1.0011
  481TIP3   OH223077   4.762   4.010   2.121  0.0584  0.2470 -0.3676
  481TIP3    H123078   4.790   4.083   2.066  0.8225 -0.2262 -0.6296
  481TIP3    H223079   4.788   3.932   2.072  0.0855 -0.1939  0.3313
  482TIP3   OH223080   4.500   2.068   7.774 -0.2009 -0.1428  0.1759
  482TIP3    H123081   4.585   2.025   7.771 -0.4832 -0.7295  0.4047
  482TIP3    H223082   4.455   2.037   7.696 -0.1768  0.2420  0.0035
  483TIP3   OH223083   3.231   1.677   2.234  0.0895  0.5348 -0.0267
  483TIP3    H123084   3.183   1.602   2.199  0.5203  0.3633 -0.2508
  483TIP3    H223085   3.306   1.688   2.176 -0.5459  1.8219 -0.6502
  484TIP3   OH223086   3.503   6.681   2.435 -0.2656  0.5833 -0.0580
  484TIP3    H123087   3.548   6.741   2.495  0.2508  0.5495 -0.4099
  484TIP3    H223088   3.543   6.596   2.452 -1.7818  0.0709  1.2680
  485TIP3   OH223089   1.336   6.189   2.759 -0.3609  0.0061  0.3244
  485TIP3    H123090   1.368   6.223   2.843  0.6856 -0.8113  0.2740
  485TIP3    H223091   1.384   6.108   2.746 -2.7739 -1.5542  0.4389
  486TIP3   OH223092   0.607   4.180   0.442 -0.1253 -0.2543  1.1056
  486TIP3    H123093   0.620   4.273   0.424  0.6507 -0.3954  0.9252
  486TIP3    H223094   0.517   4.163   0.414  0.2482  0.0812 -0.3703
  487TIP3   OH223095   2.502   4.387   2.019 -0.3912  0.6194 -0.1511
  487TIP3    H123096   2.580   4.396   1.965 -1.3588  2.2621 -1.3755
  487TIP3    H223097   2.461   4.306   1.990  0.4268  0.1690 -0.0671
  488TIP3   OH223098   1.449   2.617   8.895  0.2035  0.1873  0.2915
  488TIP3    H123099   1.372   2.605   8.839  0.0271  0.9041  0.3638
  488TIP3    H223100   1.522   2.629   8.834 -0.0845  1.5785  0.1789
  489TIP3   OH223101   6.405   4.684   1.314 -0.0339  0.0039 -0.3668
  489TIP3    H123102   6.465   4.747   1.273 -0.5626  0.4409 -0.4749
  489TIP3    H223103   6.354   4.649   1.242 -2.5992  2.4849  0.0762
  490TIP3   OH223104   5.216   5.865   1.402  0.5935  0.1288 -0.2952
  490TIP3    H123105   5.171   5.948   1.388  1.1488  0.3516 -0.7683
  490TIP3    H223106   5.261   5.876   1.486 -0.8579 -0.3823  0.5833
  491TIP3   OH223107   4.405   2.228   1.710 -0.2896 -0.2014 -0.8628
  491TIP3    H123108   4.399   2.286   1.634  1.3543  2.9105  1.2012
  491TIP3    H223109   4.315   2.221   1.742 -0.3916  2.3817 -0.4247
  492TIP3   OH223110   2.909   4.458   8.217  0.2547  0.0806 -0.4433
  492TIP3    H123111   2.909   4.434   8.125  1.9783 -0.5096 -0.3277
  492TIP3    H223112   2.976   4.527   8.224 -0.1763  0.4405  0.2953
  493TIP3   OH223113   2.173   4.854   1.277 -0.0910 -0.6599  0.1237
  493TIP3    H123114   2.126   4.778   1.312 -0.9503  0.5962  1.7939
  493TIP3    H223115   2.187   4.911   1.352  0.1983  1.0280 -1.1551
  494TIP3   OH223116   2.563   5.965   8.264  0.3927 -0.3026  0.7850
  494TIP3    H123117   2.645   5.916   8.272  0.5302 -0.7002 -2.1384
  494TIP3    H223118   2.588   6.056   8.277  1.6709 -0.2466 -1.5190
  495TIP3   OH223119   0.453   0.006   3.204 -0.1694  0.0769  0.2303
  495TIP3    H123120   0.505   0.023   3.126 -0.4731  0.6710  0.1430
  495TIP3    H223121   0.404   0.088   3.217 -2.9484 -1.2253 -1.1267
  496TIP3   OH223122   1.341   4.097   0.182 -0.3621 -0.0268 -0.3246
  496TIP3    H123123   1.365   4.099   0.089 -2.3574  0.1859 -0.8929
  496TIP3    H223124   1.412   4.142   0.226  0.0229  1.0053 -1.9103
  497TIP3   OH223125   6.091   6.011   2.437 -0.2785 -0.9665 -0.2474
  497TIP3    H123126   6.129   6.044   2.356  0.9828  0.5338  0.8905
  497TIP3    H223127   6.157   6.029   2.504 -1.1501 -2.4246  1.0857
  498TIP3   OH223128   1.278   3.010   3.507  0.1061  0.9428  0.0812
  498TIP3    H123129   1.220   2.976   3.439 -0.3714 -0.9381  1.3347
  498TIP3    H223130   1.359   2.959   3.497 -0.6180 -0.7659  1.9870
  499TIP3   OH223131   1.812   4.388   7.674  0.3678 -0.4972 -0.2919
  499TIP3    H123132   1.826   4.467   7.621 -0.1395 -0.3816 -0.2626
  499TIP3    H223133   1.756   4.333   7.620 -3.2346  1.1218  1.4506
  500TIP3   OH223134   1.789   2.331   8.085  0.5382  0.3445  0.3739
  500TIP3    H123135   1.824   2.261   8.030  1.4793 -0.4935  1.9587
  500TIP3    H223136   1.790   2.409   8.029  1.7111 -0.4056 -0.6901
  501TIP3   OH223137   6.307   5.554   0.500 -0.5754 -0.2973 -0.1118
  501TIP3    H123138   6.292   5.604   0.580  0.4312  0.4998 -0.3866
  501TIP3    H223139   6.382   5.498   0.521 -0.3103 -0.0881 -0.4731
  502TIP3   OH223140   3.390   1.709   1.627 -0.6099 -0.1149 -0.1543
  502TIP3    H123141   3.365   1.750   1.544 -1.7309  1.2723  0.8103
  502TIP3    H223142   3.381   1.615   1.611  3.0415 -0.2660 -2.7834
  503TIP3   OH223143   5.075   1.493   0.013  0.0728 -0.1935 -0.3308
  503TIP3    H123144   5.034   1.487  -0.073  1.5737 -1.2772 -1.0250
  503TIP3    H223145   5.063   1.406   0.051 -0.1217  0.1212  0.3304
  504TIP3   OH223146   5.638   1.566   2.239  0.5692  0.1822  0.0374
  504TIP3    H123147   5.643   1.657   2.212  0.1240  0.0109 -0.6603
  504TIP3    H223148   5.554   1.559   2.286  0.6331  0.1454  0.1481
  505TIP3   OH223149   1.542   4.077   8.352  0.0687 -0.1958  0.0060
  505TIP3    H123150   1.471   4.047   8.295  0.0578  0.9403 -0.6087
  505TIP3    H223151   1.594   4.135   8.297  0.1998  0.7390  1.0654
  506TIP3   OH223152   5.437   1.734   1.068  0.2919  0.7578  0.2728
  506TIP3    H123153   5.532   1.717   1.066  0.1986  0.2477 -0.1149
  506TIP3    H223154   5.423   1.780   1.151  0.7364 -0.1178  0.8566
  507TIP3   OH223155   0.390   1.180   8.071 -1.2651  0.0882  0.3073
  507TIP3    H123156   0.325   1.169   8.001 -0.4980 -0.0957 -0.3857
  507TIP3    H223157   0.445   1.102   8.065  0.5206  1.3463 -0.7073
  508TIP3   OH223158   3.101   3.853   2.236 -0.4295  0.2117 -0.2529
  508TIP3    H123159   3.083   3.946   2.227 -0.4845  0.3726  1.2532
  508TIP3    H223160   3.015   3.813   2.250 -0.7068 -0.4275 -3.1258
  509TIP3   OH223161   2.670   2.412   8.438 -0.2127 -0.2473  0.1555
  509TIP3    H123162   2.644   2.413   8.346  2.7662  0.4303 -0.7888
  509TIP3    H223163   2.733   2.484   8.446  0.1491 -0.7494  2.5402
  510TIP3   OH223164   4.061   3.084   8.823  0.0652  0.3032 -0.8054
  510TIP3    H123165   4.016   3.129   8.895  2.4462  1.8056 -0.1466
  510TIP3    H223166   4.049   3.141   8.748 -0.2322  0.0329 -0.9664
  511TIP3   OH223167   3.922   6.180   2.313 -0.2141 -0.1822 -1.2072
  511TIP3    H123168   3.986   6.194   2.243  0.9522  0.4171 -0.0660
  511TIP3    H223169   3.958   6.108   2.364  0.0711  0.7670 -0.0100
  512TIP3   OH223170   6.664   1.858   2.747 -0.5695  0.1070  0.0346
  512TIP3    H123171   6.655   1.786   2.685 -1.4494 -0.1367  0.4343
  512TIP3    H223172   6.639   1.936   2.698  1.2784  0.3034 -0.6759
  513TIP3   OH223173   6.313   1.148   8.897  0.3593  0.5737  0.5780
  513TIP3    H123174   6.363   1.229   8.887  1.4203 -0.0317  0.7822
  513TIP3    H223175   6.368   1.093   8.952 -0.6193 -0.0716  0.9436
  514TIP3   OH223176   3.695   4.522   1.906 -0.1725  0.1382  0.3865
  514TIP3    H123177   3.714   4.434   1.872 -1.3934 -0.3992  1.0396
  514TIP3    H223178   3.781   4.556   1.932  0.3747 -0.6819 -0.2822
  515TIP3   OH223179   4.454   4.875   1.448  0.1530  0.0233 -0.2648
  515TIP3    H123180   4.361   4.862   1.469  0.7090 -1.8724  1.3491
  515TIP3    H223181   4.484   4.940   1.512 -0.2006  1.2340 -1.2951
  516TIP3   OH223182   5.220   1.997   2.288 -0.0358 -0.0183 -0.6230
  516TIP3    H123183   5.128   2.012   2.266 -0.3468 -0.7301  0.1439
  516TIP3    H223184   5.248   1.929   2.227 -0.3355 -0.5791 -0.1437
  517TIP3   OH223185   6.469   5.009   2.223  0.0357 -0.3209 -0.5327
  517TIP3    H123186   6.524   4.960   2.284  0.0060 -1.3765 -1.3304
  517TIP3    H223187   6.390   4.956   2.214 -1.4704  1.4683  1.0861
  518TIP3   OH223188   3.131   0.161   0.591 -0.1824  0.5996 -0.3830
  518TIP3    H123189   3.201   0.107   0.555 -0.1499  0.7891 -0.6083
  518TIP3    H223190   3.055   0.144   0.535  0.4366  2.5333 -1.9469
  519TIP3   OH223191   3.522   4.568   8.819  0.1039 -0.2286 -0.1463
  519TIP3    H123192   3.612   4.539   8.835  0.0029 -0.5008 -0.0515
  519TIP3    H223193   3.520   4.592   8.727  0.2366 -0.3620 -0.1839
  520TIP3   OH223194   6.268   1.354   1.312 -0.1513  0.2344 -0.3400
  520TIP3    H123195   6.302   1.268   1.287 -0.7806  0.4777 -2.1993
  520TIP3    H223196   6.236   1.342   1.402  2.1006 -0.7523  0.3843
  521TIP3   OH223197   1.987   2.930   8.498 -0.3830 -0.0859 -0.1872
  521TIP3    H123198   2.039   3.008   8.479 -2.0487  0.7448 -1.5425
  521TIP3    H223199   2.049   2.857   8.489  1.1597  1.0155  0.9176
  522TIP3   OH223200   3.692   5.795   8.070 -0.8303 -0.3772  0.3179
  522TIP3    H123201   3.726   5.883   8.052 -0.4874 -0.7610 -1.0420
  522TIP3    H223202   3.770   5.742   8.085 -1.0117 -0.5516  0.6525
  523TIP3   OH223203   2.473   6.680   0.702  0.1812  0.1051  0.0020
  523TIP3    H123204   2.407   6.647   0.640  2.1047  0.9191 -2.6389
  523TIP3    H223205   2.537   6.609   0.709 -0.0946 -0.0381  1.2406
  524TIP3   OH223206   2.334   6.345   8.284  0.0292 -0.5662 -0.1567
  524TIP3    H123207   2.400   6.332   8.216 -0.1841 -1.6518 -0.1868
  524TIP3    H223208   2.260   6.386   8.238  0.2129 -0.4998 -0.3932
  525TIP3   OH223209   4.689   2.007   1.255 -0.2881  0.1532 -0.0673
  525TIP3    H123210   4.619   1.947   1.282 -0.9139  0.3132 -1.2648
  525TIP3    H223211   4.647   2.093   1.252  0.1761  0.3843 -0.0131
  526TIP3   OH223212   3.156   4.639   2.521  0.3493  0.1659  0.2472
  526TIP3    H123213   3.119   4.582   2.589  0.5910 -0.3516 -0.0439
  526TIP3    H223214   3.226   4.587   2.483 -0.5271 -0.0291 -1.1882
  527TIP3   OH223215   3.026   6.153   2.522  0.0150  0.0380 -0.1169
  527TIP3    H123216   3.016   6.131   2.614  0.6317  1.7675  0.4097
  527TIP3    H223217   3.051   6.246   2.522 -0.4822  0.2205 -2.0440
  528TIP3   OH223218   4.116   2.534   8.032 -0.4970  0.1007 -0.5572
  528TIP3    H123219   4.210   2.530   8.049 -0.3699  0.6627 -1.1042
  528TIP3    H223220   4.075   2.508   8.115  0.1203  1.2263  0.1190
  529TIP3   OH223221   2.180   4.018   1.161  0.0471 -0.4227  0.3687
  529TIP3    H123222   2.112   4.083   1.176  0.6267 -0.0918  1.6903
  529TIP3    H223223   2.179   4.004   1.066  0.3628  2.0154 -0.0528
  530TIP3   OH223224   4.411   1.776   2.119 -0.1509 -0.1070  0.9000
  530TIP3    H123225   4.338   1.714   2.132 -1.5175  1.2664  0.1700
  530TIP3    H223226   4.376   1.840   2.057  2.6714 -1.0014 -1.9438
  531TIP3   OH223227   6.415   2.275   0.560 -0.5719  0.3235 -0.3840
  531TIP3    H123228   6.370   2.290   0.643 -0.5550 -0.4443 -0.2327
  531TIP3    H223229   6.359   2.318   0.494 -0.9395  0.3360 -0.0644
  532TIP3   OH223230   0.304   2.345   8.624 -0.1519  0.6481  0.9449
  532TIP3    H123231   0.220   2.385   8.645 -1.1354 -0.8435  0.0517
  532TIP3    H223232   0.363   2.376   8.693 -0.6729  3.9377  0.1140
  533TIP3   OH223233   6.443   4.668   2.196  0.0938  0.1167 -0.0711
  533TIP3    H123234   6.407   4.631   2.276  2.0452 -1.2336  0.2671
  533TIP3    H223235   6.374   4.658   2.131 -1.6209  1.4621  1.4370
  534TIP3   OH223236   0.199   6.531   3.074  0.2412 -0.0352  0.5219
  534TIP3    H123237   0.236   6.525   3.162  0.7275 -1.2352  0.2574
  534TIP3    H223238   0.270   6.503   3.016  0.3916  2.0643 -0.3942
  535TIP3   OH223239   1.453   4.934   7.915  0.1421 -0.3576 -0.5027
  535TIP3    H123240   1.443   4.904   8.006  0.7220  1.2848  0.1319
  535TIP3    H223241   1.457   4.853   7.864 -1.1736 -1.3118  0.8125
  536TIP3   OH223242   5.144   0.437   9.010 -0.1479  0.7019 -0.0022
  536TIP3    H123243   5.238   0.442   9.028 -0.4289  2.0384  1.2824
  536TIP3    H223244   5.135   0.480   8.924  0.4438  0.2723 -0.2884
  537TIP3   OH223245   0.934   4.333   0.080 -0.5894  0.0234 -0.3129
  537TIP3    H123246   1.027   4.313   0.079 -0.8701 -1.3989 -1.3646
  537TIP3    H223247   0.907   4.314   0.170  0.3043  1.4581  0.2872
  538TIP3   OH223248   5.603   0.136   1.893 -0.4825  0.0589 -0.1589
  538TIP3    H123249   5.553   0.058   1.914  1.6188 -1.5425 -0.6925
  538TIP3    H223250   5.574   0.161   1.805 -0.5668 -0.6435 -0.3330
  539TIP3   OH223251   2.486   0.110   8.951 -0.2764  0.6365 -0.1369
  539TIP3    H123252   2.516   0.139   8.864 -0.6342 -0.9345 -0.8213
  539TIP3    H223253   2.395   0.139   8.956  0.0558  1.6629  0.1713
  540TIP3   OH223254   3.692   4.941   2.421  0.6599 -0.3845 -0.0592
  540TIP3    H123255   3.644   4.939   2.338  0.5935 -0.6047 -0.0174
  540TIP3    H223256   3.724   5.031   2.429  0.8831 -0.4314 -0.4432
  541TIP3   OH223257   4.838   1.509   8.713  0.6698  0.2540 -0.0147
  541TIP3    H123258   4.911   1.447   8.719 -0.1124 -0.5959  1.1484
  541TIP3    H223259   4.766   1.458   8.676 -0.4376 -0.0154  2.3299
  542TIP3   OH223260   6.446   4.716   0.837 -0.3479  0.1394 -0.2813
  542TIP3    H123261   6.526   4.693   0.884 -0.3437 -0.4589 -0.5636
  542TIP3    H223262   6.417   4.798   0.877 -0.8285 -0.7910  1.3517
  543TIP3   OH223263   3.943   3.868   7.606  0.0647  0.5195  0.0317
  543TIP3    H123264   3.887   3.835   7.677 -0.0957  0.3121 -0.1920
  543TIP3    H223265   3.939   3.963   7.615 -0.2318  0.5015  0.0887
  544TIP3   OH223266   3.913   5.090   7.333  0.0948 -0.3409  0.4855
  544TIP3    H123267   3.943   5.158   7.394 -1.4271  0.4413  0.4020
  544TIP3    H223268   3.824   5.068   7.362 -0.5988 -0.0935 -1.3061
  545TIP3   OH223269   2.985   3.050   1.866 -0.6067  0.5227  0.1884
  545TIP3    H123270   2.939   3.033   1.784  0.7273  0.1278 -0.5056
  545TIP3    H223271   2.949   3.134   1.896 -1.1307  0.6692 -0.7861
  546TIP3   OH223272   4.961   1.585   0.972  0.4210  0.9521  0.6516
  546TIP3    H123273   5.030   1.619   1.029  0.3036 -0.7894  1.9275
  546TIP3    H223274   4.891   1.560   1.032 -0.9587  1.7822 -0.5428
  547TIP3   OH223275   3.593   1.576   2.380 -0.1772 -0.4313 -0.3600
  547TIP3    H123276   3.651   1.623   2.320 -0.1714  0.1552  0.0988
  547TIP3    H223277   3.524   1.639   2.401  0.0849 -0.4576  0.6324
  548TIP3   OH223278   3.358   2.908   8.506  0.1379  0.5341  0.2803
  548TIP3    H123279   3.319   2.847   8.569 -0.0055  0.5473  0.2046
  548TIP3    H223280   3.334   2.995   8.538  1.1936  0.6011  0.9528
  549TIP3   OH223281   5.330   5.599   8.433  0.6892 -0.1481 -0.4196
  549TIP3    H123282   5.350   5.556   8.350  0.4103 -1.1285 -0.0046
  549TIP3    H223283   5.414   5.636   8.461  1.3829 -1.8974 -0.0007
  550TIP3   OH223284   5.304   2.704   2.091 -0.0183 -0.5406  0.2597
  550TIP3    H123285   5.320   2.779   2.033 -1.5117 -0.7205 -0.4497
  550TIP3    H223286   5.382   2.698   2.145  0.3207  1.2768  0.0441
  551TIP3   OH223287   0.445   3.561   2.591  0.6359 -0.0831  0.1421
  551TIP3    H123288   0.408   3.539   2.676 -0.3942 -2.0324 -0.7591
  551TIP3    H223289   0.385   3.627   2.556 -0.8181 -1.6345 -0.3913
  552TIP3   OH223290   0.066   0.306   2.058  0.1154  0.2180  0.3660
  552TIP3    H123291  -0.029   0.297   2.065  0.1849  0.4062  1.9928
  552TIP3    H223292   0.100   0.261   2.135  1.3967 -0.3257 -0.4785
  553TIP3   OH223293   0.634   2.981   8.196 -0.1268 -0.0366  0.1115
  553TIP3    H123294   0.570   2.911   8.185 -1.0974  1.0802 -2.1151
  553TIP3    H223295   0.715   2.946   8.158 -0.2809 -0.3605  0.0780
  554TIP3   OH223296   0.179   2.181   2.291 -0.4962 -0.1913  0.7489
  554TIP3    H123297   0.116   2.110   2.278 -0.4048 -0.1284 -0.1085
  554TIP3    H223298   0.262   2.146   2.258 -0.3345  0.1318  0.8067
  555TIP3   OH223299   3.202   0.762   1.518  0.2571 -0.2195 -0.2069
  555TIP3    H123300   3.208   0.734   1.610  1.0541 -1.1127 -0.5125
  555TIP3    H223301   3.269   0.710   1.473 -0.3083  0.0087 -1.3403
  556TIP3   OH223302   2.532   0.365   0.109 -0.3668 -0.0212 -0.0107
  556TIP3    H123303   2.622   0.344   0.133  0.0569  1.1621 -0.4832
  556TIP3    H223304   2.509   0.438   0.167 -0.8076  0.0660 -0.2930
  557TIP3   OH223305   3.838   5.143   0.181 -0.0554  0.0095 -0.0814
  557TIP3    H123306   3.767   5.080   0.177 -2.0182  2.0878 -0.0706
  557TIP3    H223307   3.803   5.216   0.233  2.9731  0.0966  2.1253
  558TIP3   OH223308   6.626   3.878   1.329  0.0690 -0.3020  0.4248
  558TIP3    H123309   6.636   3.868   1.423 -0.1541 -1.1547  0.3671
  558TIP3    H223310   6.634   3.789   1.294  0.2509  0.0122 -0.3701
  559TIP3   OH223311   4.035   5.748   0.360 -0.3950  0.3110 -0.1086
  559TIP3    H123312   4.008   5.832   0.398 -0.1856 -0.0883  0.9574
  559TIP3    H223313   3.953   5.703   0.340 -0.5096  0.5912 -0.2701
  560TIP3   OH223314   0.779   3.839   0.640  0.2575  0.1642  0.4128
  560TIP3    H123315   0.867   3.875   0.638  0.2915  0.0623 -0.0624
  560TIP3    H223316   0.722   3.914   0.656  0.3622  0.3599 -0.1310
  561TIP3   OH223317   2.339   3.646   8.695  0.3423 -0.3142 -0.0793
  561TIP3    H123318   2.274   3.577   8.683  1.6537 -1.7947  0.9094
  561TIP3    H223319   2.395   3.639   8.617 -0.0142  0.2356 -0.3956
  562TIP3   OH223320   0.882   5.190   8.223  0.2347 -0.7274  0.7412
  562TIP3    H123321   0.915   5.207   8.135 -1.1733 -1.2739  0.0789
  562TIP3    H223322   0.958   5.203   8.280  0.8835  0.8003 -0.4169
  563TIP3   OH223323   4.087   0.593   8.630 -0.1127 -0.4975 -0.2847
  563TIP3    H123324   4.105   0.568   8.720 -1.6580 -0.8484 -0.0356
  563TIP3    H223325   4.078   0.510   8.584  2.4971 -0.3540 -1.2255
  564TIP3   OH223326   5.381   3.917   1.287 -0.3635  0.3679  0.5442
  564TIP3    H123327   5.401   3.853   1.218 -2.4370  0.5727 -0.3201
  564TIP3    H223328   5.331   3.867   1.352 -1.9336  1.0538 -0.1021
  565TIP3   OH223329   5.116   2.950   1.375  0.0969 -0.0639  0.7752
  565TIP3    H123330   5.182   3.014   1.404  0.2115  0.7282 -1.1266
  565TIP3    H223331   5.064   2.934   1.454 -0.7823  3.4239  1.0855
  566TIP3   OH223332   1.658   4.184   1.434  0.1470  0.4961  0.6035
  566TIP3    H123333   1.719   4.236   1.486  2.5778  1.4981 -2.8615
  566TIP3    H223334   1.590   4.246   1.408  0.8040  0.9399 -0.1276
  567TIP3   OH223335   5.786   5.629   8.382  0.1580 -0.5334 -0.4817
  567TIP3    H123336   5.854   5.669   8.437  0.6255 -2.9363  0.7910
  567TIP3    H223337   5.815   5.648   8.292  0.5866  1.5097  0.0343
  568TIP3   OH223338   0.655   3.425   2.062 -0.8134 -0.1137 -0.2798
  568TIP3    H123339   0.599   3.382   2.127 -1.1699  0.0452 -0.4848
  568TIP3    H223340   0.619   3.513   2.053  0.8190  0.7770  1.2646
  569TIP3   OH223341   1.621   5.344   2.922  0.5702  0.3217 -0.2673
  569TIP3    H123342   1.618   5.260   2.967 -0.6036 -0.7546 -2.1763
  569TIP3    H223343   1.609   5.409   2.991  0.2999 -1.1384  1.1198
  570TIP3   OH223344   4.450   2.825   7.327 -0.2744  0.4423 -0.2899
  570TIP3    H123345   4.405   2.904   7.354  0.1224  0.7057 -0.3856
  570TIP3    H223346   4.387   2.778   7.273  0.2868  1.8631 -2.2824
  571TIP3   OH223347   0.460   2.852   8.804  0.5891 -0.1174 -0.3929
  571TIP3    H123348   0.500   2.850   8.891 -1.2909 -0.5518  0.5302
  571TIP3    H223349   0.502   2.925   8.759  3.4194 -1.4583 -0.0816
  572TIP3   OH223350   1.339   2.213   8.214 -0.2397  0.0015  0.0420
  572TIP3    H123351   1.314   2.136   8.162  2.8457 -0.7549 -0.5238
  572TIP3    H223352   1.375   2.274   8.150  1.3804  0.0590  0.9781
  573TIP3   OH223353   4.976   3.811   6.962 -0.4690 -0.0368  0.0786
  573TIP3    H123354   4.971   3.869   7.038 -2.0087 -0.2670  0.1843
  573TIP3    H223355   4.892   3.764   6.962  0.1157 -1.1372 -0.8951
  574TIP3   OH223356   5.298   6.340   8.803  0.3272 -0.1136  0.4604
  574TIP3    H123357   5.377   6.356   8.853  0.6568  2.6374 -0.7479
  574TIP3    H223358   5.323   6.356   8.712 -1.5598  0.8145  0.0435
  575TIP3   OH223359   3.412   6.043   0.117 -0.0868  0.2990 -0.1972
  575TIP3    H123360   3.391   5.950   0.121 -0.1170  0.3362  0.6202
  575TIP3    H223361   3.354   6.084   0.181  1.6155  0.5666  1.2464
  576TIP3   OH223362   0.181   5.426   1.314  0.1058  0.1093 -0.1443
  576TIP3    H123363   0.177   5.515   1.280 -0.8592  1.4267  3.0769
  576TIP3    H223364   0.103   5.417   1.368  1.5037 -1.7054  1.7740
  577TIP3   OH223365   3.976   3.296   7.805  0.4269 -0.4294  0.1081
  577TIP3    H123366   3.921   3.319   7.731  0.8650 -0.3271 -0.1944
  577TIP3    H223367   4.064   3.286   7.767  0.6905 -0.1797  0.6441
  578TIP3   OH223368   3.245   5.063   8.226  0.5670 -0.6698 -0.6749
  578TIP3    H123369   3.307   4.991   8.211  1.3943 -0.0137 -0.4769
  578TIP3    H223370   3.261   5.089   8.316 -0.8942 -1.3119 -0.2059
  579TIP3   OH223371   0.208   3.488   1.291  0.0720  0.8060  0.4567
  579TIP3    H123372   0.139   3.450   1.345 -1.2071  2.4481  0.0640
  579TIP3    H223373   0.224   3.423   1.222 -0.2895 -0.0673  1.1809
  580TIP3   OH223374   0.765   6.197   8.588  0.6291  0.6909 -0.0811
  580TIP3    H123375   0.797   6.285   8.568  0.6520  0.7685  0.2910
  580TIP3    H223376   0.723   6.205   8.674 -2.7980  1.2071 -1.6182
  581TIP3   OH223377   1.677   5.931   0.707  0.3087 -0.4248  0.2506
  581TIP3    H123378   1.768   5.957   0.697 -0.1615  1.2619  0.0688
  581TIP3    H223379   1.670   5.904   0.799  0.5389  1.5145  0.8899
  582TIP3   OH223380   1.965   5.871   1.962 -0.4125  0.1738  0.2912
  582TIP3    H123381   1.962   5.824   2.046 -0.2964  0.5631  0.5130
  582TIP3    H223382   1.882   5.919   1.958  0.0148  0.9636  0.6578
  583TIP3   OH223383   3.632   3.555   2.072 -0.1303  0.3488 -0.3465
  583TIP3    H123384   3.720   3.583   2.096 -0.3528  0.3316  0.5288
  583TIP3    H223385   3.600   3.624   2.014 -0.1841  1.2647  0.7263
  584TIP3   OH223386   0.384   2.222   8.979  0.1509  0.2569 -0.0986
  584TIP3    H123387   0.386   2.285   9.051 -1.4937  1.3732 -0.9617
  584TIP3    H223388   0.295   2.187   8.981  0.7788 -1.4130 -0.1871
  585TIP3   OH223389   6.091   0.051   8.977  0.3786  0.3965 -0.1980
  585TIP3    H123390   6.149  -0.024   8.967  1.6545  1.2946  0.2179
  585TIP3    H223391   6.007   0.013   9.003  1.5348 -0.8029  2.1259
  586TIP3   OH223392   3.749   2.879   1.171  0.2693  0.1525  0.0492
  586TIP3    H123393   3.805   2.887   1.094  1.7060 -0.9200  0.9439
  586TIP3    H223394   3.740   2.969   1.204  0.0726  0.5456 -1.0441
  587TIP3   OH223395   4.996   4.755   8.766 -0.5959 -0.8983 -0.0075
  587TIP3    H123396   5.018   4.689   8.832  0.2741 -0.6183 -0.0102
  587TIP3    H223397   4.996   4.838   8.814 -0.9555 -0.8052 -0.1599
  588TIP3   OH223398   2.623   2.419   8.150  0.1763 -0.5947 -0.2027
  588TIP3    H123399   2.622   2.471   8.070 -1.9373 -0.9593 -0.4669
  588TIP3    H223400   2.679   2.344   8.129 -2.0176 -1.8193 -2.1753
  589TIP3   OH223401   1.457   6.204   0.026  0.0641  0.4922 -1.1810
  589TIP3    H123402   1.405   6.154   0.089 -1.4847  1.9468 -1.2198
  589TIP3    H223403   1.516   6.257   0.079  2.7394 -2.2066 -1.1516
  590TIP3   OH223404   4.598   2.101   0.204  0.2769 -0.0943 -0.2309
  590TIP3    H123405   4.683   2.108   0.160  0.4316 -0.6124 -0.0320
  590TIP3    H223406   4.549   2.037   0.152 -0.1333  0.4812 -0.5567
  591TIP3   OH223407   3.472   2.049   8.995  0.1127 -0.4034 -0.5312
  591TIP3    H123408   3.564   2.031   8.975 -0.6236 -2.2147 -2.8112
  591TIP3    H223409   3.454   2.135   8.958  0.8630 -0.0280 -0.0401
  592TIP3   OH223410   1.631   3.191   2.442  0.1739  0.0773 -0.2015
  592TIP3    H123411   1.658   3.178   2.350 -0.7425 -1.9927 -0.2359
  592TIP3    H223412   1.536   3.199   2.438  0.2177  1.1209  0.4986
  593TIP3   OH223413   0.277   1.983   3.382 -0.1702  0.0389 -0.1844
  593TIP3    H123414   0.322   2.020   3.458 -0.7105 -0.2237  0.2719
  593TIP3    H223415   0.258   2.059   3.326 -0.4654  0.3391  0.3187
  594TIP3   OH223416   2.986   4.601   7.752  0.4124  0.1016  0.2603
  594TIP3    H123417   2.986   4.524   7.809 -1.6571  0.0659  0.2876
  594TIP3    H223418   2.971   4.566   7.664  0.6402  0.3753  0.1121
  595TIP3   OH223419   0.009   5.103   7.911 -0.2174 -0.4712  0.0805
  595TIP3    H123420   0.052   5.152   7.841  0.2323  1.2083  1.4554
  595TIP3    H223421  -0.081   5.092   7.881  0.2942 -1.0145 -1.3434
  596TIP3   OH223422   6.136   3.495   1.093 -0.2949 -0.4934 -0.3523
  596TIP3    H123423   6.166   3.586   1.097 -0.2260 -0.4026 -2.2068
  596TIP3    H223424   6.065   3.491   1.158  0.4136  0.5781  0.5315
  597TIP3   OH223425   2.372   6.284   2.040 -0.1650 -0.2384  0.3253
  597TIP3    H123426   2.365   6.332   1.957  0.0405  3.0864  2.0547
  597TIP3    H223427   2.306   6.215   2.033 -0.0793 -0.1685 -2.6067
  598TIP3   OH223428   0.713   0.431   8.533 -0.5588  0.9045 -0.1579
  598TIP3    H123429   0.781   0.466   8.590 -1.1782  0.1725  1.0781
  598TIP3    H223430   0.682   0.352   8.577 -0.9746  0.2285 -1.5901
  599TIP3   OH223431   5.504   2.711   2.302  0.3924 -0.2932 -0.4865
  599TIP3    H123432   5.513   2.792   2.353 -0.1850  0.3662 -1.4032
  599TIP3    H223433   5.594   2.683   2.286  0.6902 -1.9974  3.0902
  600TIP3   OH223434   1.039   3.844   0.474 -0.2482 -0.3916 -0.3951
  600TIP3    H123435   1.106   3.845   0.406  0.1228  0.9510 -0.0272
  600TIP3    H223436   1.078   3.793   0.545 -0.3307 -1.1235 -0.8617
  601TIP3   OH223437   5.968   1.516   0.851 -0.3785 -0.3071 -0.3736
  601TIP3    H123438   5.900   1.582   0.866  0.3545  0.7587 -1.5468
  601TIP3    H223439   6.050   1.564   0.860  0.1596 -0.7588 -2.4330
  602TIP3   OH223440   0.409   1.335   2.664 -0.4389  0.0358  0.6192
  602TIP3    H123441   0.362   1.342   2.746 -0.8478  0.6832  0.3348
  602TIP3    H223442   0.455   1.251   2.670 -0.5559  0.0225  1.4512
  603TIP3   OH223443   5.853   2.197   8.657  0.0248  0.2869  0.5427
  603TIP3    H123444   5.824   2.195   8.566 -0.0808 -0.9672  0.5814
  603TIP3    H223445   5.922   2.131   8.661 -1.2432 -1.0136  1.7658
  604TIP3   OH223446   5.601   5.794   7.313  0.3871  0.4685  0.0334
  604TIP3    H123447   5.688   5.810   7.349  0.4927  0.4501 -0.2098
  604TIP3    H223448   5.578   5.875   7.268  1.4872 -0.4431 -2.3540
  605TIP3   OH223449   1.104   1.068   0.483 -0.2616  0.6670 -0.4504
  605TIP3    H123450   1.163   1.034   0.415 -0.4527  0.8026 -0.6887
  605TIP3    H223451   1.140   1.035   0.565 -1.1420 -1.1967 -0.7487
  606TIP3   OH223452   1.101   6.254   8.767 -0.1742 -0.1198 -0.2821
  606TIP3    H123453   1.064   6.245   8.855 -0.0456 -1.4354 -0.3410
  606TIP3    H223454   1.026   6.240   8.708 -0.0226 -0.4905 -0.3875
  607TIP3   OH223455   0.238   5.585   7.921  0.0813  0.3407 -0.4509
  607TIP3    H123456   0.247   5.534   8.002 -0.9625  1.6035  0.5213
  607TIP3    H223457   0.322   5.630   7.913 -0.1980  1.1178  0.6317
  608TIP3   OH223458   5.842   3.149   8.253 -0.2455  0.3754 -0.0164
  608TIP3    H123459   5.882   3.207   8.319  0.7035 -1.5057  1.1447
  608TIP3    H223460   5.917   3.115   8.204 -0.9427  1.7534 -2.1565
  609TIP3   OH223461   3.801   3.444   1.185 -0.0479 -0.2310  0.2766
  609TIP3    H123462   3.821   3.451   1.092 -0.5011 -1.5150  0.0574
  609TIP3    H223463   3.882   3.413   1.225  0.1469  0.3205  0.3272
  610TIP3   OH223464   2.658   5.585   8.669 -0.6276 -0.8206  0.0630
  610TIP3    H123465   2.706   5.549   8.594 -1.4762 -1.7445 -0.0690
  610TIP3    H223466   2.584   5.632   8.629  0.5889  1.3149  0.2308
  611TIP3   OH223467   3.920   4.130   8.124  0.3360 -0.4070  0.5865
  611TIP3    H123468   3.979   4.146   8.197  1.2050 -1.4712  0.1487
  611TIP3    H223469   3.916   4.034   8.117 -1.6943 -0.3791  0.7998
  612TIP3   OH223470   5.409   2.872   7.652 -0.3138  0.0339  0.3014
  612TIP3    H123471   5.421   2.957   7.611 -2.1578  0.4194  0.4686
  612TIP3    H223472   5.495   2.850   7.689  0.3800  1.4470 -0.4058
  613TIP3   OH223473   2.965   0.728   8.820  0.1614  0.2488  0.2175
  613TIP3    H123474   2.945   0.697   8.731 -1.3714  0.5434  0.4332
  613TIP3    H223475   2.965   0.649   8.873 -0.4041  0.2260  0.1945
  614TIP3   OH223476   5.002   0.836   8.584  0.1892 -0.1445 -0.0598
  614TIP3    H123477   4.976   0.844   8.492  0.5070  0.5665 -0.0934
  614TIP3    H223478   4.931   0.877   8.633  0.8004  0.9991 -0.0994
  615TIP3   OH223479   0.758   1.626   9.189  0.2579 -0.8191  0.5378
  615TIP3    H123480   0.810   1.601   9.113 -0.2086  0.9723 -0.4163
  615TIP3    H223481   0.820   1.622   9.262  1.3487 -0.2672 -0.3234
  616TIP3   OH223482   3.195   3.606   0.706  0.0766 -0.0861 -0.0211
  616TIP3    H123483   3.226   3.690   0.739  1.5002 -0.2150 -0.9217
  616TIP3    H223484   3.110   3.625   0.666 -1.1679  0.2708  2.5927
  617TIP3   OH223485   3.343   5.506   1.361 -0.1311  0.0333  0.3134
  617TIP3    H123486   3.281   5.533   1.294 -0.6304  0.8111  1.0586
  617TIP3    H223487   3.348   5.411   1.354 -0.5402  0.0714 -0.4978
  618TIP3   OH223488   3.641   1.660   3.056  0.5472 -0.1131  0.1103
  618TIP3    H123489   3.677   1.695   3.138  0.7959 -0.0567 -0.0227
  618TIP3    H223490   3.609   1.573   3.079  1.5164 -0.4946  0.0413
  619TIP3   OH223491   4.540   6.037   1.094  0.0613  0.3203  0.2698
  619TIP3    H123492   4.446   6.051   1.078  0.2814 -0.0088 -1.5832
  619TIP3    H223493   4.553   5.944   1.077  0.7995  0.4565  0.0764
  620TIP3   OH223494   3.393   2.175   0.033 -0.4387 -0.4181  0.1419
  620TIP3    H123495   3.433   2.122  -0.036  0.1976 -1.0433  0.9641
  620TIP3    H223496   3.299   2.166   0.019 -0.3260 -0.0040 -1.0243
  621TIP3   OH223497   5.292   5.398   1.956 -0.1692  0.9531 -0.3230
  621TIP3    H123498   5.216   5.409   2.012 -1.3651 -0.4923 -1.5741
  621TIP3    H223499   5.361   5.365   2.014 -0.7416  1.4288  0.6455
  622TIP3   OH223500   0.529   1.947   2.974 -0.4780  0.4334  0.0783
  622TIP3    H123501   0.611   1.955   2.925 -1.2348 -0.8732 -1.5147
  622TIP3    H223502   0.556   1.945   3.066  1.2897 -0.1569 -0.4105
  623TIP3   OH223503   1.185   5.144   1.282  0.1494  0.4487  0.1987
  623TIP3    H123504   1.151   5.073   1.228  2.0365  0.3892 -0.9710
  623TIP3    H223505   1.196   5.105   1.369  0.7755 -0.5767 -0.3318
  624TIP3   OH223506   0.757   4.536   2.064  0.2649  0.3734 -0.1073
  624TIP3    H123507   0.676   4.542   2.013 -0.6810 -0.8294  1.1645
  624TIP3    H223508   0.814   4.481   2.012  0.6496  1.9289 -1.4277
  625TIP3   OH223509   2.872   3.555   8.658 -0.3081 -0.1977 -0.5615
  625TIP3    H123510   2.851   3.573   8.749  0.5050 -0.6091 -0.2790
  625TIP3    H223511   2.931   3.626   8.632  0.1557 -0.5519 -0.4937
  626TIP3   OH223512   5.857   1.146   1.568 -0.2980 -0.5137  0.1323
  626TIP3    H123513   5.831   1.156   1.477 -1.6586 -1.4910  0.3798
  626TIP3    H223514   5.923   1.213   1.582 -1.9663  1.4495 -0.8515
  627TIP3   OH223515   5.943   5.762   0.168  0.4582 -0.2218 -0.2384
  627TIP3    H123516   5.999   5.716   0.231  2.2602  1.6847 -0.3455
  627TIP3    H223517   5.877   5.805   0.222  1.2618  0.4094  0.2656
  628TIP3   OH223518   2.468   3.825   7.604 -0.2611 -0.3612  0.1918
  628TIP3    H123519   2.429   3.742   7.575  2.5301 -1.2190 -1.5071
  628TIP3    H223520   2.448   3.886   7.533 -2.9134  0.7746  1.7485
  629TIP3   OH223521   1.985   5.717   7.031 -0.2262  0.2511 -0.2751
  629TIP3    H123522   1.997   5.623   7.042  2.3193  0.5153 -0.2724
  629TIP3    H223523   2.064   5.747   6.985  0.9987  2.8892  3.0744
  630TIP3   OH223524   3.547   3.829   7.559  0.2683  0.0219  0.6881
  630TIP3    H123525   3.615   3.854   7.621  0.6829  0.8937 -0.0972
  630TIP3    H223526   3.546   3.733   7.562  1.5141 -0.0109  0.7427
  631TIP3   OH223527   1.038   4.697   8.337  0.1316  0.3735 -0.2027
  631TIP3    H123528   1.031   4.619   8.282 -0.2093  1.2540 -1.4676
  631TIP3    H223529   1.060   4.767   8.275  0.0207  1.3544  0.8393
  632TIP3   OH223530   2.362   0.186   7.447  0.9214  0.3620  0.0381
  632TIP3    H123531   2.404   0.271   7.459  1.0229  0.5730 -1.5900
  632TIP3    H223532   2.403   0.129   7.512  3.6916  0.5726 -1.4030
  633TIP3   OH223533   3.279   1.789   1.341  0.3671 -0.2333 -0.5220
  633TIP3    H123534   3.204   1.737   1.369 -1.7484  1.9651 -1.6846
  633TIP3    H223535   3.244   1.877   1.327  3.2720  1.0217 -0.7792
  634TIP3   OH223536   2.947   5.915   8.913  0.0378 -0.0922  0.1681
  634TIP3    H123537   2.998   5.987   8.877  1.9414 -0.7003  1.4566
  634TIP3    H223538   2.926   5.860   8.838  1.1123  0.2998 -0.4368
  635TIP3   OH223539   2.594   5.890   0.147 -0.2299  0.0419 -0.3469
  635TIP3    H123540   2.680   5.921   0.120 -0.2033 -1.3464 -2.0808
  635TIP3    H223541   2.608   5.798   0.171 -0.8671  0.3775  1.4849
  636TIP3   OH223542   4.120   1.699   7.940  1.0447  0.2616 -0.1156
  636TIP3    H123543   4.208   1.725   7.970  1.3628 -0.3994 -0.4480
  636TIP3    H223544   4.120   1.604   7.950  0.3166  0.2729 -0.0135
  637TIP3   OH223545   0.072   3.937   2.880  0.0694 -0.3202  0.2654
  637TIP3    H123546   0.109   4.018   2.916 -1.4928  0.6948 -0.2614
  637TIP3    H223547   0.139   3.871   2.895  1.4089  1.0676  0.7232
  638TIP3   OH223548   5.532   3.918   0.155  0.3667 -0.3976  0.4181
  638TIP3    H123549   5.610   3.974   0.154  0.8781 -1.0409  1.6514
  638TIP3    H223550   5.559   3.839   0.108  0.1600 -0.2480  0.0490
  639TIP3   OH223551   0.937   3.159   8.755  0.6458 -0.5016 -0.2013
  639TIP3    H123552   0.876   3.227   8.784  1.8240  1.2121 -1.5324
  639TIP3    H223553   0.961   3.112   8.835  0.4552  1.2223  0.9143
  640TIP3   OH223554   6.564   3.238   8.073 -0.1926  0.2381 -0.0341
  640TIP3    H123555   6.537   3.325   8.047  0.2316  0.6207  0.7636
  640TIP3    H223556   6.550   3.184   7.995 -2.3808  0.5862  0.0525
  641TIP3   OH223557   4.983   4.371   0.020  0.2330 -0.0418 -0.2242
  641TIP3    H123558   4.977   4.275   0.022  0.1450 -0.0466 -0.6872
  641TIP3    H223559   5.066   4.390   0.065 -0.6710 -0.2232  1.6432
  642TIP3   OH223560   2.384   5.456   0.661  0.6636 -0.0613 -0.0465
  642TIP3    H123561   2.365   5.541   0.701  3.5644  0.8241 -0.3627
  642TIP3    H223562   2.307   5.438   0.608 -0.4669  1.8815  0.7995
  643TIP3   OH223563   5.388   4.145   8.551 -0.7540 -0.0490  0.7591
  643TIP3    H123564   5.436   4.193   8.483 -0.8361 -0.2888  0.5305
  643TIP3    H223565   5.300   4.133   8.514 -1.0348  0.5087  1.2321
  644TIP3   OH223566   4.937   4.420   2.077 -0.1965  0.0348 -0.5130
  644TIP3    H123567   4.908   4.345   2.025  0.1874  0.4991 -1.4313
  644TIP3    H223568   5.028   4.433   2.050 -0.3080  0.9253 -0.4808
  645TIP3   OH223569   0.458   2.964   0.574 -0.3711  0.3415  0.2991
  645TIP3    H123570   0.463   2.880   0.618  0.1508  0.0720 -0.2648
  645TIP3    H223571   0.542   2.973   0.528 -0.9252  0.5786 -0.7009
  646TIP3   OH223572   2.065   2.920   2.022  0.1552 -0.2067  0.4876
  646TIP3    H123573   2.017   2.854   2.073 -1.1287  0.7809  0.6125
  646TIP3    H223574   2.121   2.869   1.964 -1.2436 -1.4356  0.1499
  647TIP3   OH223575   2.143   0.685   8.791  0.4246  0.4286  0.1246
  647TIP3    H123576   2.063   0.723   8.755  1.0091  0.3847 -1.2640
  647TIP3    H223577   2.204   0.758   8.796  0.7136  0.1976 -0.0579
  648TIP3   OH223578   3.338   5.648   0.619  0.3924 -0.0777 -0.4121
  648TIP3    H123579   3.282   5.725   0.615  0.5687  0.0303 -0.9289
  648TIP3    H223580   3.424   5.680   0.591  0.1549 -0.7365 -2.0336
  649TIP3   OH223581   0.850   3.241   8.453 -0.4089  0.1490 -0.0132
  649TIP3    H123582   0.828   3.272   8.541 -0.6812 -0.4912  0.1452
  649TIP3    H223583   0.914   3.172   8.467 -0.0032  0.4496 -0.3551
  650TIP3   OH223584   4.221   4.045   8.984  0.4205 -0.6900 -0.5420
  650TIP3    H123585   4.148   4.099   8.954  0.1982 -1.0115 -0.5881
  650TIP3    H223586   4.179   3.978   9.039  0.8665  0.2996  1.0972
  651TIP3   OH223587   1.469   5.649   8.793 -0.0703  0.1080 -0.2600
  651TIP3    H123588   1.524   5.580   8.832 -1.0315 -0.7056 -0.2981
  651TIP3    H223589   1.380   5.615   8.801 -0.8161  2.3143  1.7168
  652TIP3   OH223590   2.119   4.648   7.943  0.8377  0.1461 -0.5002
  652TIP3    H123591   2.056   4.717   7.922  1.3622  0.5943 -0.6434
  652TIP3    H223592   2.079   4.567   7.911  1.0382  0.6298 -2.0483
  653TIP3   OH223593   5.666   2.083   2.007  0.4287 -0.4818 -0.1676
  653TIP3    H123594   5.659   2.102   1.913  0.6511 -2.0113 -0.5223
  653TIP3    H223595   5.603   2.143   2.048 -1.5933 -1.5283 -1.5387
  654TIP3   OH223596   0.456   0.600   2.642  0.3160 -0.0369  0.5763
  654TIP3    H123597   0.539   0.634   2.674  0.1739  0.6479  0.2380
  654TIP3    H223598   0.391   0.666   2.668 -0.0256 -0.2356  0.2472
  655TIP3   OH223599   4.479   1.883   1.405  0.2041 -0.0198  0.1239
  655TIP3    H123600   4.435   1.801   1.382 -0.2473  0.0687  0.6639
  655TIP3    H223601   4.408   1.947   1.413  0.2603 -0.1886  2.4218
  656TIP3   OH223602   1.863   2.098   2.343  0.6933 -0.1650 -0.4118
  656TIP3    H123603   1.779   2.056   2.325  0.8478 -1.1996  1.1068
  656TIP3    H223604   1.871   2.096   2.438  2.3524  0.0941 -0.5156
  657TIP3   OH223605   0.068   3.122   7.889 -0.3893  0.4609  0.6197
  657TIP3    H123606   0.076   3.097   7.981 -1.0571  1.9833  1.1286
  657TIP3    H223607  -0.026   3.133   7.875 -0.2857  0.3331 -0.2199
  658TIP3   OH223608   6.339   1.050   1.512  0.5559  0.0585  0.3631
  658TIP3    H123609   6.388   0.973   1.543  0.4316 -1.0834 -2.0675
  658TIP3    H223610   6.376   1.069   1.426 -3.0965 -0.8245 -1.5871
  659TIP3   OH223611   2.554   5.007   7.874 -0.1273 -0.7670 -0.3907
  659TIP3    H123612   2.554   5.073   7.805  0.1682  0.0393  0.3535
  659TIP3    H223613   2.630   4.953   7.855  0.8548  0.3703  0.1203
  660TIP3   OH223614   5.425   5.242   3.366  0.6534 -0.0731 -0.0733
  660TIP3    H123615   5.404   5.161   3.319 -1.5564 -0.2795  1.1484
  660TIP3    H223616   5.521   5.246   3.364  0.7574 -1.7275 -1.7708
  661TIP3   OH223617   0.472   3.045   2.866 -0.1923 -0.0140  0.0287
  661TIP3    H123618   0.564   3.034   2.889 -0.1503 -0.3478 -0.2870
  661TIP3    H223619   0.474   3.083   2.778 -0.3530  0.6816  0.3212
  662TIP3   OH223620   4.836   6.652   2.325 -0.5716  0.4252  0.3702
  662TIP3    H123621   4.774   6.626   2.258 -0.4686 -1.2828  0.8975
  662TIP3    H223622   4.853   6.745   2.307  0.8003 -0.3452 -3.0313
  663TIP3   OH223623   0.599   4.026   0.705 -0.1847 -0.4892  0.0821
  663TIP3    H123624   0.573   4.064   0.621  0.5536 -3.1486 -1.4644
  663TIP3    H223625   0.619   4.102   0.760 -1.4793  1.3749 -1.8376
  664TIP3   OH223626   3.915   4.521   7.562  0.1061 -0.0876 -0.1702
  664TIP3    H123627   3.998   4.479   7.542  0.4595 -0.7788  2.3468
  664TIP3    H223628   3.924   4.549   7.654 -2.7452 -1.0486  0.5010
  665TIP3   OH223629   5.310   1.589   2.949  0.2779 -0.3502  0.3382
  665TIP3    H123630   5.326   1.589   3.044  0.3292 -1.1008  0.3352
  665TIP3    H223631   5.392   1.622   2.911 -0.3838  1.7986  0.6281
  666TIP3   OH223632   4.160   0.984   1.398 -0.2967 -0.1002  0.4098
  666TIP3    H123633   4.085   0.943   1.440  0.1924 -1.0416  0.3926
  666TIP3    H223634   4.234   0.927   1.419  0.1219 -0.1045 -0.9702
  667TIP3   OH223635   1.433   4.861   1.728  0.1759 -0.3093  0.6511
  667TIP3    H123636   1.454   4.790   1.667 -0.9573 -2.5492  2.7156
  667TIP3    H223637   1.352   4.834   1.770 -0.2885  2.2314  1.5740
  668TIP3   OH223638   4.847   5.325   2.826 -0.1520 -0.4584 -0.2005
  668TIP3    H123639   4.832   5.352   2.917  0.5032  0.3890 -0.3245
  668TIP3    H223640   4.803   5.241   2.818 -0.0196 -0.6563  0.9748
  669TIP3   OH223641   0.488   0.828   7.802 -0.1326 -0.2794 -0.2599
  669TIP3    H123642   0.463   0.862   7.888 -1.5956 -0.2918 -0.6521
  669TIP3    H223643   0.464   0.736   7.805  1.9951 -0.8801  0.1033
  670TIP3   OH223644   2.244   0.555   0.154 -0.0907 -0.2760  0.0754
  670TIP3    H123645   2.253   0.483   0.216  0.3023 -1.5466 -1.3786
  670TIP3    H223646   2.204   0.515   0.077  1.0074  0.8395 -1.1274
  671TIP3   OH223647   6.686   1.973   2.248  0.6604  0.2016 -0.3042
  671TIP3    H123648   6.597   1.989   2.218 -0.1555 -1.2850  1.1408
  671TIP3    H223649   6.718   1.904   2.190  0.2390 -0.4417  0.2137
  672TIP3   OH223650   2.673   1.490   2.381  0.0141  0.0129  0.5981
  672TIP3    H123651   2.728   1.562   2.350  0.4849 -0.3616  0.5562
  672TIP3    H223652   2.584   1.514   2.354  0.2082  0.4423  0.3363
  673TIP3   OH223653   3.960   4.517   2.895  0.1646  0.5386  0.2786
  673TIP3    H123654   3.965   4.613   2.901 -1.4514  0.6752 -0.0579
  673TIP3    H223655   3.994   4.497   2.808 -2.3827  1.1403 -0.9458
  674TIP3   OH223656   5.419   4.317   7.294 -0.3806 -0.0584 -0.1212
  674TIP3    H123657   5.391   4.302   7.385 -2.1112 -1.6944 -0.8711
  674TIP3    H223658   5.476   4.394   7.300 -0.0358 -0.3946  2.4146
  675TIP3   OH223659   2.711   6.445   1.124  0.3506 -0.7037  0.3758
  675TIP3    H123660   2.677   6.427   1.211  1.2069 -1.3986  0.5894
  675TIP3    H223661   2.701   6.362   1.076 -1.1094 -0.0270 -0.5466
  676TIP3   OH223662   3.659   5.588   2.233 -0.6665 -0.1906 -0.1397
  676TIP3    H123663   3.614   5.521   2.283 -1.8525  0.5800 -0.1271
  676TIP3    H223664   3.625   5.579   2.144  0.7435 -0.9519 -0.6374
  677TIP3   OH223665   1.510   3.425   8.614  0.5986 -0.2186 -0.0352
  677TIP3    H123666   1.461   3.463   8.687 -0.2093  0.2941 -0.8165
  677TIP3    H223667   1.578   3.489   8.596  0.6064 -0.1974  0.0679
  678TIP3   OH223668   0.914   4.784   2.032 -0.0298  0.6906  0.1549
  678TIP3    H123669   0.855   4.829   1.972 -0.6245 -0.3770 -0.0992
  678TIP3    H223670   0.890   4.691   2.024  1.3245  0.2837  0.4433
  679TIP3   OH223671   2.083   5.990   1.566  0.4048 -0.0308  1.0736
  679TIP3    H123672   2.171   6.012   1.598  0.4741  1.4154  0.0013
  679TIP3    H223673   2.037   6.074   1.565 -0.3233 -0.4296 -0.3453
  680TIP3   OH223674   1.439   1.077   8.071 -0.1905 -0.3189  0.2327
  680TIP3    H123675   1.410   1.112   8.155 -0.8080  0.4141 -0.2695
  680TIP3    H223676   1.388   1.125   8.006  0.0197 -1.1199 -0.5523
  681TIP3   OH223677   5.437   0.989   7.938  0.3955  0.0398  0.3128
  681TIP3    H123678   5.355   1.002   7.892  1.2610 -0.7543 -1.5775
  681TIP3    H223679   5.483   1.073   7.931  0.8473 -0.3012 -1.0132
  682TIP3   OH223680   0.783   3.830   1.504 -0.5196 -0.2349 -0.5395
  682TIP3    H123681   0.792   3.796   1.415  2.1858 -0.8458 -0.1313
  682TIP3    H223682   0.855   3.788   1.553 -0.7399  1.5416  1.4567
  683TIP3   OH223683   1.128   6.562   8.909 -0.2443  0.0817 -0.0046
  683TIP3    H123684   1.199   6.499   8.919 -0.5653 -0.2492  0.1989
  683TIP3    H223685   1.170   6.638   8.869  0.8586  0.9947  2.6129
  684TIP3   OH223686   2.680   4.778   7.550 -0.7081  0.4017  0.1611
  684TIP3    H123687   2.620   4.849   7.526 -1.5663 -0.9447 -1.9302
  684TIP3    H223688   2.763   4.800   7.506 -0.8095  0.3954 -0.0338
  685TIP3   OH223689   2.780   1.951   8.103 -0.6850  0.0714 -0.5143
  685TIP3    H123690   2.693   1.943   8.143  0.2012  1.3935  1.9141
  685TIP3    H223691   2.820   1.864   8.114 -1.3345 -0.2607 -0.7446
  686TIP3   OH223692   3.648   4.537   0.409 -0.0461 -0.0035 -0.0101
  686TIP3    H123693   3.674   4.464   0.465  1.1250  0.9867  0.7701
  686TIP3    H223694   3.668   4.615   0.460 -1.2322  0.8829 -0.8478
  687TIP3   OH223695   6.245   4.131   1.118 -0.5277 -0.0888  0.4354
  687TIP3    H123696   6.242   4.115   1.213 -1.7926  0.9155  0.5808
  687TIP3    H223697   6.313   4.197   1.107 -1.4354  0.9430  0.8442
  688TIP3   OH223698   5.611   0.330   0.462  0.4202  0.2237  0.2090
  688TIP3    H123699   5.565   0.322   0.379  0.2866  0.1175  0.2918
  688TIP3    H223700   5.684   0.389   0.444  0.2608  0.3803  0.0722
  689TIP3   OH223701   3.974   5.036   1.334 -0.1920  0.2338 -0.3664
  689TIP3    H123702   4.012   5.080   1.257 -0.4744  3.0562  0.9878
  689TIP3    H223703   3.887   5.009   1.305 -0.4459  1.6077 -0.9424
  690TIP3   OH223704   0.859   0.638   7.653  0.2189 -0.1499 -0.4135
  690TIP3    H123705   0.906   0.626   7.571 -0.4632  2.9411 -1.3957
  690TIP3    H223706   0.777   0.590   7.641  0.7630 -0.9916 -0.8845
  691TIP3   OH223707   3.896   6.129   8.234  0.1160  0.4467 -0.6918
  691TIP3    H123708   3.968   6.122   8.297  0.1329 -0.4463 -0.8042
  691TIP3    H223709   3.885   6.224   8.221 -0.2579  0.6672  1.0732
  692TIP3   OH223710   6.324   4.536   9.116 -0.1626 -0.0673  0.1558
  692TIP3    H123711   6.238   4.578   9.115  0.2529  0.8574 -2.0936
  692TIP3    H223712   6.320   4.472   9.045  1.5270  1.2259 -1.1947
  693TIP3   OH223713   3.576   4.145   9.140  0.0304 -0.2090  0.1102
  693TIP3    H123714   3.619   4.189   9.214  0.3988 -0.1989 -0.1108
  693TIP3    H223715   3.508   4.091   9.181  1.7533 -2.0856  0.7039
  694TIP3   OH223716   0.385   3.891   8.722  0.2185 -0.1360 -0.0006
  694TIP3    H123717   0.335   3.867   8.800 -0.2510  2.2542  0.5104
  694TIP3    H223718   0.464   3.933   8.756  1.7963 -2.2341 -0.8292
  695TIP3   OH223719   6.248   0.918   0.762 -0.0539 -0.5394  0.4263
  695TIP3    H123720   6.220   0.827   0.767  0.3159 -0.6553  0.3599
  695TIP3    H223721   6.179   0.961   0.711 -1.0862 -0.4423  1.8435
  696TIP3   OH223722   1.996   4.025   8.638 -0.5549 -0.3143  0.1973
  696TIP3    H123723   1.991   3.935   8.607  1.5169 -0.1328 -0.8378
  696TIP3    H223724   1.924   4.070   8.594 -0.9059 -1.2108 -0.1691
  697TIP3   OH223725   1.956   6.703   1.982 -0.0435  0.2370 -0.3166
  697TIP3    H123726   1.999   6.730   1.901 -0.8831  3.5983  0.2010
  697TIP3    H223727   1.870   6.672   1.954  0.1651  0.0873 -0.8030
  698TIP3   OH223728   1.847   2.955   2.350  0.7145  0.7927  0.1243
  698TIP3    H123729   1.759   2.982   2.323  0.7912  1.0863  0.1605
  698TIP3    H223730   1.835   2.917   2.437  0.5173  0.1599 -0.1719
  699TIP3   OH223731   5.585   3.647   1.284  0.2992  0.1647 -0.2213
  699TIP3    H123732   5.548   3.573   1.333 -1.7195  1.4518  0.3282
  699TIP3    H223733   5.514   3.673   1.224  1.4555  0.8449 -1.3495
  700TIP3   OH223734   5.817   0.317   1.852  0.0643 -0.0082 -0.3084
  700TIP3    H123735   5.749   0.254   1.877  1.0214 -0.8489  0.2781
  700TIP3    H223736   5.898   0.267   1.856  0.7874  1.1142 -0.4452
  701TIP3   OH223737   6.143   1.752   9.018  0.2918  0.0839 -0.6482
  701TIP3    H123738   6.061   1.737   8.971  0.9977 -2.8723 -1.1880
  701TIP3    H223739   6.211   1.740   8.951  1.2155  0.4005  0.2091
  702TIP3   OH223740   3.543   4.706   7.373 -0.1376 -0.1388 -0.6851
  702TIP3    H123741   3.557   4.694   7.280  0.4345  0.7669 -0.7304
  702TIP3    H223742   3.630   4.721   7.410 -0.3188 -0.7989  0.0530
  703TIP3   OH223743   5.067   3.483   0.277 -0.2040 -0.6116  0.0193
  703TIP3    H123744   5.016   3.518   0.350  1.4628 -0.6711  1.2728
  703TIP3    H223745   5.051   3.544   0.205 -2.1309 -0.7261  0.3002
  704TIP3   OH223746   1.726   1.439   1.676 -0.4070  0.4006  0.2349
  704TIP3    H123747   1.816   1.422   1.705 -0.3629  0.6569  0.2569
  704TIP3    H223748   1.714   1.384   1.599 -0.7739 -0.8764  1.1636
  705TIP3   OH223749   5.145   5.902   8.355  0.5295  0.4313 -0.4257
  705TIP3    H123750   5.147   5.981   8.300 -0.1895  0.4517 -0.4314
  705TIP3    H223751   5.227   5.858   8.336  0.9256  1.1676 -0.4510
  706TIP3   OH223752   5.505   6.573   8.528 -0.2441 -0.3529  0.1503
  706TIP3    H123753   5.485   6.624   8.449  0.3611  0.1184  0.2967
  706TIP3    H223754   5.464   6.488   8.512  0.0940 -0.3498 -0.7857
  707TIP3   OH223755   3.328   6.292   8.881  0.3887 -0.1058 -0.2475
  707TIP3    H123756   3.274   6.366   8.908  2.0488  0.7080  0.9784
  707TIP3    H223757   3.418   6.322   8.893  1.1147 -1.9253 -0.8408
  708TIP3   OH223758   2.785   0.081   0.671 -0.4780  0.3098 -0.0869
  708TIP3    H123759   2.820   0.024   0.739 -1.0785  0.6290  0.5089
  708TIP3    H223760   2.712   0.126   0.713  0.3927  2.0340 -0.3291
  709TIP3   OH223761   5.284   2.249   8.386  0.5486  0.5123 -0.0538
  709TIP3    H123762   5.352   2.190   8.352  0.5841 -0.2078  1.2065
  709TIP3    H223763   5.241   2.283   8.308  2.2694  0.9056 -0.8927
  710TIP3   OH223764   2.449   4.687   2.237  0.1062 -0.1285  0.2245
  710TIP3    H123765   2.360   4.654   2.246 -0.8371  1.8380 -1.1487
  710TIP3    H223766   2.502   4.626   2.288 -1.8756 -1.8996  0.3319
  711TIP3   OH223767   5.546   4.940   0.287 -0.4332  0.1618 -0.3294
  711TIP3    H123768   5.566   4.950   0.194  0.8423 -0.8666 -0.2047
  711TIP3    H223769   5.611   4.877   0.318 -0.4171  0.9939  1.4105
  712TIP3   OH223770   4.884   5.852   8.485 -0.2417 -0.0330 -0.0449
  712TIP3    H123771   4.948   5.832   8.418 -1.8815 -1.0487 -1.3951
  712TIP3    H223772   4.832   5.924   8.448  0.3484  1.0805  1.2102
  713TIP3   OH223773   1.596   1.226   2.183  0.3689  0.4491  0.1822
  713TIP3    H123774   1.529   1.293   2.180 -0.6386 -0.5395 -0.0009
  713TIP3    H223775   1.576   1.174   2.261  0.8277  0.0636  0.0519
  714TIP3   OH223776   4.550   5.341   1.729 -0.8135 -0.6939 -0.1513
  714TIP3    H123777   4.503   5.421   1.752  0.2017 -0.6936  2.1862
  714TIP3    H223778   4.574   5.302   1.813  0.9145 -2.1352 -1.2405
  715TIP3   OH223779   4.021   1.699   7.450  0.3065 -0.1661  0.9036
  715TIP3    H123780   3.959   1.666   7.515  0.3043  0.4744  1.2410
  715TIP3    H223781   4.093   1.736   7.502  0.1658  0.6133  0.5565
  716TIP3   OH223782   3.822   4.558   8.505  0.2451  0.5945  0.6511
  716TIP3    H123783   3.773   4.640   8.495  0.4212  0.5884 -0.3197
  716TIP3    H223784   3.754   4.491   8.511  0.1145  0.6676  0.0575
  717TIP3   OH223785   5.161   1.926   9.178 -0.2300  0.2639 -0.2200
  717TIP3    H123786   5.081   1.896   9.133  0.9881 -0.0173 -2.2986
  717TIP3    H223787   5.194   1.997   9.124  0.1649  1.4259  1.4579
  718TIP3   OH223788   4.641   6.314   2.231 -0.1859  0.5331 -0.2849
  718TIP3    H123789   4.700   6.255   2.277 -1.6433 -1.4029 -0.7610
  718TIP3    H223790   4.577   6.340   2.297 -0.2523  0.6032 -0.3762
  719TIP3   OH223791   6.137   4.284   0.496  0.5786 -0.8178  0.7411
  719TIP3    H123792   6.154   4.352   0.432 -1.1429 -1.3924 -0.3876
  719TIP3    H223793   6.212   4.288   0.556  1.4254  0.7967 -0.3621
  720TIP3   OH223794   5.914   2.592   2.326 -0.3974 -0.2791  0.1946
  720TIP3    H123795   5.847   2.569   2.390 -0.3436 -1.2481 -0.0707
  720TIP3    H223796   5.872   2.578   2.241 -0.0072 -0.4682  0.0285
  721TIP3   OH223797   4.149   2.972   2.658 -0.1726 -0.0552  0.2434
  721TIP3    H123798   4.073   2.977   2.715  0.3511 -3.2743  1.4342
  721TIP3    H223799   4.223   2.958   2.717  0.9890  0.5268 -1.0134
  722TIP3   OH223800   3.447   1.774   8.161 -0.7345 -0.1302 -0.0971
  722TIP3    H123801   3.481   1.844   8.217 -1.4361  0.1470 -0.0060
  722TIP3    H223802   3.372   1.813   8.117 -0.7073 -0.6156 -0.5808
  723TIP3   OH223803   3.222   1.663   1.866 -0.1616  1.0784 -0.3247
  723TIP3    H123804   3.289   1.642   1.931 -0.1188  0.2828 -0.6145
  723TIP3    H223805   3.270   1.709   1.797 -0.7294  5.1150  1.6633
  724TIP3   OH223806   5.744   6.054   0.026  0.3508 -0.1619  0.5230
  724TIP3    H123807   5.659   6.096   0.017 -0.3278 -0.9621  2.6059
  724TIP3    H223808   5.725   5.964   0.051  1.8220 -0.9953 -1.0861
  725TIP3   OH223809   2.224   5.912   1.012 -0.0158 -0.5709 -0.7298
  725TIP3    H123810   2.136   5.950   1.014  0.8889  1.7665  1.8421
  725TIP3    H223811   2.236   5.874   1.099  2.0923  0.8369 -0.3126
  726TIP3   OH223812   0.876   2.846   8.152  0.2390 -0.2884 -0.2176
  726TIP3    H123813   0.944   2.892   8.201 -0.1991 -2.4155  2.6563
  726TIP3    H223814   0.920   2.770   8.115  0.0150 -0.1013 -0.8738
  727TIP3   OH223815   3.257   3.402   1.976 -0.1910 -0.2363 -0.2016
  727TIP3    H123816   3.210   3.326   1.941 -3.2994  1.7129 -0.6201
  727TIP3    H223817   3.280   3.454   1.898  1.6254 -0.5035  0.1033
  728TIP3   OH223818   2.449   1.123   2.537 -0.3969  0.4545  0.4658
  728TIP3    H123819   2.490   1.047   2.496 -1.3823  0.4073 -0.4865
  728TIP3    H223820   2.522   1.176   2.567  0.4965  1.2687 -2.7446
  729TIP3   OH223821   6.215   2.698   8.805 -0.2989 -0.0448  0.4920
  729TIP3    H123822   6.265   2.684   8.886 -0.4563  1.0606  0.7922
  729TIP3    H223823   6.184   2.788   8.811 -0.6283 -0.0683 -0.6388
  730TIP3   OH223824   2.135   4.851   7.580  0.1475  0.6860 -0.7605
  730TIP3    H123825   2.091   4.818   7.501 -0.4870 -0.6732  0.1398
  730TIP3    H223826   2.087   4.812   7.653 -0.6842  3.6435  0.4297
  731TIP3   OH223827   4.786   2.775   8.281  0.5768  0.1547  0.4076
  731TIP3    H123828   4.790   2.814   8.193  0.7122  1.2272  0.8661
  731TIP3    H223829   4.750   2.844   8.336  0.5089 -0.5015  1.2055
  732TIP3   OH223830   6.340   4.920   7.990 -0.7013  0.1695 -0.0568
  732TIP3    H123831   6.273   4.967   8.040 -0.8423 -0.7817  0.6863
  732TIP3    H223832   6.388   4.989   7.943 -2.3955  0.8400 -0.8823
  733TIP3   OH223833   2.294   6.609   0.455  0.1426 -0.2618  0.0302
  733TIP3    H123834   2.321   6.528   0.411 -3.3846 -1.0675 -1.0160
  733TIP3    H223835   2.320   6.679   0.395  1.1224 -0.7976 -0.1916
  734TIP3   OH223836   0.233   4.299   1.207 -0.0749  0.1768 -0.0083
  734TIP3    H123837   0.306   4.254   1.249  1.1237  1.0598 -1.0540
  734TIP3    H223838   0.218   4.377   1.260  1.0265  0.9658 -0.7843
  735TIP3   OH223839   4.414   2.732   3.148 -0.1569 -0.2467  0.6139
  735TIP3    H123840   4.473   2.690   3.085  1.7931  0.4298  1.8840
  735TIP3    H223841   4.466   2.802   3.187 -1.4171 -0.3466  2.6524
  736TIP3   OH223842   1.550   6.701   0.323  0.0892  0.1090  0.0222
  736TIP3    H123843   1.578   6.791   0.305 -1.3192  0.2141 -1.9071
  736TIP3    H223844   1.616   6.646   0.280  0.5982  0.2079  0.6575
  737TIP3   OH223845   1.985   0.722   7.851  0.0850 -0.4909 -0.2127
  737TIP3    H123846   1.897   0.758   7.844  0.1912 -0.4871 -1.8476
  737TIP3    H223847   2.041   0.788   7.812  1.3823  1.1806  3.8868
  738TIP3   OH223848   4.296   4.051   2.914  0.1531  0.2477 -0.5293
  738TIP3    H123849   4.363   4.029   2.978 -2.5159 -2.0399  1.7218
  738TIP3    H223850   4.278   4.144   2.930 -0.6441 -0.3114  2.3888
  739TIP3   OH223851   1.336   5.956   8.582  0.3061  0.7209 -0.2953
  739TIP3    H123852   1.287   5.965   8.500 -0.4403  2.5717  0.2994
  739TIP3    H223853   1.405   5.893   8.561  0.3277  1.3525 -2.4455
  740TIP3   OH223854   0.736   2.101   8.526  0.2678  0.3361  0.0253
  740TIP3    H123855   0.691   2.019   8.505 -2.2535  1.1352  1.7627
  740TIP3    H223856   0.820   2.074   8.563 -0.3011 -1.4435  0.0991
  741TIP3   OH223857   1.656   4.355   2.794 -0.2348  0.2687 -0.2788
  741TIP3    H123858   1.606   4.425   2.835 -0.3655  0.2060 -0.3314
  741TIP3    H223859   1.660   4.286   2.861 -0.3932  0.1921 -0.3481
  742TIP3   OH223860   4.439   2.229   1.222  0.0995  0.6151 -0.4187
  742TIP3    H123861   4.476   2.275   1.298  0.4803  1.1849 -0.9353
  742TIP3    H223862   4.488   2.264   1.147 -0.0855 -0.1342 -0.9008
  743TIP3   OH223863   0.925   3.969   0.971 -0.1348 -0.3196  0.4055
  743TIP3    H123864   0.987   3.896   0.969  0.2644  0.0328 -0.2305
  743TIP3    H223865   0.980   4.047   0.970 -0.5888  0.0302 -1.8190
  744TIP3   OH223866   0.956   1.470   8.157  0.2774  0.5692  0.0026
  744TIP3    H123867   1.010   1.431   8.088  0.1926  2.0864 -0.9955
  744TIP3    H223868   0.955   1.563   8.135 -3.6559  0.5193 -0.7406
  745TIP3   OH223869   4.031   6.251   8.951 -0.3588 -0.3106  0.1510
  745TIP3    H123870   4.025   6.308   9.028 -0.2208  0.0630 -0.1071
  745TIP3    H223871   4.041   6.312   8.877  0.5846 -0.6933 -0.0522
  746TIP3   OH223872   2.226   6.542   2.285  0.2387  0.1332 -0.0268
  746TIP3    H123873   2.241   6.603   2.213  0.7594 -0.9273 -0.8508
  746TIP3    H223874   2.196   6.462   2.243  0.1825 -0.3893  0.9711
  747TIP3   OH223875   2.630   1.153   2.809  0.0663  0.3537 -0.0443
  747TIP3    H123876   2.716   1.112   2.820  0.2845 -0.1870 -3.0012
  747TIP3    H223877   2.643   1.219   2.742 -1.3201  2.1889  1.3877
  748TIP3   OH223878   4.055   0.516   1.649 -0.3025 -0.1420  0.1209
  748TIP3    H123879   4.049   0.451   1.719  1.8792 -0.3310  0.2168
  748TIP3    H223880   4.055   0.464   1.569 -2.8390  0.0770 -0.0784
  749TIP3   OH223881   1.402   5.178   0.868 -0.4137 -0.7690  0.6220
  749TIP3    H123882   1.412   5.206   0.777  0.4618 -1.1441  0.5950
  749TIP3    H223883   1.363   5.254   0.912 -2.1533 -1.0463 -0.3194
  750TIP3   OH223884   5.742   4.095   2.154 -0.0962 -0.6198  0.2136
  750TIP3    H123885   5.837   4.085   2.146 -0.0284  0.6930 -0.9838
  750TIP3    H223886   5.731   4.157   2.227  0.0505  0.3800 -0.5968
  751TIP3   OH223887   3.538   5.790   0.906  0.2862  0.5403 -0.1431
  751TIP3    H123888   3.461   5.734   0.896 -0.1094  1.0050  0.2970
  751TIP3    H223889   3.504   5.879   0.902  0.6891  0.7472  0.9034
  752TIP3   OH223890   1.373   4.242   2.753 -0.0548  0.1776  0.0686
  752TIP3    H123891   1.389   4.149   2.740 -2.0199 -0.1076 -0.5876
  752TIP3    H223892   1.389   4.257   2.846  1.9966 -0.3983 -0.1379
  753TIP3   OH223893   2.983   1.552   8.697  0.1862  0.8988 -0.0074
  753TIP3    H123894   2.904   1.605   8.686 -0.4601 -0.2725 -1.2636
  753TIP3    H223895   2.953   1.462   8.686  1.8282  0.4853 -1.4654
  754TIP3   OH223896   4.928   1.182   8.199 -0.1414 -0.2098 -0.2196
  754TIP3    H123897   4.939   1.097   8.241 -1.6424 -0.8036 -0.9605
  754TIP3    H223898   4.966   1.244   8.261 -0.1732 -1.2917  0.9290
  755TIP3   OH223899   6.057   3.832   3.175 -0.6363  0.4662  0.0192
  755TIP3    H123900   5.992   3.842   3.244  0.0140 -2.5881  1.2641
  755TIP3    H223901   6.136   3.874   3.209  0.1451 -2.3183  2.0154
  756TIP3   OH223902   0.233   4.408   0.018 -0.1648 -0.3038 -0.1574
  756TIP3    H123903   0.288   4.479   0.052  1.3419 -0.9486 -1.1482
  756TIP3    H223904   0.148   4.450   0.001  0.7340  1.3314 -0.8769
  757TIP3   OH223905   2.023   0.404   7.650 -0.4298  0.1990  0.3460
  757TIP3    H123906   2.082   0.473   7.621 -0.3825  0.4670  1.0634
  757TIP3    H223907   1.991   0.365   7.569  1.6110 -0.7190 -0.1046
  758TIP3   OH223908   4.194   4.473   8.272 -0.1756 -0.0853  0.0824
  758TIP3    H123909   4.240   4.501   8.193 -0.4419  0.4864  0.1193
  758TIP3    H223910   4.244   4.512   8.344  0.2347 -0.8442  0.2205
  759TIP3   OH223911   3.749   0.594   8.708  0.7819 -0.5982 -0.1596
  759TIP3    H123912   3.701   0.564   8.785  0.0227 -1.1995 -0.8539
  759TIP3    H223913   3.808   0.662   8.742 -0.8155  0.4525  0.6711
  760TIP3   OH223914   4.210   3.901   8.151  0.4994 -0.1829  0.1107
  760TIP3    H123915   4.190   3.918   8.243 -0.3461 -1.7758  0.2466
  760TIP3    H223916   4.257   3.818   8.152  1.7589  0.4749 -0.7985
  761TIP3   OH223917   1.758   6.308   1.861 -0.0206  0.1988 -0.0219
  761TIP3    H123918   1.829   6.349   1.910  0.0789  0.2944 -0.2443
  761TIP3    H223919   1.793   6.222   1.836 -0.5371 -0.3899  1.1842
  762TIP3   OH223920   4.329   3.352   8.221 -0.2182 -0.3257 -0.3538
  762TIP3    H123921   4.247   3.303   8.213 -0.0158 -0.6951 -0.1803
  762TIP3    H223922   4.307   3.426   8.277 -0.2511 -0.8423  0.3322
  763TIP3   OH223923   4.724   4.255   8.211  1.0158  0.1710  0.1085
  763TIP3    H123924   4.649   4.195   8.220  1.4520 -0.2312  1.3167
  763TIP3    H223925   4.721   4.284   8.120  1.8190 -3.0689 -1.0883
  764TIP3   OH223926   3.616   6.079   1.856 -0.2854 -0.4865  0.1895
  764TIP3    H123927   3.561   6.108   1.929  0.4684  0.0916  0.5459
  764TIP3    H223928   3.594   5.987   1.845 -0.3593 -0.6082  1.2082
  765TIP3   OH223929   0.373   1.557   0.577 -0.5030  0.1080 -0.0930
  765TIP3    H123930   0.435   1.484   0.579 -0.8607 -0.1912  0.2471
  765TIP3    H223931   0.407   1.616   0.510  0.6639  0.4094  0.7289
  766TIP3   OH223932   6.368   5.121   1.447 -0.2239 -0.0957 -0.3245
  766TIP3    H123933   6.373   5.078   1.533 -2.5992  0.0767 -0.0251
  766TIP3    H223934   6.349   5.212   1.467 -0.0705  0.1000 -1.0397
  767TIP3   OH223935   0.652   2.745   2.046 -0.3357 -0.6592 -0.2527
  767TIP3    H123936   0.568   2.704   2.022  0.5564 -2.5228 -0.3382
  767TIP3    H223937   0.668   2.716   2.136  0.2334 -0.3347 -0.2456
  768TIP3   OH223938   5.395   5.655   0.250  0.5179 -0.1649 -0.6421
  768TIP3    H123939   5.426   5.587   0.310  1.7439  1.0300  0.1275
  768TIP3    H223940   5.395   5.614   0.164  0.6072 -1.3234 -0.1027
  769TIP3   OH223941   4.604   6.470   8.485  0.2075 -0.2012 -0.0971
  769TIP3    H123942   4.630   6.422   8.405  0.5960 -1.5868  0.8139
  769TIP3    H223943   4.687   6.488   8.529  0.0660  1.4408 -0.4646
  770TIP3   OH223944   3.889   1.836   2.029  0.0712 -0.8245  0.2735
  770TIP3    H123945   3.945   1.913   2.040  0.2198 -1.1744  2.2454
  770TIP3    H223946   3.888   1.821   1.934 -0.4931  1.9638 -0.2602
  771TIP3   OH223947   1.352   4.445   2.548  0.1884 -0.0673  0.1804
  771TIP3    H123948   1.406   4.513   2.590  0.9273 -0.3699 -0.2519
  771TIP3    H223949   1.356   4.371   2.608 -1.4205  0.5702  1.1320
  772TIP3   OH223950   6.638   3.377   0.176  0.2366  1.0646 -0.7797
  772TIP3    H123951   6.641   3.284   0.199  0.0255  1.1594 -0.3677
  772TIP3    H223952   6.622   3.377   0.081 -0.2572  0.6832 -0.7034
  773TIP3   OH223953   6.620   4.846   1.216  0.6715 -0.8238  0.0401
  773TIP3    H123954   6.581   4.927   1.181  2.0491 -0.5869 -1.0678
  773TIP3    H223955   6.674   4.875   1.289 -0.3437 -1.0122  0.8817
  774TIP3   OH223956   2.028   4.054   7.321 -0.5979  0.3261 -0.3954
  774TIP3    H123957   2.103   3.997   7.336 -0.1852  1.1560  0.7819
  774TIP3    H223958   1.989   4.022   7.239  0.0930 -1.1157 -0.1749
  775TIP3   OH223959   4.581   3.578   1.318 -0.5972  0.1900 -0.1301
  775TIP3    H123960   4.549   3.488   1.322  0.5857 -0.2018  2.2979
  775TIP3    H223961   4.675   3.569   1.298 -0.2969  0.8001  0.9297
  776TIP3   OH223962   4.114   0.545   7.685  0.3528 -0.3092  0.1484
  776TIP3    H123963   4.147   0.575   7.770  2.7593  3.3478 -1.7941
  776TIP3    H223964   4.193   0.530   7.632 -1.0612 -2.0997 -1.6168
  777TIP3   OH223965   0.022   3.540   1.914 -0.1604 -0.0182 -0.0175
  777TIP3    H123966  -0.030   3.460   1.914 -1.0269  0.5264  0.6228
  777TIP3    H223967   0.100   3.519   1.965 -0.2567 -0.5299 -0.0807
  778TIP3   OH223968   3.174   5.234   8.008 -0.8546 -0.2878 -0.5878
  778TIP3    H123969   3.187   5.196   8.095 -1.3723 -1.4131 -0.9765
  778TIP3    H223970   3.212   5.170   7.947 -0.4958  0.4829 -1.1963
  779TIP3   OH223971   0.521   2.265   8.423 -0.0480  0.0438  0.6908
  779TIP3    H123972   0.484   2.317   8.494  0.1283 -0.1193  0.9046
  779TIP3    H223973   0.609   2.241   8.454  1.4808  2.8762 -0.9722
  780TIP3   OH223974   3.201   2.718   7.361 -0.1061 -0.0808  0.1122
  780TIP3    H123975   3.134   2.668   7.314 -0.5819 -1.3386  2.0041
  780TIP3    H223976   3.153   2.763   7.430  0.3401  2.9507 -1.3956
  781TIP3   OH223977   3.264   4.441   3.007  0.6808 -0.3546 -0.6024
  781TIP3    H123978   3.279   4.519   3.061 -1.3287 -0.8283  0.7609
  781TIP3    H223979   3.346   4.392   3.011  1.3721  0.8088 -0.0009
  782TIP3   OH223980   0.714   5.521   9.024 -0.4079  0.3605 -0.2778
  782TIP3    H123981   0.794   5.519   8.971 -0.2617  1.8944 -0.1665
  782TIP3    H223982   0.678   5.608   9.009 -1.8731 -0.1855 -0.0284
  783TIP3   OH223983   6.143   6.700   1.067  0.0497  0.1174  0.5011
  783TIP3    H123984   6.166   6.793   1.063  2.2660 -0.3031  1.8759
  783TIP3    H223985   6.141   6.680   1.160  0.1002 -1.3474  0.1994
  784TIP3   OH223986   0.843   2.633   1.095  0.0332 -0.1803  0.1470
  784TIP3    H123987   0.861   2.550   1.051 -0.8829 -0.9296  1.1183
  784TIP3    H223988   0.790   2.682   1.033 -0.8585 -1.0331  0.2085
  785TIP3   OH223989   1.060   0.720   0.904  0.3108 -0.4626  0.2281
  785TIP3    H123990   1.091   0.658   0.838  0.3660  0.0734 -0.2519
  785TIP3    H223991   1.045   0.801   0.856  3.0686  0.8135  1.3018
  786TIP3   OH223992   3.213   5.393   0.594 -0.2668 -0.4002 -0.0537
  786TIP3    H123993   3.226   5.487   0.600 -0.2183 -0.5111  2.5128
  786TIP3    H223994   3.118   5.382   0.599 -0.4387 -0.4410 -2.3743
  787TIP3   OH223995   4.648   1.788   1.022 -0.3665  0.2774  0.0634
  787TIP3    H123996   4.568   1.839   1.030 -0.2267  0.3023  1.4685
  787TIP3    H223997   4.708   1.826   1.086  0.4901 -0.2652 -0.3949
  788TIP3   OH223998   2.233   5.504   2.497 -0.2464 -0.4199 -0.6142
  788TIP3    H123999   2.276   5.508   2.583 -1.8526  0.9201  0.1769
  788TIP3    H224000   2.211   5.594   2.477  0.1040 -0.7072 -2.4959
  789TIP3   OH224001   5.155   6.321   2.165 -0.0065  0.1294  0.0050
  789TIP3    H124002   5.102   6.248   2.196 -1.2643  1.6489  1.6815
  789TIP3    H224003   5.094   6.377   2.117  0.2115  1.5163  1.2683
  790TIP3   OH224004   5.938   1.893   1.370 -0.5716 -0.4209  0.2242
  790TIP3    H124005   5.854   1.848   1.380  0.1388 -1.6705  0.7924
  790TIP3    H224006   6.000   1.839   1.419  0.2450  1.4790  1.3995
  791TIP3   OH224007   0.404   0.948   8.934 -0.1094  0.0243 -0.3139
  791TIP3    H124008   0.476   1.010   8.944  0.6589 -0.9213  0.1381
  791TIP3    H224009   0.446   0.861   8.937 -0.9489 -0.5261 -2.3881
  792TIP3   OH224010   5.130   2.843   9.065 -0.2417 -0.1199 -0.0259
  792TIP3    H124011   5.091   2.902   9.130  0.6775  0.9761 -0.4370
  792TIP3    H224012   5.142   2.897   8.987 -2.9535 -1.8235 -1.8184
  793TIP3   OH224013   5.248   3.884   8.187 -0.5115  0.4362  0.2102
  793TIP3    H124014   5.166   3.856   8.229  0.1375 -2.3800 -0.2102
  793TIP3    H224015   5.303   3.805   8.188  0.5049  0.9332 -3.6051
  794TIP3   OH224016   4.610   1.293   0.830  0.0250 -0.2644 -0.3121
  794TIP3    H124017   4.558   1.369   0.856  0.8143 -0.2790  1.4594
  794TIP3    H224018   4.568   1.219   0.875 -0.0134 -0.6925 -1.0424
  795TIP3   OH224019   1.127   1.129   8.488  0.1988  0.2381 -0.1656
  795TIP3    H124020   1.059   1.070   8.519 -0.5978  0.3683 -1.5806
  795TIP3    H224021   1.204   1.072   8.476 -0.0069 -0.1412  0.2666
  796TIP3   OH224022   0.726   0.117   1.277 -0.1926  0.4016 -0.2006
  796TIP3    H124023   0.654   0.181   1.274 -0.8037 -0.1627  1.5654
  796TIP3    H224024   0.804   0.170   1.292 -0.7930  0.7367  2.0571
  797TIP3   OH224025   1.193   2.395   1.043 -0.0646 -0.3973  0.6527
  797TIP3    H124026   1.282   2.361   1.047 -0.0079 -0.2882  0.3238
  797TIP3    H224027   1.198   2.472   0.987 -0.2975 -0.1691  0.9399
  798TIP3   OH224028   3.579   5.842   0.309  0.5863 -0.2479  0.0314
  798TIP3    H124029   3.600   5.870   0.398 -2.0842  0.9453  0.3984
  798TIP3    H224030   3.625   5.905   0.253 -0.8264  1.5289  0.7387
  799TIP3   OH224031   5.121   5.242   8.675  0.2356  0.2005  0.1958
  799TIP3    H124032   5.136   5.337   8.676 -2.1661  0.6394  0.4611
  799TIP3    H224033   5.170   5.211   8.599 -1.2309  2.1286 -1.6380
  800TIP3   OH224034   0.891   3.656   2.143  0.1811  0.2339  0.3918
  800TIP3    H124035   0.966   3.620   2.097  2.1330  2.5240  1.5241
  800TIP3    H224036   0.830   3.683   2.074  1.1892 -0.0778 -0.6345
  801TIP3   OH224037   5.387   0.761   2.715  0.9098  0.8471 -0.4781
  801TIP3    H124038   5.329   0.790   2.786  1.6025  1.5324 -0.1831
  801TIP3    H224039   5.392   0.666   2.725 -1.6962  0.4930 -1.6800
  802TIP3   OH224040   3.208   5.905   1.732 -0.6725 -0.3253 -0.1624
  802TIP3    H124041   3.250   5.938   1.653 -1.9676  0.8854 -0.3799
  802TIP3    H224042   3.151   5.835   1.701 -1.3791  0.3233 -0.3646
  803TIP3   OH224043   2.545   3.138   1.033 -0.0789  0.6686 -0.5843
  803TIP3    H124044   2.460   3.098   1.053  1.4648 -2.7879 -0.2661
  803TIP3    H224045   2.532   3.179   0.947 -1.9755 -0.0678 -0.7125
  804TIP3   OH224046   0.315   3.524   1.848 -0.1651  0.0470 -0.1176
  804TIP3    H124047   0.319   3.545   1.754 -0.6154 -1.2128 -0.4374
  804TIP3    H224048   0.356   3.438   1.855  1.8024  0.9998  1.1725
  805TIP3   OH224049   1.397   2.453   0.821 -0.2097 -0.1696 -0.3754
  805TIP3    H124050   1.392   2.504   0.740  0.9133 -1.4219 -1.2622
  805TIP3    H224051   1.472   2.489   0.867 -0.2555 -0.1126 -0.3445
  806TIP3   OH224052   4.314   6.108   0.348 -0.4205  0.0731  0.2189
  806TIP3    H124053   4.316   6.012   0.340 -0.3519  0.0547  0.4451
  806TIP3    H224054   4.350   6.140   0.265  1.2447 -0.1282  0.8153
  807TIP3   OH224055   4.646   3.588   0.409 -0.4071 -0.1550  0.1548
  807TIP3    H124056   4.651   3.641   0.329 -1.2546  1.0235  0.8548
  807TIP3    H224057   4.696   3.638   0.474 -2.5928  0.6874  1.2725
  808TIP3   OH224058   1.783   1.082   0.761 -0.0903 -0.1912 -0.1781
  808TIP3    H124059   1.789   1.002   0.710  2.0240  0.2056 -0.6518
  808TIP3    H224060   1.856   1.136   0.730 -1.4861  1.9669  0.0586
  809TIP3   OH224061   5.534   1.634   0.801 -0.3667 -0.2357  0.2091
  809TIP3    H124062   5.558   1.547   0.834  1.5126 -0.2806 -1.1031
  809TIP3    H224063   5.456   1.658   0.851  0.0533 -1.9410  1.8057
  810TIP3   OH224064   4.184   0.340   1.118  0.1547  0.0773 -0.6439
  810TIP3    H124065   4.259   0.366   1.064  0.7475  0.0274  0.1371
  810TIP3    H224066   4.142   0.270   1.068  0.7647 -0.0544 -0.9866
  811TIP3   OH224067   0.756   5.500   0.169  0.4338 -0.3850  0.4372
  811TIP3    H124068   0.704   5.450   0.106 -1.7663  1.5966  0.5369
  811TIP3    H224069   0.813   5.555   0.115  0.7496 -0.8578  0.2789
  812TIP3   OH224070   4.086   1.454   0.555 -0.3181 -0.1809 -0.2465
  812TIP3    H124071   4.148   1.477   0.625 -0.4845 -3.1224  1.0045
  812TIP3    H224072   4.018   1.520   0.562  0.1736  0.2053  1.7498
  813TIP3   OH224073   5.480   4.616   0.205  0.4068  0.3918 -0.0891
  813TIP3    H124074   5.395   4.654   0.227  0.8181  1.3889 -0.1741
  813TIP3    H224075   5.542   4.659   0.263  1.0043  0.4876 -0.7772
  814TIP3   OH224076   5.162   4.547   7.919  0.6174 -0.6052 -0.0995
  814TIP3    H124077   5.202   4.530   7.834 -2.7713  1.0784 -2.2730
  814TIP3    H224078   5.074   4.509   7.912 -1.0093  2.5158  1.2217
  815TIP3   OH224079   0.912   6.182   8.075 -0.4685  0.4318 -0.3520
  815TIP3    H124080   0.914   6.211   7.984 -3.2049 -0.3219 -0.7143
  815TIP3    H224081   0.915   6.086   8.070  0.3382  0.3977  0.4381
  816TIP3   OH224082   4.492   4.052   2.120 -0.1233  0.1061 -0.5558
  816TIP3    H124083   4.560   4.019   2.062 -0.2369  0.1826 -0.7315
  816TIP3    H224084   4.441   4.112   2.066 -0.5758 -0.2572 -0.5368
  817TIP3   OH224085   0.613   3.210   2.277  0.5749  0.5263  0.6308
  817TIP3    H124086   0.556   3.287   2.280 -1.3469 -0.7761 -0.0992
  817TIP3    H224087   0.615   3.179   2.368  0.3240  0.7408  0.7118
  818TIP3   OH224088   6.301   1.346   2.896  0.6527  0.5463 -0.0270
  818TIP3    H124089   6.255   1.323   2.977 -1.1005  0.7331 -0.9207
  818TIP3    H224090   6.360   1.272   2.881 -2.8156 -2.2665 -1.3233
  819TIP3   OH224091   6.245   3.812   7.731  0.4385  0.0459 -0.2986
  819TIP3    H124092   6.311   3.841   7.668  0.1277 -0.0354 -0.6680
  819TIP3    H224093   6.162   3.842   7.693 -0.0092 -2.1530 -1.2004
  820TIP3   OH224094   4.545   5.588   0.862 -0.2522  0.5732 -0.1371
  820TIP3    H124095   4.605   5.635   0.804 -1.1278  1.9302  0.0190
  820TIP3    H224096   4.565   5.623   0.949 -1.3202  1.1366 -0.0980
  821TIP3   OH224097   5.949   2.523   0.933 -0.2739  0.2681  0.2258
  821TIP3    H124098   6.011   2.569   0.990 -2.0909  1.7672  1.1220
  821TIP3    H224099   5.981   2.433   0.930  2.4483  1.1781 -0.1619
  822TIP3   OH224100   6.220   5.719   1.104 -0.4493  0.0584 -0.5840
  822TIP3    H124101   6.131   5.698   1.077 -0.1916 -0.2845 -1.1772
  822TIP3    H224102   6.211   5.747   1.195 -0.9034 -2.0076  0.0548
  823TIP3   OH224103   2.404   5.650   1.481 -0.5497 -0.0589  0.5131
  823TIP3    H124104   2.350   5.598   1.422 -1.6175  0.7377  0.7417
  823TIP3    H224105   2.422   5.592   1.555 -0.2758 -0.6429 -0.0001
  824TIP3   OH224106   4.616   5.586   1.533 -0.1689  0.0876 -0.2860
  824TIP3    H124107   4.705   5.606   1.561 -0.2612 -0.1653  0.2070
  824TIP3    H224108   4.591   5.509   1.584 -0.8066  0.3834 -0.1274
  825TIP3   OH224109   2.307   2.106   8.752 -0.1059 -0.3100  0.2678
  825TIP3    H124110   2.251   2.183   8.755  2.8656  2.0088  1.3381
  825TIP3    H224111   2.294   2.063   8.836  1.4531  1.6853  1.6335
  826TIP3   OH224112   5.069   0.733   1.313  0.5264 -0.0785 -0.5690
  826TIP3    H124113   4.973   0.729   1.308  0.5069  0.8714 -1.2843
  826TIP3    H224114   5.098   0.677   1.241  0.4623  1.1982 -1.6218
  827TIP3   OH224115   0.664   1.844   8.492  0.0090  0.2820  0.1131
  827TIP3    H124116   0.572   1.826   8.511  0.2013 -0.2368  0.6097
  827TIP3    H224117   0.707   1.759   8.504  0.8245  0.8723  1.6592
  828TIP3   OH224118   3.091   3.675   2.911 -0.2983  0.0230  0.3667
  828TIP3    H124119   3.068   3.732   2.984  0.0227  0.0680  0.4329
  828TIP3    H224120   3.187   3.674   2.910 -0.2342 -2.3000  1.7815
  829TIP3   OH224121   5.530   5.141   1.789 -0.5466  0.4672 -0.4512
  829TIP3    H124122   5.597   5.151   1.721  0.4464 -1.3450  0.2094
  829TIP3    H224123   5.574   5.168   1.870 -1.8980  3.1933 -0.5196
  830TIP3   OH224124   1.756   6.011   7.982  0.1106 -0.3618 -0.2657
  830TIP3    H124125   1.828   5.957   7.950 -1.3129 -1.8602 -1.1206
  830TIP3    H224126   1.772   6.098   7.946  1.7805 -0.5098  0.0715
  831TIP3   OH224127   6.570   1.892   1.216  0.0944 -0.1778  0.1789
  831TIP3    H124128   6.621   1.888   1.135 -0.0989 -0.7726  0.0811
  831TIP3    H224129   6.614   1.959   1.268  1.8227 -1.5746  0.6526
  832TIP3   OH224130   2.122   2.704   1.259 -0.2817  0.0639  0.6868
  832TIP3    H124131   2.036   2.737   1.234 -0.3258 -1.2335 -1.0978
  832TIP3    H224132   2.126   2.715   1.354 -3.0043 -1.1635  1.0320
  833TIP3   OH224133   4.635   1.240   1.535  0.4327  0.4536  0.7370
  833TIP3    H124134   4.714   1.238   1.587  0.7117  1.0164  0.3444
  833TIP3    H224135   4.564   1.233   1.598  0.7797  0.5628  1.1404
  834TIP3   OH224136   1.353   3.036   7.408  0.0689 -0.7686  0.4248
  834TIP3    H124137   1.334   2.949   7.372 -0.5973 -0.9467  1.1691
  834TIP3    H224138   1.416   3.074   7.347 -0.2172 -1.4740 -0.3340
  835TIP3   OH224139   2.156   3.420   0.189 -0.3240 -0.2472 -0.2504
  835TIP3    H124140   2.208   3.357   0.139  1.5024 -0.3875  1.7133
  835TIP3    H224141   2.096   3.366   0.241  0.9566 -0.4084  1.1198
  836TIP3   OH224142   6.482   4.552   7.268 -0.4638 -0.5157 -0.0469
  836TIP3    H124143   6.468   4.462   7.299  0.0390 -0.6944 -0.3359
  836TIP3    H224144   6.577   4.560   7.259 -0.6049 -0.7209 -2.2887
  837TIP3   OH224145   4.292   2.551   0.354  0.1118  0.2313 -0.2018
  837TIP3    H124146   4.348   2.614   0.309  0.0102 -0.5972 -1.5612
  837TIP3    H224147   4.342   2.525   0.432  0.6284  1.1439 -0.2239
  838TIP3   OH224148   4.737   6.354   1.752  0.4786  0.2595  0.5137
  838TIP3    H124149   4.775   6.296   1.818 -0.7217  0.5964  1.5436
  838TIP3    H224150   4.782   6.331   1.670  1.7740 -0.3904  1.3739
  839TIP3   OH224151   3.610   2.115   0.215  0.5811  0.3514 -0.4717
  839TIP3    H124152   3.661   2.172   0.158 -0.8659  1.8122 -0.3609
  839TIP3    H224153   3.520   2.121   0.182  0.1611 -0.8109  0.3815
  840TIP3   OH224154   1.419   1.337   2.473  0.0550 -0.4671  0.4489
  840TIP3    H124155   1.431   1.356   2.380 -2.0593 -0.8587  0.0571
  840TIP3    H224156   1.418   1.423   2.515  1.7834 -0.3174  0.2543
  841TIP3   OH224157   3.894   1.121   0.736 -0.0036 -0.1792 -0.3785
  841TIP3    H124158   3.974   1.134   0.786 -0.3855  0.8288 -0.0113
  841TIP3    H224159   3.895   1.028   0.713  0.5300 -0.5117  0.9074
  842TIP3   OH224160   3.702   2.734   1.953 -0.2289 -0.3108  0.3561
  842TIP3    H124161   3.651   2.657   1.980  0.0747 -0.1778  1.3760
  842TIP3    H224162   3.792   2.702   1.946  0.3394  0.3882  3.1443
  843TIP3   OH224163   5.135   1.234   0.126  0.7268  0.1683 -0.3647
  843TIP3    H124164   5.086   1.163   0.167  1.3864 -0.3665 -0.4971
  843TIP3    H224165   5.161   1.199   0.041  0.4127  0.8374 -0.7430
  844TIP3   OH224166   1.468   1.078   7.745  0.2846 -0.4939  0.1648
  844TIP3    H124167   1.393   1.123   7.784  1.1033  1.1735 -0.0553
  844TIP3    H224168   1.468   0.991   7.784 -0.0491  0.4550  2.4273
  845TIP3   OH224169   5.826   1.013   2.216 -0.1494  0.4358  0.3454
  845TIP3    H124170   5.789   1.029   2.129 -0.5278  0.0432  0.4332
  845TIP3    H224171   5.878   0.933   2.206  0.7555  1.0245  0.2048
  846TIP3   OH224172   0.216   3.478   0.754 -0.1731 -0.4762 -0.4433
  846TIP3    H124173   0.124   3.465   0.780 -0.4902 -0.2111 -1.4151
  846TIP3    H224174   0.230   3.572   0.763  1.2094 -0.8577  3.5432
  847TIP3   OH224175   4.952   5.580   8.605 -0.1622  0.4462 -0.3019
  847TIP3    H124176   5.043   5.553   8.604 -0.5524 -1.0394  0.8134
  847TIP3    H224177   4.950   5.662   8.555  1.4760 -0.3736 -1.7833
  848TIP3   OH224178   6.409   1.994   2.205 -0.1266  0.5282  0.1285
  848TIP3    H124179   6.382   1.921   2.261 -2.0729  1.8375  1.0113
  848TIP3    H224180   6.380   1.968   2.117 -0.4797  0.0850  0.3742
  849TIP3   OH224181   3.657   1.594   1.021  0.6829 -0.2325 -0.0840
  849TIP3    H124182   3.588   1.560   0.963  0.5023  0.6050 -0.3794
  849TIP3    H224183   3.679   1.520   1.078 -1.6486 -0.0706  1.1436
  850TIP3   OH224184   1.202   2.561   8.767 -0.1792  0.3019  0.0094
  850TIP3    H124185   1.197   2.467   8.748  2.1860 -0.3559  2.0474
  850TIP3    H224186   1.136   2.575   8.835 -0.7045  0.1983 -0.4693
  851TIP3   OH224187   1.645   4.293   2.504  0.2702 -0.0991 -0.4565
  851TIP3    H124188   1.626   4.300   2.597 -0.1925  3.3548 -0.6820
  851TIP3    H224189   1.738   4.270   2.499 -0.3177 -3.2713  0.7193
  852TIP3   OH224190   0.078   6.165   8.466  0.0957 -0.1713  0.1614
  852TIP3    H124191   0.132   6.179   8.388 -0.6369 -2.2184 -0.7797
  852TIP3    H224192   0.141   6.137   8.533  0.6188  0.7550  0.0742
  853TIP3   OH224193   1.427   0.276   9.004 -0.7064  0.3118  0.3157
  853TIP3    H124194   1.456   0.185   9.002  0.2982  0.6047  0.9601
  853TIP3    H224195   1.466   0.316   8.926 -3.4130 -0.4173 -1.5676
  854TIP3   OH224196   1.725   4.893   8.223 -0.0640  0.2316  0.0297
  854TIP3    H124197   1.650   4.859   8.271 -0.3414 -1.0763 -1.2621
  854TIP3    H224198   1.726   4.987   8.243 -0.0865 -0.2473  2.6181
  855TIP3   OH224199   3.915   6.659   7.548 -0.3314  0.2002  0.7285
  855TIP3    H124200   3.864   6.721   7.496  2.2542  1.7170 -0.1974
  855TIP3    H224201   3.863   6.579   7.548 -2.2723  1.3837 -0.8363
  856TIP3   OH224202   1.871   3.375   2.190  0.9939 -0.1029 -0.5991
  856TIP3    H124203   1.860   3.448   2.252 -0.3989 -0.3220 -0.5582
  856TIP3    H224204   1.925   3.312   2.237 -0.6367 -0.5865  0.7159
  857TIP3   OH224205   5.826   2.090   7.992 -0.1920 -0.3588  0.0747
  857TIP3    H124206   5.874   2.172   8.003 -1.0421  0.2779 -0.8358
  857TIP3    H224207   5.878   2.026   8.040  0.9238  0.5447  0.1181
  858TIP3   OH224208   6.037   4.205   0.979  0.5625  0.7196  0.7987
  858TIP3    H124209   6.108   4.196   1.043  0.2604 -0.4433  0.9957
  858TIP3    H224210   5.972   4.141   1.006  0.6446 -0.1622 -0.9476
  859TIP3   OH224211   3.747   1.622   1.482  0.5179 -0.2157  0.3880
  859TIP3    H124212   3.672   1.679   1.492  1.1104  0.9572 -1.4372
  859TIP3    H224213   3.725   1.544   1.534 -2.2876 -0.2616 -0.6857
  860TIP3   OH224214   5.592   2.887   0.788  0.6694  0.1906 -0.2946
  860TIP3    H124215   5.615   2.920   0.875  1.4063 -0.1139 -0.3674
  860TIP3    H224216   5.565   2.796   0.803 -2.3082  1.0362  0.0453
  861TIP3   OH224217   5.539   5.181   2.700  0.0153  0.3108 -0.2346
  861TIP3    H124218   5.479   5.211   2.769 -0.2493 -2.7546  1.0471
  861TIP3    H224219   5.621   5.226   2.719  0.1474 -0.8787  2.6036
  862TIP3   OH224220   3.982   2.452   2.694 -0.3407 -0.2838 -0.0068
  862TIP3    H124221   4.058   2.456   2.637 -1.3903  0.2917 -1.4242
  862TIP3    H224222   3.994   2.526   2.754  0.1315 -0.0981 -0.3248
  863TIP3   OH224223   6.509   2.190   2.406  0.2470 -0.2156  0.3619
  863TIP3    H124224   6.554   2.197   2.322  0.2183  1.8110  0.4647
  863TIP3    H224225   6.434   2.133   2.388  0.9059 -0.8027 -0.6594
  864TIP3   OH224226   5.046   2.205   7.917 -0.5605  0.2830 -0.6927
  864TIP3    H124227   4.977   2.264   7.886 -0.4583 -0.3394 -2.1937
  864TIP3    H224228   5.125   2.235   7.873 -0.5812 -1.1722 -1.8244
  865TIP3   OH224229   5.736   2.925   2.251 -0.5265 -0.4120  0.4049
  865TIP3    H124230   5.716   2.908   2.343 -1.0628 -1.0673  0.1743
  865TIP3    H224231   5.786   3.006   2.252 -2.7851  1.0413  1.0480
  866TIP3   OH224232   1.751   2.586   8.404  0.1310  0.5224  0.4970
  866TIP3    H124233   1.827   2.550   8.450  1.5550  0.3931 -1.8045
  866TIP3    H224234   1.751   2.679   8.426  0.9902  0.5315  0.4850
  867TIP3   OH224235   6.121   1.910   2.342 -0.8196 -0.2667  0.4475
  867TIP3    H124236   6.158   1.859   2.414  1.1835  0.4793  0.0103
  867TIP3    H224237   6.129   2.001   2.371  2.8619  0.3102 -1.8002
  868TIP3   OH224238   3.584   3.684   9.196  0.0222  0.0424 -0.0144
  868TIP3    H124239   3.510   3.624   9.194  1.2465 -1.5495  0.6926
  868TIP3    H224240   3.594   3.706   9.289  2.4464 -2.4676  0.4584
  869TIP3   OH224241   4.062   3.319   0.623 -0.2355 -0.4415  0.1356
  869TIP3    H124242   4.005   3.369   0.682  0.6837 -0.0139  0.6941
  869TIP3    H224243   4.086   3.381   0.555  0.2286 -0.3713  0.3622
  870TIP3   OH224244   0.942   4.892   1.495 -0.4936 -0.0669  0.0804
  870TIP3    H124245   0.989   4.976   1.495  0.1920 -0.4392  0.7862
  870TIP3    H224246   1.011   4.826   1.505 -0.9796 -0.7581 -0.9351
  871TIP3   OH224247   3.966   2.204   8.255 -0.1274 -0.4131  0.0123
  871TIP3    H124248   3.992   2.185   8.165  1.6596 -0.4201  0.4851
  871TIP3    H224249   3.933   2.121   8.289 -0.6173 -0.4582 -0.5696
  872TIP3   OH224250   0.612   3.832   1.103 -0.2818  0.7704 -0.4175
  872TIP3    H124251   0.625   3.779   1.025  2.0712  1.7902 -0.7840
  872TIP3    H224252   0.608   3.769   1.175  1.2232  0.0111 -0.9742
  873TIP3   OH224253   0.557   6.150   1.965 -0.0351  0.1315  0.1178
  873TIP3    H124254   0.472   6.124   1.928 -0.3312  0.5158  0.5127
  873TIP3    H224255   0.559   6.111   2.052  1.5425 -2.5173 -0.9994
  874TIP3   OH224256   3.089   0.111   8.054 -0.2900  0.2878  0.0003
  874TIP3    H124257   3.000   0.078   8.069 -1.1677  2.7175  0.6785
  874TIP3    H224258   3.144   0.056   8.110 -1.6468 -0.0172  1.1088
  875TIP3   OH224259   3.544   4.355   7.855  0.1542  0.8356  0.4925
  875TIP3    H124260   3.598   4.354   7.776 -0.1502  1.4780  0.2639
  875TIP3    H224261   3.457   4.383   7.824 -0.3501 -0.3243  0.8307
  876TIP3   OH224262   5.871   1.277   8.472 -0.8413  1.0897 -0.6848
  876TIP3    H124263   5.941   1.212   8.468 -1.6849  0.1332 -0.1056
  876TIP3    H224264   5.911   1.353   8.516 -0.3464  0.3033  0.2532
  877TIP3   OH224265   3.441   1.681   7.462 -0.5343 -0.0990  0.1231
  877TIP3    H124266   3.397   1.756   7.504 -1.5489 -0.7782  0.3011
  877TIP3    H224267   3.425   1.693   7.369  0.0400  0.3528  0.0740
  878TIP3   OH224268   0.010   5.772   2.197  0.3132 -0.2419 -0.7057
  878TIP3    H124269  -0.080   5.796   2.220  1.2937  2.2887  0.8289
  878TIP3    H224270   0.004   5.744   2.105 -1.7480  1.8098 -1.2929
  879TIP3   OH224271   4.512   2.145   2.147 -0.1705  0.8881  0.1272
  879TIP3    H124272   4.509   2.227   2.197 -0.2809 -0.1982  1.9927
  879TIP3    H224273   4.519   2.077   2.213 -0.2656 -0.6505 -1.3755
  880TIP3   OH224274   0.280   5.902   1.019  0.3611  0.1992  0.3780
  880TIP3    H124275   0.304   5.993   1.037  0.3536  0.4650 -0.8525
  880TIP3    H224276   0.276   5.897   0.923  2.3956 -1.6070  0.2938
  881TIP3   OH224277   0.161   0.561   2.245  0.1048  0.2250  0.1548
  881TIP3    H124278   0.223   0.627   2.276  0.2828  0.7026 -1.1489
  881TIP3    H224279   0.198   0.531   2.162 -0.0383 -1.4529  0.6602
  882TIP3   OH224280   1.468   3.061   9.147 -0.2618  0.0642 -0.1403
  882TIP3    H124281   1.551   3.035   9.187 -0.2050  0.8229  0.2486
  882TIP3    H224282   1.439   2.983   9.099  0.3050 -0.4454  0.3275
  883TIP3   OH224283   0.143   6.290   8.230 -0.2029 -0.4619  0.1872
  883TIP3    H124284   0.219   6.305   8.174  0.2152 -3.3165 -0.1818
  883TIP3    H224285   0.075   6.345   8.192  0.2504 -1.7469 -2.8383
  884TIP3   OH224286   0.275   6.135   1.339  0.6971  0.3275  0.1224
  884TIP3    H124287   0.185   6.135   1.306 -0.4566 -1.1723  2.8488
  884TIP3    H224288   0.288   6.224   1.371  0.6041  0.8548 -1.2610
  885TIP3   OH224289   2.973   4.013   8.878  0.1167  0.3368  0.4582
  885TIP3    H124290   2.883   3.991   8.854  0.9136 -1.3876 -1.1971
  885TIP3    H224291   3.012   3.929   8.903  1.7551  0.7517 -0.5850
  886TIP3   OH224292   1.435   1.316   7.519  0.0567 -0.0889 -0.0408
  886TIP3    H124293   1.474   1.381   7.460 -1.6026  0.4388 -0.6266
  886TIP3    H224294   1.391   1.369   7.586 -0.6420 -0.6224 -0.0756
  887TIP3   OH224295   2.991   3.635   1.044 -0.0753 -0.0917  0.0045
  887TIP3    H124296   3.035   3.560   1.005  1.1034  0.8656 -0.5958
  887TIP3    H224297   3.048   3.709   1.024 -0.6628  0.8116  1.4754
  888TIP3   OH224298   5.075   4.623   8.315  0.2073 -0.2199  0.0260
  888TIP3    H124299   5.112   4.677   8.385  0.5086  0.0151 -0.3135
  888TIP3    H224300   5.092   4.672   8.235 -1.6977  0.3853 -0.0785
  889TIP3   OH224301   1.217   6.152   3.488  0.5943  0.0042 -0.1500
  889TIP3    H124302   1.185   6.231   3.443  1.1665  0.2290 -0.1647
  889TIP3    H224303   1.242   6.093   3.417  0.3556 -0.1199 -0.1349
  890TIP3   OH224304   2.419   4.599   8.880  0.5634  0.2426  0.6443
  890TIP3    H124305   2.380   4.684   8.860  0.2029 -0.2327 -0.8018
  890TIP3    H224306   2.345   4.545   8.908  0.7199  0.2675  1.1154
  891TIP3   OH224307   1.062   4.770   0.386  0.0741  0.1435  0.2901
  891TIP3    H124308   1.053   4.864   0.368 -0.0794  0.1704  0.5052
  891TIP3    H224309   1.148   4.763   0.428  0.9356 -0.0633 -1.4132
  892TIP3   OH224310   5.437   1.879   1.314  0.3486  0.3905  0.4428
  892TIP3    H124311   5.462   1.969   1.291 -1.7007  1.1279  0.8756
  892TIP3    H224312   5.371   1.889   1.383  0.4465 -1.4786  0.8678
  893TIP3   OH224313   1.630   2.287   0.750 -0.1331  0.1209 -0.0283
  893TIP3    H124314   1.541   2.309   0.723 -1.0956 -2.1191  1.0921
  893TIP3    H224315   1.660   2.363   0.799 -0.4787  1.8887 -2.3579
  894TIP3   OH224316   3.063   1.790   0.060 -0.4912  0.1192  0.6156
  894TIP3    H124317   3.001   1.741   0.114  0.6665 -0.5744  1.3467
  894TIP3    H224318   3.047   1.759  -0.029 -0.6257 -0.6548  0.9081
  895TIP3   OH224319   0.955   4.495   8.525 -0.3231  0.0658 -0.0001
  895TIP3    H124320   0.903   4.527   8.598 -0.8128 -0.5015 -0.0960
  895TIP3    H224321   0.992   4.574   8.485 -1.4149  0.5059 -0.1648
  896TIP3   OH224322   2.935   2.369   3.130  0.8718 -0.0417  0.2914
  896TIP3    H124323   2.954   2.379   3.223 -0.9756 -0.4932  0.7593
  896TIP3    H224324   3.016   2.396   3.085  1.8003  0.1299  2.0094
  897TIP3   OH224325   1.358   1.465   7.740 -0.0089  0.0014  0.2070
  897TIP3    H124326   1.304   1.528   7.789  1.9360  0.7243  1.5510
  897TIP3    H224327   1.333   1.380   7.776 -2.6633 -0.1046 -1.6239
  898TIP3   OH224328   6.213   3.049   1.436 -0.3683 -0.2807  0.6363
  898TIP3    H124329   6.273   3.034   1.509  0.9012  0.0713 -0.2845
  898TIP3    H224330   6.269   3.085   1.367 -1.5123 -0.6742 -0.5334
  899TIP3   OH224331   0.653   5.480   8.398  0.4280 -0.1648 -0.2912
  899TIP3    H124332   0.729   5.530   8.365  2.0038 -0.2682  2.8200
  899TIP3    H224333   0.611   5.447   8.319  2.9986  0.8068 -2.2392
  900TIP3   OH224334   6.570   2.796   0.840  0.0396  0.1020  0.4292
  900TIP3    H124335   6.574   2.720   0.781 -0.6463 -1.0246  1.7818
  900TIP3    H224336   6.479   2.798   0.870  0.2274  1.0350  0.9548
  901TIP3   OH224337   0.909   5.738   7.149  0.3614  0.7624  0.3332
  901TIP3    H124338   0.999   5.712   7.130 -0.2793 -0.8799 -0.6923
  901TIP3    H224339   0.890   5.699   7.234 -0.0297 -0.7743 -0.4171
  902TIP3   OH224340   4.489   3.288   1.443 -0.4091  0.6745 -0.1089
  902TIP3    H124341   4.480   3.343   1.520  0.6056 -1.2975  1.5143
  902TIP3    H224342   4.404   3.246   1.432  0.2894 -1.6462  2.1589
  903TIP3   OH224343   6.643   5.133   8.955  0.8211 -0.1843 -0.2538
  903TIP3    H124344   6.628   5.225   8.930 -1.9023 -0.5642 -0.3512
  903TIP3    H224345   6.587   5.120   9.031  0.7729 -1.9107 -0.5554
  904TIP3   OH224346   3.793   1.524   2.020 -0.0940 -0.1537  0.2413
  904TIP3    H124347   3.766   1.452   2.076  2.3600 -0.5342  1.0456
  904TIP3    H224348   3.831   1.588   2.080  0.8686  0.2780 -0.7951
  905TIP3   OH224349   4.206   1.512   7.695  0.0384  0.1711  0.2017
  905TIP3    H124350   4.301   1.508   7.682 -0.0021 -0.7354  0.1462
  905TIP3    H224351   4.192   1.474   7.782 -0.2287  0.8406  0.4593
  906TIP3   OH224352   3.376   2.027   2.735 -0.6667 -0.1616  0.2879
  906TIP3    H124353   3.409   2.053   2.822  0.0690 -0.3391  0.0727
  906TIP3    H224354   3.285   2.004   2.750 -0.7048  0.3575  0.9108
  907TIP3   OH224355   0.755   3.478   1.111 -0.3239  0.1172 -0.0198
  907TIP3    H124356   0.694   3.404   1.103  1.6068 -1.4570 -1.0216
  907TIP3    H224357   0.763   3.512   1.022  0.0213  0.5318  0.1654
  908TIP3   OH224358   2.576   4.601   3.159 -0.3021  0.3739 -0.1389
  908TIP3    H124359   2.659   4.574   3.198 -0.1976 -0.5420 -0.9606
  908TIP3    H224360   2.528   4.643   3.231  1.3252  2.0070  0.0444
  909TIP3   OH224361   3.231   3.020   9.145  0.1307  0.2034 -0.3003
  909TIP3    H124362   3.297   2.954   9.129  0.3868 -0.1854  2.1041
  909TIP3    H224363   3.149   2.971   9.156  0.1325  0.3558  0.4454
  910TIP3   OH224364   3.543   6.585   1.484 -0.1483 -0.2212 -0.3858
  910TIP3    H124365   3.582   6.607   1.568  0.7674 -0.1633 -0.8130
  910TIP3    H224366   3.618   6.569   1.426 -0.7498 -1.6919 -0.8205
  911TIP3   OH224367   6.134   0.546   8.544 -0.5030 -0.1763  0.5418
  911TIP3    H124368   6.180   0.463   8.536  1.6861  1.1156 -2.7062
  911TIP3    H224369   6.201   0.609   8.570 -1.8022  0.8570  1.5668
  912TIP3   OH224370   6.501   0.286   0.263 -0.0215  0.0752  0.2604
  912TIP3    H124371   6.474   0.261   0.175  2.6012  0.2613 -0.6650
  912TIP3    H224372   6.485   0.207   0.316 -0.8094 -0.3269 -0.5568
  913TIP3   OH224373   2.563   1.877   0.008  0.7252  0.1821 -0.4178
  913TIP3    H124374   2.505   1.878   0.084  1.6212  0.2224  0.2839
  913TIP3    H224375   2.504   1.880  -0.067 -0.2255 -0.8109  0.2475
  914TIP3   OH224376   1.646   6.026   7.073 -0.4381  0.7298  0.2379
  914TIP3    H124377   1.588   6.018   7.149 -0.0558 -0.6456  0.3984
  914TIP3    H224378   1.616   5.959   7.012 -0.6002  1.6792 -0.7527
  915TIP3   OH224379   1.748   5.884   8.875 -0.2610  0.1008 -0.0990
  915TIP3    H124380   1.658   5.858   8.856 -0.1813 -1.0422  0.9502
  915TIP3    H224381   1.743   5.979   8.884 -1.4046  0.0462  0.0941
  916TIP3   OH224382   5.766   2.512   9.098 -0.3309  0.5811 -0.1536
  916TIP3    H124383   5.720   2.437   9.060  0.8734 -0.4281  0.3149
  916TIP3    H224384   5.820   2.545   9.027  0.7072 -0.3122  0.1901
  917TIP3   OH224385   5.173   3.654   2.520 -0.1993  1.0690  0.2064
  917TIP3    H124386   5.207   3.580   2.469  0.0747  2.3712 -1.6048
  917TIP3    H224387   5.078   3.648   2.510 -0.1713  1.0355 -0.0382
  918TIP3   OH224388   4.669   3.097   2.251  0.4532 -0.5523  0.6377
  918TIP3    H124389   4.648   3.031   2.316 -2.0039  0.4725  1.0148
  918TIP3    H224390   4.619   3.071   2.173 -0.8416  0.9647  0.9047
  919TIP3   OH224391   1.674   2.909   1.168 -0.6065 -0.0457  0.2645
  919TIP3    H124392   1.592   2.906   1.118 -0.6644  0.8404  0.2830
  919TIP3    H224393   1.665   2.840   1.233 -0.5167 -1.2473 -0.9468
  920TIP3   OH224394   5.096   5.402   8.343  0.1787  0.0266  0.8704
  920TIP3    H124395   5.147   5.481   8.360  1.5176 -0.5249 -0.3823
  920TIP3    H224396   5.069   5.409   8.252  1.7222 -1.6787  0.2278
  921TIP3   OH224397   2.902   5.433   8.179 -0.1051 -0.0122  0.2218
  921TIP3    H124398   2.983   5.483   8.189 -1.3666  1.9714  1.3809
  921TIP3    H224399   2.870   5.458   8.093 -0.1981  0.3781  0.3648
  922TIP3   OH224400   2.417   5.741   7.692  0.3060 -0.5409 -0.3397
  922TIP3    H124401   2.413   5.834   7.716 -0.4339 -0.4578 -0.7747
  922TIP3    H224402   2.509   5.728   7.667  0.5610 -0.0812  0.2953
  923TIP3   OH224403   3.252   3.150   0.907 -0.4809 -0.5813 -0.0634
  923TIP3    H124404   3.281   3.124   0.994  0.0538 -0.5208 -0.2216
  923TIP3    H224405   3.159   3.129   0.906 -0.2653 -1.6045  0.1474
  924TIP3   OH224406   2.814   4.945   2.941  0.0175  0.4452 -0.3241
  924TIP3    H124407   2.859   5.007   2.998  0.4923 -1.3691  1.4156
  924TIP3    H224408   2.732   4.925   2.987 -0.0995 -0.2391 -0.8151
  925TIP3   OH224409   1.025   0.874   9.154 -0.3430  0.1144  0.3255
  925TIP3    H124410   1.090   0.940   9.178  0.8570 -1.1197  0.6006
  925TIP3    H224411   0.948   0.895   9.206  0.7957 -0.0438  2.1444
  926TIP3   OH224412   1.232   5.363   2.186 -0.1425  0.0522  0.0505
  926TIP3    H124413   1.251   5.271   2.168 -0.5620 -0.1889  0.7916
  926TIP3    H224414   1.316   5.399   2.216 -0.6113 -0.8925  2.8630
  927TIP3   OH224415   3.694   0.345   2.553 -0.3127 -0.1930  0.2398
  927TIP3    H124416   3.784   0.334   2.584  0.0378  1.9091  0.1250
  927TIP3    H224417   3.703   0.380   2.464 -1.2170  0.4493  0.3826
  928TIP3   OH224418   6.020   4.929   1.812 -0.1397 -0.3803  0.2668
  928TIP3    H124419   6.064   4.998   1.763  0.1357  0.7181  1.9756
  928TIP3    H224420   6.056   4.847   1.777  1.0179  0.4013 -0.4111
  929TIP3   OH224421   3.892   4.910   8.042  0.7576 -0.0573  0.3096
  929TIP3    H124422   3.983   4.899   8.016  0.4274  0.9397 -1.4719
  929TIP3    H224423   3.895   4.947   8.130  2.1347  1.5625 -0.3730
  930TIP3   OH224424   4.716   3.628   1.672  0.4416  0.7158 -0.3161
  930TIP3    H124425   4.792   3.595   1.624  0.3168  2.3066 -1.7072
  930TIP3    H224426   4.750   3.703   1.721 -0.1226  1.1586 -0.5904
  931TIP3   OH224427   6.689   3.382   1.540 -0.5028  0.9053  0.1317
  931TIP3    H124428   6.744   3.445   1.587 -0.2218  0.2549  0.6897
  931TIP3    H224429   6.634   3.343   1.608  0.1618 -0.3038 -0.0048
  932TIP3   OH224430   0.341   2.333   2.023 -0.3618 -0.4277 -0.1832
  932TIP3    H124431   0.380   2.320   2.109 -2.0496 -0.0832  0.6699
  932TIP3    H224432   0.391   2.405   1.985  0.7880 -0.9760  0.2346
  933TIP3   OH224433   1.141   2.637   1.472 -1.0376 -0.4469 -0.4489
  933TIP3    H124434   1.124   2.709   1.410  0.9846  0.3573 -0.1336
  933TIP3    H224435   1.169   2.564   1.417 -1.8155 -0.5884 -0.6688
  934TIP3   OH224436   0.273   4.953   0.929  0.0780 -0.2397  0.1733
  934TIP3    H124437   0.268   4.860   0.951 -1.0448 -0.2034  0.1290
  934TIP3    H224438   0.183   4.978   0.910  0.3707  0.8571  0.1531
  935TIP3   OH224439   4.211   5.534   7.928 -0.6152 -0.0901  0.3882
  935TIP3    H124440   4.220   5.578   8.013 -0.3928 -0.5856  0.6230
  935TIP3    H224441   4.130   5.570   7.891 -0.7246  0.1131  0.8139
  936TIP3   OH224442   2.788   0.923   1.353  0.1229 -0.5258 -0.1351
  936TIP3    H124443   2.697   0.952   1.361  0.7398  1.5521 -0.0124
  936TIP3    H224444   2.824   0.934   1.441  0.4515 -1.6348 -0.1093
  937TIP3   OH224445   4.769   6.138   2.394 -0.6201 -0.0244  0.1678
  937TIP3    H124446   4.765   6.174   2.482 -0.6298  0.6595 -0.1027
  937TIP3    H224447   4.745   6.046   2.404 -0.3040 -0.0309  0.9209
  938TIP3   OH224448   4.956   6.333   9.151  0.6146  0.0961 -0.2563
  938TIP3    H124449   4.901   6.411   9.158  1.9939  1.2757 -1.7807
  938TIP3    H224450   4.972   6.322   9.057  1.1312 -1.5544 -0.0237
  939TIP3   OH224451   0.464   1.723   2.142 -1.1627  0.0063  0.0456
  939TIP3    H124452   0.501   1.687   2.222 -0.5467  0.7948  0.1252
  939TIP3    H224453   0.523   1.695   2.073 -0.2168  1.5004  0.2080
  940TIP3   OH224454   2.494   3.764   1.009  0.1334  0.6930 -1.0557
  940TIP3    H124455   2.549   3.685   1.008 -0.5571  0.2036 -1.1208
  940TIP3    H224456   2.545   3.829   0.960  0.5682  0.1899 -1.2862
  941TIP3   OH224457   5.202   3.338   0.912  0.0010 -0.0211 -0.8844
  941TIP3    H124458   5.267   3.279   0.873  0.7623  0.0115  0.2912
  941TIP3    H224459   5.247   3.377   0.987 -1.6159 -0.5722  0.4383
  942TIP3   OH224460   4.441   1.187   1.354  0.3947  0.1777 -0.0823
  942TIP3    H124461   4.360   1.227   1.387  1.0148 -0.2275  2.0809
  942TIP3    H224462   4.506   1.205   1.423  1.2583 -2.5726 -0.0811
  943TIP3   OH224463   4.227   6.233   8.291 -0.6252 -0.5970 -0.6454
  943TIP3    H124464   4.154   6.243   8.230 -2.2572 -0.8576  1.1596
  943TIP3    H224465   4.234   6.318   8.335 -0.1723 -0.7262 -0.4566
  944TIP3   OH224466   4.032   5.994   0.231  0.3624  0.2576 -0.0917
  944TIP3    H124467   4.105   6.045   0.194  2.1298 -1.5194  0.7615
  944TIP3    H224468   4.071   5.909   0.253 -1.4733 -0.0393  2.4158
  945TIP3   OH224469   4.223   0.830   0.726  0.0094  0.2157  0.1021
  945TIP3    H124470   4.266   0.915   0.736  0.9305 -0.2414  0.1057
  945TIP3    H224471   4.143   0.838   0.777 -2.0404  2.4856 -3.0686
  946TIP3   OH224472   1.579   3.640   8.058  0.0626  0.3853  0.2723
  946TIP3    H124473   1.517   3.663   7.989 -0.6572  1.5913  1.2912
  946TIP3    H224474   1.662   3.627   8.012 -0.1106  2.3758 -0.7094
  947TIP3   OH224475   2.971   2.386   8.278 -0.4981  0.3169  0.1076
  947TIP3    H124476   2.916   2.331   8.223  0.1907 -1.6309  1.2874
  947TIP3    H224477   3.059   2.376   8.243 -0.5535  1.9014 -0.5776
  948TIP3   OH224478   2.544   1.485   7.634 -0.1318 -0.2392 -0.0129
  948TIP3    H124479   2.449   1.476   7.629 -0.3299  0.9943  1.0855
  948TIP3    H224480   2.572   1.411   7.687 -0.5088 -0.4380 -0.0836
  949TIP3   OH224481   3.051   3.272   8.274  0.5542  0.5417 -0.2865
  949TIP3    H124482   3.052   3.367   8.276  0.4611  0.5342  0.9656
  949TIP3    H224483   2.960   3.248   8.292  0.7093  0.2189  0.1068
  950TIP3   OH224484   1.788   2.000   8.500  0.1999  0.4377 -0.3993
  950TIP3    H124485   1.837   2.015   8.419  0.3248 -0.9267 -0.6021
  950TIP3    H224486   1.698   2.026   8.480 -0.0557 -1.1137 -1.4253
  951TIP3   OH224487   6.630   1.654   8.854  0.3855 -0.5638 -0.4746
  951TIP3    H124488   6.689   1.578   8.848  1.5911  0.2027  0.9741
  951TIP3    H224489   6.683   1.727   8.821 -0.3803 -0.1562 -0.8192
  952TIP3   OH224490   5.068   0.500   1.169  0.5356  0.3884 -0.2417
  952TIP3    H124491   5.020   0.418   1.178 -0.1028  0.6238 -1.3268
  952TIP3    H224492   5.060   0.523   1.076 -0.3025  2.2634  0.2454
  953TIP3   OH224493   0.443   2.800   8.078  0.3706 -0.0950  0.1847
  953TIP3    H124494   0.409   2.830   7.994  2.2788  1.5729 -0.0662
  953TIP3    H224495   0.480   2.714   8.059 -0.4019 -0.3282 -0.3439
  954TIP3   OH224496   5.426   5.005   8.532 -0.1946 -0.3936  0.1419
  954TIP3    H124497   5.471   4.942   8.477  0.8495  0.2740  0.2039
  954TIP3    H224498   5.427   5.087   8.482  1.9317  0.5696  1.6091
  955TIP3   OH224499   3.986   5.736   9.161 -0.0819  0.3598 -0.7214
  955TIP3    H124500   4.060   5.796   9.172 -0.1549  0.1701  0.9858
  955TIP3    H224501   3.925   5.758   9.231 -0.8558 -0.6420 -1.0427
  956TIP3   OH224502   2.315   4.898   8.679 -0.1478  0.1451 -0.2727
  956TIP3    H124503   2.407   4.923   8.674  0.5329 -1.9321  0.5834
  956TIP3    H224504   2.296   4.897   8.772 -1.2225  1.0359 -0.4598
  957TIP3   OH224505   6.414   0.341   8.059 -0.1201 -0.4782  0.0407
  957TIP3    H124506   6.376   0.255   8.041 -0.4169 -0.5099  0.8064
  957TIP3    H224507   6.341   0.394   8.089 -0.1548  0.3713 -1.4327
  958TIP3   OH224508   6.162   4.915   8.595 -0.1189 -0.3220 -0.0738
  958TIP3    H124509   6.178   4.840   8.652  2.0758  1.2006  1.4811
  958TIP3    H224510   6.224   4.981   8.625  0.0161  1.1473 -3.2148
  959TIP3   OH224511   1.976   3.320   7.726 -0.1221  0.6765 -0.0258
  959TIP3    H124512   2.034   3.246   7.706  0.3963  0.8726  0.7327
  959TIP3    H224513   1.970   3.369   7.644  1.1887  0.9261  0.0157
  960TIP3   OH224514   3.062   1.225   1.421  0.2346 -0.3816  0.3646
  960TIP3    H124515   3.091   1.302   1.372  1.5638  0.0598  1.7509
  960TIP3    H224516   3.097   1.151   1.372 -1.4742 -0.1997 -1.2626
  961TIP3   OH224517   1.003   1.913   0.768  0.0034  0.1164 -0.3411
  961TIP3    H124518   0.989   1.990   0.713  1.1670  0.9608  0.4877
  961TIP3    H224519   1.064   1.943   0.836  0.3177 -1.4871  0.1227
  962TIP3   OH224520   3.628   6.419   2.463 -0.1829  0.2934  0.1531
  962TIP3    H124521   3.643   6.383   2.550  0.7706  1.4853  0.5178
  962TIP3    H224522   3.567   6.358   2.421  0.4252 -1.0545  1.1497
  963TIP3   OH224523   0.993   3.477   1.411 -0.0245  0.5517  0.6174
  963TIP3    H124524   0.931   3.526   1.357 -0.5728 -0.0451  0.6928
  963TIP3    H224525   1.011   3.534   1.486 -0.0580  0.9544  0.3204
  964TIP3   OH224526   2.059   3.281   0.933  0.6858 -0.0336  0.0317
  964TIP3    H124527   1.972   3.280   0.972  0.5163 -0.7214 -0.3500
  964TIP3    H224528   2.118   3.302   1.005  0.3618 -1.1680  0.6473
  965TIP3   OH224529   1.816   6.270   8.360  0.1928 -0.0640  0.3194
  965TIP3    H124530   1.733   6.268   8.408  0.9473 -2.8450  1.7010
  965TIP3    H224531   1.829   6.179   8.332  1.9526  0.6525 -1.4065
  966TIP3   OH224532   2.636   1.212   9.213 -0.2313  0.2255  0.2990
  966TIP3    H124533   2.697   1.199   9.141  0.1390 -0.2888  0.7042
  966TIP3    H224534   2.589   1.293   9.190 -0.5225 -0.2336 -0.8005
  967TIP3   OH224535   0.316   3.339   8.969 -0.1405 -0.1552  0.0504
  967TIP3    H124536   0.410   3.330   8.953 -0.4364  0.3643 -2.2900
  967TIP3    H224537   0.279   3.255   8.944 -0.6110  0.6696 -2.3163
  968TIP3   OH224538   1.982   0.696   9.038  0.3341  0.7725 -0.3900
  968TIP3    H124539   2.019   0.733   9.119  0.7585 -1.3649  0.4686
  968TIP3    H224540   2.057   0.692   8.978  0.2206  1.5484 -0.5881
  969TIP3   OH224541   4.844   4.508   2.390 -0.1460 -0.0532 -0.3128
  969TIP3    H124542   4.901   4.434   2.413 -1.2586 -0.6930  0.4269
  969TIP3    H224543   4.870   4.530   2.300 -0.2272 -1.7772 -0.8057
  970TIP3   OH224544   1.615   0.352   2.241 -0.1339  0.2490  0.1323
  970TIP3    H124545   1.525   0.385   2.236 -0.5674 -0.7142  1.1531
  970TIP3    H224546   1.668   0.421   2.201 -1.0616  1.9411  1.6571
  971TIP3   OH224547   3.759   3.754   1.290  0.3135  0.6466 -0.0734
  971TIP3    H124548   3.834   3.742   1.232  2.2734  2.3050  1.9439
  971TIP3    H224549   3.769   3.685   1.356 -0.0698  0.7703  0.1199
  972TIP3   OH224550   5.055   4.052   0.465 -0.0854 -0.2146  0.1434
  972TIP3    H124551   5.011   4.134   0.441  0.5269 -0.5711 -2.5591
  972TIP3    H224552   5.026   4.034   0.554 -1.6609  1.9936  0.1553
  973TIP3   OH224553   3.369   5.246   7.413  0.4388 -0.0374  0.2583
  973TIP3    H124554   3.327   5.196   7.483  1.3169  0.1232  0.9070
  973TIP3    H224555   3.429   5.306   7.457  2.8372 -1.5827 -0.6618
  974TIP3   OH224556   6.098   2.738   9.076  0.0703  0.4810 -0.1839
  974TIP3    H124557   6.004   2.725   9.087  0.0664  0.0776 -0.6621
  974TIP3    H224558   6.106   2.800   9.004  0.1307  2.0571  1.1260
  975TIP3   OH224559   1.783   1.904   1.645  0.0948  0.0485  0.0193
  975TIP3    H124560   1.807   1.842   1.576 -0.1711  0.5949 -0.5758
  975TIP3    H224561   1.781   1.852   1.725  4.4904  0.1315  0.4032
  976TIP3   OH224562   5.156   4.724   7.404  0.0959  0.4330  0.0078
  976TIP3    H124563   5.105   4.665   7.349  0.1139 -0.0380  0.4782
  976TIP3    H224564   5.247   4.700   7.387  0.0808 -0.7827  1.3317
  977TIP3   OH224565   0.542   3.007   2.447  0.2354 -0.5275 -0.1654
  977TIP3    H124566   0.519   2.916   2.466  1.2697 -0.5551  1.0611
  977TIP3    H224567   0.509   3.057   2.522  0.5813 -0.0356 -0.3341
  978TIP3   OH224568   4.867   1.094   7.927 -0.1352  0.1137 -0.3624
  978TIP3    H124569   4.847   1.113   7.835  0.1334  1.4017 -0.1847
  978TIP3    H224570   4.949   1.142   7.943 -0.3893  0.2219  0.6466
  979TIP3   OH224571   4.421   0.271   1.654  0.1698  0.1200 -0.2750
  979TIP3    H124572   4.398   0.294   1.564 -1.2637 -0.5763 -0.1181
  979TIP3    H224573   4.370   0.193   1.673  0.9548 -0.1272  0.9329
  980TIP3   OH224574   3.525   1.351   8.465  0.6468  0.7322 -0.9781
  980TIP3    H124575   3.450   1.405   8.442  1.3030  2.1366  0.0243
  980TIP3    H224576   3.551   1.381   8.552  1.8494 -0.3011 -0.9402
  981TIP3   OH224577   5.405   3.617   8.131 -0.1245 -0.0099 -0.9168
  981TIP3    H124578   5.408   3.548   8.064 -0.2293 -0.0805 -0.8496
  981TIP3    H224579   5.471   3.681   8.103  0.2358 -0.3179 -0.7840
  982TIP3   OH224580   2.134   2.978   2.651  0.4880  0.6499 -0.4541
  982TIP3    H124581   2.110   3.016   2.736  1.0075 -0.7300  0.3406
  982TIP3    H224582   2.065   2.914   2.633  0.5769  0.6807 -0.8957
  983TIP3   OH224583   0.280   2.051   8.550 -0.0788  0.1601  0.0945
  983TIP3    H124584   0.240   2.015   8.629  0.6013  0.0223  0.3754
  983TIP3    H224585   0.308   2.139   8.575  0.8924 -0.1884  0.2554
  984TIP3   OH224586   4.021   0.712   1.253  0.4237 -0.1996 -0.7162
  984TIP3    H124587   3.973   0.794   1.248  2.3863  1.2067  1.4697
  984TIP3    H224588   4.021   0.678   1.163 -2.8473  0.6788 -1.1556
  985TIP3   OH224589   2.228   0.448   1.424  0.4808 -0.5746  0.0604
  985TIP3    H124590   2.161   0.380   1.428 -0.3061  0.1356 -0.7326
  985TIP3    H224591   2.192   0.521   1.474  0.4070  0.0046 -0.8082
  986TIP3   OH224592   3.510   1.072   2.008 -0.3376  0.0228 -0.4618
  986TIP3    H124593   3.519   0.981   2.037 -0.4124 -0.2629 -1.3137
  986TIP3    H224594   3.469   1.116   2.083 -1.7834 -0.9865 -0.6015
  987TIP3   OH224595   6.128   1.173   1.668  0.0141 -0.2373 -0.0737
  987TIP3    H124596   6.191   1.144   1.602  1.5779 -1.0823  1.7148
  987TIP3    H224597   6.157   1.132   1.749 -2.0481  0.4896  1.1054
  988TIP3   OH224598   0.409   0.066   7.760  0.0253  0.0595  0.1342
  988TIP3    H124599   0.473   0.110   7.815  1.3170 -1.7041  0.1204
  988TIP3    H224600   0.452  -0.015   7.733 -2.0657 -1.0056 -0.2078
  989TIP3   OH224601   6.463   2.645   2.638  0.3413 -0.5032 -0.4187
  989TIP3    H124602   6.501   2.572   2.589  0.8072 -1.0353  0.7010
  989TIP3    H224603   6.520   2.655   2.714 -0.1910  0.5074 -0.1312
  990TIP3   OH224604   3.564   5.099   7.682 -0.4302  0.1644 -0.3038
  990TIP3    H124605   3.478   5.108   7.723  0.2918  0.3732  1.2506
  990TIP3    H224606   3.579   5.184   7.640 -0.6166  0.4445  0.1821
  991TIP3   OH224607   3.584   1.125   9.082 -0.4105  0.2592 -0.2094
  991TIP3    H124608   3.636   1.151   9.159 -1.2314  2.2889 -0.2593
  991TIP3    H224609   3.640   1.065   9.034  1.0192  0.7025  0.8324
  992TIP3   OH224610   2.048   1.220   0.800 -0.2949  0.7951 -0.1076
  992TIP3    H124611   2.124   1.252   0.751 -0.3307  0.2562 -0.5271
  992TIP3    H224612   2.062   1.125   0.805 -2.1199  0.3267 -2.3179
  993TIP3   OH224613   1.597   6.321   8.542  0.0244 -0.3718  0.7399
  993TIP3    H124614   1.510   6.311   8.581 -0.1227 -1.6055  0.1478
  993TIP3    H224615   1.617   6.414   8.550 -1.6794  0.0641  0.2133
  994TIP3   OH224616   2.410   1.621   8.700  0.1704 -0.6396 -0.3566
  994TIP3    H124617   2.338   1.616   8.763  0.6730 -1.7145  0.1457
  994TIP3    H224618   2.442   1.711   8.709 -1.6238  0.1436 -1.2026
  995TIP3   OH224619   3.086   4.149   8.151 -0.5521 -0.5217  0.0351
  995TIP3    H124620   3.165   4.134   8.099  0.7516  0.8236  1.5229
  995TIP3    H224621   3.025   4.191   8.090  0.5599  0.1223 -0.6768
  996TIP3   OH224622   6.001   0.263   8.806  0.3604  0.3628  0.8813
  996TIP3    H124623   6.049   0.196   8.855  0.3448  0.0402  0.4657
  996TIP3    H224624   5.992   0.226   8.718  1.3879  1.4091  0.3125
  997TIP3   OH224625   5.054   4.764   8.065  0.3125  0.2849  0.7611
  997TIP3    H124626   5.072   4.685   8.013 -0.3099 -0.5479  1.7628
  997TIP3    H224627   5.131   4.819   8.054  0.5199 -0.2189 -0.4102
  998TIP3   OH224628   4.241   1.826   0.631  0.3079  0.1982  0.2033
  998TIP3    H124629   4.191   1.849   0.552  0.2381  1.4009  0.5772
  998TIP3    H224630   4.300   1.900   0.645  0.0031  0.2235  1.5304
  999TIP3   OH224631   2.644   6.646   1.808  0.4627 -0.2608 -0.4420
  999TIP3    H124632   2.633   6.681   1.896  0.4743  0.2466 -0.6394
  999TIP3    H224633   2.679   6.719   1.757  3.3843 -1.3560 -0.1806
 1000TIP3   OH224634   1.637   3.504   0.783  0.0888 -0.0276 -0.1766
 1000TIP3    H124635   1.595   3.518   0.698  0.6503  0.7260 -0.3436
 1000TIP3    H224636   1.690   3.425   0.771 -2.4100 -1.9543  0.4954
 1001TIP3   OH224637   4.275   6.079   1.112  0.1061 -0.0911  0.3020
 1001TIP3    H124638   4.183   6.054   1.109  0.2567 -0.5431 -0.9647
 1001TIP3    H224639   4.274   6.175   1.105 -0.2232 -0.1860 -1.2850
 1002TIP3   OH224640   4.383   0.296   1.384  0.3023  0.0371  0.2584
 1002TIP3    H124641   4.453   0.263   1.328 -0.0880  1.8647 -1.4274
 1002TIP3    H224642   4.303   0.280   1.334 -0.5812 -2.0705  2.1804
 1003TIP3   OH224643   4.762   2.100   7.917  0.2851  0.6238 -0.2146
 1003TIP3    H124644   4.750   2.193   7.932  0.7813  0.7155 -0.3562
 1003TIP3    H224645   4.856   2.090   7.901  0.0262  0.3359 -1.7907
 1004TIP3   OH224646   5.799   1.897   9.215  0.2738 -0.7331 -0.6236
 1004TIP3    H124647   5.813   1.803   9.203 -0.2557 -1.1209  1.5263
 1004TIP3    H224648   5.704   1.908   9.219  0.3178 -0.0481 -1.0546
 1005TIP3   OH224649   4.226   5.232   8.538  0.2262 -0.0286  0.3034
 1005TIP3    H124650   4.298   5.180   8.501 -0.1866 -0.6653  0.3750
 1005TIP3    H224651   4.147   5.190   8.505 -0.1115  0.7371  0.1392
 1006TIP3   OH224652   6.536   6.334   7.478 -0.2049  0.0258  0.3919
 1006TIP3    H124653   6.478   6.400   7.440 -1.6347 -2.4129 -2.0400
 1006TIP3    H224654   6.597   6.312   7.407  0.6339 -0.8195  1.3415
 1007TIP3   OH224655   1.205   0.151   7.814 -0.6489  0.8838  0.0556
 1007TIP3    H124656   1.135   0.215   7.824  0.4903  2.1944  0.0113
 1007TIP3    H224657   1.261   0.187   7.745  0.4257  0.2356  0.5561
 1008TIP3   OH224658   5.066   2.617   3.352 -0.0757  0.4614  0.3685
 1008TIP3    H124659   5.021   2.645   3.431  0.2664 -1.5929  1.3308
 1008TIP3    H224660   4.996   2.588   3.293 -0.3366  2.0799 -0.1941
 1009TIP3   OH224661   0.752   4.969   7.965  0.5009 -0.4128 -0.0784
 1009TIP3    H124662   0.761   4.876   7.986  0.1958 -1.1402 -2.7105
 1009TIP3    H224663   0.820   4.985   7.899  0.8227  1.3645  0.6385
 1010TIP3   OH224664   0.119   4.847   7.120 -0.8159 -0.3681 -0.2192
 1010TIP3    H124665   0.191   4.907   7.099 -0.9070 -0.5420 -1.0511
 1010TIP3    H224666   0.051   4.868   7.056  0.2170 -3.2589 -2.5055
 1011TIP3   OH224667   2.706   5.016   1.265 -0.2920 -0.8171  0.4651
 1011TIP3    H124668   2.725   5.090   1.207  0.2892 -0.2772  1.3228
 1011TIP3    H224669   2.626   5.041   1.310 -0.3002 -0.8774  0.4842
 1012TIP3   OH224670   0.794   1.134   2.829 -0.5051  0.3296  0.2367
 1012TIP3    H124671   0.753   1.061   2.874 -3.6911  2.8747  1.8677
 1012TIP3    H224672   0.881   1.141   2.869 -0.2657 -2.1761  0.3092
 1013TIP3   OH224673   0.917   1.751   0.975  0.3109  0.5009  0.4131
 1013TIP3    H124674   0.832   1.711   0.956  0.5785 -0.2073  0.6438
 1013TIP3    H224675   0.930   1.815   0.906 -0.6772  1.0331  0.7026
 1014TIP3   OH224676   1.111   2.700   0.992 -0.1728  0.4582 -0.1685
 1014TIP3    H124677   1.179   2.671   1.053 -0.5971 -0.3241 -0.0541
 1014TIP3    H224678   1.032   2.704   1.045 -0.5514 -0.2457 -0.6592
 1015TIP3   OH224679   2.121   0.795   0.045 -0.0100  0.1651  0.3759
 1015TIP3    H124680   2.184   0.852   0.000 -1.4161 -0.5312 -2.7858
 1015TIP3    H224681   2.175   0.735   0.095  1.6242  2.1431  1.1406
 1016TIP3   OH224682   4.788   1.012   1.173 -0.1619  0.2813  0.6306
 1016TIP3    H124683   4.744   1.094   1.149 -0.0420 -0.0030 -0.6285
 1016TIP3    H224684   4.746   0.985   1.255  0.4882  2.1254  1.6387
 1017TIP3   OH224685   6.580   6.666   7.531 -0.3007  0.5564 -0.3727
 1017TIP3    H124686   6.594   6.615   7.611 -2.0980  3.0366  1.6892
 1017TIP3    H224687   6.518   6.613   7.480 -1.2092  0.0818  1.1486
 1018TIP3   OH224688   3.190   1.023   1.291  0.1659 -0.2353  0.1179
 1018TIP3    H124689   3.184   0.935   1.254  1.7475  0.2244 -1.3556
 1018TIP3    H224690   3.255   1.068   1.237 -1.4639  2.2616  0.0544
 1019TIP3   OH224691   3.297   0.116   1.064  0.1851 -0.3556 -0.0403
 1019TIP3    H124692   3.232   0.110   0.994 -0.1415  2.2950 -0.0829
 1019TIP3    H224693   3.274   0.044   1.124 -0.6991 -1.5063 -1.6855
 1020TIP3   OH224694   2.807   0.878   1.071 -0.2245 -0.1975  0.4821
 1020TIP3    H124695   2.777   0.898   1.160 -0.9005 -0.5572  0.3404
 1020TIP3    H224696   2.866   0.804   1.082 -0.6094 -0.4896  0.5876
 1021TIP3   OH224697   6.656   1.606   0.966  0.4881  0.1027  0.9638
 1021TIP3    H124698   6.683   1.523   0.927  2.8585  1.8079 -1.3748
 1021TIP3    H224699   6.707   1.612   1.047  2.9193  0.6693 -0.5194
 1022TIP3   OH224700   1.120   0.231   2.331 -0.0133  0.0577 -0.1845
 1022TIP3    H124701   1.042   0.219   2.276 -0.0743  0.3715 -0.1662
 1022TIP3    H224702   1.094   0.297   2.395 -0.7267 -1.9079  1.6902
 1023TIP3   OH224703   5.590   0.732   2.129 -0.2705  0.2500  0.1648
 1023TIP3    H124704   5.543   0.791   2.189  0.4625  1.6306 -0.5572
 1023TIP3    H224705   5.577   0.771   2.043  2.5827  1.0223 -0.0144
 1024TIP3   OH224706   0.376   4.963   8.741 -0.0390 -0.1519  0.1552
 1024TIP3    H124707   0.452   5.019   8.724  0.6049 -0.7424  0.9872
 1024TIP3    H224708   0.303   5.024   8.752  0.6860  0.5473  1.2335
 1025TIP3   OH224709   2.159   5.337   2.012  0.2021 -0.6626 -0.1772
 1025TIP3    H124710   2.184   5.427   2.033  0.2000 -0.7128  0.0397
 1025TIP3    H224711   2.138   5.298   2.096 -0.2868 -0.7213 -0.3256
 1026TIP3   OH224712   5.580   1.745   8.076 -0.1901  0.0477  0.3855
 1026TIP3    H124713   5.666   1.706   8.088  0.8365  2.6748  2.4668
 1026TIP3    H224714   5.584   1.787   7.990 -0.1877 -1.5636 -0.4383
 1027TIP3   OH224715   3.819   2.526   7.116  0.4626  0.4353 -0.3281
 1027TIP3    H124716   3.735   2.510   7.073  0.5864  1.2484 -0.8958
 1027TIP3    H224717   3.869   2.446   7.101  0.2820  0.4730 -1.1703
 1028TIP3   OH224718   2.111   3.760   2.284 -0.2374  0.2173  0.5577
 1028TIP3    H124719   2.120   3.708   2.364  3.5859  2.5681  1.8969
 1028TIP3    H224720   2.093   3.695   2.216  1.1720 -2.5112  2.5785
 1029TIP3   OH224721   4.311   5.886   2.322 -0.2948  0.3094 -0.2179
 1029TIP3    H124722   4.352   5.848   2.400 -3.1970  0.6312  1.6079
 1029TIP3    H224723   4.333   5.980   2.327 -1.3518  0.5292  0.9009
 1030TIP3   OH224724   5.922   4.553   7.870 -0.5304 -0.5658 -0.4139
 1030TIP3    H124725   5.872   4.474   7.888 -0.6659 -0.8082 -1.7386
 1030TIP3    H224726   5.987   4.526   7.805  0.4158  0.0690  0.2338
 1031TIP3   OH224727   3.667   5.537   8.313  0.2519 -0.7381 -0.0345
 1031TIP3    H124728   3.732   5.515   8.246  0.3279  0.6215 -0.4406
 1031TIP3    H224729   3.718   5.541   8.394  1.3668  3.0496 -0.7331
 1032TIP3   OH224730   1.858   2.592   0.700  0.3447  0.5668 -0.3703
 1032TIP3    H124731   1.928   2.624   0.757  0.2308  2.8980 -1.3992
 1032TIP3    H224732   1.902   2.563   0.621  0.3109 -0.1544 -0.1268
 1033TIP3   OH224733   3.922   4.589   8.870 -0.4474 -0.5548 -0.4205
 1033TIP3    H124734   3.897   4.530   8.800 -0.0975  0.2571 -1.2517
 1033TIP3    H224735   3.873   4.558   8.947 -1.0383 -1.2912 -1.0837
 1034TIP3   OH224736   5.297   3.666   8.554  0.1614  0.6864 -0.3427
 1034TIP3    H124737   5.303   3.743   8.611 -0.3207  0.6646 -0.2637
 1034TIP3    H224738   5.205   3.642   8.555  0.2181  0.4467 -0.8218
 1035TIP3   OH224739   0.592   3.098   2.023 -0.0355  0.1851  0.2051
 1035TIP3    H124740   0.662   3.039   1.995  0.0427  0.0139  0.7589
 1035TIP3    H224741   0.612   3.118   2.114 -0.7528  0.0640  0.3994
 1036TIP3   OH224742   5.859   0.679   0.190  0.6117 -0.0986  0.1643
 1036TIP3    H124743   5.913   0.721   0.257  1.0120 -0.4704  0.0782
 1036TIP3    H224744   5.885   0.720   0.108  1.3226 -0.8172  0.0214
 1037TIP3   OH224745   6.048   5.779   2.103 -0.3251  0.9914 -0.0388
 1037TIP3    H124746   6.067   5.736   2.020  0.4903  0.8948  0.1940
 1037TIP3    H224747   6.040   5.708   2.166  1.1560  1.1630  0.3719
 1038TIP3   OH224748   3.354   1.837   0.730 -0.3515 -0.2151  0.0211
 1038TIP3    H124749   3.351   1.799   0.818  1.0627  1.8062  1.0212
 1038TIP3    H224750   3.314   1.924   0.740  3.9000  2.0264 -0.0898
 1039TIP3   OH224751   1.722   2.298   8.402 -0.0344 -0.0020  0.0929
 1039TIP3    H124752   1.727   2.393   8.401  0.2779  0.0060  1.1786
 1039TIP3    H224753   1.789   2.270   8.339 -1.6847  0.5038 -1.9825
 1040TIP3   OH224754   4.382   6.433   2.741  0.3818  0.5983 -0.3753
 1040TIP3    H124755   4.410   6.346   2.714  0.3923  1.1269 -2.2445
 1040TIP3    H224756   4.457   6.468   2.790 -0.5344 -1.2761  2.6021
 1041TIP3   OH224757   3.212   1.506   0.077  0.3311 -0.6242  0.2150
 1041TIP3    H124758   3.150   1.561   0.124 -0.4395  0.2561 -1.7375
 1041TIP3    H224759   3.292   1.559   0.070 -0.1502 -0.0181 -0.9754
 1042TIP3   OH224760   4.956   1.864   3.623 -0.3937  0.1547  0.6041
 1042TIP3    H124761   4.944   1.773   3.651 -0.6602 -0.0141 -0.0399
 1042TIP3    H224762   5.048   1.882   3.642 -0.6706  0.2130  2.0239
 1043TIP3   OH224763   6.162   3.859   0.495  0.2666 -0.0955  0.6552
 1043TIP3    H124764   6.163   3.770   0.459  0.7177 -0.6044  1.8664
 1043TIP3    H224765   6.160   3.916   0.418  0.7109 -1.1421 -0.1599
 1044TIP3   OH224766   4.844   6.108   0.049 -0.4864  0.3908  0.3830
 1044TIP3    H124767   4.863   6.197   0.020 -0.6063 -0.0933 -1.2597
 1044TIP3    H224768   4.829   6.117   0.143 -2.5888  2.4609 -0.0433
 1045TIP3   OH224769   6.458   0.045   0.404 -0.0196 -0.1004  0.0239
 1045TIP3    H124770   6.379  -0.007   0.395 -0.4256  0.4962  0.0570
 1045TIP3    H224771   6.521  -0.014   0.445 -0.7977 -0.2547  1.0505
 1046TIP3   OH224772   5.518   1.887   0.215  0.4387 -0.1360 -0.2781
 1046TIP3    H124773   5.431   1.852   0.236  0.5649 -0.8852 -0.9642
 1046TIP3    H224774   5.519   1.892   0.119  1.0788  0.0600 -0.2625
 1047TIP3   OH224775   6.436   0.548   7.803 -0.0788 -0.0969  0.3492
 1047TIP3    H124776   6.358   0.601   7.792 -0.2147 -0.4591 -0.5132
 1047TIP3    H224777   6.491   0.598   7.863  0.5810  1.9008 -1.8132
 1048TIP3   OH224778   2.204   1.136   1.502  0.0291 -0.0839 -0.3756
 1048TIP3    H124779   2.239   1.222   1.480 -1.3033  0.3937 -0.7418
 1048TIP3    H224780   2.138   1.119   1.435  0.0775 -1.2741 -0.1424
 1049TIP3   OH224781   2.929   6.480   1.604  0.5604  0.5009 -0.0359
 1049TIP3    H124782   2.987   6.450   1.675  0.5683 -0.0087 -0.2524
 1049TIP3    H224783   2.899   6.399   1.562 -1.7811  0.6354  1.2128
 1050TIP3   OH224784   4.130   4.755   0.690 -0.3697  0.0515  0.2484
 1050TIP3    H124785   4.151   4.803   0.610  2.7802  1.5905  1.8090
 1050TIP3    H224786   4.110   4.822   0.755  0.5692 -0.8930  1.5808
 1051TIP3   OH224787   6.491   5.574   7.793 -0.2977 -0.2937 -0.2176
 1051TIP3    H124788   6.502   5.632   7.717  1.1508 -0.8505 -0.4757
 1051TIP3    H224789   6.577   5.533   7.804 -0.4563 -0.1820  1.7842
 1052TIP3   OH224790   4.800   1.774   7.177 -0.4521  0.7235 -0.0402
 1052TIP3    H124791   4.768   1.684   7.173 -0.2117  0.6679 -0.6839
 1052TIP3    H224792   4.779   1.812   7.092  3.0649  0.0555 -1.3735
 1053TIP3   OH224793   1.657   4.278   8.880 -0.4977  0.0404 -0.0600
 1053TIP3    H124794   1.750   4.304   8.880 -0.9554  1.8572  0.9736
 1053TIP3    H224795   1.631   4.284   8.788  0.4927 -0.8678 -0.4170
 1054TIP3   OH224796   1.053   3.589   0.274 -0.1714 -0.8278  0.1149
 1054TIP3    H124797   0.985   3.651   0.301  0.5616 -0.1646  0.4454
 1054TIP3    H224798   1.005   3.507   0.259 -1.3050  0.0256 -1.2601
 1055TIP3   OH224799   6.586   5.659   1.846 -0.5797 -0.1588  0.0650
 1055TIP3    H124800   6.622   5.572   1.828 -1.4959 -0.2527 -1.4681
 1055TIP3    H224801   6.507   5.643   1.897  1.1587  0.0274  3.0620
 1056TIP3   OH224802   0.221   0.604   3.237 -0.2879 -0.1196 -0.7002
 1056TIP3    H124803   0.308   0.566   3.231  0.5090  1.7545 -2.2909
 1056TIP3    H224804   0.215   0.637   3.327  0.5388 -0.4864 -0.5041
 1057TIP3   OH224805   3.368   5.984   1.488  0.4229  0.2008  0.1200
 1057TIP3    H124806   3.337   6.070   1.462 -0.9748  0.2285  1.7583
 1057TIP3    H224807   3.429   5.958   1.418 -0.3450  1.8083 -1.1899
 1058TIP3   OH224808   2.915   3.341   1.954 -0.3029 -0.0976  0.7251
 1058TIP3    H124809   2.827   3.376   1.950 -0.1913  0.4855  2.5487
 1058TIP3    H224810   2.947   3.364   2.041  2.2028  1.0412 -0.3751
 1059TIP3   OH224811   2.502   1.743   2.029 -0.0841  0.2135  0.2855
 1059TIP3    H124812   2.559   1.805   1.983  1.7537 -1.8968 -0.4673
 1059TIP3    H224813   2.542   1.734   2.115  0.4892 -0.8901 -0.0714
 1060TIP3   OH224814   0.561   0.910   2.195 -0.1291 -0.4003 -0.2588
 1060TIP3    H124815   0.643   0.950   2.165 -0.0268 -0.7863 -0.4931
 1060TIP3    H224816   0.511   0.984   2.232  0.6427 -0.2882  0.6148
 1061TIP3   OH224817   1.872   4.587   7.513 -0.6137 -0.5461  0.1414
 1061TIP3    H124818   1.956   4.598   7.469 -0.3312 -1.9590  0.2968
 1061TIP3    H224819   1.851   4.675   7.545  0.1993  0.0734 -0.9464
 1062TIP3   OH224820   1.244   3.207   8.346  0.5448 -0.4821  0.2770
 1062TIP3    H124821   1.243   3.158   8.428  0.9291 -1.5488 -0.3420
 1062TIP3    H224822   1.319   3.265   8.354 -0.5227  0.8178  1.4504
 1063TIP3   OH224823   5.946   2.823   0.852 -0.1586 -0.2528  0.1956
 1063TIP3    H124824   5.890   2.780   0.917  1.1069  0.2210  1.6679
 1063TIP3    H224825   5.968   2.907   0.891  0.6298  0.0557 -0.8628
 1064TIP3   OH224826   6.411   6.703   8.962 -0.2061 -0.3684  0.0727
 1064TIP3    H124827   6.399   6.609   8.976 -1.2997 -0.0316  1.6294
 1064TIP3    H224828   6.344   6.745   9.016 -0.2162  1.3099 -1.1486
 1065TIP3   OH224829   1.923   5.556   1.470 -0.0301 -0.1314 -0.2331
 1065TIP3    H124830   1.893   5.465   1.469 -0.4102 -0.0088 -1.0589
 1065TIP3    H224831   2.002   5.556   1.415 -0.4169  0.1563 -0.7968
 1066TIP3   OH224832   3.403   2.718   3.561  0.2996  0.1744 -0.2330
 1066TIP3    H124833   3.467   2.722   3.632  1.5643  0.8761 -1.3582
 1066TIP3    H224834   3.442   2.771   3.491 -0.0736 -1.8684 -2.0988
 1067TIP3   OH224835   4.630   5.077   1.604 -0.4224  0.7445  0.3448
 1067TIP3    H124836   4.633   5.169   1.578  0.4391  0.3783 -0.8999
 1067TIP3    H224837   4.718   5.058   1.638 -0.7464  0.5033  1.0806
 1068TIP3   OH224838   1.837   1.878   9.131  0.2247 -0.1838  0.1492
 1068TIP3    H124839   1.901   1.831   9.185  1.3699  1.1111 -0.0044
 1068TIP3    H224840   1.766   1.900   9.192  1.1130  0.5251  0.9670
 1069TIP3   OH224841   1.350   6.312   0.976  0.5804  0.3109  0.7413
 1069TIP3    H124842   1.418   6.332   0.911  0.1353  2.3342  0.8417
 1069TIP3    H224843   1.294   6.247   0.934  1.6615 -0.1872  0.0441
 1070TIP3   OH224844   3.468   5.423   0.463 -0.0166 -0.0067 -0.3528
 1070TIP3    H124845   3.439   5.508   0.429  0.1437  0.2638  0.1798
 1070TIP3    H224846   3.395   5.393   0.518 -0.1577 -0.3122 -0.6998
 1071TIP3   OH224847   3.818   6.063   0.937 -0.3905  1.1019  0.2307
 1071TIP3    H124848   3.824   6.148   0.893 -0.5423  0.4851 -1.0053
 1071TIP3    H224849   3.812   5.999   0.866 -0.9794  0.1062  1.1524
 1072TIP3   OH224850   0.447   1.168   0.880  0.1240  0.1195 -0.2699
 1072TIP3    H124851   0.377   1.221   0.918  1.6724  2.3013 -0.2743
 1072TIP3    H224852   0.492   1.130   0.956  0.0909  0.3007 -0.1576
 1073TIP3   OH224853   2.878   6.300   8.600  0.0838 -0.3409 -0.0112
 1073TIP3    H124854   2.914   6.330   8.684 -0.0247 -0.5851  0.1237
 1073TIP3    H224855   2.785   6.320   8.605  0.5287  2.6741 -1.3738
 1074TIP3   OH224856   0.271   0.291   1.864  0.2191 -0.2007  0.0780
 1074TIP3    H124857   0.194   0.292   1.920  0.2034 -0.0720  0.0535
 1074TIP3    H224858   0.236   0.293   1.775  0.2654  2.2906  0.0391
 1075TIP3   OH224859   3.450   2.574   8.577 -0.4041 -0.1670 -0.3950
 1075TIP3    H124860   3.414   2.501   8.627  1.8516 -0.9784  0.1380
 1075TIP3    H224861   3.399   2.574   8.496 -1.3295 -1.4833  0.1476
 1076TIP3   OH224862   3.755   2.141   1.318  0.3103  0.5879  0.3976
 1076TIP3    H124863   3.762   2.233   1.343 -2.2629  0.1934  3.3495
 1076TIP3    H224864   3.661   2.126   1.309  0.6373 -1.7775  0.2198
 1077TIP3   OH224865   6.234   4.696   8.760  0.0089 -0.0028  0.3834
 1077TIP3    H124866   6.321   4.720   8.793 -0.8761 -0.2389  3.1371
 1077TIP3    H224867   6.250   4.623   8.701  1.7877  0.9446 -0.3958
 1078TIP3   OH224868   4.679   1.529   7.174  0.1300  0.2399  0.1311
 1078TIP3    H124869   4.725   1.510   7.256 -1.1469 -1.0632  0.5902
 1078TIP3    H224870   4.596   1.482   7.182 -0.0922  0.2226 -1.8554
 1079TIP3   OH224871   5.948   6.367   9.050 -0.0968  0.3904  0.5207
 1079TIP3    H124872   5.913   6.427   8.983 -3.1993 -0.4815  1.1812
 1079TIP3    H224873   5.925   6.280   9.018  1.8481 -0.3052  0.9227
 1080TIP3   OH224874   0.722   3.369   2.803 -0.8738 -0.7886 -0.5036
 1080TIP3    H124875   0.785   3.302   2.829  0.2647 -0.0515 -1.2593
 1080TIP3    H224876   0.735   3.379   2.709  0.1140  1.5479 -0.2052
 1081TIP3   OH224877   6.478   3.275   2.644 -0.0957 -0.7162 -0.4692
 1081TIP3    H124878   6.559   3.269   2.593  0.5390  0.2076  0.3998
 1081TIP3    H224879   6.501   3.237   2.729 -0.2402  0.5718  0.1592
 1082TIP3   OH224880   0.416   5.289   1.356  0.7814  0.6160 -0.2766
 1082TIP3    H124881   0.407   5.202   1.315 -0.0532  0.3125  0.5123
 1082TIP3    H224882   0.330   5.329   1.346 -0.0216 -0.1357  2.5993
 1083TIP3   OH224883   5.562   3.154   1.689  0.3215  0.1619 -0.3162
 1083TIP3    H124884   5.481   3.113   1.721  1.2986 -1.5463  0.0690
 1083TIP3    H224885   5.591   3.208   1.762 -2.0840  3.4622 -1.5411
 1084TIP3   OH224886   5.825   5.154   0.182 -0.4437 -0.2108  0.3775
 1084TIP3    H124887   5.807   5.176   0.274 -0.0264  1.8407  0.0340
 1084TIP3    H224888   5.742   5.121   0.149 -1.0177  0.4125  1.1397
 1085TIP3   OH224889   4.026   2.194   7.239 -1.0442 -0.3386  0.4620
 1085TIP3    H124890   4.028   2.235   7.153  0.0830 -0.4991  0.3992
 1085TIP3    H224891   4.069   2.257   7.297 -0.7646 -0.7304  0.6841
 1086TIP3   OH224892   3.912   3.116   2.375 -0.2177 -0.1976  0.0044
 1086TIP3    H124893   3.862   3.079   2.448  1.3410 -0.7817  0.8125
 1086TIP3    H224894   3.980   3.052   2.358  0.5366  0.7857 -0.7896
 1087TIP3   OH224895   1.845   6.305   9.038  0.1739  0.4707 -0.6864
 1087TIP3    H124896   1.859   6.383   9.092 -2.5449 -0.8380  2.2314
 1087TIP3    H224897   1.886   6.234   9.087 -1.7027 -0.6557 -0.6525
 1088TIP3   OH224898   6.061   1.444   0.367 -0.1748  0.0319  0.9403
 1088TIP3    H124899   5.986   1.493   0.334  1.1654  0.8652 -1.0505
 1088TIP3    H224900   6.037   1.352   0.356 -0.7861  0.2866  0.0597
 1089TIP3   OH224901   0.058   6.091   0.405  0.3027  0.1433  0.2066
 1089TIP3    H124902   0.016   6.016   0.362 -1.6673  1.0572  0.4128
 1089TIP3    H224903   0.005   6.106   0.483  1.8194  0.5930  1.1689
 1090TIP3   OH224904   4.427   4.851   8.490 -0.0330  0.0656  0.9566
 1090TIP3    H124905   4.520   4.842   8.511 -0.3928 -0.6477  2.3684
 1090TIP3    H224906   4.388   4.889   8.570 -1.0047  0.0415  0.5116
 1091TIP3   OH224907   6.018   5.307   1.356 -0.3254 -0.3830  1.1007
 1091TIP3    H124908   6.005   5.214   1.371 -0.7782 -0.5676 -0.2656
 1091TIP3    H224909   5.943   5.334   1.303  0.6292  0.3725  0.0828
 1092TIP3   OH224910   5.698   0.761   2.915  0.0664 -0.6745 -0.1135
 1092TIP3    H124911   5.762   0.735   2.982  1.0307 -0.6043 -0.9863
 1092TIP3    H224912   5.624   0.702   2.928  0.8690 -1.6654  0.0510
 1093TIP3   OH224913   6.669   6.112   1.554  0.0879  0.0238 -0.2679
 1093TIP3    H124914   6.692   6.043   1.492  0.2904 -0.3959  0.2643
 1093TIP3    H224915   6.615   6.068   1.619 -0.5836  0.5819 -0.4415
 1094TIP3   OH224916   5.364   4.665   8.095  0.2190  0.3278 -0.0313
 1094TIP3    H124917   5.332   4.753   8.077  0.5983  0.4943  0.0840
 1094TIP3    H224918   5.335   4.613   8.021  0.0102  0.5545 -0.1102
 1095TIP3   OH224919   1.715   1.337   7.672 -0.4821  0.4923 -0.3532
 1095TIP3    H124920   1.748   1.427   7.667  0.5903  0.0616 -1.3474
 1095TIP3    H224921   1.779   1.291   7.727  0.7026 -0.3689 -2.3589
 1096TIP3   OH224922   4.375   2.400   0.593 -0.3223  0.0188  0.6880
 1096TIP3    H124923   4.426   2.462   0.644  0.6809  1.5941 -2.0334
 1096TIP3    H224924   4.284   2.420   0.615  0.0116  1.9969  0.4576
 1097TIP3   OH224925   2.836   0.700   8.317  0.0768  0.1981  0.2240
 1097TIP3    H124926   2.820   0.659   8.402 -0.1842 -0.1050  0.0346
 1097TIP3    H224927   2.750   0.702   8.275  0.4317 -0.9967 -0.6224
 1098TIP3   OH224928   0.201   2.263   2.953 -0.3998  0.0698  0.2027
 1098TIP3    H124929   0.211   2.340   2.896 -1.5989 -0.2608 -0.5001
 1098TIP3    H224930   0.159   2.297   3.032  0.4849  0.3928  0.5349
 1099TIP3   OH224931   0.472   5.885   8.690 -0.0850  0.0762 -0.3667
 1099TIP3    H124932   0.552   5.927   8.660  1.0892 -1.0589  1.0331
 1099TIP3    H224933   0.502   5.809   8.740 -2.0381 -0.4331  0.1136
 1100TIP3   OH224934   2.951   1.756   1.587 -0.2820 -0.9583  0.2311
 1100TIP3    H124935   2.971   1.696   1.659  0.3456 -1.8827 -0.6990
 1100TIP3    H224936   2.983   1.712   1.509  1.7766  1.3055 -0.3114
 1101TIP3   OH224937   4.662   5.435   7.463 -0.1783  0.1404 -0.2970
 1101TIP3    H124938   4.585   5.418   7.408  0.2340  1.2946 -1.2498
 1101TIP3    H224939   4.668   5.530   7.468  0.6789  0.0559  0.4984
 1102TIP3   OH224940   6.232   6.596   0.436 -0.0909 -0.4264  0.2050
 1102TIP3    H124941   6.226   6.501   0.438 -1.0835 -0.3853 -0.0939
 1102TIP3    H224942   6.157   6.626   0.488  1.4465  0.1957  2.2452
 1103TIP3   OH224943   1.373   3.763   1.367 -0.3335 -0.0395  0.6162
 1103TIP3    H124944   1.384   3.679   1.322 -0.0606 -0.1221  0.8337
 1103TIP3    H224945   1.342   3.823   1.299  1.1516  0.1210  0.0455
 1104TIP3   OH224946   5.317   4.445   8.324  0.1119  0.1891 -0.4110
 1104TIP3    H124947   5.311   4.486   8.238  1.4469 -1.9912 -1.6390
 1104TIP3    H224948   5.230   4.410   8.341 -0.1443  0.6002 -0.8602
 1105TIP3   OH224949   0.706   3.353   8.676 -0.5722 -0.1508 -0.2077
 1105TIP3    H124950   0.701   3.444   8.645 -0.7603 -0.0664  0.0737
 1105TIP3    H224951   0.639   3.346   8.744 -0.7005 -0.5591 -0.3711
 1106TIP3   OH224952   0.417   4.955   1.643 -0.2028 -0.0653  0.0370
 1106TIP3    H124953   0.454   4.991   1.723 -1.1378  1.4345 -0.1701
 1106TIP3    H224954   0.491   4.950   1.582  0.0875  0.8555  0.3066
 1107TIP3   OH224955   1.929   6.079   0.413 -1.3483 -0.1487  0.2729
 1107TIP3    H124956   1.928   6.040   0.326  2.0548  0.3855 -0.1268
 1107TIP3    H224957   1.901   6.007   0.471 -0.1873 -1.6434 -0.9291
 1108TIP3   OH224958   3.745   4.603   2.184 -0.3008 -0.0011  0.0950
 1108TIP3    H124959   3.763   4.509   2.174 -2.2056 -0.3703 -0.4184
 1108TIP3    H224960   3.823   4.646   2.152 -0.4423 -1.4091 -2.4488
 1109TIP3   OH224961   4.818   1.999   7.321 -0.0627 -0.2307 -0.5608
 1109TIP3    H124962   4.898   1.986   7.372 -1.1044 -0.0524  1.1961
 1109TIP3    H224963   4.817   1.925   7.260  1.3754 -0.2865 -0.5658
 1110TIP3   OH224964   4.383   1.246   2.012 -0.1948 -0.1327 -0.3247
 1110TIP3    H124965   4.410   1.320   2.067  1.8046 -1.4275  0.5543
 1110TIP3    H224966   4.340   1.186   2.073 -2.0742  0.3968 -1.0887
 1111TIP3   OH224967   5.166   0.478   0.117  0.1459 -0.4837 -0.0217
 1111TIP3    H124968   5.198   0.388   0.125 -0.3099 -0.8140 -1.6460
 1111TIP3    H224969   5.220   0.518   0.049 -0.0797  0.2777  0.2295
 1112TIP3   OH224970   4.553   6.609   0.323  0.0472  0.3311  0.1138
 1112TIP3    H124971   4.549   6.619   0.418  0.3829 -2.1407  0.4376
 1112TIP3    H224972   4.467   6.638   0.292 -0.5386 -0.0706  1.3066
 1113TIP3   OH224973   1.418   1.712   0.437 -0.1235 -0.5624 -0.5326
 1113TIP3    H124974   1.393   1.653   0.365 -1.9549 -1.5434  0.8191
 1113TIP3    H224975   1.355   1.784   0.432  0.5095 -0.0080 -0.6313
 1114TIP3   OH224976   2.153   5.240   8.608  0.2673  0.3473  0.5066
 1114TIP3    H124977   2.184   5.193   8.530  2.6108  0.7817  1.1133
 1114TIP3    H224978   2.189   5.328   8.598  1.1484  0.2274  2.3949
 1115TIP3   OH224979   6.569   5.090   2.851 -0.3739 -0.3920 -0.5588
 1115TIP3    H124980   6.493   5.148   2.862  0.0019 -0.0574  0.3952
 1115TIP3    H224981   6.596   5.070   2.940  1.1892  0.1873 -0.8713
 1116TIP3   OH224982   0.056   4.261   0.280 -0.5649 -0.5220  0.3587
 1116TIP3    H124983   0.138   4.308   0.264 -1.7401  1.6717  0.3141
 1116TIP3    H224984   0.037   4.216   0.198  0.1919 -0.3912  0.1116
 1117TIP3   OH224985   4.491   1.584   8.050  0.3629  0.0879  0.7357
 1117TIP3    H124986   4.451   1.522   8.111 -0.4606  1.2601  1.4136
 1117TIP3    H224987   4.537   1.646   8.105 -0.2815  1.0914  0.1706
 1118TIP3   OH224988   2.244   5.172   3.132 -0.0128  0.1126  0.0022
 1118TIP3    H124989   2.255   5.254   3.084  0.5057 -0.2993 -0.6062
 1118TIP3    H224990   2.163   5.184   3.182 -1.2964  0.1110 -1.9565
 1119TIP3   OH224991   6.507   5.152   2.584  0.3532  0.6046  0.1054
 1119TIP3    H124992   6.543   5.149   2.672  2.2924 -2.1130 -0.6554
 1119TIP3    H224993   6.570   5.206   2.535  0.3737  0.4450 -0.0439
 1120TIP3   OH224994   4.995   0.109   8.150  0.0137  0.5385 -0.4272
 1120TIP3    H124995   5.012   0.023   8.112  2.9788  0.4382  0.8811
 1120TIP3    H224996   4.961   0.090   8.237 -0.2411  0.7141 -0.4877
 1121TIP3   OH224997   1.193   3.689   8.147 -0.6492 -0.4547  0.0745
 1121TIP3    H124998   1.185   3.645   8.063 -0.4178 -0.8334  0.2423
 1121TIP3    H224999   1.242   3.626   8.202  0.5410  0.3978  0.0394
 1122TIP3   OH225000   6.597   2.346   8.781  0.5678  0.2383  0.3275
 1122TIP3    H125001   6.562   2.300   8.705  0.5527  1.9816 -0.7674
 1122TIP3    H225002   6.524   2.348   8.843 -0.5554  1.7172 -0.9648
 1123TIP3   OH225003   4.616   3.146   8.304 -0.9723 -0.0110  0.2237
 1123TIP3    H125004   4.643   3.168   8.393  0.0213 -0.2746 -0.0012
 1123TIP3    H225005   4.543   3.205   8.285 -1.0725  0.1650  1.1456
 1124TIP3   OH225006   1.600   3.176   8.873  0.0567  0.3474  0.1959
 1124TIP3    H125007   1.505   3.171   8.880 -0.1776  2.2909 -0.7418
 1124TIP3    H225008   1.621   3.267   8.896  1.2659  1.0402 -3.1661
 1125TIP3   OH225009   5.525   1.187   2.295 -0.5538  0.1632  0.3379
 1125TIP3    H125010   5.457   1.194   2.363 -0.8039  0.5265  0.0545
 1125TIP3    H225011   5.481   1.212   2.214 -0.0604  0.4871  0.1649
 1126TIP3   OH225012   0.559   4.642   8.320  0.0150  0.7241  0.3128
 1126TIP3    H125013   0.636   4.698   8.333 -0.3854  0.9737  1.7559
 1126TIP3    H225014   0.488   4.688   8.362 -0.6415 -0.1794  0.2208
 1127TIP3   OH225015   5.611   0.425   0.860  0.3124  0.1525  0.0451
 1127TIP3    H125016   5.695   0.407   0.819  0.8166 -0.1849  1.2041
 1127TIP3    H225017   5.549   0.431   0.787  1.0113 -1.4217 -0.7010
 1128TIP3   OH225018   4.083   2.812   7.244  0.2021 -0.2274 -0.3650
 1128TIP3    H125019   4.106   2.896   7.284  0.0798  0.0760 -0.9251
 1128TIP3    H225020   4.005   2.783   7.293 -0.9286  0.9202 -1.4125
 1129TIP3   OH225021   1.026   6.372   3.091 -0.6105  0.2500 -0.6885
 1129TIP3    H125022   1.044   6.358   3.184 -0.8157 -1.1320 -0.8340
 1129TIP3    H225023   1.112   6.370   3.049 -0.5066  1.0153 -0.5115
 1130TIP3   OH225024   2.471   0.795   2.205  0.2356 -0.2478 -0.0743
 1130TIP3    H125025   2.494   0.738   2.132  0.5568  0.0635 -0.2251
 1130TIP3    H225026   2.474   0.883   2.167  0.4953 -0.0798  0.3341
 1131TIP3   OH225027   5.437   3.216   0.230 -0.4466 -0.0812 -0.3966
 1131TIP3    H125028   5.465   3.126   0.251  3.0951  0.4717 -2.0233
 1131TIP3    H225029   5.453   3.224   0.136  0.8234  2.6903 -0.0218
 1132TIP3   OH225030   1.675   6.166   1.548  0.0021 -1.1278  0.0675
 1132TIP3    H125031   1.768   6.174   1.567 -0.2236 -0.9746  1.1900
 1132TIP3    H225032   1.637   6.129   1.628 -1.2961  1.3724  0.7187
 1133TIP3   OH225033   5.852   2.869   0.156 -0.0268  0.0488 -0.4443
 1133TIP3    H125034   5.783   2.900   0.097 -0.3961 -0.5801 -0.3519
 1133TIP3    H225035   5.848   2.774   0.149  1.0439  0.0129 -0.6733
 1134TIP3   OH225036   5.248   6.417   0.902  0.1913  0.2963  0.0457
 1134TIP3    H125037   5.283   6.489   0.849  1.2501 -0.6376 -0.5888
 1134TIP3    H225038   5.239   6.344   0.840 -1.7089  0.1102  0.4742
 1135TIP3   OH225039   5.195   2.784   0.107  0.3505  0.1510 -0.1785
 1135TIP3    H125040   5.184   2.784   0.012  0.6525 -2.7849 -0.3139
 1135TIP3    H225041   5.288   2.767   0.121  0.3260  0.6540  0.6519
 1136TIP3   OH225042   3.636   1.245   0.213 -0.1599  0.4937  0.1995
 1136TIP3    H125043   3.650   1.300   0.291  0.6826 -1.5149  1.5312
 1136TIP3    H225044   3.541   1.247   0.199 -0.6156 -0.8582  2.6545
 1137TIP3   OH225045   6.357   2.215   8.898 -0.1525  0.1173 -0.1160
 1137TIP3    H125046   6.319   2.265   8.971  0.8172  0.4769  0.1552
 1137TIP3    H225047   6.403   2.143   8.940  1.0465  0.7463 -0.3018
 1138TIP3   OH225048   2.622   3.241   1.279 -0.8859 -0.8244  0.1915
 1138TIP3    H125049   2.576   3.190   1.345 -2.8435  0.7538  0.1589
 1138TIP3    H225050   2.592   3.204   1.195 -0.1305 -1.3912  0.1621
 1139TIP3   OH225051   6.640   5.278   1.527  0.6852 -0.1277  0.0208
 1139TIP3    H125052   6.553   5.260   1.563  0.6274  0.0949 -0.0098
 1139TIP3    H225053   6.700   5.232   1.586  0.4215 -2.1552 -1.1910
 1140TIP3   OH225054   1.957   6.243   7.563 -0.2272 -0.5629 -0.2461
 1140TIP3    H125055   1.885   6.245   7.501 -0.3081 -2.5073 -0.2796
 1140TIP3    H225056   1.945   6.321   7.617 -1.1051  0.2697 -1.6039
 1141TIP3   OH225057   4.937   3.679   7.694 -0.6497  0.1567 -0.2028
 1141TIP3    H125058   4.982   3.597   7.671  0.8283  1.0237 -0.5633
 1141TIP3    H225059   4.963   3.695   7.785 -0.1087  0.7189 -0.4476
 1142TIP3   OH225060   1.523   1.144   2.799  0.3845 -0.3260  0.1724
 1142TIP3    H125061   1.434   1.130   2.832 -0.2868 -0.6663 -1.6941
 1142TIP3    H225062   1.580   1.109   2.868 -0.9430 -0.7289  1.0964
 1143TIP3   OH225063   4.980   6.129   2.230 -0.2881 -0.2353 -0.0592
 1143TIP3    H125064   4.902   6.139   2.285  1.0691  0.1759  1.8713
 1143TIP3    H225065   5.003   6.036   2.237 -0.2439 -0.2281 -0.1125
 1144TIP3   OH225066   4.744   0.306   8.332 -0.2058 -0.3547 -0.4197
 1144TIP3    H125067   4.827   0.338   8.297 -0.8794  0.1689 -1.5939
 1144TIP3    H225068   4.688   0.384   8.335 -0.4454 -0.5617  1.0354
 1145TIP3   OH225069   6.484   3.295   0.427  0.0074  0.3865 -0.2994
 1145TIP3    H125070   6.396   3.331   0.438  1.0732  2.5156  2.6514
 1145TIP3    H225071   6.528   3.356   0.367 -0.0177  0.3844 -0.3195
 1146TIP3   OH225072   2.486   5.580   2.194  0.8226 -0.3501 -0.2402
 1146TIP3    H125073   2.559   5.523   2.169  0.4557  0.5660 -4.0522
 1146TIP3    H225074   2.507   5.664   2.153 -1.8549  0.2348 -0.5836
 1147TIP3   OH225075   6.525   0.556   0.167  0.1611 -0.2106  0.3874
 1147TIP3    H125076   6.608   0.551   0.118  0.8299 -1.4604  1.6007
 1147TIP3    H225077   6.518   0.472   0.212 -0.4205  0.8756  2.4399
 1148TIP3   OH225078   2.213   0.603   1.957  0.4775  0.3335 -0.2375
 1148TIP3    H125079   2.238   0.578   1.868  2.6117 -0.0889  0.4373
 1148TIP3    H225080   2.212   0.699   1.955  3.5616  0.4582 -0.0185
 1149TIP3   OH225081   4.402   0.422   0.899 -0.0256  0.2763  0.2563
 1149TIP3    H125082   4.470   0.354   0.898  1.3861  1.6274 -0.9180
 1149TIP3    H225083   4.448   0.501   0.926 -1.7307  0.7233  2.0197
 1150TIP3   OH225084   4.704   3.906   8.755  0.3059 -0.6992 -0.0933
 1150TIP3    H125085   4.692   3.946   8.841 -3.2822  0.3340 -0.8898
 1150TIP3    H225086   4.665   3.819   8.763  0.7834 -0.9505 -0.4498
 1151TIP3   OH225087   5.891   5.729   2.830 -0.2580  0.7918 -0.0931
 1151TIP3    H125088   5.864   5.670   2.900 -2.6337  0.8021 -0.8944
 1151TIP3    H225089   5.840   5.809   2.845  2.2748  2.4241  0.5012
 1152TIP3   OH225090   3.137   1.151   7.798 -0.0342 -0.3595  0.1787
 1152TIP3    H125091   3.231   1.142   7.784  0.3450  2.1321  0.6560
 1152TIP3    H225092   3.099   1.150   7.711  0.3898 -1.4155 -0.0133
 1153TIP3   OH225093   1.489   1.041   2.377  0.1021  0.8544 -0.5316
 1153TIP3    H125094   1.514   0.965   2.325  0.2605  0.9005 -0.5240
 1153TIP3    H225095   1.402   1.019   2.412  0.2755  0.5556 -0.2859
 1154TIP3   OH225096   0.793   4.925   1.837 -0.7856 -0.0874  0.5675
 1154TIP3    H125097   0.801   5.009   1.882  0.7917  1.5717 -2.4856
 1154TIP3    H225098   0.734   4.943   1.764  0.4922 -1.2627 -0.8222
 1155TIP3   OH225099   1.145   0.518   3.222 -0.2126 -0.3644  0.0747
 1155TIP3    H125100   1.230   0.474   3.215  0.0099  0.1056 -0.1885
 1155TIP3    H225101   1.094   0.461   3.280  0.2664 -0.6716  0.2034
 1156TIP3   OH225102   1.497   2.367   8.034  0.0365 -0.0452  0.0879
 1156TIP3    H125103   1.578   2.318   8.048  0.6607  0.6737 -0.8313
 1156TIP3    H225104   1.519   2.457   8.059 -0.2407  0.3008 -0.8602
 1157TIP3   OH225105   5.179   0.684   2.025  0.5041 -0.3906  0.0123
 1157TIP3    H125106   5.167   0.697   1.931 -1.1474 -0.6013  0.1769
 1157TIP3    H225107   5.182   0.773   2.061  0.6012 -0.3177 -0.1766
 1158TIP3   OH225108   3.847   6.018   7.983  0.5051 -0.1253 -0.3553
 1158TIP3    H125109   3.881   6.090   7.931 -2.2327  1.0172 -0.7484
 1158TIP3    H225110   3.874   6.038   8.073  0.7804  0.7323 -0.6243
 1159TIP3   OH225111   6.639   4.514   7.634  0.6625 -0.3693  0.2433
 1159TIP3    H125112   6.692   4.453   7.583  1.3896 -0.4318  1.0443
 1159TIP3    H225113   6.632   4.473   7.720 -0.3909 -0.1816  0.2529
 1160TIP3   OH225114   3.822   2.279   2.569 -0.6511  0.2237  0.1891
 1160TIP3    H125115   3.888   2.344   2.594 -2.5234  2.8270 -1.1537
 1160TIP3    H225116   3.870   2.214   2.519  1.0696  1.4888  0.1047
 1161TIP3   OH225117   6.211   4.244   8.404 -0.3884 -0.3902  0.2687
 1161TIP3    H125118   6.131   4.223   8.357  1.0130 -0.0458 -2.5207
 1161TIP3    H225119   6.263   4.163   8.402  0.9227  0.3967 -1.6597
 1162TIP3   OH225120   4.708   3.149   1.367  0.2533  0.4558  0.3584
 1162TIP3    H125121   4.632   3.167   1.423 -1.0562  0.2507 -1.2862
 1162TIP3    H225122   4.711   3.054   1.360  1.2417  0.4072  1.1245
 1163TIP3   OH225123   6.623   1.554   0.396  0.5574 -0.1815  0.2173
 1163TIP3    H125124   6.546   1.561   0.453 -1.9287 -1.4470 -2.6666
 1163TIP3    H225125   6.626   1.638   0.350 -0.2508 -0.7451 -0.9121
 1164TIP3   OH225126   2.938   2.927   8.150  0.1059  0.8341  0.0596
 1164TIP3    H125127   2.912   2.835   8.147 -0.9325  1.1416 -1.6591
 1164TIP3    H225128   2.889   2.964   8.223 -1.7177  0.6145 -0.9942
 1165TIP3   OH225129   5.123   5.078   1.353  0.0851  0.2065  0.0162
 1165TIP3    H125130   5.145   5.132   1.429  0.7722  0.2260 -0.1903
 1165TIP3    H225131   5.164   5.124   1.279 -0.2789 -0.0012 -0.3210
 1166TIP3   OH225132   1.421   2.454   2.094  0.3112 -0.2144  0.0241
 1166TIP3    H125133   1.444   2.361   2.097  2.6796  0.2644 -0.7258
 1166TIP3    H225134   1.497   2.497   2.134 -0.9180  1.3860  0.7041
 1167TIP3   OH225135   4.245   2.600   7.591  0.4127 -0.2646  0.4550
 1167TIP3    H125136   4.312   2.568   7.531  0.7939  2.0252 -0.4659
 1167TIP3    H225137   4.249   2.540   7.665  1.0246 -2.2594 -1.0903
 1168TIP3   OH225138   5.451   0.481   0.630  0.0717 -0.0314 -0.3900
 1168TIP3    H125139   5.521   0.439   0.579 -0.5216 -0.2021 -1.0808
 1168TIP3    H225140   5.394   0.522   0.564 -1.5347 -1.5093 -0.0066
 1169TIP3   OH225141   1.417   3.714   1.037  0.0265  0.1117  0.4306
 1169TIP3    H125142   1.509   3.717   1.011  0.5185  0.4640  2.1450
 1169TIP3    H225143   1.408   3.632   1.085 -0.5704  0.0837  0.2837
 1170TIP3   OH225144   2.071   4.485   1.957  0.4694 -0.1193  0.5034
 1170TIP3    H125145   2.040   4.483   2.048 -2.8923  0.7067 -0.5025
 1170TIP3    H225146   2.077   4.393   1.932 -0.6953 -0.3334  0.9392
 1171TIP3   OH225147   0.405   4.518   8.780 -0.1816  0.5448 -0.3879
 1171TIP3    H125148   0.473   4.489   8.719 -0.0137 -1.9674  0.8800
 1171TIP3    H225149   0.450   4.581   8.837  0.4891  0.5526 -0.9060
 1172TIP3   OH225150   0.970   3.329   0.280 -0.3194 -0.5896 -0.1554
 1172TIP3    H125151   0.900   3.337   0.346  1.4443 -1.7401  1.9857
 1172TIP3    H225152   0.934   3.271   0.214 -1.4354 -1.0958  0.8498
 1173TIP3   OH225153   0.995   5.152   7.973  0.0282  0.4306 -0.0985
 1173TIP3    H125154   1.040   5.069   7.958 -0.2440  0.2557  0.0528
 1173TIP3    H225155   1.063   5.219   7.959  0.0901  0.2173 -0.8360
 1174TIP3   OH225156   4.200   5.682   8.145  0.3980  0.5785  0.7476
 1174TIP3    H125157   4.199   5.776   8.163 -0.3860  0.5269  1.0148
 1174TIP3    H225158   4.213   5.642   8.231 -2.1138  0.3675  1.1121
 1175TIP3   OH225159   0.305   2.116   8.277 -0.2007 -0.1756 -0.5214
 1175TIP3    H125160   0.284   2.100   8.369 -0.1786  0.7780 -0.3358
 1175TIP3    H225161   0.383   2.171   8.279 -1.9909  2.5913 -0.9735
 1176TIP3   OH225162   1.319   1.532   8.176 -0.2186 -0.3514 -0.4923
 1176TIP3    H125163   1.368   1.614   8.181 -0.5790 -0.0952 -1.0307
 1176TIP3    H225164   1.291   1.526   8.085 -3.1047  0.6590  0.2088
 1177TIP3   OH225165   4.102   3.686   3.106 -0.1909  0.3093 -0.2218
 1177TIP3    H125166   4.162   3.683   3.180 -0.5953 -0.8824  0.0890
 1177TIP3    H225167   4.116   3.603   3.059 -1.6283 -0.0599 -0.0739
 1178TIP3   OH225168   3.673   4.916   7.034  0.8496 -0.0714  0.0974
 1178TIP3    H125169   3.632   4.834   7.062  1.7722 -0.1872  1.1857
 1178TIP3    H225170   3.611   4.984   7.059 -0.8148 -0.4666 -2.4831
 1179TIP3   OH225171   1.845   0.911   2.779  0.8466 -0.0243  0.0924
 1179TIP3    H125172   1.801   0.959   2.849 -0.0797 -1.8623  0.8507
 1179TIP3    H225173   1.776   0.893   2.715  1.2725  0.0175 -0.3846
 1180TIP3   OH225174   6.152   0.282   9.121  0.1631 -0.3006  0.1996
 1180TIP3    H125175   6.132   0.209   9.062 -3.1260 -0.0812  0.8431
 1180TIP3    H225176   6.067   0.306   9.159  1.6864  1.4822  2.8077
 1181TIP3   OH225177   5.392   6.410   2.259  0.3576 -0.0247 -0.0783
 1181TIP3    H125178   5.298   6.402   2.243 -0.1919 -1.4700  3.0974
 1181TIP3    H225179   5.433   6.352   2.194 -1.0833 -0.7172 -0.4005
 1182TIP3   OH225180   5.898   4.278   0.625  0.3736  0.2325 -0.2431
 1182TIP3    H125181   5.983   4.259   0.586  1.0156 -1.7670  1.9272
 1182TIP3    H225182   5.918   4.328   0.704 -0.5191  0.2921 -0.0456
 1183TIP3   OH225183   0.181   1.621   2.297 -0.3152 -0.0083 -0.3089
 1183TIP3    H125184   0.095   1.581   2.285 -0.6545  0.0952  1.4529
 1183TIP3    H225185   0.187   1.688   2.229 -0.8978 -1.1642 -1.5273
 1184TIP3   OH225186   1.500   2.938   0.463 -0.6952  0.3544  0.2487
 1184TIP3    H125187   1.410   2.907   0.477 -0.8297  0.7074  0.1697
 1184TIP3    H225188   1.554   2.877   0.515 -0.8192 -0.8542 -0.9762
 1185TIP3   OH225189   2.619   1.354   2.634  0.5453  0.1058  0.4373
 1185TIP3    H125190   2.635   1.441   2.669  1.8622  0.3269 -0.6251
 1185TIP3    H225191   2.613   1.367   2.539 -1.2576 -0.6961  0.4046
 1186TIP3   OH225192   5.676   6.457   8.699  0.0077 -0.5168 -0.2846
 1186TIP3    H125193   5.706   6.385   8.644 -2.6926 -0.0097 -2.6548
 1186TIP3    H225194   5.607   6.499   8.648 -0.7744  1.7547  2.3920
 1187TIP3   OH225195   5.138   1.559   3.481 -0.0040 -0.4885 -0.2235
 1187TIP3    H125196   5.223   1.602   3.490 -1.4163  2.2364  1.2971
 1187TIP3    H225197   5.100   1.562   3.569 -0.7800 -3.8930 -0.2784
 1188TIP3   OH225198   2.166   0.441   9.140 -0.1053 -0.2351 -0.2733
 1188TIP3    H125199   2.108   0.469   9.070  0.3697 -0.5648 -0.8116
 1188TIP3    H225200   2.139   0.351   9.158  0.4728 -0.5165 -0.7833
 1189TIP3   OH225201   3.406   2.645   1.633  0.5466  0.5490  0.5815
 1189TIP3    H125202   3.446   2.572   1.586  0.4324  0.0628  1.2159
 1189TIP3    H225203   3.416   2.720   1.575  1.4439  0.2091  0.2853
 1190TIP3   OH225204   2.906   5.438   0.583 -0.7675 -0.2761  0.0065
 1190TIP3    H125205   2.834   5.384   0.617 -1.5896  0.2878 -0.7741
 1190TIP3    H225206   2.881   5.527   0.607 -0.3077 -0.0783 -0.2532
 1191TIP3   OH225207   4.013   3.903   7.977 -0.4257 -0.4068 -0.0030
 1191TIP3    H125208   4.082   3.915   8.042  0.5113 -1.5678 -0.7369
 1191TIP3    H225209   4.027   3.815   7.943 -2.0269 -0.5088 -0.4848
 1192TIP3   OH225210   0.165   2.545   1.708 -0.1572 -0.0731 -0.3909
 1192TIP3    H125211   0.177   2.615   1.644 -0.2082  1.6995  1.4365
 1192TIP3    H225212   0.161   2.590   1.792  0.7648 -2.3813  0.9737
 1193TIP3   OH225213   2.486   5.409   1.090 -0.0938  0.1684  0.6653
 1193TIP3    H125214   2.539   5.455   1.024 -1.0697  1.9495  1.0504
 1193TIP3    H225215   2.534   5.422   1.172 -0.3694  0.5063  0.7744
 1194TIP3   OH225216   1.583   2.438   2.977  0.4249  0.1685  0.0344
 1194TIP3    H125217   1.659   2.381   2.975  0.0170 -0.4681  1.5050
 1194TIP3    H225218   1.612   2.514   3.028  0.0731 -0.1130  0.6687
 1195TIP3   OH225219   0.638   3.356   9.213  0.3550 -0.4997 -0.2328
 1195TIP3    H125220   0.715   3.304   9.232 -0.0497 -0.8746  0.4289
 1195TIP3    H225221   0.658   3.443   9.248 -0.4248 -1.2035  2.2065
 1196TIP3   OH225222   1.403   4.076   9.127  0.4785  0.2099 -0.2651
 1196TIP3    H125223   1.453   4.050   9.049 -1.9653 -0.0592 -1.8584
 1196TIP3    H225224   1.360   4.157   9.101 -1.3729 -0.5396  0.3178
 1197TIP3   OH225225   4.250   1.787   7.586  0.5582  0.5980  0.6162
 1197TIP3    H125226   4.342   1.763   7.572  0.2103 -0.7070  0.4750
 1197TIP3    H225227   4.214   1.714   7.636 -0.7814  0.3303 -0.6635
 1198TIP3   OH225228   3.287   3.724   7.476 -0.1087  0.0916 -0.1041
 1198TIP3    H125229   3.311   3.672   7.553  0.9630  0.0795 -0.4300
 1198TIP3    H225230   3.279   3.659   7.406  2.3890  0.4255 -0.7836
 1199TIP3   OH225231   2.830   5.277   1.232 -0.2974  0.1495  0.7847
 1199TIP3    H125232   2.836   5.288   1.137 -1.8011 -0.1054  0.6316
 1199TIP3    H225233   2.915   5.305   1.264  0.5244 -0.5014 -0.6955
 1200TIP3   OH225234   5.389   4.653   2.086 -0.5624 -0.2298  0.0641
 1200TIP3    H125235   5.448   4.604   2.143  0.5856  0.8872 -0.1149
 1200TIP3    H225236   5.445   4.681   2.012 -1.6334 -0.2817 -0.7873
 1201TIP3   OH225237   4.990   1.459   8.425  0.4700  0.0225  0.1271
 1201TIP3    H125238   5.037   1.377   8.439  0.1219 -0.3481 -0.8149
 1201TIP3    H225239   5.057   1.521   8.396  0.5367 -0.2565 -0.3219
 1202TIP3   OH225240   4.746   0.922   8.080  0.2235  0.2060  0.6307
 1202TIP3    H125241   4.693   0.964   8.148 -0.6926 -0.7160  0.5181
 1202TIP3    H225242   4.784   0.994   8.031 -1.1020  0.9203  0.6070
 1203TIP3   OH225243   2.617   2.728   2.802 -0.0440  0.2407 -0.1315
 1203TIP3    H125244   2.688   2.790   2.785  1.0485 -0.7276  0.6622
 1203TIP3    H225245   2.579   2.757   2.885 -0.2162  0.4509 -0.2847
 1204TIP3   OH225246   0.596   1.841   7.638  0.5185  0.0695 -0.0755
 1204TIP3    H125247   0.677   1.801   7.669  0.4049  0.4567  0.7571
 1204TIP3    H225248   0.624   1.909   7.577  0.7782 -0.2569 -0.3259
 1205TIP3   OH225249   5.323   2.175   0.765 -0.3465  0.2007 -0.3939
 1205TIP3    H125250   5.344   2.107   0.829  2.7134  1.8970  0.6000
 1205TIP3    H225251   5.344   2.135   0.680  3.9553  0.5163  0.3191
 1206TIP3   OH225252   5.906   4.031   1.149  0.4730  0.0257  0.4650
 1206TIP3    H125253   5.861   3.948   1.166  0.1029  0.1148 -0.0568
 1206TIP3    H225254   5.985   4.027   1.203  0.8845 -1.0171 -0.2000
 1207TIP3   OH225255   4.022   0.074   0.061 -0.3516 -0.4692 -0.7694
 1207TIP3    H125256   4.056   0.161   0.042  0.5783 -0.4309  0.8895
 1207TIP3    H225257   4.077   0.015   0.010  1.6539 -0.3243  1.0889
 1208TIP3   OH225258   0.471   2.588   7.924  0.1972 -0.0751 -0.2315
 1208TIP3    H125259   0.503   2.502   7.896 -1.0620 -0.4956 -0.4841
 1208TIP3    H225260   0.380   2.590   7.894 -1.0521 -0.2822  3.1019
 1209TIP3   OH225261   2.847   2.080   1.263  0.2911 -0.2316  0.1306
 1209TIP3    H125262   2.863   2.042   1.176 -0.0571 -0.2208  0.0626
 1209TIP3    H225263   2.764   2.042   1.291 -1.8083  2.9459 -1.3290
 1210TIP3   OH225264   4.036   4.822   8.770  0.2562 -0.0680  0.2102
 1210TIP3    H125265   3.998   4.755   8.826  0.7507  0.5584  1.3140
 1210TIP3    H225266   4.042   4.780   8.684 -2.5435 -0.3142  0.0634
 1211TIP3   OH225267   0.147   1.587   7.383  0.6318 -0.5191 -0.5932
 1211TIP3    H125268   0.121   1.540   7.462 -1.8984  0.1069 -0.9692
 1211TIP3    H225269   0.242   1.581   7.381  0.6233 -2.1611  1.4804
 1212TIP3   OH225270   4.981   4.940   7.070  1.0218  0.0062  0.0553
 1212TIP3    H125271   4.972   5.027   7.108 -0.1666 -0.1998  0.2687
 1212TIP3    H225272   4.967   4.952   6.976 -2.2672 -0.3528  0.4001
 1213TIP3   OH225273   2.529   4.121   0.504 -0.2913 -0.4452  0.3974
 1213TIP3    H125274   2.558   4.081   0.585 -1.3514 -1.0589  0.4994
 1213TIP3    H225275   2.435   4.102   0.500 -0.5544  0.8315 -0.2496
 1214TIP3   OH225276   5.440   2.198   2.155  0.1076 -0.1095  0.0280
 1214TIP3    H125277   5.434   2.259   2.229  1.5724 -0.1803  0.2260
 1214TIP3    H225278   5.448   2.112   2.197  0.7439 -0.1683 -0.2046
 1215TIP3   OH225279   4.979   3.983   7.169 -0.0797 -0.4576 -0.0195
 1215TIP3    H125280   4.899   3.966   7.219 -0.3279 -0.8372 -0.5346
 1215TIP3    H225281   5.014   4.064   7.206 -2.5950  1.7449 -2.0392
 1216TIP3   OH225282   4.578   5.203   7.296  0.1063  0.1429 -0.9113
 1216TIP3    H125283   4.536   5.151   7.227  1.5659  0.5203 -2.1247
 1216TIP3    H225284   4.655   5.152   7.321  0.2427  0.5868 -0.4023
 1217TIP3   OH225285   1.533   5.769   8.498  0.3269 -0.1802  0.1403
 1217TIP3    H125286   1.484   5.701   8.454  0.4653  0.5470 -1.1850
 1217TIP3    H225287   1.573   5.725   8.574 -0.3043 -1.3413 -0.1820
 1218TIP3   OH225288   6.340   1.579   0.512  0.4885  0.8987  0.1642
 1218TIP3    H125289   6.329   1.560   0.419 -0.6871  0.8913  0.2846
 1218TIP3    H225290   6.270   1.642   0.532  1.2712  1.5629  0.8515
 1219TIP3   OH225291   6.620   0.063   1.509 -0.7383 -0.1309 -0.2979
 1219TIP3    H125292   6.672   0.003   1.563  1.0546  3.5879  2.6514
 1219TIP3    H225293   6.684   0.104   1.450 -1.4521  0.4085 -0.7211
 1220TIP3   OH225294   5.129   0.817   9.028 -0.1832  0.0448  0.0314
 1220TIP3    H125295   5.047   0.841   9.071 -0.3310 -1.5276  0.6930
 1220TIP3    H225296   5.106   0.743   8.972  0.7106 -0.2183 -0.0054
 1221TIP3   OH225297   2.985   2.609   0.694 -0.4047 -0.4859 -0.1138
 1221TIP3    H125298   2.965   2.578   0.605  0.5151 -1.0670 -0.1348
 1221TIP3    H225299   3.049   2.546   0.727  0.6700  0.7562  0.2652
 1222TIP3   OH225300   0.372   4.002   1.911 -0.0384 -0.3648 -0.1477
 1222TIP3    H125301   0.443   3.995   1.975  0.8757  0.4962 -1.0297
 1222TIP3    H225302   0.307   3.938   1.940  0.4434 -0.1353  1.5142
 1223TIP3   OH225303   3.835   3.651   2.240 -0.4263  0.2874  0.3886
 1223TIP3    H125304   3.886   3.720   2.283 -1.3969  0.6881  0.9439
 1223TIP3    H225305   3.766   3.630   2.304 -1.6318  0.5685 -0.7806
 1224TIP3   OH225306   3.948   6.051   7.437 -0.1949  0.5636  0.8981
 1224TIP3    H125307   3.879   6.108   7.470 -0.8092 -0.5831  1.6578
 1224TIP3    H225308   4.015   6.051   7.506 -0.1164  0.5151  0.8219
 1225TIP3   OH225309   3.916   2.833   8.738  0.7261  0.0626  0.1898
 1225TIP3    H125310   3.914   2.928   8.744  1.1127  0.2037 -1.4008
 1225TIP3    H225311   3.907   2.802   8.828 -0.8538  1.5679  0.5934
 1226TIP3   OH225312   2.302   1.197   8.077  0.1475  0.2239 -0.3053
 1226TIP3    H125313   2.350   1.168   8.000 -0.5721 -0.6930 -0.4285
 1226TIP3    H225314   2.232   1.253   8.042  1.1184  1.5974 -0.1242
 1227TIP3   OH225315   3.743   5.046   1.591 -0.0807  0.3418 -0.0949
 1227TIP3    H125316   3.672   5.106   1.571 -0.8903 -0.5869 -0.0386
 1227TIP3    H225317   3.725   4.968   1.540  0.6391 -0.0931  0.2888
 1228TIP3   OH225318   1.186   5.239   1.905 -0.1151  0.2510 -0.6641
 1228TIP3    H125319   1.229   5.299   1.844 -1.7821  1.9844 -0.2046
 1228TIP3    H225320   1.202   5.277   1.991  1.0569 -1.4508 -0.0604
 1229TIP3   OH225321   6.213   4.237   0.141 -0.2397 -0.1038 -0.0791
 1229TIP3    H125322   6.166   4.294   0.081 -1.8371 -0.6064  0.6542
 1229TIP3    H225323   6.304   4.266   0.134 -0.7907  1.6331 -0.7122
 1230TIP3   OH225324   1.009   3.574   8.583 -0.1700 -0.4597 -0.0312
 1230TIP3    H125325   1.000   3.525   8.665  0.9429 -1.3660 -0.4240
 1230TIP3    H225326   1.103   3.577   8.566 -0.1797  2.0246  0.0560
 1231TIP3   OH225327   0.535   5.393   0.926  0.4932 -0.4445  0.4174
 1231TIP3    H125328   0.567   5.464   0.981  0.2261 -2.2364  3.0695
 1231TIP3    H225329   0.614   5.354   0.888  0.6155  1.4343 -1.4588
 1232TIP3   OH225330   4.663   0.169   1.467  0.1418 -0.2815 -0.2420
 1232TIP3    H125331   4.747   0.123   1.479 -0.3391 -1.2785 -0.5405
 1232TIP3    H225332   4.622   0.167   1.553 -0.8061 -2.3501 -0.6810
 1233TIP3   OH225333   5.418   1.174   8.839 -0.2831  0.0991 -0.4514
 1233TIP3    H125334   5.463   1.102   8.884 -0.7974 -0.8020 -1.3348
 1233TIP3    H225335   5.436   1.251   8.893 -1.0884 -0.9799  1.4822
 1234TIP3   OH225336   4.921   5.703   2.331 -0.4488 -0.1874  0.2595
 1234TIP3    H125337   4.854   5.717   2.264 -1.7032 -1.2826  1.2321
 1234TIP3    H225338   4.895   5.762   2.402  0.0165 -0.1297  0.3841
 1235TIP3   OH225339   0.080   6.658   1.971 -0.5411  0.4299 -0.1431
 1235TIP3    H125340   0.085   6.566   1.994  0.1818  0.0113 -1.7777
 1235TIP3    H225341   0.139   6.702   2.031  1.0456 -0.5550 -0.9241
 1236TIP3   OH225342   1.362   5.703   2.253 -0.5740 -0.1316  0.3204
 1236TIP3    H125343   1.324   5.747   2.177 -0.0747  1.8100  1.1267
 1236TIP3    H225344   1.413   5.631   2.216 -1.9294 -0.4685 -1.0147
 1237TIP3   OH225345   2.561   4.908   0.407  0.0200  0.2346  0.1372
 1237TIP3    H125346   2.618   4.864   0.343 -1.0731 -0.9568 -0.0647
 1237TIP3    H225347   2.504   4.838   0.440  0.5907  0.7960  2.4790
 1238TIP3   OH225348   4.578   6.085   0.485 -0.6394 -0.3869 -0.3075
 1238TIP3    H125349   4.498   6.087   0.432 -0.6080 -0.5208 -0.3601
 1238TIP3    H225350   4.547   6.094   0.575 -0.7152 -0.4488 -0.3270
 1239TIP3   OH225351   4.640   4.124   2.527 -0.3744  0.5727  0.0884
 1239TIP3    H125352   4.558   4.134   2.576 -1.3081  1.7505 -1.6283
 1239TIP3    H225353   4.700   4.186   2.569  0.2840 -1.4729  2.4479
 1240TIP3   OH225354   4.962   0.537   0.506 -0.0802  0.2398 -0.3894
 1240TIP3    H125355   4.920   0.497   0.582  1.0553 -0.0289  0.1185
 1240TIP3    H225356   4.998   0.619   0.540  0.8979 -0.1350 -0.4907
 1241TIP3   OH225357   5.498   1.917   8.914 -0.3344  0.3446  0.1932
 1241TIP3    H125358   5.498   1.982   8.843  1.9299 -0.4825 -0.6569
 1241TIP3    H225359   5.517   1.834   8.870  0.4101 -0.2904  1.6595
 1242TIP3   OH225360   1.958   6.449   7.730 -0.1019  0.1176 -0.4082
 1242TIP3    H125361   1.920   6.495   7.804 -0.1109  0.0442 -0.3677
 1242TIP3    H225362   2.035   6.500   7.707  0.2808 -0.2294  0.0751
 1243TIP3   OH225363   4.315   1.738   1.141 -0.2715 -0.6342  0.2582
 1243TIP3    H125364   4.364   1.820   1.132 -0.3480 -0.4066  1.6489
 1243TIP3    H225365   4.223   1.765   1.139 -0.3037 -0.7485  0.2026
 1244TIP3   OH225366   5.766   5.852   0.383 -0.0185  0.4046  0.0490
 1244TIP3    H125367   5.738   5.787   0.447 -0.3648 -0.3403 -0.8414
 1244TIP3    H225368   5.688   5.869   0.330  0.4530  0.4545 -0.6373
 1245TIP3   OH225369   1.772   2.997   1.956 -0.1084  0.3701 -0.4763
 1245TIP3    H125370   1.858   2.960   1.975 -0.3832 -0.3645 -0.6319
 1245TIP3    H225371   1.789   3.068   1.894  0.7624  2.4228  1.9243
 1246TIP3   OH225372   2.671   0.568   7.092 -0.2846 -0.0069 -0.0090
 1246TIP3    H125373   2.683   0.648   7.143  1.1515  0.0072 -0.3027
 1246TIP3    H225374   2.760   0.545   7.065 -0.4851 -2.4254  1.1688
 1247TIP3   OH225375   5.091   4.375   2.829 -0.2301  0.1205 -0.1567
 1247TIP3    H125376   5.147   4.450   2.810 -0.7465  0.6729  0.4436
 1247TIP3    H225377   5.152   4.302   2.841  0.2978  0.5105 -0.4361
 1248TIP3   OH225378   3.276   1.318   2.032  0.2332  0.4978 -0.3116
 1248TIP3    H125379   3.270   1.334   1.938  1.2341  0.5334 -0.3819
 1248TIP3    H225380   3.194   1.352   2.068 -0.0430  0.7215 -1.1370
 1249TIP3   OH225381   5.239   2.196   2.512 -0.4812  0.1090 -0.5686
 1249TIP3    H125382   5.327   2.228   2.493 -0.6165  0.0710 -1.2619
 1249TIP3    H225383   5.219   2.136   2.441 -1.4958  0.9353 -0.9988
 1250TIP3   OH225384   4.731   4.579   1.079 -0.4903 -0.2981  0.3719
 1250TIP3    H125385   4.660   4.590   1.143  0.1867  0.3612  1.0333
 1250TIP3    H225386   4.799   4.532   1.128 -0.5482 -1.1220 -0.3225
 1251TIP3   OH225387   0.587   3.961   2.111 -0.2809  0.0402 -0.5222
 1251TIP3    H125388   0.560   4.001   2.193  0.8687  0.6915 -0.4494
 1251TIP3    H225389   0.631   3.880   2.136 -0.4376 -0.0498 -0.5350
 1252TIP3   OH225390   2.477   2.895   1.756 -0.3459 -0.0160  0.2107
 1252TIP3    H125391   2.460   2.859   1.669  0.3503 -0.5994  0.3007
 1252TIP3    H225392   2.538   2.832   1.796  0.2878  0.8712  0.6702
 1253TIP3   OH225393   6.580   2.546   0.731  0.0427 -0.0679 -0.1531
 1253TIP3    H125394   6.489   2.525   0.750  0.1813 -1.2156 -0.6330
 1253TIP3    H225395   6.631   2.486   0.786  0.5054  0.4538 -0.0043
 1254TIP3   OH225396   3.375   5.037   9.199 -0.0337 -0.8995 -0.1705
 1254TIP3    H125397   3.311   5.062   9.132 -2.0543 -0.7889  1.6731
 1254TIP3    H225398   3.375   4.942   9.197 -0.6487 -0.9149  0.1193
 1255TIP3   OH225399   1.196   2.382   1.334  0.3416  0.2897 -0.2107
 1255TIP3    H125400   1.214   2.393   1.241  1.4501 -0.6271 -0.1157
 1255TIP3    H225401   1.102   2.361   1.338  0.2815  0.3687 -1.1014
 1256TIP3   OH225402   2.052   0.417   8.866  0.5659 -0.6142  0.0922
 1256TIP3    H125403   2.089   0.499   8.834 -0.2070 -0.0255  0.6763
 1256TIP3    H225404   2.022   0.372   8.787 -0.7955  0.5611 -0.1108
 1257TIP3   OH225405   0.795   4.931   0.643  0.3692 -0.3988 -0.0594
 1257TIP3    H125406   0.829   4.841   0.644 -0.1415 -0.6044 -0.4462
 1257TIP3    H225407   0.733   4.933   0.716  0.2999 -0.3966 -0.1180
 1258TIP3   OH225408   4.692   2.638   3.080  0.2317  0.0548  0.0918
 1258TIP3    H125409   4.736   2.590   3.150  0.5385  1.1105  0.6369
 1258TIP3    H225410   4.748   2.714   3.064 -1.1143  1.1431  0.4290
 1259TIP3   OH225411   5.292   1.626   8.517 -0.4266 -0.1428 -0.4464
 1259TIP3    H125412   5.375   1.586   8.490 -0.5467  0.0366 -1.0949
 1259TIP3    H225413   5.274   1.692   8.450 -2.4981 -2.0375 -1.9102
 1260TIP3   OH225414   4.049   5.012   8.566 -0.1252 -0.1879  0.4914
 1260TIP3    H125415   4.039   5.062   8.647 -1.6180 -1.3553  1.0814
 1260TIP3    H225416   4.067   4.923   8.595  1.9553 -0.1742 -0.5315
 1261TIP3   OH225417   1.388   1.271   1.510  0.5950 -0.1594  0.4658
 1261TIP3    H125418   1.430   1.190   1.539  0.1320  0.0203  1.7051
 1261TIP3    H225419   1.313   1.281   1.569  0.6318  1.1602  0.3095
 1262TIP3   OH225420   1.057   2.151   3.025 -0.2501  0.0670  0.0624
 1262TIP3    H125421   1.024   2.061   3.017  1.2261 -0.7271  2.1086
 1262TIP3    H225422   1.139   2.142   3.072  0.0694  2.5079  0.0893
 1263TIP3   OH225423   6.012   5.013   8.355 -0.4384 -0.6375  0.4758
 1263TIP3    H125424   6.029   4.926   8.320 -2.1860 -0.5140 -0.7844
 1263TIP3    H225425   6.043   5.009   8.446  0.7233 -2.1317  0.0557
 1264TIP3   OH225426   6.192   2.352   8.476 -0.0797  0.5827  0.7801
 1264TIP3    H125427   6.126   2.308   8.423 -0.6468  1.7623  0.4765
 1264TIP3    H225428   6.196   2.300   8.557  0.0064 -0.5866  0.0457
 1265TIP3   OH225429   2.220   2.891   8.897 -0.7318 -0.1795  0.1381
 1265TIP3    H125430   2.250   2.973   8.858 -1.4164 -0.8598 -1.9189
 1265TIP3    H225431   2.270   2.884   8.978  2.6140  0.1325 -1.7235
 1266TIP3   OH225432   4.856   2.002   2.616 -0.0322  0.3017 -0.8047
 1266TIP3    H125433   4.932   1.999   2.674 -1.2267 -0.0905  0.8026
 1266TIP3    H225434   4.857   2.090   2.580  0.3167  0.8163  0.4202
 1267TIP3   OH225435   3.787   1.908   9.186  0.1559  0.0828 -0.2279
 1267TIP3    H125436   3.803   1.864   9.103 -0.3062 -0.8402  0.1522
 1267TIP3    H225437   3.703   1.874   9.215  0.5344  0.0142  0.8431
 1268TIP3   OH225438   1.389   1.545   0.200 -0.1547 -0.7093 -0.4296
 1268TIP3    H125439   1.482   1.526   0.209 -0.1896 -0.2542  1.2258
 1268TIP3    H225440   1.386   1.629   0.155  0.1204 -1.9718 -2.9765
 1269TIP3   OH225441   1.537   4.637   0.057  0.0461  0.7509  0.2903
 1269TIP3    H125442   1.530   4.547   0.027 -0.7436  0.3322  1.6679
 1269TIP3    H225443   1.479   4.643   0.132  1.0653  2.0599  1.0337
 1270TIP3   OH225444   1.966   6.444   0.766  0.9168  0.2825  0.1317
 1270TIP3    H125445   1.982   6.405   0.680  0.7482  1.2211 -0.3424
 1270TIP3    H225446   2.050   6.439   0.811  1.2349  0.5533 -0.4195
 1271TIP3   OH225447   5.277   2.438   0.329  0.2052 -0.3432 -0.4942
 1271TIP3    H125448   5.344   2.482   0.381  0.4897  0.3820 -1.4393
 1271TIP3    H225449   5.204   2.426   0.389  0.1348  1.3844 -0.1661
 1272TIP3   OH225450   3.706   4.387   0.067  0.2303 -0.2399  0.4576
 1272TIP3    H125451   3.647   4.335   0.121 -1.4639  0.9098 -0.1811
 1272TIP3    H225452   3.784   4.332   0.055 -1.4527 -2.6127 -0.1939
 1273TIP3   OH225453   6.032   1.939   8.522  0.3193  0.1925 -0.0985
 1273TIP3    H125454   6.067   1.876   8.459  0.3881 -0.7746  0.8798
 1273TIP3    H225455   5.941   1.951   8.496 -0.0624 -1.3051  0.4351
 1274TIP3   OH225456   4.650   0.001   8.674  0.6385 -0.2941  0.0821
 1274TIP3    H125457   4.558   0.000   8.699  0.6743 -1.2302  0.2329
 1274TIP3    H225458   4.649   0.006   8.578  0.4172 -0.6892  0.0605
 1275TIP3   OH225459   6.205   5.153   8.872 -0.1989  0.2391 -0.3066
 1275TIP3    H125460   6.214   5.190   8.960 -0.0016  0.3921 -0.3906
 1275TIP3    H225461   6.148   5.077   8.884  0.0615  0.0908  0.0005
 1276TIP3   OH225462   3.557   6.337   2.745 -0.0201 -0.1263  0.4682
 1276TIP3    H125463   3.473   6.360   2.705 -0.1059  0.4476  0.9743
 1276TIP3    H225464   3.533   6.284   2.821  0.1996 -3.1757 -1.4147
 1277TIP3   OH225465   3.469   5.327   9.201 -0.0926 -0.1863  0.5871
 1277TIP3    H125466   3.444   5.348   9.291 -1.0473  0.4750  0.1771
 1277TIP3    H225467   3.478   5.232   9.200  1.8014 -0.0852  1.8416
 1278TIP3   OH225468   4.771   3.496   2.811  0.1899  0.1127  0.0538
 1278TIP3    H125469   4.847   3.554   2.803 -1.4734  2.5339  0.8842
 1278TIP3    H225470   4.777   3.461   2.900 -0.4386  1.5472  0.6961
 1279TIP3   OH225471   5.697   6.500   2.335  0.6629  0.1202  0.6580
 1279TIP3    H125472   5.623   6.560   2.331  1.2947  0.9181  0.5969
 1279TIP3    H225473   5.702   6.473   2.426 -1.6392 -2.4825  0.1378
 1280TIP3   OH225474   5.263   3.251   8.500 -0.8542 -0.0634  0.5029
 1280TIP3    H125475   5.286   3.327   8.447 -1.5120 -0.2990 -0.1441
 1280TIP3    H225476   5.285   3.176   8.444 -0.1566 -0.3549  1.1581
 1281TIP3   OH225477   4.553   2.822   2.349 -0.2990 -0.2954 -0.4126
 1281TIP3    H125478   4.543   2.750   2.411 -1.0112 -1.9255 -2.3520
 1281TIP3    H225479   4.638   2.806   2.308  0.8824  1.6259  1.0950
 1282TIP3   OH225480   5.651   2.774   9.130  0.1898 -0.2035  0.6029
 1282TIP3    H125481   5.688   2.697   9.087  1.6067  0.5375  0.4469
 1282TIP3    H225482   5.591   2.811   9.065 -0.5742 -1.1982  0.7128
 1283TIP3   OH225483   2.016   5.056   2.030 -0.4242  0.3948 -0.0462
 1283TIP3    H125484   2.050   5.021   2.113 -1.5172 -0.6961 -0.0206
 1283TIP3    H225485   2.032   4.986   1.967  0.5714  1.2966 -0.8154
 1284TIP3   OH225486   1.689   6.653   1.920  0.0116 -0.9144 -0.1872
 1284TIP3    H125487   1.650   6.614   1.842 -1.0984  1.2183 -0.7706
 1284TIP3    H225488   1.634   6.728   1.939  2.0719  0.4227  0.8037
 1285TIP3   OH225489   1.623   6.007   0.224  0.0680  0.1264  0.0451
 1285TIP3    H125490   1.716   5.990   0.240 -0.0469  0.2959  0.8844
 1285TIP3    H225491   1.609   5.976   0.134  0.4285 -2.0423  0.6651
 1286TIP3   OH225492   4.009   3.757   2.470 -0.5745 -0.1219 -0.6691
 1286TIP3    H125493   4.017   3.696   2.543 -1.5595 -0.8167 -1.1184
 1286TIP3    H225494   4.084   3.737   2.413 -0.7443 -0.7305 -0.6785
 1287TIP3   OH225495   2.888   4.304   8.455 -0.1085  0.1162 -0.4162
 1287TIP3    H125496   2.928   4.347   8.380 -0.0516 -0.1403 -0.5322
 1287TIP3    H225497   2.822   4.367   8.486  0.8575  0.8624  0.2149
 1288TIP3   OH225498   5.326   6.159   2.358  0.3772 -0.2320  0.1028
 1288TIP3    H125499   5.281   6.213   2.423  0.1565  0.9789 -1.0246
 1288TIP3    H225500   5.403   6.126   2.403 -1.6013 -2.4511  2.1407
 1289TIP3   OH225501   2.770   4.038   0.336  0.1609 -0.4657  0.2013
 1289TIP3    H125502   2.675   4.042   0.341 -0.0436  1.3132 -2.6642
 1289TIP3    H225503   2.800   4.068   0.422 -1.8853 -0.0503  0.8098
 1290TIP3   OH225504   5.037   0.266   8.444  0.3399  0.6334 -0.2534
 1290TIP3    H125505   4.977   0.277   8.518  1.7675  1.5951  0.8107
 1290TIP3    H225506   5.048   0.171   8.436 -0.4004  0.4911  0.2972
 1291TIP3   OH225507   2.440   5.855   1.755 -0.2389 -0.4147  0.1762
 1291TIP3    H125508   2.361   5.804   1.771  0.0171 -1.6957 -2.2566
 1291TIP3    H225509   2.410   5.933   1.709 -0.1465 -0.5545 -0.1180
 1292TIP3   OH225510   2.526   5.601   9.002 -0.5876 -0.7328 -0.1031
 1292TIP3    H125511   2.568   5.525   8.962 -0.1191 -0.3111 -0.4156
 1292TIP3    H225512   2.438   5.570   9.025 -0.5814 -1.2234 -0.7068
 1293TIP3   OH225513   6.578   4.553   9.190 -0.6847  0.5507  0.0558
 1293TIP3    H125514   6.570   4.612   9.265  0.9679  0.3467  0.4226
 1293TIP3    H225515   6.491   4.554   9.149 -1.3143  1.4653  1.3659
 1294TIP3   OH225516   4.205   4.108   7.897  0.0232 -0.0439 -0.4267
 1294TIP3    H125517   4.138   4.177   7.892  0.8035  0.6654 -1.5855
 1294TIP3    H225518   4.155   4.027   7.904 -1.0244  0.4064 -2.0034
 1295TIP3   OH225519   5.522   5.973   1.891  0.4322 -0.0500  0.1089
 1295TIP3    H125520   5.468   5.908   1.936  0.5651  0.6962  1.4210
 1295TIP3    H225521   5.572   6.015   1.961  1.5221  0.3875 -0.8906
 1296TIP3   OH225522   3.705   6.192   2.124 -0.2937 -0.6569 -0.1007
 1296TIP3    H125523   3.769   6.196   2.195 -0.1368 -1.0943 -0.2122
 1296TIP3    H225524   3.747   6.137   2.057  0.5800  1.6573 -1.5695
 1297TIP3   OH225525   4.050   3.646   8.632 -0.8574  0.0416  0.1300
 1297TIP3    H125526   4.088   3.697   8.561 -2.4601 -1.4405 -1.9181
 1297TIP3    H225527   4.110   3.572   8.644 -1.1796 -0.3427 -0.5533
 1298TIP3   OH225528   2.032   3.182   2.322 -0.4343  0.3601 -0.5400
 1298TIP3    H125529   2.022   3.221   2.409 -0.0456 -1.4642  0.3796
 1298TIP3    H225530   1.975   3.105   2.323  0.8318 -0.6306 -1.2745
 1299TIP3   OH225531   3.392   1.120   8.382  0.1192  0.7902  0.4377
 1299TIP3    H125532   3.301   1.141   8.401 -0.8922 -0.6111 -2.2848
 1299TIP3    H225533   3.443   1.191   8.422 -2.0678  1.1720  2.7079
 1300TIP3   OH225534   2.891   0.984   8.344  0.3029  0.3042  0.1244
 1300TIP3    H125535   2.881   0.889   8.339  2.9734 -0.1363  1.6233
 1300TIP3    H225536   2.833   1.011   8.416  3.0625 -0.9763  3.0417
 1301TIP3   OH225537   6.635   4.158   0.090 -0.3754 -0.5583  0.7710
 1301TIP3    H125538   6.553   4.130   0.050 -1.4191  1.4982  1.3362
 1301TIP3    H225539   6.703   4.127   0.030 -1.7430  0.4308 -1.4165
 1302TIP3   OH225540   2.692   0.282   9.100  0.1127 -0.2247 -0.8720
 1302TIP3    H125541   2.631   0.221   9.058  0.8646 -0.4077 -1.7373
 1302TIP3    H225542   2.641   0.323   9.170 -1.1596  0.0084 -1.8883
 1303TIP3   OH225543   2.553   4.341   2.517 -0.0985 -0.6530 -0.0497
 1303TIP3    H125544   2.493   4.411   2.492  0.0899 -1.1067 -1.8972
 1303TIP3    H225545   2.498   4.264   2.527 -0.2262 -0.3919  1.4061
 1304TIP3   OH225546   6.704   5.444   0.301  0.6028 -0.7579  0.1054
 1304TIP3    H125547   6.698   5.442   0.396  0.9458 -0.1276  0.1482
 1304TIP3    H225548   6.790   5.482   0.283  0.6705 -1.1586 -0.4577
 1305TIP3   OH225549   0.796   5.170   8.520  0.5390 -0.1104  0.4685
 1305TIP3    H125550   0.791   5.204   8.431  1.9566  2.1347  1.1566
 1305TIP3    H225551   0.824   5.079   8.510  0.5555  0.0620 -1.3687
 1306TIP3   OH225552   1.998   1.976   8.927 -0.2633 -0.4412 -0.0697
 1306TIP3    H125553   1.956   2.062   8.927 -0.1418 -0.3799  0.0318
 1306TIP3    H225554   1.958   1.929   9.000  0.6232  0.0135  0.7365
 1307TIP3   OH225555   3.030   2.284   2.469  0.0280  0.5658 -0.2852
 1307TIP3    H125556   3.047   2.378   2.472  0.1960  0.5144  0.8285
 1307TIP3    H225557   2.991   2.264   2.555 -1.3598 -0.1361 -1.0350
 1308TIP3   OH225558   1.657   5.457   7.528  0.4904  0.2044  0.2574
 1308TIP3    H125559   1.590   5.389   7.531  0.9751 -0.2579  2.5966
 1308TIP3    H225560   1.638   5.513   7.603  4.0175 -1.3668  2.6231
 1309TIP3   OH225561   2.034   2.904   7.479  0.4716  0.3553  0.0403
 1309TIP3    H125562   1.966   2.905   7.546  0.4089  0.7679 -0.0280
 1309TIP3    H225563   1.994   2.858   7.405  0.6880 -0.4876  0.4303
 1310TIP3   OH225564   2.546   6.482   0.104  0.1810 -0.3070 -0.1452
 1310TIP3    H125565   2.580   6.417   0.166  0.6531 -1.1785 -1.2629
 1310TIP3    H225566   2.622   6.504   0.050 -0.1917  0.5286 -0.3322
 1311TIP3   OH225567   0.389   2.408   9.190  0.2670  0.1522  0.1513
 1311TIP3    H125568   0.392   2.434   9.282  1.5485 -1.5405  0.6457
 1311TIP3    H225569   0.322   2.464   9.151 -1.8864 -0.5601  2.5812
 1312TIP3   OH225570   3.014   2.285   0.282 -0.4363  0.4330 -0.4408
 1312TIP3    H125571   3.106   2.286   0.259 -0.8295 -0.5112 -2.2841
 1312TIP3    H225572   3.012   2.263   0.375  1.1806 -1.1582 -0.7234
 1313TIP3   OH225573   0.152   5.101   1.629 -0.1393  0.5576  0.3799
 1313TIP3    H125574   0.114   5.052   1.702 -1.7629 -1.2649 -1.5539
 1313TIP3    H225575   0.241   5.065   1.620 -0.8595 -1.1573 -0.1867
 1314TIP3   OH225576   5.817   1.023   3.156  0.2979 -0.1548  0.0463
 1314TIP3    H125577   5.875   0.949   3.177  1.7651  0.8906 -0.1639
 1314TIP3    H225578   5.810   1.071   3.238  2.5160  1.5591 -0.6881
 1315TIP3   OH225579   1.788   5.374   8.389 -0.1033 -0.3767  1.2825
 1315TIP3    H125580   1.778   5.403   8.299  2.5212 -2.9749 -0.0076
 1315TIP3    H225581   1.859   5.427   8.424 -0.2102 -0.2866  1.3630
 1316TIP3   OH225582   6.642   5.797   0.500 -0.9504  0.0866 -1.0624
 1316TIP3    H125583   6.671   5.707   0.515  3.1535  1.4379  0.7081
 1316TIP3    H225584   6.597   5.822   0.580  0.1735  0.3073 -0.4796
 1317TIP3   OH225585   2.013   4.036   0.089  0.6451 -0.0689 -0.7856
 1317TIP3    H125586   1.923   4.003   0.089  1.1286 -1.4294 -1.7790
 1317TIP3    H225587   2.009   4.115   0.035  0.0468 -0.0992 -0.7958
 1318TIP3   OH225588   0.279   4.681   7.430 -0.2640 -0.0010  0.0929
 1318TIP3    H125589   0.338   4.610   7.405 -0.6379 -1.0681  1.9993
 1318TIP3    H225590   0.326   4.761   7.407  0.8804 -0.8483 -0.6282
 1319TIP3   OH225591   0.469   1.502   8.202  0.2156  0.0274  0.3424
 1319TIP3    H125592   0.524   1.469   8.131 -0.9802  2.3669 -1.8497
 1319TIP3    H225593   0.388   1.451   8.195  0.1437  0.1752  0.0907
 1320TIP3   OH225594   3.117   6.237   0.452 -0.1084 -0.4130  0.2637
 1320TIP3    H125595   3.027   6.207   0.438 -0.5623 -0.1455  2.2498
 1320TIP3    H225596   3.125   6.244   0.547  1.3618  1.5475  0.0699
 1321TIP3   OH225597   1.033   5.918   8.607 -0.4999 -0.8078 -0.1877
 1321TIP3    H125598   1.119   5.939   8.641 -0.8589  1.3452 -0.4715
 1321TIP3    H225599   1.044   5.919   8.512 -0.7068 -1.1805 -0.2185
 1322TIP3   OH225600   1.806   5.246   7.220 -0.0082  0.3514  0.1267
 1322TIP3    H125601   1.894   5.279   7.240 -0.3068  1.0009  0.4296
 1322TIP3    H225602   1.820   5.159   7.184  0.7577  0.4310  0.2144
 1323TIP3   OH225603   5.757   5.444   0.979 -0.5107 -0.5045 -0.1757
 1323TIP3    H125604   5.702   5.440   1.057 -0.1097 -0.2095  0.1351
 1323TIP3    H225605   5.717   5.384   0.917 -1.5208  0.1583 -0.1805
 1324TIP3   OH225606   3.616   0.376   7.252 -0.1531 -0.5523 -0.4142
 1324TIP3    H125607   3.643   0.464   7.226 -0.8623  0.5519  2.2636
 1324TIP3    H225608   3.635   0.371   7.345 -1.9846 -2.4928 -0.0561
 1325TIP3   OH225609   6.375   4.877   6.945 -0.5898 -0.4428  0.6541
 1325TIP3    H125610   6.352   4.854   6.855 -0.6825 -1.8450  1.0108
 1325TIP3    H225611   6.319   4.951   6.966 -1.3707 -0.8053 -0.0867
 1326TIP3   OH225612   2.239   4.130   7.715  0.2600 -0.3240  0.0302
 1326TIP3    H125613   2.162   4.125   7.772 -0.4323 -0.5060 -0.8972
 1326TIP3    H225614   2.299   4.065   7.751 -0.6260 -1.2370 -0.0899
 1327TIP3   OH225615   6.014   4.028   1.867 -0.0346 -0.6446  0.4929
 1327TIP3    H125616   5.980   3.972   1.937  2.5771 -2.3524  0.4918
 1327TIP3    H225617   6.094   4.066   1.903  0.0125  0.4738 -0.7125
 1328TIP3   OH225618   1.424   3.309   0.297 -0.4438  0.1829 -0.3509
 1328TIP3    H125619   1.497   3.247   0.296 -0.7959 -0.2356 -0.2262
 1328TIP3    H225620   1.465   3.393   0.317 -0.1380 -0.2309  0.8734
 1329TIP3   OH225621   4.587   2.860   1.735 -0.5080 -0.6565  0.4233
 1329TIP3    H125622   4.528   2.891   1.803 -2.0510  2.5272 -2.1303
 1329TIP3    H225623   4.674   2.891   1.763 -1.3440  2.0514  0.2983
 1330TIP3   OH225624   0.285   6.429   8.614 -0.5416  0.2850 -0.3401
 1330TIP3    H125625   0.289   6.409   8.520 -0.6236  0.6926 -0.4301
 1330TIP3    H225626   0.377   6.437   8.640 -0.5271  0.5407 -0.4664
 1331TIP3   OH225627   3.802   1.781   0.283  0.7594 -0.3344 -0.4662
 1331TIP3    H125628   3.721   1.734   0.303  0.6274 -0.2956 -0.8870
 1331TIP3    H225629   3.830   1.744   0.199  1.4072 -0.6491 -0.1203
 1332TIP3   OH225630   0.651   1.699   1.454  0.5212 -0.7177 -0.2612
 1332TIP3    H125631   0.709   1.659   1.518  2.4407  1.7474 -0.2851
 1332TIP3    H225632   0.610   1.772   1.500  1.3479  0.6202 -1.5181
 1333TIP3   OH225633   4.463   5.560   1.289  0.0254  0.4095 -0.3908
 1333TIP3    H125634   4.386   5.613   1.309  0.0633  0.4635 -0.3870
 1333TIP3    H225635   4.524   5.579   1.360  0.4067  1.0843 -0.8832
 1334TIP3   OH225636   2.515   0.515   2.394 -0.2386 -0.1412  0.4239
 1334TIP3    H125637   2.605   0.546   2.385  0.2972 -1.4018  1.0866
 1334TIP3    H225638   2.523   0.434   2.446 -1.8247  0.0778  1.0570
 1335TIP3   OH225639   5.101   3.070   8.902 -0.5450 -0.1256  0.5426
 1335TIP3    H125640   5.121   3.017   8.825 -0.3375 -0.2237  0.6626
 1335TIP3    H225641   5.088   3.158   8.867 -1.8415 -0.4312  0.2269
 1336TIP3   OH225642   5.534   1.615   8.345 -0.6817  0.4266  0.3605
 1336TIP3    H125643   5.491   1.648   8.266  1.1780 -2.0020 -1.8333
 1336TIP3    H225644   5.505   1.524   8.352  1.9854 -0.5141  0.2493
 1337TIP3   OH225645   5.159   6.222   2.952 -0.2171 -0.2813  0.1173
 1337TIP3    H125646   5.201   6.160   3.011 -1.0161 -1.3561 -0.4135
 1337TIP3    H225647   5.214   6.300   2.956  0.2759 -0.6727  1.5345
 1338TIP3   OH225648   3.733   4.246   7.011  1.3121  0.3521  0.1868
 1338TIP3    H125649   3.781   4.249   7.094  1.2100 -0.1060  0.2674
 1338TIP3    H225650   3.683   4.327   7.009  1.7588  0.6319  0.3071
 1339TIP3   OH225651   1.568   6.013   1.760  0.0567  0.3719 -0.4327
 1339TIP3    H125652   1.484   6.049   1.788 -0.2655 -0.0549 -0.8443
 1339TIP3    H225653   1.547   5.927   1.723  0.6403  0.3616 -0.7615
 1340TIP3   OH225654   2.650   2.686   1.917  0.5289 -0.2778  0.2049
 1340TIP3    H125655   2.621   2.662   2.005  0.5443 -0.6713  0.1054
 1340TIP3    H225656   2.702   2.765   1.930 -0.6935  0.5246  0.3640
 1341TIP3   OH225657   1.097   1.396   8.411  0.5049  0.4273 -0.4254
 1341TIP3    H125658   1.052   1.383   8.328  2.7487  0.4277 -1.7223
 1341TIP3    H225659   1.081   1.315   8.460 -0.9807  0.4950 -0.7379
 1342TIP3   OH225660   1.346   6.192   2.176 -0.2806  0.1159  0.0383
 1342TIP3    H125661   1.355   6.256   2.105  0.9332  0.8040  0.7879
 1342TIP3    H225662   1.428   6.142   2.174  0.7401  1.5369  2.2497
 1343TIP3   OH225663   3.155   5.078   1.234 -0.3110 -0.3885 -0.4107
 1343TIP3    H125664   3.085   5.016   1.214 -0.0063 -0.8737 -0.0070
 1343TIP3    H225665   3.209   5.079   1.155 -0.9259  0.2115 -0.8360
 1344TIP3   OH225666   1.974   3.008   8.764 -0.6527  0.2152 -0.3251
 1344TIP3    H125667   2.027   2.971   8.835  2.2431  2.1845 -1.2672
 1344TIP3    H225668   1.992   2.951   8.689 -0.5516  0.3957 -0.4379
 1345TIP3   OH225669   0.370   5.516   0.586  0.0513 -0.2439 -0.2140
 1345TIP3    H125670   0.324   5.587   0.630 -0.6679  0.3967 -1.8987
 1345TIP3    H225671   0.411   5.557   0.510  2.9809 -0.9141  0.8784
 1346TIP3   OH225672   1.036   4.274   8.048 -0.0042 -0.0549  0.0869
 1346TIP3    H125673   1.027   4.310   8.136  3.1464  0.3390  0.3373
 1346TIP3    H225674   1.014   4.181   8.058  2.3803 -0.5324  1.8520
 1347TIP3   OH225675   1.429   0.577   8.432 -0.2229  0.0928  0.3388
 1347TIP3    H125676   1.390   0.493   8.456 -0.3943  0.3298  0.9180
 1347TIP3    H225677   1.424   0.629   8.512  0.1499  0.5557  0.0673
 1348TIP3   OH225678   6.579   4.373   2.328 -0.2249  0.7005 -0.0159
 1348TIP3    H125679   6.636   4.379   2.250  0.7717 -0.2526  0.5998
 1348TIP3    H225680   6.509   4.313   2.302  1.3528 -1.4974  0.4703
 1349TIP3   OH225681   0.090   0.001   8.949  0.4263  0.3606 -0.0040
 1349TIP3    H125682   0.082  -0.014   8.855  0.2108  3.1231 -0.5290
 1349TIP3    H225683   0.008   0.043   8.974  0.9837  0.8238  1.1370
 1350TIP3   OH225684   6.362   4.339   0.715  0.0918  0.8393  0.0493
 1350TIP3    H125685   6.444   4.354   0.668  0.3586  1.3688  0.6655
 1350TIP3    H225686   6.370   4.250   0.749 -0.1573  0.3998 -0.9944
 1351TIP3   OH225687   4.910   5.215   0.928  0.0652 -0.5549  0.5471
 1351TIP3    H125688   4.964   5.294   0.935 -0.1877 -0.3495  0.2331
 1351TIP3    H225689   4.825   5.247   0.897  0.4655 -1.1224 -1.2824
 1352TIP3   OH225690   0.140   5.906   7.488  0.7531 -0.5683  0.2333
 1352TIP3    H125691   0.063   5.954   7.456  1.8825 -0.5417 -2.8579
 1352TIP3    H225692   0.110   5.816   7.499 -0.0139 -0.3196  0.2071
 1353TIP3   OH225693   2.446   5.095   0.268 -0.1333  0.3644 -0.3849
 1353TIP3    H125694   2.517   5.040   0.302 -1.1016  0.1547  1.4160
 1353TIP3    H225695   2.485   5.143   0.195  1.2340 -1.3789 -0.8597
 1354TIP3   OH225696   1.464   0.571   2.040 -0.7815  0.6081  0.0015
 1354TIP3    H125697   1.412   0.509   2.090 -0.0018 -1.6267 -1.8143
 1354TIP3    H225698   1.521   0.612   2.106 -0.8259 -1.1261  1.1972
 1355TIP3   OH225699   3.493   0.217   2.997  0.2665 -0.5838 -0.4910
 1355TIP3    H125700   3.579   0.212   3.038  0.9032  0.4120 -1.6572
 1355TIP3    H225701   3.479   0.130   2.959  0.2647 -1.0827  0.6160
 1356TIP3   OH225702   2.988   5.279   7.577 -0.2823  0.3494  0.0569
 1356TIP3    H125703   3.030   5.333   7.510 -1.3671  2.4493  0.9586
 1356TIP3    H225704   3.059   5.252   7.635  0.5957 -1.1085 -1.6258
 1357TIP3   OH225705   1.906   1.230   2.060  0.0304  0.8875  0.5138
 1357TIP3    H125706   1.857   1.224   2.142 -1.0859 -0.3415 -0.2100
 1357TIP3    H225707   1.853   1.182   1.996  0.2992  2.7981 -1.2379
 1358TIP3   OH225708   2.390   6.311   1.391  0.1787 -0.0003  0.6291
 1358TIP3    H125709   2.342   6.394   1.386 -0.8103 -0.6373 -1.4770
 1358TIP3    H225710   2.482   6.336   1.395 -0.1652  1.2022  1.6912
 1359TIP3   OH225711   3.982   2.638   0.095  0.3999  0.0183 -0.2695
 1359TIP3    H125712   4.069   2.653   0.057  0.9285 -1.1760  0.4175
 1359TIP3    H225713   3.953   2.555   0.058  0.2019 -0.3312  0.6431
 1360TIP3   OH225714   4.003   1.742   2.436  0.0847 -0.2877  0.1473
 1360TIP3    H125715   4.077   1.693   2.399 -0.2372  0.1141 -1.0749
 1360TIP3    H225716   3.959   1.679   2.493 -0.0678 -1.3146 -1.0541
 1361TIP3   OH225717   1.961   0.113   1.231  0.0061  0.1784  0.0950
 1361TIP3    H125718   2.003   0.196   1.209 -3.3463  1.6803 -1.4835
 1361TIP3    H225719   2.018   0.046   1.195  1.3130  1.9925 -1.3707
 1362TIP3   OH225720   1.595   1.659   0.964  0.0514  0.0149 -0.5013
 1362TIP3    H125721   1.605   1.614   1.047  0.3832 -0.7210 -0.9296
 1362TIP3    H225722   1.525   1.722   0.978  2.0967  2.0926  1.2746
 1363TIP3   OH225723   3.770   0.507   8.102 -0.0720 -0.8796 -0.5004
 1363TIP3    H125724   3.851   0.536   8.144  0.2004 -1.4712 -0.5995
 1363TIP3    H225725   3.782   0.529   8.009 -0.8551  0.8248 -0.2302
 1364TIP3   OH225726   2.846   4.048   8.256  0.0667 -0.3210  0.2861
 1364TIP3    H125727   2.863   4.061   8.349  0.1064  0.0042  0.2321
 1364TIP3    H225728   2.931   4.063   8.214  0.3931 -1.8328  0.3252
 1365TIP3   OH225729   0.177   2.586   0.325  0.8206 -0.3497  0.4598
 1365TIP3    H125730   0.191   2.592   0.419 -1.8784  0.7985  0.8981
 1365TIP3    H225731   0.251   2.633   0.286  1.5283 -0.1009  2.0494
 1366TIP3   OH225732   2.944   3.456   0.295 -0.0655  0.6279  0.1178
 1366TIP3    H125733   2.924   3.365   0.317  1.9872 -0.2546 -1.3871
 1366TIP3    H225734   2.894   3.473   0.215 -0.2094  0.7496  0.2314
 1367TIP3   OH225735   3.283   0.378   1.154 -0.2250  0.4978 -0.0778
 1367TIP3    H125736   3.257   0.412   1.068  2.5728  0.7753 -0.9123
 1367TIP3    H225737   3.293   0.284   1.140 -1.6326  0.2259  0.5206
 1368TIP3   OH225738   4.907   2.971   0.995 -0.6626  0.7707  0.7080
 1368TIP3    H125739   4.964   2.915   0.944  1.1047  1.0109  2.2982
 1368TIP3    H225740   4.856   2.911   1.049 -1.2039  0.5898 -0.0001
 1369TIP3   OH225741   6.377   3.361   1.063  0.1045 -0.3112  0.4839
 1369TIP3    H125742   6.424   3.438   1.031 -0.1679 -1.2120 -2.4210
 1369TIP3    H225743   6.296   3.395   1.099  0.0657  0.8179 -0.6113
 1370TIP3   OH225744   4.397   0.297   8.559 -0.6247  0.4956  0.0880
 1370TIP3    H125745   4.392   0.246   8.640  0.0383  1.5385  0.8184
 1370TIP3    H225746   4.481   0.342   8.565 -0.8763  1.1127 -0.8732
 1371TIP3   OH225747   1.412   1.971   1.218  0.1920  0.3222 -0.0105
 1371TIP3    H125748   1.381   1.915   1.148  1.8080 -0.5184 -0.1109
 1371TIP3    H225749   1.441   2.051   1.174 -0.6717  0.6137 -0.0532
 1372TIP3   OH225750   4.704   0.131   0.050 -0.0123  0.2473 -0.1546
 1372TIP3    H125751   4.730   0.155  -0.038  1.7400 -1.8365 -0.3029
 1372TIP3    H225752   4.722   0.208   0.103 -1.0084  1.4988 -1.5527
 1373TIP3   OH225753   6.144   1.736   8.352 -0.2120  0.5063 -0.2180
 1373TIP3    H125754   6.219   1.725   8.293 -0.5980 -1.2999 -0.4325
 1373TIP3    H225755   6.092   1.657   8.339 -2.3617  1.8592 -0.3131
 1374TIP3   OH225756   1.173   1.639   8.603 -0.4377  0.1925  0.3121
 1374TIP3    H125757   1.150   1.723   8.642  0.5614  0.7293 -0.2281
 1374TIP3    H225758   1.205   1.586   8.676 -0.6050  0.4521  0.5714
 1375TIP3   OH225759   1.105   4.640   7.606  0.2417  0.8245  0.6939
 1375TIP3    H125760   1.058   4.641   7.689  1.4622 -0.4740  1.4446
 1375TIP3    H225761   1.073   4.562   7.560 -1.9059  2.5732 -1.0323
 1376TIP3   OH225762   3.258   4.477   0.954  0.0209 -0.2038  0.1811
 1376TIP3    H125763   3.296   4.405   1.003 -0.3671  0.4200  1.4335
 1376TIP3    H225764   3.180   4.502   1.004 -1.6030 -0.9057 -1.8629
 1377TIP3   OH225765   3.066   1.683   7.963 -0.6602 -0.2948  0.1066
 1377TIP3    H125766   3.061   1.639   8.048 -0.5977  0.0026  0.2639
 1377TIP3    H225767   3.130   1.632   7.914 -3.9320 -3.3447 -1.4587
 1378TIP3   OH225768   6.437   0.675   9.122 -0.4791  0.0169 -0.2624
 1378TIP3    H125769   6.350   0.715   9.112 -1.4031 -1.4253  1.3652
 1378TIP3    H225770   6.480   0.728   9.190 -0.7021 -0.1956  0.0481
 1379TIP3   OH225771   4.418   5.181   1.357 -0.0685 -0.2962 -0.6069
 1379TIP3    H125772   4.414   5.095   1.315 -1.4265 -0.4236 -0.2781
 1379TIP3    H225773   4.507   5.188   1.390  0.3019 -1.2205 -1.3797
 1380TIP3   OH225774   1.328   3.308   1.625 -0.7746 -0.5448 -0.3316
 1380TIP3    H125775   1.377   3.315   1.543 -0.8577  0.6864 -0.3027
 1380TIP3    H225776   1.339   3.217   1.652  1.8044 -0.2733 -0.1571
 1381TIP3   OH225777   3.920   0.845   0.660  0.7889 -0.2611 -1.3906
 1381TIP3    H125778   3.979   0.770   0.653 -0.2705 -1.0933 -1.8439
 1381TIP3    H225779   3.840   0.808   0.698  0.2250  0.6335 -1.6791
 1382TIP3   OH225780   6.476   3.315   9.123  0.4690 -0.1538 -0.1238
 1382TIP3    H125781   6.408   3.382   9.115 -1.0472 -1.7931 -2.6487
 1382TIP3    H225782   6.527   3.323   9.042 -0.4016 -2.5741 -1.0145
 1383TIP3   OH225783   6.633   4.120   0.509 -0.4474 -0.1229 -0.3009
 1383TIP3    H125784   6.676   4.119   0.423  1.4561  2.2371  0.5181
 1383TIP3    H225785   6.592   4.207   0.514  3.3715  1.8339  2.7891
 1384TIP3   OH225786   2.707   5.327   0.098  0.0199 -0.5845 -0.1205
 1384TIP3    H125787   2.788   5.321   0.148  0.4266  1.6023 -0.3788
 1384TIP3    H225788   2.649   5.380   0.153 -0.9582 -1.4828 -0.2705
 1385TIP3   OH225789   0.925   2.424   0.936 -0.2379  0.1847  0.0911
 1385TIP3    H125790   0.993   2.420   1.003 -1.1991 -1.4474  1.0364
 1385TIP3    H225791   0.891   2.335   0.930 -0.2100  0.2489 -2.6019
 1386TIP3   OH225792   4.600   0.914   1.376 -0.1678 -0.2185 -0.0751
 1386TIP3    H125793   4.616   0.891   1.468  0.6730 -2.5837 -0.7479
 1386TIP3    H225794   4.561   1.002   1.380 -0.1599 -0.2525  2.5238
 1387TIP3   OH225795   2.557   5.521   1.902 -0.0486  0.1545  0.0940
 1387TIP3    H125796   2.463   5.507   1.917  0.2870 -0.7317  1.6191
 1387TIP3    H225797   2.577   5.602   1.950 -0.0037  0.2849 -0.1423
 1388TIP3   OH225798   2.427   4.702   0.508  0.1224 -0.2244  0.3032
 1388TIP3    H125799   2.368   4.741   0.572  0.0357 -0.9042  0.6476
 1388TIP3    H225800   2.391   4.614   0.493  0.9480 -0.5815  0.3887
 1389TIP3   OH225801   5.330   4.170   0.045  0.7220 -0.5398  0.2136
 1389TIP3    H125802   5.408   4.123   0.074  0.4771 -0.9313  0.2510
 1389TIP3    H225803   5.279   4.105  -0.004  0.1576 -0.4530  0.6646
 1390TIP3   OH225804   1.643   3.965   7.668  0.3450  0.1527 -0.1654
 1390TIP3    H125805   1.591   3.898   7.623  1.1551  0.1798 -1.2102
 1390TIP3    H225806   1.622   4.046   7.621 -1.4836  0.8897  1.8040
 1391TIP3   OH225807   6.328   2.036   0.135 -0.0330  0.0832 -0.1288
 1391TIP3    H125808   6.349   1.982   0.058 -1.2239  0.6420 -0.8900
 1391TIP3    H225809   6.413   2.059   0.172  0.5317 -3.0918  0.8293
 1392TIP3   OH225810   0.282   2.025   3.099  0.0304  0.2487  0.5991
 1392TIP3    H125811   0.369   2.024   3.060 -0.7031  1.3250 -1.1582
 1392TIP3    H225812   0.246   2.110   3.076 -2.0653 -0.7380 -0.0655
 1393TIP3   OH225813   0.533   3.786   8.447 -0.5178 -0.9689 -0.1630
 1393TIP3    H125814   0.561   3.698   8.471 -0.0946 -0.8742 -0.3018
 1393TIP3    H225815   0.489   3.819   8.525  0.9850 -0.6014  0.5504
 1394TIP3   OH225816   6.386   4.052   1.385 -0.2209  0.6514 -0.3691
 1394TIP3    H125817   6.450   3.981   1.375  0.7517  1.1201  1.9044
 1394TIP3    H225818   6.437   4.127   1.413 -1.7538  0.9015  2.1040
 1395TIP3   OH225819   4.980   1.620   2.083 -0.0824  0.4423  0.5280
 1395TIP3    H125820   4.908   1.556   2.080 -0.8621  1.3165  0.3978
 1395TIP3    H225821   4.984   1.646   2.175 -0.4790  1.0036  0.3886
 1396TIP3   OH225822   3.785   2.361   0.208  0.2901 -0.4828 -0.2711
 1396TIP3    H125823   3.785   2.437   0.150  1.4072  0.4023  0.8215
 1396TIP3    H225824   3.842   2.386   0.281 -1.6224 -1.2466  1.6098
 1397TIP3   OH225825   3.269   4.117   7.347  0.3258  0.3561 -0.2779
 1397TIP3    H125826   3.349   4.169   7.357 -0.7444  1.7617  1.6527
 1397TIP3    H225827   3.200   4.182   7.335 -0.7237 -0.7545 -0.3850
 1398TIP3   OH225828   0.456   6.332   9.057  0.0589  0.1003 -0.2328
 1398TIP3    H125829   0.521   6.393   9.023  0.1629 -0.3291 -0.8196
 1398TIP3    H225830   0.386   6.388   9.092  1.0828  0.5791  1.1340
 1399TIP3   OH225831   6.479   2.481   3.040 -0.4812 -0.6714  0.0670
 1399TIP3    H125832   6.506   2.536   2.967  1.5806 -1.6630  0.0283
 1399TIP3    H225833   6.498   2.533   3.118 -2.9866  0.5228 -0.0026
 1400TIP3   OH225834   4.795   5.751   0.792  0.4140  0.2341  0.1199
 1400TIP3    H125835   4.884   5.716   0.781  1.4189  2.7926 -0.6271
 1400TIP3    H225836   4.788   5.819   0.725 -2.0595  0.2756  0.3409
 1401TIP3   OH225837   3.033   1.055   0.203  0.2223  0.5767  0.0834
 1401TIP3    H125838   3.032   1.137   0.155 -1.0880  1.5396  1.6205
 1401TIP3    H225839   2.942   1.024   0.200  0.6820 -0.7957 -0.4156
 1402TIP3   OH225840   4.740   1.487   2.048  0.6036  0.1653  0.1915
 1402TIP3    H125841   4.750   1.494   1.953  1.1933  1.8076  0.3464
 1402TIP3    H225842   4.698   1.569   2.074  3.3161  1.2132  1.6963
 1403TIP3   OH225843   6.482   2.977   2.626  0.3110  0.5910 -0.4262
 1403TIP3    H125844   6.561   2.923   2.633 -0.8702 -1.2544 -0.3635
 1403TIP3    H225845   6.466   3.008   2.715  0.6520  0.4640 -0.3186
 1404TIP3   OH225846   5.460   6.255   0.740 -0.0811  0.0443  0.0357
 1404TIP3    H125847   5.449   6.168   0.701  3.8822  0.2972 -2.0974
 1404TIP3    H225848   5.483   6.312   0.667 -2.2056  2.9496  1.4152
 1405TIP3   OH225849   4.216   5.772   0.700 -0.0771  0.3793  0.7031
 1405TIP3    H125850   4.308   5.760   0.677 -0.8354 -1.3034 -1.7497
 1405TIP3    H225851   4.173   5.690   0.676 -2.3156  1.2648  1.3556
 1406TIP3   OH225852   3.788   1.348   0.648  0.0224 -0.2640 -0.2243
 1406TIP3    H125853   3.825   1.270   0.689  0.8464  1.1305  1.8146
 1406TIP3    H225854   3.773   1.408   0.720 -2.2174  0.8670 -1.5275
 1407TIP3   OH225855   1.796   1.866   7.799 -0.3291  0.2506 -0.3167
 1407TIP3    H125856   1.857   1.928   7.760  1.0784 -0.1146  1.1934
 1407TIP3    H225857   1.816   1.782   7.757 -0.4803  0.3205 -0.5298
 1408TIP3   OH225858   5.644   1.923   7.880  0.6388 -0.2588 -0.3159
 1408TIP3    H125859   5.721   1.977   7.897  2.0459 -2.0429 -0.7389
 1408TIP3    H225860   5.597   1.970   7.811  0.8595  1.2830  0.5337
 1409TIP3   OH225861   3.497   2.088   1.296 -0.2214 -0.5125  0.5036
 1409TIP3    H125862   3.427   2.133   1.343 -0.7655 -2.9883  2.2373
 1409TIP3    H225863   3.456   2.059   1.214 -0.4634  0.2405  0.3503
 1410TIP3   OH225864   6.651   5.375   1.810 -0.6688  0.5510 -0.1667
 1410TIP3    H125865   6.658   5.307   1.878 -1.0382 -0.7253 -1.3646
 1410TIP3    H225866   6.741   5.387   1.780 -0.7074 -0.0314 -0.5298
 1411TIP3   OH225867   4.881   3.172   8.146  0.0046  0.2063 -0.1655
 1411TIP3    H125868   4.830   3.184   8.066  0.4891 -2.9073 -1.0601
 1411TIP3    H225869   4.817   3.180   8.217 -1.3606 -1.5513 -1.1409
 1412TIP3   OH225870   3.012   4.330   1.855 -0.4143 -0.2097  0.1591
 1412TIP3    H125871   2.963   4.279   1.920  1.0673 -2.4515 -0.3557
 1412TIP3    H225872   3.083   4.272   1.828  0.0253  1.2975 -2.2181
 1413TIP3   OH225873   0.197   2.173   1.319 -0.5292  0.1336 -0.3152
 1413TIP3    H125874   0.161   2.191   1.406 -0.3501 -0.3293 -0.1451
 1413TIP3    H225875   0.259   2.101   1.332  1.4144  1.7074 -0.3736
 1414TIP3   OH225876   5.536   5.548   1.879 -0.1424  0.0747 -0.4638
 1414TIP3    H125877   5.462   5.496   1.911 -0.0350 -0.6680 -1.4148
 1414TIP3    H225878   5.594   5.486   1.836  0.7531  0.7459 -0.2612
 1415TIP3   OH225879   1.768   5.707   8.275 -0.3273  0.7035  0.0223
 1415TIP3    H125880   1.725   5.621   8.270  0.4047  0.2507  1.3266
 1415TIP3    H225881   1.841   5.701   8.213 -2.2219  1.6104 -2.5214
 1416TIP3   OH225882   3.361   1.067   1.536  0.0349  0.3408  1.0301
 1416TIP3    H125883   3.344   1.043   1.627 -2.0268 -2.1118  0.1239
 1416TIP3    H225884   3.286   1.033   1.488  0.7141  2.1725 -1.5501
 1417TIP3   OH225885   1.072   1.999   1.799  0.0919 -0.0923 -0.1925
 1417TIP3    H125886   1.109   2.050   1.727  0.4239  1.1579  0.8222
 1417TIP3    H225887   1.135   2.012   1.871 -0.9607 -0.1240  0.7527
 1418TIP3   OH225888   5.380   6.326   8.523  0.9256 -0.3233  0.0283
 1418TIP3    H125889   5.293   6.299   8.497  0.9439 -0.6998  0.3516
 1418TIP3    H225890   5.439   6.278   8.465  0.9222 -0.1441 -0.1247
 1419TIP3   OH225891   5.992   3.758   0.903 -0.5539  0.3059  0.6170
 1419TIP3    H125892   5.930   3.714   0.962 -0.6910 -0.7626 -0.2867
 1419TIP3    H225893   6.078   3.736   0.938 -0.6472  0.0775  0.7111
 1420TIP3   OH225894   1.778   4.966   7.133 -1.1226  0.4628 -0.1004
 1420TIP3    H125895   1.720   5.006   7.068  1.2834  0.8287 -2.2098
 1420TIP3    H225896   1.810   4.886   7.090 -0.0254  0.3109  0.9331
 1421TIP3   OH225897   6.197   5.886   1.312  0.2572 -0.5150 -0.3120
 1421TIP3    H125898   6.240   5.911   1.394 -0.6854  2.9655 -0.7615
 1421TIP3    H225899   6.104   5.887   1.332 -0.1311  2.2931 -1.7522
 1422TIP3   OH225900   2.771   5.645   9.142  0.0047 -0.1454 -0.1647
 1422TIP3    H125901   2.684   5.644   9.103  0.1529  4.0818 -1.0925
 1422TIP3    H225902   2.755   5.633   9.236 -1.5889  0.5511 -0.3118
 1423TIP3   OH225903   6.573   4.072   2.042 -0.0642  0.0173 -0.0511
 1423TIP3    H125904   6.521   4.121   2.105  0.9337 -0.4076  1.1356
 1423TIP3    H225905   6.592   3.989   2.085  1.8322  0.2778 -0.2980
 1424TIP3   OH225906   2.786   2.222   7.809  0.2562  0.4647 -0.4896
 1424TIP3    H125907   2.815   2.295   7.755  1.1643  0.4685 -0.0181
 1424TIP3    H225908   2.692   2.236   7.820  0.4431  1.6562 -0.2659
 1425TIP3   OH225909   1.824   2.792   8.123  0.0692  0.1095 -0.1828
 1425TIP3    H125910   1.840   2.821   8.034  0.0555  0.3320 -0.1123
 1425TIP3    H225911   1.904   2.745   8.148  1.1012  2.1155  0.5486
 1426TIP3   OH225912   5.009   4.120   8.885 -0.2700  0.0872  0.2778
 1426TIP3    H125913   5.025   4.067   8.808  4.7772  0.3483  0.8320
 1426TIP3    H225914   4.962   4.062   8.946 -4.7140 -0.0092 -2.7576
 1427TIP3   OH225915   0.031   0.668   8.579 -0.0790  0.1177 -0.4141
 1427TIP3    H125916   0.102   0.649   8.640 -0.4477  1.8227  0.5847
 1427TIP3    H225917   0.042   0.760   8.556 -1.5827  0.2345 -0.7596
 1428TIP3   OH225918   0.387   0.735   2.304  0.7717  0.3243  0.1600
 1428TIP3    H125919   0.444   0.802   2.265  1.4923 -0.6850 -0.5627
 1428TIP3    H225920   0.359   0.773   2.388  1.5904  1.3043  0.0042
 1429TIP3   OH225921   5.016   5.155   7.545  0.4577 -0.4053  0.2721
 1429TIP3    H125922   5.092   5.110   7.509  0.0752 -0.1299 -0.9386
 1429TIP3    H225923   5.008   5.122   7.635  1.8638 -0.5893  0.3416
 1430TIP3   OH225924   5.380   5.885   1.629 -0.4157  0.1572 -0.2773
 1430TIP3    H125925   5.388   5.928   1.714  0.8655 -0.0418 -0.2820
 1430TIP3    H225926   5.432   5.805   1.637  1.3740  1.0761 -1.8265
 1431TIP3   OH225927   1.314   4.133   0.566 -0.3650 -0.3882  0.1750
 1431TIP3    H125928   1.404   4.165   0.572 -0.5659 -0.0586  1.9353
 1431TIP3    H225929   1.277   4.180   0.491  1.3357 -1.7174 -1.6246
 1432TIP3   OH225930   6.176   5.061   7.073 -0.4422 -0.0123  0.4473
 1432TIP3    H125931   6.101   5.115   7.052 -0.0741  0.9743  1.5477
 1432TIP3    H225932   6.248   5.123   7.087 -0.3493 -0.5999  3.1601
 1433TIP3   OH225933   1.750   6.030   1.945 -0.3746 -0.3103  0.0681
 1433TIP3    H125934   1.683   6.020   1.877 -1.1283 -0.8442  0.8627
 1433TIP3    H225935   1.711   6.092   2.007 -0.1109 -0.5730  0.4982
 1434TIP3   OH225936   0.096   2.211   3.302  0.2837  0.2933  0.5132
 1434TIP3    H125937   0.035   2.210   3.376 -1.4392  0.5733 -0.8261
 1434TIP3    H225938   0.090   2.301   3.268  2.0306  0.5415  0.7729
 1435TIP3   OH225939   4.957   3.680   3.062  0.2063 -0.3936  0.2365
 1435TIP3    H125940   5.007   3.737   3.120  1.1665 -0.3679 -0.5898
 1435TIP3    H225941   4.928   3.608   3.119  0.9376 -0.2580  0.7922
 1436TIP3   OH225942   6.323   6.407   0.157  0.4436  0.2566 -0.0723
 1436TIP3    H125943   6.392   6.438   0.216  1.1094  1.6120 -1.4804
 1436TIP3    H225944   6.268   6.351   0.211  0.4561  2.1779  2.0806
 1437TIP3   OH225945   5.687   5.340   8.282 -0.5262  0.5719  0.0894
 1437TIP3    H125946   5.708   5.369   8.193 -0.1526  2.6633  0.7997
 1437TIP3    H225947   5.727   5.254   8.289 -0.3077  0.4865 -1.6533
 1438TIP3   OH225948   3.003   1.561   1.761  0.0254  0.0655 -0.3122
 1438TIP3    H125949   3.095   1.574   1.786 -0.3785 -1.1737  2.1039
 1438TIP3    H225950   3.004   1.479   1.711  0.4212  0.9583 -1.8361
 1439TIP3   OH225951   3.415   1.903   1.067 -0.1389  0.3984  0.0131
 1439TIP3    H125952   3.509   1.886   1.060  0.1399  1.8120 -0.0879
 1439TIP3    H225953   3.374   1.817   1.063  1.0567 -0.1302 -1.4760
 1440TIP3   OH225954   3.948   4.152   0.606  0.1511  0.2965  0.6451
 1440TIP3    H125955   4.019   4.186   0.660  0.3401  2.4092 -0.7998
 1440TIP3    H225956   3.930   4.222   0.544 -1.9421 -0.9347 -0.2354
 1441TIP3   OH225957   4.763   4.237   1.165  0.2266 -0.3138  0.7821
 1441TIP3    H125958   4.850   4.270   1.187 -0.1824  0.2676  1.5637
 1441TIP3    H225959   4.733   4.295   1.095  0.4628 -0.5094  0.5172
 1442TIP3   OH225960   1.570   1.224   0.330 -0.2990  0.1587 -0.6752
 1442TIP3    H125961   1.508   1.254   0.396 -1.4490  1.1851 -2.1685
 1442TIP3    H225962   1.596   1.303   0.283  1.1037 -0.4447 -0.9771
 1443TIP3   OH225963   1.136   0.590   2.941  0.4273  0.0360 -0.0727
 1443TIP3    H125964   1.117   0.570   3.032  0.5572 -0.3815 -0.1341
 1443TIP3    H225965   1.219   0.637   2.944  0.0635  0.6839  0.0820
 1444TIP3   OH225966   1.316   5.915   3.348  0.0916 -0.1087 -0.1547
 1444TIP3    H125967   1.284   5.859   3.419 -2.2458  1.6718  0.3428
 1444TIP3    H225968   1.293   5.868   3.268 -2.4780  0.3393  0.2384
 1445TIP3   OH225969   1.426   0.531   8.847  0.1984 -0.0044 -0.3094
 1445TIP3    H125970   1.495   0.537   8.913  1.5864  0.3372 -1.7282
 1445TIP3    H225971   1.392   0.620   8.840 -0.5098 -0.1991  0.4861
 1446TIP3   OH225972   5.922   0.409   9.203  0.0951  0.1823 -0.0249
 1446TIP3    H125973   5.855   0.367   9.257 -0.4049  0.9704 -0.0065
 1446TIP3    H225974   5.872   0.449   9.132  0.6346  0.1318 -0.4407
 1447TIP3   OH225975   0.063   5.551   9.135  0.2866 -0.3362 -0.3593
 1447TIP3    H125976   0.004   5.496   9.083  0.4958 -3.1671  2.1508
 1447TIP3    H225977   0.018   5.562   9.218  1.6656  0.7126  0.2738
 1448TIP3   OH225978   6.095   6.135   8.579  0.3435 -0.0114 -0.0531
 1448TIP3    H125979   6.143   6.070   8.630  0.7398 -1.1474 -1.8056
 1448TIP3    H225980   6.023   6.086   8.539  1.4582  0.2249 -2.5548
 1449TIP3   OH225981   5.990   4.701   7.638 -0.2882 -0.0394  0.4843
 1449TIP3    H125982   6.045   4.756   7.693  0.2892 -0.7887  0.6602
 1449TIP3    H225983   6.035   4.617   7.634 -0.1881  0.0725 -1.3388
 1450TIP3   OH225984   1.371   2.335   0.526 -0.1436 -0.2324 -0.3210
 1450TIP3    H125985   1.457   2.296   0.512 -0.6290 -0.9565 -1.4248
 1450TIP3    H225986   1.375   2.419   0.480  0.5626  0.5982  1.1949
 1451TIP3   OH225987   2.289   4.322   7.273 -0.2632  0.2419  0.3294
 1451TIP3    H125988   2.379   4.321   7.306 -0.9870 -0.1456  2.4835
 1451TIP3    H225989   2.236   4.302   7.350 -2.4066  3.1220 -0.2379
 1452TIP3   OH225990   4.190   1.143   0.765 -0.1061 -0.0634  0.0360
 1452TIP3    H125991   4.271   1.118   0.811  0.8348  1.2485 -0.8281
 1452TIP3    H225992   4.208   1.123   0.673  0.3351  2.6722 -0.5636
 1453TIP3   OH225993   0.330   0.131   0.915 -0.3640  0.1778  0.7555
 1453TIP3    H125994   0.333   0.140   1.010 -0.1505 -0.9330  0.8722
 1453TIP3    H225995   0.419   0.150   0.886  0.7256 -3.4114  1.2279
 1454TIP3   OH225996   4.862   4.802   2.778 -0.0127 -0.4007  0.2414
 1454TIP3    H125997   4.838   4.729   2.721 -1.3148  1.1687 -1.3291
 1454TIP3    H225998   4.815   4.785   2.860  0.6172 -1.8769  0.3276
 1455TIP3   OH225999   1.987   6.101   9.133  0.1366  0.5657 -0.5423
 1455TIP3    H126000   2.024   6.111   9.221 -0.9533  1.2640 -0.1430
 1455TIP3    H226001   1.955   6.010   9.131 -1.7744  1.1364  0.6022
 1456TIP3   OH226002   5.483   2.114   8.299  0.0172 -0.2279 -0.0787
 1456TIP3    H126003   5.436   2.031   8.300  0.5403 -0.5271  0.5185
 1456TIP3    H226004   5.514   2.124   8.209 -1.6570  0.2548 -0.6385
 1457TIP3   OH226005   1.341   6.550   2.751  0.0809 -0.2920  0.3670
 1457TIP3    H126006   1.310   6.501   2.674  1.6669 -0.4309 -0.2136
 1457TIP3    H226007   1.434   6.529   2.757  0.2265  0.6173  1.6775
 1458TIP3   OH226008   4.371   5.420   7.724 -0.9057  0.3229  0.4891
 1458TIP3    H126009   4.348   5.490   7.663 -1.2025  1.0170  1.3819
 1458TIP3    H226010   4.337   5.449   7.808  0.1572 -0.2755  1.1498
 1459TIP3   OH226011   3.349   1.909   8.797 -0.4494 -0.4850 -0.1827
 1459TIP3    H126012   3.405   1.911   8.719  0.0124  0.8247  0.1605
 1459TIP3    H226013   3.395   1.963   8.861 -0.9293 -1.3667  0.9422
 1460TIP3   OH226014   1.436   1.774   8.163  0.8185 -0.3578  0.2093
 1460TIP3    H126015   1.468   1.830   8.092  2.5874 -1.4563  0.0869
 1460TIP3    H226016   1.505   1.776   8.229 -0.5006  0.0995  1.6462
 1461TIP3   OH226017   0.430   5.045   0.189 -0.2758  0.1129  0.4725
 1461TIP3    H126018   0.486   5.036   0.266 -0.3056 -1.2599  0.3577
 1461TIP3    H226019   0.486   5.085   0.123 -0.2825  1.4054  1.2201
 1462TIP3   OH226020   3.368   0.023   7.707  0.2910  0.6052  0.1348
 1462TIP3    H126021   3.461  -0.002   7.703  0.3850  0.9577  0.0846
 1462TIP3    H226022   3.339   0.020   7.616  0.3130  0.7197  0.1243
 1463TIP3   OH226023   6.135   3.652   8.652  0.4913 -0.2586  0.0323
 1463TIP3    H126024   6.060   3.689   8.699  0.3548  0.3646 -0.6802
 1463TIP3    H226025   6.124   3.557   8.663  0.2189 -0.1412  0.8833
 1464TIP3   OH226026   4.771   4.462   7.995  0.0017 -0.4740  0.6318
 1464TIP3    H126027   4.839   4.417   7.944 -0.8626  0.4546 -1.4489
 1464TIP3    H226028   4.756   4.544   7.949 -0.9909  0.3461  2.3149
 1465TIP3   OH226029   0.398   4.409   2.174 -0.2842 -0.0780  0.0610
 1465TIP3    H126030   0.448   4.417   2.093 -1.2795  1.0566 -0.4617
 1465TIP3    H226031   0.456   4.446   2.241  0.1834 -0.2002 -0.2693
 1466TIP3   OH226032   0.937   1.982   0.319 -0.5218 -0.3947 -0.1433
 1466TIP3    H126033   0.930   2.020   0.406  0.7490 -0.8578  0.1778
 1466TIP3    H226034   0.852   2.001   0.278 -0.5119  1.3856  0.5475
 1467TIP3   OH226035   5.781   3.315   1.326 -0.3561 -0.4319  0.4152
 1467TIP3    H126036   5.780   3.282   1.236  0.3855 -2.1214  0.9852
 1467TIP3    H226037   5.772   3.237   1.381  1.9053  0.2315  1.8742
 1468TIP3   OH226038   2.682   4.080   9.079  1.0219  0.0910 -0.0087
 1468TIP3    H126039   2.771   4.096   9.108  0.7014 -0.3400  1.2621
 1468TIP3    H226040   2.690   4.010   9.014  1.5459 -0.4199  0.5951
 1469TIP3   OH226041   3.756   6.424   7.879  0.4452  0.0654 -0.5492
 1469TIP3    H126042   3.704   6.499   7.908 -1.8912 -1.6538  0.0872
 1469TIP3    H226043   3.750   6.425   7.784 -2.1473 -0.8650 -0.4851
 1470TIP3   OH226044   5.702   4.306   1.408 -0.7667 -0.1201 -0.2269
 1470TIP3    H126045   5.644   4.232   1.393 -1.0004 -0.0547  0.3483
 1470TIP3    H226046   5.676   4.341   1.493 -1.4391  1.3478 -0.9925
 1471TIP3   OH226047   0.500   1.758   0.390 -0.0665 -0.5502 -0.0568
 1471TIP3    H126048   0.505   1.833   0.330 -0.0554 -0.4324  0.0896
 1471TIP3    H226049   0.569   1.698   0.360  2.0015  0.8108  1.6063
 1472TIP3   OH226050   1.950   2.800   2.673 -0.1133  0.3438  0.0886
 1472TIP3    H126051   1.858   2.774   2.675  0.2652 -0.9994  1.3156
 1472TIP3    H226052   1.998   2.720   2.696  1.2448  1.5723  1.7010
 1473TIP3   OH226053   6.007   1.003   2.891 -0.0629  0.2846 -0.0498
 1473TIP3    H126054   5.940   1.055   2.936  1.5014  1.7787  0.6575
 1473TIP3    H226055   6.064   0.971   2.961 -0.8244 -2.2979 -0.4786
 1474TIP3   OH226056   3.205   3.391   0.267 -0.0204  0.6335  0.5474
 1474TIP3    H126057   3.123   3.439   0.252 -0.4021 -0.2329 -0.2138
 1474TIP3    H226058   3.177   3.302   0.288  0.6526  0.8687  2.6705
 1475TIP3   OH226059   4.889   3.995   0.658  0.1702  0.1892 -0.5426
 1475TIP3    H126060   4.930   3.974   0.742 -1.3081 -1.9239 -0.2688
 1475TIP3    H226061   4.809   4.043   0.683  0.2157  0.3995 -0.8026
 1476TIP3   OH226062   3.021   1.192   8.956  0.6147 -0.3034  0.6683
 1476TIP3    H126063   2.950   1.255   8.971  0.4656 -0.6479  1.4521
 1476TIP3    H226064   2.980   1.106   8.964  0.7149 -0.5246 -0.9010
 1477TIP3   OH226065   1.185   0.432   0.339 -0.0826 -0.1660 -0.0819
 1477TIP3    H126066   1.180   0.344   0.300  2.1037 -0.2294 -0.3430
 1477TIP3    H226067   1.157   0.491   0.269  0.0605 -0.5386 -0.4603
 1478TIP3   OH226068   3.410   6.281   2.443 -0.0102 -0.9460 -0.3010
 1478TIP3    H126069   3.361   6.319   2.515 -0.9541 -2.4066 -0.1541
 1478TIP3    H226070   3.348   6.277   2.370  0.9785  0.6862 -1.2973
 1479TIP3   OH226071   1.677   5.022   7.771 -0.5544 -0.5426 -0.4348
 1479TIP3    H126072   1.622   4.955   7.811 -0.6221  0.3034  0.9604
 1479TIP3    H226073   1.633   5.104   7.791  0.5548  0.0582 -0.3844
 1480TIP3   OH226074   0.209   3.768   0.771 -0.0313  0.0041 -0.1138
 1480TIP3    H126075   0.164   3.779   0.854  0.2572 -0.1897  0.0707
 1480TIP3    H226076   0.302   3.778   0.793  0.0591 -0.2519 -0.3770
 1481TIP3   OH226077   3.080   5.876   0.973 -0.0606  0.4935 -0.0185
 1481TIP3    H126078   3.136   5.947   0.940  0.0172  0.8584  0.8569
 1481TIP3    H226079   3.048   5.832   0.895 -1.0566  2.2293 -0.6527
 1482TIP3   OH226080   3.293   2.649   0.085 -0.2304 -0.1959 -0.8569
 1482TIP3    H126081   3.206   2.611   0.071 -0.5972  0.4780 -0.4559
 1482TIP3    H226082   3.352   2.591   0.038 -0.2946 -3.4295  2.6193
 1483TIP3   OH226083   3.104   6.637   7.836 -0.1451 -0.1711  0.0654
 1483TIP3    H126084   3.013   6.634   7.867 -0.3226  1.5264 -0.2044
 1483TIP3    H226085   3.097   6.635   7.741  0.0712  0.4093  0.0356
 1484TIP3   OH226086   0.669   3.417   7.060 -0.1805 -0.0599 -0.0018
 1484TIP3    H126087   0.580   3.449   7.074 -0.0601  0.9669 -1.3961
 1484TIP3    H226088   0.691   3.371   7.141 -0.9481  2.0463  1.4873
 1485TIP3   OH226089   3.082   6.300   7.804  0.2571  0.0355 -0.5101
 1485TIP3    H126090   3.046   6.328   7.720  1.2538 -1.5906 -1.5193
 1485TIP3    H226091   3.164   6.349   7.813  0.4619 -0.2504 -0.7964
 1486TIP3   OH226092   5.277   1.566   8.877 -0.1222 -0.0854  0.0246
 1486TIP3    H126093   5.200   1.587   8.824  0.3905 -0.9572 -1.1068
 1486TIP3    H226094   5.276   1.631   8.947 -0.6207  1.3691 -1.2555
 1487TIP3   OH226095   3.967   1.001   2.754  0.2758  0.7185 -0.0970
 1487TIP3    H126096   4.016   0.956   2.822  0.3469  0.8890 -0.0352
 1487TIP3    H226097   4.023   0.995   2.676  0.9839  2.0028  0.2777
 1488TIP3   OH226098   6.062   1.951   9.182  0.1747 -0.3043  0.5140
 1488TIP3    H126099   6.093   1.866   9.150  0.0961 -0.6708  1.3880
 1488TIP3    H226100   5.969   1.937   9.202 -0.1427  0.3207 -0.4666
 1489TIP3   OH226101   0.023   0.155   1.001 -0.3040  0.3733 -0.0925
 1489TIP3    H126102   0.058   0.206   0.928 -1.3992  1.2214 -0.0552
 1489TIP3    H226103   0.093   0.156   1.066 -0.0836  1.3611 -0.3271
 1490TIP3   OH226104   1.442   4.115   2.468 -0.3456 -0.3884  0.0783
 1490TIP3    H126105   1.513   4.172   2.436 -1.8232  0.3836 -2.1177
 1490TIP3    H226106   1.481   4.067   2.541  1.8567  1.3402  0.1774
 1491TIP3   OH226107   5.064   2.387   0.511 -0.2738  0.0260 -0.0268
 1491TIP3    H126108   5.102   2.414   0.595 -1.0249 -1.0260  0.6827
 1491TIP3    H226109   5.087   2.295   0.503 -1.6626 -0.3346 -0.1255
 1492TIP3   OH226110   1.882   1.303   1.092  0.2956 -0.0937  0.8223
 1492TIP3    H126111   1.863   1.225   1.041 -0.5965  0.7117 -0.1174
 1492TIP3    H226112   1.837   1.289   1.175 -0.1582 -0.4208  0.5267
 1493TIP3   OH226113   6.331   5.981   0.343  0.4627  0.4818 -0.1653
 1493TIP3    H126114   6.272   6.015   0.275 -0.5397 -0.9770 -0.0771
 1493TIP3    H226115   6.407   5.949   0.294  0.0590  0.0850 -0.5468
 1494TIP3   OH226116   1.691   0.389   0.608 -0.2319  0.2770 -0.0349
 1494TIP3    H126117   1.611   0.342   0.583  0.8533 -0.0308 -3.4532
 1494TIP3    H226118   1.755   0.319   0.625  0.6888  0.3642 -2.6615
 1495TIP3   OH226119   5.245   2.632   0.925 -0.0199 -0.0172 -0.0391
 1495TIP3    H126120   5.263   2.691   0.998  2.5514  1.4676 -1.7424
 1495TIP3    H226121   5.186   2.681   0.868 -1.1012 -0.7367  0.4096
 1496TIP3   OH226122   6.656   2.953   7.602 -0.0573  0.5214  0.5882
 1496TIP3    H126123   6.734   2.990   7.560 -1.4080 -0.3745 -3.0998
 1496TIP3    H226124   6.590   3.021   7.592 -0.6815 -0.1199  0.3145
 1497TIP3   OH226125   6.340   6.055   7.548 -0.1124 -0.4161  0.0342
 1497TIP3    H126126   6.405   6.123   7.531  0.2703 -0.8892 -0.4290
 1497TIP3    H226127   6.331   6.009   7.464 -1.7204  0.2127 -0.1778
 1498TIP3   OH226128   5.718   1.021   2.502 -0.0908 -0.3513 -0.1578
 1498TIP3    H126129   5.647   0.956   2.498 -0.4328 -0.0497  0.8873
 1498TIP3    H226130   5.772   0.992   2.575 -1.1455  1.4269  1.3994
 1499TIP3   OH226131   3.084   3.992   0.638  0.3418  0.6114  0.2811
 1499TIP3    H126132   3.109   4.014   0.728  1.7454 -3.1986  0.9870
 1499TIP3    H226133   3.159   3.945   0.603 -0.6941  0.8398 -2.5083
 1500TIP3   OH226134   1.291   1.453   0.984  0.3657 -0.3819  0.0661
 1500TIP3    H126135   1.382   1.448   0.955  0.7297  1.8855  0.6709
 1500TIP3    H226136   1.295   1.493   1.071 -1.2225 -0.0501  0.0281
 1501TIP3   OH226137   1.961   6.434   2.006  0.5536  0.2487  0.2152
 1501TIP3    H126138   1.914   6.514   2.031 -3.1548 -1.8324  0.6914
 1501TIP3    H226139   1.998   6.402   2.088  1.8556  1.2816  0.0644
 1502TIP3   OH226140   6.198   2.317   1.103  0.6854 -0.1589 -0.4148
 1502TIP3    H126141   6.279   2.277   1.071  0.3770 -1.2474  0.1164
 1502TIP3    H226142   6.207   2.316   1.198  0.6895  1.1103 -0.3930
 1503TIP3   OH226143   6.550   1.438   0.129  0.5892  0.0304 -0.0444
 1503TIP3    H126144   6.504   1.355   0.116  1.6252 -1.0244  2.3320
 1503TIP3    H226145   6.511   1.475   0.208 -0.1697  2.1077 -1.3196
 1504TIP3   OH226146   0.462   2.112   2.228  0.5207 -0.4088 -0.0874
 1504TIP3    H126147   0.500   2.075   2.149  0.2302  0.4785 -0.6619
 1504TIP3    H226148   0.510   2.194   2.241 -0.3838  0.1401 -0.1495
 1505TIP3   OH226149   5.679   2.941   7.904  0.8535  0.7440 -0.5068
 1505TIP3    H126150   5.677   2.885   7.827  0.0136  1.1503 -0.7912
 1505TIP3    H226151   5.761   2.918   7.948  1.0879  0.1382 -1.2368
 1506TIP3   OH226152   4.112   2.117   2.605  0.4404  0.4424  0.4484
 1506TIP3    H126153   4.169   2.162   2.666  0.7185 -0.3819  0.8186
 1506TIP3    H226154   4.170   2.061   2.554 -0.0636 -0.8163  1.1945
 1507TIP3   OH226155   3.206   2.854   1.173 -0.2942 -0.2476  0.0163
 1507TIP3    H126156   3.191   2.830   1.081 -0.8744  1.0332 -0.2495
 1507TIP3    H226157   3.284   2.909   1.170  0.6438 -1.5105  0.5258
 1508TIP3   OH226158   2.515   3.118   1.907 -0.0530  0.2115 -0.0964
 1508TIP3    H126159   2.534   3.032   1.869 -1.0622  0.0066 -0.1620
 1508TIP3    H226160   2.512   3.177   1.831 -0.7279  0.0474 -0.2028
 1509TIP3   OH226161   2.840   5.177   7.205  0.5232  0.4282 -0.1428
 1509TIP3    H126162   2.816   5.265   7.234 -0.3751  0.2610 -0.3456
 1509TIP3    H226163   2.934   5.182   7.188  0.5474  1.2484  0.1934
 1510TIP3   OH226164   6.686   2.904   1.830  0.0241 -0.2499 -0.3850
 1510TIP3    H126165   6.723   2.914   1.742 -0.6253  0.9554 -0.5438
 1510TIP3    H226166   6.624   2.831   1.821  1.1558 -1.2221 -0.5009
 1511TIP3   OH226167   1.090   5.041   2.486  0.2550  0.1074 -0.0975
 1511TIP3    H126168   1.167   5.056   2.432  1.5584 -1.3277  1.2672
 1511TIP3    H226169   1.121   4.986   2.557 -2.0428 -0.4964  0.5167
 1512TIP3   OH226170   0.673   4.375   0.733 -0.5827 -0.5994  0.0402
 1512TIP3    H126171   0.736   4.365   0.804 -0.7427  1.8592  0.6047
 1512TIP3    H226172   0.727   4.383   0.654 -0.0260  2.4645  0.6280
 1513TIP3   OH226173   4.727   6.542   2.109  0.0224  0.3325  0.3037
 1513TIP3    H126174   4.708   6.448   2.119  1.1026  0.2060  1.3392
 1513TIP3    H226175   4.653   6.575   2.057 -0.5597 -1.0171  0.2125
 1514TIP3   OH226176   0.161   5.163   8.132 -0.3953  0.2444  0.7298
 1514TIP3    H126177   0.167   5.078   8.176  1.4207 -0.1763 -0.2573
 1514TIP3    H226178   0.113   5.145   8.051 -0.1738  0.1937  0.6094
 1515TIP3   OH226179   4.736   5.822   2.550 -0.0573  0.3181 -0.2669
 1515TIP3    H126180   4.758   5.750   2.610 -3.0671 -1.6975 -1.3630
 1515TIP3    H226181   4.653   5.856   2.584 -0.2746  1.1611 -1.5929
 1516TIP3   OH226182   5.385   4.805   0.870 -0.6493 -0.0345 -0.0989
 1516TIP3    H126183   5.366   4.893   0.903 -0.5224 -0.4170  1.0424
 1516TIP3    H226184   5.453   4.771   0.929 -0.5222 -0.8042 -0.6722
 1517TIP3   OH226185   2.763   6.683   1.527  0.0110  0.0233 -0.1829
 1517TIP3    H126186   2.780   6.760   1.581 -0.9423  0.2089 -0.1304
 1517TIP3    H226187   2.829   6.619   1.554  0.6288  0.7106 -0.0189
 1518TIP3   OH226188   4.421   2.802   8.383 -0.1064 -0.0229  0.6588
 1518TIP3    H126189   4.430   2.706   8.381 -1.1011 -0.1802 -2.4317
 1518TIP3    H226190   4.327   2.816   8.396 -0.3370  0.3803 -1.1375
 1519TIP3   OH226191   4.618   1.368   8.582  0.3958  0.1426 -0.7688
 1519TIP3    H126192   4.523   1.370   8.590  0.4563  0.4176  0.0026
 1519TIP3    H226193   4.639   1.277   8.566 -0.0682  0.2386 -2.0162
 1520TIP3   OH226194   3.728   1.404   1.646  0.3184 -0.8800  0.0898
 1520TIP3    H126195   3.658   1.350   1.683 -1.9940  0.4838 -1.9613
 1520TIP3    H226196   3.799   1.399   1.710 -1.4732 -2.6660  2.1048
 1521TIP3   OH226197   0.732   6.273   1.006  0.0749  0.4557  0.0833
 1521TIP3    H126198   0.689   6.357   1.020 -0.6626  0.2034 -0.6036
 1521TIP3    H226199   0.672   6.208   1.043 -0.4997  0.0453 -1.4644
 1522TIP3   OH226200   1.861   3.904   8.324  0.2286 -0.3186  0.1957
 1522TIP3    H126201   1.821   3.986   8.296 -1.2278 -0.7621  0.9236
 1522TIP3    H226202   1.922   3.882   8.253 -2.0042 -0.4880 -1.7710
 1523TIP3   OH226203   5.279   1.471   8.102  0.2067 -0.2818  0.0708
 1523TIP3    H126204   5.274   1.378   8.123  1.6088 -0.2487  0.6446
 1523TIP3    H226205   5.369   1.485   8.073 -0.2514  0.7201 -0.9294
 1524TIP3   OH226206   1.660   3.738   0.938  0.1397 -0.4483  0.5457
 1524TIP3    H126207   1.647   3.664   0.878 -2.4635  0.5420 -0.2692
 1524TIP3    H226208   1.721   3.796   0.893 -0.5089 -0.5009 -0.4340
 1525TIP3   OH226209   3.847   4.488   1.140  0.6200  0.8929 -0.3383
 1525TIP3    H126210   3.802   4.557   1.091 -2.3006  0.8187  1.9402
 1525TIP3    H226211   3.794   4.410   1.125  3.1987 -0.7099 -1.9134
 1526TIP3   OH226212   4.377   4.703   0.014  0.0120  0.0396 -0.1380
 1526TIP3    H126213   4.451   4.736   0.065  0.0629  0.0330 -0.2070
 1526TIP3    H226214   4.322   4.658   0.079 -0.7183  1.3635  0.1863
 1527TIP3   OH226215   2.005   4.069   0.575 -0.4682  0.2530  0.2023
 1527TIP3    H126216   1.952   3.996   0.607 -2.3588  1.0046 -1.0150
 1527TIP3    H226217   2.053   4.033   0.500 -0.6814  0.0188  0.1784
 1528TIP3   OH226218   0.167   1.214   7.877 -0.5955  0.0371  0.4216
 1528TIP3    H126219   0.095   1.270   7.848 -0.7701 -0.5175 -0.2457
 1528TIP3    H226220   0.188   1.161   7.800 -1.3622 -1.8027  1.4169
 1529TIP3   OH226221   3.829   0.353   2.943  0.4644 -0.9501  0.7273
 1529TIP3    H126222   3.758   0.356   2.879  2.6227  0.1696 -1.8380
 1529TIP3    H226223   3.882   0.277   2.916  0.7341 -1.2685  2.0641
 1530TIP3   OH226224   6.477   4.832   0.125 -0.8273 -0.3541 -0.2256
 1530TIP3    H126225   6.483   4.825   0.220 -2.0135  1.0049 -0.0135
 1530TIP3    H226226   6.567   4.845   0.095 -0.3477 -1.5888  0.6109
 1531TIP3   OH226227   5.029   4.361   8.161 -0.4972  0.5339 -0.4078
 1531TIP3    H126228   5.033   4.445   8.206  0.4812  0.1015  0.3455
 1531TIP3    H226229   4.950   4.319   8.195  0.8146 -0.2739  1.8492
 1532TIP3   OH226230   3.692   0.070   8.177  0.1760 -0.6646 -0.1438
 1532TIP3    H126231   3.697   0.163   8.197  0.3080 -0.9772  1.4168
 1532TIP3    H226232   3.686   0.066   8.081 -0.9553  0.9671 -0.1784
 1533TIP3   OH226233   3.429   2.261   1.822 -0.0157  0.4125  0.3056
 1533TIP3    H126234   3.433   2.172   1.787  1.2186  0.8006 -0.6115
 1533TIP3    H226235   3.410   2.249   1.915  1.5683 -0.9053  0.5172
 1534TIP3   OH226236   1.579   2.477   2.612 -0.4090  0.0646 -0.3590
 1534TIP3    H126237   1.588   2.383   2.628 -0.8498 -0.1169 -1.0844
 1534TIP3    H226238   1.504   2.483   2.551 -0.0823  0.8427 -0.6956
 1535TIP3   OH226239   5.809   2.815   8.487 -0.5575  0.4911 -0.7769
 1535TIP3    H126240   5.778   2.794   8.399 -0.9141 -0.1926 -0.4975
 1535TIP3    H226241   5.899   2.782   8.490 -1.3668 -1.8210 -0.0883
 1536TIP3   OH226242   5.754   2.345   2.281 -0.4071  0.0480 -0.0818
 1536TIP3    H126243   5.783   2.264   2.239 -0.3619  0.5048 -0.9603
 1536TIP3    H226244   5.758   2.411   2.211 -0.5372  0.7872  0.5933
 1537TIP3   OH226245   0.511   5.601   0.338  0.0516  0.4039  0.1548
 1537TIP3    H126246   0.521   5.661   0.264 -1.5169  0.7091  0.1610
 1537TIP3    H226247   0.587   5.544   0.332  0.2369  0.7589 -1.3828
 1538TIP3   OH226248   5.765   5.858   1.012 -0.3154  0.3826  0.8694
 1538TIP3    H126249   5.756   5.946   1.050 -0.1037  0.2071  1.3228
 1538TIP3    H226250   5.755   5.872   0.917  1.1124  1.0859  0.8055
 1539TIP3   OH226251   6.429   3.473   8.057 -0.4679 -0.0986 -0.1402
 1539TIP3    H126252   6.363   3.524   8.104  0.3817 -0.2736  1.3079
 1539TIP3    H226253   6.449   3.525   7.979 -1.4167  0.5360  0.0211
 1540TIP3   OH226254   1.516   1.153   0.821  0.2464 -0.5255 -0.3227
 1540TIP3    H126255   1.606   1.143   0.790  0.0888 -2.0512 -0.3247
 1540TIP3    H226256   1.519   1.232   0.876  0.8274  1.4464 -2.9879
 1541TIP3   OH226257   6.152   1.867   1.178  0.0562 -0.1406 -0.0152
 1541TIP3    H126258   6.223   1.885   1.239  0.3915  1.1126 -0.7366
 1541TIP3    H226259   6.073   1.866   1.231  0.5562 -1.1904  0.7426
 1542TIP3   OH226260   4.747   2.045   0.747 -0.2323 -0.7791 -0.0811
 1542TIP3    H126261   4.805   2.082   0.680  1.1297 -3.2002 -0.3696
 1542TIP3    H226262   4.698   2.120   0.780  2.1432  1.2242 -0.7512
 1543TIP3   OH226263   3.507   3.476   0.893 -0.1313  0.1236 -0.2396
 1543TIP3    H126264   3.594   3.481   0.855 -0.6917 -0.2399 -1.6591
 1543TIP3    H226265   3.461   3.411   0.838 -1.2691  0.2796  0.4968
 1544TIP3   OH226266   6.075   3.917   8.070 -0.0403  0.8228 -0.0474
 1544TIP3    H126267   6.154   3.943   8.117  0.4740 -1.1659  0.2904
 1544TIP3    H226268   6.103   3.908   7.979  0.3731 -0.6809  0.2020
 1545TIP3   OH226269   1.041   0.362   7.853  0.2880 -0.1479  0.1636
 1545TIP3    H126270   1.035   0.355   7.758 -1.9609 -1.4081  0.3231
 1545TIP3    H226271   0.990   0.441   7.874  2.0093  0.9874  0.2801
 1546TIP3   OH226272   2.750   6.672   2.467  0.0377  0.0991 -0.3198
 1546TIP3    H126273   2.714   6.743   2.414  0.5071 -0.0741 -0.8830
 1546TIP3    H226274   2.741   6.702   2.557  0.5871  1.0566 -0.5682
 1547TIP3   OH226275   1.866   0.272   8.199  0.4200 -0.6512  0.0565
 1547TIP3    H126276   1.862   0.198   8.138 -2.3799  2.1233 -3.5926
 1547TIP3    H226277   1.829   0.238   8.281  2.2595 -4.0047 -0.3343
 1548TIP3   OH226278   3.313   3.846   3.140 -0.0356 -0.3292 -0.0876
 1548TIP3    H126279   3.327   3.772   3.198 -0.7062  0.8395  1.6553
 1548TIP3    H226280   3.348   3.818   3.055  1.4385 -1.9117  0.9934
 1549TIP3   OH226281   2.734   5.026   1.668  0.2941  0.0620 -0.0439
 1549TIP3    H126282   2.750   4.949   1.722  0.8992 -0.3291 -0.7659
 1549TIP3    H226283   2.771   5.004   1.582 -2.1992 -0.0260 -1.1843
 1550TIP3   OH226284   0.160   6.413   1.032 -0.0549 -0.4666 -0.2588
 1550TIP3    H126285   0.183   6.481   0.969 -2.8087 -0.3449 -1.2460
 1550TIP3    H226286   0.166   6.457   1.117 -3.5453  1.7520 -0.9623
 1551TIP3   OH226287   2.467   0.119   1.460  0.1937  0.2743 -0.1779
 1551TIP3    H126288   2.542   0.073   1.421  0.4033  1.0823 -0.7520
 1551TIP3    H226289   2.458   0.198   1.407 -2.1206 -0.6109 -1.2178
 1552TIP3   OH226290   3.063   4.197   7.129 -0.4379  0.3701 -0.2602
 1552TIP3    H126291   2.973   4.224   7.109 -0.2868  0.4125 -0.8987
 1552TIP3    H226292   3.118   4.265   7.089 -0.1371  0.8129  0.8648
 1553TIP3   OH226293   3.345   1.037   8.828 -0.3841  0.0160  0.5863
 1553TIP3    H126294   3.310   1.118   8.789 -1.5102 -0.5606  0.3494
 1553TIP3    H226295   3.319   1.042   8.920 -0.1816  0.0746  0.6398
 1554TIP3   OH226296   3.361   3.281   1.585 -0.0864 -0.4393 -0.4505
 1554TIP3    H126297   3.302   3.304   1.513  1.9197 -0.0816 -2.0700
 1554TIP3    H226298   3.304   3.274   1.662 -2.0509  0.9906 -1.6900
 1555TIP3   OH226299   1.713   2.578   0.319 -0.0185  0.0028  0.0376
 1555TIP3    H126300   1.664   2.549   0.242 -0.6479  1.5853 -0.1958
 1555TIP3    H226301   1.725   2.499   0.371 -0.1030 -0.9822 -1.3998
 1556TIP3   OH226302   6.698   0.242   8.289 -0.4762 -1.5958  0.4414
 1556TIP3    H126303   6.752   0.195   8.352  1.9256 -0.3635 -0.5463
 1556TIP3    H226304   6.714   0.198   8.205 -0.0142 -0.5002 -0.0725
 1557TIP3   OH226305   3.703   6.514   0.034  0.1273 -0.1135  0.2513
 1557TIP3    H126306   3.708   6.585   0.097  0.1658  1.0829 -1.0419
 1557TIP3    H226307   3.610   6.506   0.015  0.1862  0.1037 -0.1442
 1558TIP3   OH226308   6.063   1.485   9.097  0.2529 -0.1851  0.1206
 1558TIP3    H126309   6.101   1.506   9.012 -1.5980  0.4600 -0.5917
 1558TIP3    H226310   6.063   1.567   9.145  1.1064 -0.5056  0.7040
 1559TIP3   OH226311   2.802   1.747   3.710 -0.5044  0.2022  0.1292
 1559TIP3    H126312   2.725   1.695   3.686 -0.3695  0.4512 -0.8924
 1559TIP3    H226313   2.870   1.717   3.650 -0.6590  2.1575 -1.1211
 1560TIP3   OH226314   1.736   0.703   8.507 -0.2517 -0.0527  0.3920
 1560TIP3    H126315   1.648   0.725   8.537 -0.3933  1.4102 -0.9743
 1560TIP3    H226316   1.732   0.712   8.412  1.8181  1.8635  0.3956
 1561TIP3   OH226317   1.349   5.660   1.817  0.4381 -0.2854 -0.1490
 1561TIP3    H126318   1.427   5.687   1.865  0.2334 -2.2460  1.4005
 1561TIP3    H226319   1.285   5.639   1.885 -0.1106 -2.4955 -1.2706
 1562TIP3   OH226320   2.879   0.433   7.953  0.4462  0.0619  0.8911
 1562TIP3    H126321   2.958   0.464   7.996  0.8612 -1.8130  1.6127
 1562TIP3    H226322   2.894   0.450   7.860  2.2611 -1.2643  0.8695
 1563TIP3   OH226323   1.223   3.404   7.989 -0.1981  0.3023 -0.0844
 1563TIP3    H126324   1.288   3.460   8.033 -2.9447  2.5902  1.4437
 1563TIP3    H226325   1.183   3.462   7.924 -0.9668 -0.9259 -0.7263
 1564TIP3   OH226326   4.486   5.837   1.542 -0.3327  0.1265 -0.2399
 1564TIP3    H126327   4.529   5.868   1.622 -1.0271  0.0583  0.1666
 1564TIP3    H226328   4.537   5.760   1.516  0.5383  0.7607 -0.4656
 1565TIP3   OH226329   2.760   1.844   1.001  0.3050  0.7139  0.6110
 1565TIP3    H126330   2.845   1.865   0.962  0.2929  0.4968  0.4642
 1565TIP3    H226331   2.707   1.922   0.989  0.0062  0.3444 -0.6186
 1566TIP3   OH226332   6.237   1.738   2.561 -0.9320 -0.4556  0.3538
 1566TIP3    H126333   6.211   1.657   2.606  1.8928 -0.8602  1.5215
 1566TIP3    H226334   6.262   1.797   2.632  0.2049  0.2202 -0.5710
 1567TIP3   OH226335   1.998   3.489   0.657  0.4113 -0.0327  0.7828
 1567TIP3    H126336   1.970   3.413   0.707  1.3390  0.2019  1.7007
 1567TIP3    H226337   2.011   3.558   0.722  0.2035  0.7266  0.0425
 1568TIP3   OH226338   0.086   3.144   1.451  0.6915  0.1576  0.0714
 1568TIP3    H126339   0.054   3.234   1.462  1.6059  0.5553 -0.3823
 1568TIP3    H226340   0.080   3.105   1.538  1.8910  1.2108  0.6490
 1569TIP3   OH226341   4.196   3.802   1.074 -0.4286  0.3844 -0.2984
 1569TIP3    H126342   4.171   3.724   1.125  0.8241 -0.5594 -1.0533
 1569TIP3    H226343   4.289   3.814   1.093 -1.1006  3.2020  1.6896
 1570TIP3   OH226344   1.211   5.710   7.604 -0.3370  0.1594 -0.3523
 1570TIP3    H126345   1.266   5.761   7.544  0.2120  1.0004  0.8341
 1570TIP3    H226346   1.226   5.619   7.578  1.7416  0.3520  0.0073
 1571TIP3   OH226347   3.246   0.238   8.618 -0.4683  0.0786  0.9688
 1571TIP3    H126348   3.168   0.183   8.614  0.8139 -1.7336 -0.6723
 1571TIP3    H226349   3.212   0.327   8.626 -2.6414 -0.7658  2.1738
 1572TIP3   OH226350   3.205   1.294   8.163 -0.0729  0.0893 -0.1570
 1572TIP3    H126351   3.184   1.381   8.197  1.5538  0.1175  0.9283
 1572TIP3    H226352   3.188   1.234   8.237  1.5373 -0.1136  0.0908
 1573TIP3   OH226353   4.417   5.814   0.973  0.7014 -0.5443 -0.3185
 1573TIP3    H126354   4.411   5.720   0.954 -2.1040 -0.5488  0.1453
 1573TIP3    H226355   4.326   5.844   0.973  1.5119  2.1611 -0.2638
 1574TIP3   OH226356   6.207   3.406   0.498 -0.2915 -0.0195  0.3677
 1574TIP3    H126357   6.167   3.338   0.444  0.6806 -0.6901  0.4703
 1574TIP3    H226358   6.132   3.450   0.539 -1.0223  0.2165 -1.1407
 1575TIP3   OH226359   5.795   4.784   0.761 -0.4466 -0.2561  0.0292
 1575TIP3    H126360   5.801   4.702   0.713  3.4431 -0.6461  0.7792
 1575TIP3    H226361   5.776   4.759   0.851  3.1577 -0.8437  0.8099
 1576TIP3   OH226362   0.493   6.681   2.238  0.2586 -0.8995  0.0734
 1576TIP3    H126363   0.527   6.708   2.323 -0.3620  1.3571 -0.3217
 1576TIP3    H226364   0.550   6.609   2.211  0.4340 -1.7155  2.3813
 1577TIP3   OH226365   2.784   1.741   8.660  0.1003 -0.2211 -0.3240
 1577TIP3    H126366   2.700   1.784   8.678 -0.8855 -2.2112  0.1279
 1577TIP3    H226367   2.790   1.740   8.564 -0.5884 -0.3867 -0.3720
 1578TIP3   OH226368   5.199   5.130   8.907 -0.5583 -0.7981  0.1043
 1578TIP3    H126369   5.257   5.188   8.956  1.3665 -1.1432 -1.6189
 1578TIP3    H226370   5.192   5.172   8.821 -2.2101 -1.2186  0.0148
 1579TIP3   OH226371   4.508   3.304   0.674  0.3326  0.3115 -0.4534
 1579TIP3    H126372   4.417   3.278   0.690 -0.3756  1.7882 -1.8199
 1579TIP3    H226373   4.530   3.262   0.590  0.2365  1.4575 -1.0792
 1580TIP3   OH226374   1.536   5.402   1.557  0.5939  0.1722 -0.4529
 1580TIP3    H126375   1.494   5.485   1.575  0.4118 -0.1044  0.4667
 1580TIP3    H226376   1.629   5.423   1.549  0.5589  0.4615 -0.1367
 1581TIP3   OH226377   2.168   3.449   8.629  0.1674  0.3554  0.1338
 1581TIP3    H126378   2.239   3.391   8.604 -0.7797 -0.6774 -0.2273
 1581TIP3    H226379   2.128   3.407   8.705 -0.1280  0.8734  0.2707
 1582TIP3   OH226380   1.371   2.851   8.269  0.3047  0.9097 -0.0873
 1582TIP3    H126381   1.449   2.892   8.233  0.2704  1.1254  0.0813
 1582TIP3    H226382   1.399   2.810   8.350  0.5059 -0.0656 -0.6282
 1583TIP3   OH226383   3.977   6.549   1.638 -0.0872 -0.1409  0.4641
 1583TIP3    H126384   3.946   6.528   1.726 -1.2521  1.9276  0.6068
 1583TIP3    H226385   3.910   6.513   1.580  0.5119 -1.2074  0.4017
 1584TIP3   OH226386   3.978   4.762   0.018 -0.2432 -0.2110 -0.4957
 1584TIP3    H126387   3.901   4.814   0.043 -0.6136 -0.2645 -1.4535
 1584TIP3    H226388   3.993   4.785  -0.074 -0.6732 -2.0742 -1.0808
 1585TIP3   OH226389   2.185   1.605   0.917  0.6680  0.0341  0.0169
 1585TIP3    H126390   2.092   1.588   0.903  1.1055 -1.5741 -1.2588
 1585TIP3    H226391   2.230   1.551   0.851  2.5010  0.9359  0.4418
 1586TIP3   OH226392   5.919   1.116   1.879  0.0725 -0.1872 -0.0854
 1586TIP3    H126393   5.831   1.090   1.906  0.0914  1.5201  1.8777
 1586TIP3    H226394   5.923   1.092   1.786 -2.2012 -0.9379 -0.0671
 1587TIP3   OH226395   6.080   1.052   1.381  0.0912 -0.0122  0.2200
 1587TIP3    H126396   6.068   1.146   1.391  1.9397  0.3038 -0.1822
 1587TIP3    H226397   5.995   1.020   1.350 -0.5120  1.5334  0.1906
 1588TIP3   OH226398   0.592   3.261   1.146  0.5777  0.1857 -0.5351
 1588TIP3    H126399   0.647   3.183   1.159  0.3180 -0.1341 -1.2922
 1588TIP3    H226400   0.583   3.299   1.234 -2.1094 -2.5199  0.5359
 1589TIP3   OH226401   3.416   5.574   8.251  0.3612 -0.6327  0.3525
 1589TIP3    H126402   3.510   5.557   8.264 -0.0526 -2.4367  1.3116
 1589TIP3    H226403   3.406   5.667   8.272  1.9254 -0.4126  0.2804
 1590TIP3   OH226404   1.073   4.769   0.053 -0.0310 -0.3251 -0.3047
 1590TIP3    H126405   1.027   4.827   0.113  0.7084  0.4017 -0.4315
 1590TIP3    H226406   1.045   4.797  -0.034  1.8818  1.2378 -0.4730
 1591TIP3   OH226407   1.915   5.149   8.036 -0.0417  0.8535 -0.4132
 1591TIP3    H126408   1.855   5.136   8.110 -1.3182 -1.3451 -1.7207
 1591TIP3    H226409   1.868   5.210   7.978 -2.1214 -2.2755 -2.3362
 1592TIP3   OH226410   5.133   2.313   2.753  0.2556  0.3728 -0.5955
 1592TIP3    H126411   5.170   2.281   2.671 -0.2216  1.3247 -1.1952
 1592TIP3    H226412   5.040   2.324   2.735 -0.0658 -0.4761  0.4222
 1593TIP3   OH226413   4.776   3.828   1.016 -0.1488 -0.4686 -0.0998
 1593TIP3    H126414   4.736   3.912   1.042  0.4978  0.0858 -0.8743
 1593TIP3    H226415   4.725   3.799   0.941  0.4516 -0.1084 -0.6536
 1594TIP3   OH226416   5.789   0.847   8.630 -0.2501 -0.1721  0.2570
 1594TIP3    H126417   5.860   0.791   8.663  0.0263 -0.5836 -0.9938
 1594TIP3    H226418   5.726   0.785   8.593 -0.2581  0.3104 -0.5429
 1595TIP3   OH226419   4.015   5.084   7.080  0.0045 -0.3169 -0.1675
 1595TIP3    H126420   4.014   5.073   7.175  0.1292 -0.3522 -0.1701
 1595TIP3    H226421   3.949   5.150   7.063  0.5939  0.3290  0.0184
 1596TIP3   OH226422   3.612   3.006   1.862 -0.0686  0.0147  0.1437
 1596TIP3    H126423   3.542   2.941   1.875  0.9231 -0.9817  0.7037
 1596TIP3    H226424   3.687   2.970   1.909  0.3293  1.9296  1.0688
 1597TIP3   OH226425   0.815   1.372   2.012 -0.4763 -0.0875 -0.0255
 1597TIP3    H126426   0.739   1.431   2.010 -0.0797  0.4754  1.0181
 1597TIP3    H226427   0.860   1.394   2.093  0.1496 -1.2561 -0.0464
 1598TIP3   OH226428   3.641   4.264   1.255  0.1146  0.2741  0.0624
 1598TIP3    H126429   3.573   4.230   1.313  1.4300 -1.8869  0.4324
 1598TIP3    H226430   3.709   4.197   1.255  1.3613  1.4305 -1.8960
 1599TIP3   OH226431   5.840   1.764   0.788  0.5314 -0.0343 -0.1097
 1599TIP3    H126432   5.744   1.759   0.790  0.5155  0.4373  0.5051
 1599TIP3    H226433   5.860   1.805   0.704  0.2463 -1.0723 -0.7081
 1600TIP3   OH226434   1.248   1.068   0.003  0.3794 -0.1552 -0.0484
 1600TIP3    H126435   1.197   1.145   0.030  0.3305 -0.4867  0.8437
 1600TIP3    H226436   1.338   1.091   0.027  0.4122 -0.2446 -0.0887
 1601TIP3   OH226437   1.890   0.459   7.882  0.3760  0.3076  0.2443
 1601TIP3    H126438   1.880   0.554   7.879 -2.8036  0.0528  0.0911
 1601TIP3    H226439   1.913   0.435   7.792 -2.3861  0.6935 -0.6343
 1602TIP3   OH226440   6.033   3.240   2.627 -0.5498  0.0321  0.0094
 1602TIP3    H126441   5.962   3.252   2.689  0.4615 -0.9230  1.4167
 1602TIP3    H226442   6.050   3.327   2.592 -0.1171  0.9326  2.2907
 1603TIP3   OH226443   6.246   4.833   1.484  0.4989 -0.2919 -0.1678
 1603TIP3    H126444   6.304   4.805   1.414  1.6783 -0.1911  0.7324
 1603TIP3    H226445   6.304   4.878   1.546 -0.4517 -0.6709  1.0224
 1604TIP3   OH226446   5.890   0.647   3.074  0.0685  0.2530 -0.0132
 1604TIP3    H126447   5.893   0.551   3.076  2.1577  0.3012  0.9500
 1604TIP3    H226448   5.978   0.675   3.098 -0.5808  2.4406  0.0417
 1605TIP3   OH226449   5.719   1.454   2.013 -0.1696  0.0027 -0.4666
 1605TIP3    H126450   5.687   1.530   1.965 -0.8130  1.1309  1.6233
 1605TIP3    H226451   5.659   1.445   2.087  0.3133 -2.1357 -0.2712
 1606TIP3   OH226452   4.058   2.458   8.317  0.3747 -0.3259 -0.5339
 1606TIP3    H126453   4.051   2.467   8.412  0.3010 -0.2823 -0.5432
 1606TIP3    H226454   4.047   2.365   8.300  1.8301 -0.5528 -0.3750
 1607TIP3   OH226455   1.346   0.416   2.237 -0.0618  0.0091 -0.0316
 1607TIP3    H126456   1.253   0.429   2.216 -0.2469 -2.4226 -0.9636
 1607TIP3    H226457   1.346   0.366   2.318  0.3245 -2.0159 -1.2254
 1608TIP3   OH226458   1.705   2.760   9.122  0.7520  0.3646  0.1577
 1608TIP3    H126459   1.710   2.849   9.157  1.6063 -0.1304  1.3726
 1608TIP3    H226460   1.787   2.750   9.073  1.0414 -0.0018  0.6995
 1609TIP3   OH226461   0.712   0.560   0.093  0.3384 -1.0273  0.3756
 1609TIP3    H126462   0.777   0.584   0.027  0.2808  0.4273  0.8132
 1609TIP3    H226463   0.752   0.487   0.140  2.0121  0.2757  1.0798
 1610TIP3   OH226464   3.091   0.679   1.985 -0.4682  0.3728 -0.2558
 1610TIP3    H126465   3.128   0.766   2.005 -0.1102  0.1593  0.0285
 1610TIP3    H226466   3.060   0.646   2.069 -0.4668  0.1645 -0.3363
 1611TIP3   OH226467   0.978   5.979   8.323  0.0314  0.0039  0.0290
 1611TIP3    H126468   0.886   6.003   8.326 -0.0216 -0.2570  0.6826
 1611TIP3    H226469   0.994   5.957   8.231 -0.7708 -0.7721  0.0577
 1612TIP3   OH226470   0.430   0.759   3.025 -0.2222 -0.4756 -0.7116
 1612TIP3    H126471   0.467   0.672   3.011 -2.0394 -1.1723 -1.6139
 1612TIP3    H226472   0.499   0.820   3.000  1.5309 -1.5935  1.1244
 1613TIP3   OH226473   5.702   2.237   8.420 -0.4018  0.3630 -0.4875
 1613TIP3    H126474   5.612   2.208   8.404 -0.3246 -1.2305  1.4990
 1613TIP3    H226475   5.700   2.332   8.410 -2.4588  0.4226  0.1274
 1614TIP3   OH226476   1.648   3.096   0.319 -0.1791  0.0470 -0.0816
 1614TIP3    H126477   1.591   3.039   0.371  2.1353 -1.8036  0.6135
 1614TIP3    H226478   1.646   3.058   0.231  0.3766 -0.3472  0.0728
 1615TIP3   OH226479   6.401   1.521   2.189  0.2428  0.2639 -0.7887
 1615TIP3    H126480   6.342   1.447   2.204 -0.1714  0.4363 -1.5511
 1615TIP3    H226481   6.367   1.564   2.111  0.1076  1.6369 -0.0065
 1616TIP3   OH226482   5.057   1.346   8.800 -0.1885  0.0685 -0.2318
 1616TIP3    H126483   5.145   1.327   8.833 -0.5341 -1.2452  0.0206
 1616TIP3    H226484   5.033   1.267   8.752 -0.8828  0.7780 -1.0747
 1617TIP3   OH226485   5.741   3.387   2.177  0.5906  0.0216  0.1971
 1617TIP3    H126486   5.820   3.422   2.217  0.7619  0.7776 -0.7609
 1617TIP3    H226487   5.671   3.445   2.208  0.5345 -0.1605  0.4099
 1618TIP3   OH226488   4.525   4.077   8.192 -0.3847 -0.0429  0.6803
 1618TIP3    H126489   4.436   4.100   8.164  0.3631  1.1224 -0.8962
 1618TIP3    H226490   4.513   4.027   8.272 -2.5166 -0.9114 -0.1260
 1619TIP3   OH226491   5.495   1.107   1.401  0.1180  0.2725  0.4046
 1619TIP3    H126492   5.506   1.016   1.428  1.9922  0.1281 -0.6941
 1619TIP3    H226493   5.579   1.132   1.363 -0.6615  2.1661 -0.2253
 1620TIP3   OH226494   1.365   2.552   2.457  0.0984  0.2201 -0.3510
 1620TIP3    H126495   1.363   2.642   2.488  0.4893  0.1684 -0.1607
 1620TIP3    H226496   1.288   2.544   2.401 -0.1514  0.5569 -0.0586
 1621TIP3   OH226497   5.569   2.193   8.017  0.3877 -0.1998  0.3938
 1621TIP3    H126498   5.549   2.266   7.958 -1.1943  0.3075  1.4912
 1621TIP3    H226499   5.661   2.174   8.001  0.8003  1.9170 -0.0704
 1622TIP3   OH226500   0.853   3.357   8.045 -0.3951 -0.1231 -0.3556
 1622TIP3    H126501   0.924   3.294   8.052 -0.1664  0.2331  0.6743
 1622TIP3    H226502   0.872   3.422   8.112 -1.8782 -0.2230  0.1988
 1623TIP3   OH226503   3.486   2.237   8.125  0.2359 -0.1446 -0.6412
 1623TIP3    H126504   3.570   2.278   8.148 -1.7507  3.4159  1.0609
 1623TIP3    H226505   3.495   2.217   8.032  2.6016  1.2020 -0.8007
 1624TIP3   OH226506   1.111   0.114   3.520  0.0939  0.5454  0.3847
 1624TIP3    H126507   1.018   0.104   3.540 -0.3804  2.1099 -0.8403
 1624TIP3    H226508   1.120   0.205   3.491  1.7378  0.0176 -0.9167
 1625TIP3   OH226509   2.058   6.334   2.274  0.4009  0.0876 -0.3537
 1625TIP3    H126510   2.023   6.246   2.291 -3.0873  1.2738 -0.5074
 1625TIP3    H226511   2.028   6.386   2.348  2.4700  1.1881 -0.2298
 1626TIP3   OH226512   3.408   4.427   1.228 -0.6597 -0.6518  0.4700
 1626TIP3    H126513   3.374   4.418   1.317  0.3622  0.2267  0.9726
 1626TIP3    H226514   3.484   4.370   1.226  0.9934  1.3854  1.0998
 1627TIP3   OH226515   0.237   4.498   1.823  0.5041  0.0943  0.1903
 1627TIP3    H126516   0.242   4.547   1.741 -0.4243 -1.4334 -0.8341
 1627TIP3    H226517   0.289   4.419   1.808 -0.7144 -0.8227  0.5868
 1628TIP3   OH226518   5.905   2.201   2.052 -1.3475 -0.1681 -0.5435
 1628TIP3    H126519   5.985   2.154   2.028 -1.2177  1.0219 -2.7266
 1628TIP3    H226520   5.834   2.141   2.029 -1.2269 -2.1880  3.5034
 1629TIP3   OH226521   0.797   0.127   8.355  0.1520  0.0759 -0.5245
 1629TIP3    H126522   0.806   0.151   8.263 -1.7685 -0.8805 -1.0279
 1629TIP3    H226523   0.754   0.041   8.353  0.5644 -0.2074  1.2671
 1630TIP3   OH226524   4.235   1.646   8.341 -0.0204  0.1811 -0.3743
 1630TIP3    H126525   4.198   1.670   8.426 -0.5792 -0.4032 -0.4422
 1630TIP3    H226526   4.291   1.720   8.316  0.6407  0.0916  0.7853
 1631TIP3   OH226527   5.403   2.322   1.750 -0.1287  0.3847  1.0245
 1631TIP3    H126528   5.441   2.383   1.686  0.6637 -2.8901 -1.9445
 1631TIP3    H226529   5.314   2.306   1.717  0.2591 -1.2993  0.7455
 1632TIP3   OH226530   1.628   3.046   2.198 -0.0887  0.5561 -0.5908
 1632TIP3    H126531   1.549   3.082   2.160 -1.2004 -1.0395  0.0999
 1632TIP3    H226532   1.686   3.032   2.124  1.0442  4.8927 -0.8240
 1633TIP3   OH226533   3.830   1.012   8.552 -0.0369  0.4347 -0.2471
 1633TIP3    H126534   3.901   1.048   8.498  1.3768 -1.3679  0.2858
 1633TIP3    H226535   3.788   0.947   8.496 -0.8273  0.9779 -0.3044
 1634TIP3   OH226536   0.528   3.489   8.177  0.3664  0.1013  0.1656
 1634TIP3    H126537   0.600   3.547   8.152  0.3215 -0.9471 -2.7806
 1634TIP3    H226538   0.449   3.535   8.148 -0.2508  1.1048  3.0947
 1635TIP3   OH226539   3.204   6.316   1.010 -0.5060  0.0383  0.5699
 1635TIP3    H126540   3.176   6.287   0.923 -1.3631  1.3907  0.3662
 1635TIP3    H226541   3.147   6.391   1.029  0.2795  0.3093  1.9129
 1636TIP3   OH226542   3.766   5.227   7.872  0.3024 -0.0199 -0.2314
 1636TIP3    H126543   3.786   5.292   7.804 -0.3556  0.5400  0.1029
 1636TIP3    H226544   3.732   5.278   7.945 -0.5219 -0.7651 -0.0753
 1637TIP3   OH226545   5.085   1.665   8.702  0.1469 -0.0522  0.3168
 1637TIP3    H126546   5.016   1.625   8.649  1.4757 -0.3836 -1.2409
 1637TIP3    H226547   5.165   1.654   8.651  1.4329  0.1020  2.1661
 1638TIP3   OH226548   6.532   4.284   8.107  0.2269 -0.4038  0.9291
 1638TIP3    H126549   6.552   4.237   8.188 -0.2156  0.5599  1.6248
 1638TIP3    H226550   6.481   4.223   8.055 -1.3004 -0.3536  2.2786
 1639TIP3   OH226551   6.593   2.429   2.514  0.1622 -0.5350  0.4707
 1639TIP3    H126552   6.557   2.354   2.468  0.0648  0.0512 -0.4218
 1639TIP3    H226553   6.681   2.401   2.540  0.6529 -0.5069 -1.0534
 1640TIP3   OH226554   0.516   0.482   2.950 -0.0729 -0.6072 -0.4227
 1640TIP3    H126555   0.545   0.391   2.947  1.5331 -0.1132 -2.2312
 1640TIP3    H226556   0.484   0.500   2.862  1.0663  0.9628 -0.5587
 1641TIP3   OH226557   2.096   1.360   0.553 -0.4025  0.0314  0.3993
 1641TIP3    H126558   2.045   1.280   0.568  1.4430 -1.4979 -0.9769
 1641TIP3    H226559   2.032   1.431   0.559 -2.4027 -1.6618  0.1556
 1642TIP3   OH226560   4.653   5.401   0.145  0.1795 -0.1204  0.4117
 1642TIP3    H126561   4.605   5.347   0.208 -0.3573  1.2222  1.1809
 1642TIP3    H226562   4.736   5.421   0.188  0.3028 -0.1628  0.1987
 1643TIP3   OH226563   5.312   2.607   8.461  0.3977  0.3216  0.3195
 1643TIP3    H126564   5.321   2.591   8.367 -1.2903 -1.9115  0.4473
 1643TIP3    H226565   5.398   2.583   8.498  0.1336 -1.9868 -0.3707
 1644TIP3   OH226566   2.121   6.078   0.160 -0.0361 -1.0503 -0.1711
 1644TIP3    H126567   2.149   6.004   0.214 -0.8726 -0.2068  1.4886
 1644TIP3    H226568   2.158   6.155   0.203  1.3129 -0.4800 -2.1830
 1645TIP3   OH226569   5.584   2.089   1.286  0.0516  0.0941  0.0782
 1645TIP3    H126570   5.635   2.170   1.284  0.1855  0.0089 -0.0396
 1645TIP3    H226571   5.649   2.020   1.303 -0.1945  0.1080  1.1564
 1646TIP3   OH226572   2.845   4.324   7.044  0.1435 -0.1859 -0.5037
 1646TIP3    H126573   2.866   4.367   6.961 -3.0008  0.1838 -1.2044
 1646TIP3    H226574   2.803   4.392   7.096  0.9006 -0.7737  0.9310
 1647TIP3   OH226575   1.295   6.703   2.087  0.1619  0.0042  0.1522
 1647TIP3    H126576   1.277   6.640   2.017 -0.6395 -0.8776  1.1254
 1647TIP3    H226577   1.267   6.787   2.051  3.6258  0.3827 -2.1701
 1648TIP3   OH226578   4.102   0.492   7.056 -0.1305  0.4441  0.2949
 1648TIP3    H126579   4.191   0.466   7.081 -0.0922  1.7360  1.6379
 1648TIP3    H226580   4.114   0.565   6.996 -0.2818  0.9232  0.8442
 1649TIP3   OH226581   0.899   0.043   2.695 -0.5296  0.1438 -0.3384
 1649TIP3    H126582   0.863  -0.036   2.736 -0.7529  0.5818  0.3396
 1649TIP3    H226583   0.950   0.011   2.621  0.6099 -0.7529  0.7885
 1650TIP3   OH226584   4.779   0.465   0.720  0.4167  0.2740 -0.7842
 1650TIP3    H126585   4.782   0.481   0.815  0.9821 -1.6311 -0.4304
 1650TIP3    H226586   4.735   0.542   0.684 -1.0806  0.4228  1.1751
 1651TIP3   OH226587   3.751   0.032   0.196 -0.0843 -1.0445  0.4320
 1651TIP3    H126588   3.840   0.039   0.160 -0.4542 -1.6993 -0.6532
 1651TIP3    H226589   3.761   0.054   0.289  0.7068  2.0425 -0.2613
 1652TIP3   OH226590   4.939   5.156   8.989  0.3608  0.1006 -0.1080
 1652TIP3    H126591   5.032   5.143   8.974  0.1695 -1.5893 -0.0407
 1652TIP3    H226592   4.906   5.070   9.014 -1.3575  0.5007 -0.8176
 1653TIP3   OH226593   3.238   3.872   8.276  0.1376 -0.1836  0.1478
 1653TIP3    H126594   3.263   3.937   8.210 -0.7308  0.7956  0.7498
 1653TIP3    H226595   3.296   3.798   8.260  0.2179  0.1919 -1.4490
 1654TIP3   OH226596   4.005   3.986   0.119  0.0389  0.0254 -0.5833
 1654TIP3    H126597   3.993   3.913   0.058 -1.8107 -0.2743  0.0532
 1654TIP3    H226598   4.002   3.946   0.206 -0.9094  0.7990 -0.2278
 1655TIP3   OH226599   5.081   6.493   0.327 -0.1958 -0.4696  0.1218
 1655TIP3    H126600   4.996   6.530   0.353 -0.0715 -0.6046  0.7417
 1655TIP3    H226601   5.132   6.568   0.297 -0.4147 -0.3355  0.0800
 1656TIP3   OH226602   5.805   1.893   0.324 -0.3045 -0.0127  0.1977
 1656TIP3    H126603   5.726   1.851   0.288  0.3815 -0.9257 -0.2898
 1656TIP3    H226604   5.822   1.966   0.265 -1.4741  0.9538  1.0156
 1657TIP3   OH226605   4.471   3.514   1.670 -0.2412 -0.1930  0.2827
 1657TIP3    H126606   4.480   3.517   1.766 -0.2807  0.1760  0.2773
 1657TIP3    H226607   4.556   3.541   1.637 -0.2558 -0.2318  0.2137
 1658TIP3   OH226608   3.711   2.101   3.191  0.1589 -0.0735  0.2529
 1658TIP3    H126609   3.680   2.031   3.134 -0.1706  0.7919 -0.6686
 1658TIP3    H226610   3.631   2.138   3.229  0.4303 -1.3589  2.1969
 1659TIP3   OH226611   0.017   0.743   3.158  0.3198 -0.2295  0.0743
 1659TIP3    H126612   0.048   0.663   3.200  0.1252 -1.3615 -1.7944
 1659TIP3    H226613  -0.078   0.740   3.168  0.1950 -0.9350 -1.0662
 1660TIP3   OH226614   3.787   4.388   0.792 -0.1795  0.4152 -0.5407
 1660TIP3    H126615   3.780   4.476   0.755  1.1851  1.1404  0.7754
 1660TIP3    H226616   3.880   4.379   0.814 -0.2081 -1.5595 -1.0693
 1661TIP3   OH226617   4.156   1.180   7.767 -0.5465 -0.5670 -0.2755
 1661TIP3    H126618   4.100   1.116   7.724 -2.1173  0.4912  0.0841
 1661TIP3    H226619   4.240   1.173   7.722 -1.5415 -0.8594 -2.1924
 1662TIP3   OH226620   2.465   2.977   7.382  0.4105 -0.5271 -0.0135
 1662TIP3    H126621   2.558   3.001   7.381  0.3274 -0.0521  1.7114
 1662TIP3    H226622   2.466   2.882   7.400  0.5611 -0.4263  0.5377
 1663TIP3   OH226623   5.027   1.719   2.330 -0.4333  0.4902  0.1496
 1663TIP3    H126624   5.041   1.735   2.423  1.8901  1.4677 -0.2973
 1663TIP3    H226625   4.985   1.798   2.298 -2.2384 -0.2754  0.5105
 1664TIP3   OH226626   3.264   4.395   8.489  0.1936  0.5991 -0.2744
 1664TIP3    H126627   3.290   4.416   8.399 -1.3466  1.2117 -0.6071
 1664TIP3    H226628   3.201   4.464   8.512  0.1852  0.1556  1.0904
 1665TIP3   OH226629   1.231   6.018   8.915 -0.2186  0.1303  0.0719
 1665TIP3    H126630   1.136   6.009   8.919 -0.1352 -1.6632 -0.8981
 1665TIP3    H226631   1.248   6.069   8.836 -0.3803  0.2276  0.1015
 1666TIP3   OH226632   1.577   1.337   3.153  0.0311  0.1359  0.4490
 1666TIP3    H126633   1.535   1.251   3.153 -0.9359  0.5982  0.3790
 1666TIP3    H226634   1.506   1.398   3.137  0.8265  0.9068 -0.2060
 1667TIP3   OH226635   4.644   1.170   1.972 -0.1331  0.1583 -0.2082
 1667TIP3    H126636   4.678   1.233   1.908 -1.6102  1.8922  0.6384
 1667TIP3    H226637   4.551   1.190   1.979  0.0626  0.5036  2.9247
 1668TIP3   OH226638   3.397   2.247   8.395 -0.5576 -0.0795 -0.1843
 1668TIP3    H126639   3.326   2.199   8.354 -1.1968  0.4934  0.2247
 1668TIP3    H226640   3.462   2.259   8.326 -1.0862 -0.1643 -0.6991
 1669TIP3   OH226641   0.114   0.329   0.810  0.1290  0.0914  1.0192
 1669TIP3    H126642   0.202   0.366   0.805  0.6043 -1.0695  0.3916
 1669TIP3    H226643   0.104   0.280   0.728 -2.0178  2.1326 -0.0524
 1670TIP3   OH226644   0.692   1.238   2.469  0.3790  0.3197  0.2067
 1670TIP3    H126645   0.754   1.193   2.411 -1.0692  0.5366 -1.5987
 1670TIP3    H226646   0.650   1.167   2.518 -0.9306 -0.2650 -1.6562
 1671TIP3   OH226647   5.082   1.233   2.043 -0.5235 -0.8466  0.2694
 1671TIP3    H126648   5.021   1.254   2.113 -0.1748  0.5937  0.1656
 1671TIP3    H226649   5.168   1.256   2.078  0.0005 -2.8231  0.4053
 1672TIP3   OH226650   2.907   3.686   0.506  0.1047  0.4557 -0.2927
 1672TIP3    H126651   2.876   3.605   0.466 -1.2677  0.7694  0.0998
 1672TIP3    H226652   2.978   3.715   0.449 -0.0875 -0.4726 -1.0202
 1673TIP3   OH226653   2.696   1.880   7.211  0.1483 -0.2575  0.2372
 1673TIP3    H126654   2.623   1.942   7.201  0.9282  0.5615 -0.5913
 1673TIP3    H226655   2.762   1.930   7.259  1.2124 -0.0433 -1.3677
 1674TIP3   OH226656   2.129   5.769   2.486  0.0097  0.0074  0.1505
 1674TIP3    H126657   2.066   5.777   2.414 -0.7359 -1.2279  0.6456
 1674TIP3    H226658   2.195   5.836   2.466 -1.2466  1.0999 -0.5761
 1675TIP3   OH226659   5.659   4.544   8.274 -0.7678 -0.4156  0.2245
 1675TIP3    H126660   5.666   4.477   8.342  0.8817 -0.4120  0.1020
 1675TIP3    H226661   5.630   4.496   8.196 -2.8256 -0.3937  0.9115
 1676TIP3   OH226662   6.172   6.466   2.061  0.1750  0.2166 -0.2840
 1676TIP3    H126663   6.192   6.468   2.155  0.5619  1.0971 -0.3752
 1676TIP3    H226664   6.195   6.554   2.030  1.1889 -0.4418 -1.4420
 1677TIP3   OH226665   6.533   1.193   2.126  0.5191 -0.0392  0.1527
 1677TIP3    H126666   6.575   1.174   2.210 -1.5417  4.2808  2.5176
 1677TIP3    H226667   6.446   1.155   2.134  0.3364  0.3326 -0.0544
 1678TIP3   OH226668   4.158   3.514   0.437 -0.5564  0.4226  0.6686
 1678TIP3    H126669   4.146   3.567   0.358 -0.6827  0.4992  0.7393
 1678TIP3    H226670   4.247   3.478   0.429  0.2585  2.1328  1.5128
 1679TIP3   OH226671   6.210   5.971   0.062 -0.3533  0.0155  0.4787
 1679TIP3    H126672   6.158   6.021  -0.001 -0.1648 -0.2427  0.1186
 1679TIP3    H226673   6.174   5.883   0.060 -1.7055  0.4708  2.2428
 1680TIP3   OH226674   3.026   4.350   0.106  0.4958 -0.0378  0.1098
 1680TIP3    H126675   2.977   4.323   0.028  1.8392  0.4901 -0.9583
 1680TIP3    H226676   3.045   4.267   0.152  1.7813 -0.6625 -1.4325
 1681TIP3   OH226677   0.414   6.412   2.962 -0.0930 -0.5209 -0.3261
 1681TIP3    H126678   0.491   6.418   3.019 -1.2426 -0.7339  1.3031
 1681TIP3    H226679   0.433   6.339   2.904 -0.2967 -2.6129  2.0827
 1682TIP3   OH226680   1.545   4.596   7.723 -0.4076 -0.0804  0.3157
 1682TIP3    H126681   1.638   4.583   7.703 -0.8444 -2.8843 -0.2759
 1682TIP3    H226682   1.501   4.587   7.639 -1.3168  0.1252  0.7585
 1683TIP3   OH226683   4.146   6.101   0.554 -0.2937 -0.0781 -0.2091
 1683TIP3    H126684   4.152   6.192   0.584 -0.8747  0.0650 -0.5204
 1683TIP3    H226685   4.197   6.099   0.473 -0.2777 -0.0336 -0.2003
 1684TIP3   OH226686   4.828   2.416   1.696  0.0657 -0.2140 -0.5794
 1684TIP3    H126687   4.804   2.365   1.773 -0.2727  0.2340 -0.3837
 1684TIP3    H226688   4.766   2.388   1.629 -1.1640  1.0425 -0.0353
 1685TIP3   OH226689   5.417   2.532   8.204  0.1410  0.0652  1.0979
 1685TIP3    H126690   5.462   2.592   8.146  0.1171 -0.1849  0.8135
 1685TIP3    H226691   5.486   2.477   8.241  0.0314 -0.6916  0.2250
 1686TIP3   OH226692   3.210   2.345   3.016 -0.0335  0.5639 -0.3747
 1686TIP3    H126693   3.233   2.300   2.935  0.1325 -0.4666  0.2173
 1686TIP3    H226694   3.294   2.376   3.051  0.0968 -0.3311  0.1479
 1687TIP3   OH226695   6.330   6.291   0.476 -0.3517  0.5069  0.2403
 1687TIP3    H126696   6.262   6.287   0.543  0.2373  0.1630  0.8282
 1687TIP3    H226697   6.304   6.224   0.412  0.0949 -0.5241  1.1045
 1688TIP3   OH226698   6.129   4.752   0.600  0.0957 -0.0533 -0.2184
 1688TIP3    H126699   6.162   4.680   0.654  1.6823  0.9314  0.2145
 1688TIP3    H226700   6.206   4.808   0.585 -1.1290  1.7116 -0.2852
 1689TIP3   OH226701   6.396   1.890   1.947  0.1201 -0.1839  0.2690
 1689TIP3    H126702   6.470   1.850   1.993 -2.6150 -4.5074  1.4864
 1689TIP3    H226703   6.415   1.875   1.854  1.9666  1.4176  0.3122
 1690TIP3   OH226704   3.855   3.120   8.493 -0.0074  0.1234  0.8172
 1690TIP3    H126705   3.923   3.112   8.426  1.1484 -1.6410  2.1231
 1690TIP3    H226706   3.789   3.055   8.468 -0.0821  0.1934  0.8321
 1691TIP3   OH226707   1.619   5.238   1.901  0.3199 -0.3570 -0.0280
 1691TIP3    H126708   1.605   5.147   1.926  1.5858 -0.9369 -1.3150
 1691TIP3    H226709   1.612   5.238   1.805  1.6516  0.6317 -0.1533
 1692TIP3   OH226710   4.719   1.196   2.623 -0.1753  0.4073  0.0149
 1692TIP3    H126711   4.747   1.253   2.694  3.0965 -1.2314  0.2330
 1692TIP3    H226712   4.627   1.178   2.642 -0.6490  3.4847  1.3014
 1693TIP3   OH226713   4.163   6.371   0.648  0.5523  0.2351 -0.3704
 1693TIP3    H126714   4.169   6.448   0.592  0.0950  0.1622 -0.5237
 1693TIP3    H226715   4.252   6.357   0.680  0.8549  0.1676 -1.2264
 1694TIP3   OH226716   6.070   6.614   8.302  0.1233 -0.5738  0.3872
 1694TIP3    H126717   6.139   6.549   8.314  0.9830  0.1265 -0.5422
 1694TIP3    H226718   6.117   6.698   8.302 -0.8608 -0.0110  0.7799
 1695TIP3   OH226719   3.681   3.940   2.340 -0.3793 -0.0825 -0.1508
 1695TIP3    H126720   3.641   3.854   2.324  0.3639 -0.4284 -0.2119
 1695TIP3    H226721   3.678   3.949   2.435 -1.1566  0.1784 -0.1899
 1696TIP3   OH226722   1.351   4.110   7.582  0.2575  0.1336  0.2845
 1696TIP3    H126723   1.385   4.046   7.519 -1.6552  1.7408 -2.6189
 1696TIP3    H226724   1.266   4.076   7.607  0.6678 -0.0875  1.4344
 1697TIP3   OH226725   1.400   6.364   2.543 -0.3048 -0.1697  0.4957
 1697TIP3    H126726   1.349   6.359   2.462  0.0155 -0.2701  0.2965
 1697TIP3    H226727   1.399   6.275   2.578  0.3010 -0.3264  0.1327
 1698TIP3   OH226728   2.438   0.606   0.486 -0.0734  0.3272  0.3644
 1698TIP3    H126729   2.515   0.660   0.501 -0.6226  1.4757 -0.7175
 1698TIP3    H226730   2.464   0.518   0.515  2.1551  0.3480 -1.2354
 1699TIP3   OH226731   5.456   0.070   8.346  0.1799 -0.5414 -0.0080
 1699TIP3    H126732   5.512   0.039   8.275  0.3594  0.2866 -0.2412
 1699TIP3    H226733   5.438   0.161   8.323 -0.4078 -0.4994  0.6071
 1700TIP3   OH226734   1.655   5.884   2.199  0.1778  0.1478 -0.6147
 1700TIP3    H126735   1.612   5.866   2.282  2.6574  0.6323  0.8782
 1700TIP3    H226736   1.653   5.979   2.191  1.0337  0.1863 -0.4581
 1701TIP3   OH226737   3.428   3.149   2.369 -0.0777 -0.1023  0.0936
 1701TIP3    H126738   3.443   3.221   2.308 -0.6482  0.4707  0.6188
 1701TIP3    H226739   3.471   3.176   2.450  0.6296 -0.8356 -0.0251
 1702TIP3   OH226740   4.223   0.415   2.006 -0.1763  0.0476  0.8571
 1702TIP3    H126741   4.244   0.504   1.977  0.2459 -0.6351 -1.0523
 1702TIP3    H226742   4.164   0.381   1.938  2.0369 -2.1490 -0.0837
 1703TIP3   OH226743   4.875   4.197   1.913  0.3463 -0.3128  0.2515
 1703TIP3    H126744   4.911   4.108   1.911 -0.6945 -0.7345 -0.3922
 1703TIP3    H226745   4.842   4.212   1.824  0.9103  0.9004  0.2142
 1704TIP3   OH226746   0.075   6.137   2.347 -0.1968 -0.0683  0.0439
 1704TIP3    H126747   0.147   6.143   2.410 -0.3174 -0.9489  0.2808
 1704TIP3    H226748   0.114   6.163   2.264  0.5605 -1.0951  0.0635
 1705TIP3   OH226749   0.904   4.074   3.165 -0.2199  0.5372  0.4191
 1705TIP3    H126750   0.885   4.133   3.238  0.3252  0.8248  0.3296
 1705TIP3    H226751   0.986   4.106   3.128  0.4679 -0.7018  0.8076
 1706TIP3   OH226752   3.425   4.963   1.343  0.1440  0.4265 -0.2701
 1706TIP3    H126753   3.376   4.911   1.279  0.1517  0.5354 -0.3645
 1706TIP3    H226754   3.452   4.899   1.410  1.2328  0.0704 -1.0184
 1707TIP3   OH226755   3.010   2.496   1.303  0.3828  0.3422 -0.1251
 1707TIP3    H126756   3.085   2.522   1.249  1.0726 -3.3278 -1.1929
 1707TIP3    H226757   3.049   2.459   1.383 -0.2630 -1.0539 -0.4287
 1708TIP3   OH226758   2.425   1.372   1.204 -0.4121  0.2483 -0.3912
 1708TIP3    H126759   2.468   1.394   1.287 -0.2176  0.2544 -0.4914
 1708TIP3    H226760   2.338   1.342   1.228  0.1245 -1.1018 -0.0790
 1709TIP3   OH226761   2.392   3.896   7.865  0.3362 -0.1862 -0.2827
 1709TIP3    H126762   2.339   3.821   7.890 -2.3964  1.5894 -0.2568
 1709TIP3    H226763   2.437   3.869   7.785 -3.0392 -0.9085 -2.1025
 1710TIP3   OH226764   0.028   4.735   1.596  0.3824  0.0777 -0.7521
 1710TIP3    H126765   0.113   4.755   1.637 -0.3407  0.2343  0.7372
 1710TIP3    H226766  -0.025   4.699   1.667 -1.5580  2.1002 -1.0602
 1711TIP3   OH226767   0.705   5.189   1.403  0.6273  1.1254 -0.5291
 1711TIP3    H126768   0.627   5.241   1.383  0.2639  0.4030 -1.0797
 1711TIP3    H226769   0.725   5.144   1.321 -0.6403 -1.6265  0.5271
 1712TIP3   OH226770   3.949   0.827   7.851  0.6807  0.4600 -0.0588
 1712TIP3    H126771   4.031   0.819   7.899 -0.5485 -1.0786  1.9489
 1712TIP3    H226772   3.910   0.740   7.856 -1.0951  1.1555 -0.9205
 1713TIP3   OH226773   0.123   0.194   0.494  0.6894 -0.1415 -0.1281
 1713TIP3    H126774   0.066   0.267   0.519  1.2392 -0.1039  1.1183
 1713TIP3    H226775   0.100   0.124   0.555  1.3932 -0.3980 -0.1441
 1714TIP3   OH226776   5.201   4.783   8.509  0.1226 -0.5950  0.1831
 1714TIP3    H126777   5.279   4.837   8.501 -1.1333  1.3787  0.4603
 1714TIP3    H226778   5.212   4.736   8.592  1.0416 -0.4317  0.1631
 1715TIP3   OH226779   1.797   3.482   8.856  0.2754  0.0037 -0.0956
 1715TIP3    H126780   1.782   3.496   8.762  0.9231  0.5585 -0.1247
 1715TIP3    H226781   1.781   3.568   8.895  0.6066 -0.0797  0.2207
 1716TIP3   OH226782   2.432   3.345   0.239  0.1562 -0.0175  0.3280
 1716TIP3    H126783   2.406   3.428   0.277  1.6706  0.9992 -0.7248
 1716TIP3    H226784   2.379   3.279   0.284 -0.6488  1.4524  1.5935
 1717TIP3   OH226785   6.620   2.929   8.235 -0.2674  0.3586 -0.2791
 1717TIP3    H126786   6.551   2.887   8.184 -1.1935 -0.2732  1.4180
 1717TIP3    H226787   6.575   2.972   8.307  1.0033  1.1614  0.0775
 1718TIP3   OH226788   2.913   4.029   8.541 -0.1692  0.1385 -0.5537
 1718TIP3    H126789   2.864   4.110   8.555 -0.9449 -0.4134  0.0240
 1718TIP3    H226790   3.000   4.058   8.512  0.1000  1.2394  1.1782
 1719TIP3   OH226791   3.788   0.652   1.752 -0.2638 -0.5014 -0.5580
 1719TIP3    H126792   3.881   0.639   1.770 -0.2837 -1.6727 -1.1783
 1719TIP3    H226793   3.767   0.737   1.791  0.7049 -0.9036  0.9250
 1720TIP3   OH226794   4.765   0.981   8.991 -0.1320 -0.4355  0.0825
 1720TIP3    H126795   4.818   0.947   9.062 -2.4850 -0.1504  2.1172
 1720TIP3    H226796   4.753   1.073   9.011 -2.2076 -0.7007  0.3303
 1721TIP3   OH226797   2.476   1.002   8.975  0.7772  0.2590  0.2576
 1721TIP3    H126798   2.552   1.060   8.973  1.6249 -0.8210 -0.5215
 1721TIP3    H226799   2.425   1.025   8.898 -0.2105  1.6150  1.2773
 1722TIP3   OH226800   2.908   1.552   7.645 -0.0456 -0.4747 -0.6271
 1722TIP3    H126801   2.949   1.637   7.659 -2.6027  0.7690 -0.1421
 1722TIP3    H226802   2.863   1.533   7.728  0.8158 -2.5425 -0.5650
 1723TIP3   OH226803   0.095   2.030   8.018  0.4500  0.1394 -0.2304
 1723TIP3    H126804   0.066   2.001   7.932 -0.0059  0.0827 -0.0636
 1723TIP3    H226805   0.134   2.116   8.003  0.2310  0.1979 -0.4711
 1724TIP3   OH226806   2.791   4.855   8.832  0.3105  0.2545  0.0343
 1724TIP3    H126807   2.770   4.774   8.878  0.9181 -0.1285 -0.3441
 1724TIP3    H226808   2.872   4.836   8.786  1.5357  1.6782  1.4623
 1725TIP3   OH226809   0.668   2.734   2.749  0.3238 -0.2593 -0.2312
 1725TIP3    H126810   0.753   2.775   2.765  0.4960 -0.4497 -0.6376
 1725TIP3    H226811   0.650   2.684   2.829 -0.2523  1.2007  0.5774
 1726TIP3   OH226812   5.714   4.010   0.911 -0.2821 -0.0299  0.6065
 1726TIP3    H126813   5.790   4.037   0.962 -0.0967  1.7119 -0.5081
 1726TIP3    H226814   5.650   4.081   0.924 -1.2305 -0.8483  0.5143
 1727TIP3   OH226815   2.222   3.892   7.385 -0.5285 -0.7851  0.2078
 1727TIP3    H126816   2.261   3.805   7.383 -0.5074 -0.7770 -1.5514
 1727TIP3    H226817   2.294   3.952   7.369 -0.8456 -0.5860 -0.5040
 1728TIP3   OH226818   1.666   4.265   0.731  0.3056 -0.0566  0.2907
 1728TIP3    H126819   1.615   4.344   0.713  2.2621  1.1410 -0.2789
 1728TIP3    H226820   1.720   4.288   0.807 -0.7732 -1.6961  1.6272
 1729TIP3   OH226821   0.890   0.898   1.355  0.2819 -0.2004 -0.3878
 1729TIP3    H126822   0.960   0.867   1.297 -0.3183  1.5173 -2.1359
 1729TIP3    H226823   0.810   0.861   1.319 -0.1129  0.9931 -0.8003
 1730TIP3   OH226824   1.761   4.324   1.638  0.2523 -0.0441  0.3048
 1730TIP3    H126825   1.763   4.378   1.717  1.7867 -0.5028  0.6151
 1730TIP3    H226826   1.784   4.386   1.567  1.2125 -0.0988  0.5522
 1731TIP3   OH226827   6.185   3.744   2.383  0.0361  0.0514 -0.4615
 1731TIP3    H126828   6.210   3.692   2.460  1.9155  1.5481  0.0147
 1731TIP3    H226829   6.119   3.805   2.415 -1.0171 -0.9380 -0.6623
 1732TIP3   OH226830   1.903   2.297   7.543 -0.4059 -0.8302  0.2658
 1732TIP3    H126831   1.892   2.329   7.453 -0.3165 -0.3460  0.4246
 1732TIP3    H226832   1.956   2.218   7.533  0.8258  0.0008  0.0049
 1733TIP3   OH226833   5.287   3.188   2.235  0.0673  0.1283  0.6336
 1733TIP3    H126834   5.237   3.108   2.255  0.8139 -0.3045  0.7823
 1733TIP3    H226835   5.378   3.163   2.248  0.2587  1.3086  1.7031
 1734TIP3   OH226836   2.844   4.427   8.704 -0.4341  0.0152 -0.1110
 1734TIP3    H126837   2.889   4.349   8.671 -0.0763  0.0514  0.2716
 1734TIP3    H226838   2.871   4.497   8.646 -1.8508 -0.3836 -1.3120
 1735TIP3   OH226839   5.233   0.179   1.287  0.2746 -0.0315  0.5714
 1735TIP3    H126840   5.252   0.120   1.214 -0.5445 -0.9587  1.0753
 1735TIP3    H226841   5.284   0.258   1.268  0.3808 -0.3945 -0.7998
 1736TIP3   OH226842   0.016   5.507   8.336 -0.3957 -0.0761 -0.9459
 1736TIP3    H126843  -0.026   5.568   8.397 -1.7643  0.9925 -2.8499
 1736TIP3    H226844  -0.044   5.432   8.333 -0.1367 -0.2946 -0.7077
 1737TIP3   OH226845   1.900   4.999   1.552  0.2921 -0.0503 -0.7508
 1737TIP3    H126846   1.888   4.919   1.502 -0.2739  0.0944 -0.8469
 1737TIP3    H226847   1.812   5.023   1.582  0.5685  0.0734 -0.0089
 1738TIP3   OH226848   6.070   1.672   8.059  0.0278 -0.6838  0.2663
 1738TIP3    H126849   6.070   1.606   7.990 -0.1427 -0.5978  0.1809
 1738TIP3    H226850   6.161   1.699   8.067  0.1299 -1.0656  0.4342
 1739TIP3   OH226851   2.801   4.282   2.413  0.1749  0.7084  0.0011
 1739TIP3    H126852   2.826   4.373   2.428  1.3046  0.1966  1.5748
 1739TIP3    H226853   2.716   4.273   2.458 -0.9968  1.4618 -1.9514
 1740TIP3   OH226854   5.123   3.205   0.269 -0.4683  0.2655  0.3481
 1740TIP3    H126855   5.123   3.300   0.275  0.1304  0.1839  2.5752
 1740TIP3    H226856   5.216   3.181   0.275 -0.4362 -0.4254 -2.0448
 1741TIP3   OH226857   4.236   2.726   1.458  0.3931 -0.0129 -0.4184
 1741TIP3    H126858   4.313   2.714   1.513  0.1120  0.6183  0.1496
 1741TIP3    H226859   4.207   2.638   1.436  0.9975 -0.2593 -0.2299
 1742TIP3   OH226860   3.311   4.038   8.933 -0.1597 -0.6160 -0.0196
 1742TIP3    H126861   3.307   3.946   8.959  0.1789 -0.5998  0.0852
 1742TIP3    H226862   3.334   4.085   9.014  3.7757 -0.8211 -0.8284
 1743TIP3   OH226863   4.581   2.695   7.533 -0.7369  0.2550 -0.0224
 1743TIP3    H126864   4.549   2.607   7.516  2.2151 -0.6970 -1.2846
 1743TIP3    H226865   4.537   2.750   7.468 -1.5708 -0.4956 -0.1082
 1744TIP3   OH226866   1.164   3.195   2.580 -0.4995 -0.3708  0.5735
 1744TIP3    H126867   1.180   3.161   2.668 -0.2553 -1.5469  0.0828
 1744TIP3    H226868   1.164   3.291   2.591 -1.3201 -0.5117  1.9855
 1745TIP3   OH226869   0.149   1.709   0.106 -0.0178 -0.3502  0.1906
 1745TIP3    H126870   0.114   1.621   0.092 -0.6590 -0.2536  1.1115
 1745TIP3    H226871   0.150   1.720   0.201  0.6622  0.4062  0.1108
 1746TIP3   OH226872   4.711   1.776   2.620  0.0006 -0.3082  0.1460
 1746TIP3    H126873   4.691   1.743   2.532 -1.4296  1.0194 -0.0679
 1746TIP3    H226874   4.749   1.863   2.605  0.5112 -0.4050  0.8249
 1747TIP3   OH226875   3.497   2.700   7.942 -0.7899  0.1239 -0.2253
 1747TIP3    H126876   3.526   2.791   7.937 -0.4316 -0.0572 -2.1801
 1747TIP3    H226877   3.477   2.686   8.035  1.5232  1.4325  0.5322
 1748TIP3   OH226878   2.944   4.479   7.512  0.2101  0.4255 -0.6522
 1748TIP3    H126879   3.001   4.521   7.447 -1.9142  1.7328 -1.7983
 1748TIP3    H226880   2.881   4.430   7.460 -0.1723 -0.3812  0.5329
 1749TIP3   OH226881   5.181   6.552   8.194  0.1464 -0.2703 -0.1887
 1749TIP3    H126882   5.182   6.465   8.232 -0.0067 -0.5057 -0.7079
 1749TIP3    H226883   5.111   6.549   8.129  0.9484 -0.1507 -1.0873
 1750TIP3   OH226884   2.733   1.364   0.218  0.3520  0.1334  1.1131
 1750TIP3    H126885   2.719   1.335   0.128  1.4472 -2.0095  1.5728
 1750TIP3    H226886   2.648   1.400   0.244 -0.3241 -0.2819 -0.3779
 1751TIP3   OH226887   6.199   5.246   9.130 -0.4313 -0.2734  0.1203
 1751TIP3    H126888   6.136   5.316   9.116  0.3187  0.0417 -2.0248
 1751TIP3    H226889   6.231   5.260   9.219 -2.0436  0.6347  0.5919
 1752TIP3   OH226890   6.490   3.878   0.588 -0.8972  0.1793 -0.1115
 1752TIP3    H126891   6.401   3.885   0.553 -1.0225  1.8159  0.4704
 1752TIP3    H226892   6.542   3.937   0.534 -0.1884 -0.6229 -0.3257
 1753TIP3   OH226893   6.060   5.466   8.063 -0.1663 -0.1103 -1.1212
 1753TIP3    H126894   6.139   5.520   8.070  0.1660 -0.6238 -0.8110
 1753TIP3    H226895   5.988   5.529   8.059  0.3040  0.3972 -2.3144
 1754TIP3   OH226896   4.588   6.160   9.050  0.2659  0.8898  0.4587
 1754TIP3    H126897   4.562   6.109   8.973 -0.8199  0.4505  1.0932
 1754TIP3    H226898   4.676   6.191   9.030  0.1037  0.5503 -0.8439
 1755TIP3   OH226899   1.427   1.428   9.068 -0.0199  0.2423 -0.6114
 1755TIP3    H126900   1.498   1.464   9.121  1.7653 -1.5064 -1.6386
 1755TIP3    H226901   1.369   1.385   9.131  1.1954 -0.4213  0.0930
 1756TIP3   OH226902   4.102   5.329   0.214  0.1605  0.1375 -0.5343
 1756TIP3    H126903   4.106   5.362   0.124 -0.9638 -0.6086 -0.8708
 1756TIP3    H226904   4.154   5.392   0.264  2.8756 -0.7143 -2.0640
 1757TIP3   OH226905   1.388   0.358   1.333 -0.1779 -0.4655  0.4570
 1757TIP3    H126906   1.434   0.279   1.361 -2.0377 -2.0467 -0.6628
 1757TIP3    H226907   1.309   0.325   1.291 -0.3093  1.9534 -1.3909
 1758TIP3   OH226908   0.982   0.647   2.726  0.5797 -0.0963  0.3965
 1758TIP3    H126909   1.042   0.604   2.787 -0.9572  0.5239  2.4555
 1758TIP3    H226910   1.002   0.741   2.736  0.0454  0.0368  0.2445
 1759TIP3   OH226911   4.089   3.542   7.627  0.4145 -0.1129 -0.7027
 1759TIP3    H126912   4.029   3.540   7.553 -0.9743  0.1671  0.3629
 1759TIP3    H226913   4.102   3.450   7.650 -0.8712 -0.1494 -0.0070
 1760TIP3   OH226914   3.708   4.535   9.044 -0.3360  0.8167  0.4566
 1760TIP3    H126915   3.714   4.495   9.131 -0.5205  1.4156  0.7516
 1760TIP3    H226916   3.675   4.623   9.061  1.2584  1.5472 -0.0516
 1761TIP3   OH226917   0.882   6.425   8.853 -0.7731 -0.0109  0.1198
 1761TIP3    H126918   0.840   6.383   8.928 -0.8935 -1.8406 -0.8955
 1761TIP3    H226919   0.969   6.448   8.884 -1.2330  0.3935  1.1664
 1762TIP3   OH226920   3.990   4.526   6.721  0.2132  0.5175 -0.0592
 1762TIP3    H126921   3.957   4.518   6.632 -1.7352  0.0823  0.6437
 1762TIP3    H226922   4.063   4.588   6.714 -1.1588  2.0642 -1.6587
 1763TIP3   OH226923   5.639   5.769   2.526 -0.3080  0.0258  0.4137
 1763TIP3    H126924   5.629   5.798   2.436 -0.8413 -1.5837 -0.0684
 1763TIP3    H226925   5.597   5.838   2.578  0.6123  1.3004 -0.4996
 1764TIP3   OH226926   3.893   6.586   0.603  0.2095 -0.2241  0.2047
 1764TIP3    H126927   3.858   6.665   0.563  0.4736 -0.3800 -0.3466
 1764TIP3    H226928   3.883   6.519   0.536  2.8867  0.0327 -0.5758
 1765TIP3   OH226929   1.903   0.239   0.696 -0.2284  0.3697 -0.5179
 1765TIP3    H126930   1.977   0.293   0.725  1.3456 -1.7819 -0.2775
 1765TIP3    H226931   1.943   0.174   0.637 -1.7750 -1.3764  0.2630
 1766TIP3   OH226932   3.665   5.014   7.441  0.2270  0.1825 -0.0716
 1766TIP3    H126933   3.592   4.978   7.390  0.6070 -0.9100  0.1322
 1766TIP3    H226934   3.627   5.034   7.527  0.4923 -1.9174  0.5798
 1767TIP3   OH226935   1.651   1.819   1.246  0.0608  0.0457  0.7031
 1767TIP3    H126936   1.600   1.748   1.286 -1.3814 -0.6937 -2.1620
 1767TIP3    H226937   1.589   1.892   1.239  0.1381  0.0134 -0.4825
 1768TIP3   OH226938   3.777   2.756   2.512  0.1744 -0.2411 -0.3473
 1768TIP3    H126939   3.863   2.739   2.474  0.4796  1.9976 -0.7937
 1768TIP3    H226940   3.756   2.676   2.560  3.4705 -0.1370  1.5835
 1769TIP3   OH226941   2.673   1.312   1.570 -0.2602  0.4385 -0.0251
 1769TIP3    H126942   2.587   1.348   1.550 -2.3773 -3.1075  1.6818
 1769TIP3    H226943   2.706   1.279   1.487 -1.7675 -0.3475 -0.3423
 1770TIP3   OH226944   3.933   0.237   8.039 -0.1619  0.4197  0.6379
 1770TIP3    H126945   3.874   0.226   7.964 -1.2876 -1.1677  1.6890
 1770TIP3    H226946   3.983   0.317   8.019 -1.9065  1.2209 -0.8115
 1771TIP3   OH226947   6.321   5.620   8.007  0.1687  0.5987 -0.5709
 1771TIP3    H126948   6.265   5.691   7.976  0.1880  0.0776 -1.8396
 1771TIP3    H226949   6.381   5.603   7.935  1.2678  0.4241  0.3680
 1772TIP3   OH226950   1.803   3.882   0.752  0.2983  0.0539 -0.0016
 1772TIP3    H126951   1.884   3.829   0.753  0.5852  0.4474 -1.2198
 1772TIP3    H226952   1.784   3.895   0.660 -0.6261  0.8132  0.2832
 1773TIP3   OH226953   3.704   6.423   0.849  0.4308  0.3577 -0.5060
 1773TIP3    H126954   3.755   6.343   0.838 -0.2248 -0.0830 -0.3657
 1773TIP3    H226955   3.766   6.486   0.887  0.5360 -0.5802  0.9577
 1774TIP3   OH226956   5.939   3.553   1.290  0.4570 -0.2151  0.1393
 1774TIP3    H126957   5.973   3.606   1.362 -0.8065  0.7185  0.0755
 1774TIP3    H226958   5.889   3.484   1.332  1.1432 -0.7026  0.1833
 1775TIP3   OH226959   2.920   0.483   0.512 -0.5491  0.1127 -0.2358
 1775TIP3    H126960   2.870   0.562   0.490 -0.9809 -0.4401 -1.2925
 1775TIP3    H226961   2.922   0.482   0.608 -1.0887  1.0605 -0.2030
 1776TIP3   OH226962   2.161   5.654   0.468  0.5129 -0.0066 -0.4114
 1776TIP3    H126963   2.157   5.560   0.454  1.7815 -0.1594  0.1818
 1776TIP3    H226964   2.122   5.668   0.554  2.9180 -0.3491  0.8055
 1777TIP3   OH226965   6.091   2.594   8.409  0.0311  0.1344  0.3694
 1777TIP3    H126966   6.103   2.581   8.315  1.2728 -1.4919  0.7099
 1777TIP3    H226967   6.135   2.520   8.450 -1.4160  0.2185  2.2216
 1778TIP3   OH226968   2.571   2.697   0.105  0.0173 -0.0790  0.1183
 1778TIP3    H126969   2.547   2.785   0.134 -1.7297 -0.0599 -1.2449
 1778TIP3    H226970   2.608   2.655   0.183  1.4225  2.0004  0.6755
 1779TIP3   OH226971   2.140   4.241   7.473 -0.1363 -0.3741 -0.3187
 1779TIP3    H126972   2.074   4.177   7.446 -1.7926  0.7395  0.8583
 1779TIP3    H226973   2.185   4.200   7.547 -2.3296  0.3569  1.5422
 1780TIP3   OH226974   4.348   3.074   0.266  0.4983  0.0307  0.3965
 1780TIP3    H126975   4.303   3.003   0.312 -0.0314 -0.9729 -1.5464
 1780TIP3    H226976   4.283   3.143   0.258  0.2576 -0.2065  0.2686
 1781TIP3   OH226977   2.007   6.419   8.251  0.2594 -0.0959  0.1888
 1781TIP3    H126978   2.044   6.430   8.339 -0.4553 -1.5285  0.6956
 1781TIP3    H226979   1.921   6.380   8.266 -0.3015  0.5783 -1.1177
 1782TIP3   OH226980   5.147   6.677   2.208 -0.8667  0.2271 -0.9058
 1782TIP3    H126981   5.165   6.758   2.257 -1.2418  0.1317 -0.6026
 1782TIP3    H226982   5.097   6.706   2.132  0.2887  0.4543 -1.5906
 1783TIP3   OH226983   4.396   3.946   8.795 -0.4034 -0.4129 -0.7325
 1783TIP3    H126984   4.342   3.993   8.858 -1.1700 -0.2947 -1.4754
 1783TIP3    H226985   4.439   4.015   8.744 -0.6424 -0.5132 -1.0694
 1784TIP3   OH226986   4.277   6.460   7.635  0.1804 -0.0962 -0.0157
 1784TIP3    H126987   4.296   6.368   7.656  0.0089 -0.2096 -0.3533
 1784TIP3    H226988   4.358   6.494   7.598  0.0993 -0.2444 -0.3313
 1785TIP3   OH226989   4.044   3.656   7.866  0.5717  0.2480 -0.2377
 1785TIP3    H126990   4.098   3.599   7.812  0.3314 -1.0987  0.9116
 1785TIP3    H226991   3.956   3.618   7.861  0.4237  0.4520  0.6236
 1786TIP3   OH226992   0.827   1.751   7.677 -0.2670  0.1396  0.0502
 1786TIP3    H126993   0.845   1.679   7.738  1.9635  0.1046 -0.5614
 1786TIP3    H226994   0.910   1.763   7.630 -0.3772  3.4982  0.5050
 1787TIP3   OH226995   5.532   4.882   9.084  0.0666 -0.0197 -0.1102
 1787TIP3    H126996   5.509   4.904   8.994 -1.0545 -1.6907 -0.2603
 1787TIP3    H226997   5.508   4.790   9.094 -3.4558  0.9692  2.9935
 1788TIP3   OH226998   0.321   4.188   9.058 -0.6110  0.2079 -0.3320
 1788TIP3    H126999   0.327   4.281   9.077 -0.1796 -0.0441  0.8747
 1788TIP3    H227000   0.406   4.152   9.085 -1.1321 -0.6748  0.2151
 1789TIP3   OH227001   5.767   3.274   0.895  0.5616 -0.0716 -0.0780
 1789TIP3    H127002   5.717   3.273   0.813  0.2682  2.6821 -0.0171
 1789TIP3    H227003   5.785   3.367   0.911  1.6169 -0.6325  2.3871
 1790TIP3   OH227004   4.910   5.939   2.792 -0.3671 -0.0931  0.5699
 1790TIP3    H127005   4.998   5.902   2.794  1.2224  3.3139  1.6024
 1790TIP3    H227006   4.857   5.879   2.844  1.3416 -2.1694  0.0164
 1791TIP3   OH227007   3.010   6.506   1.059  0.2452  0.0034  0.3124
 1791TIP3    H127008   3.000   6.566   1.133  0.2163  0.8253 -0.3583
 1791TIP3    H227009   2.957   6.429   1.084 -2.7699  1.6888 -0.3938
 1792TIP3   OH227010   0.248   6.319   0.595  0.3427  0.2492 -0.9547
 1792TIP3    H127011   0.283   6.243   0.550 -0.5815 -0.0812 -1.1302
 1792TIP3    H227012   0.236   6.290   0.686  0.7759  0.4520 -0.8274
 1793TIP3   OH227013   2.058   0.175   2.550 -0.5676 -0.1295 -0.2150
 1793TIP3    H127014   2.144   0.177   2.506 -1.1926  0.1792 -1.4662
 1793TIP3    H227015   2.009   0.109   2.502 -0.6145 -1.3025  1.3637
 1794TIP3   OH227016   4.010   5.289   7.683  0.5155  0.2566  0.4524
 1794TIP3    H127017   4.034   5.306   7.591 -1.1105 -0.0949 -0.0696
 1794TIP3    H227018   3.917   5.310   7.687  0.5736  0.3016  2.0574
 1795TIP3   OH227019   0.807   2.230   2.680  0.2405  0.1174  0.6741
 1795TIP3    H127020   0.764   2.311   2.655 -1.6028 -1.0499 -0.1057
 1795TIP3    H227021   0.839   2.192   2.598 -0.8845 -0.9830  0.7007
 1796TIP3   OH227022   5.438   0.730   8.988 -0.5421  0.3835 -0.4989
 1796TIP3    H127023   5.457   0.640   9.016  0.1494  0.5290 -0.4949
 1796TIP3    H227024   5.343   0.737   8.993 -0.5472 -0.1304  0.1622
 1797TIP3   OH227025   1.195   1.778   8.294 -0.0801  0.7604 -0.1523
 1797TIP3    H127026   1.187   1.847   8.360  1.4037 -1.0364  2.0727
 1797TIP3    H227027   1.276   1.798   8.248 -0.1744  1.0461 -0.1958
 1798TIP3   OH227028   4.790   0.427   7.979  0.0915  0.6964 -0.1012
 1798TIP3    H127029   4.788   0.518   8.010 -1.3489  0.4717  0.5456
 1798TIP3    H227030   4.702   0.394   7.996  0.1923 -0.4247 -1.5847
 1799TIP3   OH227031   4.433   1.453   2.219 -0.3031 -0.4574 -0.2951
 1799TIP3    H127032   4.510   1.417   2.262  0.8704  0.5104 -1.5169
 1799TIP3    H227033   4.386   1.500   2.289  0.7224 -0.2309  0.2571
 1800TIP3   OH227034   4.322   3.725   8.658 -0.2607  0.3626  0.4458
 1800TIP3    H127035   4.379   3.734   8.581  0.1328  0.6447  0.7647
 1800TIP3    H227036   4.355   3.790   8.720 -1.1883  0.8153  0.4856
 1801TIP3   OH227037   5.604   6.139   2.509  0.4725 -0.0032 -0.3351
 1801TIP3    H127038   5.673   6.136   2.442  1.1740 -0.3834  0.3878
 1801TIP3    H227039   5.615   6.057   2.558  0.3012  0.5013  0.5630
 1802TIP3   OH227040   5.999   3.318   8.387 -0.0079 -0.7201  0.1404
 1802TIP3    H127041   5.981   3.408   8.416  2.2985 -0.6125  1.4176
 1802TIP3    H227042   6.045   3.277   8.460  3.2564 -1.4288 -2.0673
 1803TIP3   OH227043   4.013   5.717   8.519  0.0103  0.0918 -0.0156
 1803TIP3    H127044   3.975   5.642   8.474 -0.9164  0.6415 -0.1782
 1803TIP3    H227045   4.082   5.680   8.574 -0.5361 -0.8929  0.0246
 1804TIP3   OH227046   2.849   4.721   0.935  0.1443 -0.4142  0.3906
 1804TIP3    H127047   2.781   4.667   0.894  0.5182 -0.5528 -0.0580
 1804TIP3    H227048   2.914   4.659   0.965  1.0447 -0.1792 -0.9897
 1805TIP3   OH227049   3.589   4.970   2.149  0.3535  0.5136  0.5475
 1805TIP3    H127050   3.581   5.061   2.176  2.1863  0.4354  1.5436
 1805TIP3    H227051   3.638   4.973   2.066 -0.4509  0.4669  0.0599
 1806TIP3   OH227052   4.241   3.578   8.377  0.5424 -0.5570  0.6207
 1806TIP3    H127053   4.267   3.665   8.347  0.3602  0.2568  2.7004
 1806TIP3    H227054   4.273   3.573   8.466 -0.5022 -2.1753  0.9411
 1807TIP3   OH227055   3.357   6.165   7.813 -0.0143 -0.3207 -0.5804
 1807TIP3    H127056   3.436   6.206   7.848 -0.0564  1.4122 -2.3547
 1807TIP3    H227057   3.298   6.238   7.795 -1.6082 -1.4888 -0.3629
 1808TIP3   OH227058   4.006   3.831   9.115  0.6364  0.0804 -0.1787
 1808TIP3    H127059   4.039   3.766   9.054  0.6248 -0.0323 -0.0646
 1808TIP3    H227060   3.911   3.824   9.109  0.6323  0.4572 -0.5640
 1809TIP3   OH227061   4.970   0.496   8.329  0.3286  0.3762  0.1965
 1809TIP3    H127062   5.030   0.553   8.280 -0.0851  0.5911 -0.0581
 1809TIP3    H227063   5.027   0.429   8.366  0.4136 -1.0366 -2.2810
 1810TIP3   OH227064   6.481   3.532   2.003 -0.2402  0.0634 -0.0375
 1810TIP3    H127065   6.556   3.586   1.977 -0.0085  0.8403  2.0137
 1810TIP3    H227066   6.462   3.559   2.093 -2.7541 -0.3958 -0.3432
 1811TIP3   OH227067   0.895   0.913   0.420  0.7181 -0.0614  0.1448
 1811TIP3    H127068   0.970   0.961   0.455  0.4847  0.1200  0.4041
 1811TIP3    H227069   0.924   0.822   0.417  0.7956 -0.0605  0.6808
 1812TIP3   OH227070   3.627   2.648   7.254 -0.4829  0.0675 -0.1541
 1812TIP3    H127071   3.700   2.612   7.204  0.6588  1.5803  0.3632
 1812TIP3    H227072   3.549   2.617   7.207  0.4504 -1.5074 -0.7639
 1813TIP3   OH227073   3.977   5.271   0.466 -0.5331 -0.4225 -0.0796
 1813TIP3    H127074   3.901   5.295   0.518  0.5990  1.2459  0.8951
 1813TIP3    H227075   3.948   5.278   0.375 -1.3486  0.9005  0.2669
 1814TIP3   OH227076   4.580   4.778   8.022  0.2561  0.1962  0.2218
 1814TIP3    H127077   4.644   4.828   8.072  1.4030 -1.8633  0.9352
 1814TIP3    H227078   4.509   4.760   8.084 -0.1346  0.8415 -0.0220
 1815TIP3   OH227079   1.383   5.404   1.244  0.1853  0.1559 -0.2816
 1815TIP3    H127080   1.343   5.317   1.246 -0.7584  0.5541 -0.9948
 1815TIP3    H227081   1.477   5.388   1.247  0.1096 -1.0047 -2.4163
 1816TIP3   OH227082   1.788   3.895   3.175 -0.1665 -0.0265 -0.4415
 1816TIP3    H127083   1.742   3.851   3.247 -2.0844  0.8491 -1.0514
 1816TIP3    H227084   1.841   3.962   3.218  2.4775 -2.4867  0.4713
 1817TIP3   OH227085   5.674   1.119   8.577 -0.2939  0.2476  0.0633
 1817TIP3    H127086   5.741   1.170   8.531 -1.4145  1.6782 -0.0583
 1817TIP3    H227087   5.723   1.048   8.620  1.1980  0.8538 -0.5594
 1818TIP3   OH227088   4.365   3.761   1.775  0.4319  0.1635 -0.3724
 1818TIP3    H127089   4.277   3.793   1.756  0.7301  0.1076 -1.9677
 1818TIP3    H227090   4.383   3.697   1.706  1.4478 -0.3578  0.3514
 1819TIP3   OH227091   0.632   6.375   3.197 -0.7557 -0.4501  0.2165
 1819TIP3    H127092   0.660   6.458   3.158 -2.8971  0.4833  0.5074
 1819TIP3    H227093   0.590   6.400   3.279 -0.9408 -1.8990  0.5897
 1820TIP3   OH227094   3.219   2.357   8.184  0.6961  0.4263  0.4364
 1820TIP3    H127095   3.180   2.338   8.098 -1.3604  1.3251  1.0991
 1820TIP3    H227096   3.312   2.338   8.173  0.2706 -0.7872 -1.5882
 1821TIP3   OH227097   1.058   3.155   7.559  0.2824 -0.3069 -0.3083
 1821TIP3    H127098   1.062   3.125   7.650 -2.8010  0.2739  0.1493
 1821TIP3    H227099   0.989   3.102   7.519 -0.2595  1.2005 -1.5207
 1822TIP3   OH227100   6.450   6.269   8.576 -0.0120 -0.4326  0.7491
 1822TIP3    H127101   6.412   6.185   8.549 -0.0520 -0.7550  1.7786
 1822TIP3    H227102   6.444   6.269   8.671 -0.3592  0.9137  0.7551
 1823TIP3   OH227103   0.969   6.694   2.187 -0.0909  0.1930  0.1056
 1823TIP3    H127104   0.902   6.676   2.253  0.8246  1.3786  1.4193
 1823TIP3    H227105   0.981   6.611   2.141  0.8125 -1.3528  2.8938
 1824TIP3   OH227106   2.651   4.749   1.899 -0.0699 -0.1842 -0.2089
 1824TIP3    H127107   2.721   4.720   1.841  0.1305  1.7104 -1.0040
 1824TIP3    H227108   2.571   4.738   1.849 -0.0668 -0.0056 -0.2534
 1825TIP3   OH227109   3.288   5.336   0.229  0.9954 -0.4537 -0.1508
 1825TIP3    H127110   3.285   5.281   0.307  2.4256 -0.7460 -0.2606
 1825TIP3    H227111   3.289   5.426   0.262  1.2939 -0.5706  0.1595
 1826TIP3   OH227112   1.506   5.613   7.711 -0.2349  0.4183 -0.3064
 1826TIP3    H127113   1.488   5.688   7.769  0.3908  0.8008 -0.5930
 1826TIP3    H227114   1.427   5.603   7.659 -0.6175  0.3842  0.2748
 1827TIP3   OH227115   4.203   5.055   6.869 -0.0756 -0.5395  0.0012
 1827TIP3    H127116   4.233   4.970   6.902 -0.7121  0.0370  2.2730
 1827TIP3    H227117   4.134   5.081   6.930  0.8841  2.1035  0.1003
 1828TIP3   OH227118   0.413   1.117   2.257  0.1759  0.0038  0.0725
 1828TIP3    H127119   0.416   1.204   2.297 -1.6578 -1.2892  3.3911
 1828TIP3    H227120   0.338   1.120   2.198  0.0364  0.6068  0.2702
 1829TIP3   OH227121   3.807   2.732   8.516 -0.3153 -0.3237 -0.0340
 1829TIP3    H127122   3.764   2.814   8.492 -0.0576 -0.3204 -0.5105
 1829TIP3    H227123   3.853   2.751   8.597 -0.0011  0.0981 -0.3045
 1830TIP3   OH227124   1.687   2.012   0.643 -1.0972 -0.0377 -0.6028
 1830TIP3    H127125   1.686   2.107   0.655 -2.0073 -0.1750  0.5740
 1830TIP3    H227126   1.606   1.982   0.683 -0.4676 -1.3993 -0.2953
 1831TIP3   OH227127   4.087   3.655   1.276  0.0273 -0.1442 -0.3285
 1831TIP3    H127128   4.003   3.637   1.317 -0.1951  1.8420  0.2030
 1831TIP3    H227129   4.151   3.645   1.347  0.2547 -1.5511 -0.7076
 1832TIP3   OH227130   5.640   1.954   2.548 -0.1753 -0.0616  0.5602
 1832TIP3    H127131   5.733   1.956   2.567 -0.0506  1.3997 -0.0279
 1832TIP3    H227132   5.600   1.916   2.626  0.8436  0.0737  1.1691
 1833TIP3   OH227133   1.358   4.474   0.422  0.5798 -0.3817 -0.6610
 1833TIP3    H127134   1.301   4.397   0.416  1.2604 -0.9818  0.3755
 1833TIP3    H227135   1.327   4.531   0.352  0.3686 -1.7918 -1.7775
 1834TIP3   OH227136   4.994   1.255   7.399  0.4478  0.0934 -0.5075
 1834TIP3    H127137   4.983   1.208   7.317 -0.9889 -0.3721 -0.0786
 1834TIP3    H227138   4.950   1.339   7.385  3.2715  1.5646 -1.3793
 1835TIP3   OH227139   1.741   4.150   2.980  0.1003  0.7757  0.5016
 1835TIP3    H127140   1.738   4.069   3.032  0.3695 -0.4825 -1.3442
 1835TIP3    H227141   1.830   4.182   2.991  0.9940 -0.9349 -1.2021
 1836TIP3   OH227142   0.937   0.973   8.615 -0.1694  0.1170  0.5652
 1836TIP3    H127143   0.861   1.021   8.584  0.9484  0.2297 -2.2835
 1836TIP3    H227144   0.904   0.884   8.632 -0.9938  0.2089 -0.4511
 1837TIP3   OH227145   1.634   6.631   8.557 -0.0207 -0.2987 -0.3916
 1837TIP3    H127146   1.701   6.657   8.494  1.0151  1.1815  1.2285
 1837TIP3    H227147   1.552   6.637   8.509  0.7111  1.0896 -1.5219
 1838TIP3   OH227148   5.380   4.705   7.784  0.4083 -0.1751  0.1518
 1838TIP3    H127149   5.429   4.679   7.705  1.4206 -0.8377  0.9775
 1838TIP3    H227150   5.292   4.724   7.751  0.6691 -0.9215 -1.0745
 1839TIP3   OH227151   1.356   2.563   0.397 -0.1492  0.0586  0.3115
 1839TIP3    H127152   1.287   2.620   0.431 -1.5477 -1.6267  0.4507
 1839TIP3    H227153   1.350   2.571   0.302 -1.3688 -0.9289  0.2703
 1840TIP3   OH227154   3.391   2.795   0.288 -0.9355  0.0542 -0.0991
 1840TIP3    H127155   3.349   2.778   0.204 -1.6290 -1.3450  0.5037
 1840TIP3    H227156   3.378   2.715   0.339  0.1394  0.5811  1.0770
 1841TIP3   OH227157   5.376   1.407   1.713 -0.5409  0.7100  0.1821
 1841TIP3    H127158   5.387   1.502   1.707 -0.5605  0.6638 -0.5995
 1841TIP3    H227159   5.327   1.383   1.635 -2.9473  0.3952  1.6616
 1842TIP3   OH227160   6.670   3.864   0.327  0.2679  0.6114  0.3106
 1842TIP3    H127161   6.729   3.841   0.398  0.2138 -0.2423  0.0866
 1842TIP3    H227162   6.701   3.813   0.252 -0.8583  0.0041  0.2424
 1843TIP3   OH227163   2.462   0.676   0.017 -0.3040 -0.3337 -0.0748
 1843TIP3    H127164   2.552   0.700  -0.005 -0.4731  0.4578  0.0548
 1843TIP3    H227165   2.441   0.603  -0.041  0.6141 -0.9105  0.2918
 1844TIP3   OH227166   4.678   1.727   8.618 -0.3605  0.4183 -0.4618
 1844TIP3    H127167   4.656   1.692   8.532 -0.1429  1.2062 -0.8397
 1844TIP3    H227168   4.736   1.660   8.656 -0.7750 -0.1172 -0.7573
 1845TIP3   OH227169   2.547   3.697   8.908  0.1431  0.7398 -0.0207
 1845TIP3    H127170   2.479   3.764   8.913 -2.4846 -1.5166 -2.0927
 1845TIP3    H227171   2.508   3.627   8.856  3.7403 -1.2127 -0.4428
 1846TIP3   OH227172   2.796   5.764   7.934 -0.0840  0.5176 -0.4440
 1846TIP3    H127173   2.881   5.807   7.941  0.5142 -0.6766 -0.0367
 1846TIP3    H227174   2.735   5.834   7.915  0.9615  1.4344 -0.5122
 1847TIP3   OH227175   0.126   4.821   0.440  0.6586  0.1298 -0.0218
 1847TIP3    H127176   0.103   4.830   0.533  1.0274 -0.1201  0.0988
 1847TIP3    H227177   0.148   4.910   0.412 -3.8832  1.1558 -1.1308
 1848TIP3   OH227178   6.562   0.319   1.127 -0.2138 -0.5364 -0.4899
 1848TIP3    H127179   6.615   0.395   1.101  0.1164 -1.3477 -2.3971
 1848TIP3    H227180   6.592   0.248   1.070 -2.5259 -1.3338 -0.8378
 1849TIP3   OH227181   2.699   4.342   1.828  0.0557  0.6937 -0.3077
 1849TIP3    H127182   2.793   4.354   1.813  0.5897 -1.6416  0.7684
 1849TIP3    H227183   2.660   4.347   1.741  1.1272  1.9120 -0.7453
 1850TIP3   OH227184   3.376   4.780   9.202  0.2185  0.6308 -0.3601
 1850TIP3    H127185   3.462   4.756   9.236 -0.4148  0.0829  0.9221
 1850TIP3    H227186   3.317   4.766   9.276 -0.7494  2.5357 -0.7209
 1851TIP3   OH227187   0.703   6.280   2.908  0.5546 -0.0352  0.2232
 1851TIP3    H127188   0.781   6.284   2.854  0.0362 -0.2450 -0.5584
 1851TIP3    H227189   0.686   6.370   2.933  0.4016  0.1492 -0.5450
 1852TIP3   OH227190   3.467   1.746   2.628 -0.1786  0.1624  0.7459
 1852TIP3    H127191   3.387   1.721   2.673 -1.1781 -1.4945 -1.6970
 1852TIP3    H227192   3.534   1.687   2.664 -0.7025 -0.3561  0.8931
 1853TIP3   OH227193   1.178   5.736   7.274  0.2112  0.1088 -0.5085
 1853TIP3    H127194   1.182   5.822   7.233 -0.3477  1.0902  1.3722
 1853TIP3    H227195   1.269   5.718   7.301  0.0347  1.0229  0.7890
 1854TIP3   OH227196   0.105   2.023   0.048 -0.3460  0.2808  0.2445
 1854TIP3    H127197   0.064   1.994  -0.034 -1.9858 -1.7560  1.6844
 1854TIP3    H227198   0.092   1.950   0.108  1.8550  1.2507  2.0156
 1855TIP3   OH227199   2.393   5.700   8.550  0.2529  0.0410 -0.0624
 1855TIP3    H127200   2.396   5.666   8.461  0.4690 -0.0932 -0.0070
 1855TIP3    H227201   2.391   5.795   8.540  0.1730  0.0229 -0.2113
 1856TIP3   OH227202   3.886   2.044   2.421  0.5409  0.2285 -0.4643
 1856TIP3    H127203   3.971   2.026   2.462  0.3659  1.3920  0.4535
 1856TIP3    H227204   3.832   1.969   2.446  0.1212  1.3622  2.4178
 1857TIP3   OH227205   2.389   6.614   1.619  0.4331  0.0059 -0.2254
 1857TIP3    H127206   2.468   6.618   1.674  0.0737  1.8171  0.2169
 1857TIP3    H227207   2.394   6.693   1.565 -0.8083 -0.1317 -0.5661
 1858TIP3   OH227208   2.788   2.105   7.390 -0.7561 -0.0176  0.2961
 1858TIP3    H127209   2.744   2.190   7.390 -2.0172 -0.6411  0.7917
 1858TIP3    H227210   2.833   2.101   7.305 -1.5650  0.6814 -0.1795
 1859TIP3   OH227211   0.161   1.152   2.101 -0.6382  0.1561 -0.0841
 1859TIP3    H127212   0.136   1.210   2.030 -1.1817 -0.3362 -0.2995
 1859TIP3    H227213   0.115   1.187   2.178  0.3284  0.9735  0.1422
 1860TIP3   OH227214   3.362   3.795   0.272  0.2967 -0.0888 -0.2676
 1860TIP3    H127215   3.321   3.723   0.320 -0.4744  1.2207  1.1000
 1860TIP3    H227216   3.289   3.850   0.244  0.9311  0.6682 -0.4548
 1861TIP3   OH227217   1.190   1.600   7.904 -0.5756 -0.2108 -0.3095
 1861TIP3    H127218   1.158   1.511   7.894  0.7604 -0.7060 -0.2930
 1861TIP3    H227219   1.111   1.652   7.921 -1.5746 -1.1048 -2.0294
 1862TIP3   OH227220   3.284   1.650   8.708 -0.1922 -0.5259 -0.5469
 1862TIP3    H127221   3.212   1.667   8.647  1.1721  1.1127 -1.7870
 1862TIP3    H227222   3.303   1.736   8.747  2.3481 -0.4477 -1.7519
 1863TIP3   OH227223   2.366   6.452   2.646  0.0165 -0.0089  0.0774
 1863TIP3    H127224   2.360   6.373   2.591 -0.7009  0.4044 -0.4560
 1863TIP3    H227225   2.278   6.489   2.644 -0.0173  0.0206  1.5257
 1864TIP3   OH227226   1.652   4.977   2.273  0.1118 -0.0858  0.1337
 1864TIP3    H127227   1.606   4.987   2.189  0.2744  1.8555  0.2414
 1864TIP3    H227228   1.738   4.942   2.248  0.1032  0.3177 -0.4980
 1865TIP3   OH227229   6.112   4.094   7.816 -0.3200  0.0436  0.1423
 1865TIP3    H127230   6.206   4.103   7.832 -0.0782 -3.0119  1.1996
 1865TIP3    H227231   6.103   4.103   7.721  1.1007  0.0119 -0.0249
 1866TIP3   OH227232   3.005   5.775   2.814  0.3236 -0.1872 -0.4948
 1866TIP3    H127233   2.961   5.709   2.762 -1.4984  0.8692 -0.3619
 1866TIP3    H227234   3.067   5.726   2.868 -1.2978 -1.8281 -0.0531
 1867TIP3   OH227235   6.599   6.373   8.102  0.0567  0.0499  0.2354
 1867TIP3    H127236   6.518   6.419   8.125 -1.1633 -1.2525 -1.2596
 1867TIP3    H227237   6.637   6.425   8.031 -0.0278  0.0868  0.2174
 1868TIP3   OH227238   3.133   0.097   0.850  0.7731  0.3643 -0.2315
 1868TIP3    H127239   3.134   0.008   0.815  2.3140  0.1726  0.2156
 1868TIP3    H227240   3.159   0.152   0.777  1.4767  0.2452 -0.0800
 1869TIP3   OH227241   0.061   2.128   2.736  0.4958 -0.3898 -0.2155
 1869TIP3    H127242   0.095   2.149   2.823  3.0485 -1.6323 -0.8150
 1869TIP3    H227243   0.085   2.203   2.681 -2.5577  1.1785  0.3370
 1870TIP3   OH227244   5.980   1.723   2.768 -0.0059 -0.1405  0.2898
 1870TIP3    H127245   5.936   1.669   2.834  1.6951 -1.1309  0.6829
 1870TIP3    H227246   6.051   1.667   2.735 -0.8306  0.2773 -2.4755
 1871TIP3   OH227247   5.224   0.487   7.936 -0.0387  0.4092  0.9152
 1871TIP3    H127248   5.318   0.506   7.936  0.1325  0.0204 -1.8715
 1871TIP3    H227249   5.182   0.571   7.957  0.9118  0.8604  1.0510
 1872TIP3   OH227250   3.651   2.207   2.136 -0.2451  0.1525  0.6353
 1872TIP3    H127251   3.727   2.229   2.189 -0.2512 -1.9956  1.6498
 1872TIP3    H227252   3.683   2.142   2.073 -1.3345 -1.4670  1.6579
 1873TIP3   OH227253   2.146   6.086   1.244 -0.0869  0.2195  0.3576
 1873TIP3    H127254   2.152   6.177   1.215  1.4664  0.0536  0.0983
 1873TIP3    H227255   2.090   6.044   1.178 -0.0539  0.7730 -0.0330
 1874TIP3   OH227256   3.140   0.015   1.652 -0.4088 -0.3850  0.1162
 1874TIP3    H127257   3.213   0.041   1.596 -0.3175  0.1957  0.4957
 1874TIP3    H227258   3.109  -0.067   1.615  0.5574 -0.7319  0.0552
 1875TIP3   OH227259   4.778   2.361   7.996 -0.2451  0.0527 -0.1550
 1875TIP3    H127260   4.788   2.406   8.080  0.4605 -1.3419  0.5484
 1875TIP3    H227261   4.767   2.431   7.932 -1.9676  1.1360  1.2225
 1876TIP3   OH227262   3.932   0.306   7.480  0.2514 -0.8588 -0.3824
 1876TIP3    H127263   3.865   0.368   7.510  3.1549  2.6700 -0.3892
 1876TIP3    H227264   3.919   0.301   7.386 -0.7881 -1.2576 -0.2231
 1877TIP3   OH227265   1.747   3.793   2.192 -0.6761  0.2070  0.0715
 1877TIP3    H127266   1.808   3.850   2.238 -1.3725  0.0343  1.2722
 1877TIP3    H227267   1.666   3.844   2.186 -1.7348 -1.0260  2.3487
 1878TIP3   OH227268   6.261   5.133   1.921  0.3379 -0.2661  0.2211
 1878TIP3    H127269   6.216   5.073   1.981 -0.2231 -0.6864 -0.6035
 1878TIP3    H227270   6.282   5.210   1.975 -1.2160 -0.1335  0.6750
 1879TIP3   OH227271   5.241   4.498   7.626 -0.2210 -0.0096 -0.0297
 1879TIP3    H127272   5.308   4.561   7.600 -0.4354 -0.2457 -1.2238
 1879TIP3    H227273   5.265   4.417   7.580 -1.6272  0.0662 -0.9662
 1880TIP3   OH227274   4.818   1.716   0.790  0.2905 -0.4246 -0.0093
 1880TIP3    H127275   4.735   1.705   0.834  0.0447 -1.8370 -0.7453
 1880TIP3    H227276   4.881   1.669   0.845 -0.0614 -2.4091 -1.1970
 1881TIP3   OH227277   5.016   4.621   1.810  0.1381 -0.4312  0.8082
 1881TIP3    H127278   5.023   4.534   1.848 -1.6467 -0.1506  1.9529
 1881TIP3    H227279   4.932   4.620   1.764  0.1966  0.5937  0.6549
 1882TIP3   OH227280   1.020   5.650   1.731  0.0314  0.7776 -0.0618
 1882TIP3    H127281   1.030   5.600   1.813 -1.3459  0.5928  0.0187
 1882TIP3    H227282   0.942   5.703   1.745  1.4764  3.0746 -0.1320
 1883TIP3   OH227283   1.699   1.272   8.461  0.0635  0.4229 -0.2660
 1883TIP3    H127284   1.776   1.250   8.513 -0.1684  0.1379 -0.0448
 1883TIP3    H227285   1.682   1.194   8.408  1.2953  1.2717 -2.0154
 1884TIP3   OH227286   3.839   3.522   1.770 -0.1968 -0.3271 -0.2548
 1884TIP3    H127287   3.744   3.533   1.768 -0.2610 -0.7319 -2.8002
 1884TIP3    H227288   3.853   3.445   1.825 -1.2003  0.4297  1.1412
 1885TIP3   OH227289   4.309   3.252   9.027  0.0031 -0.5834 -0.0878
 1885TIP3    H127290   4.302   3.344   9.053  0.8971  0.1273 -2.1464
 1885TIP3    H227291   4.344   3.207   9.104 -1.3910  0.5806  1.2901
 1886TIP3   OH227292   3.275   5.663   8.872  0.2788 -0.0098 -0.6197
 1886TIP3    H127293   3.350   5.623   8.827  0.4350  0.4569 -0.7835
 1886TIP3    H227294   3.270   5.751   8.836  0.4925  0.4242  0.3789
 1887TIP3   OH227295   2.161   6.371   1.176 -0.8941 -0.4420  0.2050
 1887TIP3    H127296   2.230   6.366   1.111 -1.3890 -0.6848 -0.3126
 1887TIP3    H227297   2.194   6.432   1.242 -1.8571  2.8563 -2.1203
 1888TIP3   OH227298   0.171   6.126   0.043 -0.8110 -0.2468  0.1108
 1888TIP3    H127299   0.231   6.055   0.063 -0.1125  0.2600 -0.1524
 1888TIP3    H227300   0.185   6.190   0.112 -1.0407 -0.1235  0.0446
 1889TIP3   OH227301   2.159   1.157   1.770  0.1225  0.2996  0.1760
 1889TIP3    H127302   2.166   1.072   1.812 -1.5843 -0.3301 -0.7254
 1889TIP3    H227303   2.155   1.137   1.676  0.3917  1.4216 -0.0902
 1890TIP3   OH227304   0.333   5.060   1.202  0.6128 -0.0701  0.0359
 1890TIP3    H127305   0.329   4.965   1.194 -1.3573 -0.0428  0.3725
 1890TIP3    H227306   0.243   5.090   1.192  0.5265  1.4350  3.8037
 1891TIP3   OH227307   6.362   6.046   8.168  0.1187 -0.1379 -0.0879
 1891TIP3    H127308   6.374   6.134   8.201 -2.4698  0.0355  0.5488
 1891TIP3    H227309   6.366   5.990   8.246 -0.1325 -0.3817 -0.2493
 1892TIP3   OH227310   3.001   3.030   0.986  0.4295  0.3301  0.6467
 1892TIP3    H127311   2.928   3.049   0.928  1.3166 -0.9721 -0.9932
 1892TIP3    H227312   2.968   3.048   1.074 -1.7295  0.1139 -0.0735
 1893TIP3   OH227313   4.609   3.985   0.368  0.1953  0.5730  0.0524
 1893TIP3    H127314   4.684   3.926   0.360  1.0153  1.7850 -1.6949
 1893TIP3    H227315   4.612   4.039   0.290 -0.9784  2.4346  1.2153
 1894TIP3   OH227316   0.693   1.200   8.292 -0.0056  0.4537  0.2883
 1894TIP3    H127317   0.748   1.227   8.366 -0.2856 -0.3945  0.8243
 1894TIP3    H227318   0.639   1.130   8.327 -2.1489  1.9023  0.0439
 1895TIP3   OH227319   6.003   0.413   1.086 -0.5610  0.4727  0.0953
 1895TIP3    H127320   5.949   0.334   1.083 -0.2574  0.2301  0.9768
 1895TIP3    H227321   5.939   0.485   1.081 -0.8187  0.1960 -1.0292
 1896TIP3   OH227322   2.554   5.884   7.977 -0.2361  0.3747  0.1788
 1896TIP3    H127323   2.462   5.904   7.959 -0.4088  0.4453  1.0608
 1896TIP3    H227324   2.556   5.863   8.071  0.7622  1.1194  0.3462
 1897TIP3   OH227325   1.317   4.631   0.990  0.0846  0.6031  0.1070
 1897TIP3    H127326   1.270   4.692   0.935  0.2649  0.2075 -0.5015
 1897TIP3    H227327   1.408   4.637   0.961 -0.0787 -0.8191 -0.8110
 1898TIP3   OH227328   2.380   1.470   7.888  1.0876  0.1730 -0.2656
 1898TIP3    H127329   2.323   1.425   7.950  0.6387 -0.1700 -0.9150
 1898TIP3    H227330   2.320   1.504   7.821  1.4702  1.3094 -0.0490
 1899TIP3   OH227331   0.140   2.748   2.432  0.0305 -0.1992  0.4649
 1899TIP3    H127332   0.200   2.681   2.462  1.1215  0.7448  0.4719
 1899TIP3    H227333   0.172   2.773   2.345 -1.8230 -1.3932 -0.6390
 1900TIP3   OH227334   3.548   3.556   7.551  0.0472  0.1761  0.8071
 1900TIP3    H127335   3.484   3.547   7.620 -0.4131 -0.0491  0.3609
 1900TIP3    H227336   3.554   3.468   7.513  0.1203  0.3494  0.4127
 1901TIP3   OH227337   5.091   4.734   2.591 -0.0130  0.3629 -0.3836
 1901TIP3    H127338   5.054   4.660   2.542  0.4509 -0.6073  0.6659
 1901TIP3    H227339   5.022   4.758   2.653 -0.3010  1.0635 -0.9680
 1902TIP3   OH227340   3.437   5.598   3.492  0.1555  0.3931  0.6675
 1902TIP3    H127341   3.416   5.511   3.526 -0.2557 -0.3745 -1.4108
 1902TIP3    H227342   3.518   5.586   3.443  0.1035  1.1773  0.3732
 1903TIP3   OH227343   5.287   5.109   1.672  0.3990  0.3071  0.6188
 1903TIP3    H127344   5.359   5.136   1.728  0.6355 -0.1730  0.5518
 1903TIP3    H227345   5.329   5.085   1.589  0.0188  1.3492  0.1080
 1904TIP3   OH227346   0.910   5.360   0.429  0.3780 -0.0027  0.5738
 1904TIP3    H127347   0.977   5.419   0.397 -0.5924  1.6954  1.5011
 1904TIP3    H227348   0.828   5.396   0.395 -0.1351 -1.7458 -0.1381
 1905TIP3   OH227349   2.218   2.281   2.534 -0.0007  0.5784  0.2458
 1905TIP3    H127350   2.296   2.231   2.508 -0.5844 -0.2131 -0.0029
 1905TIP3    H227351   2.158   2.216   2.568 -0.1063  1.3372  1.5667
 1906TIP3   OH227352   6.259   6.452   8.400 -0.6037  0.3867  0.3822
 1906TIP3    H127353   6.218   6.452   8.487 -2.0024  2.4904 -0.2126
 1906TIP3    H227354   6.332   6.513   8.409  1.1202 -1.5836  0.7839
 1907TIP3   OH227355   0.148   0.836   0.948  0.0891 -0.2936  0.3584
 1907TIP3    H127356   0.212   0.794   0.890 -0.4565  1.5791 -1.7441
 1907TIP3    H227357   0.201   0.874   1.018  0.9716 -1.0907  0.1457
 1908TIP3   OH227358   3.514   1.668   1.899 -0.4540 -0.0546  0.2328
 1908TIP3    H127359   3.605   1.647   1.918 -0.7199 -0.5977  0.9505
 1908TIP3    H227360   3.517   1.716   1.817  0.4611 -0.2509  0.1430
 1909TIP3   OH227361   3.561   0.258   1.363  0.1980 -0.6598  0.5212
 1909TIP3    H127362   3.597   0.318   1.298 -1.4235 -0.5987 -0.3624
 1909TIP3    H227363   3.623   0.263   1.437  1.3499  0.2757 -0.4678
 1910TIP3   OH227364   0.535   3.670   7.904  0.2798 -0.0078  0.6508
 1910TIP3    H127365   0.613   3.637   7.858 -0.8975 -1.9015 -0.0721
 1910TIP3    H227366   0.463   3.654   7.843 -0.9498 -0.0337  2.0710
 1911TIP3   OH227367   2.459   4.103   2.586 -0.5346  0.0100 -0.0488
 1911TIP3    H127368   2.493   4.080   2.672  0.8198 -2.5081 -1.1284
 1911TIP3    H227369   2.444   4.019   2.543  2.3175  1.0302 -3.5140
 1912TIP3   OH227370   1.074   1.741   1.228  0.4200  0.2876  0.1034
 1912TIP3    H127371   0.985   1.775   1.237  0.7685  1.6155 -1.0178
 1912TIP3    H227372   1.095   1.753   1.135  0.2957 -3.8433 -0.6404
 1913TIP3   OH227373   1.450   4.454   0.681  0.2208  1.0363  0.5358
 1913TIP3    H127374   1.426   4.458   0.588 -0.4348  0.0194  0.6349
 1913TIP3    H227375   1.366   4.459   0.727  0.4431  0.4396  1.0187
 1914TIP3   OH227376   0.084   4.054   9.049  0.2352 -0.4197  0.7228
 1914TIP3    H127377   0.070   4.063   8.954 -1.1926 -0.5112  0.8906
 1914TIP3    H227378   0.169   4.093   9.065 -0.2862  1.2724 -0.3587
 1915TIP3   OH227379   3.151   4.086   8.413 -0.2141 -0.4897 -0.0126
 1915TIP3    H127380   3.119   4.135   8.337  0.6979  1.1309  0.5959
 1915TIP3    H227381   3.183   4.004   8.376  0.8091  0.5226 -1.5027
 1916TIP3   OH227382   2.554   4.858   1.042  0.1746 -0.3396 -0.5980
 1916TIP3    H127383   2.549   4.881   0.949 -3.3040  0.4869 -0.3388
 1916TIP3    H227384   2.618   4.920   1.078 -0.2698  1.0085 -2.0132
 1917TIP3   OH227385   3.969   1.363   1.454 -0.0690 -0.5776 -0.3499
 1917TIP3    H127386   3.883   1.326   1.435  0.0331  0.0739 -2.2404
 1917TIP3    H227387   3.952   1.432   1.518 -1.0434 -0.0699 -1.1332
 1918TIP3   OH227388   2.894   6.139   0.630  0.4368 -0.4307  0.0171
 1918TIP3    H127389   2.864   6.226   0.605  1.4242 -0.1082 -0.1172
 1918TIP3    H227390   2.972   6.155   0.684  0.3945 -1.2181  0.3335
 1919TIP3   OH227391   2.613   3.089   0.569  0.4036 -0.0549 -0.1531
 1919TIP3    H127392   2.525   3.069   0.537  0.3998 -0.3477  0.0353
 1919TIP3    H227393   2.600   3.165   0.626  0.2520 -0.1737 -0.0260
 1920TIP3   OH227394   0.981   1.353   2.385 -0.8858  0.3846 -0.0086
 1920TIP3    H127395   0.998   1.344   2.479  1.9308  0.0099 -0.4581
 1920TIP3    H227396   1.031   1.282   2.345 -0.7853  1.4548 -1.8899
 1921TIP3   OH227397   1.371   4.321   8.945  0.3495  0.3424  0.1056
 1921TIP3    H127398   1.465   4.306   8.943  0.4579  0.9610  0.3654
 1921TIP3    H227399   1.350   4.351   8.857  0.5476  1.0609  0.2971
 1922TIP3   OH227400   2.740   6.326   9.159  0.1356 -0.3333  0.3998
 1922TIP3    H127401   2.667   6.333   9.097 -0.0120 -0.2718  0.5808
 1922TIP3    H227402   2.791   6.251   9.127  1.0051  0.7046 -0.7812
 1923TIP3   OH227403   0.413   1.899   8.946  0.4812 -0.0895 -0.1689
 1923TIP3    H127404   0.328   1.941   8.931  0.1539 -0.1907  1.2352
 1923TIP3    H227405   0.467   1.927   8.872 -0.4272  0.9076 -0.4897
 1924TIP3   OH227406   3.030   4.924   8.014 -0.1052 -0.3780 -0.1633
 1924TIP3    H127407   3.025   5.012   8.050 -2.0029  0.2930 -1.8714
 1924TIP3    H227408   3.020   4.866   8.091  0.3593  0.8891  0.8815
 1925TIP3   OH227409   4.151   4.816   1.393  0.4712  0.2028 -0.3712
 1925TIP3    H127410   4.103   4.891   1.358  1.3909  0.6342 -0.7354
 1925TIP3    H227411   4.188   4.772   1.317  0.4544 -0.2721 -0.1134
 1926TIP3   OH227412   3.629   1.298   2.474  0.4079  0.4712  0.6138
 1926TIP3    H127413   3.616   1.387   2.440 -0.2161  0.2377  0.2076
 1926TIP3    H227414   3.561   1.288   2.541 -1.1220 -0.5157 -1.0113
 1927TIP3   OH227415   3.104   0.181   7.152 -1.0108 -0.5056  0.2231
 1927TIP3    H127416   3.195   0.203   7.136 -1.6228  1.8147 -0.3833
 1927TIP3    H227417   3.092   0.195   7.246 -0.7213 -0.9524  0.3290
 1928TIP3   OH227418   6.236   4.566   0.769  0.3671 -0.1263 -0.1482
 1928TIP3    H127419   6.308   4.622   0.798 -1.1643  0.9557  1.8428
 1928TIP3    H227420   6.277   4.481   0.753  2.7031  1.3618 -2.9250
 1929TIP3   OH227421   2.534   6.077   0.361  0.0056 -0.6322 -0.3254
 1929TIP3    H127422   2.443   6.049   0.376 -0.7289  1.9455  0.7516
 1929TIP3    H227423   2.559   6.033   0.280 -2.1287 -1.6112 -0.5460
 1930TIP3   OH227424   3.959   5.614   7.815  0.5290  0.2435  0.0773
 1930TIP3    H127425   3.976   5.690   7.760  0.7299 -0.4047 -0.7691
 1930TIP3    H227426   3.936   5.544   7.754  1.2152 -0.6133  0.7608
 1931TIP3   OH227427   4.864   0.991   2.146 -0.3051  0.5278 -0.0115
 1931TIP3    H127428   4.901   1.032   2.224  0.2535 -0.0039  0.0124
 1931TIP3    H227429   4.791   1.047   2.122 -1.2031  0.0901  1.5527
 1932TIP3   OH227430   0.364   2.536   0.925  0.3478  0.1859 -0.0346
 1932TIP3    H127431   0.313   2.456   0.939  0.3640  0.4561  1.7178
 1932TIP3    H227432   0.454   2.507   0.918  0.1246 -0.1753 -1.9958
 1933TIP3   OH227433   5.269   0.769   0.142 -0.0888  0.3064 -0.3665
 1933TIP3    H127434   5.189   0.816   0.166 -0.2010 -0.1299  0.1562
 1933TIP3    H227435   5.333   0.838   0.121 -0.3216  0.6852  0.1440
 1934TIP3   OH227436   0.376   1.328   1.266 -0.0171  0.2162 -0.3958
 1934TIP3    H127437   0.382   1.283   1.351 -2.1954  0.5514 -0.0199
 1934TIP3    H227438   0.464   1.364   1.252 -0.0090  1.5753  2.5291
 1935TIP3   OH227439   6.393   2.247   2.889  0.4640 -0.6193 -0.0015
 1935TIP3    H127440   6.341   2.201   2.955 -2.0876  0.9280 -0.7586
 1935TIP3    H227441   6.439   2.315   2.937  0.6263 -1.0809  0.5013
 1936TIP3   OH227442   2.273   5.560   7.837  0.1534 -0.5660 -0.0249
 1936TIP3    H127443   2.341   5.612   7.795  0.1258 -0.0348  0.5693
 1936TIP3    H227444   2.260   5.485   7.779  0.9253 -0.4391 -0.3670
 1937TIP3   OH227445   6.261   1.328   1.983 -0.3196  0.0521 -0.7133
 1937TIP3    H127446   6.177   1.350   1.943 -0.9690 -1.2180 -0.1020
 1937TIP3    H227447   6.326   1.358   1.920 -1.2684 -0.1047 -1.7973
 1938TIP3   OH227448   4.947   1.829   8.155  0.0357  0.1114  0.5696
 1938TIP3    H127449   4.988   1.787   8.231 -1.5347 -0.8911  0.8948
 1938TIP3    H227450   5.020   1.845   8.095  1.0211 -0.9219  1.4403
 1939TIP3   OH227451   0.872   6.274   3.356 -0.0290  0.0303 -0.1136
 1939TIP3    H127452   0.948   6.332   3.364 -0.0768 -0.0012  0.6559
 1939TIP3    H227453   0.863   6.259   3.262  1.2729 -0.4190 -0.1849
 1940TIP3   OH227454   6.386   1.442   1.774 -0.1619 -0.0121  0.3990
 1940TIP3    H127455   6.421   1.391   1.701 -2.1591  1.5771 -1.8157
 1940TIP3    H227456   6.463   1.486   1.811  0.8488 -0.5451 -0.9737
 1941TIP3   OH227457   1.262   4.523   8.745  0.1093 -0.1346  0.2240
 1941TIP3    H127458   1.201   4.490   8.811  1.9170  0.5988  2.3894
 1941TIP3    H227459   1.269   4.617   8.764 -0.0965  0.3047 -1.7036
 1942TIP3   OH227460   5.224   0.970   2.067  0.3220  0.1879  0.2259
 1942TIP3    H127461   5.215   1.063   2.087  0.3958  0.3133 -0.2859
 1942TIP3    H227462   5.210   0.965   1.972  0.1662 -0.3429  0.2734
 1943TIP3   OH227463   3.014   4.178   0.338  0.3810  0.1168  0.2672
 1943TIP3    H127464   2.989   4.213   0.424  0.7400 -0.1685  0.4886
 1943TIP3    H227465   2.952   4.106   0.323  0.0772  0.4060  0.1157
 1944TIP3   OH227466   3.752   3.885   7.253  0.4504  0.3585 -0.2396
 1944TIP3    H127467   3.762   3.806   7.306  1.7627  0.3807 -0.4161
 1944TIP3    H227468   3.814   3.874   7.181  1.3662  1.9532  0.2436
 1945TIP3   OH227469   5.959   1.697   1.763 -0.1467  0.4148  0.2647
 1945TIP3    H127470   6.025   1.629   1.776  0.4915  1.2918  1.8857
 1945TIP3    H227471   5.923   1.713   1.850 -0.4330  1.9943 -0.1010
 1946TIP3   OH227472   5.061   1.943   8.709 -0.1197  1.1335  0.6148
 1946TIP3    H127473   5.091   1.973   8.623 -0.6657  0.1638  0.0756
 1946TIP3    H227474   5.076   1.849   8.709 -2.1996  0.7547  0.6917
 1947TIP3   OH227475   1.360   2.189   2.477 -0.3364 -0.3818  0.2735
 1947TIP3    H127476   1.342   2.282   2.487  0.1600 -0.4154  1.6966
 1947TIP3    H227477   1.351   2.152   2.565  0.3618 -1.5145 -0.0965
 1948TIP3   OH227478   4.870   1.798   3.242  0.1135 -0.0720 -0.3043
 1948TIP3    H127479   4.784   1.832   3.269  0.5536  1.9071 -1.2140
 1948TIP3    H227480   4.886   1.839   3.157  2.2569  0.1569  0.1633
 1949TIP3   OH227481   5.834   0.868   1.568  0.1218 -0.3794  0.1870
 1949TIP3    H127482   5.831   0.963   1.581 -0.1672 -0.6416  2.3039
 1949TIP3    H227483   5.928   0.847   1.564  0.2374 -0.2117  1.6402
 1950TIP3   OH227484   1.219   5.431   1.727 -0.0403 -0.1138 -0.2126
 1950TIP3    H127485   1.140   5.477   1.699  1.2709  1.4157 -1.5730
 1950TIP3    H227486   1.278   5.500   1.756 -0.0901 -1.3837  3.4278
 1951TIP3   OH227487   1.477   3.869   7.455  0.1440  0.2525  0.5017
 1951TIP3    H127488   1.567   3.864   7.423  0.1745 -0.2857  0.6746
 1951TIP3    H227489   1.424   3.858   7.376  0.2031 -2.5829  0.7859
 1952TIP3   OH227490   2.817   3.255   2.207  0.2473  0.3917  0.5041
 1952TIP3    H127491   2.747   3.195   2.180 -0.4175  1.8396 -1.1903
 1952TIP3    H227492   2.897   3.205   2.198 -0.5129 -1.7646  3.7427
 1953TIP3   OH227493   4.276   5.590   1.573 -0.0234  0.4859 -0.1057
 1953TIP3    H127494   4.274   5.520   1.509 -0.8016  0.5159 -0.1170
 1953TIP3    H227495   4.187   5.623   1.577  0.3869  1.7042 -0.3525
 1954TIP3   OH227496   5.343   5.746   8.741 -0.1786 -0.3044  0.4434
 1954TIP3    H127497   5.298   5.784   8.665 -0.3770  0.3603  0.8807
 1954TIP3    H227498   5.342   5.816   8.806  1.2609 -0.3676  0.5623
 1955TIP3   OH227499   6.484   2.960   8.504  0.4294 -0.3328  0.6436
 1955TIP3    H127500   6.566   2.936   8.546  0.8002 -1.6898 -0.7732
 1955TIP3    H227501   6.425   2.886   8.521 -0.4441  0.5068  1.4229
 1956TIP3   OH227502   2.835   4.148   0.578 -0.0157  0.0679 -0.1111
 1956TIP3    H127503   2.915   4.109   0.613  0.8127  1.1922 -0.6924
 1956TIP3    H227504   2.789   4.180   0.656 -1.0866 -2.6207  0.4624
 1957TIP3   OH227505   4.087   5.683   1.870 -0.3741  0.1191 -0.6240
 1957TIP3    H127506   4.072   5.756   1.810 -1.1122  0.2765 -0.2592
 1957TIP3    H227507   4.008   5.629   1.862 -0.7450  0.4472  0.6220
 1958TIP3   OH227508   6.275   6.164   0.833  0.1213 -0.2700 -0.4624
 1958TIP3    H127509   6.200   6.211   0.798  0.2469  0.3188  0.0498
 1958TIP3    H227510   6.347   6.227   0.831  0.6693 -0.9107 -1.1893
 1959TIP3   OH227511   0.009   2.839   7.856 -0.1667 -0.1178 -0.0366
 1959TIP3    H127512  -0.085   2.824   7.865 -0.5378  0.4368 -2.4939
 1959TIP3    H227513   0.020   2.876   7.769  2.3318  0.0086  0.2563
 1960TIP3   OH227514   4.670   0.592   0.383 -0.0525 -0.2468 -0.4444
 1960TIP3    H127515   4.712   0.612   0.467  1.1588 -0.1904 -1.0471
 1960TIP3    H227516   4.588   0.548   0.408  0.6133 -0.8685  0.7498
 1961TIP3   OH227517   4.061   5.112   0.015 -0.0672 -0.5086  0.1761
 1961TIP3    H127518   3.978   5.112   0.063 -0.3707  1.1763 -0.2807
 1961TIP3    H227519   4.061   5.195  -0.033  1.7372 -0.6261 -0.1004
 1962TIP3   OH227520   0.768   0.938   0.996  0.1549 -0.2282 -0.3642
 1962TIP3    H127521   0.764   0.977   0.908  1.2463 -0.2721 -0.4526
 1962TIP3    H227522   0.760   0.844   0.981 -1.4185 -0.1375 -0.2441
 1963TIP3   OH227523   1.000   4.205   9.040 -0.1457 -0.0150 -0.1609
 1963TIP3    H127524   1.043   4.120   9.029 -2.0601 -0.8640 -1.7660
 1963TIP3    H227525   0.938   4.191   9.111  0.1391  0.3024  0.1502
 1964TIP3   OH227526   3.427   0.630   0.352  0.3796  0.3091  1.0552
 1964TIP3    H127527   3.336   0.609   0.375 -0.9024  2.1409 -1.8063
 1964TIP3    H227528   3.479   0.568   0.402 -2.4416 -0.9799  2.6350
 1965TIP3   OH227529   3.146   4.897   1.887 -0.1046 -0.1705  0.0492
 1965TIP3    H127530   3.138   4.817   1.938 -0.1040  0.1659  0.5764
 1965TIP3    H227531   3.083   4.958   1.926 -0.4720 -0.0729 -0.6640
 1966TIP3   OH227532   2.606   3.002   9.124 -0.6449 -0.4643  0.0566
 1966TIP3    H127533   2.660   2.928   9.099 -0.0041  0.7961 -2.6053
 1966TIP3    H227534   2.659   3.051   9.188  0.5317 -0.3404 -0.9826
 1967TIP3   OH227535   1.409   2.760   2.099 -0.5282 -0.0330  0.6548
 1967TIP3    H127536   1.330   2.785   2.147  0.0578 -0.9327  2.1499
 1967TIP3    H227537   1.433   2.838   2.050 -3.0235 -0.1097 -0.8344
 1968TIP3   OH227538   0.735   0.596   1.994 -0.0518 -0.9718 -0.3679
 1968TIP3    H127539   0.773   0.654   2.059  1.9441 -1.9354 -0.6216
 1968TIP3    H227540   0.642   0.590   2.019 -0.1559  1.5814  0.1637
 1969TIP3   OH227541   2.759   0.662   8.587 -0.1581  0.4381  0.4229
 1969TIP3    H127542   2.706   0.714   8.647 -1.6039 -0.5151  0.0228
 1969TIP3    H227543   2.740   0.571   8.610  0.8614  0.0701 -0.1254
 1970TIP3   OH227544   3.184   0.469   8.754 -0.2420  0.8899  0.8535
 1970TIP3    H127545   3.107   0.465   8.810 -0.1938  0.4051  0.8892
 1970TIP3    H227546   3.246   0.524   8.803 -0.6199  1.4170  0.7482
 1971TIP3   OH227547   3.569   4.779   1.857 -0.0309  0.2555 -0.0203
 1971TIP3    H127548   3.599   4.708   1.912  1.6089  2.1163  1.6564
 1971TIP3    H227549   3.638   4.845   1.862 -1.9890  2.5230 -0.4313
 1972TIP3   OH227550   3.389   5.467   1.760  0.1376  0.1963  0.6321
 1972TIP3    H127551   3.436   5.492   1.680  1.4586  1.8171  1.8537
 1972TIP3    H227552   3.314   5.526   1.763 -0.4364 -0.4821  0.1600
 1973TIP3   OH227553   1.929   6.266   8.660 -0.6426 -0.4184  0.1642
 1973TIP3    H127554   1.883   6.248   8.578  0.4956  0.4952 -0.6987
 1973TIP3    H227555   1.892   6.203   8.722 -0.7134 -1.9126 -1.3233
 1974TIP3   OH227556   0.089   5.127   1.168 -0.4840  0.7336  0.0480
 1974TIP3    H127557   0.031   5.201   1.147  0.7729  1.5307 -0.7323
 1974TIP3    H227558   0.057   5.095   1.252 -0.0812  3.1926  1.2086
 1975TIP3   OH227559   0.192   1.123   8.791 -0.6189  0.0781  0.1258
 1975TIP3    H127560   0.244   1.060   8.841 -0.6050 -0.1388 -0.1641
 1975TIP3    H227561   0.104   1.115   8.827 -0.7528 -0.5482 -0.3235
 1976TIP3   OH227562   3.691   4.119   0.460  0.2331  0.0930  0.2136
 1976TIP3    H127563   3.747   4.142   0.533  1.1837 -0.3781 -0.3520
 1976TIP3    H227564   3.740   4.053   0.411 -0.8828 -0.4590 -0.2034
 1977TIP3   OH227565   5.297   4.426   0.436 -0.3299 -0.6206 -0.0958
 1977TIP3    H127566   5.353   4.395   0.507 -2.1996 -1.7512  0.9692
 1977TIP3    H227567   5.299   4.522   0.444 -0.2678 -0.7242  1.3042
 1978TIP3   OH227568   0.100   4.483   8.352  0.3430 -0.8515 -0.0359
 1978TIP3    H127569   0.152   4.555   8.387 -1.1599  1.5870 -2.4351
 1978TIP3    H227570   0.137   4.405   8.392  2.3122  1.1770  2.4377
 1979TIP3   OH227571   3.025   6.645   1.304  0.5094  0.1695  0.3173
 1979TIP3    H127572   2.989   6.728   1.274 -0.3282  0.0481  0.9377
 1979TIP3    H227573   3.116   6.663   1.323  0.3870  0.8890  0.2299
 1980TIP3   OH227574   0.821   2.935   1.982 -0.6037  0.2037  0.1987
 1980TIP3    H127575   0.763   2.863   2.008  0.8269 -0.8989  0.4467
 1980TIP3    H227576   0.903   2.918   2.028  0.2858  1.1264 -0.9647
 1981TIP3   OH227577   1.014   1.888   2.847 -0.5162 -0.0964 -0.3881
 1981TIP3    H127578   1.019   1.806   2.797 -0.1623 -0.8156  0.7677
 1981TIP3    H227579   1.053   1.866   2.932  0.6942  1.6135 -0.4586
 1982TIP3   OH227580   2.426   3.340   8.558  0.7413  0.3763 -0.2392
 1982TIP3    H127581   2.473   3.285   8.495  1.8863 -0.2519  1.0958
 1982TIP3    H227582   2.492   3.361   8.625 -0.9018 -0.7969  1.8755
 1983TIP3   OH227583   4.047   0.450   1.369  0.2750  0.1990 -0.1506
 1983TIP3    H127584   4.055   0.543   1.350  0.4452 -0.1788 -2.2451
 1983TIP3    H227585   4.118   0.410   1.318 -0.3207 -1.1436  0.0459
 1984TIP3   OH227586   2.620   6.289   8.677  0.2364  0.2154  0.5582
 1984TIP3    H127587   2.540   6.324   8.638  1.9190  1.6097 -1.9061
 1984TIP3    H227588   2.606   6.195   8.680 -1.4476  0.4254  0.1083
 1985TIP3   OH227589   1.603   2.322   7.704  0.1744 -0.3327  0.1525
 1985TIP3    H127590   1.518   2.282   7.685 -0.0847  0.5223 -0.5671
 1985TIP3    H227591   1.622   2.375   7.627 -0.4686  2.5738  1.8738
 1986TIP3   OH227592   2.774   3.090   1.641 -0.3743  0.4105 -0.1934
 1986TIP3    H127593   2.802   3.002   1.614 -0.6036 -0.4249  2.0851
 1986TIP3    H227594   2.686   3.100   1.605  0.0417  0.1534 -1.3295
 1987TIP3   OH227595   3.776   2.312   8.623 -0.2402  0.3440  0.0602
 1987TIP3    H127596   3.745   2.377   8.560 -0.7234  0.3945  0.3485
 1987TIP3    H227597   3.765   2.353   8.709 -1.5489 -0.4967  0.3233
 1988TIP3   OH227598   5.768   5.579   3.054 -0.5802  0.3817  0.4567
 1988TIP3    H127599   5.686   5.530   3.056 -1.4914  1.8783  1.2020
 1988TIP3    H227600   5.754   5.653   3.112 -0.0886  2.8605 -2.3287
 1989TIP3   OH227601   5.709   5.144   8.781 -0.5809 -0.9004  0.4920
 1989TIP3    H127602   5.789   5.098   8.755  2.5544  2.8221  2.4988
 1989TIP3    H227603   5.687   5.198   8.705  0.8598  0.3983  0.9268
 1990TIP3   OH227604   2.325   6.228   0.988 -0.9200  0.2142  0.5382
 1990TIP3    H127605   2.352   6.160   1.049  0.0274  0.7091  0.6863
 1990TIP3    H227606   2.396   6.233   0.924 -0.9293  1.1149  0.5795
 1991TIP3   OH227607   4.012   5.973   1.119 -0.0152  0.4901  0.2809
 1991TIP3    H127608   4.051   5.907   1.062  0.7162  0.9347  0.2538
 1991TIP3    H227609   3.937   6.005   1.071  0.9803  1.3426 -0.7638
 1992TIP3   OH227610   1.501   2.506   1.756  0.4510 -0.2795  0.5264
 1992TIP3    H127611   1.424   2.463   1.793  1.0382 -2.0901 -0.2351
 1992TIP3    H227612   1.571   2.488   1.818  0.9552 -1.4871 -0.3440
 1993TIP3   OH227613   5.468   4.157   1.846 -0.0079  0.8176 -0.0018
 1993TIP3    H127614   5.527   4.209   1.899 -1.7545  0.7186  2.1748
 1993TIP3    H227615   5.430   4.094   1.907 -0.8337 -0.4585 -1.7481
 1994TIP3   OH227616   4.105   6.199   2.112 -0.2083  1.1565  0.1059
 1994TIP3    H127617   4.050   6.198   2.034 -0.9649  1.1327  0.6249
 1994TIP3    H227618   4.142   6.110   2.117 -0.5141  1.0248  0.0195
 1995TIP3   OH227619   5.819   6.266   8.524 -0.0598 -0.2657  0.1697
 1995TIP3    H127620   5.790   6.230   8.608 -2.1109 -2.5028 -1.3570
 1995TIP3    H227621   5.893   6.210   8.498 -0.2865 -0.4402 -0.1058
 1996TIP3   OH227622   6.446   2.742   1.772 -0.1907 -0.4203 -0.2934
 1996TIP3    H127623   6.446   2.647   1.760  2.6691 -0.4133 -0.9388
 1996TIP3    H227624   6.446   2.754   1.867  1.0348 -1.1312 -0.1874
 1997TIP3   OH227625   0.779   2.722   7.865 -0.2209 -0.0929  0.4791
 1997TIP3    H127626   0.826   2.806   7.863 -1.5974  0.6937  0.2064
 1997TIP3    H227627   0.721   2.725   7.790  0.1276 -1.5737  0.1199
 1998TIP3   OH227628   5.104   6.277   0.165 -0.4101  0.0443 -0.1712
 1998TIP3    H127629   5.112   6.348   0.229  0.3003 -0.5912  0.4645
 1998TIP3    H227630   5.043   6.311   0.099 -0.3627  1.1016  0.3067
 1999TIP3   OH227631   5.132   1.187   7.885  0.0409  0.4401 -0.1501
 1999TIP3    H127632   5.197   1.218   7.822 -1.0052  1.8724 -0.5967
 1999TIP3    H227633   5.139   1.092   7.882 -0.7814  0.3488 -3.3819
 2000TIP3   OH227634   6.451   2.791   8.072  0.2706 -0.1886 -0.3721
 2000TIP3    H127635   6.448   2.720   8.008 -0.2885 -0.8248  0.3433
 2000TIP3    H227636   6.360   2.820   8.080  0.2908 -0.2913  0.3153
 2001TIP3   OH227637   6.319   4.937   0.555  0.2734  0.1094  0.3958
 2001TIP3    H127638   6.271   5.015   0.528  2.2039  1.7137  1.3394
 2001TIP3    H227639   6.382   4.921   0.484  0.9572  0.4011  0.9238
 2002TIP3   OH227640   0.171   0.114   8.452  0.1059 -0.5364 -0.1148
 2002TIP3    H127641   0.240   0.097   8.515  1.2187  0.0237 -1.1509
 2002TIP3    H227642   0.169   0.037   8.396 -1.9111 -1.7236  1.4380
 2003TIP3   OH227643   1.096   6.595   0.819 -0.1913 -0.5126 -0.4696
 2003TIP3    H127644   1.164   6.532   0.794  0.2921 -0.6037  0.9985
 2003TIP3    H227645   1.144   6.664   0.864 -1.2248 -1.4674  2.2840
 2004TIP3   OH227646   1.669   2.088   1.490  0.2931 -0.5603 -0.0120
 2004TIP3    H127647   1.674   2.166   1.546 -1.1157  0.1733 -0.8655
 2004TIP3    H227648   1.718   2.021   1.539  2.7414  1.1761  0.1293
 2005TIP3   OH227649   5.452   5.161   0.402 -0.5515 -0.2731 -0.1987
 2005TIP3    H127650   5.372   5.115   0.377 -0.1550 -2.3086  1.9462
 2005TIP3    H227651   5.523   5.102   0.375  0.1329  0.5034 -0.1288
 2006TIP3   OH227652   1.907   1.858   3.380  0.2996  0.1813  0.6469
 2006TIP3    H127653   1.984   1.851   3.324  0.2665  1.0116  0.4829
 2006TIP3    H227654   1.872   1.769   3.385  0.2054  0.1290 -0.7711
 2007TIP3   OH227655   4.507   4.384   0.257  0.2350 -0.0512 -0.2343
 2007TIP3    H127656   4.520   4.344   0.343 -1.1076  0.4408  0.2224
 2007TIP3    H227657   4.581   4.443   0.247  0.0104  0.4696  0.9476
 2008TIP3   OH227658   0.186   6.318   1.710 -0.1253  0.1535 -0.0064
 2008TIP3    H127659   0.123   6.331   1.639 -0.0720 -0.7114 -0.2281
 2008TIP3    H227660   0.185   6.223   1.726  0.8457  0.1684  0.2345
 2009TIP3   OH227661   2.893   1.554   3.533  0.6939 -0.5323 -0.1323
 2009TIP3    H127662   2.925   1.571   3.444  0.0215 -0.9031 -0.4531
 2009TIP3    H227663   2.839   1.476   3.525  0.8349 -0.7244  0.6592
 2010TIP3   OH227664   6.374   1.715   8.892  0.4012  0.3274  0.3148
 2010TIP3    H127665   6.461   1.682   8.872 -0.5869 -1.7588 -0.9063
 2010TIP3    H227666   6.331   1.721   8.806 -0.8142  0.8087  0.9380
 2011TIP3   OH227667   3.162   2.069   0.780 -0.4044 -0.0285  0.0941
 2011TIP3    H127668   3.175   2.133   0.711  1.4310 -1.6827 -1.2174
 2011TIP3    H227669   3.123   1.993   0.735 -1.8044 -0.1763  1.4473
 2012TIP3   OH227670   5.410   2.314   1.027 -0.3007  0.0033  0.1148
 2012TIP3    H127671   5.395   2.277   0.940 -0.6590 -0.4880  0.3722
 2012TIP3    H227672   5.465   2.249   1.071  0.8967  0.8239 -0.1367
 2013TIP3   OH227673   4.160   3.600   2.041  0.1399 -0.1882  0.6682
 2013TIP3    H127674   4.163   3.556   2.126  1.2403 -0.3647  0.5547
 2013TIP3    H227675   4.252   3.618   2.020  0.0603 -1.7422 -1.2884
 2014TIP3   OH227676   4.283   1.927   7.994 -0.3667  0.0257 -0.4782
 2014TIP3    H127677   4.309   2.011   7.957  0.2957 -1.5739 -4.1527
 2014TIP3    H227678   4.364   1.889   8.027 -0.5923  0.5725  0.7741
 2015TIP3   OH227679   0.541   1.581   2.358 -0.6720  0.6277 -0.4101
 2015TIP3    H127680   0.619   1.526   2.364 -1.0356  0.0143 -1.1645
 2015TIP3    H227681   0.505   1.581   2.447 -1.8202 -2.1178 -0.7875
 2016TIP3   OH227682   1.943   3.282   8.719 -0.1151 -0.0459  0.7814
 2016TIP3    H127683   1.931   3.193   8.753  1.3000 -0.1502  1.0711
 2016TIP3    H227684   1.889   3.336   8.777  0.0182 -0.5673  1.4102
 2017TIP3   OH227685   0.043   4.915   0.140 -0.2996  0.2324 -0.5537
 2017TIP3    H127686   0.080   4.951   0.060 -0.2000  0.3239 -0.4673
 2017TIP3    H227687   0.078   4.970   0.210  2.7921 -2.1499 -0.0083
 2018TIP3   OH227688   4.736   0.421   1.376  0.3279  0.3644  0.0861
 2018TIP3    H127689   4.730   0.331   1.408  0.7233  0.5102  0.6011
 2018TIP3    H227690   4.652   0.460   1.399  0.3937  0.3035  0.4341
 2019TIP3   OH227691   4.240   4.952   1.845 -0.2591  0.4341  0.4449
 2019TIP3    H127692   4.295   5.024   1.812  0.6104 -0.2134  0.4295
 2019TIP3    H227693   4.166   4.948   1.785 -0.2669  1.2462  0.3854
 2020TIP3   OH227694   1.102   1.925   2.161 -0.5626  0.1772 -0.3412
 2020TIP3    H127695   1.086   1.997   2.222 -0.0557  1.5852 -1.7902
 2020TIP3    H227696   1.153   1.965   2.091 -0.3698 -1.5930 -1.2461
 2021TIP3   OH227697   0.216   3.927   1.411 -0.3493 -0.0567  0.3070
 2021TIP3    H127698   0.311   3.917   1.419 -0.3094 -1.5581 -1.3402
 2021TIP3    H227699   0.191   3.979   1.487  1.2111 -3.2819  3.3204
 2022TIP3   OH227700   5.583   2.674   8.573  0.4718  0.1041 -0.1437
 2022TIP3    H127701   5.568   2.628   8.656  1.9760  0.1958  0.2098
 2022TIP3    H227702   5.677   2.667   8.559  0.1470 -0.5746 -2.2520
 2023TIP3   OH227703   2.377   2.288   8.284 -0.1829  0.0048  0.0846
 2023TIP3    H127704   2.449   2.333   8.240 -0.1000 -0.5408 -0.3580
 2023TIP3    H227705   2.389   2.308   8.377  0.1344  0.4869 -0.0551
 2024TIP3   OH227706   3.354   1.437   0.339  0.4793 -0.0655 -0.3004
 2024TIP3    H127707   3.369   1.359   0.392  0.5465 -0.1035 -0.3761
 2024TIP3    H227708   3.317   1.501   0.400  0.3706 -0.1749 -0.2516
 2025TIP3   OH227709   1.461   2.435   1.241 -0.6355  0.3688  0.7188
 2025TIP3    H127710   1.438   2.438   1.334 -2.0475  0.1957  0.4015
 2025TIP3    H227711   1.526   2.364   1.235 -0.9966 -0.0390  1.4779
 2026TIP3   OH227712   2.900   2.728   0.236  0.1287 -0.3577  0.3159
 2026TIP3    H127713   2.851   2.722   0.154 -2.6716  0.3305  1.8128
 2026TIP3    H227714   2.908   2.821   0.253 -1.3991 -0.4642  1.9074
 2027TIP3   OH227715   2.410   2.772   1.144  0.4543 -0.5199  0.4271
 2027TIP3    H127716   2.388   2.859   1.110 -1.0274 -1.9490 -2.6903
 2027TIP3    H227717   2.340   2.751   1.205  0.6625  0.3205  0.9681
 2028TIP3   OH227718   1.525   1.144   0.044  0.2594  0.4462  0.4878
 2028TIP3    H127719   1.606   1.164  -0.002 -0.6278  1.0446 -0.8886
 2028TIP3    H227720   1.548   1.147   0.137  1.9494 -0.1244  0.1127
 2029TIP3   OH227721   5.692   2.556   7.881 -0.7306 -0.4989  0.6322
 2029TIP3    H127722   5.615   2.500   7.874  0.2467 -1.6514 -1.4911
 2029TIP3    H227723   5.717   2.550   7.973 -3.1262 -0.0799  1.3995
 2030TIP3   OH227724   6.187   6.377   8.639  0.2992  0.0851 -0.5621
 2030TIP3    H127725   6.259   6.345   8.693  1.8269  1.8954 -1.4001
 2030TIP3    H227726   6.139   6.299   8.613  1.0383 -1.0394  1.2717
 2031TIP3   OH227727   4.986   1.082   2.367 -0.1507 -0.2705 -0.5018
 2031TIP3    H127728   5.044   1.022   2.414  0.3535  1.4886  1.2543
 2031TIP3    H227729   5.008   1.168   2.401 -0.8894  0.9538 -2.8954
 2032TIP3   OH227730   0.794   3.828   8.501 -0.4758 -0.6272  0.4118
 2032TIP3    H127731   0.713   3.850   8.455 -0.2891  0.7395  0.6995
 2032TIP3    H227732   0.863   3.838   8.436 -0.3341  0.1691  0.6775
 2033TIP3   OH227733   0.669   6.083   3.140 -0.5420 -0.2021  0.0960
 2033TIP3    H127734   0.713   6.060   3.221  1.6661  0.4937 -0.8383
 2033TIP3    H227735   0.657   6.178   3.145 -0.6194 -0.1895 -0.3008
 2034TIP3   OH227736   0.153   4.576   8.071 -0.0159 -0.1090 -0.2808
 2034TIP3    H127737   0.249   4.582   8.077  0.1995 -3.4574  1.9461
 2034TIP3    H227738   0.127   4.527   8.149 -3.8239  2.2926  0.2076
 2035TIP3   OH227739   3.849   3.266   0.288 -0.4018  0.3314  0.8017
 2035TIP3    H127740   3.810   3.181   0.308 -0.0760 -0.2198 -0.7962
 2035TIP3    H227741   3.791   3.303   0.221 -0.9994  1.7475  2.0557
 2036TIP3   OH227742   4.710   0.728   0.634 -0.5165  0.0599  0.7977
 2036TIP3    H127743   4.643   0.786   0.599  0.1580  0.3925  0.0017
 2036TIP3    H227744   4.774   0.786   0.675  0.3709 -0.0348 -0.3633
 2037TIP3   OH227745   3.322   4.030   8.043  0.3517  0.1625 -0.1297
 2037TIP3    H127746   3.354   4.027   7.953 -1.6973  0.7529 -0.9523
 2037TIP3    H227747   3.386   4.082   8.090  1.6553 -0.4626 -1.1490
 2038TIP3   OH227748   4.994   1.926   2.074  0.0484  0.1184 -0.4478
 2038TIP3    H127749   4.956   1.850   2.028 -1.1595  0.9014 -0.8110
 2038TIP3    H227750   4.925   1.953   2.134  0.5632  0.7927 -0.1594
 2039TIP3   OH227751   3.570   5.353   8.542 -0.0153 -0.1006  0.2335
 2039TIP3    H127752   3.559   5.445   8.566 -3.1143 -0.2816 -0.0875
 2039TIP3    H227753   3.510   5.340   8.468  0.4087 -2.3444  0.2137
 2040TIP3   OH227754   5.300   0.758   0.816 -0.3632 -0.2306  0.3021
 2040TIP3    H127755   5.257   0.843   0.829 -2.0682 -0.2130 -3.7317
 2040TIP3    H227756   5.385   0.779   0.777  0.7790 -0.4113  2.5501
 2041TIP3   OH227757   4.430   2.309   2.634 -0.4242 -0.0529 -0.2590
 2041TIP3    H127758   4.512   2.324   2.681 -1.3744 -0.2154  1.5446
 2041TIP3    H227759   4.393   2.230   2.674 -1.8180  0.4511 -0.4888
 2042TIP3   OH227760   1.212   6.304   7.484  0.0660  0.3332 -0.2060
 2042TIP3    H127761   1.225   6.394   7.456  0.5700  0.6226  0.8852
 2042TIP3    H227762   1.168   6.311   7.569  1.1390 -0.3850  0.4452
 2043TIP3   OH227763   0.610   1.558   1.232  0.6185  0.1078 -0.1001
 2043TIP3    H127764   0.626   1.611   1.310  1.0127 -1.2687  0.8028
 2043TIP3    H227765   0.683   1.495   1.230 -0.2675 -0.9512 -0.6302
 2044TIP3   OH227766   3.618   1.473   6.806 -0.5895  0.0572 -0.3267
 2044TIP3    H127767   3.610   1.387   6.848  0.5397  0.7557  1.4577
 2044TIP3    H227768   3.712   1.483   6.792 -0.3708  2.0539  1.9661
 2045TIP3   OH227769   1.454   2.884   8.701 -0.3785  0.2347 -0.6368
 2045TIP3    H127770   1.400   2.836   8.638 -0.8144  0.0431 -0.1275
 2045TIP3    H227771   1.538   2.839   8.701 -1.2084 -1.4516  0.8536
 2046TIP3   OH227772   3.380   2.358   0.978 -0.0281 -0.3725  0.1691
 2046TIP3    H127773   3.455   2.350   1.037  1.4826 -1.8198 -1.7748
 2046TIP3    H227774   3.361   2.451   0.975  0.1440 -0.2091  2.4971
 2047TIP3   OH227775   5.662   4.864   1.312 -0.2426  0.2367  0.6317
 2047TIP3    H127776   5.730   4.916   1.270 -1.6924  0.6053 -1.4449
 2047TIP3    H227777   5.632   4.917   1.385  0.0329  1.1859  0.0708
 2048TIP3   OH227778   0.308   2.906   7.845 -0.3809  0.5289  0.0061
 2048TIP3    H127779   0.259   2.825   7.834 -0.4198  0.7812 -2.1236
 2048TIP3    H227780   0.241   2.973   7.861 -0.7013  0.6896 -1.7991
 2049TIP3   OH227781   5.934   0.951   0.858  0.4048 -0.6695  0.3114
 2049TIP3    H127782   5.844   0.983   0.851 -0.2293 -2.3726  0.0293
 2049TIP3    H227783   5.978   0.985   0.781 -0.5384 -1.3256 -0.5518
 2050TIP3   OH227784   5.242   5.745   9.076  0.0391 -0.4550  0.1276
 2050TIP3    H127785   5.301   5.796   9.133 -0.5979  0.0769  0.3288
 2050TIP3    H227786   5.204   5.810   9.017 -1.2125 -0.5849  0.7539
 2051TIP3   OH227787   1.878   3.910   7.142 -0.0973  0.0473 -0.0450
 2051TIP3    H127788   1.956   3.914   7.087 -0.1752 -0.1319 -0.1691
 2051TIP3    H227789   1.814   3.862   7.090  0.7008 -2.5834  1.2140
 2052TIP3   OH227790   2.157   2.761   1.524 -0.7976 -0.3963  0.2701
 2052TIP3    H127791   2.092   2.812   1.573  0.1863  0.8897  0.2731
 2052TIP3    H227792   2.214   2.724   1.591  1.0216  2.0000  0.1749
 2053TIP3   OH227793   6.462   3.576   0.220 -0.1407  0.1048  0.0852
 2053TIP3    H127794   6.485   3.622   0.300 -0.1728  0.0670  0.1164
 2053TIP3    H227795   6.534   3.514   0.207 -0.4508 -0.3406  0.4389
 2054TIP3   OH227796   0.686   5.547   1.159 -0.4407  0.0582 -0.1358
 2054TIP3    H127797   0.636   5.622   1.126  0.4867  0.8610  0.2378
 2054TIP3    H227798   0.706   5.570   1.249  1.6976  0.3488 -0.6465
 2055TIP3   OH227799   2.149   1.004   2.284  0.7042 -0.2340 -0.7134
 2055TIP3    H127800   2.169   0.970   2.371 -0.7981 -3.5123 -1.4809
 2055TIP3    H227801   2.234   1.031   2.249  1.7135 -1.1246  0.8936
 2056TIP3   OH227802   1.103   1.236   1.573  0.7937  0.6342 -0.5402
 2056TIP3    H127803   1.049   1.238   1.652  1.7486 -1.1590  0.2054
 2056TIP3    H227804   1.123   1.144   1.560  2.6440  1.1311 -1.5137
 2057TIP3   OH227805   5.974   2.229   0.988  0.3846  0.7225 -0.0111
 2057TIP3    H127806   5.960   2.134   0.986 -1.7688  0.9559  0.8345
 2057TIP3    H227807   6.065   2.239   1.015  1.3268 -1.0799 -2.1397
 2058TIP3   OH227808   4.630   0.361   2.062  0.5375  0.2532  0.4066
 2058TIP3    H127809   4.700   0.355   1.998  0.2608  0.5515  0.0719
 2058TIP3    H227810   4.557   0.312   2.023  0.5959 -0.1720  0.8097
 2059TIP3   OH227811   4.119   5.550   0.597 -0.1892 -0.2233 -0.4300
 2059TIP3    H127812   4.128   5.455   0.602 -3.7063 -0.7055 -0.5086
 2059TIP3    H227813   4.141   5.571   0.506 -1.1308 -1.2801 -0.9376
 2060TIP3   OH227814   4.731   1.542   8.376  0.4463  0.5967  0.3171
 2060TIP3    H127815   4.824   1.518   8.381  0.3294  0.0248 -0.0894
 2060TIP3    H227816   4.685   1.469   8.418  0.1248  0.4127 -0.3386
 2061TIP3   OH227817   2.275   0.220   0.094  0.5580  0.2271  0.3110
 2061TIP3    H127818   2.363   0.250   0.114  1.3837 -2.0395  0.3850
 2061TIP3    H227819   2.224   0.241   0.172  1.7586 -1.0309  1.4905
 2062TIP3   OH227820   4.484   1.190   1.083 -0.4475  0.0244  0.0236
 2062TIP3    H127821   4.422   1.263   1.092  2.8631  2.9857  0.7821
 2062TIP3    H227822   4.513   1.172   1.172  0.0046 -1.1349 -0.3384
 2063TIP3   OH227823   2.822   2.128   3.031 -0.5104  0.0638 -0.8075
 2063TIP3    H127824   2.753   2.136   3.097 -1.3850  0.4546 -1.7298
 2063TIP3    H227825   2.883   2.199   3.050 -2.2343  2.0080 -2.0577
 2064TIP3   OH227826   4.340   6.008   1.364 -0.0116 -0.4200  0.6128
 2064TIP3    H127827   4.336   6.024   1.270 -1.7454 -1.6778  0.4322
 2064TIP3    H227828   4.353   5.913   1.372 -0.7910 -0.4667  1.6192
 2065TIP3   OH227829   3.780   6.049   1.647  0.8423 -0.6804  0.5630
 2065TIP3    H127830   3.727   6.017   1.720 -0.1251 -0.6939 -0.1247
 2065TIP3    H227831   3.740   6.009   1.570  1.6605 -0.4235 -0.0059
 2066TIP3   OH227832   2.012   0.728   0.446  0.0071 -0.1032  0.3918
 2066TIP3    H127833   2.077   0.660   0.460 -0.6624 -0.5033  1.7490
 2066TIP3    H227834   2.001   0.768   0.532 -1.5147 -0.0326  0.1907
 2067TIP3   OH227835   4.632   5.227   9.138 -0.3374 -0.1037  0.8547
 2067TIP3    H127836   4.678   5.153   9.177  0.6854 -0.4471 -0.9051
 2067TIP3    H227837   4.620   5.289   9.210  2.3966 -0.2399  1.5254
 2068TIP3   OH227838   3.059   2.415   1.557 -0.3883 -0.4975 -0.0981
 2068TIP3    H127839   3.140   2.364   1.565 -0.8051 -1.5968 -2.1541
 2068TIP3    H227840   3.067   2.483   1.624  2.4981 -0.2014 -0.6155
 2069TIP3   OH227841   4.834   2.058   8.301 -0.3393  0.9555 -0.3852
 2069TIP3    H127842   4.902   2.043   8.235  1.9007  3.5424  1.0803
 2069TIP3    H227843   4.855   1.995   8.370 -1.6000 -0.5462 -1.3126
 2070TIP3   OH227844   4.882   4.890   9.055 -0.1404  0.0158  0.4802
 2070TIP3    H127845   4.858   4.797   9.061  0.5842 -0.2335 -0.1375
 2070TIP3    H227846   4.857   4.927   9.139 -0.6695 -0.6892  0.6471
 2071TIP3   OH227847   5.460   5.629   7.477 -0.6040  0.1332  0.1488
 2071TIP3    H127848   5.540   5.663   7.439 -0.9241 -0.0483 -0.7024
 2071TIP3    H227849   5.396   5.699   7.464 -0.6000  0.2650  0.7983
 2072TIP3   OH227850   5.369   0.835   2.269  0.5306  0.4173  0.4948
 2072TIP3    H127851   5.294   0.783   2.298  0.7123  0.0019  0.2265
 2072TIP3    H227852   5.331   0.907   2.218  0.2339  0.9424  1.4282
 2073TIP3   OH227853   0.394   1.822   0.699 -0.5348 -0.3612 -0.1540
 2073TIP3    H127854   0.369   1.817   0.791 -1.8974  0.3544 -0.4588
 2073TIP3    H227855   0.393   1.731   0.670  0.9591 -0.7025  0.7821
 2074TIP3   OH227856   6.709   1.683   8.521 -0.3048 -0.0557  0.3596
 2074TIP3    H127857   6.634   1.654   8.573  1.3313  0.5759  3.2446
 2074TIP3    H227858   6.745   1.758   8.569  2.6205 -0.7921 -0.4830
 2075TIP3   OH227859   1.710   3.635   1.316  0.6930 -0.2582  0.4370
 2075TIP3    H127860   1.697   3.686   1.396  0.7422  2.5827 -1.2741
 2075TIP3    H227861   1.803   3.612   1.317  0.8526  0.3902  0.8405
 2076TIP3   OH227862   2.654   0.411   8.334 -0.0110 -0.1193  0.1538
 2076TIP3    H127863   2.737   0.364   8.338 -1.1503 -2.2494  1.1050
 2076TIP3    H227864   2.614   0.383   8.251 -0.6084 -0.7360  0.6314
 2077TIP3   OH227865   5.530   5.466   0.455 -0.0463 -0.2851  0.6298
 2077TIP3    H127866   5.583   5.433   0.383  0.6940  0.8698  0.6030
 2077TIP3    H227867   5.493   5.388   0.496  2.4125 -1.2452  1.2045
 2078TIP3   OH227868   2.069   1.877   2.372  0.1693  0.4953 -0.2782
 2078TIP3    H127869   2.162   1.887   2.353  0.3110 -0.6378 -0.2441
 2078TIP3    H227870   2.058   1.916   2.459  0.3882  1.6282 -0.7438
 2079TIP3   OH227871   0.709   2.828   1.706 -0.0850  0.7878  0.5078
 2079TIP3    H127872   0.772   2.837   1.634 -0.6446  2.3066  0.1638
 2079TIP3    H227873   0.761   2.839   1.785  0.2612  0.8998  0.2693
 2080TIP3   OH227874   4.992   0.766   0.290  0.0771  1.1218  0.1379
 2080TIP3    H127875   4.965   0.707   0.360 -1.2346  1.3339 -0.1607
 2080TIP3    H227876   4.945   0.734   0.213  0.5281  1.6502 -0.3623
 2081TIP3   OH227877   6.286   3.800   1.687 -0.5070 -0.5732 -0.4894
 2081TIP3    H127878   6.296   3.724   1.745 -1.8335 -0.5715 -0.2263
 2081TIP3    H227879   6.197   3.792   1.652 -0.3123  0.3326 -1.2342
 2082TIP3   OH227880   4.867   6.035   1.035  0.4528  0.6363 -0.6900
 2082TIP3    H127881   4.895   6.064   1.121  0.5035  1.6440 -1.0310
 2082TIP3    H227882   4.946   5.996   0.996  0.9572  1.8824 -0.9811
 2083TIP3   OH227883   4.301   4.425   8.834  0.1613 -0.0093 -0.3107
 2083TIP3    H127884   4.394   4.414   8.813 -0.1031  0.0277 -1.5439
 2083TIP3    H227885   4.300   4.445   8.928  1.7373  3.8118 -0.9359
 2084TIP3   OH227886   5.810   5.288   2.753 -0.3109  0.3778 -0.0504
 2084TIP3    H127887   5.877   5.320   2.814  1.2903  2.6991 -2.7630
 2084TIP3    H227888   5.767   5.368   2.722 -1.9410 -0.8326 -1.0138
 2085TIP3   OH227889   1.454   2.721   7.945  0.0585  0.2854 -0.3901
 2085TIP3    H127890   1.501   2.696   8.024  0.3941  2.2780  0.1004
 2085TIP3    H227891   1.523   2.735   7.879  0.0811  1.6210 -0.1247
 2086TIP3   OH227892   2.561   3.959   0.729 -0.3474 -0.0826  0.4677
 2086TIP3    H127893   2.550   4.035   0.785 -2.1576  0.2742 -0.3107
 2086TIP3    H227894   2.650   3.927   0.749  0.0820  1.6345  1.4909
 2087TIP3   OH227895   6.290   5.628   2.271 -0.2983 -0.3655 -0.0353
 2087TIP3    H127896   6.213   5.658   2.318  0.0819 -0.4068  0.6316
 2087TIP3    H227897   6.356   5.613   2.339  0.5470  0.3994 -0.6569
 2088TIP3   OH227898   2.656   2.540   7.886 -0.3159 -0.1927  0.5987
 2088TIP3    H127899   2.751   2.544   7.883 -0.3741  1.1105 -0.2359
 2088TIP3    H227900   2.627   2.627   7.857 -1.7520 -0.4374  1.2155
 2089TIP3   OH227901   4.315   3.273   1.811  0.0120  0.2862 -0.3580
 2089TIP3    H127902   4.266   3.299   1.733  0.1992 -0.8912 -0.9025
 2089TIP3    H227903   4.320   3.177   1.805  2.7160  0.3516 -0.5799
 2090TIP3   OH227904   2.292   5.354   7.632  0.1199 -0.2474  0.5077
 2090TIP3    H127905   2.295   5.394   7.545 -0.6916 -1.8993 -0.3325
 2090TIP3    H227906   2.218   5.293   7.628  0.4781 -0.8505  2.1452
 2091TIP3   OH227907   5.594   1.810   8.513 -0.1475 -0.5489 -0.5821
 2091TIP3    H127908   5.564   1.768   8.432  2.2503 -0.5856 -1.5486
 2091TIP3    H227909   5.553   1.760   8.583 -2.0319 -0.7317 -1.7470
 2092TIP3   OH227910   4.288   4.173   8.146 -0.3287  0.1943  0.2859
 2092TIP3    H127911   4.270   4.122   8.067 -0.1925 -1.4663  1.2904
 2092TIP3    H227912   4.216   4.153   8.205  1.3300 -1.3969  1.8847
 2093TIP3   OH227913   2.669   1.394   3.524  0.2965  0.2173  0.5683
 2093TIP3    H127914   2.604   1.330   3.554 -1.1809  1.9856  1.3809
 2093TIP3    H227915   2.656   1.469   3.582  1.0354  1.7604 -1.1663
 2094TIP3   OH227916   3.762   4.994   1.896  0.1144 -0.1648 -0.2291
 2094TIP3    H127917   3.706   5.063   1.860  0.5648 -0.0581 -0.7372
 2094TIP3    H227918   3.839   4.993   1.839  0.2391 -0.9027 -0.0587
 2095TIP3   OH227919   5.417   4.510   1.109  0.0725  0.5855  0.6343
 2095TIP3    H127920   5.422   4.581   1.172 -2.3302  0.8799  0.5938
 2095TIP3    H227921   5.324   4.488   1.105  0.1300  0.4066 -2.6204
 2096TIP3   OH227922   0.830   2.246   2.171  0.1426 -0.4434  0.0762
 2096TIP3    H127923   0.897   2.221   2.235 -0.7725 -1.5964  0.6238
 2096TIP3    H227924   0.875   2.306   2.112  0.6748  1.8956  2.6279
 2097TIP3   OH227925   0.433   2.382   0.516  0.3024  0.2322  0.9726
 2097TIP3    H127926   0.348   2.392   0.559  0.1483  5.0698  0.1624
 2097TIP3    H227927   0.488   2.338   0.580 -2.0934 -0.6067  2.5846
 2098TIP3   OH227928   1.256   6.657   1.405 -0.4831 -0.3632 -0.0936
 2098TIP3    H127929   1.277   6.682   1.315 -0.9647  0.5942  0.0438
 2098TIP3    H227930   1.227   6.566   1.398  1.4080 -0.9735 -0.6070
 2099TIP3   OH227931   3.502   2.504   1.418 -0.0473  0.6936  0.1172
 2099TIP3    H127932   3.559   2.568   1.375 -0.2424  0.5999 -0.2937
 2099TIP3    H227933   3.417   2.516   1.375  0.5486 -1.7545 -2.0438
 2100TIP3   OH227934   0.435   3.840   2.541  0.0170 -0.1934  0.0797
 2100TIP3    H127935   0.487   3.902   2.592 -0.8042 -0.5129  1.3585
 2100TIP3    H227936   0.345   3.869   2.553 -0.3329 -1.3220  0.2667
 2101TIP3   OH227937   2.790   3.517   0.848  0.2616  0.9534  0.5220
 2101TIP3    H127938   2.858   3.563   0.897 -0.3507 -0.3626  2.7246
 2101TIP3    H227939   2.778   3.435   0.895 -0.3823 -0.4280 -1.8751
 2102TIP3   OH227940   2.214   2.798   1.836  0.1365 -0.5389 -0.7086
 2102TIP3    H127941   2.277   2.870   1.826 -0.1396  0.1195  1.7021
 2102TIP3    H227942   2.260   2.722   1.801  2.4901 -0.1365  1.1712
 2103TIP3   OH227943   0.523   4.104   1.728  0.1899 -0.6468 -0.0442
 2103TIP3    H127944   0.474   4.055   1.794 -0.1434  1.0107  0.9928
 2103TIP3    H227945   0.471   4.183   1.713  1.0228 -0.2909 -1.1804
 2104TIP3   OH227946   3.365   3.107   1.164 -0.3639 -0.4305 -0.1974
 2104TIP3    H127947   3.361   3.198   1.136 -0.2093 -0.7869 -1.4575
 2104TIP3    H227948   3.426   3.107   1.238 -0.4691  0.4993 -0.0996
 2105TIP3   OH227949   3.540   6.272   1.627 -0.4103 -0.1820  0.1172
 2105TIP3    H127950   3.587   6.222   1.694  0.7794  0.3018 -0.3307
 2105TIP3    H227951   3.523   6.208   1.558 -2.8113 -1.0130  1.3806
 2106TIP3   OH227952   3.172   4.427   3.350 -0.2877 -0.1653 -0.2902
 2106TIP3    H127953   3.235   4.359   3.371  0.1705 -0.0378 -1.2074
 2106TIP3    H227954   3.221   4.491   3.298 -0.7621  0.7588  0.3591
 2107TIP3   OH227955   3.044   3.833   3.164  0.2795 -0.8714 -0.3623
 2107TIP3    H127956   2.997   3.916   3.154  0.1869 -0.7924  0.6207
 2107TIP3    H227957   3.136   3.857   3.152  0.2198 -0.6914 -0.4636
 2108TIP3   OH227958   1.745   6.352   7.435 -0.3680 -0.2660 -0.3601
 2108TIP3    H127959   1.752   6.437   7.393  0.0551 -0.5632 -0.9031
 2108TIP3    H227960   1.651   6.333   7.436 -0.5396  0.5343  0.4546
 2109TIP3   OH227961   5.862   6.201   0.618 -0.6534  0.1873 -0.3390
 2109TIP3    H127962   5.897   6.162   0.538 -2.7696  2.3110 -2.4714
 2109TIP3    H227963   5.770   6.217   0.599 -1.4035  0.3109  2.7794
 2110TIP3   OH227964   0.919   1.200   1.775 -0.0476  0.1799 -0.0481
 2110TIP3    H127965   0.877   1.121   1.741 -0.1021  1.1830 -2.5055
 2110TIP3    H227966   0.847   1.258   1.799 -0.0101 -0.5286  1.9674
 2111TIP3   OH227967   4.328   6.200   2.260 -0.0071  0.4346  0.5023
 2111TIP3    H127968   4.361   6.258   2.329 -0.4874  0.2873  0.8592
 2111TIP3    H227969   4.246   6.240   2.233  0.5246  0.8994 -0.5084
 2112TIP3   OH227970   2.712   3.810   8.216 -0.3729  0.3596  0.7498
 2112TIP3    H127971   2.727   3.771   8.302  1.5431 -1.0840 -0.1746
 2112TIP3    H227972   2.759   3.893   8.219  2.9388 -1.3317 -0.0234
 2113TIP3   OH227973   2.301   2.462   8.940 -0.3806 -0.2615  0.1791
 2113TIP3    H127974   2.311   2.434   9.031 -0.0238 -0.7849 -0.0129
 2113TIP3    H227975   2.210   2.441   8.918 -0.3535 -0.5013  0.2970
 2114TIP3   OH227976   3.149   0.624   2.566 -0.0982 -0.0913 -0.6404
 2114TIP3    H127977   3.206   0.695   2.596 -0.1778  0.0414 -0.8037
 2114TIP3    H227978   3.209   0.553   2.542  0.2460  1.0692 -3.7006
 2115TIP3   OH227979   1.643   3.012   1.599  0.2616  0.3369  0.7047
 2115TIP3    H127980   1.553   2.980   1.589 -0.0179  0.5750  2.1767
 2115TIP3    H227981   1.658   3.066   1.522 -1.0296  0.6762  0.6700
 2116TIP3   OH227982   3.567   4.644   0.175  0.2341 -0.5745  0.9170
 2116TIP3    H127983   3.495   4.591   0.140 -1.8946  1.6947  1.5887
 2116TIP3    H227984   3.622   4.581   0.221 -0.2618 -2.6818 -1.1695
 2117TIP3   OH227985   2.362   6.256   8.575 -0.1197 -0.2445  0.3623
 2117TIP3    H127986   2.307   6.209   8.638 -0.1736  0.7536  1.0903
 2117TIP3    H227987   2.302   6.309   8.525  0.1819  1.2303  1.4932
 2118TIP3   OH227988   6.383   3.044   0.360  0.4145 -0.1922  0.1586
 2118TIP3    H127989   6.420   3.130   0.377  0.4878 -0.2328  0.2055
 2118TIP3    H227990   6.393   2.996   0.443  0.0723 -0.1366  0.2337
 2119TIP3   OH227991   3.113   2.017   1.300  0.1565  0.1507 -0.0712
 2119TIP3    H127992   3.025   2.055   1.304  0.1819  0.2303 -0.2640
 2119TIP3    H227993   3.153   2.057   1.223  0.3674  0.1237  0.0243
 2120TIP3   OH227994   0.535   4.440   1.944  0.5255  0.3631  0.2009
 2120TIP3    H127995   0.494   4.429   1.858 -0.3962 -2.2229  0.8728
 2120TIP3    H227996   0.591   4.363   1.954 -0.2371 -0.0002  2.3250
 2121TIP3   OH227997   0.029   4.319   2.080  0.8956  0.1820 -0.0874
 2121TIP3    H127998  -0.060   4.333   2.049 -0.1401  0.5666  2.7770
 2121TIP3    H227999   0.075   4.401   2.061  0.4202  0.2874 -0.8069
 2122TIP3   OH228000   1.962   4.878   7.870  0.0257 -0.1518  0.0023
 2122TIP3    H128001   1.949   4.968   7.901  1.1401 -0.1899  0.6313
 2122TIP3    H228002   1.912   4.824   7.931  0.8082 -0.0900  0.7117
 2123TIP3   OH228003   4.946   1.700   0.133 -0.5443 -0.0049  0.0053
 2123TIP3    H128004   4.885   1.665   0.199 -1.9005 -1.0288 -1.6996
 2123TIP3    H228005   5.002   1.625   0.112 -0.5708  0.1172 -0.4906
 2124TIP3   OH228006   4.279   0.033   1.740  0.3864  0.3615 -0.0787
 2124TIP3    H128007   4.335  -0.044   1.746  1.2537  0.9314 -0.6322
 2124TIP3    H228008   4.225   0.030   1.819  2.2144  0.5840  1.2385
 2125TIP3   OH228009   5.735   5.046   8.268  0.0451 -0.2161  0.3569
 2125TIP3    H128010   5.710   4.954   8.278 -1.7460  0.4309  2.5906
 2125TIP3    H228011   5.812   5.056   8.323 -0.2826 -0.2152  0.8258
 2126TIP3   OH228012   2.372   1.924   1.772 -0.0283 -0.1362  0.2750
 2126TIP3    H128013   2.358   1.829   1.770  2.0197 -0.5242  1.1073
 2126TIP3    H228014   2.364   1.951   1.681  1.0830 -1.4431 -0.2563
 2127TIP3   OH228015   6.168   3.635   0.327  0.1597  0.1223 -0.1666
 2127TIP3    H128016   6.170   3.617   0.234 -0.5306 -0.0774 -0.1536
 2127TIP3    H228017   6.226   3.570   0.366  0.2569  0.0496 -0.4301
 2128TIP3   OH228018   2.632   6.654   7.700  0.1512  0.9838 -0.0080
 2128TIP3    H128019   2.675   6.736   7.675  0.5869  0.5228 -0.8015
 2128TIP3    H228020   2.540   6.668   7.676  0.2369  1.2055 -0.2131
 2129TIP3   OH228021   4.906   1.872   2.987 -0.3591 -0.1879 -0.2077
 2129TIP3    H128022   4.946   1.915   2.912 -1.8391 -1.9959 -2.1345
 2129TIP3    H228023   4.946   1.786   2.990 -1.1014 -0.5233  0.3896
 2130TIP3   OH228024   4.383   5.756   2.580  0.8061  0.0394  0.2086
 2130TIP3    H128025   4.409   5.839   2.621 -0.3601  0.3569  0.3437
 2130TIP3    H228026   4.295   5.739   2.613 -0.4015  0.5403 -2.4850
 2131TIP3   OH228027   0.867   3.260   1.993  0.1719 -0.8924  0.0331
 2131TIP3    H128028   0.797   3.321   2.017  1.4306  1.5025 -1.9024
 2131TIP3    H228029   0.848   3.236   1.902  1.7322 -0.2856 -0.4884
 2132TIP3   OH228030   4.333   0.633   8.538 -0.4327 -0.3511  0.3033
 2132TIP3    H128031   4.246   0.616   8.573 -0.2449  2.1363  2.1971
 2132TIP3    H228032   4.383   0.665   8.613  0.7178  2.8723 -1.6715
 2133TIP3   OH228033   2.442   4.333   8.735 -0.7102  0.1574  0.7499
 2133TIP3    H128034   2.471   4.289   8.815 -0.4678 -1.5685 -0.2449
 2133TIP3    H228035   2.369   4.280   8.702 -0.1796  0.2586 -0.6843
 2134TIP3   OH228036   4.478   2.706   0.220  0.6491 -1.0185  0.0915
 2134TIP3    H128037   4.561   2.686   0.178 -0.6146 -0.3366 -2.9590
 2134TIP3    H228038   4.468   2.801   0.210  0.2022 -0.8409  1.8852
 2135TIP3   OH228039   5.082   3.259   3.011 -0.5987 -0.1434  0.7207
 2135TIP3    H128040   5.121   3.225   3.092 -0.3700  0.2073  0.7623
 2135TIP3    H228041   5.135   3.337   2.990  0.3808 -1.1203 -0.6358
 2136TIP3   OH228042   5.603   6.650   2.916 -0.1396  0.4786 -0.0703
 2136TIP3    H128043   5.567   6.562   2.907 -0.6002  0.4655  1.5772
 2136TIP3    H228044   5.616   6.662   3.010 -1.5474  2.6936 -0.0522
 2137TIP3   OH228045   2.295   3.108   8.719 -0.2971 -0.0500  0.4966
 2137TIP3    H128046   2.230   3.130   8.652 -0.6427 -0.7793  0.5797
 2137TIP3    H228047   2.374   3.087   8.670  0.3755  2.3509  0.4500
 2138TIP3   OH228048   3.205   6.145   9.164 -0.3175  0.0842  0.2334
 2138TIP3    H128049   3.163   6.060   9.155 -0.1666  0.2348 -2.8113
 2138TIP3    H228050   3.284   6.127   9.215 -0.4624 -1.5346 -0.0649
 2139TIP3   OH228051   2.768   5.537   2.210  1.0255  0.1624 -0.6205
 2139TIP3    H128052   2.822   5.467   2.174 -1.6332 -2.5766  0.2707
 2139TIP3    H228053   2.772   5.525   2.305 -0.5345  0.2953 -0.5002
 2140TIP3   OH228054   6.342   5.170   6.728 -0.1884  0.5338  0.0162
 2140TIP3    H128055   6.320   5.196   6.817  0.0885  1.0685 -0.0677
 2140TIP3    H228056   6.350   5.252   6.680 -0.6725  0.2376 -0.5874
 2141TIP3   OH228057   4.254   0.225   2.967 -0.0694  0.3505 -0.2563
 2141TIP3    H128058   4.229   0.138   2.998 -0.7204  0.4659 -0.4619
 2141TIP3    H228059   4.251   0.218   2.872  0.8078  0.3315 -0.2931
 2142TIP3   OH228060   0.407   2.821   1.501 -0.4644 -0.3937  0.3132
 2142TIP3    H128061   0.471   2.752   1.487 -0.9883 -1.3630  2.3323
 2142TIP3    H228062   0.345   2.812   1.428  0.9930 -0.1880 -1.0108
 2143TIP3   OH228063   6.092   1.244   3.116  0.2892  0.0789  0.2924
 2143TIP3    H128064   6.081   1.156   3.154  1.0690 -1.3845 -2.5887
 2143TIP3    H228065   6.004   1.268   3.087  0.4177 -0.7742 -0.8771
 2144TIP3   OH228066   0.662   0.902   2.917  0.2102 -0.1182 -0.4318
 2144TIP3    H128067   0.678   0.854   2.836 -1.6429 -0.9968 -0.3327
 2144TIP3    H228068   0.707   0.850   2.985  1.0836  0.1802 -0.7725
 2145TIP3   OH228069   0.323   1.347   8.901  0.5513 -0.0632 -0.3377
 2145TIP3    H128070   0.263   1.299   8.844 -1.3329  0.4468  1.1174
 2145TIP3    H228071   0.382   1.280   8.935 -1.2857 -1.2308  0.7236
 2146TIP3   OH228072   1.427   2.194   1.025  0.6447  0.8469  0.0038
 2146TIP3    H128073   1.467   2.263   1.078  1.6594  1.2908 -1.2895
 2146TIP3    H228074   1.434   2.226   0.935  0.0023 -0.3954 -0.5084
 2147TIP3   OH228075   2.117   5.773   1.739 -0.6453 -0.1198 -0.3017
 2147TIP3    H128076   2.095   5.851   1.688 -0.1841 -0.3252 -0.8111
 2147TIP3    H228077   2.065   5.782   1.819  2.1191  2.5916  1.3716
 2148TIP3   OH228078   4.869   4.138   7.551 -0.0934  0.5140 -0.4804
 2148TIP3    H128079   4.799   4.196   7.583 -0.1446 -0.0130  0.3768
 2148TIP3    H228080   4.902   4.183   7.473 -1.7206  0.5315 -1.2122
 2149TIP3   OH228081   0.411   1.477   8.638 -0.1884  0.0479 -0.3596
 2149TIP3    H128082   0.359   1.515   8.709  0.4115 -1.9761  1.2559
 2149TIP3    H228083   0.364   1.398   8.613  0.6073 -0.2617 -0.9268
 2150TIP3   OH228084   0.017   5.633   7.488  0.5018  0.3518  0.1872
 2150TIP3    H128085  -0.030   5.560   7.528 -0.9364  1.7840  1.1985
 2150TIP3    H228086  -0.010   5.631   7.396 -4.3862  3.0430  1.2392
 2151TIP3   OH228087   2.950   5.420   8.528  0.3217  0.0862 -0.0023
 2151TIP3    H128088   2.995   5.435   8.611  0.9466  2.2687 -0.6709
 2151TIP3    H228089   3.020   5.406   8.465 -0.1255 -0.8206 -0.3136
 2152TIP3   OH228090   4.836   2.291   8.567 -0.2740  0.3075 -0.1002
 2152TIP3    H128091   4.828   2.385   8.550  0.4394  0.3022 -0.5031
 2152TIP3    H228092   4.851   2.252   8.481 -0.3604 -0.1551  0.0900
 2153TIP3   OH228093   1.393   0.550   2.704  0.5578 -0.1728 -0.1171
 2153TIP3    H128094   1.420   0.481   2.764 -2.6821  0.1601  2.0042
 2153TIP3    H228095   1.379   0.626   2.760 -0.0526  0.9723 -1.7365
 2154TIP3   OH228096   4.201   1.533   9.140 -0.3880 -0.8005 -0.2558
 2154TIP3    H128097   4.202   1.523   9.045 -0.4078 -0.7925 -0.2570
 2154TIP3    H228098   4.251   1.459   9.173 -1.0677 -1.2562 -0.2322
 2155TIP3   OH228099   3.612   5.300   1.536 -0.7285  0.1240  0.2437
 2155TIP3    H128100   3.651   5.387   1.539 -1.9354  0.6709  0.5591
 2155TIP3    H228101   3.627   5.270   1.447  0.3261  0.3439  0.3336
 2156TIP3   OH228102   0.794   5.262   1.133 -0.3555  0.0635  0.0216
 2156TIP3    H128103   0.794   5.353   1.163 -0.3845 -0.6815  2.5574
 2156TIP3    H228104   0.750   5.264   1.048 -0.6422  2.3589  0.1628
 2157TIP3   OH228105   6.384   3.850   2.179  0.2858  0.4792  0.3838
 2157TIP3    H128106   6.479   3.856   2.193  0.2570 -1.2182  1.6162
 2157TIP3    H228107   6.348   3.841   2.267 -0.7273 -1.8208 -0.1881
 2158TIP3   OH228108   3.272   3.184   8.817 -0.7327  0.0285 -0.1174
 2158TIP3    H128109   3.345   3.185   8.878 -1.0339  1.1870  0.2418
 2158TIP3    H228110   3.312   3.193   8.731 -0.4914  2.9824  0.1851
 2159TIP3   OH228111   0.928   0.476   1.188 -0.3362 -0.6474  0.5828
 2159TIP3    H128112   0.918   0.432   1.272  1.0853 -1.9661  0.1096
 2159TIP3    H228113   0.884   0.418   1.125  1.0037 -1.1430  0.0496
 2160TIP3   OH228114   2.635   6.444   1.391 -0.5323 -0.4854 -0.2646
 2160TIP3    H128115   2.665   6.531   1.418  0.4464 -0.4281 -1.4576
 2160TIP3    H228116   2.702   6.384   1.426 -0.9375 -0.7204  0.1202
 2161TIP3   OH228117   2.451   4.164   8.037 -0.1143  0.4212 -0.4091
 2161TIP3    H128118   2.392   4.113   7.981 -0.8196 -0.2053  0.8636
 2161TIP3    H228119   2.539   4.142   8.005 -0.4967  0.1644 -1.3322
 2162TIP3   OH228120   5.262   3.473   3.062  0.0986 -0.0157 -0.5830
 2162TIP3    H128121   5.292   3.556   3.025  0.2739 -0.0676 -0.5561
 2162TIP3    H228122   5.272   3.483   3.156 -2.5501  1.0023 -0.3419
 2163TIP3   OH228123   3.609   1.031   2.401 -0.1948 -0.2805  0.7546
 2163TIP3    H128124   3.627   0.995   2.488 -0.8061 -0.4163  0.8324
 2163TIP3    H228125   3.607   1.126   2.415 -0.4392 -0.3090  0.9210
 2164TIP3   OH228126   1.409   5.665   1.425  0.2398 -0.2289 -0.0645
 2164TIP3    H128127   1.397   5.576   1.391  0.8755 -0.5724  0.5804
 2164TIP3    H228128   1.321   5.702   1.427  0.0931 -0.4437 -1.3792
 2165TIP3   OH228129   1.155   4.268   0.393 -0.0026  0.4748 -0.5004
 2165TIP3    H128130   1.091   4.197   0.398  0.0957  0.4161  0.0138
 2165TIP3    H228131   1.190   4.263   0.304 -0.5134  0.3368 -0.6964
 2166TIP3   OH228132   2.405   4.372   1.118  0.1260  0.1777  0.2581
 2166TIP3    H128133   2.369   4.363   1.029  1.7115 -0.4170 -0.3635
 2166TIP3    H228134   2.418   4.466   1.129 -0.5103  0.2942  0.0336
 2167TIP3   OH228135   4.365   5.865   0.254 -0.3235 -0.0128 -0.5268
 2167TIP3    H128136   4.454   5.829   0.255 -1.1465 -2.1606 -0.3257
 2167TIP3    H228137   4.330   5.839   0.168 -1.7125 -1.8162  0.5026
 2168TIP3   OH228138   0.109   1.141   0.907 -0.0062  0.3458 -0.0196
 2168TIP3    H128139   0.084   1.053   0.879  1.0932  0.0983 -0.2427
 2168TIP3    H228140   0.079   1.198   0.837  0.9114 -0.0524 -0.7460
 2169TIP3   OH228141   5.746   5.896   8.205 -0.6810  0.2513  0.1799
 2169TIP3    H128142   5.690   5.967   8.173 -2.3393 -0.8687  0.4786
 2169TIP3    H228143   5.802   5.938   8.271 -2.6915  1.0072  1.4913
 2170TIP3   OH228144   4.213   5.950   2.091 -0.2008  0.2292  0.4596
 2170TIP3    H128145   4.284   5.918   2.036 -0.9847 -0.1887 -0.3433
 2170TIP3    H228146   4.236   5.921   2.179  0.6974  0.2493  0.2433
 2171TIP3   OH228147   6.091   1.355   8.281 -0.2922 -0.8305 -0.4458
 2171TIP3    H128148   6.072   1.342   8.188  0.7553 -0.3532 -0.7359
 2171TIP3    H228149   6.009   1.390   8.317 -0.3158  0.2491 -1.4668
 2172TIP3   OH228150   0.256   3.701   8.965 -0.5836 -0.4668  0.2515
 2172TIP3    H128151   0.347   3.693   8.991 -0.6965  0.2837  0.8988
 2172TIP3    H228152   0.210   3.634   9.016 -0.3784 -0.9626 -0.2044
 2173TIP3   OH228153   0.143   1.357   0.355  0.0668 -0.6996  0.4813
 2173TIP3    H128154   0.103   1.442   0.338 -1.4932 -1.0548  2.1199
 2173TIP3    H228155   0.221   1.356   0.300  0.4816  2.0386  0.8932
 2174TIP3   OH228156   2.560   4.577   1.404 -0.1854  0.3286 -0.0434
 2174TIP3    H128157   2.498   4.606   1.337  1.0765  1.0748 -0.9128
 2174TIP3    H228158   2.559   4.646   1.470  0.7533  1.0360 -0.7524
 2175TIP3   OH228159   4.659   4.326   7.523  0.7203  0.6275 -0.1131
 2175TIP3    H128160   4.661   4.361   7.611 -1.4614  1.2932 -0.2633
 2175TIP3    H228161   4.726   4.375   7.475  1.9178  0.2548  1.1478
 2176TIP3   OH228162   1.309   5.061   8.377 -0.3978 -0.0263  0.3063
 2176TIP3    H128163   1.281   4.993   8.438 -0.1691  1.2036  1.8360
 2176TIP3    H228164   1.388   5.025   8.336 -1.2267 -1.3613 -0.1902
 2177TIP3   OH228165   3.339   6.422   1.564  0.0028  0.5782  0.0538
 2177TIP3    H128166   3.411   6.372   1.604 -0.5036 -0.3031 -0.1105
 2177TIP3    H228167   3.383   6.490   1.513  0.6883  0.9094  1.0526
 2178TIP3   OH228168   2.957   5.595   7.634 -0.3929 -0.5040  0.2904
 2178TIP3    H128169   2.997   5.564   7.553  0.3962  2.4468 -0.5659
 2178TIP3    H228170   2.965   5.521   7.695  2.5024 -1.5248 -1.1582
 2179TIP3   OH228171   3.793   3.569   7.736  0.5500  0.0847  0.4724
 2179TIP3    H128172   3.819   3.506   7.669 -0.5177 -1.0167  1.0588
 2179TIP3    H228173   3.720   3.527   7.782 -0.4057  1.8640  0.6881
 2180TIP3   OH228174   4.343   5.444   2.366  0.4188 -0.5196 -0.2515
 2180TIP3    H128175   4.292   5.368   2.393  0.5571 -1.2977 -2.0706
 2180TIP3    H228176   4.403   5.460   2.439 -0.7365 -1.0845  0.8708
 2181TIP3   OH228177   1.727   4.029   0.057 -0.5336  0.0498 -0.3368
 2181TIP3    H128178   1.727   4.036  -0.038  0.0908 -2.1878 -0.5731
 2181TIP3    H228179   1.635   4.038   0.082 -0.9207 -0.9526 -1.3336
 2182TIP3   OH228180   0.955   1.309   0.471 -0.4291 -0.3174  0.2420
 2182TIP3    H128181   0.995   1.226   0.499  0.8824  1.1582  3.2178
 2182TIP3    H228182   1.026   1.357   0.429 -0.0420  0.7558  2.0173
 2183TIP3   OH228183   1.630   4.056   0.916 -0.0252 -0.3201  0.1319
 2183TIP3    H128184   1.630   4.112   0.839  0.7760  0.2293  0.5231
 2183TIP3    H228185   1.656   3.970   0.883 -1.5522 -0.5682 -0.5183
 2184TIP3   OH228186   2.798   5.821   1.223  0.0146 -0.1489  0.2110
 2184TIP3    H128187   2.705   5.812   1.243  0.5194 -0.8794  2.5317
 2184TIP3    H228188   2.839   5.744   1.263  1.8259  1.1314  0.9554
 2185TIP3   OH228189   5.806   0.415   0.254  0.3591  0.3017  0.5202
 2185TIP3    H128190   5.813   0.508   0.231  0.6102  0.0758 -0.3285
 2185TIP3    H228191   5.896   0.383   0.253  0.2468 -0.0141  0.5579
 2186TIP3   OH228192   3.131   5.610   3.029  0.3620 -0.4735  0.4936
 2186TIP3    H128193   3.200   5.544   3.025  1.7626  0.8595  1.2260
 2186TIP3    H228194   3.177   5.690   3.056 -1.0796  1.0509 -1.3178
 2187TIP3   OH228195   6.182   4.042   0.766  0.2516  0.2645 -0.0604
 2187TIP3    H128196   6.142   4.097   0.833 -0.0746 -1.9054  1.6810
 2187TIP3    H228197   6.275   4.041   0.789  0.4743  1.0871 -0.8812
 2188TIP3   OH228198   2.377   1.250   2.291 -0.1610  0.7706  0.4421
 2188TIP3    H128199   2.353   1.190   2.361 -0.4265 -0.1926 -0.4383
 2188TIP3    H228200   2.389   1.335   2.334 -0.3783  0.2194  1.6225
 2189TIP3   OH228201   6.589   3.217   1.738  0.0142  0.3022 -0.1430
 2189TIP3    H128202   6.524   3.228   1.807  0.2604 -2.8467  0.7673
 2189TIP3    H228203   6.671   3.202   1.785  0.7756  0.9789 -1.2179
 2190TIP3   OH228204   1.558   4.995   1.261 -0.3964 -0.0794  0.2606
 2190TIP3    H128205   1.537   5.050   1.337 -0.5489 -0.5407  0.5569
 2190TIP3    H228206   1.492   5.017   1.196  0.3599  1.0961 -0.1443
 2191TIP3   OH228207   4.837   2.080   3.512 -0.2592  0.5022 -0.9374
 2191TIP3    H128208   4.854   1.992   3.546 -1.4002 -0.5615 -2.9158
 2191TIP3    H228209   4.801   2.065   3.424 -0.7996  2.9455 -1.2006
 2192TIP3   OH228210   1.095   3.874   7.763 -0.2526 -0.0152  0.3422
 2192TIP3    H128211   1.134   3.882   7.676 -0.0461 -1.2068  0.3081
 2192TIP3    H228212   1.027   3.807   7.754  1.6208 -2.2834  1.6299
 2193TIP3   OH228213   5.745   2.653   0.638  0.1106 -0.3534  0.2428
 2193TIP3    H128214   5.670   2.622   0.689  1.0421  1.1338  2.7697
 2193TIP3    H228215   5.806   2.685   0.705  2.2828 -0.0104 -1.8037
 2194TIP3   OH228216   1.361   2.870   2.668 -0.1598  0.2921  0.6003
 2194TIP3    H128217   1.311   2.789   2.662  0.3211  0.0587 -0.6989
 2194TIP3    H228218   1.359   2.906   2.579 -0.1778  1.5962  1.1095
 2195TIP3   OH228219   1.004   0.702   8.427  0.0361  0.3750  0.9039
 2195TIP3    H128220   0.936   0.697   8.494  0.6046 -0.1147  1.4577
 2195TIP3    H228221   0.958   0.684   8.345 -0.7345  1.3277  1.0989
 2196TIP3   OH228222   5.702   3.882   2.383  0.0609  0.9200  0.2982
 2196TIP3    H128223   5.673   3.971   2.364 -2.0994  0.3120  0.4134
 2196TIP3    H228224   5.699   3.876   2.478 -1.4643  0.2787  0.2446
 2197TIP3   OH228225   2.380   2.011   9.016 -0.5704 -0.1012  0.3830
 2197TIP3    H128226   2.371   2.075   9.086 -0.9603 -0.4410  0.6498
 2197TIP3    H228227   2.318   1.942   9.038 -0.2577 -0.5073  0.0266
 2198TIP3   OH228228   3.654   2.840   8.183  0.3033  0.0798  0.3476
 2198TIP3    H128229   3.624   2.902   8.116 -0.2404  1.0502  1.4505
 2198TIP3    H228230   3.725   2.792   8.140 -0.1059  0.5807 -0.9647
 2199TIP3   OH228231   3.205   3.286   1.343  0.1380  0.3395  0.5103
 2199TIP3    H128232   3.118   3.291   1.304  0.3577 -2.2632 -0.5101
 2199TIP3    H228233   3.266   3.297   1.270  0.5539 -2.9862  0.1907
 2200TIP3   OH228234   4.933   6.387   1.246 -0.0463 -0.0600 -0.1143
 2200TIP3    H128235   4.932   6.378   1.151 -0.0993 -1.1924 -0.0303
 2200TIP3    H228236   5.013   6.342   1.273  0.2477  0.7169  0.3472
 2201TIP3   OH228237   4.788   4.690   7.821  0.2428  0.0249 -0.1227
 2201TIP3    H128238   4.875   4.680   7.781  0.5878  0.9267  0.3817
 2201TIP3    H228239   4.774   4.784   7.825 -0.5021 -0.1003  0.3527
 2202TIP3   OH228240   5.604   2.350   2.724  0.3010  0.6656  0.4415
 2202TIP3    H128241   5.677   2.321   2.669 -0.1699 -0.9701  0.6292
 2202TIP3    H228242   5.550   2.272   2.736 -0.8750  1.5623  1.2691
 2203TIP3   OH228243   5.873   4.303   2.518  0.4519 -0.4020 -0.3476
 2203TIP3    H128244   5.845   4.303   2.610  1.4561  0.0949 -0.0182
 2203TIP3    H228245   5.794   4.283   2.468 -0.4550  0.8374  0.5340
 2204TIP3   OH228246   4.451   0.052   9.088 -0.1158  0.8220 -0.3378
 2204TIP3    H128247   4.431   0.094   9.171 -0.5322 -0.8911  0.4697
 2204TIP3    H228248   4.544   0.028   9.095  0.2879  2.0893 -1.0413
 2205TIP3   OH228249   0.688   4.885   0.065 -0.0887  0.2866 -0.4569
 2205TIP3    H128250   0.658   4.806   0.020  0.0655 -0.5127  0.7908
 2205TIP3    H228251   0.658   4.957   0.009 -1.5641 -0.5952 -0.8735
 2206TIP3   OH228252   6.332   6.332   8.856  0.1337  0.1937 -0.2480
 2206TIP3    H128253   6.284   6.402   8.900 -1.3496 -0.4637 -0.7331
 2206TIP3    H228254   6.361   6.274   8.926  0.7756  0.9192  0.1006
 2207TIP3   OH228255   5.621   3.767   8.076  0.4932  0.0148 -0.1753
 2207TIP3    H128256   5.707   3.758   8.118  0.3994  0.3283  0.0806
 2207TIP3    H228257   5.635   3.832   8.007  0.5558 -0.2286 -0.3966
 2208TIP3   OH228258   4.890   1.506   3.273 -0.1735  0.1397  0.3773
 2208TIP3    H128259   4.915   1.599   3.272  1.0856 -0.1774 -0.6182
 2208TIP3    H228260   4.855   1.490   3.185  1.2028 -0.7126 -0.0372
 2209TIP3   OH228261   6.594   0.342   1.716  0.0556  0.5315 -0.8294
 2209TIP3    H128262   6.584   0.437   1.718 -0.1502  0.5090 -0.7380
 2209TIP3    H228263   6.509   0.309   1.745  1.1374  0.3531  2.5439
 2210TIP3   OH228264   0.766   3.410   2.512 -0.2977 -0.0998  0.0721
 2210TIP3    H128265   0.676   3.382   2.492  0.2221 -0.8049 -1.3648
 2210TIP3    H228266   0.775   3.494   2.467 -0.0024 -0.3684 -0.3635
 2211TIP3   OH228267   4.316   3.519   9.091 -0.0740 -0.1647  0.2541
 2211TIP3    H128268   4.357   3.601   9.121 -1.0387  0.2871  0.3881
 2211TIP3    H228269   4.269   3.544   9.012 -1.0008 -0.4171  0.7181
 2212TIP3   OH228270   3.367   0.323   9.007 -0.4672  0.2204  0.6156
 2212TIP3    H128271   3.433   0.365   9.062 -0.0827  1.4851 -0.7347
 2212TIP3    H228272   3.283   0.351   9.044 -0.2210  0.5388  0.9390
 2213TIP3   OH228273   0.403   1.115   9.197 -0.5857 -0.2835 -0.1711
 2213TIP3    H128274   0.468   1.045   9.199 -1.0413 -0.7250  2.3023
 2213TIP3    H228275   0.455   1.196   9.199 -0.1095 -0.5630 -0.7571
 2214TIP3   OH228276   4.522   1.954   2.340 -0.3674  0.3993 -0.0571
 2214TIP3    H128277   4.437   1.958   2.382 -0.5022 -1.3447 -0.0886
 2214TIP3    H228278   4.531   1.863   2.311  0.7381  0.9581 -1.6557
 2215TIP3   OH228279   0.540   5.145   1.051 -0.6730 -0.0572  0.0938
 2215TIP3    H128280   0.533   5.234   1.016  0.7336  0.5123  1.1622
 2215TIP3    H228281   0.463   5.134   1.106 -1.1682  0.2689 -0.5327
 2216TIP3   OH228282   4.167   1.953   2.209  0.2576 -0.0960  0.4727
 2216TIP3    H128283   4.207   1.973   2.294 -0.2912  2.2397  0.2412
 2216TIP3    H228284   4.158   1.858   2.209  0.2953 -0.1682  3.0229
 2217TIP3   OH228285   5.286   5.954   0.470  0.3064 -0.2978 -0.8451
 2217TIP3    H128286   5.365   5.940   0.523 -0.2523 -0.2497  0.0124
 2217TIP3    H228287   5.214   5.947   0.532 -0.3163  0.7361 -1.4274
 2218TIP3   OH228288   2.619   0.985   0.207  0.0846  0.6515 -0.7859
 2218TIP3    H128289   2.609   1.061   0.150 -1.8295  1.3554  0.3858
 2218TIP3    H228290   2.530   0.966   0.238  0.9606  0.0484  1.6246
 2219TIP3   OH228291   0.789   6.079   2.250  0.1490 -0.1732  0.1316
 2219TIP3    H128292   0.739   6.005   2.215  0.8064  0.1387 -1.6114
 2219TIP3    H228293   0.879   6.048   2.252  0.2412  0.1280  0.7103
 2220TIP3   OH228294   5.910   6.081   8.984 -0.4707 -0.2826 -0.5575
 2220TIP3    H128295   5.985   6.022   8.986 -0.9021 -0.8212  0.1520
 2220TIP3    H228296   5.857   6.055   9.059 -1.5448 -0.1375 -1.2408
 2221TIP3   OH228297   0.702   1.399   8.106  0.2046  0.7872 -0.3409
 2221TIP3    H128298   0.792   1.430   8.123  0.7345  0.1496 -1.8202
 2221TIP3    H228299   0.687   1.332   8.173  1.2976  0.0547 -0.7982
 2222TIP3   OH228300   5.926   0.786   2.093 -0.2957  0.3682  0.1374
 2222TIP3    H128301   5.888   0.699   2.101 -1.3217  0.7957  0.1170
 2222TIP3    H228302   5.949   0.794   2.000  1.3297 -0.4679  0.4275
 2223TIP3   OH228303   2.937   0.340   8.297 -0.3853  0.7051 -0.0201
 2223TIP3    H128304   2.909   0.338   8.206 -1.6648  2.2914  0.2792
 2223TIP3    H228305   3.001   0.411   8.301  0.0981  0.2600  0.2121
 2224TIP3   OH228306   0.301   0.784   0.650  0.5600  0.2711  0.1769
 2224TIP3    H128307   0.295   0.879   0.641  1.2441  0.2683 -0.4670
 2224TIP3    H228308   0.260   0.750   0.572 -1.9981 -0.0702  1.5724
 2225TIP3   OH228309   5.773   6.184   8.764 -0.0030 -0.2761 -0.3255
 2225TIP3    H128310   5.839   6.151   8.825  1.3961 -1.5725 -2.4347
 2225TIP3    H228311   5.711   6.112   8.753 -0.8860  0.3475  0.3511
 2226TIP3   OH228312   4.849   5.437   0.612 -0.3015  0.1856  0.1066
 2226TIP3    H128313   4.936   5.458   0.646 -0.9957  1.1888  1.3706
 2226TIP3    H228314   4.797   5.516   0.629 -1.9790 -1.0775  1.2198
 2227TIP3   OH228315   2.653   5.379   8.883 -0.5863  0.5454 -0.5433
 2227TIP3    H128316   2.700   5.456   8.853 -0.2380  1.6803  2.5436
 2227TIP3    H228317   2.711   5.339   8.948 -1.3636 -1.5464 -1.0572
 2228TIP3   OH228318   2.812   6.690   8.439  0.2946  0.2341 -0.2224
 2228TIP3    H128319   2.716   6.688   8.445  0.1907 -1.1684 -1.6779
 2228TIP3    H228320   2.838   6.599   8.450  1.1101 -0.1226 -3.8373
 2229TIP3   OH228321   6.064   6.649   0.644 -0.5538  0.2519  0.0271
 2229TIP3    H128322   6.025   6.710   0.707 -1.8323 -0.5142  0.0129
 2229TIP3    H228323   6.151   6.630   0.680 -1.1475  0.0525  1.4093
 2230TIP3   OH228324   2.489   4.367   0.640  0.4760 -0.2360  0.6026
 2230TIP3    H128325   2.571   4.321   0.625  1.9286  1.5566  2.3645
 2230TIP3    H228326   2.450   4.377   0.553  3.1347  0.5627 -0.6051
 2231TIP3   OH228327   4.427   6.178   0.100  0.5717 -0.2859  0.2427
 2231TIP3    H128328   4.488   6.252   0.107  0.0465  0.1410  0.3532
 2231TIP3    H228329   4.467   6.120   0.036 -0.2749  1.3140 -1.8204
 2232TIP3   OH228330   5.193   2.961   2.566  0.2573 -0.9512  0.3869
 2232TIP3    H128331   5.230   2.951   2.653 -1.6471  0.0775  1.3752
 2232TIP3    H228332   5.265   2.938   2.507  1.4301 -2.2104  2.1975
 2233TIP3   OH228333   1.122   3.353   3.008  0.3005  0.1216 -0.0058
 2233TIP3    H128334   1.194   3.314   3.057  0.4007 -1.0882 -1.0883
 2233TIP3    H228335   1.129   3.447   3.026  1.2542 -0.1337  1.0518
 2234TIP3   OH228336   4.680   5.793   2.892 -0.2611 -0.5259 -0.2627
 2234TIP3    H128337   4.694   5.845   2.971  1.5629  1.6363 -1.8635
 2234TIP3    H228338   4.624   5.849   2.837 -0.8530 -1.6406 -0.8137
 2235TIP3   OH228339   1.653   2.053   0.096 -0.5681  0.6325  0.3834
 2235TIP3    H128340   1.624   2.097   0.016  1.1437  1.7797  0.3394
 2235TIP3    H228341   1.582   2.069   0.159 -1.5048  0.5237 -0.6058
 2236TIP3   OH228342   5.326   1.573   0.144  0.4333 -0.0583 -0.3077
 2236TIP3    H128343   5.273   1.495   0.129 -1.2836  1.4892 -3.4605
 2236TIP3    H228344   5.274   1.627   0.203  1.1659 -0.7981  1.0691
 2237TIP3   OH228345   3.490   3.102   8.220 -0.1877  0.6768  0.0533
 2237TIP3    H128346   3.457   3.157   8.150 -2.1158  0.7154  0.9357
 2237TIP3    H228347   3.423   3.034   8.232  0.1624  0.5786  1.7286
 2238TIP3   OH228348   4.750   5.190   7.531  0.0849  0.1325 -0.3359
 2238TIP3    H128349   4.846   5.195   7.523  0.0228 -1.2416 -2.7648
 2238TIP3    H228350   4.720   5.278   7.507  0.6972  0.2772 -0.6147
 2239TIP3   OH228351   4.603   6.439   9.100  0.2100  0.0988 -0.0614
 2239TIP3    H128352   4.584   6.352   9.064  0.0106  0.5928 -1.1827
 2239TIP3    H228353   4.626   6.422   9.192  1.0271 -1.2337 -0.4759
 2240TIP3   OH228354   2.396   3.863   0.272 -0.4336 -0.2754 -0.1209
 2240TIP3    H128355   2.437   3.850   0.357 -0.3324  0.3261 -0.0763
 2240TIP3    H228356   2.391   3.775   0.234 -0.4323 -0.5362  0.4804
 2241TIP3   OH228357   4.879   2.126   0.147  0.2072 -0.3202 -0.5590
 2241TIP3    H128358   4.919   2.212   0.161  1.6806 -0.8575 -1.2095
 2241TIP3    H228359   4.865   2.121   0.052 -1.4490 -0.1655 -0.3591
 2242TIP3   OH228360   5.071   6.084   9.116  0.2159  0.5493 -0.0617
 2242TIP3    H128361   4.985   6.115   9.145  1.0561  0.0856  3.2382
 2242TIP3    H228362   5.133   6.148   9.149  1.3030  0.1128 -1.1586
 2243TIP3   OH228363   0.890   0.640   9.118  0.0249 -0.0781 -0.1938
 2243TIP3    H128364   0.934   0.558   9.096 -0.8779 -0.7095  0.2571
 2243TIP3    H228365   0.954   0.708   9.101  1.3764 -0.9972  0.9835
 2244TIP3   OH228366   6.298   1.329   2.454  0.2052  0.1463  0.1765
 2244TIP3    H128367   6.286   1.254   2.395 -0.1007  0.4124 -0.1039
 2244TIP3    H228368   6.229   1.391   2.428  0.2838  0.4067  0.5900
 2245TIP3   OH228369   3.669   6.693   1.748 -0.1090  0.0789  0.0906
 2245TIP3    H128370   3.583   6.720   1.782 -0.3110 -1.4040  0.8427
 2245TIP3    H228371   3.715   6.658   1.825  1.1066  0.6652 -0.3451
 2246TIP3   OH228372   5.704   6.382   2.647 -0.2138  0.4437  0.4438
 2246TIP3    H128373   5.654   6.321   2.593  0.0245  1.7280 -1.3146
 2246TIP3    H228374   5.651   6.391   2.727 -1.7982  0.2647 -0.5336
 2247TIP3   OH228375   4.488   3.781   1.094 -0.2874 -0.1377  0.3450
 2247TIP3    H128376   4.514   3.870   1.118 -0.5102 -0.1520  0.6410
 2247TIP3    H228377   4.557   3.725   1.130 -0.2414 -0.0989  0.3169
 2248TIP3   OH228378   4.698   4.009   9.041  0.0846  0.6853  0.0762
 2248TIP3    H128379   4.738   3.984   9.125  1.6176 -0.1232 -0.8455
 2248TIP3    H228380   4.609   4.034   9.064 -0.2158 -1.5363  1.6951
 2249TIP3   OH228381   4.073   2.354   1.065  0.7223  0.4751 -0.2922
 2249TIP3    H128382   4.050   2.273   1.110  1.2445 -0.2177 -1.2447
 2249TIP3    H228383   4.091   2.416   1.136  0.4760 -0.2774  0.4469
 2250TIP3   OH228384   2.890   2.205   0.706 -0.7742  0.0693  0.0729
 2250TIP3    H128385   2.881   2.235   0.797 -0.8251 -0.1969  0.1588
 2250TIP3    H228386   2.896   2.110   0.714  3.0867  0.1617  0.1415
 2251TIP3   OH228387   2.705   0.000   9.107 -0.1940 -0.1819 -0.0337
 2251TIP3    H128388   2.732  -0.032   9.022  0.2861  0.6015 -0.1919
 2251TIP3    H228389   2.616   0.033   9.093  0.1693  0.6585 -0.4319
 2252TIP3   OH228390   5.863   6.586   8.870  0.4750 -0.2092  0.1019
 2252TIP3    H128391   5.807   6.543   8.805  2.1149 -0.1679 -1.3832
 2252TIP3    H228392   5.809   6.658   8.904 -1.5977 -2.1402  1.1973
 2253TIP3   OH228393   0.214   3.593   8.454 -0.3488 -0.7024  0.4911
 2253TIP3    H128394   0.145   3.529   8.438 -0.3496 -0.7853  0.8288
 2253TIP3    H228395   0.291   3.540   8.475  0.3452 -0.7095 -1.7438
 2254TIP3   OH228396   5.556   2.438   0.203 -0.1077  0.0669 -0.2129
 2254TIP3    H128397   5.491   2.370   0.219 -0.2627 -0.0106 -1.0969
 2254TIP3    H228398   5.615   2.434   0.278 -0.0486 -1.1149 -0.3038
 2255TIP3   OH228399   3.067   3.755   8.893  0.3255 -0.2116 -0.4662
 2255TIP3    H128400   2.977   3.723   8.888 -0.0100  0.6220  0.0683
 2255TIP3    H228401   3.103   3.737   8.806 -0.4925 -0.1500 -0.8297
 2256TIP3   OH228402   0.550   4.941   0.871 -0.0247 -0.5099  0.0174
 2256TIP3    H128403   0.576   5.021   0.917 -0.8941  0.7735 -1.6304
 2256TIP3    H228404   0.455   4.949   0.861 -0.1449 -1.8188 -0.0886
 2257TIP3   OH228405   4.592   5.132   8.257  0.8702 -0.7846 -0.0817
 2257TIP3    H128406   4.636   5.099   8.178  0.2150 -0.9738 -0.3774
 2257TIP3    H228407   4.614   5.225   8.259  0.6890 -0.7206 -0.6437
 2258TIP3   OH228408   1.393   5.665   0.397  0.4567  0.6870 -0.2772
 2258TIP3    H128409   1.340   5.618   0.461 -0.2612  0.9124 -0.6917
 2258TIP3    H228410   1.428   5.596   0.340 -0.0697  0.5924 -0.4959
 2259TIP3   OH228411   2.484   0.803   1.837 -0.1979 -0.3698 -0.0316
 2259TIP3    H128412   2.554   0.771   1.779  0.3829 -0.0153  0.4648
 2259TIP3    H228413   2.487   0.745   1.913  0.6833  0.6569  0.7526
 2260TIP3   OH228414   0.345   3.235   2.077 -0.7156 -0.0560 -0.1120
 2260TIP3    H128415   0.395   3.155   2.096 -0.8133  0.2287  1.4311
 2260TIP3    H228416   0.381   3.266   1.994  1.5044 -0.0193  0.7952
 2261TIP3   OH228417   5.929   3.792   8.796 -0.3660 -0.2606  0.0592
 2261TIP3    H128418   5.849   3.779   8.745 -0.0265 -1.2251 -0.2466
 2261TIP3    H228419   5.944   3.886   8.793 -2.3113  0.1544  1.3965
 2262TIP3   OH228420   2.020   0.288   1.443  0.2642  0.2381  0.0773
 2262TIP3    H128421   1.935   0.291   1.488 -2.0070  1.1346 -3.8493
 2262TIP3    H228422   2.023   0.199   1.406  2.3104 -0.6442  2.1256
 2263TIP3   OH228423   5.472   4.840   8.312  0.5788 -0.2550  0.3449
 2263TIP3    H128424   5.554   4.806   8.348  0.2710 -0.5838  0.7508
 2263TIP3    H228425   5.452   4.782   8.239  2.3784  1.7460 -1.8849
 2264TIP3   OH228426   1.844   4.711   8.059 -0.4021  0.6831 -0.4008
 2264TIP3    H128427   1.798   4.629   8.076  0.5899  0.4438  1.4641
 2264TIP3    H228428   1.799   4.776   8.113  0.2441  0.8545 -0.0553
 2265TIP3   OH228429   0.984   2.142   1.195  0.4352  0.7381  0.5055
 2265TIP3    H128430   1.044   2.128   1.269 -0.2961 -0.9675  0.8049
 2265TIP3    H228431   0.901   2.165   1.236 -0.1385 -0.8227  0.2746
 2266TIP3   OH228432   4.267   0.874   7.688  0.8777 -0.4691  0.3387
 2266TIP3    H128433   4.310   0.955   7.659 -1.0400  0.4786  0.0264
 2266TIP3    H228434   4.272   0.817   7.612 -1.9262  1.1165 -1.1842
 2267TIP3   OH228435   3.349   4.491   8.252 -0.0435  0.3854 -0.1859
 2267TIP3    H128436   3.436   4.519   8.224  0.6055 -1.4822 -0.1445
 2267TIP3    H228437   3.305   4.464   8.171  0.0339 -0.2783 -0.0114
 2268TIP3   OH228438   0.653   6.597   8.343 -0.2396  0.1485 -0.3467
 2268TIP3    H128439   0.666   6.503   8.348 -1.3147 -0.1450 -2.2002
 2268TIP3    H228440   0.592   6.609   8.270 -1.0673  2.1973  0.6082
 2269TIP3   OH228441   0.652   3.631   1.304 -0.1853  0.0909  0.3604
 2269TIP3    H128442   0.573   3.580   1.322 -0.2354  0.2686  0.6460
 2269TIP3    H228443   0.707   3.573   1.251 -0.4440 -0.0866  0.2864
 2270TIP3   OH228444   5.736   5.760   9.005  0.2658 -0.1572  0.2720
 2270TIP3    H128445   5.673   5.832   9.008  0.2321 -0.0299 -1.9808
 2270TIP3    H228446   5.718   5.715   8.923  2.7661 -0.4091 -0.2423
 2271TIP3   OH228447   0.910   0.297   1.408  0.2068 -0.1534  0.1394
 2271TIP3    H128448   0.988   0.270   1.457 -0.4110  1.2796  2.0144
 2271TIP3    H228449   0.843   0.312   1.474 -1.2073  0.2388 -1.3038
 2272TIP3   OH228450   0.934   4.380   0.580  0.4158  0.2921 -0.1067
 2272TIP3    H128451   0.923   4.324   0.503 -0.4715 -1.5028  1.2470
 2272TIP3    H228452   1.011   4.344   0.625  0.8248  1.2099 -0.0373
 2273TIP3   OH228453   2.294   3.224   1.570 -0.0275 -0.3683  0.0523
 2273TIP3    H128454   2.282   3.310   1.609 -1.4269 -0.5265  0.0230
 2273TIP3    H228455   2.223   3.171   1.607  1.2538 -1.7301  0.6536
 2274TIP3   OH228456   1.363   3.703   7.889 -0.0361  0.3261  0.1529
 2274TIP3    H128457   1.319   3.701   7.803  1.9004  0.8051 -0.9114
 2274TIP3    H228458   1.341   3.789   7.925  1.3993  1.3098 -1.1812
 2275TIP3   OH228459   1.634   5.512   3.135 -0.4717  0.8794  0.1007
 2275TIP3    H128460   1.682   5.549   3.209  0.2915  0.2868 -0.0813
 2275TIP3    H228461   1.544   5.542   3.147 -0.2573  1.2009  0.9922
 2276TIP3   OH228462   3.691   3.119   1.329 -0.0828  0.0963  0.2843
 2276TIP3    H128463   3.651   3.090   1.411 -0.0901 -0.9443 -0.0757
 2276TIP3    H228464   3.783   3.135   1.352 -0.0154 -0.4785  0.4386
 2277TIP3   OH228465   4.622   2.409   8.927 -0.1806  0.5518 -0.0305
 2277TIP3    H128466   4.691   2.450   8.874  0.8652 -0.2081  0.6966
 2277TIP3    H228467   4.659   2.405   9.015 -1.2674  0.3615  0.4280
 2278TIP3   OH228468   6.347   6.027   8.459  0.2496  0.4353  0.1373
 2278TIP3    H128469   6.254   6.049   8.461 -0.2614 -1.4197 -0.8775
 2278TIP3    H228470   6.357   5.960   8.527  1.0081  1.1081  0.7120
 2279TIP3   OH228471   3.884   2.056   8.640 -0.1496  0.3057 -0.5067
 2279TIP3    H128472   3.836   2.139   8.634  0.3081  0.5500 -0.9125
 2279TIP3    H228473   3.974   2.081   8.661 -0.0741 -0.1092 -0.3221
 2280TIP3   OH228474   5.647   4.990   2.971  0.3588  0.2551  0.4217
 2280TIP3    H128475   5.597   5.013   2.893 -0.8547 -1.2082  0.7013
 2280TIP3    H228476   5.673   5.073   3.009 -3.2497  1.2353  1.0996
 2281TIP3   OH228477   1.975   6.108   2.417  0.4391 -0.3680  0.2365
 2281TIP3    H128478   1.976   6.013   2.405 -0.9740 -0.1923 -1.8078
 2281TIP3    H228479   2.011   6.121   2.505  1.6537 -2.7004  0.1721
 2282TIP3   OH228480   1.368   5.307   0.308  0.2939 -0.7227 -0.5308
 2282TIP3    H128481   1.335   5.219   0.327 -0.4804 -0.2169  0.5864
 2282TIP3    H228482   1.341   5.323   0.218  0.8265 -1.7807 -0.9036
 2283TIP3   OH228483   2.533   4.783   8.397 -0.2589  0.0184  0.3406
 2283TIP3    H128484   2.556   4.867   8.357 -0.4426  0.5750  1.3688
 2283TIP3    H228485   2.544   4.719   8.327 -1.5262  1.0809 -0.8955
 2284TIP3   OH228486   0.874   6.429   8.557  0.3483  0.1340  0.5204
 2284TIP3    H128487   0.925   6.406   8.479 -0.9642 -0.6244 -0.1296
 2284TIP3    H228488   0.867   6.524   8.553 -0.1126  0.0658 -0.5487
 2285TIP3   OH228489   0.295   5.035   0.670 -0.0165  0.0046 -0.1220
 2285TIP3    H128490   0.264   5.005   0.755 -1.1335 -0.5137 -0.7024
 2285TIP3    H228491   0.303   5.130   0.680  1.2701 -0.1765  0.9883
 2286TIP3   OH228492   4.472   2.375   8.031 -0.0697 -0.4802 -0.0538
 2286TIP3    H128493   4.562   2.352   8.007  0.7082 -0.9414  2.8774
 2286TIP3    H228494   4.474   2.470   8.041 -0.2134 -0.3688 -0.9972
 2287TIP3   OH228495   1.518   2.232   1.904  0.3684 -0.5450  0.6439
 2287TIP3    H128496   1.589   2.222   1.840  0.6941  0.6660  0.7998
 2287TIP3    H228497   1.562   2.240   1.988 -0.0383 -1.5627  0.9643
 2288TIP3   OH228498   3.849   5.626   0.609 -0.0491 -0.0193  0.4373
 2288TIP3    H128499   3.893   5.659   0.687 -0.0496 -0.3272  0.5683
 2288TIP3    H228500   3.914   5.570   0.567  0.2460  0.7894 -0.2276
 2289TIP3   OH228501   5.996   5.821   1.712  0.0117  0.4420 -0.1833
 2289TIP3    H128502   6.049   5.895   1.683 -0.2605  0.6944 -0.0466
 2289TIP3    H228503   5.910   5.859   1.730 -0.0150  0.1691  0.2886
 2290TIP3   OH228504   1.517   0.103   8.806 -0.3949  0.1146 -0.0891
 2290TIP3    H128505   1.584   0.066   8.863 -0.3303 -0.8170 -0.7385
 2290TIP3    H228506   1.537   0.067   8.719 -0.3187  1.7100 -0.7784
 2291TIP3   OH228507   1.001   2.587   8.447 -0.3631 -0.3787 -0.3875
 2291TIP3    H128508   1.060   2.608   8.374 -0.1234 -1.7981 -0.6389
 2291TIP3    H228509   1.045   2.622   8.524 -0.8815  1.6393 -0.9451
 2292TIP3   OH228510   6.653   2.707   1.105  0.4300 -0.1520  0.6225
 2292TIP3    H128511   6.578   2.647   1.101 -1.3020  1.9124 -0.2466
 2292TIP3    H228512   6.667   2.732   1.013 -0.5356  2.5534  1.1190
 2293TIP3   OH228513   1.956   1.549   1.164  0.3340 -0.2641  0.1234
 2293TIP3    H128514   1.926   1.475   1.113  1.4395 -0.3610 -0.4219
 2293TIP3    H228515   2.012   1.598   1.104 -0.4643  1.0856  0.4334
 2294TIP3   OH228516   0.848   1.444   1.287 -0.1722  0.6111 -0.0768
 2294TIP3    H128517   0.859   1.351   1.307 -0.6123  0.8548  1.3792
 2294TIP3    H228518   0.931   1.484   1.313 -0.3228  0.7688  0.1571
 2295TIP3   OH228519   1.576   1.566   8.700  0.1019 -0.5117  0.1760
 2295TIP3    H128520   1.648   1.630   8.694 -1.1395  0.9701  0.3927
 2295TIP3    H228521   1.510   1.610   8.754 -1.0221 -1.7861 -0.1232
 2296TIP3   OH228522   4.600   6.136   8.581 -0.0094  0.0490 -0.3041
 2296TIP3    H128523   4.505   6.130   8.573 -0.0739 -0.5047  0.7131
 2296TIP3    H228524   4.633   6.103   8.497 -0.7107 -0.1086 -0.5270
 2297TIP3   OH228525   5.650   4.039   8.300  0.1938  0.0043 -0.1021
 2297TIP3    H128526   5.690   4.114   8.256  0.4085 -0.0816 -0.0553
 2297TIP3    H228527   5.557   4.045   8.279 -0.0417  1.1359  1.1140
 2298TIP3   OH228528   2.971   1.327   8.553  0.0634 -0.5131  0.4701
 2298TIP3    H128529   2.993   1.274   8.477 -1.5548 -0.1941 -0.2590
 2298TIP3    H228530   3.046   1.318   8.612  1.1824 -1.0419 -1.0027
 2299TIP3   OH228531   2.174   2.293   0.895  0.1568 -0.5748 -0.1262
 2299TIP3    H128532   2.165   2.235   0.971  1.5392  0.3569  0.8035
 2299TIP3    H228533   2.158   2.381   0.929  0.2974 -0.1848 -1.0269
 2300TIP3   OH228534   5.223   5.505   8.673  0.3987 -0.6524  0.1453
 2300TIP3    H128535   5.268   5.559   8.737  0.1781 -0.8217  0.4498
 2300TIP3    H228536   5.256   5.534   8.588 -2.5686  2.7232 -0.0486
 2301TIP3   OH228537   4.310   2.993   1.455  0.3423  0.1196 -0.3518
 2301TIP3    H128538   4.286   2.900   1.462  0.5217  0.1292  0.5321
 2301TIP3    H228539   4.283   3.018   1.367  0.7906 -0.9175 -0.8106
 2302TIP3   OH228540   6.204   4.722   0.179 -0.2022  0.0428  0.2386
 2302TIP3    H128541   6.165   4.798   0.222  1.5598 -0.0084  2.0380
 2302TIP3    H228542   6.279   4.756   0.131 -0.5766 -0.2993 -0.6113
 2303TIP3   OH228543   0.721   4.577   2.916 -0.0832 -0.1229 -0.1290
 2303TIP3    H128544   0.773   4.560   2.838 -0.9260  1.6106 -1.1344
 2303TIP3    H228545   0.698   4.490   2.949  0.9517 -0.8976 -1.3351
 2304TIP3   OH228546   0.730   0.701   3.073  0.5661 -0.2715  0.4219
 2304TIP3    H128547   0.696   0.698   3.162 -0.9363 -0.4109 -0.1274
 2304TIP3    H228548   0.712   0.614   3.038  0.1252  0.1244 -0.3615
 2305TIP3   OH228549   4.614   3.728   0.792  0.0077  0.6541  0.0153
 2305TIP3    H128550   4.666   3.711   0.712  0.5151  1.0152  0.2598
 2305TIP3    H228551   4.608   3.642   0.835 -1.3788  0.1768 -1.0422
 2306TIP3   OH228552   0.945   4.154   2.039 -0.2663 -0.9695 -0.3470
 2306TIP3    H128553   0.989   4.070   2.031 -0.2168 -0.8660 -1.3474
 2306TIP3    H228554   0.994   4.201   2.106  0.2825 -1.3814 -0.4554
 2307TIP3   OH228555   5.555   0.049   2.294 -0.1395 -0.5324  0.3375
 2307TIP3    H128556   5.528   0.135   2.263 -0.0841 -0.0981  1.4288
 2307TIP3    H228557   5.582   0.064   2.385 -0.8336 -1.8240  0.7884
 2308TIP3   OH228558   2.391   0.808   0.277 -0.4785 -0.1190  0.1568
 2308TIP3    H128559   2.405   0.753   0.355 -0.0172 -0.8823 -0.4536
 2308TIP3    H228560   2.388   0.746   0.204 -2.6700  0.3973 -0.2737
 2309TIP3   OH228561   4.133   3.973   0.841 -0.2605 -0.1123 -0.7200
 2309TIP3    H128562   4.137   3.906   0.909  0.0866 -0.5191 -1.1373
 2309TIP3    H228563   4.133   3.925   0.759  1.1138  0.3998 -1.0605
 2310TIP3   OH228564   3.090   1.299   0.982  0.0596 -0.0468  0.0903
 2310TIP3    H128565   3.128   1.340   0.904 -1.0621  0.6018 -0.1393
 2310TIP3    H228566   3.084   1.206   0.959  0.6947 -0.0236 -0.1922
 2311TIP3   OH228567   3.691   0.758   0.357 -0.0712 -0.4438 -0.4411
 2311TIP3    H128568   3.763   0.811   0.322  0.8665 -1.7228 -0.5324
 2311TIP3    H228569   3.638   0.736   0.281 -1.1247  1.2750 -0.2475
 2312TIP3   OH228570   2.883   2.631   8.157  0.0901 -0.1776 -0.1852
 2312TIP3    H128571   2.871   2.618   8.063 -1.4026 -1.6495  0.1489
 2312TIP3    H228572   2.920   2.548   8.188  2.6164  1.0131  0.2835
 2313TIP3   OH228573   0.341   3.019   9.122 -0.2046  0.4819  0.0254
 2313TIP3    H128574   0.347   2.924   9.109 -3.0602  0.0593  1.0659
 2313TIP3    H228575   0.432   3.047   9.136  0.6151 -2.2924  1.0061
 2314TIP3   OH228576   2.873   2.819   1.625 -0.2503  0.4686 -0.1821
 2314TIP3    H128577   2.962   2.785   1.623  0.0745  1.3465 -1.5561
 2314TIP3    H228578   2.833   2.787   1.544 -1.4948 -0.6496  0.8123
 2315TIP3   OH228579   3.503   2.124   2.959 -0.3638 -0.7215 -0.1265
 2315TIP3    H128580   3.581   2.071   2.945 -0.3625 -0.7431 -0.0399
 2315TIP3    H228581   3.530   2.213   2.936 -0.5418 -0.8556 -0.8706
 2316TIP3   OH228582   1.312   5.034   0.453 -0.3600 -0.1049 -0.1369
 2316TIP3    H128583   1.259   5.061   0.528 -0.1516 -0.6266  0.2114
 2316TIP3    H228584   1.302   4.939   0.451 -1.4176  0.0101 -1.5895
 2317TIP3   OH228585   2.899   6.067   8.455 -0.2482  0.2093 -0.0902
 2317TIP3    H128586   2.994   6.063   8.446 -0.0948 -1.4552  1.5424
 2317TIP3    H228587   2.883   6.141   8.513  0.0110  0.6868 -0.6208
 2318TIP3   OH228588   5.335   4.261   8.809  0.5094 -0.2502  0.5170
 2318TIP3    H128589   5.273   4.307   8.752  0.1471 -1.1217  0.1787
 2318TIP3    H228590   5.372   4.193   8.752 -0.8862 -2.0451  1.6754
 2319TIP3   OH228591   2.296   5.020   7.953 -0.2022  0.7524 -0.0735
 2319TIP3    H128592   2.382   5.027   7.913 -0.6879 -0.1162 -1.3185
 2319TIP3    H228593   2.304   4.947   8.015 -0.4402 -0.3750 -1.3278
 2320TIP3   OH228594   6.187   2.152   8.660  0.3115  0.0268 -0.0169
 2320TIP3    H128595   6.199   2.144   8.755  1.7274 -1.0155 -0.2498
 2320TIP3    H228596   6.150   2.068   8.634 -2.7061  1.2613 -0.0797
 2321TIP3   OH228597   5.693   1.689   1.160 -0.3441 -0.2978  0.0099
 2321TIP3    H128598   5.704   1.704   1.254  2.4222 -1.8771  0.0413
 2321TIP3    H228599   5.726   1.600   1.146 -3.2503 -1.2053 -2.0983
 2322TIP3   OH228600   4.406   0.626   0.222  0.7987  0.4861 -0.4112
 2322TIP3    H128601   4.385   0.677   0.143 -0.2518 -0.5614 -0.8504
 2322TIP3    H228602   4.358   0.670   0.292 -1.4038 -0.7053 -1.0597
 2323TIP3   OH228603   3.403   5.315   8.335 -0.6283  0.2628 -0.0831
 2323TIP3    H128604   3.415   5.275   8.248 -1.2846 -1.4169  0.5690
 2323TIP3    H228605   3.386   5.407   8.316 -1.2166 -0.1489 -1.7782
 2324TIP3   OH228606   5.234   4.391   0.173 -0.0719 -0.1038  0.2221
 2324TIP3    H128607   5.265   4.309   0.134 -0.3420  0.5486 -1.4830
 2324TIP3    H228608   5.283   4.399   0.254 -0.4964 -2.2656  0.7690
 2325TIP3   OH228609   3.934   0.106   1.668 -0.5717  0.0490  0.6457
 2325TIP3    H128610   3.851   0.084   1.710 -0.7688 -1.3403 -0.3980
 2325TIP3    H228611   3.968   0.021   1.638 -0.0146  0.8817 -1.1752
 2326TIP3   OH228612   2.982   4.078   2.416 -0.2321 -0.6152 -0.1773
 2326TIP3    H128613   2.936   3.998   2.442  0.2203 -0.0501  2.7151
 2326TIP3    H228614   2.917   4.147   2.422  0.0742 -0.3582  0.2615
 2327TIP3   OH228615   6.070   2.458   8.978  0.0487 -0.2870  0.1280
 2327TIP3    H128616   6.068   2.390   8.911  2.2022 -0.8009  0.5235
 2327TIP3    H228617   6.062   2.540   8.929 -0.4254 -0.7310 -0.5542
 2328TIP3   OH228618   6.071   4.155   8.925  0.3173  0.4107 -0.7102
 2328TIP3    H128619   5.996   4.134   8.870 -0.2232  0.0824  0.1389
 2328TIP3    H228620   6.094   4.073   8.967  1.8381  0.2636 -1.7646
 2329TIP3   OH228621   5.351   3.475   2.385  0.0519  0.3515 -0.3600
 2329TIP3    H128622   5.388   3.387   2.387 -0.7287  0.0056 -0.7624
 2329TIP3    H228623   5.417   3.530   2.427  0.0238 -0.6275  1.0404
 2330TIP3   OH228624   0.617   3.051   9.069 -0.3076 -0.2458  0.3929
 2330TIP3    H128625   0.643   2.959   9.063 -0.2070 -0.4216  2.5678
 2330TIP3    H228626   0.689   3.093   9.117 -0.7957  0.7609  0.2799
 2331TIP3   OH228627   2.132   5.365   1.693 -0.3517 -0.2905 -0.0658
 2331TIP3    H128628   2.166   5.315   1.767  0.6449  2.5701  1.5553
 2331TIP3    H228629   2.046   5.395   1.723 -0.1938  0.3973 -0.2909
 2332TIP3   OH228630   1.657   2.782   2.740 -0.1393  0.2810  0.5079
 2332TIP3    H128631   1.628   2.697   2.707  1.9056  0.1233 -1.0845
 2332TIP3    H228632   1.700   2.762   2.823  0.0598 -0.2127  0.2917
 2333TIP3   OH228633   1.552   4.511   1.152 -0.0144  0.2431 -0.8101
 2333TIP3    H128634   1.457   4.501   1.147 -0.1744 -0.8522  2.3027
 2333TIP3    H228635   1.581   4.437   1.205  2.3510  1.5859 -0.0870
 2334TIP3   OH228636   1.123   3.413   1.780 -0.3495 -0.0243 -0.1002
 2334TIP3    H128637   1.206   3.388   1.741  0.7128  0.6643  1.5954
 2334TIP3    H228638   1.057   3.364   1.730  0.5885  2.4214 -4.2508
 2335TIP3   OH228639   1.465   4.900   7.088 -0.5528 -0.5324  0.0666
 2335TIP3    H128640   1.371   4.915   7.091 -0.7467 -0.9985 -1.9499
 2335TIP3    H228641   1.501   4.981   7.052 -0.5622 -1.3815 -1.9853
 2336TIP3   OH228642   1.083   4.435   8.924 -0.2607  0.6531  0.3991
 2336TIP3    H128643   1.031   4.507   8.958 -0.5178 -0.1771  1.8416
 2336TIP3    H228644   1.057   4.359   8.977 -1.4611 -0.9826 -2.3161
 2337TIP3   OH228645   6.353   0.245   1.592 -0.4298  0.6635  0.1619
 2337TIP3    H128646   6.322   0.155   1.606 -0.4119  0.6727  0.2624
 2337TIP3    H228647   6.449   0.237   1.593 -0.4015  0.4306 -1.4215
 2338TIP3   OH228648   2.560   1.904   8.292  0.2711  0.0957 -0.0361
 2338TIP3    H128649   2.614   1.831   8.324 -0.4374 -0.3078  0.2726
 2338TIP3    H228650   2.520   1.940   8.371 -0.9594 -0.4714 -0.3748
 2339TIP3   OH228651   2.366   3.368   2.967 -0.0632 -0.2222 -0.1828
 2339TIP3    H128652   2.394   3.444   2.916 -0.9705 -0.6300 -1.3485
 2339TIP3    H228653   2.270   3.374   2.967 -0.1070 -0.7414  0.7189
 2340TIP3   OH228654   0.859   2.470   1.508  0.6237 -0.8695  0.2409
 2340TIP3    H128655   0.792   2.483   1.575 -0.1842  0.1736 -0.7250
 2340TIP3    H228656   0.918   2.544   1.519  0.7731 -0.9730  0.1349
 2341TIP3   OH228657   3.295   5.855   2.296 -0.2349  0.0935  0.4651
 2341TIP3    H128658   3.385   5.834   2.320  0.4825  1.2178 -1.0712
 2341TIP3    H228659   3.270   5.787   2.233 -0.5698 -0.3696  1.0889
 2342TIP3   OH228660   4.433   1.980   1.097  0.1708 -0.3243 -0.0832
 2342TIP3    H128661   4.412   2.002   1.006 -0.0831  0.3277  0.1281
 2342TIP3    H228662   4.408   2.058   1.147  2.4101  0.2385  0.2682
 2343TIP3   OH228663   2.509   1.009   1.355 -0.0662  0.5733 -0.0917
 2343TIP3    H128664   2.473   0.984   1.440  0.2694 -1.4592 -0.4984
 2343TIP3    H228665   2.546   1.096   1.369 -2.0039  1.2382  1.2393
 2344TIP3   OH228666   2.305   3.131   0.383 -0.0774  0.3171 -0.2988
 2344TIP3    H128667   2.225   3.182   0.392 -0.3300 -0.2511  0.9101
 2344TIP3    H228668   2.281   3.044   0.414  1.7401  0.8815  3.1092
 2345TIP3   OH228669   5.792   1.974   8.353 -0.2519 -0.0817  0.0594
 2345TIP3    H128670   5.755   2.053   8.313  0.9921 -0.0801 -1.1794
 2345TIP3    H228671   5.720   1.936   8.402 -1.3949  0.8331 -0.8458
 2346TIP3   OH228672   2.605   0.602   8.855 -0.4170  0.2918  0.0538
 2346TIP3    H128673   2.567   0.550   8.926 -0.7221  1.1250  0.5115
 2346TIP3    H228674   2.642   0.537   8.796 -1.2385 -0.4775  0.3517
 2347TIP3   OH228675   2.070   2.491   2.426  0.4048 -0.3994  0.6542
 2347TIP3    H128676   2.032   2.431   2.362  1.4774 -0.2037 -0.2150
 2347TIP3    H228677   2.080   2.439   2.505  2.1854 -1.7050 -0.3475
 2348TIP3   OH228678   4.021   5.431   9.129 -0.9810  0.3220 -0.0457
 2348TIP3    H128679   3.935   5.429   9.088 -1.1450  0.5683  0.2849
 2348TIP3    H228680   4.035   5.523   9.153 -1.2547  0.0562  1.2124
 2349TIP3   OH228681   1.986   3.526   2.501 -0.0877 -0.2033 -0.2256
 2349TIP3    H128682   1.906   3.533   2.450  0.2993 -1.4644 -1.0697
 2349TIP3    H228683   1.976   3.443   2.549 -0.7268  1.2420  2.3173
 2350TIP3   OH228684   2.488   4.435   8.039  0.1614  0.2550 -0.2239
 2350TIP3    H128685   2.465   4.343   8.028  1.4593  0.0064 -1.0063
 2350TIP3    H228686   2.544   4.455   7.964 -0.3670  1.7736 -0.2471
 2351TIP3   OH228687   5.830   0.095   7.978 -0.3727 -0.2809  0.0639
 2351TIP3    H128688   5.924   0.088   7.992 -0.5105 -1.0117  0.6521
 2351TIP3    H228689   5.818   0.075   7.885 -0.1383 -2.1387  0.4033
 2352TIP3   OH228690   3.898   0.042   7.235  0.3790  0.3520  0.2105
 2352TIP3    H128691   3.912   0.133   7.211 -0.0913  0.1317 -0.9972
 2352TIP3    H228692   3.813   0.020   7.197  0.7809 -0.7683 -0.0751
 2353TIP3   OH228693   3.768   6.278   8.708 -0.2405 -0.3761 -0.0535
 2353TIP3    H128694   3.727   6.277   8.622  2.3301 -0.1227 -1.3709
 2353TIP3    H228695   3.779   6.371   8.729  1.4941 -0.4083 -0.7005
 2354TIP3   OH228696   1.093   5.254   8.376 -1.6660 -0.1603  0.3555
 2354TIP3    H128697   1.166   5.197   8.400 -3.2555 -1.7094  1.7253
 2354TIP3    H228698   1.092   5.321   8.445 -0.7301  0.6695 -0.4176
 2355TIP3   OH228699   0.897   5.661   6.893 -0.0803  0.2161 -0.0236
 2355TIP3    H128700   0.925   5.569   6.896  1.7306  0.7237 -0.0469
 2355TIP3    H228701   0.876   5.683   6.984  0.1477 -0.0391  0.0941
 2356TIP3   OH228702   0.946   0.845   7.830 -0.1995  0.1177  0.0716
 2356TIP3    H128703   0.898   0.778   7.782  0.5673  0.3238 -1.0178
 2356TIP3    H228704   1.032   0.849   7.787  0.3094  0.7103  1.1062
 2357TIP3   OH228705   4.535   4.381   7.820 -0.5453 -0.0065 -0.0102
 2357TIP3    H128706   4.572   4.294   7.829  1.1304  0.6994  0.2289
 2357TIP3    H228707   4.469   4.372   7.751  0.2906 -1.2319 -0.6780
 2358TIP3   OH228708   2.907   5.552   2.483 -0.0926 -0.0174 -0.0157
 2358TIP3    H128709   2.878   5.580   2.570  1.4563 -3.8075  1.9383
 2358TIP3    H228710   3.000   5.574   2.480 -0.2870  0.7793 -1.1176
 2359TIP3   OH228711   1.125   0.959   1.505  0.1575 -0.1840 -0.1998
 2359TIP3    H128712   1.069   0.939   1.431 -1.6994  1.9148  0.5453
 2359TIP3    H228713   1.093   0.903   1.576  0.3937 -0.4954 -0.3371
 2360TIP3   OH228714   4.153   3.673   0.773 -0.5702 -0.2773  0.6944
 2360TIP3    H128715   4.216   3.644   0.838  0.9581 -1.2266 -1.1000
 2360TIP3    H228716   4.073   3.624   0.794  0.3258 -1.6634  1.0063
 2361TIP3   OH228717   2.499   4.114   0.941  0.3679 -0.3020 -0.2415
 2361TIP3    H128718   2.524   4.088   1.030 -1.3758 -2.0410 -0.1983
 2361TIP3    H228719   2.430   4.179   0.954 -0.3750 -1.0699 -0.3032
 2362TIP3   OH228720   6.482   0.470   1.399  0.0946 -0.6938 -0.2696
 2362TIP3    H128721   6.451   0.512   1.479 -0.5577 -0.0102 -0.8673
 2362TIP3    H228722   6.578   0.474   1.405  0.0922  1.9507 -0.8110
 2363TIP3   OH228723   5.612   5.696   0.605 -0.1039  0.2301 -0.2830
 2363TIP3    H128724   5.573   5.675   0.689 -2.4843  1.5814 -0.9629
 2363TIP3    H228725   5.593   5.621   0.550  0.1908 -0.0376 -0.0242
 2364TIP3   OH228726   1.534   2.899   3.389  0.3407 -0.1607  0.5129
 2364TIP3    H128727   1.465   2.853   3.342  0.1043  0.3795  0.3299
 2364TIP3    H228728   1.616   2.864   3.353  0.1634 -0.4135  0.3549
 2365TIP3   OH228729   5.213   5.231   1.133  0.3954  0.1979 -0.6647
 2365TIP3    H128730   5.134   5.228   1.080  0.9408  0.2113 -1.4914
 2365TIP3    H228731   5.246   5.321   1.121  1.8472 -0.5031 -2.2949
 2366TIP3   OH228732   5.133   2.079   8.177  0.0445 -0.5933  0.4388
 2366TIP3    H128733   5.130   2.174   8.163 -1.0161 -0.7323 -0.3758
 2366TIP3    H228734   5.113   2.041   8.091  0.9394 -1.5738  0.6393
 2367TIP3   OH228735   3.792   4.746   7.480  0.0953 -0.1691 -0.6562
 2367TIP3    H128736   3.846   4.668   7.493 -0.0881 -0.3637 -1.0633
 2367TIP3    H228737   3.854   4.816   7.460  0.0806 -1.0536 -4.5506
 2368TIP3   OH228738   1.281   6.449   2.999 -0.5752 -0.0986 -1.0011
 2368TIP3    H128739   1.312   6.494   2.920 -1.8568  0.9531 -0.9459
 2368TIP3    H228740   1.318   6.361   2.993  1.2082  0.6328 -1.6240
 2369TIP3   OH228741   6.405   1.754   2.329 -0.0139 -0.6410  1.0469
 2369TIP3    H128742   6.345   1.748   2.404  1.2735 -1.0714  2.0724
 2369TIP3    H228743   6.413   1.664   2.298  0.2684 -0.6163  1.0501
 2370TIP3   OH228744   1.308   1.585   1.283 -0.5339  0.6036 -0.8546
 2370TIP3    H128745   1.246   1.518   1.312  0.1434 -0.1533 -1.1279
 2370TIP3    H228746   1.253   1.659   1.257 -1.2373  0.7037  0.8026
 2371TIP3   OH228747   3.364   0.474   2.501 -0.0872 -0.5280 -0.7114
 2371TIP3    H128748   3.383   0.470   2.407  0.4022 -1.5670 -0.5784
 2371TIP3    H228749   3.449   0.482   2.543 -0.2624 -0.6773 -0.3212
 2372TIP3   OH228750   0.685   2.773   0.914  0.5421  0.0831  0.1477
 2372TIP3    H128751   0.591   2.787   0.928  0.4627 -0.9252  0.7654
 2372TIP3    H228752   0.708   2.832   0.842 -0.4691  0.6642  0.2831
 2373TIP3   OH228753   1.158   4.018   0.781  0.0149 -0.1689  0.3541
 2373TIP3    H128754   1.208   4.063   0.714 -0.5191 -0.4789 -0.2704
 2373TIP3    H228755   1.103   4.086   0.820 -0.1288 -0.1004  0.0377
 2374TIP3   OH228756   3.013   3.181   0.176 -0.2823 -0.1554 -0.1928
 2374TIP3    H128757   2.924   3.157   0.149 -1.0943 -0.6880  2.7048
 2374TIP3    H228758   3.061   3.099   0.176 -0.5213 -0.2989  0.7827
 2375TIP3   OH228759   1.272   3.265   3.399  0.0924  0.2064  0.3641
 2375TIP3    H128760   1.188   3.284   3.357 -0.8441  0.3385  2.2011
 2375TIP3    H228761   1.254   3.189   3.454  1.3876 -0.2039  0.2453
 2376TIP3   OH228762   0.659   6.644   0.293 -0.4584  0.1557 -0.3621
 2376TIP3    H128763   0.683   6.562   0.250  1.6283  0.0984  0.8025
 2376TIP3    H228764   0.663   6.625   0.386 -1.3715  1.2199 -0.0855
 2377TIP3   OH228765   6.563   5.682   8.467  0.4895 -0.7467  0.1371
 2377TIP3    H128766   6.490   5.694   8.528  1.0483 -0.5385  0.7852
 2377TIP3    H228767   6.631   5.740   8.501  2.1108 -3.2354  1.4379
 2378TIP3   OH228768   1.557   3.137   7.266 -0.3350  0.6810 -0.1533
 2378TIP3    H128769   1.607   3.183   7.199  0.4594  2.1273  1.3551
 2378TIP3    H228770   1.622   3.108   7.329 -1.0097 -1.1320 -0.2199
 2379TIP3   OH228771   2.703   6.365   0.291  0.0284 -0.1446 -0.3839
 2379TIP3    H128772   2.775   6.425   0.310  0.1364  0.2823 -2.0240
 2379TIP3    H228773   2.745   6.292   0.245 -0.4340 -0.4085 -0.3868
 2380TIP3   OH228774   1.020   5.989   1.742 -0.1663  0.0345 -0.1086
 2380TIP3    H128775   1.009   6.059   1.678  0.0773  1.4908  1.3839
 2380TIP3    H228776   1.114   5.971   1.742 -0.1845 -0.0638 -0.2493
 2381TIP3   OH228777   3.310   3.890   0.650  0.2007  0.8210  0.3367
 2381TIP3    H128778   3.368   3.966   0.639 -1.5452  1.8955 -2.8355
 2381TIP3    H228779   3.369   3.815   0.649  1.7063  1.8854 -2.3980
 2382TIP3   OH228780   2.963   0.689   1.224  0.3200 -0.3303  0.1469
 2382TIP3    H128781   2.909   0.710   1.300  2.3969  2.6963  0.9586
 2382TIP3    H228782   3.025   0.623   1.256  0.8836  0.5898  0.9973
 2383TIP3   OH228783   2.350   3.689   1.375 -0.2733 -0.0086  0.0950
 2383TIP3    H128784   2.428   3.739   1.396 -0.4431  0.5181 -0.4596
 2383TIP3    H228785   2.319   3.654   1.458  1.1374 -1.1180  0.1734
 2384TIP3   OH228786   3.476   0.547   7.953  0.1967  0.6190  0.3163
 2384TIP3    H128787   3.527   0.627   7.960 -0.7798  1.2689  0.2874
 2384TIP3    H228788   3.425   0.543   8.034 -0.2614  0.3969  0.0243
 2385TIP3   OH228789   3.682   3.543   0.675  0.6520  0.3790 -0.2490
 2385TIP3    H128790   3.755   3.519   0.732  0.2006 -0.0537  0.1621
 2385TIP3    H228791   3.721   3.552   0.589  0.8963 -1.7566 -0.4120
 2386TIP3   OH228792   2.644   4.137   1.512 -0.3519  0.0377  0.2488
 2386TIP3    H128793   2.589   4.209   1.542  0.5136  0.4438  0.8893
 2386TIP3    H228794   2.733   4.173   1.512  0.1999 -1.2442  1.2943
 2387TIP3   OH228795   4.923   4.508   1.308 -0.3150  0.1762  0.0964
 2387TIP3    H128796   4.965   4.587   1.275  0.4156 -0.0487  0.4694
 2387TIP3    H228797   4.989   4.439   1.300 -0.1178  0.0944  1.9217
 2388TIP3   OH228798   2.136   3.429   7.976  0.3170  0.4695  0.0916
 2388TIP3    H128799   2.167   3.341   7.998  1.7535  0.8484 -0.2885
 2388TIP3    H228800   2.057   3.415   7.924  0.6189 -0.5969 -0.1054
 2389TIP3   OH228801   4.736   5.000   0.039  0.1053 -0.3707 -0.4910
 2389TIP3    H128802   4.798   5.002   0.112 -0.5194  0.1710  0.0452
 2389TIP3    H228803   4.652   4.979   0.080 -0.4716  1.0649 -0.8704
 2390TIP3   OH228804   1.353   1.279   0.517  0.1140  0.2264 -0.6853
 2390TIP3    H128805   1.373   1.352   0.575 -0.8352  0.0307 -0.0998
 2390TIP3    H228806   1.354   1.202   0.574  1.9674 -0.3641 -1.4456
 2391TIP3   OH228807   3.633   0.479   9.126  0.1655 -0.7170  0.2848
 2391TIP3    H128808   3.614   0.544   9.194  0.7115 -0.0530 -0.2006
 2391TIP3    H228809   3.728   0.478   9.118  0.2016 -1.8890  0.5830
 2392TIP3   OH228810   5.531   5.580   8.209 -0.0231 -0.1579 -0.1821
 2392TIP3    H128811   5.583   5.521   8.264 -0.0983  0.7416  0.8913
 2392TIP3    H228812   5.531   5.538   8.123  2.0035 -0.4944 -0.0875
 2393TIP3   OH228813   3.714   1.234   8.701  0.0079 -0.2088 -0.0469
 2393TIP3    H128814   3.729   1.144   8.673 -0.8709 -0.0923 -0.9439
 2393TIP3    H228815   3.760   1.288   8.636  0.4870  0.0027  0.4552
 2394TIP3   OH228816   4.663   4.155   0.176  0.2967  0.3018 -0.4057
 2394TIP3    H128817   4.643   4.146   0.083  2.0077  0.2838 -0.7884
 2394TIP3    H228818   4.651   4.249   0.194 -0.3047  0.2610 -0.5616
 2395TIP3   OH228819   0.978   0.636   0.397  0.8378 -0.6208  0.3361
 2395TIP3    H128820   1.072   0.617   0.386  0.9673 -1.1670  2.0435
 2395TIP3    H228821   0.936   0.588   0.326  1.9781  1.6806 -2.0692
 2396TIP3   OH228822   6.651   3.686   7.168 -1.3797  0.5494 -0.2143
 2396TIP3    H128823   6.735   3.665   7.210 -0.4903  2.7181 -0.7592
 2396TIP3    H228824   6.600   3.606   7.175  1.0359 -1.1387 -0.6079
 2397TIP3   OH228825   5.038   6.709   8.412 -0.1254 -0.0427  0.2511
 2397TIP3    H128826   5.018   6.641   8.477 -1.1454 -1.8338 -1.8154
 2397TIP3    H228827   5.097   6.666   8.350 -1.9538  0.4136 -1.9107
 2398TIP3   OH228828   4.457   4.435   1.009 -0.4435  0.5273 -0.5247
 2398TIP3    H128829   4.544   4.468   1.032 -0.0534  0.3363 -1.6672
 2398TIP3    H228830   4.398   4.480   1.070  0.3753  1.1911 -0.1897
 2399TIP3   OH228831   4.527   6.418   1.037 -0.0671  0.2851  0.2753
 2399TIP3    H128832   4.436   6.442   1.057 -0.1375 -0.9327  1.5263
 2399TIP3    H228833   4.579   6.464   1.102  0.0477 -0.4698  0.7271
 2400TIP3   OH228834   1.063   0.394   9.099  0.5360  1.1646 -0.0043
 2400TIP3    H128835   1.090   0.327   9.036 -0.4155  0.5859  0.1897
 2400TIP3    H228836   1.108   0.371   9.180 -0.0357  0.5642  0.1492
 2401TIP3   OH228837   3.683   0.101   8.760 -0.3363 -0.0848 -0.2840
 2401TIP3    H128838   3.621   0.174   8.748 -0.5910 -0.3191 -0.4035
 2401TIP3    H228839   3.636   0.025   8.726 -0.9271 -0.7072  1.8012
 2402TIP3   OH228840   6.456   4.313   1.150 -0.4939 -0.3850  0.3887
 2402TIP3    H128841   6.499   4.268   1.222  0.5631 -1.2260 -0.7392
 2402TIP3    H228842   6.522   4.320   1.081 -0.9008  2.0394  0.1300
 2403TIP3   OH228843   2.930   5.460   0.938 -0.8263  0.4476  0.5525
 2403TIP3    H128844   3.016   5.427   0.962 -0.8379  1.1341  1.5914
 2403TIP3    H228845   2.877   5.381   0.924  0.4583 -0.0679 -2.2011
 2404TIP3   OH228846   5.426   4.963   8.823  0.3244  0.0422  0.2551
 2404TIP3    H128847   5.428   4.994   8.732 -0.2028  0.3202  0.3395
 2404TIP3    H228848   5.354   5.011   8.863 -0.4891 -1.2542  0.4047
 2405TIP3   OH228849   5.075   4.322   1.067  0.2158  0.3589 -0.3224
 2405TIP3    H128850   5.148   4.267   1.096  0.2265  0.3737 -0.3223
 2405TIP3    H228851   5.078   4.317   0.971  0.9287  1.2968 -0.3622
 2406TIP3   OH228852   5.243   1.507   2.019 -0.3015 -0.2001  0.2934
 2406TIP3    H128853   5.157   1.549   2.013 -0.3203  0.0497  1.8727
 2406TIP3    H228854   5.286   1.550   2.092  0.5026 -1.5175  0.6376
 2407TIP3   OH228855   3.476   2.813   8.778  0.5062  0.4399 -0.7077
 2407TIP3    H128856   3.481   2.736   8.722 -0.1397  0.6191 -1.0213
 2407TIP3    H228857   3.561   2.818   8.821  0.6691 -0.2446 -0.9553
 2408TIP3   OH228858   1.695   3.620   8.594  0.3316 -0.3637 -0.3165
 2408TIP3    H128859   1.719   3.707   8.624  2.6093 -1.0392 -0.0360
 2408TIP3    H228860   1.699   3.625   8.498 -0.1899 -0.0159 -0.3270
 2409TIP3   OH228861   5.496   1.691   8.759  0.2084 -0.2480  0.0052
 2409TIP3    H128862   5.415   1.646   8.783 -0.2153  1.8494  3.0574
 2409TIP3    H228863   5.566   1.629   8.783 -0.4121 -0.1894  2.1524
 2410TIP3   OH228864   3.092   2.812   1.910  0.3274  0.1945 -0.5036
 2410TIP3    H128865   3.086   2.907   1.918  0.9054  0.2057 -0.1828
 2410TIP3    H228866   3.096   2.796   1.816  0.1359  0.4776 -0.5622
 2411TIP3   OH228867   4.803   6.231   1.503  0.0389  0.1391  0.2733
 2411TIP3    H128868   4.715   6.200   1.524 -0.3558  1.7734  1.2114
 2411TIP3    H228869   4.813   6.214   1.409 -0.4690 -1.9025  0.5416
 2412TIP3   OH228870   2.821   2.371   0.032  0.3382 -0.0562  0.3218
 2412TIP3    H128871   2.886   2.326   0.086  1.4838  1.0921 -0.0594
 2412TIP3    H228872   2.752   2.306   0.019  1.8501 -1.6630 -0.0710
 2413TIP3   OH228873   1.127   3.970   7.496  0.1549  0.2842 -0.1949
 2413TIP3    H128874   1.114   3.905   7.427  1.4358  2.1031 -2.2826
 2413TIP3    H228875   1.051   4.028   7.488 -0.5372 -0.3963  1.0861
 2414TIP3   OH228876   4.544   0.148   1.163 -0.4274  0.1604 -0.5959
 2414TIP3    H128877   4.568   0.057   1.180  1.7617  0.7895 -0.0650
 2414TIP3    H228878   4.571   0.164   1.073  0.4663  0.6558 -0.2496
 2415TIP3   OH228879   6.413   1.134   1.236  0.3675  0.4867  0.0917
 2415TIP3    H128880   6.389   1.069   1.171 -0.0836  0.2166  0.5198
 2415TIP3    H228881   6.502   1.160   1.214  0.8887 -0.9372  0.4465
 2416TIP3   OH228882   1.796   0.063   2.661 -0.3406 -0.1810  0.1945
 2416TIP3    H128883   1.775  -0.030   2.651 -0.2396 -0.5622  2.7435
 2416TIP3    H228884   1.743   0.107   2.595 -1.4720 -1.9333 -0.1355
 2417TIP3   OH228885   4.819   1.903   0.299 -0.2145  0.1717 -0.1147
 2417TIP3    H128886   4.808   1.985   0.250 -1.7755 -0.2001 -0.4261
 2417TIP3    H228887   4.875   1.849   0.243 -1.1105  0.1604 -1.0347
 2418TIP3   OH228888   3.828   0.545   0.489  0.4964 -0.5990 -0.8993
 2418TIP3    H128889   3.791   0.623   0.447 -0.1414 -0.3422  0.1011
 2418TIP3    H228890   3.894   0.513   0.427  1.1376  1.0210 -1.1018
 2419TIP3   OH228891   4.162   6.174   0.055 -0.4761  0.2287 -0.1430
 2419TIP3    H128892   4.255   6.196   0.060 -0.6186  0.7646  0.3448
 2419TIP3    H228893   4.118   6.259   0.048 -0.8781 -0.0625 -1.4730
 2420TIP3   OH228894   4.352   5.149   1.684 -0.2017  0.3368 -0.5028
 2420TIP3    H128895   4.292   5.220   1.707 -0.6179 -0.4012  0.8255
 2420TIP3    H228896   4.436   5.192   1.670 -0.8286  1.2861 -1.4711
 2421TIP3   OH228897   2.789   4.027   1.219  0.2369  0.0997  0.2571
 2421TIP3    H128898   2.755   3.988   1.299  0.5956 -0.1839  0.2744
 2421TIP3    H228899   2.743   4.111   1.211  0.6433  0.4159  1.0966
 2422TIP3   OH228900   0.516   6.523   8.768  0.2375  0.2884 -0.0686
 2422TIP3    H128901   0.577   6.555   8.834  2.2344  0.5985 -1.9426
 2422TIP3    H228902   0.479   6.603   8.730  0.8692  0.2245 -0.8542
 2423TIP3   OH228903   5.191   5.010   7.799 -0.0351  0.2429  0.1329
 2423TIP3    H128904   5.108   5.047   7.829  0.9938  2.1942  0.8235
 2423TIP3    H228905   5.180   4.999   7.705 -1.0333  0.6094  0.1899
 2424TIP3   OH228906   3.625   6.243   8.468  0.2727 -0.3514 -0.7021
 2424TIP3    H128907   3.605   6.279   8.381  2.5746 -1.5220 -1.8200
 2424TIP3    H228908   3.598   6.152   8.463  2.0729 -0.9118 -0.8894
 2425TIP3   OH228909   3.700   0.921   2.670 -0.4581 -0.0034  0.4259
 2425TIP3    H128910   3.638   0.958   2.733  0.1690  0.8738  0.5532
 2425TIP3    H228911   3.786   0.945   2.704  0.1080 -3.0454  1.3994
 2426TIP3   OH228912   2.005   3.759   8.517  0.1134  0.0651  0.5146
 2426TIP3    H128913   1.945   3.809   8.461 -1.8495 -1.5078  1.0937
 2426TIP3    H228914   2.062   3.712   8.456  0.5349  1.2895 -0.0604
 2427TIP3   OH228915   4.861   2.143   0.521 -0.1891  0.3718 -0.5763
 2427TIP3    H128916   4.815   2.085   0.460 -0.3964  2.7939 -2.9023
 2427TIP3    H228917   4.946   2.159   0.480  0.1036  1.2167  0.3144
 2428TIP3   OH228918   2.062   3.363   1.688 -0.2644  0.0452 -0.4444
 2428TIP3    H128919   2.031   3.273   1.700 -0.9521  0.2941 -0.2770
 2428TIP3    H228920   2.066   3.399   1.776  1.4092 -0.2513 -0.3675
 2429TIP3   OH228921   3.660   0.658   1.232 -0.2732 -0.0199 -0.4710
 2429TIP3    H128922   3.611   0.607   1.168 -0.1917 -0.2186 -0.3749
 2429TIP3    H228923   3.745   0.614   1.238 -0.4665 -0.3162  0.1629
 2430TIP3   OH228924   6.709   6.401   1.344  0.1682  0.5502 -0.3472
 2430TIP3    H128925   6.672   6.315   1.328 -0.1869  1.0254 -2.4142
 2430TIP3    H228926   6.802   6.385   1.358 -0.5156 -0.6261  4.6581
 2431TIP3   OH228927   2.960   3.986   7.852 -0.0639 -0.2927 -0.9330
 2431TIP3    H128928   2.875   3.965   7.812 -0.0380 -0.9850 -0.6312
 2431TIP3    H228929   2.966   4.082   7.846 -1.3481 -0.1253 -0.0033
 2432TIP3   OH228930   1.346   0.658   0.494  0.1370  0.3553  0.0628
 2432TIP3    H128931   1.347   0.571   0.534 -1.5601  0.0172 -0.5276
 2432TIP3    H228932   1.301   0.645   0.411  1.0077  1.5827 -0.6311
 2433TIP3   OH228933   1.320   1.041   0.666  0.2497  0.1953 -0.1586
 2433TIP3    H128934   1.396   1.078   0.711  0.3098 -0.1351  0.0181
 2433TIP3    H228935   1.268   1.001   0.736 -0.3144  0.8093 -0.2207
 2434TIP3   OH228936   2.229   3.918   9.185 -0.1027 -0.3652 -0.1644
 2434TIP3    H128937   2.302   3.979   9.201  0.8160 -1.3511 -0.5200
 2434TIP3    H228938   2.160   3.949   9.244  0.6999  0.4100  0.4075
 2435TIP3   OH228939   1.412   3.240   2.014  0.1117 -0.0359 -0.4920
 2435TIP3    H128940   1.351   3.220   2.084  2.3980 -1.3276  1.2753
 2435TIP3    H228941   1.428   3.155   1.971  0.6320  0.2873 -0.9565
 2436TIP3   OH228942   2.882   2.665   8.511  0.0051 -0.2950 -0.4350
 2436TIP3    H128943   2.825   2.704   8.577 -1.5346  0.4070 -2.0995
 2436TIP3    H228944   2.957   2.724   8.506 -0.9796  0.9531 -0.9459
 2437TIP3   OH228945   3.271   1.015   0.999  0.1790 -0.2702 -0.1593
 2437TIP3    H128946   3.203   1.002   0.933 -1.8942 -0.2386  1.8691
 2437TIP3    H228947   3.296   0.927   1.026 -0.1890 -0.2693  0.1902
 2438TIP3   OH228948   2.945   5.214   1.642  0.1814  0.7882  0.2599
 2438TIP3    H128949   3.010   5.150   1.614  0.3549  1.5813 -1.2268
 2438TIP3    H228950   2.868   5.162   1.665 -0.0906  0.0812 -2.0578
 2439TIP3   OH228951   1.787   0.891   8.065  0.0748  0.3478 -0.0950
 2439TIP3    H128952   1.758   0.853   7.982 -0.4144  0.6702 -0.0754
 2439TIP3    H228953   1.710   0.887   8.122  0.8213 -1.2639  0.8654
 2440TIP3   OH228954   5.250   2.900   8.491  0.3641 -0.0863  0.2918
 2440TIP3    H128955   5.339   2.902   8.455  0.3895 -0.3425  0.3375
 2440TIP3    H228956   5.194   2.877   8.417  0.8656 -5.4209  1.1636
 2441TIP3   OH228957   2.154   4.475   7.038 -0.2898 -0.7643  0.5277
 2441TIP3    H128958   2.227   4.515   6.991  0.3800 -2.8739 -0.3744
 2441TIP3    H228959   2.196   4.425   7.108 -1.1911  1.1426  2.5314
 2442TIP3   OH228960   2.719   3.021   8.798 -0.1174 -0.5053 -0.1634
 2442TIP3    H128961   2.721   3.086   8.728  2.0942 -1.6467 -1.2630
 2442TIP3    H228962   2.677   3.066   8.871 -0.8439  1.3364 -1.6250
 2443TIP3   OH228963   2.961   5.361   2.167  0.1535  0.0310  0.1717
 2443TIP3    H128964   2.908   5.306   2.110 -0.0868 -0.6108  0.9967
 2443TIP3    H228965   2.959   5.317   2.252  0.6150  0.8941  0.6461
 2444TIP3   OH228966   2.581   4.866   3.079  0.3105 -0.1163 -0.1892
 2444TIP3    H128967   2.542   4.788   3.119  2.4901 -0.8986  0.5355
 2444TIP3    H228968   2.529   4.939   3.114 -2.3072 -1.2008 -1.5181
 2445TIP3   OH228969   1.573   6.347   2.923  0.3482  0.3323  0.3545
 2445TIP3    H128970   1.582   6.429   2.972 -0.1104 -0.8227  2.5012
 2445TIP3    H228971   1.569   6.279   2.990 -3.8134 -1.1128 -1.0142
 2446TIP3   OH228972   4.664   6.362   0.179 -0.6002  0.5048  0.0187
 2446TIP3    H128973   4.690   6.328   0.265  1.5431  0.4404 -0.6027
 2446TIP3    H228974   4.591   6.420   0.198 -0.8312 -0.2825  1.7625
 2447TIP3   OH228975   5.155   0.904   2.513  0.0496 -0.7734  0.0826
 2447TIP3    H128976   5.184   0.815   2.496  0.5180 -0.5381 -0.3453
 2447TIP3    H228977   5.096   0.895   2.588 -0.8083 -1.5957 -0.6636
 2448TIP3   OH228978   0.773   5.271   0.854 -0.3178  0.4945 -0.4441
 2448TIP3    H128979   0.844   5.213   0.826 -1.4049 -1.4610  0.6755
 2448TIP3    H228980   0.802   5.358   0.827  3.5403  0.1470  1.8084
 2449TIP3   OH228981   2.152   5.973   2.877 -0.4663 -0.6156  0.1600
 2449TIP3    H128982   2.102   5.916   2.935  1.6750 -1.7434  1.0174
 2449TIP3    H228983   2.199   5.913   2.819 -0.5177  0.4227 -1.0153
 2450TIP3   OH228984   6.048   2.439   2.095 -0.3264 -0.2011 -0.6381
 2450TIP3    H128985   5.990   2.366   2.117 -1.4063  0.1488 -2.2003
 2450TIP3    H228986   6.135   2.399   2.088 -1.1249 -1.7066 -3.0672
 2451TIP3   OH228987   0.848   5.475   2.343  0.0966  0.3188 -0.0614
 2451TIP3    H128988   0.808   5.529   2.276  0.9222  0.3856 -0.5154
 2451TIP3    H228989   0.914   5.531   2.384  0.5303 -0.1337 -0.1190
 2452TIP3   OH228990   1.876   6.227   0.915  0.5941  0.0411 -0.5069
 2452TIP3    H128991   1.839   6.267   0.994 -0.0514 -0.5346 -0.5067
 2452TIP3    H228992   1.875   6.298   0.851 -0.4265  0.0784 -0.4710
 2453TIP3   OH228993   4.048   4.525   0.563  0.1426 -0.4996 -0.2727
 2453TIP3    H128994   4.127   4.480   0.594  0.2996 -0.0980 -0.0739
 2453TIP3    H228995   4.049   4.609   0.609 -0.6810 -0.6980  0.1161
 2454TIP3   OH228996   5.990   2.296   9.184  0.1853 -0.1508  0.3555
 2454TIP3    H128997   5.898   2.319   9.172  0.1692  0.1610  1.0737
 2454TIP3    H228998   6.037   2.355   9.124 -0.1635 -1.2327 -1.0251
 2455TIP3   OH228999   1.764   0.741   3.108  0.0459  0.0149 -0.2301
 2455TIP3    H129000   1.803   0.693   3.181  1.2527 -0.9264 -1.4301
 2455TIP3    H229001   1.835   0.797   3.076 -0.5256  0.5489 -0.5758
 2456TIP3   OH229002   4.353   2.056   8.857 -0.3724 -0.5026  0.3199
 2456TIP3    H129003   4.405   2.011   8.790  0.2168  0.4267  0.1363
 2456TIP3    H229004   4.414   2.067   8.930 -0.9946 -1.4591  0.9983
 2457TIP3   OH229005   5.306   4.695   1.270  0.9021  0.1480  0.0387
 2457TIP3    H129006   5.216   4.725   1.277  0.2515 -1.7008 -0.0998
 2457TIP3    H229007   5.355   4.774   1.246 -0.5756  1.2852  0.5833
 2458TIP3   OH229008   0.144   0.063   7.713 -0.4570 -0.3475 -0.3864
 2458TIP3    H129009   0.218   0.056   7.652 -0.9615 -1.0902 -0.9338
 2458TIP3    H229010   0.182   0.043   7.799 -0.1141 -1.2468 -0.7278
 2459TIP3   OH229011   3.154   4.106   0.861 -0.2443 -0.1178 -0.3657
 2459TIP3    H129012   3.243   4.116   0.894 -0.3120 -0.3843 -0.0987
 2459TIP3    H229013   3.103   4.172   0.908 -1.0594 -2.7566  2.7564
 2460TIP3   OH229014   0.256   3.767   2.930  0.1423 -0.5852  0.1959
 2460TIP3    H129015   0.339   3.781   2.976  0.4815 -1.6930 -0.0430
 2460TIP3    H229016   0.270   3.687   2.879 -1.3524 -1.3124  0.8471
 2461TIP3   OH229017   3.335   0.199   2.232 -0.1110  0.5159 -0.2222
 2461TIP3    H129018   3.423   0.176   2.205  0.6270  2.6049  0.2637
 2461TIP3    H229019   3.294   0.115   2.254  1.0636 -0.6894 -2.3307
 2462TIP3   OH229020   5.440   6.511   0.353 -0.1514  0.2069  0.4374
 2462TIP3    H129021   5.362   6.458   0.368  0.6461 -0.7182  1.3982
 2462TIP3    H229022   5.507   6.472   0.409  0.5727  1.9767  0.8573
 2463TIP3   OH229023   0.460   0.657   0.122  0.3740  0.3142 -0.0834
 2463TIP3    H129024   0.477   0.750   0.112  2.9815 -0.0254  0.4670
 2463TIP3    H229025   0.546   0.618   0.136 -0.7850 -1.9862  1.2652
 2464TIP3   OH229026   5.622   3.734   0.595 -0.7386  0.3597  0.6741
 2464TIP3    H129027   5.704   3.755   0.551 -1.5906  1.2508 -0.5579
 2464TIP3    H229028   5.559   3.721   0.524 -1.5509 -0.9106  1.5761
 2465TIP3   OH229029   1.750   6.294   7.900 -0.6299  0.1243  0.1425
 2465TIP3    H129030   1.824   6.324   7.848 -1.9246  3.0380 -0.2031
 2465TIP3    H229031   1.687   6.260   7.836  0.7220 -3.5077  0.5125
 2466TIP3   OH229032   5.614   4.044   1.403  0.5159 -0.2642  0.3135
 2466TIP3    H129033   5.532   4.014   1.364 -0.0699 -0.0427  1.3325
 2466TIP3    H229034   5.681   3.988   1.364  0.2145  1.0099 -2.2541
 2467TIP3   OH229035   0.702   4.367   8.307 -0.3510  0.1732 -0.5707
 2467TIP3    H129036   0.672   4.337   8.222 -2.2477 -1.4646  0.5910
 2467TIP3    H229037   0.643   4.438   8.330 -1.2981 -0.8604  0.2936
 2468TIP3   OH229038   5.142   2.275   1.693 -0.3089 -0.4182 -0.4850
 2468TIP3    H129039   5.111   2.207   1.753  0.7075 -0.0766  0.4676
 2468TIP3    H229040   5.139   2.234   1.607 -0.9132 -1.2424 -0.0860
 2469TIP3   OH229041   4.943   1.164   0.455  0.1023 -0.7382 -0.1980
 2469TIP3    H129042   4.902   1.128   0.533  2.2459 -1.1337  0.8308
 2469TIP3    H229043   4.963   1.255   0.477 -1.3405 -0.1513 -1.1728
 2470TIP3   OH229044   6.607   2.662   2.863 -0.2183 -0.6202  0.1509
 2470TIP3    H129045   6.661   2.704   2.795  0.6404 -1.1391  0.4972
 2470TIP3    H229046   6.606   2.725   2.935 -0.9039 -0.1873 -0.2266
 2471TIP3   OH229047   2.769   1.278   2.126  0.0908  0.8855 -0.6906
 2471TIP3    H129048   2.750   1.356   2.178 -2.3397 -0.5998  0.8882
 2471TIP3    H229049   2.736   1.298   2.039 -2.0767  1.1299  0.1153
 2472TIP3   OH229050   2.198   1.528   8.968  0.6731  0.2971 -0.2192
 2472TIP3    H129051   2.172   1.609   9.011  0.3073 -0.2723  0.6672
 2472TIP3    H229052   2.131   1.515   8.900  0.4385  0.4740 -0.0260
 2473TIP3   OH229053   1.788   4.509   1.848  0.1123 -0.1234  0.1629
 2473TIP3    H129054   1.868   4.510   1.901  0.9016 -0.7925 -0.9878
 2473TIP3    H229055   1.741   4.588   1.875  0.2391 -0.6985  2.2211
 2474TIP3   OH229056   5.023   6.383   8.894 -0.2841  0.3306 -0.0342
 2474TIP3    H129057   5.118   6.380   8.878 -0.3057  1.7656 -0.6451
 2474TIP3    H229058   5.000   6.475   8.879 -1.7523  0.0271  0.2541
 2475TIP3   OH229059   2.587   6.028   8.687 -0.4378  0.0819  0.3216
 2475TIP3    H129060   2.588   5.958   8.622 -0.0031 -0.2986  0.7329
 2475TIP3    H229061   2.604   5.984   8.770 -0.5082  0.6299  0.6315
 2476TIP3   OH229062   4.125   0.767   1.711  0.5685  0.2590  0.4831
 2476TIP3    H129063   4.082   0.811   1.637  1.3527 -1.9246 -1.3815
 2476TIP3    H229064   4.088   0.679   1.711  1.7904 -0.2817  1.6657
 2477TIP3   OH229065   2.675   3.661   1.649 -0.2973 -0.0437  0.6945
 2477TIP3    H129066   2.586   3.677   1.681 -0.7296  2.8030 -1.4888
 2477TIP3    H229067   2.724   3.741   1.672  1.5931 -1.3404  1.4153
 2478TIP3   OH229068   0.552   5.089   1.821  0.3229 -0.0652  0.0346
 2478TIP3    H129069   0.500   5.154   1.867 -0.1542 -2.0531  2.4942
 2478TIP3    H229070   0.621   5.140   1.777 -0.7775  2.1601  0.7637
 2479TIP3   OH229071   5.271   4.192   1.224  0.3732  0.3836 -0.1111
 2479TIP3    H129072   5.281   4.220   1.315 -0.3002 -0.7293  0.3169
 2479TIP3    H229073   5.338   4.125   1.212 -2.4223 -2.8677  1.0208
 2480TIP3   OH229074   0.129   0.557   0.518  0.3140  0.5057  0.3726
 2480TIP3    H129075   0.039   0.582   0.537 -0.2683 -0.4859 -0.9202
 2480TIP3    H229076   0.145   0.589   0.429  0.1950 -1.8442 -0.5720
 2481TIP3   OH229077   3.739   4.461   1.458 -0.1268 -0.1409  0.1085
 2481TIP3    H129078   3.748   4.529   1.392 -1.2946 -0.7933 -0.7489
 2481TIP3    H229079   3.742   4.379   1.409 -0.2503 -0.6582  0.9503
 2482TIP3   OH229080   1.558   4.990   0.659 -0.0244 -0.3195 -0.0014
 2482TIP3    H129081   1.504   5.063   0.629 -1.0984 -0.8378  0.6095
 2482TIP3    H229082   1.647   5.024   0.657 -0.5351  1.1164  0.5942
 2483TIP3   OH229083   1.385   5.960   1.177 -0.0264  0.4009  0.6613
 2483TIP3    H129084   1.392   5.919   1.091  0.9883  1.5255  0.1775
 2483TIP3    H229085   1.292   5.979   1.187 -0.0898  0.7603 -0.4460
 2484TIP3   OH229086   3.427   6.560   8.316  0.1844  0.1017 -0.7737
 2484TIP3    H129087   3.334   6.542   8.305 -0.3198  0.7084  1.7737
 2484TIP3    H229088   3.429   6.648   8.354  1.7655 -0.1104 -0.3105
 2485TIP3   OH229089   5.048   3.018   0.084  0.0602 -0.0328  1.2395
 2485TIP3    H129090   5.106   2.951   0.119  0.0242 -0.8882 -0.2657
 2485TIP3    H229091   5.041   3.082   0.155 -0.3310 -1.8445  2.9348
 2486TIP3   OH229092   1.599   0.017   9.100  0.2120  0.0102  0.9857
 2486TIP3    H129093   1.628   0.028   9.190  1.3203  1.9446  0.4545
 2486TIP3    H229094   1.676  -0.018   9.054  0.9361  2.4439  0.1435
 2487TIP3   OH229095   1.057   5.726   2.221  0.1149 -0.2158 -0.4518
 2487TIP3    H129096   1.063   5.820   2.208  0.5276 -0.2915 -0.8357
 2487TIP3    H229097   1.011   5.716   2.304 -3.0604  0.2768 -2.0162
 2488TIP3   OH229098   1.192   2.855   7.933 -0.3374 -0.1700 -0.7198
 2488TIP3    H129099   1.126   2.788   7.951  0.2891  0.0237  3.1961
 2488TIP3    H229100   1.274   2.818   7.965  0.7353  1.1180 -1.8231
 2489TIP3   OH229101   6.294   2.225   0.790 -0.3778 -0.1007 -0.2036
 2489TIP3    H129102   6.304   2.141   0.835 -2.6159  0.0808  0.7304
 2489TIP3    H229103   6.201   2.229   0.767  0.2389  0.8529 -2.8689
 2490TIP3   OH229104   3.685   4.281   8.940  0.2592 -0.3120 -0.5168
 2490TIP3    H129105   3.697   4.362   8.991 -0.4615 -1.6849  1.9803
 2490TIP3    H229106   3.627   4.227   8.993 -2.0525 -1.2139 -3.6652
 2491TIP3   OH229107   2.125   6.564   2.629 -0.1471  0.1420  0.4266
 2491TIP3    H129108   2.050   6.540   2.684 -0.7421  1.2878  0.1389
 2491TIP3    H229109   2.086   6.609   2.555  0.7736 -0.0762 -0.2007
 2492TIP3   OH229110   2.519   5.147   1.075  0.3126 -0.2101 -0.6469
 2492TIP3    H129111   2.443   5.088   1.072  0.7132 -0.7182 -1.2148
 2492TIP3    H229112   2.481   5.234   1.087 -0.2201 -0.7304  2.2426
 2493TIP3   OH229113   4.425   2.430   9.138  0.3471 -0.4394 -0.2607
 2493TIP3    H129114   4.406   2.387   9.221 -1.3032  1.3945  0.3866
 2493TIP3    H229115   4.511   2.396   9.113  0.1126 -2.3789  1.2714
 2494TIP3   OH229116   2.781   6.390   2.736  0.0889 -0.3018 -0.6290
 2494TIP3    H129117   2.776   6.381   2.832  0.7501 -0.5667 -0.6168
 2494TIP3    H229118   2.799   6.483   2.722  0.5637 -0.3671 -0.4712
 2495TIP3   OH229119   3.921   6.272   0.740 -0.0776 -0.0699  0.4190
 2495TIP3    H129120   3.893   6.293   0.651 -1.8578 -1.1166  0.6754
 2495TIP3    H229121   4.016   6.285   0.739  0.0870 -0.9686 -1.8923
 2496TIP3   OH229122   2.278   5.097   2.237  0.4793 -0.6383  0.6545
 2496TIP3    H129123   2.314   5.185   2.241  1.9877 -0.9391 -2.8619
 2496TIP3    H229124   2.199   5.100   2.291  3.1401  1.3562  4.9219
 2497TIP3   OH229125   6.087   5.318   0.188  0.8697 -0.2034 -0.1501
 2497TIP3    H129126   6.018   5.289   0.129  0.7780 -0.3996  0.0499
 2497TIP3    H229127   6.050   5.304   0.276  1.5106 -1.1760 -0.0254
 2498TIP3   OH229128   1.652   5.030   1.652 -0.1311  0.2272 -0.6711
 2498TIP3    H129129   1.611   4.959   1.702 -0.3960  0.6596 -0.2682
 2498TIP3    H229130   1.581   5.066   1.600  0.0739 -0.0086 -1.1174
 2499TIP3   OH229131   1.584   5.812   1.573 -0.0212  0.3119  0.1002
 2499TIP3    H129132   1.654   5.837   1.513 -1.6404  0.6759 -1.7230
 2499TIP3    H229133   1.529   5.752   1.523 -0.5278 -0.7117  1.7970
 2500TIP3   OH229134   2.674   3.636   1.379  0.1502 -0.2201  0.2088
 2500TIP3    H129135   2.726   3.717   1.379 -1.4070  0.8240  0.2095
 2500TIP3    H229136   2.674   3.608   1.470  0.6259 -0.1816  0.2251
 2501TIP3   OH229137   5.551   4.347   0.163 -0.1966  0.3298 -0.2289
 2501TIP3    H129138   5.636   4.331   0.121 -0.3126  0.3833 -0.4869
 2501TIP3    H229139   5.540   4.442   0.158  0.3056  0.4591  0.9392
 2502TIP3   OH229140   1.076   1.762   0.347 -0.0004  0.5045  0.3968
 2502TIP3    H129141   1.015   1.833   0.333 -2.9612 -1.9347 -0.0871
 2502TIP3    H229142   1.065   1.738   0.439  0.0550 -0.1072  0.2473
 2503TIP3   OH229143   2.453   3.777   1.724 -0.3729  0.2153  0.3003
 2503TIP3    H129144   2.477   3.833   1.651 -0.8532  4.2156  2.9203
 2503TIP3    H229145   2.358   3.786   1.732 -0.6623 -2.0322  0.1241
 2504TIP3   OH229146   4.351   4.473   1.313 -0.0132  0.4044 -0.0608
 2504TIP3    H129147   4.335   4.495   1.404 -0.6550  0.8311 -0.2743
 2504TIP3    H229148   4.270   4.431   1.283  0.3763 -0.2008 -0.2953
 2505TIP3   OH229149   0.553   6.243   2.241 -0.3933  0.2250  1.0157
 2505TIP3    H129150   0.479   6.183   2.249  0.1135 -0.2926  2.2467
 2505TIP3    H229151   0.628   6.192   2.273  0.2387  1.1699  1.0918
 2506TIP3   OH229152   5.278   4.312   2.330  0.6188  0.1060 -0.1519
 2506TIP3    H129153   5.301   4.220   2.343 -0.6513 -0.3672 -1.1238
 2506TIP3    H229154   5.207   4.328   2.392 -0.6070 -0.1845 -1.4409
 2507TIP3   OH229155   6.006   2.670   1.938  0.0354  0.0257  0.3507
 2507TIP3    H129156   5.924   2.715   1.958 -0.2381 -0.4888  0.4205
 2507TIP3    H229157   6.014   2.604   2.007  1.2171  0.9717  1.1499
 2508TIP3   OH229158   5.802   4.902   9.044  0.4467 -0.0122  0.1629
 2508TIP3    H129159   5.734   4.965   9.068 -1.2691 -1.9088  0.5012
 2508TIP3    H229160   5.771   4.861   8.964  0.4794 -1.8555  1.0359
 2509TIP3   OH229161   1.920   2.381   1.622 -0.2153  0.2198 -0.3190
 2509TIP3    H129162   1.972   2.396   1.701 -0.6524  0.4447 -0.0697
 2509TIP3    H229163   1.985   2.373   1.552  0.1604  0.3412  0.0079
 2510TIP3   OH229164   0.597   3.202   8.367  0.8809 -0.5404 -0.1606
 2510TIP3    H129165   0.684   3.225   8.399  1.4690  0.4615 -2.2844
 2510TIP3    H229166   0.600   3.107   8.356  1.0108 -0.7678  1.6073
 2511TIP3   OH229167   6.300   2.005   0.962  0.2094 -0.2623 -0.2782
 2511TIP3    H129168   6.218   1.956   0.953  1.5849 -2.2781 -3.9738
 2511TIP3    H229169   6.347   1.959   1.032 -1.4175  0.4702  1.3770
 2512TIP3   OH229170   4.980   2.365   1.970 -0.3449 -0.5537  0.3198
 2512TIP3    H129171   4.905   2.332   2.020  0.0381 -0.7116  0.8019
 2512TIP3    H229172   5.055   2.318   2.006 -0.2278 -1.7983 -1.4396
 2513TIP3   OH229173   1.804   1.792   8.676 -0.2680 -0.0912  0.1427
 2513TIP3    H129174   1.740   1.836   8.733 -0.4809 -1.4808  1.0365
 2513TIP3    H229175   1.812   1.849   8.600 -1.0079  1.1508  0.9570
 2514TIP3   OH229176   4.220   3.497   0.152 -0.3518  0.3077 -0.3724
 2514TIP3    H129177   4.254   3.529   0.068 -2.4697  0.8512 -1.1070
 2514TIP3    H229178   4.295   3.459   0.197  0.8169 -0.1473 -2.5967
 2515TIP3   OH229179   0.468   5.609   8.809  0.2588  0.4132 -0.6297
 2515TIP3    H129180   0.490   5.545   8.741 -1.3874 -0.9508  0.0258
 2515TIP3    H229181   0.401   5.564   8.862 -0.1314  2.2840  0.5329
 2516TIP3   OH229182   5.915   5.503   2.194 -0.3754  0.1865 -0.2066
 2516TIP3    H129183   5.966   5.447   2.136  0.0379 -0.1954  0.5130
 2516TIP3    H229184   5.883   5.444   2.262  0.1070  0.8284  0.5931
 2517TIP3   OH229185   2.391   6.024   7.769 -0.2760  0.0638 -0.1199
 2517TIP3    H129186   2.455   6.090   7.795  0.0611  0.0380 -0.8651
 2517TIP3    H229187   2.320   6.073   7.728 -0.9255  0.1274  1.0452
 2518TIP3   OH229188   5.101   2.841   0.805  0.1684 -0.1548  0.0347
 2518TIP3    H129189   5.094   2.933   0.779 -1.8949 -0.0020  0.9500
 2518TIP3    H229190   5.018   2.802   0.779  0.3834 -1.3830  1.0606
 2519TIP3   OH229191   2.929   3.188   1.309 -1.0470  0.0721  0.4671
 2519TIP3    H129192   2.905   3.220   1.396 -0.0387 -0.7286  1.0568
 2519TIP3    H229193   2.851   3.142   1.278 -1.3864  0.3030  0.9726
 2520TIP3   OH229194   6.498   2.077   2.686  0.4668 -0.1122  0.6510
 2520TIP3    H129195   6.582   2.115   2.660  0.7245  0.2725  1.9462
 2520TIP3    H229196   6.459   2.144   2.743  0.2642 -1.1787  1.7922
 2521TIP3   OH229197   5.069   4.805   1.330 -0.0963 -0.3584  0.8488
 2521TIP3    H129198   5.110   4.892   1.338 -2.0984  1.0996 -2.4863
 2521TIP3    H229199   5.001   4.805   1.398 -0.6699  1.1312  0.3316
 2522TIP3   OH229200   0.795   2.191   1.757  0.3865 -0.1647 -0.5886
 2522TIP3    H129201   0.886   2.175   1.782  0.0348 -0.0057  0.9313
 2522TIP3    H229202   0.756   2.229   1.836 -1.4849 -2.0405 -0.5309
 2523TIP3   OH229203   1.872   1.057   2.271  0.2079  0.1965 -0.3729
 2523TIP3    H129204   1.966   1.043   2.269  0.5127  2.0236 -1.8403
 2523TIP3    H229205   1.862   1.143   2.311 -0.6746  0.7671 -1.7289
 2524TIP3   OH229206   5.730   5.283   1.268  0.4598  0.3961 -0.2907
 2524TIP3    H129207   5.731   5.234   1.186  0.8913  1.0955 -0.7169
 2524TIP3    H229208   5.653   5.340   1.261  0.7018  0.7202 -0.3834
 2525TIP3   OH229209   2.423   2.049   1.470 -0.6304  0.1954  0.3238
 2525TIP3    H129210   2.500   1.999   1.497 -1.6967 -0.1907  3.0639
 2525TIP3    H229211   2.435   2.066   1.377  4.0041  2.3837  1.0728
 2526TIP3   OH229212   6.100   3.595   2.152  0.2433  0.3576 -0.4277
 2526TIP3    H129213   6.124   3.667   2.210 -0.9691  1.0419 -0.7497
 2526TIP3    H229214   6.065   3.528   2.210 -0.0883  0.6592 -0.2780
 2527TIP3   OH229215   2.087   5.060   2.440 -0.3900  0.6909 -0.1613
 2527TIP3    H129216   2.034   4.981   2.453  0.6818 -0.2466 -1.2516
 2527TIP3    H229217   2.026   5.123   2.400 -1.0898  0.2063  0.1087
 2528TIP3   OH229218   4.244   4.522   0.159  0.1786 -0.9302  0.3079
 2528TIP3    H129219   4.155   4.523   0.195 -0.2205  0.5043 -0.6156
 2528TIP3    H229220   4.298   4.485   0.229 -0.7739  0.5215  1.9114
 2529TIP3   OH229221   1.922   2.697   1.862  0.3481 -0.1297  0.1360
 2529TIP3    H129222   1.841   2.652   1.887 -0.9787  1.5128 -0.9655
 2529TIP3    H229223   1.987   2.666   1.924 -1.3830 -0.7210  1.7487
 2530TIP3   OH229224   0.681   4.196   1.960 -0.2922 -0.6007  0.1280
 2530TIP3    H129225   0.624   4.128   1.996  0.8451 -1.7979 -0.2326
 2530TIP3    H229226   0.769   4.166   1.980  0.3754 -0.8291 -2.6920
 2531TIP3   OH229227   0.238   5.653   1.159  0.3151 -0.3530 -0.2950
 2531TIP3    H129228   0.238   5.749   1.151 -0.0606 -0.3921 -0.7351
 2531TIP3    H229229   0.180   5.622   1.090  0.9698 -0.9396 -0.5958
 2532TIP3   OH229230   1.206   3.904   2.177 -0.3618  0.7067  0.0160
 2532TIP3    H129231   1.192   3.992   2.211 -1.6646  0.6803 -0.3981
 2532TIP3    H229232   1.153   3.900   2.097  1.1702  0.1590 -1.0348
 2533TIP3   OH229233   5.912   2.162   2.762  0.1415  0.0074  0.3380
 2533TIP3    H129234   5.860   2.196   2.835  0.9679 -1.8682  1.8689
 2533TIP3    H229235   5.857   2.177   2.685 -1.6367  0.2236  1.5862
 2534TIP3   OH229236   4.994   0.228   2.642 -0.2381  0.3304 -0.3048
 2534TIP3    H129237   5.036   0.313   2.643 -0.2266  0.3844 -1.8822
 2534TIP3    H229238   4.901   0.247   2.624 -0.0669 -0.0021 -1.6750
 2535TIP3   OH229239   2.185   6.107   8.720  0.1050 -0.3291  0.6225
 2535TIP3    H129240   2.207   6.126   8.811  2.1200  1.5072 -0.1650
 2535TIP3    H229241   2.101   6.151   8.705  1.0683  1.7236  0.9205
 2536TIP3   OH229242   2.350   6.190   2.876  0.1189  0.1500  0.5019
 2536TIP3    H129243   2.302   6.221   2.800 -0.0024  2.2041  1.3511
 2536TIP3    H229244   2.321   6.099   2.888 -0.0304 -0.1402 -1.7137
 2537TIP3   OH229245   1.241   2.773   0.513  0.4583  0.2390 -0.2088
 2537TIP3    H129246   1.166   2.763   0.573  1.7096 -1.7852  1.1461
 2537TIP3    H229247   1.210   2.834   0.446 -1.3413  1.9103  1.9756
 2538TIP3   OH229248   3.149   2.774   1.626  0.2435 -0.1885  0.0180
 2538TIP3    H129249   3.185   2.851   1.582  0.8207 -1.9656 -2.8550
 2538TIP3    H229250   3.225   2.716   1.638 -0.7208 -1.7498 -1.1381
 2539TIP3   OH229251   2.870   1.853   2.531 -0.0156 -0.7198  0.7745
 2539TIP3    H129252   2.837   1.914   2.597  1.0701  0.1591  0.5341
 2539TIP3    H229253   2.965   1.863   2.534  0.0454  0.6818 -2.1340
 2540TIP3   OH229254   1.152   2.323   0.379  0.3531 -0.0622  0.4810
 2540TIP3    H129255   1.178   2.330   0.287  0.7937 -0.0245  0.6044
 2540TIP3    H229256   1.235   2.317   0.427  0.2327  2.1008  1.0618
 2541TIP3   OH229257   2.895   4.848   8.405 -0.0806  0.6580  0.2056
 2541TIP3    H129258   2.928   4.930   8.443  2.1374 -0.0875 -0.0086
 2541TIP3    H229259   2.818   4.875   8.354 -1.1737  2.1530  2.4504
 2542TIP3   OH229260   5.737   2.530   2.093  0.4384 -0.4337 -0.8069
 2542TIP3    H129261   5.674   2.483   2.039  0.0855  0.5884 -1.2987
 2542TIP3    H229262   5.749   2.614   2.049  0.9625 -0.0040  0.1283
 2543TIP3   OH229263   3.758   5.834   8.645 -0.5180  0.0569  0.1170
 2543TIP3    H129264   3.785   5.916   8.685 -0.1424  0.4560 -0.9190
 2543TIP3    H229265   3.839   5.783   8.637 -0.8711 -0.7981  1.5410
 2544TIP3   OH229266   5.225   1.250   0.729  0.7215  0.7706 -0.2588
 2544TIP3    H129267   5.255   1.318   0.669  1.3610 -0.4960 -1.4386
 2544TIP3    H229268   5.201   1.297   0.809  1.4440  2.3324 -0.9172
 2545TIP3   OH229269   6.317   0.967   1.822 -0.7866 -1.1495 -0.0377
 2545TIP3    H129270   6.413   0.958   1.818 -0.5954  0.5961  0.1260
 2545TIP3    H229271   6.293   0.933   1.908 -0.0554  0.3430  0.7811
 2546TIP3   OH229272   3.144   6.693   2.302 -0.4345 -0.1825 -0.1450
 2546TIP3    H129273   3.084   6.691   2.228 -3.1551  1.4604  1.8367
 2546TIP3    H229274   3.158   6.601   2.325 -0.7728 -0.6488 -1.6800
 2547TIP3   OH229275   6.086   0.920   2.406  0.1369  0.2170  0.0860
 2547TIP3    H129276   6.019   0.879   2.460 -0.2566 -0.9773 -1.2447
 2547TIP3    H229277   6.052   1.007   2.386 -0.8799 -0.2653 -0.3227
 2548TIP3   OH229278   2.237   3.473   1.222  0.3713  0.1921 -0.8564
 2548TIP3    H129279   2.304   3.457   1.156  1.4438  2.0598 -0.2741
 2548TIP3    H229280   2.267   3.550   1.270 -0.5573 -0.8561  1.5725
 2549TIP3   OH229281   0.454   4.364   1.684 -0.2869  0.0677  0.1476
 2549TIP3    H129282   0.392   4.410   1.628 -1.2676  1.2100  2.0831
 2549TIP3    H229283   0.539   4.376   1.641 -0.9435  1.2127 -0.8808
 2550TIP3   OH229284   3.272   4.345   1.481 -0.4439 -0.0190  0.3827
 2550TIP3    H129285   3.316   4.266   1.450 -2.8943 -1.0350 -0.7284
 2550TIP3    H229286   3.310   4.360   1.568  0.8875 -1.7540  0.1695
 2551TIP3   OH229287   5.075   4.823   0.545  0.0954  0.2218 -0.4287
 2551TIP3    H129288   5.016   4.814   0.469 -1.7335 -0.5948  1.0052
 2551TIP3    H229289   5.082   4.917   0.558 -1.1060  0.3485 -0.5234
 2552TIP3   OH229290   0.565   3.098   1.671  0.3978  0.9336  0.1150
 2552TIP3    H129291   0.608   3.015   1.693  0.1978  1.5164  3.1350
 2552TIP3    H229292   0.550   3.093   1.576  0.8718 -2.2320  0.0984
 2553TIP3   OH229293   3.316   5.048   1.026 -0.5699  1.0487 -0.2051
 2553TIP3    H129294   3.342   4.970   0.976  1.6274 -0.1711  2.5881
 2553TIP3    H229295   3.393   5.104   1.025 -0.4044  0.9279  1.7896
 2554TIP3   OH229296   0.404   4.045   2.323 -0.1812 -0.2441  0.4063
 2554TIP3    H129297   0.322   4.095   2.321 -0.2115 -0.3279 -0.7806
 2554TIP3    H229298   0.458   4.091   2.388 -0.9276  0.1760  0.7446
 2555TIP3   OH229299   3.782   0.256   1.966  0.1576 -0.1389 -0.3145
 2555TIP3    H129300   3.698   0.276   1.925 -1.1430 -2.9591  0.7405
 2555TIP3    H229301   3.764   0.254   2.060  0.4521 -3.9235 -0.1634
 2556TIP3   OH229302   6.581   1.641   9.128  0.0822 -0.2354 -0.3737
 2556TIP3    H129303   6.573   1.570   9.192  2.1953 -0.4250 -0.2240
 2556TIP3    H229304   6.588   1.596   9.044  1.2577 -0.2573 -0.2942
 2557TIP3   OH229305   3.065   1.951   0.285 -0.8102  0.2618 -1.1349
 2557TIP3    H129306   3.153   1.985   0.266  0.1626 -0.1759  1.9744
 2557TIP3    H229307   3.050   1.886   0.216  1.9635 -0.6427 -1.0489
 2558TIP3   OH229308   3.597   5.735   0.629 -0.6919 -0.4823  0.1536
 2558TIP3    H129309   3.683   5.701   0.608 -0.7445  0.3851 -1.6643
 2558TIP3    H229310   3.609   5.785   0.710  0.1681 -1.6136  0.7355
 2559TIP3   OH229311   0.954   2.403   1.959  0.3364  0.1426  0.2485
 2559TIP3    H129312   1.038   2.413   2.002 -0.1465  0.5505  1.1249
 2559TIP3    H229313   0.951   2.473   1.894  1.1731 -0.6310 -0.6508
 2560TIP3   OH229314   4.231   5.557   0.332 -0.6374 -0.3609  0.1333
 2560TIP3    H129315   4.283   5.554   0.251 -1.9790  2.0521 -0.9255
 2560TIP3    H229316   4.176   5.635   0.322 -3.1012 -1.7154  2.0102
 2561TIP3   OH229317   2.531   5.212   2.035  0.3489 -0.5827 -0.3982
 2561TIP3    H129318   2.540   5.123   2.069 -0.0131 -0.2106  0.7372
 2561TIP3    H229319   2.447   5.242   2.071  0.5251  0.2489 -0.6761
 2562TIP3   OH229320   1.168   1.680   9.016 -0.0827  0.3007  0.0984
 2562TIP3    H129321   1.121   1.607   9.057 -0.9785 -0.4666 -2.0961
 2562TIP3    H229322   1.253   1.644   8.993  0.4207  0.7313  1.2327
 2563TIP3   OH229323   6.318   0.995   2.563  0.2194 -0.2667 -0.2262
 2563TIP3    H129324   6.278   1.074   2.598 -0.6915 -1.2321  1.0084
 2563TIP3    H229325   6.246   0.951   2.516  0.5565 -0.6408 -0.3957
 2564TIP3   OH229326   0.166   4.264   2.608 -0.0407  0.1869 -0.4213
 2564TIP3    H129327   0.248   4.310   2.627 -0.5704  1.1559 -0.4627
 2564TIP3    H229328   0.161   4.261   2.513 -0.5269  1.0107 -0.4325
 2565TIP3   OH229329   5.945   0.770   8.383  0.1411  0.0411 -0.5074
 2565TIP3    H129330   5.976   0.682   8.362 -2.1349 -0.8153 -0.5242
 2565TIP3    H229331   5.850   0.763   8.382 -0.1051  2.5239 -0.5073
 2566TIP3   OH229332   5.561   0.617   0.376 -0.6854  0.6216 -0.3392
 2566TIP3    H129333   5.641   0.643   0.330 -0.0401 -0.2454  0.2595
 2566TIP3    H229334   5.520   0.553   0.318 -0.9659  1.0845 -0.6577
 2567TIP3   OH229335   5.404   3.349   0.503  0.1129  0.3137 -0.1125
 2567TIP3    H129336   5.432   3.311   0.419  0.8099 -0.1324  0.3095
 2567TIP3    H229337   5.467   3.420   0.518  1.4607 -1.0701  1.1337
 2568TIP3   OH229338   5.511   5.916   8.994 -0.1532  0.4290  0.0147
 2568TIP3    H129339   5.462   5.984   8.947  2.0674  1.2297 -1.3061
 2568TIP3    H229340   5.480   5.922   9.085 -3.0097  0.3097 -0.8521
 2569TIP3   OH229341   5.507   5.006   7.501  0.3471  0.5169  0.6388
 2569TIP3    H129342   5.539   4.927   7.457  1.0680  1.4627 -0.5850
 2569TIP3    H229343   5.576   5.027   7.564 -0.6545 -0.7975  2.2733
 2570TIP3   OH229344   2.479   2.405   1.438  0.2443 -0.0607  0.1320
 2570TIP3    H129345   2.492   2.421   1.344 -0.7075  2.0416  0.2833
 2570TIP3    H229346   2.563   2.426   1.478  0.7518 -1.2806 -0.2502
 2571TIP3   OH229347   1.384   2.008   1.685  0.1267 -0.0004 -0.0125
 2571TIP3    H129348   1.438   2.081   1.714 -0.5123  0.2667  0.5198
 2571TIP3    H229349   1.363   2.029   1.594  0.5415  0.1147 -0.0853
 2572TIP3   OH229350   4.306   6.260   8.768  0.0225  0.5174 -0.1424
 2572TIP3    H129351   4.225   6.308   8.785  0.2527  0.3630  1.5325
 2572TIP3    H229352   4.286   6.207   8.690 -0.8756  1.8122 -0.8421
 2573TIP3   OH229353   4.543   4.050   1.140 -0.3456  0.6054 -0.0315
 2573TIP3    H129354   4.508   4.068   1.227  1.5964  1.1104  0.7115
 2573TIP3    H229355   4.613   4.114   1.128 -1.0795  1.0745 -2.3351
 2574TIP3   OH229356   2.305   3.058   3.020 -0.1203  0.2246 -0.0751
 2574TIP3    H129357   2.352   3.141   3.020 -0.8766  0.6947 -1.3571
 2574TIP3    H229358   2.287   3.040   3.113  2.6679 -0.0873  0.4750
 2575TIP3   OH229359   0.998   5.334   1.399 -0.1034 -0.0155  0.4691
 2575TIP3    H129360   0.918   5.297   1.361  0.2894 -1.0591  0.6337
 2575TIP3    H229361   1.068   5.279   1.365  0.4440  0.2228  1.1932
 2576TIP3   OH229362   0.013   5.539   0.578 -0.2497  0.3515 -0.4908
 2576TIP3    H129363  -0.039   5.492   0.644  0.7640 -1.0881 -0.6672
 2576TIP3    H229364   0.088   5.573   0.627 -0.3841  0.7862 -0.5855
 2577TIP3   OH229365   6.628   4.516   1.274  0.1614  0.4522  0.0353
 2577TIP3    H129366   6.553   4.576   1.277 -1.0402 -0.8919 -1.2576
 2577TIP3    H229367   6.592   4.432   1.302  0.9695 -0.4032 -1.3954
 2578TIP3   OH229368   2.346   4.855   2.057  0.0354 -0.2309 -0.1687
 2578TIP3    H129369   2.397   4.784   2.096  0.9248 -0.0437 -0.9485
 2578TIP3    H229370   2.337   4.920   2.127 -2.1239 -1.7250  1.0572
 2579TIP3   OH229371   4.061   0.840   7.439  0.0271  0.3256 -0.4035
 2579TIP3    H129372   4.118   0.765   7.447  0.2096  0.5617  0.7362
 2579TIP3    H229373   3.975   0.808   7.467 -0.1882  0.2127 -1.1855
 2580TIP3   OH229374   0.185   1.706   8.049  0.4940 -0.2982  0.4757
 2580TIP3    H129375   0.096   1.673   8.062 -0.6392  2.1238 -0.5425
 2580TIP3    H229376   0.222   1.647   7.983 -0.6097 -0.9191  0.3813
 2581TIP3   OH229377   5.253   3.266   8.067 -0.4960  0.1633  0.2758
 2581TIP3    H129378   5.316   3.305   8.005 -2.1649  1.1040 -0.9135
 2581TIP3    H229379   5.307   3.238   8.141  1.2137  1.8443 -0.2376
 2582TIP3   OH229380   3.274   2.175   1.459  0.0348 -0.5602  0.2186
 2582TIP3    H129381   3.251   2.134   1.542 -0.4588  1.2530  1.0149
 2582TIP3    H229382   3.226   2.125   1.394 -0.0071 -1.6603  1.0670
 2583TIP3   OH229383   0.898   1.178   1.308 -0.6072 -0.4584  0.0247
 2583TIP3    H129384   0.909   1.174   1.213  1.9778 -0.8737  0.2832
 2583TIP3    H229385   0.900   1.087   1.336 -1.8594 -0.3726  0.4865
 2584TIP3   OH229386   5.907   5.820   8.629  0.3426  0.7155  0.0556
 2584TIP3    H129387   5.923   5.728   8.609 -2.6022  0.0833  0.1631
 2584TIP3    H229388   5.844   5.819   8.701  0.9632  2.8552  0.7297
 2585TIP3   OH229389   2.415   6.682   2.478  0.1097 -0.3365 -0.2973
 2585TIP3    H129390   2.374   6.620   2.418 -1.3284  0.2772  0.0309
 2585TIP3    H229391   2.412   6.638   2.563 -0.5226 -0.0168 -0.1452
 2586TIP3   OH229392   4.780   3.030   0.748 -0.1459 -0.2708 -0.2537
 2586TIP3    H129393   4.845   3.080   0.698 -2.4749  1.5939 -1.6451
 2586TIP3    H229394   4.807   3.040   0.839  1.4948  0.4417 -0.7797
 2587TIP3   OH229395   4.043   0.038   8.215 -0.4586  0.0601 -0.3442
 2587TIP3    H129396   4.061   0.075   8.302  0.8184 -0.1264 -0.5121
 2587TIP3    H229397   4.006   0.111   8.165  2.0738  1.2112 -0.6865
 2588TIP3   OH229398   3.378   6.145   8.656 -0.0715  0.9110 -0.2708
 2588TIP3    H129399   3.375   6.185   8.743 -0.2954  1.3479 -0.4786
 2588TIP3    H229400   3.431   6.205   8.604  0.5647  0.3485 -0.2884
 2589TIP3   OH229401   5.052   5.658   0.752 -0.7182 -0.0436 -0.1233
 2589TIP3    H129402   5.090   5.643   0.665  0.1651 -0.1661  0.2678
 2589TIP3    H229403   5.127   5.681   0.807 -1.2059 -0.3577  0.6951
 2590TIP3   OH229404   3.454   3.492   0.555  0.4639  0.0570  0.0277
 2590TIP3    H129405   3.526   3.523   0.610 -1.0869  1.1142  1.5804
 2590TIP3    H229406   3.375   3.522   0.600 -0.9390  0.1345 -2.3002
 2591TIP3   OH229407   5.738   1.412   2.446  0.1900  0.2966  0.0646
 2591TIP3    H129408   5.682   1.473   2.397 -0.0861 -0.6050 -0.7772
 2591TIP3    H229409   5.783   1.467   2.510 -1.7706  1.0336  0.8875
 2592TIP3   OH229410   6.703   4.286   2.798  0.2134  0.3132 -0.4614
 2592TIP3    H129411   6.738   4.220   2.859  0.7013  0.1407 -0.9247
 2592TIP3    H229412   6.759   4.280   2.721 -1.1588 -0.3435 -1.4496
 2593TIP3   OH229413   3.296   0.155   8.324 -0.2383  0.1606 -0.1851
 2593TIP3    H129414   3.291   0.243   8.287 -0.9653 -0.5020 -1.7550
 2593TIP3    H229415   3.247   0.160   8.406  2.7401  2.0685  1.6612
 2594TIP3   OH229416   6.079   3.349   0.823  0.1277 -0.1166  0.3062
 2594TIP3    H129417   6.032   3.277   0.865  0.3575  0.5732  1.7903
 2594TIP3    H229418   6.125   3.393   0.894  0.6466  1.0152 -0.6924
 2595TIP3   OH229419   0.859   5.390   8.689 -0.0204 -0.3867 -0.4440
 2595TIP3    H129420   0.905   5.426   8.613 -0.1433 -0.1987 -0.4307
 2595TIP3    H229421   0.820   5.309   8.657  0.6497 -0.7499 -0.3515
 2596TIP3   OH229422   0.537   6.241   7.561  0.0344  0.1704 -0.1855
 2596TIP3    H129423   0.515   6.215   7.650  2.3195 -1.4098  0.0092
 2596TIP3    H229424   0.632   6.253   7.562  0.3023 -1.1234 -2.6806
 2597TIP3   OH229425   4.390   1.874   8.339 -0.4289 -0.9130 -0.6897
 2597TIP3    H129426   4.398   1.901   8.430  0.3709 -0.2181 -0.9574
 2597TIP3    H229427   4.416   1.951   8.288  0.1099 -1.6074 -1.4988
 2598TIP3   OH229428   4.282   0.950   1.099 -0.2011 -0.1622 -0.1877
 2598TIP3    H129429   4.207   0.938   1.041  1.1031 -1.4002 -1.6878
 2598TIP3    H229430   4.257   1.024   1.155 -1.6628  0.8463 -2.0566
 2599TIP3   OH229431   1.361   5.729   0.023 -0.3529 -0.4303 -0.1191
 2599TIP3    H129432   1.375   5.820  -0.003  0.2552 -0.0571  1.4306
 2599TIP3    H229433   1.445   5.700   0.058 -0.7270 -1.3839  0.0267
 2600TIP3   OH229434   0.696   2.770   7.245  0.2604 -0.1301  0.4997
 2600TIP3    H129435   0.698   2.704   7.315  1.2767  0.0405  0.6384
 2600TIP3    H229436   0.678   2.720   7.166 -0.4543 -0.3819  0.8100
 2601TIP3   OH229437   1.298   2.043   1.992 -0.1740 -0.6355  0.1563
 2601TIP3    H129438   1.363   2.103   2.027 -0.2128 -0.6511  0.2567
 2601TIP3    H229439   1.349   1.974   1.949 -0.1343  0.3568 -1.4959
 2602TIP3   OH229440   1.906   1.890   2.129 -0.3015  0.0069 -0.0933
 2602TIP3    H129441   1.896   1.948   2.205  3.0056  0.1402  0.3892
 2602TIP3    H229442   2.000   1.873   2.124 -0.7266 -2.3075 -2.5104
 2603TIP3   OH229443   4.560   1.820   0.372 -0.3095  0.1219 -0.0860
 2603TIP3    H129444   4.646   1.851   0.345 -0.3052 -0.1218 -0.3494
 2603TIP3    H229445   4.556   1.841   0.466  0.3931 -0.6686  0.1339
 2604TIP3   OH229446   1.896   5.199   1.807  0.3104  0.2547 -0.4199
 2604TIP3    H129447   1.953   5.171   1.878 -0.0906  0.1835 -0.1223
 2604TIP3    H229448   1.856   5.118   1.774 -0.2294  0.3783 -0.0932
 2605TIP3   OH229449   4.978   0.151   0.956  0.0764 -0.4311 -0.2205
 2605TIP3    H129450   4.944   0.175   1.042  1.1474 -0.1582  0.1434
 2605TIP3    H229451   5.035   0.223   0.932  2.0991 -1.8201  0.1647
 2606TIP3   OH229452   6.115   0.963   8.177  0.6969 -1.0457 -0.4868
 2606TIP3    H129453   6.063   0.908   8.237  0.0489  0.0723  0.0049
 2606TIP3    H229454   6.158   1.026   8.235 -1.0075  0.9326 -1.2657
 2607TIP3   OH229455   3.693   5.584   1.593  0.1535 -0.1113 -0.6814
 2607TIP3    H129456   3.734   5.666   1.565  0.4518 -0.3495 -0.9547
 2607TIP3    H229457   3.599   5.603   1.594  0.3324  0.8428  1.2621
 2608TIP3   OH229458   0.676   0.002   8.965  0.4430  0.3022 -0.1122
 2608TIP3    H129459   0.672  -0.040   9.050  2.1382 -0.7836 -0.5190
 2608TIP3    H229460   0.766   0.034   8.958 -0.0918  1.7476 -0.8869
 2609TIP3   OH229461   2.010   6.150   2.692 -0.0896 -0.2090  0.6950
 2609TIP3    H129462   2.048   6.100   2.765  0.6536  1.2943  1.3763
 2609TIP3    H229463   1.917   6.158   2.714  0.5163  2.3437  2.8491
 2610TIP3   OH229464   1.437   0.295   1.049  0.6213 -0.4502 -0.0633
 2610TIP3    H129465   1.354   0.342   1.059  0.2044 -1.3713  1.1215
 2610TIP3    H229466   1.505   0.362   1.059  0.0406 -0.0140  1.1487
 2611TIP3   OH229467   3.106   1.133   8.382  0.2157  0.3995  0.3374
 2611TIP3    H129468   3.040   1.086   8.331  1.1741  0.2061 -0.7762
 2611TIP3    H229469   3.105   1.092   8.468 -1.5207  0.7980  0.5329
 2612TIP3   OH229470   1.002   2.526   8.998  0.2204 -0.1254  0.3537
 2612TIP3    H129471   1.040   2.594   9.054  0.4670  0.1568 -0.1542
 2612TIP3    H229472   0.910   2.552   8.989  0.5853  0.8191 -0.8288
 2613TIP3   OH229473   5.103   0.641   8.817  0.4995  0.1226 -0.2419
 2613TIP3    H129474   5.019   0.603   8.791  1.2007 -2.0003  0.3173
 2613TIP3    H229475   5.130   0.693   8.741 -1.1900  0.6588 -0.5199
 2614TIP3   OH229476   0.598   4.636   9.142 -0.1113  0.4653 -0.4996
 2614TIP3    H129477   0.600   4.541   9.132  0.3403  0.6493 -2.4645
 2614TIP3    H229478   0.522   4.652   9.199  0.2963 -1.0885  0.5448
 2615TIP3   OH229479   6.232   3.181   2.330  0.2640  0.3187 -0.0490
 2615TIP3    H129480   6.273   3.252   2.379 -1.0359  1.5704 -0.7066
 2615TIP3    H229481   6.198   3.122   2.398 -0.1414  1.2205  0.5514
 2616TIP3   OH229482   0.952   3.591   0.892 -0.2434 -0.5658 -0.3909
 2616TIP3    H129483   1.025   3.641   0.931  0.4655 -1.4790 -0.5164
 2616TIP3    H229484   0.994   3.533   0.829 -1.0908 -1.1214 -0.4577
 2617TIP3   OH229485   1.455   1.775   1.824  0.2326 -0.7522 -0.1803
 2617TIP3    H129486   1.463   1.686   1.788 -2.2871 -1.2342  0.2884
 2617TIP3    H229487   1.442   1.831   1.748 -0.7576 -1.1724 -0.3378
 2618TIP3   OH229488   4.105   2.141   1.756  0.2492  0.0453 -0.1145
 2618TIP3    H129489   4.037   2.206   1.740  0.3445  0.2716  0.3870
 2618TIP3    H229490   4.135   2.159   1.845  0.3754 -0.5946 -0.0241
 2619TIP3   OH229491   4.192   3.053   7.375  0.1354 -0.1328  1.0162
 2619TIP3    H129492   4.252   3.127   7.391  0.7514 -0.7485  1.6267
 2619TIP3    H229493   4.134   3.053   7.451  1.0100 -1.0922  1.7188
 2620TIP3   OH229494   2.309   4.801   0.726  0.5561 -0.0605  0.2896
 2620TIP3    H129495   2.264   4.873   0.770  0.1557  0.2871 -0.6651
 2620TIP3    H229496   2.402   4.824   0.732  0.4348  0.5209  0.0511
 2621TIP3   OH229497   2.497   6.530   2.885  0.2563  0.4823  0.2109
 2621TIP3    H129498   2.462   6.503   2.800  1.3255  0.7427 -0.3243
 2621TIP3    H229499   2.571   6.471   2.900 -0.3433 -0.0130  1.2912
 2622TIP3   OH229500   4.396   3.010   2.142 -0.1546  0.4511 -0.4187
 2622TIP3    H129501   4.359   2.924   2.163  0.4216  0.5040  0.9030
 2622TIP3    H229502   4.348   3.071   2.198 -0.4708  0.9806 -1.2583
 2623TIP3   OH229503   2.478   5.162   8.967 -0.9796  0.4181  0.1249
 2623TIP3    H129504   2.497   5.218   8.892  0.9806  1.5353  1.3560
 2623TIP3    H229505   2.559   5.114   8.982 -1.8781 -1.0250  0.5466
 2624TIP3   OH229506   2.984   2.100   8.947  0.0562 -0.4559  0.9762
 2624TIP3    H129507   3.022   2.166   8.889  2.4744 -1.0398  1.7435
 2624TIP3    H229508   3.008   2.016   8.906 -1.6049 -0.8929  0.8359
 2625TIP3   OH229509   5.293   5.375   8.124 -0.0087  0.2458  0.8033
 2625TIP3    H129510   5.205   5.411   8.111 -0.0555 -0.6684 -1.9893
 2625TIP3    H229511   5.348   5.423   8.063  0.6526 -1.7829 -0.2797
 2626TIP3   OH229512   0.066   4.760   7.599  0.4070 -0.0079  0.4207
 2626TIP3    H129513   0.041   4.668   7.602  0.5180 -0.0488  0.1559
 2626TIP3    H229514   0.134   4.764   7.531 -0.6514  0.5158 -0.6583
 2627TIP3   OH229515   2.093   3.072   1.706 -0.0167  0.3848 -0.1849
 2627TIP3    H129516   2.079   3.038   1.794  0.5830 -1.6143 -0.8058
 2627TIP3    H229517   2.037   3.018   1.650 -0.4926  1.7116 -1.0300
 2628TIP3   OH229518   5.027   4.499   0.322  0.2301  0.2018 -0.0666
 2628TIP3    H129519   5.084   4.534   0.390 -0.5314 -0.6514  1.0478
 2628TIP3    H229520   5.085   4.446   0.267  0.5270 -0.7815  1.1420
 2629TIP3   OH229521   5.290   6.268   9.176 -0.4303  0.1098 -0.6848
 2629TIP3    H129522   5.250   6.295   9.259  1.6372 -0.8489  0.7379
 2629TIP3    H229523   5.284   6.346   9.120 -2.1771  0.6769  0.2208
 2630TIP3   OH229524   0.868   0.695   2.234 -0.9085 -0.2525  0.3622
 2630TIP3    H129525   0.894   0.699   2.326  1.6216 -0.9015 -0.2380
 2630TIP3    H229526   0.869   0.785   2.204  0.0255 -0.1825  0.5675
 2631TIP3   OH229527   5.782   2.760   3.480  0.1244 -0.6237  0.0796
 2631TIP3    H129528   5.757   2.851   3.496 -0.2979 -0.7134 -0.0572
 2631TIP3    H229529   5.699   2.713   3.472  0.3396 -1.0128  0.0985
 2632TIP3   OH229530   0.557   0.225   8.644  0.8569  0.7421  0.4312
 2632TIP3    H129531   0.504   0.154   8.606 -0.6764  2.5776 -1.0142
 2632TIP3    H229532   0.529   0.228   8.736  2.2578 -1.6090  1.0498
 2633TIP3   OH229533   2.080   4.760   2.013  0.2004 -0.3108 -0.5281
 2633TIP3    H129534   2.174   4.775   2.020  0.0871  0.1203  0.1664
 2633TIP3    H229535   2.070   4.702   1.937  1.0710 -0.8336 -0.2553
 2634TIP3   OH229536   0.694   2.615   0.464  0.3556  0.4593  0.7711
 2634TIP3    H129537   0.697   2.577   0.552  0.4161  0.0509  0.5960
 2634TIP3    H229538   0.786   2.622   0.438  0.3435 -2.3851 -0.4971
 2635TIP3   OH229539   1.699   3.786   1.543 -0.4586 -0.0437  0.2637
 2635TIP3    H129540   1.759   3.820   1.609 -0.2667 -1.7666  1.0287
 2635TIP3    H229541   1.644   3.723   1.590 -1.6642  0.1635 -0.8092
 2636TIP3   OH229542   1.098   6.215   1.336 -0.2181  0.1845  0.2460
 2636TIP3    H129543   1.052   6.266   1.402 -1.6174  0.9225 -1.2439
 2636TIP3    H229544   1.035   6.149   1.308  0.6205 -0.6029  0.1384
 2637TIP3   OH229545   4.096   3.028   1.857  0.1240 -0.1358 -0.5105
 2637TIP3    H129546   4.094   3.029   1.952 -0.0547 -1.2350 -0.4956
 2637TIP3    H229547   4.040   3.101   1.831 -0.0674 -0.0214  0.2192
 2638TIP3   OH229548   3.111   5.033   1.508  0.2632 -0.5116  0.0907
 2638TIP3    H129549   3.128   4.944   1.539 -0.0006 -1.0605 -1.2851
 2638TIP3    H229550   3.113   5.026   1.413 -2.9914  0.2633 -0.1665
 2639TIP3   OH229551   2.678   1.204   8.856 -0.0219 -0.4821  0.7870
 2639TIP3    H129552   2.620   1.254   8.799  0.7446 -0.6138 -0.1343
 2639TIP3    H229553   2.722   1.270   8.910  1.4109 -0.0722 -0.8167
 2640TIP3   OH229554   3.470   5.639   9.103 -0.1279 -0.7912  0.2954
 2640TIP3    H129555   3.503   5.696   9.034 -0.4700 -2.4414 -1.3129
 2640TIP3    H229556   3.468   5.552   9.064 -0.8582 -1.7129  2.2263
 2641TIP3   OH229557   6.635   4.908   6.927 -0.0637 -0.4122  0.2868
 2641TIP3    H129558   6.541   4.890   6.932  0.0739 -1.1508  0.2732
 2641TIP3    H229559   6.641   5.004   6.932 -0.7479 -0.4076  1.4406
 2642TIP3   OH229560   6.241   5.680   9.158  0.5410  0.0931 -0.0376
 2642TIP3    H129561   6.266   5.626   9.233 -1.1968 -0.2999  0.3215
 2642TIP3    H229562   6.148   5.658   9.144  0.8775 -0.0067 -2.4452
 2643TIP3   OH229563   3.561   1.393   8.192  0.4143 -0.1613  0.3562
 2643TIP3    H129564   3.640   1.349   8.224  0.1328  0.7824  2.5316
 2643TIP3    H229565   3.517   1.423   8.271 -0.4542  2.2468 -0.9501
 2644TIP3   OH229566   4.981   2.714   1.750  0.1131  0.6873  0.2428
 2644TIP3    H129567   4.918   2.765   1.699  1.6665  3.1199  0.5482
 2644TIP3    H229568   5.046   2.779   1.778  1.9554 -1.4277  1.1562
 2645TIP3   OH229569   6.281   6.662   0.817 -0.2412 -1.0287 -0.0858
 2645TIP3    H129570   6.232   6.674   0.898 -0.2605  1.5250 -0.4099
 2645TIP3    H229571   6.373   6.672   0.842 -0.1380 -1.7441 -0.1516
 2646TIP3   OH229572   1.820   6.706   1.529  0.2971 -0.2979  0.6540
 2646TIP3    H129573   1.839   6.667   1.443  1.2879  0.1888  0.6440
 2646TIP3    H229574   1.748   6.766   1.511  0.8505  0.2018  0.0459
 2647TIP3   OH229575   0.704   1.151   3.130  0.0772  0.0986 -0.3895
 2647TIP3    H129576   0.738   1.072   3.172 -1.9900  0.4184  2.1382
 2647TIP3    H229577   0.615   1.160   3.164  0.2649  3.5978 -0.4475
 2648TIP3   OH229578   6.290   4.441   8.557  0.0609  0.1731  0.2498
 2648TIP3    H129579   6.283   4.369   8.495 -0.6976 -1.3086  1.9648
 2648TIP3    H229580   6.384   4.454   8.569  0.2396 -1.4662  0.8972
 2649TIP3   OH229581   0.401   2.598   2.145  0.0083 -0.1097  0.4856
 2649TIP3    H129582   0.313   2.562   2.153  0.0453  0.1304  2.6738
 2649TIP3    H229583   0.439   2.554   2.069 -1.3749 -1.5361  0.5761
 2650TIP3   OH229584   5.477   0.303   1.311 -0.1974  0.0855  0.0843
 2650TIP3    H129585   5.511   0.382   1.353 -1.7532  1.5655 -1.3005
 2650TIP3    H229586   5.443   0.249   1.383  0.0170  1.1188  0.9700
 2651TIP3   OH229587   4.498   0.915   9.014  0.3826  0.0774  0.3261
 2651TIP3    H129588   4.489   0.963   9.096  1.6178 -0.2437  0.6657
 2651TIP3    H229589   4.591   0.919   8.993  0.4968 -1.8779  0.2159
 2652TIP3   OH229590   6.077   4.615   1.506 -0.2651  0.1868  0.2494
 2652TIP3    H129591   6.121   4.700   1.504  1.0609 -0.4911 -1.5832
 2652TIP3    H229592   5.995   4.629   1.458  0.0601  0.3806 -0.2570
 2653TIP3   OH229593   2.987   6.229   1.303 -0.0781  0.4283 -0.3859
 2653TIP3    H129594   2.964   6.171   1.231  2.6873 -0.4952 -0.6795
 2653TIP3    H229595   2.922   6.211   1.371 -0.7546 -1.1912 -1.4119
 2654TIP3   OH229596   0.934   0.157   0.417  0.1664 -0.2014  0.0998
 2654TIP3    H129597   0.961   0.074   0.456 -0.6872 -0.5199  0.0351
 2654TIP3    H229598   0.883   0.131   0.340  1.9778  0.4004 -1.3992
 2655TIP3   OH229599   4.899   1.473   1.639  0.1741 -0.0165 -0.2829
 2655TIP3    H129600   4.932   1.452   1.551 -0.2484 -0.4512 -0.3443
 2655TIP3    H229601   4.959   1.427   1.698 -1.1127 -2.0390 -0.4334
 2656TIP3   OH229602   0.545   0.726   8.853 -0.1098  0.2966 -0.3616
 2656TIP3    H129603   0.556   0.664   8.925 -3.6882  1.2920  1.2646
 2656TIP3    H229604   0.498   0.678   8.785 -0.5164  0.4803 -0.2158
 2657TIP3   OH229605   5.215   0.269   0.546 -0.5902 -0.1357 -0.3420
 2657TIP3    H129606   5.152   0.264   0.618 -0.5299 -1.4879 -0.3619
 2657TIP3    H229607   5.283   0.329   0.578 -0.4681 -0.8536  0.8152
 2658TIP3   OH229608   4.351   3.845   0.143 -0.2796 -0.2797 -0.1633
 2658TIP3    H129609   4.368   3.939   0.145 -0.8182 -0.1358 -1.3917
 2658TIP3    H229610   4.290   3.830   0.215  2.5300 -0.3373  2.4278
 2659TIP3   OH229611   4.706   6.020   8.341 -0.4832  0.8216 -0.5990
 2659TIP3    H129612   4.641   6.018   8.270  0.4040 -1.0842 -1.4211
 2659TIP3    H229613   4.790   6.009   8.297  0.3681  2.3649  0.5321
 2660TIP3   OH229614   3.033   1.959   7.871 -0.0919  0.1174  0.2357
 2660TIP3    H129615   2.957   1.954   7.813  1.6461 -2.0056 -2.0591
 2660TIP3    H229616   3.012   1.899   7.943  0.1099 -2.1634 -1.4619
 2661TIP3   OH229617   5.314   4.928   8.025  0.1792  0.7819  0.6387
 2661TIP3    H129618   5.375   5.001   8.036  1.0770 -0.0710  1.6590
 2661TIP3    H229619   5.272   4.943   7.941  2.2657  1.0793 -0.3991
 2662TIP3   OH229620   5.186   4.071   2.095 -0.1645 -0.7656  0.1002
 2662TIP3    H129621   5.279   4.072   2.118 -0.1021  1.3240 -0.0686
 2662TIP3    H229622   5.142   4.091   2.178 -0.5084 -1.9561  0.2248
 2663TIP3   OH229623   5.882   3.995   0.675 -0.4344  0.2311 -0.2111
 2663TIP3    H129624   5.827   3.979   0.751  2.3487  1.7610  2.3021
 2663TIP3    H229625   5.881   4.090   0.663 -0.4243  0.0689 -1.8171
 2664TIP3   OH229626   5.956   4.166   8.336  0.1187  0.1997  0.0230
 2664TIP3    H129627   5.897   4.192   8.266 -0.2851 -0.2688  0.1812
 2664TIP3    H229628   5.904   4.176   8.416 -0.6592 -2.6139 -0.0045
 2665TIP3   OH229629   5.603   6.414   0.923 -0.6229  0.1708 -0.0473
 2665TIP3    H129630   5.543   6.392   0.994  0.6950 -1.2691  0.6545
 2665TIP3    H229631   5.566   6.372   0.846 -1.7920  1.3298 -0.1552
 2666TIP3   OH229632   3.108   0.293   2.061 -0.2260  0.0598 -0.2467
 2666TIP3    H129633   3.125   0.291   1.967  0.2472  0.5361 -0.1729
 2666TIP3    H229634   3.194   0.282   2.102 -0.4804 -0.5800  0.1330
 2667TIP3   OH229635   6.217   2.162   1.908  0.0203  0.0338  0.0027
 2667TIP3    H129636   6.296   2.137   1.860  0.3918  0.6551  0.2829
 2667TIP3    H229637   6.190   2.082   1.953  0.4216 -0.2115 -0.1888
 2668TIP3   OH229638   2.300   1.640   1.160  0.2527  0.2156  0.6269
 2668TIP3    H129639   2.318   1.549   1.183  0.4114  0.1279  0.1621
 2668TIP3    H229640   2.274   1.637   1.068  3.8444  1.0348 -0.5667
 2669TIP3   OH229641   3.615   0.052   0.978  0.5490  0.3935 -0.2224
 2669TIP3    H129642   3.645   0.138   1.008 -1.5845  0.9946  0.3584
 2669TIP3    H229643   3.537   0.034   1.031  0.6509 -1.6839 -0.6823
 2670TIP3   OH229644   5.652   0.090   2.549  0.2589  0.3799 -0.2185
 2670TIP3    H129645   5.715   0.148   2.506  1.9839 -1.9489 -1.0894
 2670TIP3    H229646   5.701   0.052   2.622 -0.2132 -1.1819 -0.6725
 2671TIP3   OH229647   4.111   2.479   1.470 -0.2098  0.8329 -0.4302
 2671TIP3    H129648   4.041   2.478   1.535  0.9341 -1.4330  0.8938
 2671TIP3    H229649   4.106   2.394   1.428  2.0375  0.3581  0.1017
 2672TIP3   OH229650   5.863   3.626   2.538 -0.2426  0.3994 -0.0738
 2672TIP3    H129651   5.835   3.717   2.549  2.0918  1.3716 -1.2636
 2672TIP3    H229652   5.942   3.619   2.592  0.1025 -0.6377 -0.6813
 2673TIP3   OH229653   2.104   0.554   1.027  0.3809 -0.2052 -0.0899
 2673TIP3    H129654   2.025   0.574   1.076  0.4588 -0.9374  0.3329
 2673TIP3    H229655   2.152   0.491   1.081  1.5149  0.6284 -0.0791
 2674TIP3   OH229656   2.733   6.702   1.261 -0.1180 -0.2720  0.1629
 2674TIP3    H129657   2.739   6.711   1.356 -3.1749 -0.1660  0.4600
 2674TIP3    H229658   2.784   6.624   1.241 -2.1268 -2.3392  2.4290
 2675TIP3   OH229659   4.050   1.141   2.489  0.3309 -0.5234 -0.3723
 2675TIP3    H129660   4.114   1.167   2.555  0.0183 -2.0047  0.5529
 2675TIP3    H229661   4.011   1.224   2.460  2.8404  0.4624 -1.2236
 2676TIP3   OH229662   3.430   3.932   0.029  0.0728 -0.8896  0.4109
 2676TIP3    H129663   3.437   3.922   0.123  1.8045 -0.8122  0.3178
 2676TIP3    H229664   3.478   3.858  -0.007  2.4480  0.8960 -0.3504
 2677TIP3   OH229665   0.470   0.264   8.257  0.4076 -0.3477 -0.8179
 2677TIP3    H129666   0.414   0.211   8.200 -1.9165 -0.7065  1.6405
 2677TIP3    H229667   0.500   0.204   8.325  0.3232  0.7845  0.2603
 2678TIP3   OH229668   6.681   5.753   8.191  0.0091  1.0156  0.7227
 2678TIP3    H129669   6.668   5.670   8.238  0.5541  0.3496 -0.2799
 2678TIP3    H229670   6.648   5.820   8.252 -1.4345 -0.0100  1.1103
 2679TIP3   OH229671   2.452   5.343   8.672 -0.0862  0.2614  0.4106
 2679TIP3    H129672   2.482   5.311   8.586 -0.9101 -2.2429  0.9765
 2679TIP3    H229673   2.532   5.370   8.717  0.9336 -2.5581  0.4292
 2680TIP3   OH229674   6.041   4.342   9.144  0.0114  0.7128 -0.1078
 2680TIP3    H129675   6.036   4.429   9.104 -5.2365  0.7841 -0.0303
 2680TIP3    H229676   6.021   4.282   9.073  1.3456 -0.2495  0.3017
 2681TIP3   OH229677   3.344   5.247   1.317  0.2696 -0.2220 -0.4047
 2681TIP3    H129678   3.414   5.182   1.325  2.1901  1.8634  0.9369
 2681TIP3    H229679   3.269   5.197   1.286  1.5162 -3.1405  0.8538
 2682TIP3   OH229680   2.935   0.524   7.696 -0.0125  0.3399  0.0610
 2682TIP3    H129681   2.864   0.586   7.684  1.4717  1.8094 -1.7893
 2682TIP3    H229682   2.940   0.476   7.614  0.9113  0.0228  0.2836
 2683TIP3   OH229683   0.943   5.937   8.919 -1.2122  0.5738  0.2085
 2683TIP3    H129684   0.850   5.955   8.909 -1.1485  0.2711 -1.0968
 2683TIP3    H229685   0.978   5.940   8.830  0.0276  0.6767  0.6750
 2684TIP3   OH229686   4.268   4.854   7.672  0.3934 -0.4167  0.6072
 2684TIP3    H129687   4.342   4.811   7.715 -0.0219  0.9629  2.8751
 2684TIP3    H229688   4.300   4.942   7.652 -1.0625  0.9145  3.4329
 2685TIP3   OH229689   4.438   2.919   1.026  0.1219  0.3381 -0.4219
 2685TIP3    H129690   4.417   3.011   1.042  1.0675  0.7744 -1.5375
 2685TIP3    H229691   4.353   2.875   1.025 -0.2480  0.8980  1.6704
 2686TIP3   OH229692   4.190   3.263   1.542  0.1813 -0.1188 -0.1097
 2686TIP3    H129693   4.197   3.175   1.506  0.0450  0.4815 -1.6983
 2686TIP3    H229694   4.144   3.313   1.473 -1.5659  0.7288  1.5748
 2687TIP3   OH229695   0.918   6.310   2.720 -0.2408  0.1752 -0.6165
 2687TIP3    H129696   0.973   6.250   2.770 -0.3988  0.4343 -0.1360
 2687TIP3    H229697   0.896   6.261   2.640  0.0263 -0.2233 -0.4471
 2688TIP3   OH229698   3.247   0.856   7.975  0.0821 -0.7183  0.0639
 2688TIP3    H129699   3.337   0.889   7.978  0.1067 -0.6789 -0.6904
 2688TIP3    H229700   3.229   0.826   8.064  0.5826 -0.0435  0.4030
 2689TIP3   OH229701   6.377   6.627   1.587 -0.2420 -0.8848  0.4406
 2689TIP3    H129702   6.437   6.554   1.576  0.4092 -0.3534  0.4125
 2689TIP3    H229703   6.432   6.705   1.580 -1.0734 -0.3616 -0.4505
 2690TIP3   OH229704   4.563   6.308   7.773  0.0855 -0.3594  0.0182
 2690TIP3    H129705   4.624   6.245   7.735 -0.4913 -0.6105 -0.5077
 2690TIP3    H229706   4.476   6.271   7.756 -0.2848  0.8258 -0.7505
 2691TIP3   OH229707   5.538   6.400   8.933 -0.7811 -0.2707  0.5859
 2691TIP3    H129708   5.578   6.408   8.847 -2.2011 -0.6091 -0.1421
 2691TIP3    H229709   5.612   6.389   8.993  0.2256 -0.2256 -0.6054
 2692TIP3   OH229710   0.268   4.739   2.314  0.2057 -0.1332 -0.4936
 2692TIP3    H129711   0.279   4.658   2.363 -1.4024 -0.0214  0.1115
 2692TIP3    H229712   0.255   4.711   2.223  2.3284 -0.3811 -0.7763
 2693TIP3   OH229713   3.411   2.354   2.655  0.9446 -0.2327  0.3827
 2693TIP3    H129714   3.333   2.316   2.694 -0.3595  0.9505 -0.9814
 2693TIP3    H229715   3.463   2.384   2.730 -0.2271 -0.4230  1.2998
 2694TIP3   OH229716   6.187   5.841   0.559  0.4624 -0.1435  0.4026
 2694TIP3    H129717   6.134   5.771   0.522 -0.9622  1.5035 -0.8394
 2694TIP3    H229718   6.233   5.879   0.484  0.2763  1.0119  0.8526
 2695TIP3   OH229719   3.911   1.300   7.799  0.0984 -0.0910 -0.2797
 2695TIP3    H129720   3.860   1.230   7.839 -1.1243 -1.0070 -3.1505
 2695TIP3    H229721   3.990   1.258   7.767 -0.0371  0.1064 -0.8850
 2696TIP3   OH229722   4.275   6.671   0.595  0.3875 -0.3477 -0.0869
 2696TIP3    H129723   4.282   6.766   0.596 -0.2884 -0.2952  0.7625
 2696TIP3    H229724   4.364   6.640   0.612  0.5137  0.1383  0.1551
 2697TIP3   OH229725   4.215   0.401   8.390 -0.8707 -1.1707  0.2785
 2697TIP3    H129726   4.152   0.337   8.422 -1.3020 -0.5942  0.5908
 2697TIP3    H229727   4.276   0.413   8.463 -2.7120  1.2740  1.5368
 2698TIP3   OH229728   6.413   3.441   1.352 -0.1499  0.0546 -0.8146
 2698TIP3    H129729   6.500   3.468   1.321  1.5354 -1.1594  2.3967
 2698TIP3    H229730   6.409   3.347   1.331 -0.2244 -0.1138 -0.0714
 2699TIP3   OH229731   4.975   0.945   7.332 -0.8255 -0.0664  0.1924
 2699TIP3    H129732   4.996   1.008   7.401 -1.1221  0.8565 -0.5321
 2699TIP3    H229733   4.953   1.000   7.256 -0.3588 -1.0571 -0.6727
 2700TIP3   OH229734   2.899   6.467   0.530 -0.4135  0.2745 -0.1233
 2700TIP3    H129735   2.976   6.480   0.585 -0.7284 -1.3435  0.7702
 2700TIP3    H229736   2.874   6.555   0.503  0.3606  1.0362  1.4912
 2701TIP3   OH229737   0.877   4.707   7.992  0.1949 -0.5639 -0.2504
 2701TIP3    H129738   0.852   4.647   7.923  1.9155 -2.4285  0.6438
 2701TIP3    H229739   0.957   4.749   7.960  0.0345 -0.1341 -0.0970
 2702TIP3   OH229740   0.550   4.016   7.832 -0.4765 -0.1802  0.2776
 2702TIP3    H129741   0.498   4.095   7.815  0.2168  0.4918  1.1718
 2702TIP3    H229742   0.492   3.944   7.809 -1.1249  0.5928 -0.5564
 2703TIP3   OH229743   5.664   1.048   1.958 -0.0575  0.0280  0.3864
 2703TIP3    H129744   5.593   1.093   1.913  1.6355  1.7268 -0.6974
 2703TIP3    H229745   5.636   0.956   1.962 -2.7155  0.7866  0.8937
 2704TIP3   OH229746   4.009   2.755   8.199 -0.4552 -0.0941  0.1241
 2704TIP3    H129747   4.011   2.698   8.276 -0.5434  0.8239  0.8077
 2704TIP3    H229748   3.969   2.700   8.131  1.5080 -1.6178  0.1231
 2705TIP3   OH229749   5.959   4.265   3.153  0.2292 -0.3394 -0.2240
 2705TIP3    H129750   5.865   4.250   3.141 -0.2438  1.2294  1.2372
 2705TIP3    H229751   5.998   4.232   3.072 -1.8923  2.0178 -2.3925
 2706TIP3   OH229752   1.019   3.771   0.032  0.0153 -0.5055  0.1890
 2706TIP3    H129753   0.954   3.707   0.005 -0.3160  0.2417 -0.8574
 2706TIP3    H229754   1.067   3.729   0.103  1.5590 -2.9895 -2.1513
 2707TIP3   OH229755   2.905   4.152   2.031 -0.8011 -0.6957  0.5988
 2707TIP3    H129756   2.849   4.075   2.020 -0.4374 -0.7552 -1.1607
 2707TIP3    H229757   2.994   4.118   2.029 -0.5734 -0.1561 -1.7085
 2708TIP3   OH229758   3.457   4.340   0.717 -0.4275 -0.2887 -0.3821
 2708TIP3    H129759   3.503   4.295   0.788 -1.1729 -1.1942 -0.4509
 2708TIP3    H229760   3.439   4.271   0.653 -0.9000  0.2692 -0.8568
 2709TIP3   OH229761   0.156   3.190   0.016  0.1621 -0.1080  0.2318
 2709TIP3    H129762   0.083   3.129   0.027  0.9605 -0.9034  1.4741
 2709TIP3    H229763   0.230   3.134  -0.010  0.8417  0.3543  1.1117
 2710TIP3   OH229764   5.889   0.390   3.020  0.1230 -0.2175 -0.1435
 2710TIP3    H129765   5.835   0.326   2.974 -0.3680 -1.1358  1.6060
 2710TIP3    H229766   5.978   0.358   3.011 -0.0453 -0.7689  0.1278
 2711TIP3   OH229767   2.004   0.977   8.186 -0.5106 -0.2621 -0.2988
 2711TIP3    H129768   1.927   0.955   8.132 -0.3385 -0.6691 -0.3839
 2711TIP3    H229769   2.009   0.905   8.250 -1.2507  0.6748  0.8554
 2712TIP3   OH229770   5.239   3.022   0.430 -0.5105 -0.4133  0.2118
 2712TIP3    H129771   5.304   2.979   0.374 -1.1331 -0.8497 -0.1968
 2712TIP3    H229772   5.259   2.989   0.518 -1.0868 -1.7268 -0.1164
 2713TIP3   OH229773   4.593   2.367   2.898 -0.2874 -0.0964  0.5529
 2713TIP3    H129774   4.555   2.354   2.985 -0.6753 -0.5993  0.3174
 2713TIP3    H229775   4.679   2.324   2.903 -0.9401 -1.5093  0.2415
 2714TIP3   OH229776   1.314   0.599   9.112 -0.1573 -0.3275  0.0099
 2714TIP3    H129777   1.288   0.650   9.035 -0.2389 -0.3852 -0.0008
 2714TIP3    H229778   1.381   0.540   9.079  0.5539  0.3520  0.1999
 2715TIP3   OH229779   2.235   6.560   8.731 -0.0939 -0.6541 -0.2593
 2715TIP3    H129780   2.249   6.499   8.803 -0.3129 -0.7941 -0.3326
 2715TIP3    H229781   2.217   6.644   8.774 -3.2920 -1.3205  0.0015
 2716TIP3   OH229782   5.975   0.679   8.742  0.1559  0.4090  0.3163
 2716TIP3    H129783   6.023   0.629   8.808 -1.0453 -2.3052 -0.7135
 2716TIP3    H229784   6.022   0.664   8.661 -0.7611  0.1393 -0.1820
 2717TIP3   OH229785   1.388   1.802   0.073 -0.1049 -0.1507 -0.5799
 2717TIP3    H129786   1.395   1.882   0.126  0.6611 -0.1030 -0.7492
 2717TIP3    H229787   1.296   1.799   0.047 -0.2713  0.3573 -0.0758
 2718TIP3   OH229788   2.206   0.896   7.934 -0.1354 -0.7626  0.5736
 2718TIP3    H129789   2.173   0.971   7.885 -0.2915  0.5131  2.5252
 2718TIP3    H229790   2.219   0.929   8.023  1.5018 -2.5866  1.0901
 2719TIP3   OH229791   2.304   0.563   1.707 -0.0998 -0.3312  0.2480
 2719TIP3    H129792   2.302   0.621   1.630 -0.8064  1.7536  1.7299
 2719TIP3    H229793   2.397   0.540   1.716  0.2329  0.6675 -0.3445
 2720TIP3   OH229794   1.468   4.791   2.402 -0.4072  0.2117 -0.0469
 2720TIP3    H129795   1.441   4.779   2.493  1.4576 -1.8282  0.3246
 2720TIP3    H229796   1.560   4.817   2.407 -0.6938  1.6410 -1.3426
 2721TIP3   OH229797   6.662   3.543   8.814  0.5400 -0.2021 -0.0244
 2721TIP3    H129798   6.682   3.506   8.728 -0.5718 -1.8450  0.3804
 2721TIP3    H229799   6.728   3.504   8.873  1.1140  0.6882 -0.0555
 2722TIP3   OH229800   6.330   4.946   2.480 -0.4706 -0.0516 -0.3977
 2722TIP3    H129801   6.359   4.869   2.529 -0.9722 -0.5235 -0.8323
 2722TIP3    H229802   6.392   5.015   2.505  0.7161 -0.8936 -0.9233
 2723TIP3   OH229803   2.810   4.832   1.436 -0.3082 -0.6086  0.7544
 2723TIP3    H129804   2.888   4.815   1.384  0.3192  2.2236  0.5726
 2723TIP3    H229805   2.759   4.894   1.383 -1.4710 -0.5237  1.9096
 2724TIP3   OH229806   2.388   2.865   0.547 -0.2461 -0.0706  0.3888
 2724TIP3    H129807   2.309   2.855   0.495 -0.9825 -1.3155  1.6774
 2724TIP3    H229808   2.452   2.808   0.506  0.1868  1.3052 -0.9474
 2725TIP3   OH229809   4.324   1.414   8.190  0.8798  0.0507 -0.3041
 2725TIP3    H129810   4.256   1.387   8.128  0.2264  1.0121 -0.0289
 2725TIP3    H229811   4.278   1.470   8.253  1.9439  0.7687 -0.1424
 2726TIP3   OH229812   4.629   0.719   1.969 -0.2028 -0.0850  0.7567
 2726TIP3    H129813   4.572   0.644   1.952 -0.5643  0.3855 -0.1298
 2726TIP3    H229814   4.572   0.785   2.008  0.3676 -0.6973  2.7368
 2727TIP3   OH229815   3.404   4.841   0.332  0.9031 -0.1736 -0.0623
 2727TIP3    H129816   3.450   4.920   0.301  1.5032 -0.7213 -0.5942
 2727TIP3    H229817   3.436   4.771   0.275  0.0119 -0.7196  0.0967
 2728TIP3   OH229818   4.395   3.527   7.921  0.2836  0.2931  0.3748
 2728TIP3    H129819   4.368   3.510   7.831 -0.6134 -0.5201  0.7784
 2728TIP3    H229820   4.457   3.457   7.941 -0.3452 -0.1708  0.7320
 2729TIP3   OH229821   2.297   5.572   1.777  0.0517  0.4080 -0.1098
 2729TIP3    H129822   2.227   5.636   1.790 -0.3184 -0.2662  1.4391
 2729TIP3    H229823   2.253   5.492   1.750  0.2530  0.1259  0.3746
 2730TIP3   OH229824   6.635   2.378   1.729 -0.4056  0.3829  0.2497
 2730TIP3    H129825   6.698   2.450   1.738  1.3151 -1.1235  0.6111
 2730TIP3    H229826   6.655   2.318   1.800 -0.4412 -1.4526 -1.2024
 2731TIP3   OH229827   2.127   1.872   1.247 -0.5168 -0.1305  0.3074
 2731TIP3    H129828   2.156   1.830   1.328 -2.6366 -0.0999  1.1462
 2731TIP3    H229829   2.173   1.824   1.178  0.0266 -1.3183  1.4344
 2732TIP3   OH229830   1.392   4.692   2.117  0.4728 -0.2726  0.5645
 2732TIP3    H129831   1.386   4.614   2.172  1.0481  0.9026  2.3930
 2732TIP3    H229832   1.404   4.764   2.179 -2.6791  1.6796 -0.8027
 2733TIP3   OH229833   3.114   4.874   0.291 -0.2167  0.1952 -0.3098
 2733TIP3    H129834   3.090   4.785   0.316 -1.6686  0.8352  0.7263
 2733TIP3    H229835   3.206   4.882   0.316 -0.2481 -0.8090  0.1667
 2734TIP3   OH229836   0.233   5.116   7.121  0.4221 -0.9840  0.0639
 2734TIP3    H129837   0.295   5.188   7.126  0.6088 -1.2069  1.0568
 2734TIP3    H229838   0.168   5.145   7.057  0.4739  0.0783  0.4743
 2735TIP3   OH229839   1.514   3.188   3.316  0.6129 -0.0592 -0.5995
 2735TIP3    H129840   1.515   3.095   3.339 -1.5540 -0.6988 -2.6658
 2735TIP3    H229841   1.433   3.222   3.355  0.9011  0.7243 -0.6640
 2736TIP3   OH229842   3.948   0.999   1.186 -0.2116  0.2360  0.0275
 2736TIP3    H129843   3.928   1.068   1.122  0.9368 -1.1551 -1.9323
 2736TIP3    H229844   4.020   1.034   1.238 -0.0664  0.7623 -0.5192
 2737TIP3   OH229845   3.619   0.450   1.638 -0.3067 -0.0763 -0.3856
 2737TIP3    H129846   3.689   0.419   1.581  0.6827  1.6925 -0.1872
 2737TIP3    H229847   3.652   0.531   1.676 -0.7430 -1.3299  3.0707
 2738TIP3   OH229848   4.348   2.261   8.326  0.1100 -0.2570 -0.5496
 2738TIP3    H129849   4.415   2.262   8.258 -0.1239  1.8021 -0.8230
 2738TIP3    H229850   4.266   2.245   8.279 -0.0278  0.9754 -0.7558
 2739TIP3   OH229851   1.866   4.128   3.260  0.0021  0.3121 -0.3182
 2739TIP3    H129852   1.932   4.180   3.214  0.5967  1.9842  2.2038
 2739TIP3    H229853   1.786   4.179   3.253  0.2846  1.0085  1.0559
 2740TIP3   OH229854   0.573   1.169   8.898 -0.0944  0.3518  0.7242
 2740TIP3    H129855   0.651   1.225   8.895 -1.1705  1.8894  0.2262
 2740TIP3    H229856   0.581   1.114   8.820 -0.1836  1.4821 -0.1079
 2741TIP3   OH229857   5.888   0.057   9.179 -1.0161 -0.1005  0.4876
 2741TIP3    H129858   5.838   0.114   9.237  0.3985  0.6103  1.0661
 2741TIP3    H229859   5.973   0.048   9.222 -0.9381 -2.0348  0.0115
 2742TIP3   OH229860   2.124   6.633   3.268 -0.1518  0.0008  0.0784
 2742TIP3    H129861   2.209   6.592   3.281  0.2134  1.2289  1.9140
 2742TIP3    H229862   2.123   6.707   3.328 -1.4801  1.6545 -1.8442
 2743TIP3   OH229863   6.391   1.267   0.937 -0.0789 -0.5159 -0.2345
 2743TIP3    H129864   6.374   1.189   0.990  0.0581 -0.5759 -0.2776
 2743TIP3    H229865   6.406   1.337   1.001  0.0784 -0.5867 -0.1941
 2744TIP3   OH229866   4.293   2.353   0.167 -0.4691 -0.4891  0.1374
 2744TIP3    H129867   4.268   2.427   0.222 -1.0356 -0.2714 -0.4003
 2744TIP3    H229868   4.214   2.333   0.117  0.1689 -0.3870 -0.9315
 2745TIP3   OH229869   4.484   2.151   0.448  0.0608  0.0217 -0.5207
 2745TIP3    H129870   4.519   2.132   0.361 -1.0559  0.3630 -1.0530
 2745TIP3    H229871   4.512   2.241   0.466  1.5169 -0.5210  0.1063
 2746TIP3   OH229872   5.757   4.610   1.778 -0.2592  0.3434  0.4405
 2746TIP3    H129873   5.837   4.557   1.786 -0.8578 -0.9232 -1.3291
 2746TIP3    H229874   5.756   4.638   1.686 -1.0513  1.6961  0.8354
 2747TIP3   OH229875   1.900   2.884   1.670 -0.5108 -0.3505  0.7154
 2747TIP3    H129876   1.905   2.823   1.743 -2.0907  0.7384  1.8119
 2747TIP3    H229877   1.812   2.921   1.676 -0.5775  0.0057 -1.5824
 2748TIP3   OH229878   6.630   0.299   9.037 -0.4753 -0.1941 -0.1717
 2748TIP3    H129879   6.648   0.232   9.103 -0.1678 -1.2623 -1.3105
 2748TIP3    H229880   6.646   0.382   9.082 -0.5183 -0.8837  1.1602
 2749TIP3   OH229881   0.894   2.628   2.476 -0.4422  0.0484 -0.1219
 2749TIP3    H129882   0.837   2.576   2.532  0.4156 -0.4246  0.3273
 2749TIP3    H229883   0.848   2.711   2.465 -1.0550 -0.2018  0.5116
 2750TIP3   OH229884   6.701   6.496   0.025 -0.5549 -0.1090  0.1246
 2750TIP3    H129885   6.691   6.438  -0.050 -0.3761 -0.2939  0.2464
 2750TIP3    H229886   6.644   6.459   0.092 -1.0723  0.3094 -0.0651
 2751TIP3   OH229887   0.856   5.083   0.404  0.1509 -0.1567 -0.0046
 2751TIP3    H129888   0.902   5.166   0.420  2.2492 -1.4495  1.1394
 2751TIP3    H229889   0.819   5.060   0.489 -1.4012  0.1245 -0.5788
 2752TIP3   OH229890   5.542   0.901   0.366 -0.2732  0.2312  0.4843
 2752TIP3    H129891   5.561   0.808   0.381  1.5068  0.3427 -0.7900
 2752TIP3    H229892   5.496   0.903   0.283 -0.4984  0.4853  0.6137
 2753TIP3   OH229893   0.170   1.139   1.257 -0.6488 -0.0034  0.3919
 2753TIP3    H129894   0.237   1.207   1.249 -0.3226 -0.0384  2.3536
 2753TIP3    H229895   0.221   1.058   1.270 -1.0504 -0.1217  1.2825
 2754TIP3   OH229896   1.329   6.616   7.750  0.5298  0.1599  0.1112
 2754TIP3    H129897   1.422   6.624   7.773 -0.1422  0.3581  3.1856
 2754TIP3    H229898   1.296   6.706   7.756  0.0365  0.0205 -0.4875
 2755TIP3   OH229899   1.369   5.578   8.158  0.4889 -0.2991  0.3671
 2755TIP3    H129900   1.334   5.667   8.146 -0.1067 -0.6603 -0.6822
 2755TIP3    H229901   1.345   5.555   8.248 -0.5265  0.1007  0.2163
 2756TIP3   OH229902   0.321   3.340   8.027  0.9416  0.1074 -0.2967
 2756TIP3    H129903   0.267   3.273   8.069 -0.4061  0.5542 -1.2699
 2756TIP3    H229904   0.294   3.422   8.069  0.6782  0.3630 -0.9537
 2757TIP3   OH229905   3.605   4.361   8.463  0.1521  0.0909  0.4559
 2757TIP3    H129906   3.536   4.313   8.417  0.5818 -1.1933  1.1098
 2757TIP3    H229907   3.566   4.446   8.482 -0.9116 -0.2665 -0.0259
 2758TIP3   OH229908   4.408   0.347   9.106 -1.0826 -0.4746  0.6261
 2758TIP3    H129909   4.453   0.395   9.176 -2.7788  0.6385  1.0277
 2758TIP3    H229910   4.477   0.321   9.046  0.2551 -0.2048  1.9969
 2759TIP3   OH229911   0.192   4.561   2.101  0.0621  0.7350  0.2111
 2759TIP3    H129912   0.198   4.573   2.007  1.3466  2.5822  0.4714
 2759TIP3    H229913   0.253   4.490   2.121 -1.1827 -0.5541 -0.4605
 2760TIP3   OH229914   2.543   6.649   8.495  0.5613  0.2064 -0.0688
 2760TIP3    H129915   2.547   6.662   8.401 -1.5860  0.8051 -0.1236
 2760TIP3    H229916   2.457   6.610   8.511  0.8150  0.2633  1.6565
 2761TIP3   OH229917   5.639   2.084   0.827  0.0339 -0.4567  0.0414
 2761TIP3    H129918   5.568   2.029   0.861  0.7969 -0.6872  1.3075
 2761TIP3    H229919   5.716   2.057   0.876  0.6494  0.9984 -0.0776
 2762TIP3   OH229920   6.464   2.726   2.036  0.1971 -0.5829  0.1416
 2762TIP3    H129921   6.522   2.659   2.070  0.7069  0.7848  2.1427
 2762TIP3    H229922   6.385   2.719   2.090  0.7597  1.2024  1.2760
 2763TIP3   OH229923   5.334   4.386   9.086 -0.2916  0.4377  0.6408
 2763TIP3    H129924   5.345   4.308   9.141 -1.2780  0.0059  0.2431
 2763TIP3    H229925   5.328   4.352   8.997  1.0560  1.1153  0.2623
 2764TIP3   OH229926   1.185   6.190   8.276 -0.1243 -0.0852 -0.2597
 2764TIP3    H129927   1.146   6.270   8.312 -0.7801 -0.1118 -0.8851
 2764TIP3    H229928   1.125   6.121   8.304 -0.2704 -0.1881 -0.8233
 2765TIP3   OH229929   1.413   4.564   7.495 -0.3645 -0.0702 -0.7932
 2765TIP3    H129930   1.363   4.496   7.539  0.1854  0.1839  0.2394
 2765TIP3    H229931   1.469   4.517   7.433 -2.1000 -0.3421 -2.2665
 2766TIP3   OH229932   3.249   6.216   1.866 -0.2335  0.0219 -0.6415
 2766TIP3    H129933   3.308   6.259   1.928 -1.1163 -0.8377  0.8794
 2766TIP3    H229934   3.271   6.123   1.873  0.3888 -0.0035 -2.4863
 2767TIP3   OH229935   1.441   1.393   8.510 -0.2418 -0.1558 -0.0366
 2767TIP3    H129936   1.458   1.472   8.560  0.4239  0.5604 -1.3465
 2767TIP3    H229937   1.527   1.361   8.483 -0.4948 -1.3466  0.4726
 2768TIP3   OH229938   1.795   6.582   2.239  0.2610 -0.1304 -0.2601
 2768TIP3    H129939   1.715   6.586   2.291 -0.1262  1.2253 -0.9256
 2768TIP3    H229940   1.793   6.661   2.185 -0.4710 -2.4908 -4.0626
 2769TIP3   OH229941   3.085   4.212   7.649  0.5597  0.2391  0.7455
 2769TIP3    H129942   3.043   4.196   7.565  0.6488  2.0919  0.3001
 2769TIP3    H229943   3.014   4.241   7.706  0.8657  1.3433  0.5902
 2770TIP3   OH229944   0.772   2.274   0.395 -0.4227 -0.5341  0.0604
 2770TIP3    H129945   0.718   2.260   0.473 -1.2288  0.0802 -0.3653
 2770TIP3    H229946   0.832   2.345   0.419 -0.8141 -0.1999  0.0576
 2771TIP3   OH229947   4.561   2.142   9.009  0.0871 -0.2502 -0.2943
 2771TIP3    H129948   4.630   2.086   9.045  0.4539  1.0046  1.0094
 2771TIP3    H229949   4.607   2.201   8.950 -0.0789 -0.3093 -0.4835
 2772TIP3   OH229950   0.193   3.740   1.221 -0.0627 -0.3284 -0.3924
 2772TIP3    H129951   0.195   3.802   1.294 -1.1881 -0.1914 -0.4513
 2772TIP3    H229952   0.226   3.658   1.258  1.2337  0.2249 -0.2585
 2773TIP3   OH229953   2.712   0.645   9.088  0.4583  0.6298 -0.4971
 2773TIP3    H129954   2.747   0.562   9.119 -0.8449  0.1845 -0.1654
 2773TIP3    H229955   2.680   0.627   9.000 -1.2038  0.3571  0.1290
 2774TIP3   OH229956   6.276   0.066   8.656 -0.3334  0.2583  0.4039
 2774TIP3    H129957   6.194   0.019   8.670 -0.4435  0.5923  0.9058
 2774TIP3    H229958   6.336  -0.000   8.622 -0.3011 -0.3969  1.6919
 2775TIP3   OH229959   3.179   0.596   0.954  0.2460  0.4963  0.0990
 2775TIP3    H129960   3.220   0.638   1.029  1.0204  2.1309 -1.1825
 2775TIP3    H229961   3.226   0.630   0.878 -0.5954 -0.9964 -1.1609
 2776TIP3   OH229962   4.794   5.154   1.219  0.3078  0.0007  0.5643
 2776TIP3    H129963   4.820   5.245   1.235 -1.3076  0.2141  2.3449
 2776TIP3    H229964   4.755   5.155   1.131 -1.0108  1.3811  1.1217
 2777TIP3   OH229965   4.329   6.446   7.926 -0.0439 -0.6846 -0.3065
 2777TIP3    H129966   4.319   6.482   7.838  2.6904 -0.7849 -0.7244
 2777TIP3    H229967   4.300   6.516   7.985  1.7707  0.8831 -1.1994
 2778TIP3   OH229968   6.411   0.093   1.303  0.1161  0.1721 -0.1237
 2778TIP3    H129969   6.427   0.076   1.396 -0.6314 -1.2767 -0.2281
 2778TIP3    H229970   6.475   0.039   1.257 -0.8726 -0.7900 -0.4405
 2779TIP3   OH229971   2.007   5.289   2.325 -0.2543 -0.1522  0.4836
 2779TIP3    H129972   1.920   5.329   2.321 -0.1873  0.1204  1.5261
 2779TIP3    H229973   2.062   5.354   2.368  0.0193 -1.0627  1.5763
 2780TIP3   OH229974   2.830   1.373   9.074 -0.0033  0.7637 -0.3830
 2780TIP3    H129975   2.802   1.461   9.098 -1.9378  0.4305 -1.2300
 2780TIP3    H229976   2.888   1.345   9.145  0.0676  2.4384  0.2443
 2781TIP3   OH229977   2.938   0.213   9.029  0.1895  0.6988 -0.2490
 2781TIP3    H129978   2.979   0.212   9.116 -0.4744 -3.4225  0.2556
 2781TIP3    H229979   2.845   0.226   9.046 -0.0820 -1.0927 -0.1239
 2782TIP3   OH229980   0.638   2.742   8.406  0.2846  0.2810 -0.3517
 2782TIP3    H129981   0.674   2.753   8.318  2.0302  1.2874  0.4409
 2782TIP3    H229982   0.543   2.736   8.392  0.6538 -3.1439 -2.5977
 2783TIP3   OH229983   1.658   1.495   0.218 -0.2369 -0.2739 -0.6282
 2783TIP3    H129984   1.706   1.516   0.298 -0.1350 -0.9230 -0.5132
 2783TIP3    H229985   1.723   1.502   0.149 -0.0327 -0.8858 -0.5053
 2784TIP3   OH229986   5.913   4.927   0.568 -0.0440 -0.4753  0.6350
 2784TIP3    H129987   5.876   4.900   0.652  1.4478  1.4833  2.0473
 2784TIP3    H229988   5.994   4.877   0.560  0.3692  0.1290  0.9404
 2785TIP3   OH229989   5.274   0.878   1.424 -0.6538 -0.1174 -0.8284
 2785TIP3    H129990   5.335   0.912   1.358 -1.2353  0.7232 -0.9466
 2785TIP3    H229991   5.206   0.833   1.374 -1.8657  1.7226 -0.9564
 2786TIP3   OH229992   3.923   3.969   1.753  0.1693  0.2357 -0.4168
 2786TIP3    H129993   3.955   3.889   1.795  1.5697 -0.1830 -2.1263
 2786TIP3    H229994   3.999   4.027   1.751 -1.0120  1.9502  1.4312
 2787TIP3   OH229995   0.055   5.316   0.760 -0.0977  0.3369 -0.1312
 2787TIP3    H129996   0.144   5.295   0.786 -0.8011 -2.9859 -0.0154
 2787TIP3    H229997   0.049   5.291   0.668 -0.7769  1.1417 -0.3288
 2788TIP3   OH229998   5.962   6.027   0.420  0.3057  0.1719 -0.0423
 2788TIP3    H129999   6.027   5.967   0.457  0.1912 -0.0571 -0.2104
 2788TIP3    H230000   5.883   5.974   0.408  0.4430  0.1435 -0.9401
 2789TIP3   OH230001   4.891   3.206   1.104 -0.0064  0.3951  0.1523
 2789TIP3    H130002   4.955   3.228   1.172  2.3352  0.4502 -1.9542
 2789TIP3    H230003   4.913   3.117   1.078  0.7138  1.1742 -2.1263
 2790TIP3   OH230004   2.424   5.236   7.223 -0.2066  0.3479  0.2622
 2790TIP3    H130005   2.443   5.321   7.263  0.0992  0.1306  0.5857
 2790TIP3    H230006   2.341   5.209   7.262 -0.1008  0.3128  0.4648
 2791TIP3   OH230007   4.579   4.250   8.852  0.0597 -0.4395 -0.8037
 2791TIP3    H130008   4.554   4.259   8.944 -0.5382 -1.1313 -0.8932
 2791TIP3    H230009   4.675   4.252   8.853  0.0777 -1.2442 -0.0697
 2792TIP3   OH230010   4.937   5.094   7.817  0.3416  0.2175  0.3680
 2792TIP3    H130011   4.907   5.185   7.828 -0.1969  0.1023 -0.0832
 2792TIP3    H230012   4.862   5.041   7.843  0.1374 -0.0807 -0.7952
 2793TIP3   OH230013   3.044   4.473   2.708  0.1710 -0.5875  0.2326
 2793TIP3    H130014   3.046   4.492   2.802  1.0491 -1.2989  0.3810
 2793TIP3    H230015   2.953   4.487   2.682 -0.2877 -1.2738  1.3830
 2794TIP3   OH230016   1.127   6.037   7.413  0.1436  0.2513 -0.0651
 2794TIP3    H130017   1.137   6.132   7.406  0.4865  0.1992 -0.3005
 2794TIP3    H230018   1.211   6.006   7.446  0.6127 -0.1383 -1.5441
 2795TIP3   OH230019   1.051   3.911   1.412 -0.0033 -0.0656 -0.1884
 2795TIP3    H130020   0.985   3.966   1.455  0.4238 -0.3367  0.8297
 2795TIP3    H230021   1.010   3.885   1.330 -0.9953  0.1373  0.2267
 2796TIP3   OH230022   4.696   3.570   8.097 -0.4099 -0.1864 -0.0780
 2796TIP3    H130023   4.758   3.514   8.050  1.6325  0.8965  1.1882
 2796TIP3    H230024   4.666   3.633   8.031 -0.1209 -0.6748 -0.6904
 2797TIP3   OH230025   2.342   2.160   0.703 -0.7094  0.4914 -0.3937
 2797TIP3    H130026   2.276   2.211   0.750 -0.5924  0.9187 -0.6834
 2797TIP3    H230027   2.317   2.069   0.717 -0.3897  0.5917  0.8962
 2798TIP3   OH230028   6.385   0.154   7.610 -0.1499  0.2320  0.5972
 2798TIP3    H130029   6.458   0.104   7.572  0.6865  1.9299 -0.1502
 2798TIP3    H230030   6.333   0.089   7.657  2.4030 -0.9025  2.0556
 2799TIP3   OH230031   1.595   3.416   2.796 -0.3632 -0.7274 -0.0798
 2799TIP3    H130032   1.575   3.457   2.712 -1.0697 -0.7334  0.0838
 2799TIP3    H230033   1.691   3.412   2.798 -0.3352 -0.5809 -0.8110
 2800TIP3   OH230034   5.575   4.590   2.343 -0.1986 -0.1030 -0.0386
 2800TIP3    H130035   5.589   4.522   2.408  0.6216  1.3932  1.4369
 2800TIP3    H230036   5.640   4.657   2.365  0.1349  0.4471 -2.4356
 2801TIP3   OH230037   0.850   0.344   0.586 -0.1123  0.3219 -0.2118
 2801TIP3    H130038   0.865   0.269   0.643  0.0235 -0.2655 -0.9933
 2801TIP3    H230039   0.861   0.309   0.497 -0.0896  1.2573 -0.5932
 2802TIP3   OH230040   4.857   0.536   1.595 -0.5931 -0.2025  0.4745
 2802TIP3    H130041   4.832   0.503   1.509 -0.0326  0.0973  0.1892
 2802TIP3    H230042   4.928   0.479   1.623 -0.8541 -0.3730  0.7936
 2803TIP3   OH230043   5.294   1.536   7.674  0.5583  0.3373 -0.6081
 2803TIP3    H130044   5.296   1.455   7.625 -0.4110  0.2411 -0.5211
 2803TIP3    H230045   5.383   1.548   7.706  0.8498 -0.3639 -1.1447
 2804TIP3   OH230046   2.127   1.441   8.336  0.5065  0.3937 -0.2271
 2804TIP3    H130047   2.139   1.348   8.318  1.2727  0.2076  1.0370
 2804TIP3    H230048   2.216   1.473   8.356  0.2207  1.3340 -0.4077
 2805TIP3   OH230049   3.616   2.550   2.154 -0.3487  0.4728 -0.4757
 2805TIP3    H130050   3.560   2.509   2.088  0.2942 -1.5926  0.1943
 2805TIP3    H230051   3.558   2.564   2.229 -0.4525  0.3259 -0.5277
 2806TIP3   OH230052   0.736   5.005   8.888  0.5617  0.0199 -0.1203
 2806TIP3    H130053   0.684   5.049   8.955  1.1298  0.6200 -0.0591
 2806TIP3    H230054   0.690   5.022   8.806  0.0797 -0.3792  0.0631
 2807TIP3   OH230055   5.622   1.390   0.903 -0.1025  0.4990 -0.2442
 2807TIP3    H130056   5.706   1.351   0.878 -0.0883  1.3067 -1.5801
 2807TIP3    H230057   5.565   1.315   0.918  0.8207 -0.0643  0.6243
 2808TIP3   OH230058   4.889   6.170   8.551 -0.2671  0.5311 -0.3816
 2808TIP3    H130059   4.920   6.256   8.524  1.0277  0.5604  1.0395
 2808TIP3    H230060   4.802   6.186   8.586  0.5761  1.6168  1.3985
 2809TIP3   OH230061   3.662   0.775   1.479 -0.1278 -0.2195 -0.0195
 2809TIP3    H130062   3.643   0.726   1.398 -0.5565 -0.9807  0.5310
 2809TIP3    H230063   3.618   0.725   1.548  1.6272 -0.5235  0.9294
 2810TIP3   OH230064   3.947   5.811   0.788  0.0545  0.2768 -0.4986
 2810TIP3    H130065   4.036   5.781   0.810  0.0212 -0.8503 -1.7915
 2810TIP3    H230066   3.959   5.865   0.710 -0.3758  0.3327 -0.5241
 2811TIP3   OH230067   5.011   3.856   0.867  0.3741 -0.0254  0.1612
 2811TIP3    H130068   4.948   3.853   0.938  0.2599 -1.9383  0.0108
 2811TIP3    H230069   5.089   3.813   0.901  0.5382 -0.3903 -0.6548
 2812TIP3   OH230070   3.574   1.684   0.404 -0.5473 -0.1633  0.2899
 2812TIP3    H130071   3.574   1.589   0.414 -0.6006 -0.0825  1.1530
 2812TIP3    H230072   3.594   1.717   0.491 -0.7017  0.6239  0.0352
 2813TIP3   OH230073   5.325   2.590   1.300 -0.0574  0.1947 -0.0172
 2813TIP3    H130074   5.254   2.527   1.299  0.1534 -0.0552  0.4792
 2813TIP3    H230075   5.405   2.536   1.297  0.1186  0.4451  0.1416
 2814TIP3   OH230076   1.056   1.893   8.736 -1.1787  0.5892  0.1132
 2814TIP3    H130077   1.081   1.915   8.826 -0.9232 -0.0678  0.2080
 2814TIP3    H230078   0.971   1.850   8.745 -0.6725 -0.4430  0.1637
 2815TIP3   OH230079   3.398   1.443   1.783 -0.1018 -0.0572  0.5648
 2815TIP3    H130080   3.461   1.374   1.803 -0.2722 -0.0916  1.0079
 2815TIP3    H230081   3.442   1.524   1.810 -0.3107 -0.0985  1.0506
 2816TIP3   OH230082   0.127   3.876   7.432  0.8574  0.5118 -0.0388
 2816TIP3    H130083   0.172   3.805   7.478  2.0032  1.9796  1.1842
 2816TIP3    H230084   0.038   3.843   7.418  0.8186 -0.4467  2.1980
 2817TIP3   OH230085   2.689   4.673   0.666  0.1179 -0.0011  0.4017
 2817TIP3    H130086   2.628   4.627   0.609 -0.8704  0.0845  1.3739
 2817TIP3    H230087   2.769   4.619   0.663 -0.8010 -1.4373  1.0191
 2818TIP3   OH230088   2.620   1.146   0.889  0.0844  0.2493 -0.5942
 2818TIP3    H130089   2.571   1.068   0.863 -0.5480  0.3287  0.3140
 2818TIP3    H230090   2.651   1.126   0.978 -1.0938  1.4780  0.1214
 2819TIP3   OH230091   4.327   2.907   0.011  0.1063  0.1903 -0.0373
 2819TIP3    H130092   4.250   2.962  -0.000 -0.0832 -0.2166 -0.8054
 2819TIP3    H230093   4.387   2.935  -0.059 -0.5833 -1.5489 -1.4011
 2820TIP3   OH230094   6.104   5.879   8.246 -0.0672  0.1353  0.2202
 2820TIP3    H130095   6.172   5.928   8.199  0.4492  1.7990  2.5106
 2820TIP3    H230096   6.087   5.803   8.191  2.9084  0.1801 -0.9728
 2821TIP3   OH230097   4.496   6.672   2.064 -0.2865 -0.6397 -0.0301
 2821TIP3    H130098   4.422   6.619   2.033 -1.4366  0.8515  0.0148
 2821TIP3    H230099   4.467   6.763   2.052  0.5329  0.0092  2.3053
 2822TIP3   OH230100   4.791   4.200   1.642  0.3106  0.3632  0.6442
 2822TIP3    H130101   4.882   4.171   1.630  0.2071  0.5995 -0.9856
 2822TIP3    H230102   4.779   4.268   1.576 -1.5212 -0.7851 -0.2973
 2823TIP3   OH230103   4.235   3.597   1.508  0.8391  0.6513 -0.3139
 2823TIP3    H130104   4.322   3.561   1.522 -0.1141 -1.5388  0.4633
 2823TIP3    H230105   4.183   3.564   1.581 -0.2785  3.3898  0.2655
 2824TIP3   OH230106   2.804   6.219   1.540 -0.3262 -0.1452 -0.1930
 2824TIP3    H130107   2.824   6.205   1.633  1.1687 -0.6587 -0.5715
 2824TIP3    H230108   2.729   6.162   1.523 -0.4967 -0.1918  0.6373
 2825TIP3   OH230109   4.939   0.894   0.799 -0.0635 -0.3091 -0.5266
 2825TIP3    H130110   5.028   0.921   0.818  0.9235 -2.8068 -1.1369
 2825TIP3    H230111   4.897   0.971   0.762  1.3219  1.3824  1.2373
 2826TIP3   OH230112   3.329   5.561   2.231  0.4555  0.0166 -0.3452
 2826TIP3    H130113   3.333   5.493   2.165  0.6408  0.2111 -0.5333
 2826TIP3    H230114   3.359   5.519   2.311 -1.4937 -0.7422  0.0535
 2827TIP3   OH230115   0.574   2.214   0.080 -0.4698 -0.3811 -0.0967
 2827TIP3    H130116   0.647   2.276   0.069 -0.5179 -0.2940  0.0786
 2827TIP3    H230117   0.502   2.252   0.029 -0.8137  0.2193  0.8199
 2828TIP3   OH230118   6.674   4.996   3.104  0.2712 -0.3762  0.3218
 2828TIP3    H130119   6.694   4.914   3.058  1.2002  1.2537 -2.3974
 2828TIP3    H230120   6.612   4.970   3.172 -1.8552 -2.9192 -2.2937
 2829TIP3   OH230121   3.594   2.293   8.918 -0.1870 -0.1290 -0.6115
 2829TIP3    H130122   3.623   2.374   8.875  3.2906 -0.7787  0.2059
 2829TIP3    H230123   3.665   2.272   8.979 -3.1630 -1.2504  2.8315
 2830TIP3   OH230124   2.751   0.469   7.404 -0.3295  0.1573 -0.1474
 2830TIP3    H130125   2.846   0.457   7.406 -0.3516 -0.6420 -1.6983
 2830TIP3    H230126   2.738   0.558   7.372 -0.0791 -0.1777 -1.2169
 2831TIP3   OH230127   1.624   0.558   1.767  0.1664 -0.2338  0.1852
 2831TIP3    H130128   1.649   0.484   1.711 -1.6773 -1.2703  0.6574
 2831TIP3    H230129   1.576   0.518   1.839  0.3981  1.3168  1.2386
 2832TIP3   OH230130   3.886   6.030   8.761  0.2367 -0.0486 -0.4988
 2832TIP3    H130131   3.860   6.119   8.739  0.0874  0.3474  1.1331
 2832TIP3    H230132   3.918   6.036   8.851  0.7101 -1.5542 -0.5406
 2833TIP3   OH230133   3.227   5.178   2.347 -0.0501  0.1064  0.4210
 2833TIP3    H130134   3.232   5.082   2.340 -1.1757 -0.0113  0.9304
 2833TIP3    H230135   3.135   5.195   2.366  0.0439  1.3354 -0.1486
 2834TIP3   OH230136   2.827   5.057   7.566  0.2393 -0.2903  0.5751
 2834TIP3    H130137   2.864   5.000   7.499  0.6907  0.2708  0.3486
 2834TIP3    H230138   2.884   5.133   7.569 -0.8868  0.5971  0.2167
 2835TIP3   OH230139   3.569   5.221   1.988 -0.2025 -0.4106 -0.1185
 2835TIP3    H130140   3.655   5.248   2.021 -0.5696 -0.4034  0.8511
 2835TIP3    H230141   3.512   5.222   2.065 -0.9084 -1.1093 -0.6144
 2836TIP3   OH230142   1.337   0.605   1.501  0.6738 -0.0840 -0.2207
 2836TIP3    H130143   1.249   0.584   1.531  1.3777 -0.7333  1.5837
 2836TIP3    H230144   1.354   0.543   1.430 -0.1707 -0.2194 -0.3110
 2837TIP3   OH230145   6.129   0.861   1.617 -0.4007 -0.5042 -1.0354
 2837TIP3    H130146   6.194   0.898   1.676 -1.3531 -0.3078 -0.0737
 2837TIP3    H230147   6.173   0.855   1.533  1.4853 -2.0878 -0.0364
 2838TIP3   OH230148   2.588   1.712   1.155 -0.1227 -0.0219  0.9994
 2838TIP3    H130149   2.505   1.679   1.121  0.4483 -2.0091  1.3998
 2838TIP3    H230150   2.636   1.740   1.077 -1.0702  1.0166  0.7501
 2839TIP3   OH230151   6.641   0.469   2.400  0.1918 -0.4541 -0.2646
 2839TIP3    H130152   6.696   0.492   2.325 -0.9732  0.5927 -0.8400
 2839TIP3    H230153   6.682   0.514   2.474 -0.7638  1.7159 -0.9760
 2840TIP3   OH230154   3.958   4.553   0.197 -0.0489  0.8207 -0.1811
 2840TIP3    H130155   3.937   4.634   0.151  0.6685  0.5739 -0.9884
 2840TIP3    H230156   3.909   4.486   0.150  1.3093  0.4534 -1.1375
 2841TIP3   OH230157   2.631   1.390   2.987 -0.1133 -0.2865  0.2316
 2841TIP3    H130158   2.619   1.319   2.924 -0.7408  0.1349 -0.1230
 2841TIP3    H230159   2.681   1.350   3.058 -1.5889 -1.4688  0.6644
 2842TIP3   OH230160   4.854   2.779   0.725 -0.4609  0.3571 -0.4428
 2842TIP3    H130161   4.778   2.761   0.780 -0.7557 -0.5960 -1.1213
 2842TIP3    H230162   4.845   2.871   0.700 -0.4885  0.7040  0.8244
 2843TIP3   OH230163   5.792   3.041   0.686 -0.3378 -0.2522 -0.2091
 2843TIP3    H130164   5.828   3.113   0.739 -0.2661  0.2408 -0.9075
 2843TIP3    H230165   5.740   2.990   0.747 -1.0777  0.8740  0.1402
 2844TIP3   OH230166   3.274   5.906   0.365 -0.0557 -0.1044 -0.5614
 2844TIP3    H130167   3.238   5.919   0.453 -1.5919  0.6129 -1.2660
 2844TIP3    H230168   3.360   5.866   0.380  1.1446  2.8373  1.4061
 2845TIP3   OH230169   5.218   5.330   0.785 -0.0027 -0.2815 -0.0096
 2845TIP3    H130170   5.165   5.398   0.827 -0.1670  0.4554 -1.3624
 2845TIP3    H230171   5.203   5.341   0.691  2.0757 -0.4432 -0.4181
 2846TIP3   OH230172   2.594   1.612   7.957  0.4509 -0.2064 -0.0520
 2846TIP3    H130173   2.511   1.574   7.927  0.5857 -1.5471  1.1758
 2846TIP3    H230174   2.660   1.573   7.901  0.2689  1.0837 -1.2254
 2847TIP3   OH230175   5.753   4.222   8.514 -0.5080 -0.4201  0.3360
 2847TIP3    H130176   5.760   4.303   8.565 -2.7121 -1.3037  2.2523
 2847TIP3    H230177   5.670   4.231   8.467 -0.2878 -1.1632 -0.2108
 2848TIP3   OH230178   3.290   4.138   0.286 -0.4921 -0.5143 -0.1911
 2848TIP3    H130179   3.295   4.232   0.298  2.1772 -0.6640  0.6186
 2848TIP3    H230180   3.203   4.122   0.250 -1.2883  2.1513  0.3821
 2849TIP3   OH230181   3.220   3.275   0.542 -0.1765 -0.6948 -0.8722
 2849TIP3    H130182   3.149   3.298   0.602  1.0982 -0.1739  0.5087
 2849TIP3    H230183   3.246   3.358   0.502 -0.5175 -0.9304 -1.6124
 2850TIP3   OH230184   1.133   1.267   8.740  0.4299  0.4530  0.0640
 2850TIP3    H130185   1.138   1.244   8.647  0.6588  1.2913 -0.1370
 2850TIP3    H230186   1.081   1.196   8.779  1.3582 -0.5568 -0.4704
 2851TIP3   OH230187   0.522   3.731   1.792 -0.2356 -0.4241 -0.1412
 2851TIP3    H130188   0.453   3.790   1.822  0.1534 -1.0701  2.2144
 2851TIP3    H230189   0.490   3.698   1.708 -2.0110  0.5592  0.1016
 2852TIP3   OH230190   4.993   6.362   0.966 -0.3948 -0.3144  0.5696
 2852TIP3    H130191   5.089   6.362   0.965 -0.3467  1.4695  0.9358
 2852TIP3    H230192   4.968   6.303   0.895  0.9407 -1.7943  1.2767
 2853TIP3   OH230193   1.421   1.918   8.605 -0.0570  0.1205  0.4513
 2853TIP3    H130194   1.358   1.986   8.630 -0.8493 -0.4038 -0.0532
 2853TIP3    H230195   1.476   1.959   8.538 -0.8897  0.1130 -0.2635
 2854TIP3   OH230196   1.867   4.689   7.140  0.4450 -0.4977 -0.0963
 2854TIP3    H130197   1.773   4.670   7.132  0.4712 -1.1639  1.1049
 2854TIP3    H230198   1.909   4.626   7.082  0.3110 -2.0943  1.4664
 2855TIP3   OH230199   1.128   6.014   1.147 -0.2749  0.1367  0.0572
 2855TIP3    H130200   1.050   6.067   1.164  0.2939  0.6767  1.0399
 2855TIP3    H230201   1.143   6.025   1.053  0.1556  2.2110  0.3249
 2856TIP3   OH230202   5.518   3.666   8.792 -0.3991 -0.3302  0.1358
 2856TIP3    H130203   5.594   3.721   8.776 -0.4053  0.5661  2.6373
 2856TIP3    H230204   5.498   3.626   8.708  1.1303  1.5734 -1.2143
 2857TIP3   OH230205   3.468   0.093   1.914 -0.2429 -0.5276 -0.0814
 2857TIP3    H130206   3.486   0.182   1.885  0.2688 -0.9015 -0.9662
 2857TIP3    H230207   3.521   0.082   1.993  0.3092 -0.2902 -0.4081
 2858TIP3   OH230208   2.350   4.528   1.773  0.0535 -0.2687 -0.0986
 2858TIP3    H130209   2.268   4.575   1.790  0.4222 -0.2517  1.8761
 2858TIP3    H230210   2.378   4.497   1.859  1.9321 -0.6026 -0.7840
 2859TIP3   OH230211   5.012   4.569   7.210 -0.5927  0.2903 -0.2622
 2859TIP3    H130212   4.920   4.598   7.214  0.1669  3.0072 -0.4958
 2859TIP3    H230213   5.029   4.557   7.117 -0.8177 -0.6383 -0.1877
 2860TIP3   OH230214   6.500   4.387   0.474  0.2642  0.1723 -0.3228
 2860TIP3    H130215   6.521   4.394   0.381  1.4692  0.9743 -0.0156
 2860TIP3    H230216   6.513   4.475   0.508  3.1213 -0.7554  1.2369
 2861TIP3   OH230217   4.975   4.096   0.118 -0.3816  0.7404  0.7451
 2861TIP3    H130218   4.903   4.034   0.106 -0.1230  0.2980  1.3820
 2861TIP3    H230219   5.049   4.041   0.145  0.4223  1.0849 -0.6241
 2862TIP3   OH230220   1.627   5.146   8.809  0.6396 -0.3404 -0.1594
 2862TIP3    H130221   1.636   5.199   8.730  0.9014 -2.0500 -1.3500
 2862TIP3    H230222   1.717   5.123   8.833  0.4935 -1.0358 -0.2483
 2863TIP3   OH230223   5.360   6.708   2.542  0.5824 -0.8585  0.3564
 2863TIP3    H130224   5.401   6.748   2.466 -0.6555 -2.9207 -1.5420
 2863TIP3    H230225   5.432   6.692   2.603  1.2845  2.9143  0.7083
 2864TIP3   OH230226   2.818   1.649   7.185  0.3561 -0.2667 -0.3168
 2864TIP3    H130227   2.767   1.729   7.195 -1.6598 -1.4409 -0.6636
 2864TIP3    H230228   2.874   1.647   7.263  0.1799  1.2689 -0.1145
 2865TIP3   OH230229   4.728   2.589   0.359 -0.0509  0.7067 -0.1274
 2865TIP3    H130230   4.639   2.621   0.376  0.3151  1.9907 -0.5260
 2865TIP3    H230231   4.715   2.512   0.304 -0.9912 -0.2635  1.3539
 2866TIP3   OH230232   5.409   4.076   7.780 -0.2245 -0.4418  0.1272
 2866TIP3    H130233   5.454   3.994   7.761  1.0282  0.1265  0.5496
 2866TIP3    H230234   5.333   4.051   7.831 -0.3451 -1.4161 -0.5068
 2867TIP3   OH230235   0.296   3.076   0.790 -0.1392  0.2141  0.0111
 2867TIP3    H130236   0.345   3.025   0.726 -0.6705 -1.1473  0.6537
 2867TIP3    H230237   0.364   3.125   0.838  0.2368  1.5863 -1.7926
 2868TIP3   OH230238   0.911   6.672   0.043  0.3237 -0.1315 -0.3797
 2868TIP3    H130239   0.991   6.710   0.081  0.3374 -0.9277  0.4253
 2868TIP3    H230240   0.918   6.690  -0.051  0.8819  0.8266 -0.1660
 2869TIP3   OH230241   0.291   4.354   0.428 -0.3160 -0.2536 -0.0378
 2869TIP3    H130242   0.238   4.427   0.397  0.1776  0.2776  0.3596
 2869TIP3    H230243   0.309   4.374   0.519  0.0907 -0.7194 -0.0118
 2870TIP3   OH230244   3.621   2.536   8.792 -0.4904 -1.2836 -0.0943
 2870TIP3    H130245   3.583   2.548   8.705 -0.7574 -1.4866 -0.0067
 2870TIP3    H230246   3.684   2.608   8.801  0.5341 -2.0457 -0.9916
 2871TIP3   OH230247   2.881   5.488   2.911 -0.0072 -0.1668 -0.1610
 2871TIP3    H130248   2.936   5.532   2.976 -1.4318 -0.6094  1.4053
 2871TIP3    H230249   2.821   5.555   2.879  1.7065  0.4820 -2.3430
 2872TIP3   OH230250   1.179   2.873   2.188 -0.1951  0.2324 -0.2676
 2872TIP3    H130251   1.212   2.874   2.278  2.0082  1.2585 -1.0399
 2872TIP3    H230252   1.125   2.952   2.182  1.0379  1.0900 -0.3103
 2873TIP3   OH230253   1.616   2.201   8.692 -0.2917  0.2864  0.1653
 2873TIP3    H130254   1.659   2.200   8.607 -0.4536  1.2245  0.0643
 2873TIP3    H230255   1.522   2.198   8.672 -0.5199  3.7217  0.1081
 2874TIP3   OH230256   3.053   3.675   2.601  0.3946  0.1944  0.3273
 2874TIP3    H130257   3.099   3.637   2.676  2.3386  3.9816  1.2887
 2874TIP3    H230258   3.122   3.692   2.537 -0.6650  0.4893 -0.7751
 2875TIP3   OH230259   4.422   1.032   0.822 -0.4606  0.5503 -0.4100
 2875TIP3    H130260   4.412   1.021   0.917 -1.3754 -0.0386 -0.5730
 2875TIP3    H230261   4.488   0.968   0.797 -3.1894 -2.3577 -0.7901
 2876TIP3   OH230262   3.266   6.142   8.211 -0.1109 -0.5241  0.2178
 2876TIP3    H130263   3.349   6.115   8.171 -0.1698  0.1566 -0.3913
 2876TIP3    H230264   3.262   6.236   8.196 -0.9924 -0.5467  0.2636
 2877TIP3   OH230265   5.672   3.794   8.991 -0.8550 -0.4758  0.2565
 2877TIP3    H130266   5.760   3.778   9.026  0.7142  2.9173 -1.5412
 2877TIP3    H230267   5.619   3.723   9.025  2.0577 -1.4395  3.3406
 2878TIP3   OH230268   5.844   2.678   8.882  0.0282 -0.2565 -0.9587
 2878TIP3    H130269   5.831   2.772   8.867 -0.2909 -0.1013  0.1567
 2878TIP3    H230270   5.856   2.641   8.795 -0.1488  0.7759 -1.4397
 2879TIP3   OH230271   2.703   1.223   1.318 -0.1485  0.2959 -0.0237
 2879TIP3    H130272   2.778   1.170   1.292 -0.4660 -0.7140  1.0407
 2879TIP3    H230273   2.707   1.300   1.261  0.9126 -0.3772 -0.8983
 2880TIP3   OH230274   2.564   2.645   2.160  0.1099 -0.4454 -0.2150
 2880TIP3    H130275   2.633   2.688   2.210  0.2034  0.3714 -1.0150
 2880TIP3    H230276   2.483   2.667   2.207  0.2765 -0.4221  0.0633
 2881TIP3   OH230277   4.600   5.682   0.224 -0.0803  0.2206  0.1597
 2881TIP3    H130278   4.677   5.733   0.249  0.9188 -0.9881 -0.3747
 2881TIP3    H230279   4.599   5.686   0.128 -1.9009  1.9360  0.1818
 2882TIP3   OH230280   4.075   4.527   2.364 -0.2586 -0.0873 -0.4262
 2882TIP3    H130281   4.085   4.617   2.334 -2.0242  0.4810  0.5846
 2882TIP3    H230282   4.006   4.490   2.309  1.0499 -1.1327 -1.4259
 2883TIP3   OH230283   5.106   1.093   8.730 -0.0312 -0.0776 -1.3266
 2883TIP3    H130284   5.142   1.068   8.815  1.2380 -0.1150 -1.8561
 2883TIP3    H230285   5.042   1.025   8.710 -1.9174  1.0263  0.5338
 2884TIP3   OH230286   1.765   2.308   0.456 -0.5782  0.8520  0.2518
 2884TIP3    H130287   1.692   2.287   0.515 -1.3771 -2.2858 -1.6456
 2884TIP3    H230288   1.840   2.262   0.493 -1.0148 -0.8817 -0.9047
 2885TIP3   OH230289   2.456   3.991   2.191  0.1466  0.1049 -0.1437
 2885TIP3    H130290   2.436   3.970   2.282  0.0834 -0.0891 -0.2016
 2885TIP3    H230291   2.375   3.972   2.143  0.1418  0.3214 -0.2231
 2886TIP3   OH230292   1.607   5.657   0.567  0.3589 -0.1308 -0.0659
 2886TIP3    H130293   1.529   5.673   0.513 -0.1219 -1.5673  0.1549
 2886TIP3    H230294   1.627   5.742   0.606 -1.6136  0.1058  0.5570
 2887TIP3   OH230295   3.788   1.189   8.199  0.4818 -0.7152 -0.3079
 2887TIP3    H130296   3.726   1.126   8.237  1.3079 -1.1152  0.4084
 2887TIP3    H230297   3.811   1.152   8.115  0.6294 -1.1508 -0.0771
 2888TIP3   OH230298   5.213   1.313   0.997  0.6345  0.3096  0.6211
 2888TIP3    H130299   5.128   1.269   1.000  0.3833  0.5337 -1.4454
 2888TIP3    H230300   5.208   1.380   1.065 -1.8017  1.8930 -0.9595
 2889TIP3   OH230301   5.180   3.397   1.300  0.9476 -0.1627 -0.9102
 2889TIP3    H130302   5.227   3.329   1.349  0.6184  0.8766  0.9725
 2889TIP3    H230303   5.087   3.376   1.314  0.8311  0.9284  0.1783
 2890TIP3   OH230304   3.080   3.317   2.808 -0.1595  0.0413  0.1945
 2890TIP3    H130305   3.026   3.349   2.881 -0.7815  0.0099 -0.2414
 2890TIP3    H230306   3.149   3.266   2.850 -0.3287  0.2838  0.7806
 2891TIP3   OH230307   0.781   6.204   2.506 -0.1102  0.1114 -0.4779
 2891TIP3    H130308   0.803   6.161   2.424 -0.9224 -1.4624  0.0894
 2891TIP3    H230309   0.734   6.138   2.557 -0.4223  1.3215  0.9027
 2892TIP3   OH230310   2.160   2.443   1.423 -0.3868 -0.1808  0.3160
 2892TIP3    H130311   2.101   2.460   1.350  1.3975  0.1940 -1.1324
 2892TIP3    H230312   2.199   2.528   1.444  1.4456 -0.7569 -0.4820
 2893TIP3   OH230313   1.861   0.403   9.064 -0.0246 -0.3908  0.2888
 2893TIP3    H130314   1.913   0.432   8.989 -1.0653  0.0596 -0.2725
 2893TIP3    H230315   1.787   0.463   9.067 -0.8977 -1.4590  0.6367
 2894TIP3   OH230316   4.473   6.196   2.010 -0.0882 -0.0969  0.3940
 2894TIP3    H130317   4.393   6.192   2.062  0.7864  1.9653  2.0247
 2894TIP3    H230318   4.528   6.261   2.054  1.7100 -0.0056 -1.7803
 2895TIP3   OH230319   5.982   3.461   2.957  0.2789  0.4152  0.3396
 2895TIP3    H130320   5.928   3.382   2.966  0.3940  0.2584 -0.3203
 2895TIP3    H230321   6.021   3.454   2.870 -1.0555  2.0137 -0.4526
 2896TIP3   OH230322   5.518   4.222   0.939 -0.1555 -0.3427 -0.5536
 2896TIP3    H130323   5.428   4.244   0.917 -0.2898  0.4525  0.7114
 2896TIP3    H230324   5.557   4.304   0.968  1.6716 -0.1683 -3.1641
 2897TIP3   OH230325   2.371   4.101   1.881  0.1297 -0.1949  0.8611
 2897TIP3    H130326   2.314   4.126   1.808  1.8373 -0.4175 -0.6103
 2897TIP3    H230327   2.322   4.034   1.928 -1.4554  0.7225  0.5872
 2898TIP3   OH230328   6.463   0.459   0.492  0.2540  0.3028 -0.6544
 2898TIP3    H130329   6.461   0.385   0.554  0.0987  1.7302  1.1095
 2898TIP3    H230330   6.471   0.417   0.406  1.4141 -1.7379  0.3678
 2899TIP3   OH230331   4.050   5.995   8.452 -0.3510 -0.0713  0.0869
 2899TIP3    H130332   4.027   5.907   8.422 -0.4021 -0.3112  0.8143
 2899TIP3    H230333   3.966   6.035   8.477 -0.6788  1.0874 -2.4966
 2900TIP3   OH230334   2.192   4.587   2.246  0.1483  0.6514  0.0972
 2900TIP3    H130335   2.142   4.618   2.322 -0.8007 -2.0456  0.6611
 2900TIP3    H230336   2.140   4.615   2.171 -1.0441 -0.1499  0.6014
 2901TIP3   OH230337   5.911   0.110   8.576 -0.8241  0.3142  0.0436
 2901TIP3    H130338   5.833   0.079   8.621 -0.8719 -0.8993 -0.8136
 2901TIP3    H230339   5.974   0.038   8.585 -0.4588  0.5076 -0.8537
 2902TIP3   OH230340   5.577   4.427   8.041  0.3131  0.7109  0.0814
 2902TIP3    H130341   5.486   4.400   8.040  0.7399 -0.8099  0.5700
 2902TIP3    H230342   5.587   4.479   7.961 -1.0877  1.3280  0.2885
 2903TIP3   OH230343   0.743   1.850   0.548  0.3848 -0.2015  0.0577
 2903TIP3    H130344   0.666   1.826   0.496  0.0688  0.1053  0.3786
 2903TIP3    H230345   0.737   1.946   0.557  1.3493 -0.0446 -0.7772
 2904TIP3   OH230346   2.332   1.552   2.650 -0.4256  0.2012 -0.1282
 2904TIP3    H130347   2.374   1.530   2.734  0.4092  1.0825 -0.2958
 2904TIP3    H230348   2.327   1.647   2.650 -0.0135  0.2357 -1.2700
 2905TIP3   OH230349   4.798   0.671   1.272  0.1604  0.5563 -0.2266
 2905TIP3    H130350   4.716   0.705   1.309 -0.2825 -0.9481  0.2893
 2905TIP3    H230351   4.808   0.584   1.313  1.7795  0.5163 -0.6311
 2906TIP3   OH230352   0.253   6.166   8.970  0.3387 -0.2093  0.0266
 2906TIP3    H130353   0.318   6.236   8.974  1.4003 -1.1264 -0.6459
 2906TIP3    H230354   0.216   6.162   9.058  1.7620 -0.2075  0.6440
 2907TIP3   OH230355   1.243   6.397   1.614 -0.3190  0.4424 -0.3679
 2907TIP3    H130356   1.338   6.400   1.607 -0.1507  0.5110  1.4005
 2907TIP3    H230357   1.222   6.304   1.611  0.0743  0.2450  1.5825
 2908TIP3   OH230358   6.314   5.441   1.473 -0.2794 -0.0660 -0.5592
 2908TIP3    H130359   6.220   5.440   1.493 -0.2494 -0.0693 -0.4176
 2908TIP3    H230360   6.356   5.411   1.553 -0.0016  2.3203  0.2706
 2909TIP3   OH230361   2.285   1.059   0.219 -0.6274  0.2731  0.3401
 2909TIP3    H130362   2.295   0.968   0.246 -2.3999 -0.0175  0.1301
 2909TIP3    H230363   2.309   1.059   0.126 -0.0983  0.1437  0.4711
 2910TIP3   OH230364   2.164   5.392   0.307  0.4350  0.3562 -0.2898
 2910TIP3    H130365   2.161   5.333   0.383 -0.6470  0.8083  0.0331
 2910TIP3    H230366   2.195   5.336   0.235  0.3327 -0.3667  0.2128
 2911TIP3   OH230367   0.921   0.455   1.889  0.7080 -0.4310  0.2809
 2911TIP3    H130368   0.853   0.519   1.912  1.0210  0.6126 -1.5061
 2911TIP3    H230369   0.884   0.370   1.914 -0.3557  0.3146  1.3019
 2912TIP3   OH230370   4.415   0.609   2.462  0.3884 -0.4465  0.7342
 2912TIP3    H130371   4.437   0.565   2.380 -0.7296  0.5312 -0.1257
 2912TIP3    H230372   4.442   0.547   2.530  2.4271 -0.7947 -0.3055
 2913TIP3   OH230373   4.883   1.561   2.635  0.1584 -0.2963 -0.8034
 2913TIP3    H130374   4.865   1.496   2.703  0.6890 -0.3005 -0.6611
 2913TIP3    H230375   4.807   1.619   2.636 -0.0667 -0.5941 -0.5551
 2914TIP3   OH230376   0.461   3.083   1.390 -0.3666  0.0678  0.1723
 2914TIP3    H130377   0.505   3.005   1.355 -0.6153  0.3266 -0.7571
 2914TIP3    H230378   0.368   3.070   1.369 -0.3602  0.7881 -0.3513
 2915TIP3   OH230379   6.188   3.931   9.005  0.0800 -0.0279 -0.2835
 2915TIP3    H130380   6.266   3.981   9.030 -0.6786  0.4335  1.2187
 2915TIP3    H230381   6.158   3.891   9.086 -1.7360  0.4764 -0.6676
 2916TIP3   OH230382   3.059   3.561   8.366  0.3988  0.0999 -0.1236
 2916TIP3    H130383   2.974   3.526   8.393  0.4037 -0.0315 -0.2737
 2916TIP3    H230384   3.066   3.646   8.410  0.7205 -0.4242  0.8620
 2917TIP3   OH230385   5.377   1.275   2.070 -0.6879 -0.0420  0.1858
 2917TIP3    H130386   5.345   1.360   2.040  0.3193  0.4842  0.5351
 2917TIP3    H230387   5.398   1.227   1.990 -1.2717  0.0308 -0.0124
 2918TIP3   OH230388   1.088   6.434   9.191  0.9172 -0.6601  0.1988
 2918TIP3    H130389   1.030   6.388   9.252 -2.2603  0.1610 -1.9636
 2918TIP3    H230390   1.099   6.521   9.230 -0.0348 -0.5581  0.2709
 2919TIP3   OH230391   1.238   2.598   8.232 -0.3731 -0.0652 -0.1133
 2919TIP3    H130392   1.300   2.670   8.240 -1.1975  0.5111  2.0033
 2919TIP3    H230393   1.225   2.587   8.138  1.4791  1.0239 -0.5478
 2920TIP3   OH230394   2.770   5.269   1.941  0.1222 -1.4001 -0.2268
 2920TIP3    H130395   2.739   5.337   1.882  0.5306  0.2647  1.3652
 2920TIP3    H230396   2.693   5.244   1.993  0.7891  1.2190  2.2825
 2921TIP3   OH230397   6.511   5.347   8.293 -0.9012 -0.0654 -0.2142
 2921TIP3    H130398   6.487   5.335   8.384 -0.5912  1.4927  0.1096
 2921TIP3    H230399   6.441   5.400   8.256 -0.1559  0.8237 -0.3986
 2922TIP3   OH230400   4.671   4.182   0.742 -0.1863 -0.7757 -0.1353
 2922TIP3    H130401   4.740   4.235   0.703  0.4883 -1.8463 -0.4526
 2922TIP3    H230402   4.642   4.233   0.817 -1.4056  1.2568 -1.8799
 2923TIP3   OH230403   1.291   4.121   1.848 -0.5714  0.1357 -0.2969
 2923TIP3    H130404   1.316   4.148   1.759  4.2267  0.6791  0.8991
 2923TIP3    H230405   1.267   4.203   1.892  0.8714  0.5172 -0.1625
 2924TIP3   OH230406   3.363   3.512   0.038 -0.2421  0.1951  0.5310
 2924TIP3    H130407   3.318   3.431   0.014  0.2064 -0.3267  1.3745
 2924TIP3    H230408   3.389   3.498   0.129  0.3915  1.0383  0.4873
 2925TIP3   OH230409   4.313   6.053   8.552 -0.2408 -0.1931 -0.4584
 2925TIP3    H130410   4.226   6.036   8.518 -1.0490  0.5566  1.1208
 2925TIP3    H230411   4.337   5.973   8.599 -0.9178  0.2932  0.7430
 2926TIP3   OH230412   0.638   6.361   0.746  0.1685  0.3949  0.0909
 2926TIP3    H130413   0.639   6.267   0.763  0.7611  0.6505  1.6024
 2926TIP3    H230414   0.720   6.393   0.783 -0.5416  1.6714  0.6145
 2927TIP3   OH230415   2.380   0.939   9.210  0.1186 -0.2419 -0.4174
 2927TIP3    H130416   2.418   0.972   9.128 -0.6567  1.2339 -0.2069
 2927TIP3    H230417   2.417   0.851   9.219 -0.7282 -0.9532 -3.0088
 2928TIP3   OH230418   1.681   6.573   3.012  0.0088 -0.3675  0.0260
 2928TIP3    H130419   1.729   6.584   3.094 -1.5146 -1.2953  1.1243
 2928TIP3    H230420   1.656   6.662   2.987 -0.2340 -0.1172  1.0715
 2929TIP3   OH230421   5.848   5.888   7.456  0.3507 -0.1909 -0.3173
 2929TIP3    H130422   5.921   5.943   7.427  0.9948 -1.5018 -1.2866
 2929TIP3    H230423   5.826   5.922   7.543 -0.0566  2.3410 -1.3201
 2930TIP3   OH230424   4.318   2.076   0.815 -0.1174 -1.0446 -0.0977
 2930TIP3    H130425   4.382   2.093   0.745 -0.8142 -2.8763 -1.2593
 2930TIP3    H230426   4.240   2.124   0.788  0.7844  1.5680  1.5496
 2931TIP3   OH230427   0.910   4.674   0.760 -0.0546 -0.2156 -0.0565
 2931TIP3    H130428   0.836   4.665   0.819 -1.0376 -1.1042 -1.3556
 2931TIP3    H230429   0.892   4.612   0.689  0.7118  1.3012 -1.6534
 2932TIP3   OH230430   0.943   3.487   0.627  0.1756  0.0984 -0.2467
 2932TIP3    H130431   0.964   3.580   0.631 -0.9690  0.3321  2.1285
 2932TIP3    H230432   0.850   3.484   0.604 -0.3493 -0.2888  1.6963
 2933TIP3   OH230433   5.223   6.221   7.503 -0.3643  0.1582  0.5129
 2933TIP3    H130434   5.132   6.189   7.501 -0.4439  0.3768 -1.4056
 2933TIP3    H230435   5.242   6.243   7.412  0.8568  2.3196  1.2263
 2934TIP3   OH230436   6.507   1.290   1.587 -0.0415 -0.6504  0.3892
 2934TIP3    H130437   6.457   1.208   1.596 -0.6587 -0.2157  0.9531
 2934TIP3    H230438   6.576   1.268   1.523  0.3030 -1.8394  1.1289
 2935TIP3   OH230439   1.522   4.231   0.318 -0.5262  0.2061 -0.5234
 2935TIP3    H130440   1.539   4.324   0.333 -0.7963  0.1226  0.3295
 2935TIP3    H230441   1.606   4.188   0.337 -0.5748  0.2086 -0.3084
 2936TIP3   OH230442   6.186   4.617   2.589 -0.3274 -0.3083 -0.4854
 2936TIP3    H130443   6.130   4.549   2.628 -0.9266 -0.4704 -1.5785
 2936TIP3    H230444   6.232   4.571   2.519 -0.5120  0.3443 -1.0369
 2937TIP3   OH230445   0.333   1.056   0.656 -0.6918  0.2285  0.3597
 2937TIP3    H130446   0.376   1.090   0.734  2.3116 -0.3425 -0.9084
 2937TIP3    H230447   0.250   1.103   0.651 -0.6512  0.8005  3.4509
 2938TIP3   OH230448   2.981   5.244   2.780  0.7135  0.3947 -0.0143
 2938TIP3    H130449   2.950   5.318   2.833 -1.7775  0.9211 -1.9629
 2938TIP3    H230450   3.070   5.227   2.811  1.0824  3.6598  1.1113
 2939TIP3   OH230451   2.010   0.781   1.629  0.4756 -0.0183  0.0051
 2939TIP3    H130452   2.093   0.783   1.581  1.0784  0.0579  1.0358
 2939TIP3    H230453   1.998   0.689   1.653 -1.8573 -0.8947 -3.6715
 2940TIP3   OH230454   6.537   3.970   7.755 -0.4477 -0.1695  0.5001
 2940TIP3    H130455   6.518   3.883   7.719 -0.2404  0.3587 -0.9182
 2940TIP3    H230456   6.617   3.997   7.711 -0.7859  0.9492  0.5582
 2941TIP3   OH230457   1.894   4.932   1.175 -0.4529  0.4498 -0.1645
 2941TIP3    H130458   1.932   4.897   1.256  1.1740  0.5376 -0.8636
 2941TIP3    H230459   1.809   4.888   1.168 -0.4308  0.0940  1.3361
 2942TIP3   OH230460   6.316   1.403   3.248  0.3478  0.6579  0.1827
 2942TIP3    H130461   6.290   1.492   3.223  0.1212  0.7476  0.7241
 2942TIP3    H230462   6.258   1.346   3.198  0.2348  0.8226  0.1227
 2943TIP3   OH230463   4.236   2.167   8.580  0.0682  0.1156 -0.5863
 2943TIP3    H130464   4.301   2.108   8.619  0.0219 -0.4922 -1.3924
 2943TIP3    H230465   4.285   2.218   8.516 -0.4850 -1.4531 -2.3552
 2944TIP3   OH230466   4.214   5.356   1.434 -0.5085  0.0757  0.1603
 2944TIP3    H130467   4.281   5.288   1.446 -1.3544 -0.7090  0.6120
 2944TIP3    H230468   4.148   5.335   1.500 -2.4502 -0.7175 -1.9167
 2945TIP3   OH230469   2.338   6.118   1.605  0.8053 -0.2538 -0.1688
 2945TIP3    H130470   2.338   6.168   1.523  1.1774 -2.5482 -1.6386
 2945TIP3    H230471   2.383   6.175   1.667  1.1173  1.2898 -1.7202
 2946TIP3   OH230472   0.136   0.495   3.000  0.0452  0.4787 -0.4272
 2946TIP3    H130473   0.156   0.581   3.038 -0.4695  0.1245  0.6593
 2946TIP3    H230474   0.089   0.448   3.069  0.6795 -0.8348 -0.8688
 2947TIP3   OH230475   6.684   1.889   0.942  0.3939 -0.3214 -1.0679
 2947TIP3    H130476   6.771   1.853   0.960  0.7580  0.1184 -1.8973
 2947TIP3    H230477   6.639   1.819   0.894  0.3411 -0.4922 -0.7718
 2948TIP3   OH230478   0.920   5.872   8.079  0.0026 -0.0857  0.3231
 2948TIP3    H130479   0.829   5.851   8.058 -0.7093  1.7845  1.2418
 2948TIP3    H230480   0.966   5.867   7.995 -0.8221 -1.5186 -0.0829
 2949TIP3   OH230481   0.060   5.051   2.279 -0.0921  0.4348  0.5068
 2949TIP3    H130482   0.022   4.968   2.308  0.9744 -0.1128  0.3628
 2949TIP3    H230483   0.053   5.109   2.355 -0.2967  0.0307  0.7963
 2950TIP3   OH230484   3.727   4.880   1.327 -0.1417 -0.2136 -0.5259
 2950TIP3    H130485   3.787   4.806   1.327 -1.4517 -1.3640 -2.5381
 2950TIP3    H230486   3.641   4.841   1.309 -1.2544  1.5524  0.6061
 2951TIP3   OH230487   0.746   0.864   9.046  0.0778  0.3640  0.2698
 2951TIP3    H130488   0.755   0.769   9.049  0.7542  0.2846 -2.1115
 2951TIP3    H230489   0.724   0.883   8.954 -0.4797  2.4732  0.7829
 2952TIP3   OH230490   5.212   1.589   1.126 -0.6254  0.1902 -0.1718
 2952TIP3    H130491   5.213   1.580   1.221  0.9056 -3.0213 -0.3604
 2952TIP3    H230492   5.292   1.638   1.106 -0.0870 -0.5476  0.1432
 2953TIP3   OH230493   2.276   2.160   2.176 -0.0844  0.0525 -0.4933
 2953TIP3    H130494   2.239   2.121   2.096  1.2635  0.7294 -1.4893
 2953TIP3    H230495   2.361   2.116   2.187  0.1240  0.5766  0.0709
 2954TIP3   OH230496   3.081   0.227   0.046 -0.1999 -0.6592 -0.5753
 2954TIP3    H130497   3.097   0.294   0.113  0.6587 -0.3823 -1.0481
 2954TIP3    H230498   3.151   0.163   0.058 -0.1458 -0.7032 -1.0865
 2955TIP3   OH230499   0.089   6.611   8.297  0.4884  0.1828 -0.1437
 2955TIP3    H130500   0.036   6.543   8.337  1.3122 -0.1530  0.4027
 2955TIP3    H230501   0.033   6.648   8.228  0.5020 -1.9320 -1.3578
 2956TIP3   OH230502   5.474   2.706   0.119 -0.0257 -0.2247  0.0995
 2956TIP3    H130503   5.527   2.710   0.040 -1.2922 -0.4629 -0.7918
 2956TIP3    H230504   5.482   2.616   0.149  0.3619 -0.1653  0.1737
 2957TIP3   OH230505   1.912   3.261   1.243  0.6225 -0.1386  0.8497
 2957TIP3    H130506   1.912   3.356   1.238  0.9645 -0.1936 -0.3939
 2957TIP3    H230507   2.003   3.237   1.262  0.3645 -0.1902  2.0971
 2958TIP3   OH230508   2.338   4.474   0.403 -0.7218  0.3422  0.6621
 2958TIP3    H130509   2.273   4.425   0.455  1.4718 -1.6954  1.6847
 2958TIP3    H230510   2.292   4.494   0.321 -2.9606 -0.0407  1.7282
 2959TIP3   OH230511   6.402   6.452   3.005  0.5928 -0.2467 -0.4699
 2959TIP3    H130512   6.445   6.517   3.061  0.3196  1.2408 -1.8993
 2959TIP3    H230513   6.474   6.412   2.956  0.6687 -0.2109 -0.3875
 2960TIP3   OH230514   5.848   2.950   8.870  0.0852  0.2776  0.2244
 2960TIP3    H130515   5.846   3.000   8.952 -0.7445  0.9096 -0.1620
 2960TIP3    H230516   5.809   3.009   8.806  1.8578  0.2653 -0.9129
 2961TIP3   OH230517   2.993   1.297   7.979 -0.0425 -0.1257 -0.5838
 2961TIP3    H130518   3.030   1.243   7.909  2.1072  0.8884 -0.3017
 2961TIP3    H230519   3.067   1.319   8.034 -1.3894  0.6323  1.0048
 2962TIP3   OH230520   0.032   3.847   1.809  0.3129 -0.4970 -0.1557
 2962TIP3    H130521   0.055   3.940   1.807 -0.3838 -0.3268 -0.4559
 2962TIP3    H230522   0.096   3.808   1.869  1.7405 -0.1352 -1.3672
 2963TIP3   OH230523   4.090   0.841   8.247 -0.2148 -0.8561 -0.2823
 2963TIP3    H130524   4.123   0.899   8.178 -3.8174  2.5894  0.4934
 2963TIP3    H230525   4.162   0.836   8.310  1.1533  0.6697 -1.6250
 2964TIP3   OH230526   5.992   1.330   1.379  0.5057 -0.0322 -0.2666
 2964TIP3    H130527   6.042   1.346   1.299  0.9477 -2.3714 -0.5234
 2964TIP3    H230528   5.973   1.417   1.413 -0.2331  1.1017 -3.2250
 2965TIP3   OH230529   6.092   0.408   0.282  0.5188  0.2128  0.7149
 2965TIP3    H130530   6.151   0.454   0.223  0.1803  0.3483  0.4765
 2965TIP3    H230531   6.073   0.471   0.351  0.8369  0.0884  0.9162
 2966TIP3   OH230532   3.327   1.658   0.979 -0.0403 -0.2829 -0.1479
 2966TIP3    H130533   3.362   1.578   0.940  1.6638 -2.5971  5.1714
 2966TIP3    H230534   3.232   1.648   0.975  0.1407 -2.3546 -0.0885
 2967TIP3   OH230535   5.523   2.772   1.049 -0.2703  0.3308  0.2829
 2967TIP3    H130536   5.493   2.689   1.086 -1.4106  1.2941  1.6113
 2967TIP3    H230537   5.618   2.766   1.053 -0.2692 -1.5313 -1.1252
 2968TIP3   OH230538   4.017   1.324   8.169 -0.5291  0.1747 -0.1739
 2968TIP3    H130539   3.988   1.414   8.180  1.2198  0.9446 -1.3591
 2968TIP3    H230540   3.937   1.272   8.173 -1.4679  1.6503  1.5599
 2969TIP3   OH230541   1.630   3.014   8.181 -0.1117  0.3285  0.2239
 2969TIP3    H130542   1.673   3.059   8.254 -0.2330 -1.7472  1.6737
 2969TIP3    H230543   1.663   2.924   8.185 -3.4781 -1.0633  0.6123
 2970TIP3   OH230544   2.789   0.231   1.654 -0.1540  0.4216 -0.2866
 2970TIP3    H130545   2.772   0.217   1.747 -0.1481 -0.6372 -0.4280
 2970TIP3    H230546   2.861   0.294   1.652  1.1986 -1.0057  0.4974
 2971TIP3   OH230547   5.996   4.600   9.080  0.3984  0.0500  0.3342
 2971TIP3    H130548   5.964   4.641   9.160 -0.7207  0.6153 -0.3783
 2971TIP3    H230549   5.918   4.588   9.025  1.0039 -1.1351 -0.3283
 2972TIP3   OH230550   6.130   0.979   2.035  0.1201  0.2335  0.4272
 2972TIP3    H130551   6.076   1.039   1.983  1.4222  0.2009 -1.0214
 2972TIP3    H230552   6.068   0.912   2.065 -1.3124  2.0834  1.8502
 2973TIP3   OH230553   2.721   0.199   2.312  0.1606 -0.1280 -0.3623
 2973TIP3    H130554   2.752   0.281   2.273  0.1578  0.6247  1.1714
 2973TIP3    H230555   2.677   0.225   2.392  0.9106 -1.6991  0.6153
 2974TIP3   OH230556   1.678   0.157   2.416 -0.0499 -0.9211 -0.3138
 2974TIP3    H130557   1.646   0.219   2.351 -2.0196 -2.5071 -0.9853
 2974TIP3    H230558   1.692   0.076   2.367  4.5183 -0.6194  0.1048
 2975TIP3   OH230559   1.051   0.546   0.666 -0.3301  0.4253  0.1072
 2975TIP3    H130560   0.987   0.477   0.649  1.6044 -2.1488  2.3812
 2975TIP3    H230561   1.064   0.589   0.581 -4.4268  0.6857 -0.5936
 2976TIP3   OH230562   3.833   4.724   0.983 -0.4730  0.1562  0.0629
 2976TIP3    H130563   3.831   4.773   0.901  1.1562  0.5059  0.2123
 2976TIP3    H230564   3.788   4.781   1.046 -0.5113  0.4904 -0.2632
 2977TIP3   OH230565   1.479   0.720   3.102  0.2327 -0.3442 -0.7959
 2977TIP3    H130566   1.437   0.778   3.166 -0.3098  0.1385 -1.5813
 2977TIP3    H230567   1.573   0.735   3.115  0.1652 -0.8582  0.4366
 2978TIP3   OH230568   4.750   3.207   1.732 -0.1126 -0.1504 -0.1403
 2978TIP3    H130569   4.761   3.262   1.809  0.0787  1.3457 -1.1762
 2978TIP3    H230570   4.666   3.235   1.694 -0.5948 -1.4136 -0.0729
 2979TIP3   OH230571   2.458   2.071   7.891  0.7161  0.4912 -0.2626
 2979TIP3    H130572   2.475   2.159   7.860 -2.3602  0.7627 -1.5603
 2979TIP3    H230573   2.367   2.053   7.865  1.1993 -3.0664 -0.0736
 2980TIP3   OH230574   0.265   4.322   0.923  0.1183  0.1592  0.0367
 2980TIP3    H130575   0.223   4.331   1.009 -1.3992  1.1149 -0.7491
 2980TIP3    H230576   0.279   4.228   0.913 -0.0600 -0.0084  1.1429
 2981TIP3   OH230577   4.587   1.483   1.369  0.0195  0.0564 -0.1050
 2981TIP3    H130578   4.616   1.407   1.418 -0.6629  0.2227  0.5823
 2981TIP3    H230579   4.498   1.461   1.341  0.5676 -0.2397 -1.7168
 2982TIP3   OH230580   2.146   3.134   0.706 -0.0769  0.0860 -0.5077
 2982TIP3    H130581   2.101   3.182   0.776  0.4598 -0.3727  0.1574
 2982TIP3    H230582   2.171   3.202   0.644 -1.3718  0.4016 -0.7311
 2983TIP3   OH230583   0.696   1.571   8.364 -0.0048  0.1588 -0.6516
 2983TIP3    H130584   0.602   1.553   8.353  0.2717 -2.1319  0.2634
 2983TIP3    H230585   0.731   1.563   8.275 -0.5716  0.4937 -0.9179
 2984TIP3   OH230586   2.913   1.408   0.440 -0.2890  0.2693 -0.6460
 2984TIP3    H130587   2.895   1.501   0.458 -0.7095  0.0093  0.3190
 2984TIP3    H230588   2.865   1.391   0.359 -0.3228  0.8569 -0.7592
 2985TIP3   OH230589   5.188   3.859   9.102 -0.1004  0.1390  0.3260
 2985TIP3    H130590   5.126   3.813   9.045  1.0453 -2.5566  1.0937
 2985TIP3    H230591   5.220   3.932   9.049  0.6690 -2.0380 -2.4364
 2986TIP3   OH230592   6.274   3.714   0.750 -0.2783  0.6728  0.0401
 2986TIP3    H130593   6.312   3.627   0.761 -0.7242  0.2692 -1.3659
 2986TIP3    H230594   6.348   3.770   0.729  0.1834  0.9089  2.1008
 2987TIP3   OH230595   1.429   0.357   8.596  0.0668  0.4673  0.3247
 2987TIP3    H130596   1.400   0.428   8.652 -0.5949  0.8931 -0.5348
 2987TIP3    H230597   1.391   0.278   8.636 -1.1491  0.8639  0.0030
 2988TIP3   OH230598   6.017   4.171   2.210  0.2231 -0.0214 -0.4412
 2988TIP3    H130599   6.089   4.185   2.148  0.0463 -1.1124 -0.9133
 2988TIP3    H230600   6.027   4.242   2.274  1.9066 -0.3084 -0.3201
 2989TIP3   OH230601   4.774   1.708   1.710  0.4211 -0.7725  0.4987
 2989TIP3    H130602   4.680   1.703   1.730  0.6700 -1.5235  1.5363
 2989TIP3    H230603   4.791   1.631   1.655  0.1419  0.2124 -1.0407
 2990TIP3   OH230604   4.049   1.895   0.829  0.4364  0.1072 -0.1194
 2990TIP3    H130605   4.130   1.901   0.879  0.3911  0.6942 -0.1126
 2990TIP3    H230606   4.076   1.867   0.742  0.6410  0.2910 -0.1141
 2991TIP3   OH230607   4.886   4.857   1.070 -0.2678  0.4845 -0.4327
 2991TIP3    H130608   4.894   4.892   1.159 -1.7420  1.1077 -0.5023
 2991TIP3    H230609   4.820   4.788   1.077  1.0708 -0.8539 -0.6975
 2992TIP3   OH230610   6.291   5.705   0.784 -0.6446 -0.4641 -0.3012
 2992TIP3    H130611   6.226   5.747   0.727  0.5088  0.5913 -0.8902
 2992TIP3    H230612   6.262   5.727   0.873 -1.3613 -0.4345 -0.5328
 2993TIP3   OH230613   6.273   0.010   1.981  0.1067 -0.0364  0.2644
 2993TIP3    H130614   6.365   0.012   1.956  0.4142  0.6031  1.3766
 2993TIP3    H230615   6.257   0.095   2.021 -1.2861  0.3157 -0.9343
 2994TIP3   OH230616   3.002   2.531   2.060 -0.2040 -0.2595  0.3143
 2994TIP3    H130617   2.981   2.570   2.145  0.0108 -1.3537  0.8911
 2994TIP3    H230618   3.092   2.558   2.043  0.3000 -1.2801  1.1940
 2995TIP3   OH230619   2.721   3.426   7.569 -1.1245  0.1801  0.1315
 2995TIP3    H130620   2.630   3.399   7.553 -1.3280  0.9463 -0.0554
 2995TIP3    H230621   2.747   3.470   7.488 -0.9824  0.9837  0.5962
 2996TIP3   OH230622   6.150   5.897   8.702 -0.4592  0.1019  0.0957
 2996TIP3    H130623   6.215   5.827   8.692  0.0178  0.6029 -0.3286
 2996TIP3    H230624   6.070   5.860   8.665 -0.0002  0.0847 -0.9039
 2997TIP3   OH230625   6.339   6.290   1.787 -0.0198 -0.2969 -0.2799
 2997TIP3    H130626   6.257   6.337   1.800  0.0676 -0.0963 -0.4373
 2997TIP3    H230627   6.377   6.283   1.874 -0.0738 -0.1467 -0.2441
 2998TIP3   OH230628   6.036   5.652   0.421  0.5234 -0.1382  0.4505
 2998TIP3    H130629   6.120   5.606   0.417  0.2634 -0.6218  0.4605
 2998TIP3    H230630   5.975   5.588   0.457  0.1072  0.1524  0.2733
 2999TIP3   OH230631   1.457   1.693   8.446 -0.1492 -0.1219  0.5390
 2999TIP3    H130632   1.449   1.753   8.521  1.5702  0.4840  0.2829
 2999TIP3    H230633   1.541   1.715   8.407  0.0212 -1.9812 -0.2374
 3000TIP3   OH230634   2.208   2.091   1.893  0.5165  0.6133  0.0068
 3000TIP3    H130635   2.278   2.028   1.877  0.2452  0.1456  0.6428
 3000TIP3    H230636   2.136   2.063   1.836  0.0857 -0.1743  0.9131
 3001TIP3   OH230637   0.383   2.939   1.939 -0.0173  0.0019  0.1316
 3001TIP3    H130638   0.422   2.867   1.890 -0.5091  0.5230 -1.0715
 3001TIP3    H230639   0.458   2.986   1.977  0.3595 -0.5042  0.0131
 3002TIP3   OH230640   1.364   0.884   3.287  0.5008 -0.3451 -0.2528
 3002TIP3    H130641   1.330   0.833   3.361  0.0503 -1.2610 -1.0611
 3002TIP3    H230642   1.293   0.943   3.264  0.2160 -0.8302 -0.6419
 3003TIP3   OH230643   1.222   3.892   8.654 -0.3819  0.4581 -0.1081
 3003TIP3    H130644   1.252   3.979   8.628 -1.0567  0.4389 -0.9827
 3003TIP3    H230645   1.248   3.835   8.582 -0.2349 -0.0139  0.3131
 3004TIP3   OH230646   0.483   3.303   1.857 -0.3608 -0.0017  0.2368
 3004TIP3    H130647   0.474   3.253   1.776  0.1204  0.5527 -0.1628
 3004TIP3    H230648   0.572   3.283   1.887  0.0350  1.0298 -0.2145
 3005TIP3   OH230649   5.052   3.746   7.412 -0.0460 -0.5572 -0.5097
 3005TIP3    H130650   5.030   3.744   7.505  1.5720  1.0959 -0.0377
 3005TIP3    H230651   4.999   3.676   7.373 -0.0448 -1.9179  1.7816
 3006TIP3   OH230652   4.473   0.529   2.217 -0.2853  0.6165 -0.0344
 3006TIP3    H130653   4.399   0.560   2.165 -0.6385  0.9908  0.6796
 3006TIP3    H230654   4.511   0.458   2.164 -1.5278 -0.0027 -0.1481
 3007TIP3   OH230655   5.549   1.655   1.929  0.1721 -0.0529 -0.4444
 3007TIP3    H130656   5.572   1.722   1.994 -0.0924 -0.0435 -0.3596
 3007TIP3    H230657   5.454   1.651   1.932  0.1603 -0.0462 -0.8429
 3008TIP3   OH230658   3.549   3.467   7.841 -0.1605 -0.2865 -0.3431
 3008TIP3    H130659   3.465   3.494   7.806 -0.7340 -0.0515  1.1540
 3008TIP3    H230660   3.543   3.483   7.935  0.5827 -2.7631  0.2027
 3009TIP3   OH230661   6.051   1.236   8.967  0.0658 -0.1594  0.4921
 3009TIP3    H130662   6.061   1.316   9.018 -1.1969  0.4209 -0.1200
 3009TIP3    H230663   6.140   1.214   8.939  0.2688  2.1051 -0.8956
 3010TIP3   OH230664   3.522   5.074   0.220  0.1659  0.1941 -0.2880
 3010TIP3    H130665   3.440   5.084   0.172  0.8631 -1.1836 -1.8488
 3010TIP3    H230666   3.566   5.158   0.210 -0.1662  0.2702 -1.1918
 3011TIP3   OH230667   6.365   2.937   3.058 -0.3878  0.1517 -0.7606
 3011TIP3    H130668   6.336   2.873   3.123  1.4156 -1.0528 -1.0590
 3011TIP3    H230669   6.286   2.985   3.034 -1.4978 -0.8881  0.6625
 3012TIP3   OH230670   2.139   6.497   0.016  0.8283 -0.5970  0.0398
 3012TIP3    H130671   2.180   6.557   0.078 -0.0751 -1.4674  1.5330
 3012TIP3    H230672   2.186   6.415   0.027  1.1221 -0.5705 -0.9557
 3013TIP3   OH230673   2.001   6.699   0.577 -0.1943 -0.1315  0.2787
 3013TIP3    H130674   2.010   6.614   0.621 -1.4434 -1.0780 -1.1673
 3013TIP3    H230675   2.048   6.688   0.494 -0.7559  0.4251 -0.1247
 3014TIP3   OH230676   1.699   3.139   1.338  0.7353 -0.4848  0.2875
 3014TIP3    H130677   1.766   3.196   1.300 -0.8857 -0.3779 -2.7092
 3014TIP3    H230678   1.727   3.051   1.316  1.3804 -0.6672  1.7285
 3015TIP3   OH230679   3.069   5.387   1.205 -0.1600  0.0450 -0.2349
 3015TIP3    H130680   3.107   5.352   1.286 -2.1876  2.1027  1.7436
 3015TIP3    H230681   3.119   5.467   1.188  1.4186 -1.2392 -2.1388
 3016TIP3   OH230682   6.538   3.130   7.803  0.1759 -0.3247 -0.2831
 3016TIP3    H130683   6.505   3.179   7.727 -0.9849 -1.9320 -0.8790
 3016TIP3    H230684   6.533   3.038   7.776  1.2827 -0.8500  1.1738
 3017TIP3   OH230685   0.550   2.894   1.225  0.4124  0.3174 -0.6677
 3017TIP3    H130686   0.594   2.816   1.259  1.2456  0.6909 -0.8667
 3017TIP3    H230687   0.492   2.861   1.157 -1.5907 -0.5061  1.3116
 3018TIP3   OH230688   5.222   2.097   8.949 -0.0979 -0.5989 -0.2623
 3018TIP3    H130689   5.263   2.062   8.870 -0.0557 -1.6093  0.1967
 3018TIP3    H230690   5.133   2.120   8.921  0.7425  1.7467 -1.2998
 3019TIP3   OH230691   2.894   2.301   2.694 -0.1261 -0.2337  0.0510
 3019TIP3    H130692   2.936   2.358   2.758 -0.4545 -0.3154  0.3463
 3019TIP3    H230693   2.821   2.353   2.661  1.9431  1.1554 -2.7807
 3020TIP3   OH230694   6.111   6.042   2.127  0.1526  0.4452  0.6660
 3020TIP3    H130695   6.079   5.952   2.124  1.3913 -0.0027 -1.5172
 3020TIP3    H230696   6.206   6.034   2.130  0.2589  1.7163  1.9143
 3021TIP3   OH230697   1.171   0.226   8.649 -0.3934  0.3658  0.0294
 3021TIP3    H130698   1.172   0.153   8.587  0.2861  0.0549  0.3908
 3021TIP3    H230699   1.125   0.296   8.603  0.6970  0.3736 -1.1200
 3022TIP3   OH230700   3.900   4.358   0.383 -0.2815  0.0722 -0.4173
 3022TIP3    H130701   3.861   4.424   0.326 -0.8195 -0.1017 -0.2512
 3022TIP3    H230702   3.953   4.408   0.445 -0.4275  0.3205 -0.4923
 3023TIP3   OH230703   3.501   1.989   8.287 -0.2380 -0.0547  0.0438
 3023TIP3    H130704   3.430   2.013   8.347 -0.7346 -1.5256  0.0813
 3023TIP3    H230705   3.481   2.036   8.206 -0.6346  0.4098  0.4044
 3024TIP3   OH230706   4.885   0.228   1.194  0.2075  0.1190 -0.2350
 3024TIP3    H130707   4.913   0.184   1.274 -0.6246 -0.4049 -0.2172
 3024TIP3    H230708   4.795   0.256   1.212  1.1566  3.2184  0.3221
 3025TIP3   OH230709   5.293   6.661   1.809  0.2807  0.1693 -0.4195
 3025TIP3    H130710   5.351   6.587   1.797  2.6761  1.9875 -0.7384
 3025TIP3    H230711   5.293   6.677   1.903 -0.1400 -0.1476 -0.3635
 3026TIP3   OH230712   4.308   2.181   7.922 -0.4379 -0.5133  0.2875
 3026TIP3    H130713   4.365   2.173   7.846  0.2472  3.3941  0.1869
 3026TIP3    H230714   4.356   2.237   7.983 -1.7265 -2.0440  2.8854
 3027TIP3   OH230715   4.912   1.823   9.075 -0.2648 -0.3646  0.4619
 3027TIP3    H130716   4.923   1.773   9.156 -0.5913 -0.0953  0.6739
 3027TIP3    H230717   4.842   1.777   9.028 -3.2404  1.9286  2.3098
 3028TIP3   OH230718   0.170   2.458   2.249 -0.2638  0.1745  0.4229
 3028TIP3    H130719   0.217   2.485   2.328  0.1549 -0.7894  0.5298
 3028TIP3    H230720   0.154   2.364   2.262 -0.9363  0.1827 -0.2658
 3029TIP3   OH230721   1.722   5.889   2.477  0.1246 -0.5587  0.8942
 3029TIP3    H130722   1.774   5.887   2.558  0.4952  0.6173  0.7063
 3029TIP3    H230723   1.632   5.880   2.506  0.1858  0.6584  1.5320
 3030TIP3   OH230724   0.888   2.080   2.468 -0.4813  0.2081 -0.4161
 3030TIP3    H130725   0.852   1.995   2.446 -2.0536  1.0820 -1.4294
 3030TIP3    H230726   0.970   2.085   2.419  1.0327 -1.7127  1.7220
 3031TIP3   OH230727   4.431   3.682   7.601  0.4768  0.0029 -0.6335
 3031TIP3    H130728   4.357   3.722   7.647 -0.5505 -2.2716 -0.1906
 3031TIP3    H230729   4.422   3.588   7.617  2.5522 -0.4900 -1.9458
 3032TIP3   OH230730   1.511   3.922   2.113  0.0740  0.0639 -0.2237
 3032TIP3    H130731   1.482   3.880   2.032 -0.2176  0.2186 -0.2003
 3032TIP3    H230732   1.433   3.925   2.169  0.6859 -1.7636  0.8176
 3033TIP3   OH230733   1.247   5.548   8.878  0.6098 -0.2596 -0.4664
 3033TIP3    H130734   1.243   5.472   8.936 -1.0758 -0.4232 -0.7313
 3033TIP3    H230735   1.155   5.574   8.867  0.8303 -0.3914 -3.2834
 3034TIP3   OH230736   5.448   1.064   0.606  0.5983 -0.2669 -0.3485
 3034TIP3    H130737   5.357   1.047   0.583  0.4448  0.7322 -0.5181
 3034TIP3    H230738   5.499   1.014   0.542  0.1977 -1.6830  0.3875
 3035TIP3   OH230739   0.348   4.069   0.523  0.3259 -0.1066  0.3300
 3035TIP3    H130740   0.269   4.015   0.524  0.5885 -0.8115 -3.0926
 3035TIP3    H230741   0.321   4.149   0.478  0.8950  0.9809  1.8442
 3036TIP3   OH230742   3.275   1.115   2.449  0.2568  0.0777  0.1297
 3036TIP3    H130743   3.189   1.097   2.489 -0.4094 -0.1993 -1.3624
 3036TIP3    H230744   3.337   1.102   2.520 -0.9571  0.5710  1.3264
 3037TIP3   OH230745   3.678   0.777   8.482 -0.4235 -0.4665  0.4427
 3037TIP3    H130746   3.616   0.737   8.421  0.5647 -0.9835 -0.2583
 3037TIP3    H230747   3.678   0.718   8.558 -2.2674  0.6073  1.3622
 3038TIP3   OH230748   6.401   3.745   0.014  0.7548 -0.2831  0.4678
 3038TIP3    H130749   6.416   3.671   0.073  0.0951 -0.4166  0.4748
 3038TIP3    H230750   6.310   3.768   0.028  0.2823 -0.9497 -1.2152
 3039TIP3   OH230751   0.669   0.244   9.182  0.3171  0.3512 -0.3837
 3039TIP3    H130752   0.680   0.199   9.265  0.6825  0.0193 -0.6073
 3039TIP3    H230753   0.579   0.276   9.183 -0.7803 -2.4546 -1.2220
 3040TIP3   OH230754   5.919   2.129   0.232 -0.1295  0.1343 -0.7734
 3040TIP3    H130755   5.890   2.176   0.310 -0.4827 -0.7224 -0.3758
 3040TIP3    H230756   5.851   2.147   0.167 -0.3382  0.0452 -0.5796
 3041TIP3   OH230757   6.020   2.560   1.673 -0.1930  0.1166  0.1519
 3041TIP3    H130758   6.008   2.585   1.764  0.9537  0.6345  0.1821
 3041TIP3    H230759   5.977   2.629   1.623 -0.2384  0.1838  0.2838
 3042TIP3   OH230760   5.402   0.908   8.193 -0.2623  0.7910 -0.6883
 3042TIP3    H130761   5.470   0.963   8.231 -0.9733  1.3466 -0.1985
 3042TIP3    H230762   5.415   0.914   8.099 -0.1993  1.6349 -0.6303
 3043TIP3   OH230763   2.490   5.088   1.423  0.5159 -0.0573  0.3346
 3043TIP3    H130764   2.494   5.120   1.513  0.9124  0.0992  0.2615
 3043TIP3    H230765   2.415   5.133   1.385 -0.8285 -1.5177  1.1257
 3044TIP3   OH230766   1.114   4.871   7.905  0.8767 -0.0964  0.2695
 3044TIP3    H130767   1.205   4.855   7.881  0.9838 -0.1889  0.7167
 3044TIP3    H230768   1.070   4.891   7.823  1.3659  0.2583  0.0928
 3045TIP3   OH230769   0.869   5.932   1.468  0.1852  0.5350  0.0708
 3045TIP3    H130770   0.798   5.873   1.493  0.0600 -0.1124 -1.6648
 3045TIP3    H230771   0.860   6.007   1.527 -0.0623 -0.8741  1.8830
 3046TIP3   OH230772   2.421   5.191   0.812 -0.3373 -0.0610  0.0340
 3046TIP3    H130773   2.424   5.138   0.733 -0.1058 -0.7233  0.4814
 3046TIP3    H230774   2.459   5.135   0.880 -0.0708  0.6787  0.5074
 3047TIP3   OH230775   1.283   5.874   2.667  1.0966 -0.4476  0.0490
 3047TIP3    H130776   1.368   5.903   2.698  0.3041  1.0500  0.9376
 3047TIP3    H230777   1.240   5.838   2.745  0.6164 -0.4189 -0.1970
 3048TIP3   OH230778   0.485   0.210   2.644 -0.2901 -0.2096 -0.8307
 3048TIP3    H130779   0.469   0.161   2.724  0.3445  0.8252 -0.0442
 3048TIP3    H230780   0.573   0.246   2.654 -0.7983  1.2558 -1.2677
 3049TIP3   OH230781   1.496   3.469   1.915 -0.2342  0.7272  0.2475
 3049TIP3    H130782   1.428   3.527   1.948 -0.0656  0.8280  0.4217
 3049TIP3    H230783   1.469   3.381   1.944 -0.2623  0.7731  0.3624
 3050TIP3   OH230784   1.722   4.186   1.138 -0.0009  0.1869  0.4351
 3050TIP3    H130785   1.690   4.161   1.225 -1.7722  3.0395  0.7300
 3050TIP3    H230786   1.689   4.119   1.079  0.5118 -1.3425  1.8037
 3051TIP3   OH230787   4.752   1.244   9.099  0.0778  0.4364 -0.4344
 3051TIP3    H130788   4.807   1.318   9.074 -0.7446  1.2182 -0.0007
 3051TIP3    H230789   4.662   1.275   9.085 -0.2743 -0.5868 -0.5309
 3052TIP3   OH230790   3.114   2.260   0.564  0.5596 -0.6588  0.0144
 3052TIP3    H130791   3.139   2.336   0.617 -0.1589 -0.4189  0.0197
 3052TIP3    H230792   3.023   2.242   0.589 -0.1059  0.0108 -1.7504
 3053TIP3   OH230793   0.709   2.461   0.698 -0.0147 -0.0075  0.0915
 3053TIP3    H130794   0.804   2.476   0.699  0.0351  0.0506 -1.9854
 3053TIP3    H230795   0.688   2.440   0.789  2.0017 -0.1336  0.5902
 3054TIP3   OH230796   1.718   0.535   8.205  0.0496  0.0628 -0.0397
 3054TIP3    H130797   1.764   0.454   8.225 -1.8809 -1.2707 -0.8098
 3054TIP3    H230798   1.779   0.585   8.150  1.4846 -0.5684  0.9401
 3055TIP3   OH230799   6.098   0.748   1.015 -0.3811 -0.6307  0.1110
 3055TIP3    H130800   6.083   0.822   0.956  1.1295 -1.2123 -1.0748
 3055TIP3    H230801   6.150   0.785   1.086 -2.1523  0.0603  1.1037
 3056TIP3   OH230802   2.102   4.121   8.252 -0.1026  0.4557 -0.3173
 3056TIP3    H130803   2.185   4.077   8.270 -1.2297 -1.4764  0.4406
 3056TIP3    H230804   2.061   4.132   8.338 -0.9370  0.7708 -0.7449
 3057TIP3   OH230805   2.037   1.885   0.889  0.3144 -0.9031  0.2041
 3057TIP3    H130806   2.035   1.893   0.794  1.4728 -0.8394  0.1647
 3057TIP3    H230807   1.955   1.841   0.912 -0.4928  0.0849 -0.7095
 3058TIP3   OH230808   6.401   6.575   2.406 -0.3549 -0.6426 -0.0559
 3058TIP3    H130809   6.440   6.543   2.488 -1.0896 -0.4946  0.3645
 3058TIP3    H230810   6.331   6.512   2.388 -0.3413 -0.5446 -0.4527
 3059TIP3   OH230811   6.564   0.855   1.582 -0.0911 -0.1944  0.2309
 3059TIP3    H130812   6.653   0.873   1.552  0.6883 -2.8786  0.6010
 3059TIP3    H230813   6.573   0.839   1.676 -0.9554 -0.4257  0.2888
 3060TIP3   OH230814   3.066   3.134   2.159 -0.1741  0.3817 -0.4255
 3060TIP3    H130815   3.035   3.056   2.205 -1.7279 -0.4335 -2.7124
 3060TIP3    H230816   3.156   3.145   2.190 -1.1523  0.0544  2.9104
 3061TIP3   OH230817   1.252   4.481   1.210  0.4739 -0.0286  0.7129
 3061TIP3    H130818   1.243   4.550   1.144  0.6490 -1.0264 -0.3998
 3061TIP3    H230819   1.162   4.462   1.236  0.4795  1.3829  1.8955
 3062TIP3   OH230820   4.111   6.593   2.472  0.8868 -0.2563 -0.0159
 3062TIP3    H130821   4.148   6.678   2.497  0.2552  0.2223 -0.6771
 3062TIP3    H230822   4.100   6.598   2.377 -1.7269 -0.0012  0.2304
 3063TIP3   OH230823   0.815   1.324   8.491  0.1428 -0.2141 -0.3280
 3063TIP3    H130824   0.800   1.321   8.585 -0.4299  3.5220 -0.1327
 3063TIP3    H230825   0.777   1.407   8.463  1.4565 -0.5554 -3.6462
 3064TIP3   OH230826   1.315   4.985   1.074  0.3123 -0.1746  0.3878
 3064TIP3    H130827   1.310   5.073   1.038  0.0731 -0.3418  0.0105
 3064TIP3    H230828   1.385   4.943   1.025  1.0365  0.0800  1.1743
 3065TIP3   OH230829   1.876   5.387   0.939  0.6256 -0.1796 -0.2422
 3065TIP3    H130830   1.912   5.301   0.919 -0.9507 -0.6836 -1.0698
 3065TIP3    H230831   1.947   5.433   0.984  1.4717 -1.9335  0.2997
 3066TIP3   OH230832   2.006   4.381   7.842  0.4448  0.2176  0.2278
 3066TIP3    H130833   1.934   4.382   7.779  0.4502 -1.0878  0.1778
 3066TIP3    H230834   2.021   4.288   7.859  2.2363  0.4634  0.1124
 3067TIP3   OH230835   1.712   0.926   2.082  0.2234 -0.2264 -0.5849
 3067TIP3    H130836   1.749   1.003   2.127  0.0906 -0.7856  0.5113
 3067TIP3    H230837   1.786   0.865   2.076 -0.0730 -0.6545  0.0340
 3068TIP3   OH230838   5.588   2.672   1.757 -0.1090 -0.0334 -0.5252
 3068TIP3    H130839   5.533   2.737   1.800  0.6051 -0.5500  1.2671
 3068TIP3    H230840   5.657   2.723   1.714  1.2286  0.4109  1.9841
 3069TIP3   OH230841   3.618   4.200   0.891 -0.6270 -0.0674  0.0092
 3069TIP3    H130842   3.678   4.273   0.874  0.1619 -0.5730  0.6336
 3069TIP3    H230843   3.670   4.121   0.877 -1.0859 -0.5112  0.7352
 3070TIP3   OH230844   1.240   5.257   2.582 -0.2358 -0.7063  0.2527
 3070TIP3    H130845   1.266   5.211   2.662 -0.6361 -0.6662  0.4039
 3070TIP3    H230846   1.155   5.220   2.559 -0.7355  0.2114  0.5805
 3071TIP3   OH230847   2.081   4.626   1.734  0.4309 -0.2559 -0.0991
 3071TIP3    H130848   2.066   4.569   1.809  0.8133  0.7449  0.7716
 3071TIP3    H230849   2.071   4.569   1.658 -0.8064 -1.1192  0.6696
 3072TIP3   OH230850   4.864   2.101   9.076  0.2036  0.0400  0.2815
 3072TIP3    H130851   4.889   2.009   9.077  0.6597  0.1184  2.8930
 3072TIP3    H230852   4.899   2.135   8.994 -0.6672 -2.2380 -1.1453
 3073TIP3   OH230853   1.520   6.667   2.221 -0.0432  0.1215  0.6668
 3073TIP3    H130854   1.443   6.689   2.170 -0.0588  0.2214  0.7321
 3073TIP3    H230855   1.490   6.669   2.312  0.1652  0.7143  0.7291
 3074TIP3   OH230856   2.504   0.423   7.526  0.0696  0.0384  0.5644
 3074TIP3    H130857   2.596   0.432   7.500  0.0255 -0.7186  0.1016
 3074TIP3    H230858   2.480   0.509   7.561  0.6377  0.5869 -0.3528
 3075TIP3   OH230859   3.949   3.056   1.454 -0.0084 -0.4459 -0.0292
 3075TIP3    H130860   4.032   3.015   1.429  1.4190  1.7518  0.7368
 3075TIP3    H230861   3.944   3.042   1.549 -1.1965 -1.6485 -0.2445
 3076TIP3   OH230862   3.050   1.840   8.803 -0.1997  0.0640  0.0727
 3076TIP3    H130863   3.020   1.817   8.715  0.2871  0.6369 -0.2528
 3076TIP3    H230864   3.142   1.863   8.791 -0.2281  0.5066  0.6689
 3077TIP3   OH230865   5.860   6.180   1.751  0.2013 -0.0077 -0.3316
 3077TIP3    H130866   5.796   6.110   1.768  0.5095  0.3003  2.5553
 3077TIP3    H230867   5.897   6.200   1.837  1.6910  2.2384 -1.4081
 3078TIP3   OH230868   4.817   4.920   7.509 -0.3031  0.1322 -0.4756
 3078TIP3    H130869   4.788   5.007   7.534 -1.5613 -0.4473  0.1546
 3078TIP3    H230870   4.872   4.891   7.582  0.7611  0.6775 -1.0344
 3079TIP3   OH230871   4.291   3.044   8.419  0.1727 -0.4503  0.3389
 3079TIP3    H130872   4.251   3.119   8.463  0.6721 -1.0563  1.9114
 3079TIP3    H230873   4.362   3.018   8.477  1.1487 -1.0436 -1.0789
 3080TIP3   OH230874   4.427   0.422   3.023 -0.5942 -0.0449  0.2330
 3080TIP3    H130875   4.508   0.414   2.973  0.4410 -0.0625  1.8076
 3080TIP3    H230876   4.377   0.343   3.002 -0.5487  0.3236 -1.3233
 3081TIP3   OH230877   1.095   3.199   8.092 -0.0924 -0.3376 -0.1554
 3081TIP3    H130878   1.140   3.179   8.174 -0.5350  1.4203  0.5738
 3081TIP3    H230879   1.150   3.264   8.049 -0.6013 -0.1379 -0.5252
 3082TIP3   OH230880   5.690   3.743   0.864  0.1865 -0.2403 -0.0043
 3082TIP3    H130881   5.721   3.833   0.869  0.6552 -0.4387  0.8845
 3082TIP3    H230882   5.650   3.736   0.777  0.0702  0.8403 -0.0488
 3083TIP3   OH230883   4.450   5.904   1.951  0.2997  0.0012  0.1126
 3083TIP3    H130884   4.491   5.989   1.966  2.3565 -0.9717  0.3096
 3083TIP3    H230885   4.514   5.854   1.900  0.0447 -2.0861  1.6499
 3084TIP3   OH230886   1.788   3.271   0.788  0.0288 -0.6890  0.1972
 3084TIP3    H130887   1.788   3.248   0.695  1.3159 -1.1157  0.2878
 3084TIP3    H230888   1.781   3.187   0.833  1.4310 -0.6510  0.5005
 3085TIP3   OH230889   1.927   6.520   2.819  0.4046  0.5256 -0.4771
 3085TIP3    H130890   1.855   6.551   2.874  0.4913 -0.1865  0.0451
 3085TIP3    H230891   1.982   6.468   2.877  0.2470 -0.6494 -1.3360
 3086TIP3   OH230892   1.495   5.477   2.178  0.0456  1.0718  0.5919
 3086TIP3    H130893   1.546   5.432   2.245  2.1763 -0.0098 -1.5645
 3086TIP3    H230894   1.553   5.478   2.101 -2.5646  1.3954 -1.5182
 3087TIP3   OH230895   1.376   0.884   1.418 -0.7184  0.3084  0.3319
 3087TIP3    H130896   1.296   0.935   1.424 -0.6693  0.3826  0.3609
 3087TIP3    H230897   1.359   0.805   1.470 -0.7521  0.3505  0.3840
 3088TIP3   OH230898   6.319   5.926   1.546  0.2065 -0.2528  0.4094
 3088TIP3    H130899   6.400   5.922   1.597 -0.4285 -1.6907  1.3855
 3088TIP3    H230900   6.262   5.983   1.597  0.8516  1.5053 -0.7354
 3089TIP3   OH230901   2.711   5.155   0.538  0.1630  0.1498 -0.1867
 3089TIP3    H130902   2.643   5.087   0.540 -0.3066  0.5900 -0.7465
 3089TIP3    H230903   2.794   5.106   0.535 -0.1718 -0.3992 -0.7055
 3090TIP3   OH230904   6.076   3.178   2.101 -0.1424  0.1474 -0.0970
 3090TIP3    H130905   6.138   3.163   2.172 -1.1620  0.2668  0.8466
 3090TIP3    H230906   6.128   3.167   2.021  0.5461 -2.3357  0.5884
 3091TIP3   OH230907   1.547   3.573   2.524  0.0702 -0.0322 -0.1451
 3091TIP3    H130908   1.481   3.628   2.567 -0.2187 -0.9540  0.6171
 3091TIP3    H230909   1.519   3.568   2.433 -0.3565  0.3868 -0.0423
 3092TIP3   OH230910   4.544   6.562   1.741  0.6434 -0.3918  0.2949
 3092TIP3    H130911   4.597   6.642   1.752 -1.3725  0.8669  1.4820
 3092TIP3    H230912   4.607   6.491   1.747  2.5185  1.0905 -0.7422
 3093TIP3   OH230913   5.624   2.304   8.998  0.1065  0.3410  0.0600
 3093TIP3    H130914   5.656   2.232   8.943 -1.0003  1.3814 -2.0650
 3093TIP3    H230915   5.552   2.267   9.048  2.3866 -1.1706  2.4993
 3094TIP3   OH230916   4.444   2.618   1.669 -0.6709  0.1422  0.6703
 3094TIP3    H130917   4.386   2.586   1.738 -1.9796  0.6034 -0.1951
 3094TIP3    H230918   4.466   2.707   1.695 -1.6416  0.5237  0.2083
 3095TIP3   OH230919   2.083   5.261   7.279  0.2468 -0.2665  0.0116
 3095TIP3    H130920   2.138   5.334   7.305  0.5308  0.3575 -2.1440
 3095TIP3    H230921   2.139   5.184   7.290  0.5028  0.0190  0.7437
 3096TIP3   OH230922   1.465   2.702   8.471 -0.1675 -0.2046  0.0881
 3096TIP3    H130923   1.495   2.611   8.476  1.1259  0.2516  1.9748
 3096TIP3    H230924   1.542   2.754   8.497 -0.6011  1.5105 -1.8309
 3097TIP3   OH230925   0.040   0.767   8.912  0.1977  0.3191 -0.4467
 3097TIP3    H130926   0.129   0.748   8.881  1.1893  1.9097  1.2457
 3097TIP3    H230927   0.048   0.772   9.007 -1.9783 -0.6715 -0.1455
 3098TIP3   OH230928   5.476   0.481   2.028 -0.1921  0.2983  0.6594
 3098TIP3    H130929   5.483   0.453   1.937 -1.1212 -0.4112  0.7906
 3098TIP3    H230930   5.500   0.574   2.026  3.8405 -0.5502  0.3401
 3099TIP3   OH230931   2.209   5.560   8.705 -0.0978  0.2954  0.2521
 3099TIP3    H130932   2.273   5.612   8.657  1.0271 -1.1896  0.0719
 3099TIP3    H230933   2.261   5.505   8.764 -1.2276 -0.6062  0.4578
 3100TIP3   OH230934   0.787   0.458   2.449  0.7983 -0.4305 -0.1961
 3100TIP3    H130935   0.697   0.480   2.422  0.4247 -1.4623  0.1730
 3100TIP3    H230936   0.776   0.412   2.532  1.6559 -0.8174 -0.2876
 3101TIP3   OH230937   4.784   5.470   9.115  0.5730  0.5967  0.6216
 3101TIP3    H130938   4.845   5.538   9.143  2.0944 -0.7791  0.8016
 3101TIP3    H230939   4.734   5.449   9.193  0.5640  1.0180  0.7324
 3102TIP3   OH230940   4.450   1.918   8.616 -0.0537 -0.3984 -0.2012
 3102TIP3    H130941   4.510   1.993   8.620 -1.8123  1.0373  2.2623
 3102TIP3    H230942   4.506   1.842   8.628  1.7108  0.5055 -2.0447
 3103TIP3   OH230943   5.765   5.416   1.766  0.7209  0.4695  0.3265
 3103TIP3    H130944   5.768   5.464   1.683 -2.3699  0.7065  0.2300
 3103TIP3    H230945   5.792   5.327   1.743 -1.9568 -0.0034 -1.4888
 3104TIP3   OH230946   3.779   0.965   8.995 -0.2236 -0.0167  0.3076
 3104TIP3    H130947   3.873   0.978   9.007 -0.1119 -0.3132 -0.2039
 3104TIP3    H230948   3.772   0.921   8.910 -0.7058 -1.6925  1.1769
 3105TIP3   OH230949   1.028   5.990   9.201  0.0213 -0.3312 -0.5482
 3105TIP3    H130950   1.087   6.054   9.240  0.7166 -1.4933  0.3472
 3105TIP3    H230951   1.020   6.018   9.109  0.2799  1.0338 -0.1807
 3106TIP3   OH230952   5.241   2.526   1.875  0.3567 -0.0756  0.3797
 3106TIP3    H130953   5.301   2.591   1.910 -0.6207  1.2772 -0.3261
 3106TIP3    H230954   5.295   2.448   1.859  1.1996 -0.1238  2.9884
 3107TIP3   OH230955   1.377   1.711   0.742  0.0492  0.1107 -0.0499
 3107TIP3    H130956   1.321   1.633   0.743 -0.9043  0.7554 -0.7740
 3107TIP3    H230957   1.428   1.703   0.662 -0.4004  0.4588 -0.3755
 3108TIP3   OH230958   3.374   0.294   0.170 -0.0248 -0.1958  0.2282
 3108TIP3    H130959   3.341   0.205   0.158 -1.4901 -0.0408  2.5773
 3108TIP3    H230960   3.469   0.284   0.173 -0.1140 -1.5052 -0.7397
 3109TIP3   OH230961   4.422   0.490   0.484  0.3855  0.0356 -0.2082
 3109TIP3    H130962   4.388   0.577   0.464 -0.5113 -0.3055 -0.2000
 3109TIP3    H230963   4.356   0.451   0.541  0.0142 -1.2162 -1.4279
 3110TIP3   OH230964   0.855   5.997   2.903  0.2647  0.3006  0.2654
 3110TIP3    H130965   0.897   5.933   2.961  1.4282 -0.4839 -1.3759
 3110TIP3    H230966   0.927   6.050   2.869 -0.5204  1.4726  0.3419
 3111TIP3   OH230967   5.675   3.231   1.939 -0.9224 -0.2573  0.3295
 3111TIP3    H130968   5.678   3.287   2.017 -0.9387 -0.0486  0.1814
 3111TIP3    H230969   5.671   3.142   1.974  0.5874 -0.2553  0.5719
 3112TIP3   OH230970   1.157   1.206   2.232 -0.0444  0.5625 -0.1011
 3112TIP3    H130971   1.171   1.209   2.138  0.7248  3.3707  0.0135
 3112TIP3    H230972   1.158   1.113   2.254  1.3919 -0.0990 -2.6105
 3113TIP3   OH230973   1.743   6.323   1.185 -0.1407  0.0639  0.2055
 3113TIP3    H130974   1.667   6.266   1.194 -0.4559  0.6399  1.3197
 3113TIP3    H230975   1.780   6.330   1.273  3.0366 -2.5797 -0.7161
 3114TIP3   OH230976   4.063   4.684   8.538 -0.2463 -0.1542 -0.4595
 3114TIP3    H130977   4.099   4.730   8.463  0.0933 -0.8954 -0.7626
 3114TIP3    H230978   3.987   4.637   8.504 -0.2038 -0.3439 -0.2977
 3115TIP3   OH230979   5.324   3.709   3.222 -0.6128 -0.5065 -0.2892
 3115TIP3    H130980   5.411   3.726   3.186 -0.8882  0.1173 -0.6732
 3115TIP3    H230981   5.271   3.783   3.193 -0.4115  1.0529  2.8868
 3116TIP3   OH230982   2.569   5.789   2.000  0.1785 -0.6528 -0.7227
 3116TIP3    H130983   2.550   5.803   1.907 -1.0935 -0.6524 -0.4667
 3116TIP3    H230984   2.612   5.870   2.028 -1.3826  0.2242 -0.7993
 3117TIP3   OH230985   2.108   1.436   8.631 -0.0399 -0.1981  0.2156
 3117TIP3    H130986   2.142   1.460   8.545  0.5378 -0.2375  0.4293
 3117TIP3    H230987   2.071   1.518   8.665  0.6278  0.0570  0.3423
 3118TIP3   OH230988   6.367   2.404   9.143  0.2546  0.3308  0.5478
 3118TIP3    H130989   6.462   2.406   9.138  0.2243  1.6343  0.3252
 3118TIP3    H230990   6.339   2.491   9.117 -0.9764  0.1720  1.2553
 3119TIP3   OH230991   2.929   2.611   7.874  0.4919  0.1174 -0.3093
 3119TIP3    H130992   2.907   2.678   7.809  1.7953 -0.1045 -1.0045
 3119TIP3    H230993   3.023   2.623   7.890  0.4762 -0.7334  0.5031
 3120TIP3   OH230994   2.808   2.212   8.131  0.1875 -0.0379 -0.2185
 3120TIP3    H130995   2.771   2.126   8.151 -0.8456  0.7705  1.5835
 3120TIP3    H230996   2.831   2.207   8.038 -2.3445 -1.3802 -0.8652
 3121TIP3   OH230997   4.830   5.851   8.743  0.6121 -0.0915 -0.2601
 3121TIP3    H130998   4.907   5.849   8.800  1.8462 -0.2426 -1.8594
 3121TIP3    H230999   4.865   5.848   8.654 -1.2395  0.1625 -1.0624
 3122TIP3   OH231000   6.613   2.838   3.084 -0.4290  0.0702 -0.0923
 3122TIP3    H131001   6.676   2.907   3.063  0.5299 -1.1258 -1.3574
 3122TIP3    H231002   6.537   2.858   3.029  0.0850 -0.1867 -0.9286
 3123TIP3   OH231003   3.908   5.330   1.528  0.2040  0.6504  0.4519
 3123TIP3    H131004   3.911   5.235   1.539  1.7509  0.7045  0.7821
 3123TIP3    H231005   3.890   5.344   1.435 -5.9649  0.1380  1.1191
 3124TIP3   OH231006   0.078   1.003   2.477  0.0151  0.2695 -0.0399
 3124TIP3    H131007   0.011   0.964   2.533 -0.3683  0.5876 -0.2739
 3124TIP3    H231008   0.161   0.985   2.523 -0.0687 -1.4616 -0.5228
 3125TIP3   OH231009   5.388   3.274   1.970  0.1800 -0.2460  0.1612
 3125TIP3    H131010   5.379   3.179   1.963 -0.5329 -0.4464  2.6260
 3125TIP3    H231011   5.418   3.289   2.060 -0.8424  1.8915  0.2295
 3126TIP3   OH231012   5.423   3.231   0.764 -0.3412  0.1135 -0.2135
 3126TIP3    H131013   5.411   3.137   0.752 -1.3388  0.0522  1.0837
 3126TIP3    H231014   5.428   3.266   0.675 -1.6096 -0.9726 -0.7364
 3127TIP3   OH231015   1.981   1.628   8.807  0.1660 -0.0805 -0.5187
 3127TIP3    H131016   1.925   1.693   8.766  0.7814  0.7428 -0.0927
 3127TIP3    H231017   1.929   1.593   8.879  0.7502  1.9419  0.9981
 3128TIP3   OH231018   4.403   2.246   7.489 -0.0009 -0.5355  0.2328
 3128TIP3    H131019   4.464   2.179   7.459  0.5045 -0.0966  0.2656
 3128TIP3    H231020   4.353   2.203   7.559 -1.2944 -1.6209 -1.2689
 3129TIP3   OH231021   0.586   0.185   7.929  0.2612 -0.0443  0.1101
 3129TIP3    H131022   0.651   0.225   7.871  1.8114 -0.1817  1.6665
 3129TIP3    H231023   0.531   0.257   7.958  1.6356  0.6391  1.1361
 3130TIP3   OH231024   2.125   6.156   7.059 -0.4389 -0.6715 -0.1728
 3130TIP3    H131025   2.193   6.100   7.096  1.1703  0.0105 -1.9416
 3130TIP3    H231026   2.044   6.106   7.071  0.2114 -1.2451  2.5457
 3131TIP3   OH231027   2.465   2.996   8.501 -0.0550  0.2601 -0.6698
 3131TIP3    H131028   2.419   2.946   8.433  0.0571  1.8248 -1.9554
 3131TIP3    H231029   2.551   3.014   8.463  0.0414  1.0974 -0.0832
 3132TIP3   OH231030   0.627   5.911   2.122  0.2993  0.2240  0.4499
 3132TIP3    H131031   0.556   5.886   2.064  0.6627 -0.2694  0.2115
 3132TIP3    H231032   0.702   5.923   2.064  0.2821  1.2970  0.6273
 3133TIP3   OH231033   0.579   4.256   2.485 -0.2500 -0.0161  0.5381
 3133TIP3    H131034   0.536   4.337   2.514 -2.2141 -0.8316  0.1178
 3133TIP3    H231035   0.640   4.284   2.417 -1.0790  1.1067  0.2243
 3134TIP3   OH231036   6.129   5.797   7.910  0.4229  0.1034  0.2442
 3134TIP3    H131037   6.058   5.756   7.861 -0.0361  0.1389  0.8637
 3134TIP3    H231038   6.169   5.858   7.849  0.4718 -0.5396 -0.3778
 3135TIP3   OH231039   5.008   4.209   1.326 -0.3621 -0.2186 -0.2078
 3135TIP3    H131040   5.079   4.213   1.262 -0.7112 -1.7131 -0.7453
 3135TIP3    H231041   5.051   4.183   1.407  0.1507  2.1265  0.3471
 3136TIP3   OH231042   3.076   3.862   0.325 -0.3108 -0.1575 -0.0399
 3136TIP3    H131043   3.073   3.935   0.386 -0.3848  0.1300 -0.3874
 3136TIP3    H231044   3.004   3.878   0.264  0.0637 -0.1852 -0.4957
 3137TIP3   OH231045   5.717   2.622   2.495  0.6043 -0.0833  0.0489
 3137TIP3    H131046   5.630   2.630   2.533  0.6564  0.7908  0.0097
 3137TIP3    H231047   5.774   2.603   2.569  0.3868 -0.6538  0.0753
 3138TIP3   OH231048   0.488   3.809   7.614  0.2076  0.4036  0.6367
 3138TIP3    H131049   0.462   3.720   7.638 -0.4749  0.0337 -1.2808
 3138TIP3    H231050   0.406   3.855   7.599  0.5283  0.4611 -1.2613
 3139TIP3   OH231051   5.044   2.038   2.813 -0.3270  0.7092 -0.3737
 3139TIP3    H131052   5.107   1.970   2.788 -1.7194 -0.0683 -1.9255
 3139TIP3    H231053   5.088   2.120   2.791  0.8883  0.2953  0.3843
 3140TIP3   OH231054   3.396   6.690   0.512  0.2648  0.1038 -0.0270
 3140TIP3    H131055   3.461   6.678   0.582 -0.1372  0.9280  0.5000
 3140TIP3    H231056   3.361   6.602   0.497 -0.0930  0.0152  1.2579
 3141TIP3   OH231057   1.352   0.696   1.088 -0.2194 -0.4196  0.3057
 3141TIP3    H131058   1.285   0.694   1.020  1.8056 -2.7640 -1.8163
 3141TIP3    H231059   1.393   0.783   1.079 -1.3800  0.1102  0.0062
 3142TIP3   OH231060   6.011   3.743   1.467 -0.6445 -0.5128  0.1829
 3142TIP3    H131061   5.987   3.736   1.560 -2.4331  1.8470  0.0064
 3142TIP3    H231062   6.061   3.824   1.462 -1.3569 -0.1350 -1.0384
 3143TIP3   OH231063   1.354   0.067   1.158 -0.2132  0.1986 -0.4313
 3143TIP3    H131064   1.368   0.153   1.119  1.3387  0.4928  0.6928
 3143TIP3    H231065   1.412   0.008   1.110  1.3812  0.4820  1.0487
 3144TIP3   OH231066   6.078   5.231   8.559 -0.4405  0.0037  0.3757
 3144TIP3    H131067   6.115   5.267   8.479  1.0906 -1.2606  0.4708
 3144TIP3    H231068   5.984   5.229   8.543 -0.3878  1.9828 -0.4362
 3145TIP3   OH231069   2.836   0.863   0.076 -0.3333 -0.0753 -0.3116
 3145TIP3    H131070   2.754   0.867   0.125  0.0062  1.7352  0.1773
 3145TIP3    H231071   2.822   0.793   0.012 -1.4639 -1.2392  1.1280
 3146TIP3   OH231072   2.357   4.006   8.268  0.2528  0.5024  0.4341
 3146TIP3    H131073   2.419   4.034   8.200  0.8701 -1.6156  0.0513
 3146TIP3    H231074   2.304   3.938   8.226 -1.7430  1.6101  1.0584
 3147TIP3   OH231075   5.536   5.650   1.626  0.8432 -0.6548 -0.1841
 3147TIP3    H131076   5.631   5.648   1.616  0.8844 -1.4105  0.2409
 3147TIP3    H231077   5.520   5.608   1.710  0.1352 -0.5359 -0.2547
 3148TIP3   OH231078   4.113   2.437   0.625 -0.3299  0.1076 -0.0525
 3148TIP3    H131079   4.093   2.517   0.673  1.8779  0.7065 -0.0298
 3148TIP3    H231080   4.088   2.366   0.685  1.2517  0.8374  1.5685
 3149TIP3   OH231081   5.798   4.417   0.055  0.4869 -0.0400  0.3919
 3149TIP3    H131082   5.773   4.510   0.057  1.3046  0.2782 -1.4971
 3149TIP3    H231083   5.894   4.419   0.049  0.4613 -0.9579 -0.6736
 3150TIP3   OH231084   4.615   0.369   8.936 -0.7036 -0.1503  0.1688
 3150TIP3    H131085   4.618   0.459   8.904 -1.0715  0.2844  1.2999
 3150TIP3    H231086   4.705   0.348   8.960 -0.7847  0.3083  0.9064
 3151TIP3   OH231087   4.234   3.894   1.556 -0.2289  0.3652  0.0279
 3151TIP3    H131088   4.180   3.822   1.523 -1.3306  1.5895 -0.9716
 3151TIP3    H231089   4.307   3.898   1.495 -0.5919  0.5936 -0.4003
 3152TIP3   OH231090   0.284   1.709   3.340 -0.0479 -0.0286  0.1256
 3152TIP3    H131091   0.296   1.647   3.411 -3.8418 -0.6500  0.4153
 3152TIP3    H231092   0.282   1.795   3.382  1.5678  0.0206  0.1772
 3153TIP3   OH231093   6.190   3.031   2.573  0.5853  0.2464 -0.0080
 3153TIP3    H131094   6.282   3.057   2.574  0.9351 -0.7863 -1.6149
 3153TIP3    H231095   6.143   3.108   2.605  1.8277  1.7044 -1.4831
 3154TIP3   OH231096   5.320   3.719   2.098  0.7163 -0.2873  0.2062
 3154TIP3    H131097   5.261   3.688   2.029  0.4514 -0.6039  0.5678
 3154TIP3    H231098   5.263   3.771   2.156  1.1347  0.7980 -0.3378
 3155TIP3   OH231099   1.375   4.205   1.022 -0.8360  0.3891  0.3675
 3155TIP3    H131100   1.469   4.190   1.017 -0.7551  0.9558 -0.0495
 3155TIP3    H231101   1.340   4.132   1.073 -0.5016 -1.2128 -1.5548
 3156TIP3   OH231102   3.563   6.440   0.505 -0.0408  0.6526 -0.0830
 3156TIP3    H131103   3.536   6.395   0.585 -0.1045 -0.4586 -0.7133
 3156TIP3    H231104   3.656   6.421   0.497 -0.1854  0.1580 -0.6475
 3157TIP3   OH231105   2.607   0.068   2.090  0.1131 -0.0039 -0.3925
 3157TIP3    H131106   2.647   0.114   2.164 -0.7805  0.5556 -0.2343
 3157TIP3    H231107   2.602  -0.023   2.118 -1.2341  0.3729  0.7371
 3158TIP3   OH231108   3.072   4.769   3.053  0.0559 -0.5593 -0.3261
 3158TIP3    H131109   3.036   4.712   3.121  1.2083  0.5745  1.3019
 3158TIP3    H231110   2.995   4.816   3.018 -0.3967  0.0696  1.4027
 3159TIP3   OH231111   4.659   3.301   7.786 -0.0124 -0.1570  0.5709
 3159TIP3    H131112   4.717   3.225   7.796  0.8488  0.7829  4.0970
 3159TIP3    H231113   4.577   3.265   7.754  1.0071 -2.2565  0.1785
 3160TIP3   OH231114   4.176   0.388   8.825 -0.0499  0.5409 -0.9017
 3160TIP3    H131115   4.155   0.358   8.913 -2.0667 -2.6850 -2.2939
 3160TIP3    H231116   4.263   0.351   8.807 -0.0456  0.3932 -0.5774
 3161TIP3   OH231117   6.160   0.144   8.222 -0.2277 -0.5459  0.7785
 3161TIP3    H131118   6.141   0.119   8.132  0.6690 -1.5814  0.8520
 3161TIP3    H231119   6.183   0.237   8.217  3.1463 -1.3091 -0.6716
 3162TIP3   OH231120   3.535   2.016   8.584 -0.3467 -0.5500 -0.7419
 3162TIP3    H131121   3.591   2.042   8.658  3.4641 -0.4980 -3.3507
 3162TIP3    H231122   3.489   2.096   8.560  1.1154  0.3830 -0.5727
 3163TIP3   OH231123   2.581   3.045   2.244 -0.5589  0.3688 -0.7276
 3163TIP3    H131124   2.537   2.981   2.188 -0.5057  1.0002 -1.5176
 3163TIP3    H231125   2.515   3.112   2.260 -0.4537  0.3804 -0.3502
 3164TIP3   OH231126   0.628   4.035   8.788 -0.2736 -0.4860  0.1876
 3164TIP3    H131127   0.718   4.014   8.762 -0.2907  0.6555 -0.9030
 3164TIP3    H231128   0.631   4.128   8.811 -0.8573 -0.8250  1.6951
 3165TIP3   OH231129   0.923   4.687   1.152  0.2312 -0.5278  0.0996
 3165TIP3    H131130   0.941   4.593   1.157 -0.3127 -0.6002  0.9290
 3165TIP3    H231131   0.832   4.692   1.121  1.0102 -0.2041 -2.3652
 3166TIP3   OH231132   0.087   3.884   1.002 -0.4835 -0.6679  0.8516
 3166TIP3    H131133   0.126   3.858   1.085  1.9134  1.0625  0.3818
 3166TIP3    H231134   0.031   3.959   1.025 -1.0687 -1.1638  1.0839
 3167TIP3   OH231135   5.565   3.941   8.527 -0.1513  0.3516  0.0056
 3167TIP3    H131136   5.600   3.970   8.442 -0.2693 -0.6458 -0.3959
 3167TIP3    H231137   5.486   3.994   8.539  0.0897  0.7904 -0.3219
 3168TIP3   OH231138   1.913   3.789   8.068 -0.6238 -0.9898  0.6800
 3168TIP3    H131139   1.858   3.822   7.997  0.3949 -0.7403 -0.0104
 3168TIP3    H231140   1.888   3.697   8.076 -1.7051 -0.6897  0.9249
 3169TIP3   OH231141   1.161   0.866   2.608  0.1539 -0.1254  0.1134
 3169TIP3    H131142   1.193   0.956   2.596 -0.9536  0.3004  0.3097
 3169TIP3    H231143   1.154   0.856   2.703 -1.6699  0.2945  0.0510
 3170TIP3   OH231144   3.079   3.980   9.207 -0.2806 -0.6564  0.0839
 3170TIP3    H131145   3.013   3.962   9.274  0.3988 -1.8215  0.4525
 3170TIP3    H231146   3.101   3.894   9.170  0.2876 -0.1728 -0.7497
 3171TIP3   OH231147   2.821   0.548   1.858  0.2651  0.1072 -0.2245
 3171TIP3    H131148   2.891   0.496   1.819  0.4122 -0.1058  0.3087
 3171TIP3    H231149   2.867   0.616   1.908  0.0755  0.6968 -0.8396
 3172TIP3   OH231150   1.283   1.966   0.476 -0.1960  0.4644 -0.1224
 3172TIP3    H131151   1.196   1.994   0.504 -1.2608 -1.6955 -1.1227
 3172TIP3    H231152   1.334   1.962   0.557 -1.7519 -0.7006  0.8324
 3173TIP3   OH231153   3.448   5.659   1.550 -0.0188  0.0904 -0.2122
 3173TIP3    H131154   3.384   5.729   1.535  0.3969  0.5970  0.3365
 3173TIP3    H231155   3.436   5.599   1.476  0.2848  1.2356 -1.2221
 3174TIP3   OH231156   0.994   5.001   1.124  0.0629  0.2117  0.0822
 3174TIP3    H131157   0.907   5.036   1.139  0.7777  1.0643  2.7724
 3174TIP3    H231158   0.981   4.908   1.109 -1.3139  0.3566  0.3118
 3175TIP3   OH231159   1.096   0.415   8.145  0.3693  0.1596 -0.3076
 3175TIP3    H131160   1.136   0.500   8.165 -0.7627  0.1305  2.5930
 3175TIP3    H231161   1.050   0.430   8.062 -0.3790  2.6479  0.4524
 3176TIP3   OH231162   3.644   5.502   3.327 -0.9126 -0.0562  0.1177
 3176TIP3    H131163   3.594   5.485   3.248  0.6195  0.4658 -1.0108
 3176TIP3    H231164   3.735   5.482   3.303 -0.2423  1.3236  1.3571
 3177TIP3   OH231165   2.126   3.174   8.511  0.5048 -0.4729  0.5314
 3177TIP3    H131166   2.057   3.218   8.562 -0.4669 -1.4680  0.1214
 3177TIP3    H231167   2.126   3.220   8.427 -0.2416 -0.9880  0.2401
 3178TIP3   OH231168   2.624   4.342   8.967  0.7579  1.0718  0.4429
 3178TIP3    H131169   2.591   4.368   9.053 -2.5586 -0.4815 -0.2066
 3178TIP3    H231170   2.691   4.277   8.986 -0.3702  0.2818  1.8863
 3179TIP3   OH231171   4.732   1.452   3.485  0.3377 -0.1980 -0.8471
 3179TIP3    H131172   4.641   1.465   3.459  0.0716  1.0439  0.6090
 3179TIP3    H231173   4.782   1.471   3.405 -0.6469 -0.8502 -1.6485
 3180TIP3   OH231174   2.984   2.886   1.341  0.1333 -0.0630 -0.0990
 3180TIP3    H131175   3.041   2.898   1.265 -0.7427 -2.7327 -1.2797
 3180TIP3    H231176   2.930   2.965   1.343  0.3964  0.2260 -2.0783
 3181TIP3   OH231177   3.821   4.964   8.813  0.3406 -0.2149 -0.0870
 3181TIP3    H131178   3.860   5.051   8.803  0.3267 -0.0844  0.9015
 3181TIP3    H231179   3.895   4.904   8.799  0.8332  0.0216  1.3363
 3182TIP3   OH231180   1.298   3.597   8.490 -0.8040 -0.1277 -0.4109
 3182TIP3    H131181   1.322   3.544   8.414 -1.7008 -0.6004 -0.3832
 3182TIP3    H231182   1.341   3.554   8.564 -0.3575  0.0287 -0.5762
 3183TIP3   OH231183   5.307   0.842   8.569  0.2940  0.1652 -0.1231
 3183TIP3    H131184   5.334   0.933   8.555  0.5202  0.0506 -0.4520
 3183TIP3    H231185   5.226   0.833   8.519 -0.6679  0.6620  1.3079
 3184TIP3   OH231186   6.018   4.515   0.314 -0.0640  0.3722 -0.0038
 3184TIP3    H131187   6.081   4.573   0.271 -0.9878  2.5600  1.4057
 3184TIP3    H231188   6.005   4.554   0.401 -1.5706 -1.3635  0.6116
 3185TIP3   OH231189   5.933   5.371   8.752 -0.4691 -0.1551 -0.3245
 3185TIP3    H131190   6.002   5.306   8.740  0.8361  1.1446 -0.2049
 3185TIP3    H231191   5.957   5.442   8.692  0.2038  1.7941  2.0861
 3186TIP3   OH231192   6.161   5.103   2.872  0.1295 -0.2477 -0.5795
 3186TIP3    H131193   6.148   5.028   2.815 -3.6935  1.0965 -1.7701
 3186TIP3    H231194   6.098   5.092   2.943 -0.4917  1.7639 -0.7559
 3187TIP3   OH231195   6.561   3.801   1.601  0.2033  0.1217  0.3743
 3187TIP3    H131196   6.605   3.827   1.682  0.4560 -1.5680  0.8309
 3187TIP3    H231197   6.468   3.808   1.621  0.2639  0.7053  0.4581
 3188TIP3   OH231198   0.297   0.576   0.932  0.4976 -0.2563  0.2671
 3188TIP3    H131199   0.379   0.578   0.982  0.7915  0.9002 -0.2183
 3188TIP3    H231200   0.323   0.549   0.844  0.2172 -0.7655  0.3382
 3189TIP3   OH231201   2.876   5.418   3.187 -0.1175  0.5820  0.5448
 3189TIP3    H131202   2.947   5.365   3.151 -0.9650  0.4819 -1.0521
 3189TIP3    H231203   2.920   5.478   3.248  1.2223 -0.0060  0.2016
 3190TIP3   OH231204   6.634   2.994   8.780  0.3328 -0.2502  0.5180
 3190TIP3    H131205   6.636   3.060   8.849  1.6533  0.6519 -0.3397
 3190TIP3    H231206   6.697   2.927   8.808  2.3079  1.0256 -0.6021
 3191TIP3   OH231207   0.780   3.799   1.908  0.0079  0.4787 -0.2781
 3191TIP3    H131208   0.708   3.858   1.931 -1.5022 -1.6788  0.8485
 3191TIP3    H231209   0.739   3.729   1.857  1.0829 -1.2796  1.1552
 3192TIP3   OH231210   5.165   6.288   8.327  0.4584 -0.2417  0.1026
 3192TIP3    H131211   5.071   6.306   8.336  0.3722 -0.1179 -0.9143
 3192TIP3    H231212   5.169   6.211   8.271  0.9435 -0.9918  1.1422
 3193TIP3   OH231213   1.192   1.431   0.358 -0.2034  0.4123  0.6480
 3193TIP3    H131214   1.214   1.359   0.418 -0.2423  0.0354  0.2198
 3193TIP3    H231215   1.277   1.469   0.336 -0.2288  0.9230  1.3802
 3194TIP3   OH231216   4.994   2.914   0.392  0.0465  0.0571  0.1209
 3194TIP3    H131217   5.013   2.827   0.429 -1.5723 -2.2124 -3.7818
 3194TIP3    H231218   5.080   2.953   0.379  1.0416 -2.1040 -0.3571
 3195TIP3   OH231219   2.415   0.808   2.815  0.1412 -0.6853 -0.6679
 3195TIP3    H131220   2.423   0.903   2.829 -2.4696 -0.2267 -1.6536
 3195TIP3    H231221   2.465   0.770   2.887  0.8671  1.4301  0.0525
 3196TIP3   OH231222   4.977   3.531   1.571 -0.5257 -0.2630 -0.5827
 3196TIP3    H131223   4.995   3.622   1.549 -2.3375  0.8464  1.9379
 3196TIP3    H231224   5.059   3.499   1.610  0.6032 -0.2701 -2.8167
 3197TIP3   OH231225   5.132   1.019   7.555 -0.0721  0.0522  0.0564
 3197TIP3    H131226   5.170   0.973   7.630 -0.0583  1.2706  0.8226
 3197TIP3    H231227   5.189   0.995   7.482  1.3174  0.6615  0.8888
 3198TIP3   OH231228   2.899   3.378   2.992 -0.6088 -0.5536  0.7464
 3198TIP3    H131229   2.806   3.362   3.008 -0.6605 -0.5290  0.4764
 3198TIP3    H231230   2.937   3.391   3.079 -1.0337  0.3888  0.8067
 3199TIP3   OH231231   2.961   1.342   6.979 -0.3580 -0.0121  0.4773
 3199TIP3    H131232   2.885   1.332   7.036 -0.2924  1.0129  0.7617
 3199TIP3    H231233   2.968   1.437   6.964  0.0836 -0.2030 -0.6124
 3200TIP3   OH231234   3.273   2.580   1.235  0.5891  0.2588  0.2748
 3200TIP3    H131235   3.291   2.572   1.141 -1.4575 -0.2244 -0.1196
 3200TIP3    H231236   3.268   2.674   1.251 -0.3071  0.3261 -0.3750
 3201TIP3   OH231237   3.440   2.855   9.093 -0.3117  0.4159  0.2172
 3201TIP3    H131238   3.514   2.844   9.033 -0.2898 -3.5297  0.6805
 3201TIP3    H231239   3.375   2.791   9.063 -2.6967  2.2731  1.1049
 3202TIP3   OH231240   5.144   3.240   9.132 -0.2139  0.2295 -0.2752
 3202TIP3    H131241   5.096   3.232   9.215 -1.0664 -0.8652 -0.8566
 3202TIP3    H231242   5.114   3.166   9.079  1.2220  0.2148 -1.1229
 3203TIP3   OH231243   1.233   5.312   9.030  0.0907  0.0823  0.0148
 3203TIP3    H131244   1.294   5.238   9.037  0.5378  0.4000 -0.4418
 3203TIP3    H231245   1.150   5.272   9.004  0.5043 -0.1983 -0.9171
 3204TIP3   OH231246   5.975   3.789   2.000 -0.1144 -0.7159  0.1861
 3204TIP3    H131247   5.905   3.727   1.979  0.0121 -0.2782 -1.7015
 3204TIP3    H231248   6.048   3.733   2.028 -0.3210 -1.3770 -0.5504
 3205TIP3   OH231249   1.746   5.392   2.351  0.2292  0.1325  0.0168
 3205TIP3    H131250   1.676   5.350   2.401 -1.3685 -0.1888 -2.3185
 3205TIP3    H231251   1.760   5.333   2.277  1.6096  1.1821 -0.5861
 3206TIP3   OH231252   3.385   3.777   8.987  0.2284 -0.4417 -0.1870
 3206TIP3    H131253   3.405   3.685   8.973 -2.7877 -1.0236 -1.3037
 3206TIP3    H231254   3.314   3.777   9.051 -1.0157  0.9844 -1.4985
 3207TIP3   OH231255   3.492   5.270   2.299  0.1095 -0.2437 -0.1106
 3207TIP3    H131256   3.414   5.254   2.352 -0.5902  0.9270 -0.7265
 3207TIP3    H231257   3.561   5.291   2.362  0.4910 -3.1754  0.5720
 3208TIP3   OH231258   3.950   5.236   0.842  0.4690  0.2524 -0.0512
 3208TIP3    H131259   3.898   5.281   0.774 -0.8687 -0.7220  0.2761
 3208TIP3    H231260   3.992   5.307   0.890  0.1053  1.0487 -0.8665
 3209TIP3   OH231261   0.499   5.849   1.894 -0.3163  0.4788 -1.0437
 3209TIP3    H131262   0.525   5.922   1.838 -1.5945  0.8249 -1.2138
 3209TIP3    H231263   0.500   5.773   1.836 -0.0132  0.5441 -1.1270
 3210TIP3   OH231264   0.291   3.788   2.246 -0.4273 -0.3664 -0.5056
 3210TIP3    H131265   0.299   3.850   2.318  0.7329 -1.1380  0.0441
 3210TIP3    H231266   0.234   3.719   2.280  0.2711 -0.8248 -0.2455
 3211TIP3   OH231267   2.323   0.062   8.222  0.4556 -0.7044 -0.5639
 3211TIP3    H131268   2.412   0.050   8.189  0.3485  0.3923 -1.2832
 3211TIP3    H231269   2.318   0.155   8.245 -0.2217 -0.9490  0.3482
 3212TIP3   OH231270   3.550   0.330   1.857  0.3329 -0.1810  0.1121
 3212TIP3    H131271   3.494   0.404   1.882  1.5971  0.3084  1.7055
 3212TIP3    H231272   3.589   0.356   1.773  1.6640  1.5605  1.1919
 3213TIP3   OH231273   4.740   1.437   7.430  0.1239  0.1725  0.4259
 3213TIP3    H131274   4.656   1.395   7.446  0.5480 -0.1259  1.9946
 3213TIP3    H231275   4.727   1.527   7.461  0.0474  0.4434 -0.3819
 3214TIP3   OH231276   3.208   3.944   7.133 -0.6159 -0.8940  0.1965
 3214TIP3    H131277   3.290   3.971   7.173 -1.3725 -0.6602  1.6750
 3214TIP3    H231278   3.154   4.023   7.131 -0.2204 -0.6039 -2.4487
 3215TIP3   OH231279   1.604   4.447   7.305 -0.2695 -0.0250 -0.6064
 3215TIP3    H131280   1.592   4.519   7.244 -2.1464 -0.3998 -0.7505
 3215TIP3    H231281   1.690   4.411   7.284  0.1166  1.3142 -1.4262
 3216TIP3   OH231282   1.929   2.042   1.334  0.5271  0.3580  0.2367
 3216TIP3    H131283   1.876   1.968   1.366 -1.3005  1.2727 -0.4977
 3216TIP3    H231284   1.991   2.003   1.273 -1.7987 -0.4045 -1.7768
 3217TIP3   OH231285   6.669   0.448   3.224  0.0134  0.2809 -0.3211
 3217TIP3    H131286   6.589   0.396   3.223 -0.4963  1.0645 -1.1896
 3217TIP3    H231287   6.734   0.390   3.265 -0.5906 -0.9600 -1.0610
 3218TIP3   OH231288   2.111   2.094   1.077 -0.0556 -0.2311 -0.4763
 3218TIP3    H131289   2.090   2.026   1.013 -0.4593 -0.8574  0.3013
 3218TIP3    H231290   2.132   2.046   1.157 -0.6885  0.5598  0.1865
 3219TIP3   OH231291   3.907   2.723   0.825 -0.8984 -0.5990 -0.3686
 3219TIP3    H131292   3.858   2.804   0.835 -1.9950 -1.2543 -0.2196
 3219TIP3    H231293   3.892   2.697   0.734 -0.2131 -0.4208 -0.5318
 3220TIP3   OH231294   4.902   6.594   0.855  0.1654  0.2710  0.5811
 3220TIP3    H131295   4.953   6.668   0.887  0.8680 -0.3653  0.9744
 3220TIP3    H231296   4.899   6.533   0.929 -2.4268  0.8954  1.0816
 3221TIP3   OH231297   4.867   0.562   8.698  0.1059 -0.1614  0.0179
 3221TIP3    H131298   4.843   0.619   8.625  1.4390 -0.4822 -0.6991
 3221TIP3    H231299   4.839   0.475   8.669 -0.2642 -0.1508  0.3308
 3222TIP3   OH231300   2.922   4.226   1.484 -0.1147 -0.5811 -0.5743
 3222TIP3    H131301   2.969   4.295   1.529 -1.4026  0.2837 -0.4924
 3222TIP3    H231302   2.987   4.158   1.468  1.0170  0.3541 -0.0394
 3223TIP3   OH231303   1.992   5.559   8.511  0.5810  0.2258  0.1306
 3223TIP3    H131304   2.061   5.548   8.576  1.1107  1.9117 -0.1031
 3223TIP3    H231305   2.036   5.598   8.435 -0.3407 -0.1327 -0.6184
 3224TIP3   OH231306   1.746   5.442   0.622  0.3835  0.2338 -0.5420
 3224TIP3    H131307   1.681   5.494   0.575 -0.7394 -2.4721 -2.2229
 3224TIP3    H231308   1.732   5.465   0.714 -1.6152  1.1934 -1.0201
 3225TIP3   OH231309   6.470   5.845   2.248 -0.1488  0.2622  0.0018
 3225TIP3    H131310   6.464   5.861   2.342  0.5238 -2.2334  0.5358
 3225TIP3    H231311   6.410   5.773   2.231  0.1050  0.3391 -1.4048
 3226TIP3   OH231312   5.931   4.699   8.543 -0.0242 -0.0343  0.4142
 3226TIP3    H131313   6.005   4.661   8.496 -1.2848 -2.0407 -0.0642
 3226TIP3    H231314   5.887   4.625   8.585 -0.7643  1.3053  2.1899
 3227TIP3   OH231315   0.201   5.916   8.210 -0.3629 -0.0451  0.4041
 3227TIP3    H131316   0.127   5.855   8.210 -0.8765  0.5689 -0.1178
 3227TIP3    H231317   0.267   5.874   8.265  0.2094 -2.2160 -1.7256
 3228TIP3   OH231318   2.697   4.661   2.833  0.3689  0.5310 -0.1579
 3228TIP3    H131319   2.752   4.623   2.902  1.0004 -0.0428 -0.9574
 3228TIP3    H231320   2.611   4.668   2.873  0.4491 -0.8850  0.3416
 3229TIP3   OH231321   3.726   1.427   0.398 -0.4293 -0.1081  0.4065
 3229TIP3    H131322   3.807   1.442   0.350 -0.7798  4.0155  0.7608
 3229TIP3    H231323   3.753   1.389   0.481  0.8049 -1.1975 -0.4545
 3230TIP3   OH231324   0.250   0.159   8.793  0.0081 -0.3116  0.0544
 3230TIP3    H131325   0.187   0.129   8.858  0.0943 -0.6353 -0.0131
 3230TIP3    H231326   0.335   0.149   8.837  0.0001  0.3362  0.2290
 3231TIP3   OH231327   3.862   0.652   7.556  0.3351 -0.1081 -0.4390
 3231TIP3    H131328   3.803   0.584   7.590  1.0886 -0.2814  0.5541
 3231TIP3    H231329   3.943   0.641   7.605  0.6788  1.1392 -0.6840
 3232TIP3   OH231330   2.128   0.311   8.427 -0.3479  0.3561 -0.4984
 3232TIP3    H131331   2.186   0.308   8.351  0.5721 -3.2954  0.1509
 3232TIP3    H231332   2.181   0.353   8.495 -0.4333  1.7892 -1.2864
 3233TIP3   OH231333   2.996   6.645   0.334 -0.5568 -0.3205  0.1333
 3233TIP3    H131334   3.049   6.567   0.324  0.9678  0.5828  0.8475
 3233TIP3    H231335   2.976   6.672   0.244  1.5710  0.2079 -0.2208
 3234TIP3   OH231336   2.420   4.110   9.126  0.5350 -0.1675 -0.1047
 3234TIP3    H131337   2.426   4.166   9.204 -0.9804 -0.0489 -0.0463
 3234TIP3    H231338   2.508   4.112   9.088  1.2764 -0.1384  1.5326
 3235TIP3   OH231339   1.817   2.149   1.003 -0.3720  0.6296  0.4567
 3235TIP3    H131340   1.903   2.108   1.002  0.1529  1.6256  1.8130
 3235TIP3    H231341   1.767   2.102   0.936  1.3112  0.2522 -0.5776
 3236TIP3   OH231342   1.041   1.678   0.618 -0.9265 -0.2314 -0.0511
 3236TIP3    H131343   1.027   1.755   0.673 -0.5237 -0.4959  0.4345
 3236TIP3    H231344   0.968   1.620   0.639 -0.8603 -0.2651  0.0869
 3237TIP3   OH231345   2.073   2.525   2.078  0.1417 -0.2438  0.3230
 3237TIP3    H131346   2.061   2.591   2.146  0.2927 -0.2839  0.3873
 3237TIP3    H231347   2.068   2.442   2.123  1.1140 -0.2599  0.4277
 3238TIP3   OH231348   4.801   2.562   8.761  0.2098  0.4119  0.1703
 3238TIP3    H131349   4.727   2.582   8.703 -0.6239  1.0279  1.3997
 3238TIP3    H231350   4.879   2.582   8.708 -0.4494 -0.9805 -1.4237
 3239TIP3   OH231351   1.005   3.085   1.168 -0.1414 -0.6022 -0.5406
 3239TIP3    H131352   0.919   3.062   1.135 -0.6760  0.3781  0.1016
 3239TIP3    H231353   1.012   3.180   1.154  0.8814 -0.6852 -0.6914
 3240TIP3   OH231354   1.225   0.669   2.415  0.6184 -0.0694 -0.0689
 3240TIP3    H131355   1.209   0.710   2.500 -0.8627  0.7954 -0.7231
 3240TIP3    H231356   1.320   0.661   2.410  0.6974 -2.0908  2.5217
 3241TIP3   OH231357   1.542   4.959   2.020 -0.5562 -0.4154  0.2044
 3241TIP3    H131358   1.559   4.901   1.946  2.1268  2.2114 -1.5012
 3241TIP3    H231359   1.449   4.980   2.014 -0.5255 -0.7411 -2.0749
 3242TIP3   OH231360   4.367   5.173   7.050 -0.0689 -0.3427  0.3189
 3242TIP3    H131361   4.309   5.158   6.976 -0.1716  1.4218 -0.0095
 3242TIP3    H231362   4.453   5.190   7.010  0.0886 -0.3316  0.6562
 3243TIP3   OH231363   6.134   3.052   2.912 -0.1645  0.2430  0.0265
 3243TIP3    H131364   6.061   3.072   2.970 -0.6696 -0.2037 -0.4460
 3243TIP3    H231365   6.104   3.079   2.825  0.3230  0.2674 -0.1392
 3244TIP3   OH231366   3.598   5.123   0.901  0.6153 -0.0100 -0.2431
 3244TIP3    H131367   3.610   5.216   0.923 -1.2042  0.3081 -0.4085
 3244TIP3    H231368   3.519   5.122   0.846  0.6918 -1.6468 -0.3577
 3245TIP3   OH231369   5.792   3.601   1.888 -0.0750  0.0194  0.0210
 3245TIP3    H131370   5.835   3.516   1.896  0.9153  0.3286 -1.5643
 3245TIP3    H231371   5.721   3.598   1.952  0.1136 -1.8902  0.1999
 3246TIP3   OH231372   3.721   3.880   9.062 -0.1404  0.1319 -0.3930
 3246TIP3    H131373   3.648   3.939   9.079  0.4089  0.9186 -0.7567
 3246TIP3    H231374   3.685   3.793   9.078 -1.0550  0.5353 -0.2108
 3247TIP3   OH231375   6.274   1.252   0.093 -0.4317 -0.0011  0.9078
 3247TIP3    H131376   6.300   1.223   0.180 -0.5929 -1.5970  0.4454
 3247TIP3    H231377   6.193   1.204   0.075  0.2699 -0.6681 -0.6284
 3248TIP3   OH231378   0.471   3.636   0.573  0.2631 -0.6665 -0.3135
 3248TIP3    H131379   0.467   3.625   0.478 -2.2012  0.0637 -0.3608
 3248TIP3    H231380   0.466   3.547   0.607 -2.9406 -0.8239 -0.8941
 3249TIP3   OH231381   0.183   2.754   1.893 -0.2797  0.0361  0.5358
 3249TIP3    H131382   0.113   2.815   1.916 -1.2186 -0.1869 -1.5707
 3249TIP3    H231383   0.263   2.807   1.900 -0.6147  0.3812  2.6260
 3250TIP3   OH231384   1.024   1.183   8.973  0.0655  0.0737  0.0427
 3250TIP3    H131385   1.101   1.191   9.029  1.2910  0.5027 -1.6510
 3250TIP3    H231386   0.950   1.192   9.034  1.3294  0.8628  1.5455
 3251TIP3   OH231387   6.023   1.343   0.651 -0.0413  0.2884 -0.2680
 3251TIP3    H131388   6.024   1.403   0.725  0.7534 -1.2974  1.0888
 3251TIP3    H231389   6.042   1.398   0.575 -1.1126  2.0042  0.6411
 3252TIP3   OH231390   1.676   6.187   2.699 -0.2291 -0.0652 -0.1332
 3252TIP3    H131391   1.656   6.252   2.767 -2.6358  2.1678 -2.6870
 3252TIP3    H231392   1.619   6.113   2.719  0.0835 -0.0068  1.0128
 3253TIP3   OH231393   4.357   3.217   1.129 -0.0674  0.0659  0.2129
 3253TIP3    H131394   4.311   3.293   1.094 -0.1308  0.9048  2.0031
 3253TIP3    H231395   4.450   3.236   1.115 -0.0448  0.8632  1.3608
 3254TIP3   OH231396   2.495   3.688   1.975  0.9731  0.4478 -0.4572
 3254TIP3    H131397   2.501   3.727   1.887 -0.1977  1.3008 -0.1869
 3254TIP3    H231398   2.543   3.749   2.031  0.5810  0.6101 -0.2969
 3255TIP3   OH231399   6.174   2.848   1.774  0.7141 -0.1116 -0.7832
 3255TIP3    H131400   6.260   2.806   1.771  0.2427 -1.2615  0.5115
 3255TIP3    H231401   6.123   2.794   1.835 -0.6767  1.0058 -0.8951
 3256TIP3   OH231402   3.569   5.587   0.144 -0.0619 -0.5128  0.7111
 3256TIP3    H131403   3.517   5.611   0.067  1.2592 -0.1944 -0.1032
 3256TIP3    H231404   3.573   5.668   0.196 -0.3112 -0.5174  0.7383
 3257TIP3   OH231405   5.018   1.924   0.815 -0.1325 -0.2326  0.9562
 3257TIP3    H131406   5.045   1.854   0.756 -1.6017 -0.8635  1.0157
 3257TIP3    H231407   4.925   1.937   0.798  0.6208  3.9434 -1.4071
 3258TIP3   OH231408   0.494   1.613   2.633 -0.1817 -0.0965 -0.5190
 3258TIP3    H131409   0.579   1.568   2.637  0.3263  0.9081  2.3601
 3258TIP3    H231410   0.431   1.549   2.664  0.1205  0.2724  0.9026
 3259TIP3   OH231411   2.557   2.032   2.812  0.2826 -0.2173  0.6379
 3259TIP3    H131412   2.653   2.034   2.820  0.2132 -0.5767  1.5998
 3259TIP3    H231413   2.532   1.948   2.850 -0.3562 -0.4983 -0.3734
 3260TIP3   OH231414   1.691   0.355   8.564 -1.3190 -0.8046  0.6933
 3260TIP3    H131415   1.710   0.448   8.549 -1.0760 -1.1689 -1.6101
 3260TIP3    H231416   1.596   0.351   8.576 -1.1688 -0.1151  2.3930
 3261TIP3   OH231417   4.097   2.236   1.343  0.3427 -0.1759  0.0915
 3261TIP3    H131418   4.056   2.168   1.396  0.2437  0.3778  0.7394
 3261TIP3    H231419   4.190   2.212   1.341  0.3633 -0.1642  0.5994
 3262TIP3   OH231420   4.691   3.666   2.041 -0.1552  0.6508 -0.2351
 3262TIP3    H131421   4.704   3.695   2.132 -0.6845 -0.0490  0.0796
 3262TIP3    H231422   4.757   3.713   1.991  1.6230 -0.5467  0.8384
 3263TIP3   OH231423   1.928   5.540   2.107 -0.0740  0.3042 -0.0334
 3263TIP3    H131424   1.845   5.538   2.060 -1.3939  0.7070  2.1154
 3263TIP3    H231425   1.946   5.448   2.129  0.3869  0.1509 -1.0141
 3264TIP3   OH231426   1.476   2.175   2.199 -0.2060  0.2579 -0.0133
 3264TIP3    H131427   1.424   2.152   2.276 -1.3529  1.7243 -0.2951
 3264TIP3    H231428   1.567   2.161   2.226 -0.5594  1.0632  1.7185
 3265TIP3   OH231429   1.122   3.251   0.890 -0.3216  0.2006  0.4031
 3265TIP3    H131430   1.062   3.301   0.945 -1.2513  1.0200 -1.2848
 3265TIP3    H231431   1.170   3.317   0.840 -0.4655 -0.5329 -0.7396
 3266TIP3   OH231432   3.553   6.627   8.623 -0.4036 -0.4545 -0.2133
 3266TIP3    H131433   3.549   6.665   8.535 -1.1171 -1.0652 -0.4532
 3266TIP3    H231434   3.559   6.532   8.608  0.3963 -0.5107  0.3881
 3267TIP3   OH231435   0.130   1.900   1.464  0.4511 -0.3029 -0.2207
 3267TIP3    H131436   0.213   1.894   1.417  0.4434 -0.9130 -0.1658
 3267TIP3    H231437   0.113   1.811   1.494  0.8447  0.1778  1.5879
 3268TIP3   OH231438   0.977   6.520   1.681 -0.1695 -0.0531  0.2450
 3268TIP3    H131439   0.968   6.615   1.688 -0.4350 -0.1052  0.6342
 3268TIP3    H231440   1.066   6.507   1.648 -0.0545  0.3238  0.3967
 3269TIP3   OH231441   2.217   4.892   0.010  0.0248 -0.0892  0.1444
 3269TIP3    H131442   2.165   4.961   0.051 -0.0331 -1.2380  2.1890
 3269TIP3    H231443   2.252   4.842   0.084 -2.0616 -3.8497 -1.1075
 3270TIP3   OH231444   6.700   1.209   9.075 -0.5369 -0.2502 -0.3896
 3270TIP3    H131445   6.761   1.135   9.084  0.8232  0.9919  1.1488
 3270TIP3    H231446   6.633   1.193   9.141  1.3506  1.2630  2.0900
 3271TIP3   OH231447   0.349   6.500   8.341  0.2919  0.4326  0.2684
 3271TIP3    H131448   0.256   6.520   8.344  0.1909 -0.0485  0.4637
 3271TIP3    H231449   0.366   6.475   8.250  0.5052  1.7790 -0.0778
 3272TIP3   OH231450   1.529   5.756   1.999  0.1621 -0.0976 -0.3702
 3272TIP3    H131451   1.572   5.819   2.057 -0.1115 -1.2120  1.1202
 3272TIP3    H231452   1.584   5.677   2.006  0.1654 -0.2277 -1.7245
 3273TIP3   OH231453   5.303   0.228   0.048  0.4435 -0.4060 -0.7994
 3273TIP3    H131454   5.310   0.133   0.044  0.3936 -0.5057  0.8861
 3273TIP3    H231455   5.358   0.260  -0.023  1.3421 -1.6675 -0.6786
 3274TIP3   OH231456   0.337   2.390   8.234 -0.1122 -0.3736 -0.1412
 3274TIP3    H131457   0.422   2.377   8.277  1.0864 -1.2229 -2.5637
 3274TIP3    H231458   0.312   2.479   8.256  1.8206  0.1702  0.0126
 3275TIP3   OH231459   4.424   1.582   7.478  0.1347 -0.2390 -0.0811
 3275TIP3    H131460   4.516   1.604   7.464  0.1841 -0.6277 -0.4202
 3275TIP3    H231461   4.426   1.504   7.534 -0.0067  0.1046  0.4025
 3276TIP3   OH231462   3.962   5.880   1.719 -0.0927  0.2010 -0.3173
 3276TIP3    H131463   4.047   5.892   1.676 -0.5431  1.6693 -0.8324
 3276TIP3    H231464   3.907   5.950   1.685 -1.2879 -0.2429  0.6206
 3277TIP3   OH231465   1.773   3.470   1.972 -0.2567 -0.2454  0.1098
 3277TIP3    H131466   1.786   3.433   2.059 -2.3367  0.8768  0.9679
 3277TIP3    H231467   1.679   3.460   1.956  0.1684 -0.9697 -2.2846
 3278TIP3   OH231468   4.864   0.684   8.016  0.6112 -0.3292 -0.4860
 3278TIP3    H131469   4.836   0.775   8.029  2.4768  0.5716 -2.1975
 3278TIP3    H231470   4.958   0.690   7.997  1.2418 -2.8257  1.2731
 3279TIP3   OH231471   5.248   3.768   1.480 -0.0959  0.0092  0.3904
 3279TIP3    H131472   5.295   3.708   1.537  1.3754  0.0623 -0.6988
 3279TIP3    H231473   5.160   3.773   1.517  0.5374 -0.6867  2.0604
 3280TIP3   OH231474   0.463   2.246   0.759 -0.4092 -0.6377 -0.0033
 3280TIP3    H131475   0.424   2.279   0.840 -2.5684  0.5292 -1.4487
 3280TIP3    H231476   0.393   2.197   0.716  0.1019  0.3176 -2.0218
 3281TIP3   OH231477   1.481   6.355   8.857  0.0696 -0.2609  0.4507
 3281TIP3    H131478   1.434   6.338   8.939  0.7802 -0.2260  0.8664
 3281TIP3    H231479   1.524   6.439   8.870  2.2421 -1.3982  1.0147
 3282TIP3   OH231480   2.366   1.153   8.348 -0.0483  0.1180  0.3141
 3282TIP3    H131481   2.361   1.172   8.255 -1.1198  1.6984  0.6590
 3282TIP3    H231482   2.446   1.196   8.378  0.2458 -0.3109  0.1599
 3283TIP3   OH231483   6.289   2.746   8.528  0.0916 -0.8965  0.1572
 3283TIP3    H131484   6.259   2.714   8.613 -0.7212  0.5647  0.4468
 3283TIP3    H231485   6.217   2.726   8.468 -0.0853 -0.3150  0.1769
 3284TIP3   OH231486   4.119   2.039   1.087  0.3689  0.3495  0.8314
 3284TIP3    H131487   4.172   2.043   1.008  0.0990 -2.0166  0.4435
 3284TIP3    H231488   4.034   2.074   1.061  0.6007  0.5592  0.3573
 3285TIP3   OH231489   2.969   1.674   9.049  0.1251 -0.3744  0.3423
 3285TIP3    H131490   2.875   1.682   9.034  0.0884 -0.9847  0.2025
 3285TIP3    H231491   3.010   1.713   8.972  0.0066  0.7298  0.8227
 3286TIP3   OH231492   6.530   6.652   0.935  0.0307 -0.4111  0.3743
 3286TIP3    H131493   6.603   6.706   0.905 -0.5457 -0.5921 -1.5320
 3286TIP3    H231494   6.540   6.647   1.030  0.8433  1.9432  0.4692
 3287TIP3   OH231495   2.550   5.800   1.299 -0.4437  0.4259 -0.1947
 3287TIP3    H131496   2.503   5.736   1.353 -1.4845  1.8899  0.7383
 3287TIP3    H231497   2.481   5.839   1.244  0.1218  0.9299 -0.5530
 3288TIP3   OH231498   3.733   3.069   2.166  0.4394 -0.1307 -0.3026
 3288TIP3    H131499   3.785   3.102   2.239 -0.4180 -0.0266  0.2814
 3288TIP3    H231500   3.671   3.009   2.206 -0.8281  0.8152 -0.7592
 3289TIP3   OH231501   2.466   1.051   2.082 -0.0891 -0.1259  0.4290
 3289TIP3    H131502   2.453   1.112   2.009  0.8970 -0.6005 -0.1613
 3289TIP3    H231503   2.458   1.105   2.160 -0.6084  0.4956 -0.0475
 3290TIP3   OH231504   2.850   0.175   8.681 -0.0781  0.0403 -0.2474
 3290TIP3    H131505   2.882   0.105   8.739 -0.9061 -1.1288 -1.1569
 3290TIP3    H231506   2.905   0.169   8.603  0.8303  1.4169  0.2372
 3291TIP3   OH231507   6.501   3.540   2.950  0.7351  0.3971  0.8829
 3291TIP3    H131508   6.419   3.584   2.971 -0.7003 -1.6638 -0.0067
 3291TIP3    H231509   6.533   3.583   2.871 -1.3140 -0.8462 -0.7369
 3292TIP3   OH231510   6.633   2.485   9.072 -0.4214  0.0918  0.6734
 3292TIP3    H131511   6.703   2.465   9.011  0.1980 -0.4711  1.5422
 3292TIP3    H231512   6.606   2.574   9.050 -1.0015 -0.4880 -1.1504
 3293TIP3   OH231513   4.325   5.317   7.285 -0.0902 -0.3338  0.4033
 3293TIP3    H131514   4.328   5.264   7.205  0.3725  2.2586 -1.4174
 3293TIP3    H231515   4.412   5.309   7.323  0.0850 -0.6097 -0.0518
 3294TIP3   OH231516   3.360   0.426   8.232  0.3510  0.1528 -0.1540
 3294TIP3    H131517   3.444   0.385   8.255 -0.8749 -2.3008  0.3799
 3294TIP3    H231518   3.346   0.491   8.300  2.0256  0.9597 -0.5318
 3295TIP3   OH231519   5.706   4.824   2.241  0.0135  0.1557 -0.5866
 3295TIP3    H131520   5.634   4.885   2.253  2.5418  3.1442  0.8785
 3295TIP3    H231521   5.708   4.808   2.146 -2.1250  0.4714 -0.7279
 3296TIP3   OH231522   1.683   1.895   8.903  0.2247 -0.2666 -0.4322
 3296TIP3    H131523   1.753   1.869   8.962  0.4223  0.0929 -0.5045
 3296TIP3    H231524   1.697   1.989   8.889 -0.9227  0.0450  0.4282
 3297TIP3   OH231525   2.213   1.687   8.023  0.0752  0.8233 -0.4695
 3297TIP3    H131526   2.190   1.676   8.115  0.7784 -1.3947 -0.5137
 3297TIP3    H231527   2.287   1.748   8.024  0.6638  0.1084  0.5236
 3298TIP3   OH231528   0.315   4.753   1.940  0.2409 -0.1142 -0.1807
 3298TIP3    H131529   0.305   4.691   2.013 -0.9924  0.6411  0.3273
 3298TIP3    H231530   0.347   4.699   1.867  0.1553 -1.1554  0.5205
 3299TIP3   OH231531   2.638   5.479   6.763  0.2514  0.1419 -0.4916
 3299TIP3    H131532   2.674   5.475   6.675  0.4107 -0.7907 -0.3902
 3299TIP3    H231533   2.572   5.548   6.759  0.8478  0.6874 -1.1177
 3300TIP3   OH231534   2.804   2.875   1.990 -0.5115  0.2059 -0.4176
 3300TIP3    H131535   2.861   2.920   1.927  1.0312 -1.2865 -0.1453
 3300TIP3    H231536   2.841   2.896   2.075  0.7767 -2.1559 -0.3116
 3301TIP3   OH231537   1.625   3.503   7.781  0.5029  0.5648 -0.5953
 3301TIP3    H131538   1.543   3.551   7.791  0.2550  0.1427 -0.5690
 3301TIP3    H231539   1.624   3.473   7.690 -0.2351 -0.9718 -0.1189
 3302TIP3   OH231540   1.924   4.321   8.137  0.6703 -0.0768 -0.3304
 3302TIP3    H131541   1.973   4.378   8.077  1.3794 -1.1408 -0.7834
 3302TIP3    H231542   1.991   4.266   8.178  0.0958  0.0320  0.7912
 3303TIP3   OH231543   2.532   4.367   1.618 -0.3824  0.0052  0.0745
 3303TIP3    H131544   2.455   4.407   1.659 -0.8913 -0.4443 -0.4209
 3303TIP3    H231545   2.543   4.417   1.537 -0.8581 -0.6637 -0.4157
 3304TIP3   OH231546   1.879   3.272   2.555  0.3108 -0.2871 -0.7820
 3304TIP3    H131547   1.795   3.268   2.509 -0.2439  0.7155  0.0789
 3304TIP3    H231548   1.856   3.308   2.641  1.4681 -1.0841 -0.1208
 3305TIP3   OH231549   5.415   4.554   2.808  0.0399  0.4767  0.0320
 3305TIP3    H131550   5.456   4.518   2.887 -0.2945 -0.9704 -0.4204
 3305TIP3    H231551   5.387   4.477   2.759 -0.2406  1.3708 -1.2501
 3306TIP3   OH231552   2.019   0.069   1.731  0.4704 -0.2389  0.2438
 3306TIP3    H131553   1.960   0.036   1.665  0.3568  0.2766  0.0797
 3306TIP3    H231554   2.078   0.128   1.684 -0.2970  0.9868  0.7572
 3307TIP3   OH231555   3.176   2.470   8.807  0.7770  0.1539  0.5643
 3307TIP3    H131556   3.164   2.457   8.713 -2.2649  1.1001  0.7413
 3307TIP3    H231557   3.227   2.393   8.834  0.9190 -0.6405 -1.6700
 3308TIP3   OH231558   6.598   5.080   8.305  0.3210  0.5270  0.4961
 3308TIP3    H131559   6.561   5.151   8.251  0.0201 -0.0034 -0.0005
 3308TIP3    H231560   6.617   5.010   8.243 -0.4068 -0.2509  1.1281
 3309TIP3   OH231561   6.138   4.014   2.448  0.5632 -0.0641  0.4373
 3309TIP3    H131562   6.149   4.042   2.539 -0.0458  0.8637  0.2373
 3309TIP3    H231563   6.125   4.095   2.399  1.3455 -0.5122 -0.5616
 3310TIP3   OH231564   0.970   4.315   8.312  0.0473  0.2475 -0.0889
 3310TIP3    H131565   1.013   4.372   8.375 -1.1327 -1.2876  2.2301
 3310TIP3    H231566   0.876   4.333   8.322 -0.2220 -0.6981 -0.7201
 3311TIP3   OH231567   4.769   5.871   9.108 -0.0862 -0.1564  0.2758
 3311TIP3    H131568   4.843   5.816   9.134 -0.0540 -0.7771 -1.0577
 3311TIP3    H231569   4.790   5.958   9.142  0.7762 -0.5462  0.7568
 3312TIP3   OH231570   2.590   3.313   0.775 -0.1768 -0.1102 -0.3248
 3312TIP3    H131571   2.585   3.359   0.691  0.8001  0.0009 -0.3297
 3312TIP3    H231572   2.534   3.364   0.833  0.4187  0.7502 -0.4889
 3313TIP3   OH231573   5.267   6.703   1.085  0.0831 -0.0939 -0.4550
 3313TIP3    H131574   5.231   6.680   0.999  0.3049  2.2440 -1.2329
 3313TIP3    H231575   5.253   6.624   1.138 -2.1559 -0.8163 -1.9495
 3314TIP3   OH231576   3.474   4.586   0.830  0.4589 -0.3355 -0.3416
 3314TIP3    H131577   3.491   4.511   0.773 -0.7637 -2.1315  1.5400
 3314TIP3    H231578   3.386   4.572   0.864  0.0267  2.1910 -0.1952
 3315TIP3   OH231579   5.239   3.215   7.691 -0.0259 -0.3771  0.7929
 3315TIP3    H131580   5.285   3.299   7.687 -0.4990 -0.0974  1.1446
 3315TIP3    H231581   5.244   3.181   7.602 -0.5963  0.4381  0.4421
 3316TIP3   OH231582   2.080   2.845   7.035 -0.2539 -0.7266  0.4609
 3316TIP3    H131583   2.145   2.899   6.990  1.8416 -1.0861  2.8130
 3316TIP3    H231584   1.999   2.896   7.031  1.3154  2.0580  1.4275
 3317TIP3   OH231585   4.830   4.807   7.246 -0.5431 -0.4101 -0.0532
 3317TIP3    H131586   4.876   4.839   7.323  1.5822  0.5450 -1.5919
 3317TIP3    H231587   4.894   4.815   7.175 -1.7704 -2.9348 -1.6111
 3318TIP3   OH231588   2.259   6.045   0.394 -0.1566 -0.4107  0.4984
 3318TIP3    H131589   2.193   6.041   0.463  0.4347 -1.5091  1.0236
 3318TIP3    H231590   2.246   5.964   0.344 -0.6267  0.4084 -0.7384
 3319TIP3   OH231591   2.466   2.355   0.029  0.0990  0.1095 -0.1443
 3319TIP3    H131592   2.523   2.422   0.067 -0.4372  0.1566  0.6047
 3319TIP3    H231593   2.517   2.274   0.037  0.3376  0.2611 -0.1142
 3320TIP3   OH231594   4.663   1.330   2.252  0.0093 -0.0700 -0.6992
 3320TIP3    H131595   4.688   1.365   2.167 -1.1630  0.3075 -0.9112
 3320TIP3    H231596   4.735   1.354   2.310  1.5326 -1.6192 -1.8639
 3321TIP3   OH231597   0.555   3.746   2.283  0.1899 -0.4671  0.1294
 3321TIP3    H131598   0.529   3.784   2.367  1.1126  0.1701  0.1463
 3321TIP3    H231599   0.473   3.729   2.237 -0.2900  0.1825  0.7287
 3322TIP3   OH231600   4.045   4.442   1.346  0.0108  0.0278 -0.1173
 3322TIP3    H131601   4.097   4.361   1.354 -1.5228 -0.9650  0.2641
 3322TIP3    H231602   3.991   4.428   1.269 -0.1699  0.7559 -0.1251
 3323TIP3   OH231603   2.642   6.156   8.048 -0.1013 -0.0314 -0.7825
 3323TIP3    H131604   2.577   6.226   8.049 -0.6788 -0.5544 -1.1905
 3323TIP3    H231605   2.592   6.076   8.064  0.4653 -0.4245 -0.9466
 3324TIP3   OH231606   5.605   1.040   8.319 -0.0931 -0.2026  0.1799
 3324TIP3    H131607   5.638   1.058   8.407  1.7164  0.1626 -0.5124
 3324TIP3    H231608   5.675   1.070   8.261 -0.3384 -2.2850 -1.3129
 3325TIP3   OH231609   0.897   3.183   2.465  0.4070  0.3782 -0.0738
 3325TIP3    H131610   0.868   3.274   2.470  1.5848  0.7343  0.7743
 3325TIP3    H231611   0.981   3.182   2.513  0.4021 -1.1490 -0.0519
 3326TIP3   OH231612   0.464   0.481   3.233 -0.4288  0.0066 -0.4634
 3326TIP3    H131613   0.517   0.556   3.260  0.0369 -0.3590 -0.3674
 3326TIP3    H231614   0.527   0.411   3.217 -0.9064 -0.5299 -0.0151
 3327TIP3   OH231615   6.378   6.275   2.075  0.3202  0.1748  0.3766
 3327TIP3    H131616   6.301   6.332   2.067 -0.2070 -0.6107 -0.2781
 3327TIP3    H231617   6.418   6.300   2.158 -1.8409 -0.8576  1.8144
 3328TIP3   OH231618   4.160   6.357   2.628 -0.0044  0.5486 -0.0188
 3328TIP3    H131619   4.132   6.430   2.573 -0.5868  0.7837  0.5777
 3328TIP3    H231620   4.222   6.396   2.690  1.1965  0.1481 -0.9430
 3329TIP3   OH231621   6.383   3.643   7.384 -0.1912 -0.2531  0.4701
 3329TIP3    H131622   6.391   3.612   7.294  1.0094  0.4747  0.3023
 3329TIP3    H231623   6.439   3.585   7.434 -0.6309 -0.4748  0.7100
 3330TIP3   OH231624   3.383   0.530   1.538 -0.7258 -0.1363 -0.4807
 3330TIP3    H131625   3.390   0.596   1.607 -2.4781 -0.5359  0.1592
 3330TIP3    H231626   3.454   0.469   1.555 -0.6820  0.1838  0.5425
 3331TIP3   OH231627   4.068   2.210   8.872 -0.3344  0.1022 -0.1214
 3331TIP3    H131628   4.089   2.303   8.879 -2.0644  0.4086  1.8384
 3331TIP3    H231629   4.152   2.168   8.854  0.8338  1.8433  1.0030
 3332TIP3   OH231630   0.703   3.848   8.033 -0.3829 -0.3646 -0.0737
 3332TIP3    H131631   0.643   3.905   7.985 -0.8041  0.6929  1.6152
 3332TIP3    H231632   0.678   3.760   8.008 -1.4210  0.1144 -0.8064
 3333TIP3   OH231633   6.464   0.212   0.608  0.0687 -0.3117 -0.8202
 3333TIP3    H131634   6.546   0.175   0.639  0.3148 -0.3145 -1.4451
 3333TIP3    H231635   6.433   0.150   0.542 -1.1818 -1.0458  0.4322
 3334TIP3   OH231636   3.796   2.110   0.673 -0.4684 -0.2925  0.1319
 3334TIP3    H131637   3.763   2.037   0.726  0.3665 -1.2350 -0.6205
 3334TIP3    H231638   3.780   2.084   0.583  0.6247  0.0791 -0.1770
 3335TIP3   OH231639   0.069   2.872   1.571 -0.3518  0.4054  0.0488
 3335TIP3    H131640   0.001   2.816   1.533 -0.2806  0.2160  0.1938
 3335TIP3    H231641   0.128   2.890   1.498 -0.6828  0.7641 -0.1302
 3336TIP3   OH231642   2.968   0.515   0.802  0.7265 -0.2627  0.4855
 3336TIP3    H131643   2.960   0.432   0.847 -0.8333 -0.3282  0.1269
 3336TIP3    H231644   3.028   0.566   0.856  0.3623 -1.0061  1.6132
 3337TIP3   OH231645   3.370   5.174   0.748  0.8588  0.3103  0.2687
 3337TIP3    H131646   3.390   5.221   0.667  0.5084 -2.0495 -1.2848
 3337TIP3    H231647   3.339   5.088   0.719  0.0649 -0.3844  2.9100
 3338TIP3   OH231648   0.418   0.294   9.213 -0.4328 -0.3543 -0.0387
 3338TIP3    H131649   0.357   0.352   9.259  0.7039  0.1080  0.9210
 3338TIP3    H231650   0.379   0.207   9.223 -1.6842  0.1089 -0.7106
 3339TIP3   OH231651   2.918   1.074   3.483 -0.4184  0.0361 -0.5743
 3339TIP3    H131652   2.980   1.123   3.537  0.3710  1.2278 -2.4756
 3339TIP3    H231653   2.940   0.982   3.499  1.4351  0.4179 -0.7053
 3340TIP3   OH231654   1.832   3.494   1.023 -0.0842 -0.1148 -0.0564
 3340TIP3    H131655   1.780   3.509   0.944  1.9698  0.6937 -1.3580
 3340TIP3    H231656   1.770   3.505   1.095 -1.7457  0.5669 -1.5023
 3341TIP3   OH231657   1.252   2.324   3.302 -0.5829  0.3785 -0.2641
 3341TIP3    H131658   1.183   2.378   3.340 -1.9276 -1.6876  0.4280
 3341TIP3    H231659   1.276   2.263   3.372  0.0735 -0.6179 -1.3245
 3342TIP3   OH231660   1.268   4.376   7.614  0.1463 -0.2764 -0.2639
 3342TIP3    H131661   1.303   4.288   7.632 -0.1991 -0.1715  1.0615
 3342TIP3    H231662   1.177   4.360   7.587 -0.1044 -0.3063  0.5689
 3343TIP3   OH231663   3.907   5.949   0.531 -0.0683  0.3343 -0.7595
 3343TIP3    H131664   3.986   6.002   0.544 -1.5454  2.4964 -0.1075
 3343TIP3    H231665   3.835   6.010   0.544 -1.8735 -1.4548 -1.8764
 3344TIP3   OH231666   1.009   0.959   0.786 -0.2073  0.5212  0.0688
 3344TIP3    H131667   0.929   0.924   0.745  0.3592  1.0640 -1.5551
 3344TIP3    H231668   0.986   1.047   0.813 -0.0527  0.8197 -0.7581
 3345TIP3   OH231669   3.180   1.483   8.919  0.0482 -0.1057 -0.2432
 3345TIP3    H131670   3.110   1.525   8.968  2.3117 -0.0583  3.2697
 3345TIP3    H231671   3.173   1.520   8.831 -2.6673  1.8486  0.6712
 3346TIP3   OH231672   1.802   5.628   1.167 -0.1565 -0.1865  0.1575
 3346TIP3    H131673   1.790   5.701   1.227  0.3346  0.4847 -0.5417
 3346TIP3    H231674   1.878   5.652   1.114  0.1908 -1.3330  0.1040
 3347TIP3   OH231675   4.220   4.830   2.655  0.2101 -0.1692  0.7721
 3347TIP3    H131676   4.214   4.816   2.750 -2.0222 -1.0587  0.5796
 3347TIP3    H231677   4.135   4.800   2.622  1.1568 -0.4532 -1.5884
 3348TIP3   OH231678   2.264   6.688   2.052  0.0040 -0.1356 -0.7451
 3348TIP3    H131679   2.178   6.720   2.024  0.3238  0.8088 -0.6682
 3348TIP3    H231680   2.321   6.705   1.978  0.5881  1.2489 -0.0039
 3349TIP3   OH231681   1.872   1.765   1.429  0.3412 -0.2054  0.2857
 3349TIP3    H131682   1.790   1.762   1.380  0.2514 -2.5230  0.4468
 3349TIP3    H231683   1.940   1.774   1.362  0.0885 -1.1707 -0.1202
 3350TIP3   OH231684   3.638   3.206   1.063 -0.3496 -0.4657 -0.2160
 3350TIP3    H131685   3.695   3.283   1.069 -0.6307 -0.3035  0.4598
 3350TIP3    H231686   3.630   3.175   1.153  0.7069 -1.9992 -0.6042
 3351TIP3   OH231687   2.827   3.769   2.248 -0.3846 -0.4650 -0.1518
 3351TIP3    H131688   2.793   3.816   2.171 -0.0875  0.7083  0.4065
 3351TIP3    H231689   2.785   3.683   2.244 -1.3308  0.0132 -0.9493
 3352TIP3   OH231690   5.656   2.782   7.684 -0.1881  0.2371  0.1909
 3352TIP3    H131691   5.684   2.705   7.734 -0.1601 -0.3878 -0.7660
 3352TIP3    H231692   5.734   2.810   7.636  0.0321  1.3890  1.1465
 3353TIP3   OH231693   5.194   5.980   2.695  0.3249  0.0410 -0.2461
 3353TIP3    H131694   5.268   5.935   2.656 -1.0787 -2.8942  0.1529
 3353TIP3    H231695   5.233   6.046   2.753  2.7665 -2.5622  1.3568
 3354TIP3   OH231696   1.604   5.123   6.998  0.0086  0.0136  0.5598
 3354TIP3    H131697   1.559   5.162   7.073  0.0719  0.4924  0.3562
 3354TIP3    H231698   1.637   5.198   6.949  1.6716 -0.3309  1.0806
 3355TIP3   OH231699   4.704   5.754   2.184  0.3820 -0.6606 -0.5358
 3355TIP3    H131700   4.664   5.841   2.180  1.6097  0.1555  2.4679
 3355TIP3    H231701   4.635   5.699   2.223  0.8284 -0.0770  1.1981
 3356TIP3   OH231702   3.096   5.439   7.387  0.6718 -0.0308 -0.6958
 3356TIP3    H131703   3.028   5.430   7.319  1.1584 -2.5759 -0.9601
 3356TIP3    H231704   3.178   5.432   7.339  1.0297 -1.2195  0.0386
 3357TIP3   OH231705   3.277   3.300   2.608  0.3799  0.5191 -0.0943
 3357TIP3    H131706   3.213   3.317   2.677  1.6655  1.4861  0.8982
 3357TIP3    H231707   3.236   3.334   2.528 -0.7760  0.1298  0.2985
 3358TIP3   OH231708   4.261   6.602   8.181  0.3094  0.5285 -0.5172
 3358TIP3    H131709   4.168   6.621   8.181 -0.1918 -1.5351  1.4556
 3358TIP3    H231710   4.284   6.592   8.273  2.8404  2.3572 -0.8405
 3359TIP3   OH231711   2.746   1.076   8.588  0.6745  0.0816  0.0319
 3359TIP3    H131712   2.764   1.126   8.668  2.4516 -0.1336 -0.1919
 3359TIP3    H231713   2.679   1.013   8.613  0.0919  1.0382  0.9346
 3360TIP3   OH231714   5.439   0.220   8.867  0.0159  0.1959 -0.2867
 3360TIP3    H131715   5.459   0.280   8.939 -0.8114  0.7497 -0.5002
 3360TIP3    H231716   5.426   0.136   8.910 -2.5472  0.9173  0.5422
 3361TIP3   OH231717   1.830   4.546   0.343  0.3204  0.5344  0.1520
 3361TIP3    H131718   1.782   4.551   0.427 -1.3936  1.3436 -0.8220
 3361TIP3    H231719   1.900   4.610   0.351  0.5273  0.2037  1.1623
 3362TIP3   OH231720   4.272   0.954   2.978 -0.0394 -0.4265  0.5486
 3362TIP3    H131721   4.298   1.045   2.965 -1.2224 -0.1922 -0.3194
 3362TIP3    H231722   4.187   0.959   3.023 -0.6364 -1.0596 -0.4690
 3363TIP3   OH231723   6.213   4.219   2.001  0.3914  0.1858  0.5292
 3363TIP3    H131724   6.288   4.273   1.973  0.2609  0.6721  1.0974
 3363TIP3    H231725   6.244   4.129   1.991  0.6282  0.3543 -0.3950
 3364TIP3   OH231726   6.366   0.520   8.322  0.2235  0.7194  0.2506
 3364TIP3    H131727   6.324   0.604   8.304 -0.8108 -0.0001 -0.8223
 3364TIP3    H231728   6.305   0.454   8.289  1.1445 -0.4566  0.7925
 3365TIP3   OH231729   1.169   6.360   0.459  0.7123  0.2429 -0.1183
 3365TIP3    H131730   1.228   6.404   0.398  0.1743 -0.4001 -1.1377
 3365TIP3    H231731   1.150   6.275   0.418 -0.0969  0.0147  0.6798
 3366TIP3   OH231732   3.044   6.007   0.276  0.2496  0.2170  0.3618
 3366TIP3    H131733   2.995   5.953   0.337  1.6989  1.0254  2.3452
 3366TIP3    H231734   3.135   5.983   0.289  0.5746 -0.0925 -2.0572
 3367TIP3   OH231735   2.249   2.701   0.190 -0.3306  0.6070  0.7912
 3367TIP3    H131736   2.293   2.650   0.257  0.6387 -1.0443 -0.9901
 3367TIP3    H231737   2.176   2.645   0.161  0.1731  0.5871 -0.5329
 3368TIP3   OH231738   3.913   1.830   1.754  0.6140 -0.0896 -0.6168
 3368TIP3    H131739   3.920   1.911   1.703 -1.1516 -0.8549 -2.1998
 3368TIP3    H231740   3.819   1.819   1.768  0.8855 -1.4389  0.3139
 3369TIP3   OH231741   0.236   1.457   2.073  0.4233  0.4348  0.5659
 3369TIP3    H131742   0.140   1.456   2.072  0.3779  1.2949 -1.5396
 3369TIP3    H231743   0.259   1.517   2.144 -0.5667 -0.3140  1.5399
 3370TIP3   OH231744   1.996   3.685   0.842 -0.0672 -0.2088 -0.4086
 3370TIP3    H131745   1.961   3.648   0.923 -0.7495 -1.9131 -1.4286
 3370TIP3    H231746   2.090   3.677   0.851 -0.0624  0.9221  0.7874
 3371TIP3   OH231747   2.040   4.029   2.414 -0.0584 -0.3382  0.0417
 3371TIP3    H131748   2.085   4.099   2.368  0.3308 -0.2356  0.5712
 3371TIP3    H231749   2.060   3.950   2.363  2.1612 -0.5866  1.1824
 3372TIP3   OH231750   2.396   4.466   3.370  0.1308  0.0037  0.1902
 3372TIP3    H131751   2.306   4.487   3.397  0.5479  0.3337  1.4075
 3372TIP3    H231752   2.398   4.371   3.365 -0.1655 -0.0311  0.6271
 3373TIP3   OH231753   3.981   6.380   8.196  0.0949  0.5838  0.0790
 3373TIP3    H131754   3.924   6.452   8.223 -0.1688  0.9724 -1.3954
 3373TIP3    H231755   4.011   6.405   8.109 -1.1099 -1.7161 -1.0914
 3374TIP3   OH231756   3.960   5.460   8.394  0.0385  0.6257 -0.1818
 3374TIP3    H131757   4.042   5.506   8.413 -0.1926  1.1793 -0.4751
 3374TIP3    H231758   3.981   5.404   8.319  0.2054  0.6104 -0.1234
 3375TIP3   OH231759   0.420   1.057   0.247 -0.1482 -0.3798  0.3547
 3375TIP3    H131760   0.485   0.987   0.252  0.4486  0.0987 -0.5458
 3375TIP3    H231761   0.414   1.079   0.154  0.9073  1.8825  0.7399
 3376TIP3   OH231762   5.274   5.519   1.044  0.5582  0.7191  0.0719
 3376TIP3    H131763   5.301   5.576   1.116  1.8485  0.3621 -0.0998
 3376TIP3    H231764   5.309   5.561   0.965 -1.2526  1.3637 -0.4434
 3377TIP3   OH231765   3.064   4.723   8.243 -0.1747  0.0034  0.7418
 3377TIP3    H131766   3.147   4.687   8.275 -0.3770 -0.9175  0.2576
 3377TIP3    H231767   3.029   4.771   8.317 -0.2102 -1.3493  1.6315
 3378TIP3   OH231768   1.776   4.207   0.481  0.1653 -0.1058  0.1462
 3378TIP3    H131769   1.867   4.180   0.491 -0.0468 -1.4807 -1.1497
 3378TIP3    H231770   1.747   4.230   0.570  1.2258 -1.5166  0.8989
 3379TIP3   OH231771   1.099   5.288   1.020  0.6744  0.0197 -0.0264
 3379TIP3    H131772   1.085   5.253   1.108  2.2771  1.1391  0.7102
 3379TIP3    H231773   1.081   5.213   0.962  0.3561 -0.9576  1.2761
 3380TIP3   OH231774   0.312   0.462   8.368  0.3854  0.0105  0.0581
 3380TIP3    H131775   0.382   0.400   8.347 -0.1260 -0.7136  0.4490
 3380TIP3    H231776   0.242   0.408   8.406  0.8479  1.0994  2.6789
 3381TIP3   OH231777   0.379   3.572   9.191 -0.4967  0.2089  0.2302
 3381TIP3    H131778   0.436   3.497   9.174 -1.2863 -0.1392 -1.0371
 3381TIP3    H231779   0.306   3.536   9.241  1.0860  0.9552  3.3541
 3382TIP3   OH231780   4.408   3.140   2.518  0.2478 -0.5415 -0.0860
 3382TIP3    H131781   4.340   3.132   2.451 -1.5980  0.5246  1.5407
 3382TIP3    H231782   4.378   3.213   2.572  2.1142 -0.8260  1.3897
 3383TIP3   OH231783   4.652   3.178   8.795 -0.2982 -0.1850 -0.0461
 3383TIP3    H131784   4.641   3.262   8.840 -0.6009 -0.5059  0.4952
 3383TIP3    H231785   4.723   3.134   8.843 -0.7760 -0.6231  0.2734
 3384TIP3   OH231786   5.961   1.171   0.354  0.0036 -0.3415  0.5244
 3384TIP3    H131787   5.866   1.182   0.347  0.2120  2.4692  0.8718
 3384TIP3    H231788   5.980   1.091   0.305 -2.6776 -1.8631  1.7587
 3385TIP3   OH231789   2.449   2.000   2.315 -0.3295 -0.9265  1.0389
 3385TIP3    H131790   2.387   1.940   2.273  0.0730  0.1764 -1.3156
 3385TIP3    H231791   2.524   2.002   2.255  0.8910 -0.2422  2.5132
 3386TIP3   OH231792   2.836   4.492   1.283  0.2330 -0.1266 -0.4859
 3386TIP3    H131793   2.907   4.535   1.331 -0.0663  1.4548 -1.3977
 3386TIP3    H231794   2.758   4.507   1.337  0.2828 -0.2662 -0.3768
 3387TIP3   OH231795   2.302   2.663   0.709  0.2018 -0.2043  0.5094
 3387TIP3    H131796   2.230   2.673   0.771 -1.6540 -1.1120 -1.3827
 3387TIP3    H231797   2.319   2.752   0.678  0.1586  0.0617  1.2251
 3388TIP3   OH231798   2.465   2.922   0.221  0.3191 -0.3625  0.2513
 3388TIP3    H131799   2.382   2.875   0.227  1.3377 -2.2013  0.7818
 3388TIP3    H231800   2.444   3.010   0.250 -1.5929 -0.5625 -0.3465
 3389TIP3   OH231801   5.467   0.086   0.387  0.6854  0.3183 -0.0077
 3389TIP3    H131802   5.469  -0.004   0.420  1.9973  0.0623 -0.7331
 3389TIP3    H231803   5.519   0.136   0.450  0.4581  0.4532  0.0727
 3390TIP3   OH231804   0.843   3.234   1.369  0.3438 -0.7144  0.1138
 3390TIP3    H131805   0.883   3.148   1.383  0.1345 -0.7243  0.6889
 3390TIP3    H231806   0.908   3.296   1.401  0.0330 -0.7168  0.7725
 3391TIP3   OH231807   3.250   2.631   2.041 -0.5328  0.0702  0.1490
 3391TIP3    H131808   3.189   2.695   2.002 -2.2339 -1.0846  0.7797
 3391TIP3    H231809   3.334   2.648   1.998 -0.7985  2.9831  0.5727
 3392TIP3   OH231810   4.530   0.521   7.383 -0.2596 -0.4158 -0.5078
 3392TIP3    H131811   4.545   0.459   7.454 -0.2563  0.4657  0.2845
 3392TIP3    H231812   4.557   0.474   7.304  0.1054 -1.2797  0.1148
 3393TIP3   OH231813   2.152   6.072   0.643 -0.2283 -0.1414 -0.1293
 3393TIP3    H131814   2.138   6.166   0.636  0.4985  0.0663  0.9324
 3393TIP3    H231815   2.206   6.061   0.721 -0.1080 -1.4238 -0.3586
 3394TIP3   OH231816   3.162   5.151   7.241  0.0789 -0.0560  0.2993
 3394TIP3    H131817   3.234   5.197   7.286 -0.2653  0.8120 -0.0102
 3394TIP3    H231818   3.168   5.061   7.272  1.6122 -0.1177 -0.1099
 3395TIP3   OH231819   4.920   5.702   2.003 -0.2211  0.1162 -0.6508
 3395TIP3    H131820   4.912   5.607   1.996 -0.2756  0.1222 -0.6683
 3395TIP3    H231821   4.843   5.730   2.051  1.5574 -0.2343  2.6716
 3396TIP3   OH231822   2.434   0.439   9.059 -0.0410 -0.0497 -0.2346
 3396TIP3    H131823   2.430   0.372   8.991  0.5367 -0.9610  0.6014
 3396TIP3    H231824   2.382   0.403   9.131  1.9187 -0.5653  1.0109
 3397TIP3   OH231825   6.684   0.376   7.928 -0.0623 -0.0424  0.1729
 3397TIP3    H131826   6.673   0.281   7.928  0.6918 -0.3703 -4.2727
 3397TIP3    H231827   6.775   0.389   7.956 -0.2039 -0.5791  0.9261
 3398TIP3   OH231828   4.156   5.692   0.979 -0.0722  0.5382 -0.1150
 3398TIP3    H131829   4.192   5.621   0.926  1.7941  0.1144  1.5855
 3398TIP3    H231830   4.157   5.657   1.068  1.6798  2.9481  0.9069
 3399TIP3   OH231831   6.184   5.164   0.988 -0.3482 -0.1633  0.4654
 3399TIP3    H131832   6.112   5.135   0.932 -0.9796  0.3236  1.0163
 3399TIP3    H231833   6.144   5.225   1.050  0.5176  0.0329  0.8502
 3400TIP3   OH231834   3.399   6.346   0.744 -0.2100 -0.2478 -0.2273
 3400TIP3    H131835   3.306   6.346   0.764  0.0679 -0.1255  1.1245
 3400TIP3    H231836   3.439   6.291   0.811  0.7465  0.0616 -0.5151
 3401TIP3   OH231837   6.360   3.616   8.821  0.3544  0.2747  0.7150
 3401TIP3    H131838   6.378   3.522   8.827  0.7585  0.0684 -2.2002
 3401TIP3    H231839   6.277   3.622   8.774 -0.0035  1.4006  1.4453
 3402TIP3   OH231840   6.089   4.909   8.905 -0.0517 -0.1055  0.0800
 3402TIP3    H131841   6.126   4.830   8.865  0.0398  0.0177 -0.0786
 3402TIP3    H231842   6.042   4.877   8.982  2.4353 -0.0339  1.7484
 3403TIP3   OH231843   6.046   5.487   1.582  0.0834  0.3448 -0.2240
 3403TIP3    H131844   6.041   5.581   1.564 -3.1433  0.5732  1.1340
 3403TIP3    H231845   6.030   5.445   1.497  1.9815  0.9597 -0.9205
 3404TIP3   OH231846   5.522   2.606   0.798  0.0812  0.2304 -0.1129
 3404TIP3    H131847   5.444   2.607   0.853 -0.1809 -0.8712 -0.4372
 3404TIP3    H231848   5.578   2.539   0.838  0.3350  0.1609 -0.5794
 3405TIP3   OH231849   4.646   6.557   2.509 -0.4044  0.3120  0.4523
 3405TIP3    H131850   4.667   6.609   2.587  0.6064 -0.6294  0.8218
 3405TIP3    H231851   4.718   6.574   2.448 -0.5372  0.0355  0.2162
 3406TIP3   OH231852   4.866   3.703   2.587  0.7115  0.2672 -0.0390
 3406TIP3    H131853   4.881   3.620   2.633 -0.1165  1.0071  1.6431
 3406TIP3    H231854   4.847   3.766   2.656  2.6611  2.2251 -1.1559
 3407TIP3   OH231855   6.575   0.913   2.623 -0.1429  0.1604  0.0932
 3407TIP3    H131856   6.486   0.947   2.622 -0.5661 -0.7632  2.1487
 3407TIP3    H231857   6.584   0.869   2.708  1.9987 -0.4951 -0.3977
 3408TIP3   OH231858   4.280   1.390   0.230  0.6125  0.0247 -0.3125
 3408TIP3    H131859   4.337   1.336   0.285  0.5915 -1.1644 -1.4060
 3408TIP3    H231860   4.325   1.474   0.225  2.1100 -0.7661 -0.8388
 3409TIP3   OH231861   5.804   6.687   2.740 -0.0557  0.3892 -0.1452
 3409TIP3    H131862   5.858   6.759   2.775 -0.5320  0.8888 -0.4214
 3409TIP3    H231863   5.756   6.654   2.816 -0.1819  0.6708 -0.1007
 3410TIP3   OH231864   4.940   4.034   7.894  0.3437  0.0020 -0.2319
 3410TIP3    H131865   4.886   4.000   7.822 -1.4030  1.1466  0.4553
 3410TIP3    H231866   4.885   4.025   7.972  1.5336  0.3430  0.6802
 3411TIP3   OH231867   5.458   2.935   9.000 -0.8951  0.2510 -0.5871
 3411TIP3    H131868   5.449   2.943   8.905  0.5901 -0.6375 -0.8262
 3411TIP3    H231869   5.385   2.985   9.035 -1.0166  1.2468 -2.1841
 3412TIP3   OH231870   0.753   3.027   1.068 -0.0393  0.7565  0.3617
 3412TIP3    H131871   0.733   2.979   0.988 -1.2886 -0.4537  1.3575
 3412TIP3    H231872   0.731   2.967   1.139  2.0049  1.3973  1.6447
 3413TIP3   OH231873   5.017   2.725   2.500 -0.4596  0.1377 -0.1021
 3413TIP3    H131874   5.041   2.817   2.493 -0.1759  0.0626 -0.1371
 3413TIP3    H231875   5.099   2.678   2.485 -0.2269 -0.0889  1.6798
 3414TIP3   OH231876   0.831   2.824   1.439  0.0605  0.1672  0.2396
 3414TIP3    H131877   0.891   2.807   1.367 -1.4162  3.2698 -1.9757
 3414TIP3    H231878   0.750   2.780   1.414  0.2147 -0.7515  1.2751
 3415TIP3   OH231879   1.613   2.596   0.889  0.1399  0.9696 -0.9315
 3415TIP3    H131880   1.695   2.621   0.847 -0.6986  3.7582 -1.1069
 3415TIP3    H231881   1.592   2.669   0.947 -1.4451 -0.3909  0.3441
 3416TIP3   OH231882   2.042   4.783   8.552  0.1933 -0.0165  0.5632
 3416TIP3    H131883   2.023   4.760   8.643  0.2055 -1.3141  0.2535
 3416TIP3    H231884   1.958   4.775   8.507  0.4303 -0.6108  0.2202
 3417TIP3   OH231885   5.356   6.194   2.652  0.0333 -0.0928 -0.2919
 3417TIP3    H131886   5.367   6.287   2.634 -0.5924 -0.0615 -0.5514
 3417TIP3    H231887   5.444   6.158   2.647  0.5596  0.7891  1.6175
 3418TIP3   OH231888   2.844   1.935   2.151  0.4655 -0.5799  0.2020
 3418TIP3    H131889   2.850   2.019   2.196  1.6027 -1.1743  1.2159
 3418TIP3    H231890   2.934   1.914   2.125  0.3403 -1.8667  0.7140
 3419TIP3   OH231891   4.001   1.645   0.129 -0.1840  0.6114  0.0407
 3419TIP3    H131892   3.991   1.574   0.193  0.9110  0.5865  0.2095
 3419TIP3    H231893   4.072   1.615   0.071  0.0277  1.3941 -0.1165
 3420TIP3   OH231894   3.178   4.394   0.649  0.2213  0.9809 -0.1069
 3420TIP3    H131895   3.209   4.392   0.740  2.7772  0.0018 -0.9091
 3420TIP3    H231896   3.167   4.302   0.626 -0.3662  1.2241 -0.8162
 3421TIP3   OH231897   1.727   6.189   8.830  0.7826 -0.6074 -0.6039
 3421TIP3    H131898   1.644   6.236   8.821  1.1575  0.4076  0.9930
 3421TIP3    H231899   1.774   6.234   8.900  2.5410 -1.3980 -1.2053
 3422TIP3   OH231900   4.252   1.277   8.910 -0.0530 -0.2526 -0.1058
 3422TIP3    H131901   4.186   1.347   8.906 -0.7511 -0.8145  0.9575
 3422TIP3    H231902   4.276   1.273   9.002  0.4891 -0.9588 -0.2745
 3423TIP3   OH231903   5.676   6.125   1.101 -0.4134  0.1903 -0.1845
 3423TIP3    H131904   5.753   6.165   1.061 -0.5305 -0.0766 -0.6733
 3423TIP3    H231905   5.625   6.199   1.135 -0.0055  0.3730  0.0348
 3424TIP3   OH231906   5.565   3.697   3.081 -0.3809  0.0026 -0.0573
 3424TIP3    H131907   5.591   3.667   2.994 -0.5169 -0.2902 -0.0008
 3424TIP3    H231908   5.635   3.756   3.108 -0.6084  0.5194 -0.5862
 3425TIP3   OH231909   6.359   3.577   8.451  0.1478 -0.2701 -0.3514
 3425TIP3    H131910   6.277   3.610   8.487  1.1870  1.9305  0.1693
 3425TIP3    H231911   6.426   3.608   8.513  1.6453  0.4581 -2.2524
 3426TIP3   OH231912   5.401   3.646   0.444 -0.1003 -0.3244 -0.1033
 3426TIP3    H131913   5.406   3.597   0.362  0.1337 -0.5329  0.0323
 3426TIP3    H231914   5.319   3.696   0.437 -0.1419 -0.4294 -0.4115
 3427TIP3   OH231915   2.913   3.535   1.718  0.7250 -0.1150  0.0761
 3427TIP3    H131916   2.829   3.574   1.693  0.4784 -0.2917  0.6221
 3427TIP3    H231917   2.904   3.515   1.811  1.4505  0.0569  0.1867
 3428TIP3   OH231918   6.445   2.826   0.196  0.0602  0.1052  0.1347
 3428TIP3    H131919   6.431   2.886   0.269  1.6181  0.7997 -0.0906
 3428TIP3    H231920   6.440   2.881   0.118 -2.4771 -0.7780 -0.3986
 3429TIP3   OH231921   4.217   2.676   8.752 -0.7847  0.1531 -0.1975
 3429TIP3    H131922   4.297   2.631   8.780 -1.6976 -1.1821  0.3519
 3429TIP3    H231923   4.226   2.765   8.786 -0.9001 -0.8178  2.5889
 3430TIP3   OH231924   3.183   0.378   7.818 -0.1975  0.2816 -0.1495
 3430TIP3    H131925   3.152   0.441   7.753  0.4719  0.2595 -0.4966
 3430TIP3    H231926   3.180   0.426   7.901 -1.2820  0.2368 -0.1433
 3431TIP3   OH231927   5.208   3.442   1.737 -0.8432  0.0213  0.6474
 3431TIP3    H131928   5.168   3.514   1.787 -1.6634 -0.1965  0.3225
 3431TIP3    H231929   5.293   3.430   1.777 -0.8072  0.9917  0.8968
 3432TIP3   OH231930   2.593   0.508   1.712 -0.1082  0.0361 -0.1382
 3432TIP3    H131931   2.638   0.466   1.639  0.8155 -0.2988  0.6108
 3432TIP3    H231932   2.662   0.526   1.776 -0.5663  2.2164 -0.2046
 3433TIP3   OH231933   3.800   5.229   2.120 -0.4065  0.5809 -0.0454
 3433TIP3    H131934   3.886   5.194   2.094 -0.4746  0.2137  0.2215
 3433TIP3    H231935   3.807   5.242   2.214  0.8562  4.6952 -0.5115
 3434TIP3   OH231936   2.112   3.973   6.973  0.4237  0.4932 -0.0235
 3434TIP3    H131937   2.181   3.908   6.961  0.4384  0.3863  0.6370
 3434TIP3    H231938   2.158   4.054   6.996  0.2580 -0.0796  2.5912
 3435TIP3   OH231939   6.616   1.756   2.039 -0.1424  0.5947 -0.1092
 3435TIP3    H131940   6.624   1.682   2.100 -1.3928  1.5640  1.3033
 3435TIP3    H231941   6.674   1.733   1.966  1.1106 -0.8102  1.2506
 3436TIP3   OH231942   6.274   0.556   1.263  0.1612  0.4250 -0.3737
 3436TIP3    H131943   6.240   0.642   1.236  2.4211  1.1679 -1.1097
 3436TIP3    H231944   6.339   0.576   1.330 -0.5117 -0.8911  0.7109
 3437TIP3   OH231945   1.134   2.445   2.752  0.1054 -0.4879  0.2418
 3437TIP3    H131946   1.175   2.359   2.744 -0.0119 -0.6363  1.1309
 3437TIP3    H231947   1.071   2.435   2.823  1.3539  0.7962  1.5898
 3438TIP3   OH231948   3.428   0.578   1.975  0.2988 -0.1244  0.0730
 3438TIP3    H131949   3.490   0.650   1.989 -0.4364  1.4580 -3.7173
 3438TIP3    H231950   3.352   0.603   2.027  0.8147  0.7797  0.4284
 3439TIP3   OH231951   2.174   5.290   0.553  0.0305 -0.0036 -0.0894
 3439TIP3    H131952   2.236   5.217   0.560  0.0758 -0.2205 -2.1899
 3439TIP3    H231953   2.166   5.323   0.643  0.2142 -2.4103  0.8973
 3440TIP3   OH231954   0.446   2.776   2.568  0.0138  0.1132 -0.3554
 3440TIP3    H131955   0.504   2.730   2.629  0.0554  0.0539 -0.4389
 3440TIP3    H231956   0.382   2.709   2.543  0.1467  0.0664 -0.5716
 3441TIP3   OH231957   6.639   5.992   0.902  0.3595  0.0568 -0.0148
 3441TIP3    H131958   6.633   6.088   0.908 -2.5718 -0.0435  0.4530
 3441TIP3    H231959   6.565   5.961   0.954  0.0776 -2.3956 -1.7314
 3442TIP3   OH231960   5.641   3.887   1.761 -0.9462 -0.5198 -0.2865
 3442TIP3    H131961   5.728   3.856   1.736 -0.8699 -1.2039  0.8061
 3442TIP3    H231962   5.627   3.854   1.849 -2.4479 -0.6763 -0.5536
 3443TIP3   OH231963   4.083   2.152   0.706 -0.2344  0.3087  0.0496
 3443TIP3    H131964   4.095   2.132   0.613 -0.1351  0.6796 -0.0213
 3443TIP3    H231965   3.998   2.114   0.728 -0.0755 -0.1369 -0.0879
 3444TIP3   OH231966   4.529   4.565   1.744 -0.1943  0.2416  0.3816
 3444TIP3    H131967   4.527   4.647   1.794  0.0897  0.0372  0.7385
 3444TIP3    H231968   4.618   4.561   1.709 -0.7725  1.0226 -1.2388
 3445TIP3   OH231969   2.538   5.243   7.734  0.4701 -0.1275 -0.5691
 3445TIP3    H131970   2.602   5.295   7.685  0.5176 -0.0816 -0.4585
 3445TIP3    H231971   2.453   5.273   7.702  0.5114 -0.4458 -0.9813
 3446TIP3   OH231972   6.521   2.628   8.399 -0.1043  0.1219 -0.2252
 3446TIP3    H131973   6.433   2.654   8.426  0.5441  0.6601  1.4976
 3446TIP3    H231974   6.550   2.698   8.340  0.1339  1.3155  1.2684
 3447TIP3   OH231975   0.413   4.784   0.601  0.4870  0.3574 -0.2929
 3447TIP3    H131976   0.417   4.874   0.633  0.6575  1.2973 -2.7055
 3447TIP3    H231977   0.474   4.735   0.657 -0.5674  1.4034  1.8890
 3448TIP3   OH231978   6.220   1.645   3.152 -0.3585 -0.0220  0.2572
 3448TIP3    H131979   6.244   1.733   3.181 -0.2147 -0.1307  0.4733
 3448TIP3    H231980   6.129   1.635   3.179 -1.5293  1.3186 -2.7288
 3449TIP3   OH231981   2.032   1.625   2.642  0.2111 -0.1213  0.1172
 3449TIP3    H131982   2.109   1.682   2.645  0.7220 -0.7411 -0.7143
 3449TIP3    H231983   2.045   1.565   2.716 -0.2814  0.7505  0.9361
 3450TIP3   OH231984   6.128   2.569   8.135 -0.5806  0.6012  0.0744
 3450TIP3    H131985   6.139   2.663   8.125 -1.2055  0.5665 -1.1609
 3450TIP3    H231986   6.137   2.534   8.046 -3.1530 -0.1857  0.0434
 3451TIP3   OH231987   5.714   4.485   0.762  0.1582 -0.4738 -0.5498
 3451TIP3    H131988   5.644   4.477   0.827  0.2467 -1.7015 -0.5889
 3451TIP3    H231989   5.794   4.466   0.811  0.4968  0.9071 -0.5102
 3452TIP3   OH231990   4.832   6.610   0.392  0.1832  0.4765 -0.6628
 3452TIP3    H131991   4.803   6.542   0.454  0.5441  1.2174  0.3454
 3452TIP3    H231992   4.755   6.626   0.338  0.4477 -1.6173 -1.7875
 3453TIP3   OH231993   0.681   6.073   0.707  0.5661  0.8776 -0.1098
 3453TIP3    H131994   0.688   6.068   0.611  1.7940  0.0719 -0.0049
 3453TIP3    H231995   0.588   6.057   0.725  0.4255  0.4588 -1.1374
 3454TIP3   OH231996   4.870   4.713   2.097 -0.1308  0.3501 -0.0113
 3454TIP3    H131997   4.897   4.621   2.087  0.2547  0.5836 -1.4437
 3454TIP3    H231998   4.947   4.756   2.134  0.0604  0.2674 -0.3012
 3455TIP3   OH231999   5.434   5.442   1.457 -0.0173 -0.5468 -0.2571
 3455TIP3    H132000   5.448   5.509   1.525 -0.3723  0.0669 -0.7737
 3455TIP3    H232001   5.340   5.447   1.439 -0.1811 -1.7036  0.2137
 3456TIP3   OH232002   0.606   2.668   2.315 -0.2639 -0.1915 -0.1322
 3456TIP3    H132003   0.580   2.708   2.398 -1.5169 -0.5290 -0.3424
 3456TIP3    H232004   0.524   2.652   2.269  0.3180 -1.3997 -0.7977
 3457TIP3   OH232005   2.867   5.008   0.022  0.0818 -0.4583  0.6276
 3457TIP3    H132006   2.944   4.995  -0.033  0.7563  0.2796  1.3528
 3457TIP3    H232007   2.891   5.081   0.079 -1.7221  0.7894 -0.1245
 3458TIP3   OH232008   4.360   1.421   8.623 -0.0922  0.2587 -0.0102
 3458TIP3    H132009   4.328   1.341   8.664 -0.3154  1.4524  2.3337
 3458TIP3    H232010   4.282   1.462   8.586 -0.1789 -0.0225 -0.1375
 3459TIP3   OH232011   2.394   1.865   8.092 -0.0540  0.2884  0.1867
 3459TIP3    H132012   2.419   1.931   8.027 -0.2383 -0.7372 -0.9484
 3459TIP3    H232013   2.459   1.875   8.162  1.4940 -0.0107 -1.1275
 3460TIP3   OH232014   5.791   2.972   1.294 -0.0473  0.1497  0.2107
 3460TIP3    H132015   5.721   2.907   1.296  0.1689 -0.1288 -0.5582
 3460TIP3    H232016   5.790   3.013   1.380 -1.3613  0.3767  0.0996
 3461TIP3   OH232017   3.978   1.441   1.845  0.1735 -0.4277  0.3343
 3461TIP3    H132018   3.907   1.465   1.905 -0.3375  0.1858 -0.4986
 3461TIP3    H232019   4.058   1.465   1.892 -0.2293  0.2816  0.6857
 3462TIP3   OH232020   1.713   1.765   0.524 -0.1673  0.2961 -0.4176
 3462TIP3    H132021   1.621   1.757   0.499 -0.4516  2.0601 -0.0705
 3462TIP3    H232022   1.719   1.850   0.568  1.6854  0.3696 -0.7207
 3463TIP3   OH232023   1.609   0.602   0.395  0.2981 -0.3544  0.0266
 3463TIP3    H132024   1.525   0.641   0.418 -0.6673 -1.8826 -0.7819
 3463TIP3    H232025   1.643   0.568   0.478 -0.5408 -0.9451  0.1343
 3464TIP3   OH232026   0.447   0.765   1.983  0.2461 -0.5460 -0.1700
 3464TIP3    H132027   0.368   0.818   1.985  1.2326  1.2181 -2.6778
 3464TIP3    H232028   0.487   0.778   2.069 -1.9099 -1.1462  0.9880
 3465TIP3   OH232029   5.359   1.103   1.143  0.1787  0.0358  0.0343
 3465TIP3    H132030   5.414   1.133   1.215  1.0213 -1.3784 -0.0015
 3465TIP3    H232031   5.341   1.183   1.093  1.1845  0.7216  0.7234
 3466TIP3   OH232032   4.312   5.310   9.112  0.0352  0.2638 -0.6291
 3466TIP3    H132033   4.223   5.343   9.105 -0.4927 -1.1200 -0.8761
 3466TIP3    H232034   4.362   5.359   9.047 -0.8166  0.2560 -1.3006
 3467TIP3   OH232035   6.468   5.918   0.691 -0.1790  0.0746  0.8062
 3467TIP3    H132036   6.443   5.946   0.779 -0.1749 -0.9973  1.1643
 3467TIP3    H232037   6.386   5.892   0.649 -0.1108  0.0086  0.7113
 3468TIP3   OH232038   0.576   2.779   9.059 -0.2013 -0.0284 -0.5862
 3468TIP3    H132039   0.509   2.767   9.127  0.5658 -2.8618 -0.2039
 3468TIP3    H232040   0.606   2.690   9.039  1.5800  0.9514 -2.6570
 3469TIP3   OH232041   0.806   1.195   9.137  0.1461 -0.3026  0.5743
 3469TIP3    H132042   0.719   1.233   9.135 -1.1209 -2.9257 -1.2312
 3469TIP3    H232043   0.804   1.132   9.209  0.8158  0.1437  0.9943
 3470TIP3   OH232044   5.960   5.335   0.471 -0.1262  0.4736  0.4855
 3470TIP3    H132045   5.958   5.378   0.557  0.2111  0.3225  0.5708
 3470TIP3    H232046   5.873   5.297   0.460 -0.4820  1.3087  0.3455
 3471TIP3   OH232047   3.238   1.550   2.515  0.4159  0.1897 -0.1353
 3471TIP3    H132048   3.264   1.634   2.476  1.8642 -1.7415 -3.7647
 3471TIP3    H232049   3.174   1.514   2.454 -0.7110 -1.1251  1.7187
 3472TIP3   OH232050   4.838   3.035   8.971 -0.2443 -0.7302  0.4848
 3472TIP3    H132051   4.819   2.942   8.963 -0.4540 -0.5500 -1.7044
 3472TIP3    H232052   4.921   3.047   8.924 -0.4591  0.2488  0.3330
 3473TIP3   OH232053   0.287   0.682   1.377  0.0568  0.1032  0.3279
 3473TIP3    H132054   0.331   0.650   1.455  1.7450 -0.3616 -0.7477
 3473TIP3    H232055   0.219   0.617   1.359 -0.5796  0.4030  1.5875
 3474TIP3   OH232056   3.396   4.820   8.935 -0.1331 -0.2223 -0.1127
 3474TIP3    H132057   3.378   4.786   9.022  0.2684 -1.9417 -0.6785
 3474TIP3    H232058   3.473   4.772   8.905 -1.2635 -0.9163 -2.0748
 3475TIP3   OH232059   4.551   3.391   8.970  0.5393 -0.5560  0.0824
 3475TIP3    H132060   4.483   3.399   9.037  1.4479  0.8189  0.8811
 3475TIP3    H232061   4.627   3.356   9.016  0.4153 -2.1167 -0.8105
 3476TIP3   OH232062   5.874   2.725   1.498 -0.3232 -0.6959 -0.5610
 3476TIP3    H132063   5.872   2.817   1.524  2.3774 -0.0723 -2.1965
 3476TIP3    H232064   5.794   2.714   1.446 -0.4551  0.8597 -0.7549
 3477TIP3   OH232065   2.098   1.035   8.950 -0.0898  0.5522 -0.0595
 3477TIP3    H132066   2.123   1.126   8.966  0.0435  0.5343 -0.1625
 3477TIP3    H232067   2.007   1.030   8.978  0.4221  0.2744  1.6527
 3478TIP3   OH232068   5.852   4.687   1.044  0.1366 -0.2032  0.4109
 3478TIP3    H132069   5.859   4.600   1.083  0.0567 -0.4347 -0.0869
 3478TIP3    H232070   5.936   4.702   1.000  0.0594 -0.1294  0.2866
 3479TIP3   OH232071   5.506   0.581   1.419 -0.7078 -0.0129  0.9487
 3479TIP3    H132072   5.558   0.657   1.393 -1.1169 -0.5034 -1.6055
 3479TIP3    H232073   5.451   0.612   1.491  0.9259  1.3443  1.6688
 3480TIP3   OH232074   0.412   5.999   0.216 -0.1329  0.0444 -0.5641
 3480TIP3    H132075   0.438   6.065   0.152 -0.5553 -0.3237 -1.1229
 3480TIP3    H232076   0.421   5.916   0.170  0.3711 -0.2971  0.1229
 3481TIP3   OH232077   2.639   5.397   0.698  0.1605 -0.3999 -0.4445
 3481TIP3    H132078   2.635   5.302   0.704  0.6980 -0.4007  0.0013
 3481TIP3    H232079   2.548   5.425   0.705  0.0783 -0.8333  0.5021
 3482TIP3   OH232080   3.069   3.815   7.344  0.1650 -0.1876  0.4334
 3482TIP3    H132081   3.097   3.869   7.269  0.4622 -1.6386 -0.5380
 3482TIP3    H232082   3.149   3.803   7.395  0.3226 -0.5300  0.1118
 3483TIP3   OH232083   4.963   5.433   2.311  0.1855 -0.9737 -0.0872
 3483TIP3    H132084   4.969   5.525   2.336  0.9412 -0.6880 -1.2226
 3483TIP3    H232085   4.883   5.402   2.353 -0.6223  0.4665 -0.4902
 3484TIP3   OH232086   6.100   1.458   2.322 -0.4157  0.4089  0.0678
 3484TIP3    H132087   6.077   1.550   2.307  2.1927  1.1946  0.3823
 3484TIP3    H232088   6.083   1.416   2.238  0.5456  1.7083 -0.8263
 3485TIP3   OH232089   0.588   2.643   1.416 -0.1027 -0.0056  0.4555
 3485TIP3    H132090   0.621   2.595   1.492 -0.9361  1.0659  1.5404
 3485TIP3    H232091   0.530   2.582   1.372  1.6402 -1.1967 -0.2863
 3486TIP3   OH232092   5.005   3.947   8.679 -0.0321 -0.0378  0.2206
 3486TIP3    H132093   4.925   3.895   8.681  0.2485 -0.4819 -0.0701
 3486TIP3    H232094   5.027   3.953   8.586  0.3077  0.0372  0.3060
 3487TIP3   OH232095   0.688   6.557   2.978  0.0547 -0.4873 -0.0199
 3487TIP3    H132096   0.770   6.562   2.928  0.6910 -2.3149  0.7564
 3487TIP3    H232097   0.668   6.648   3.000  1.9012  0.0129 -0.2074
 3488TIP3   OH232098   0.411   2.817   0.987 -0.2641  0.5715  0.0562
 3488TIP3    H132099   0.363   2.738   0.963  0.1610  0.7007 -1.2680
 3488TIP3    H232100   0.351   2.865   1.044 -1.6396  0.6332 -1.3951
 3489TIP3   OH232101   0.164   2.544   1.236 -0.1006  0.3690 -0.1092
 3489TIP3    H132102   0.086   2.584   1.197  0.3033  1.5835  0.2802
 3489TIP3    H232103   0.148   2.450   1.231 -2.1128  0.6024  1.0331
 3490TIP3   OH232104   1.488   1.262   1.247  0.3684 -0.4149  0.2615
 3490TIP3    H132105   1.461   1.270   1.339 -1.1236  0.3558 -0.1970
 3490TIP3    H232106   1.412   1.221   1.204  0.7771 -0.1488 -0.7352
 3491TIP3   OH232107   4.270   6.667   0.217  0.5173  0.0834  0.9693
 3491TIP3    H132108   4.317   6.742   0.181 -1.0618  1.1816  1.0543
 3491TIP3    H232109   4.207   6.706   0.279 -1.5066 -1.1181 -0.2066
 3492TIP3   OH232110   5.057   3.611   2.801 -0.1760  0.1264 -0.1893
 3492TIP3    H132111   5.117   3.676   2.765  1.0472 -0.7686  0.1584
 3492TIP3    H232112   5.027   3.649   2.884 -0.8363  0.9737 -0.7977
 3493TIP3   OH232113   3.761   1.177   1.088 -0.1012 -0.3780 -0.3182
 3493TIP3    H132114   3.722   1.185   1.001  0.6388  0.7511 -0.5565
 3493TIP3    H232115   3.729   1.253   1.136  0.4006 -0.3928  0.0417
 3494TIP3   OH232116   1.092   4.585   2.567  0.2338  0.0485 -0.2688
 3494TIP3    H132117   1.063   4.600   2.476  0.4757 -2.7091 -0.8796
 3494TIP3    H232118   1.173   4.535   2.558  0.7351  0.4955  1.5040
 3495TIP3   OH232119   3.566   3.936   2.617  0.1386  0.9611 -0.0904
 3495TIP3    H132120   3.523   3.851   2.617  0.5539  0.7449 -0.9919
 3495TIP3    H232121   3.521   3.985   2.686 -1.3664  0.6450 -0.8047
 3496TIP3   OH232122   4.508   1.260   0.325  0.0544  0.2219  0.2677
 3496TIP3    H132123   4.508   1.276   0.419  0.4402  1.3977  0.0875
 3496TIP3    H232124   4.581   1.313   0.292 -0.6235  0.5278 -0.7949
 3497TIP3   OH232125   0.628   3.786   8.908  0.1339 -0.1925  0.9717
 3497TIP3    H132126   0.647   3.714   8.848 -0.8355 -0.4087  0.9024
 3497TIP3    H232127   0.643   3.865   8.857 -2.4073 -0.3606 -0.2005
 3498TIP3   OH232128   2.276   0.580   2.756  0.1270 -0.4098  0.4329
 3498TIP3    H132129   2.351   0.636   2.777 -0.6341  1.5495 -1.7052
 3498TIP3    H232130   2.221   0.583   2.834 -0.1648  2.3611  0.2122
 3499TIP3   OH232131   2.494   6.277   7.707 -0.3716 -0.9121 -0.3301
 3499TIP3    H132132   2.426   6.329   7.664 -1.2651 -1.5834  0.2337
 3499TIP3    H232133   2.575   6.324   7.688 -1.0238  0.1025 -0.7206
 3500TIP3   OH232134   3.876   0.615   9.028  0.0494 -0.2388 -0.3453
 3500TIP3    H132135   3.907   0.581   9.112 -1.1564 -0.0639  0.1885
 3500TIP3    H232136   3.878   0.539   8.970  1.0348 -0.3270 -0.2108
 3501TIP3   OH232137   4.445   2.402   2.010 -0.4575  0.4981  0.0534
 3501TIP3    H132138   4.502   2.467   2.051 -1.1223  2.2204 -1.6293
 3501TIP3    H232139   4.376   2.453   1.969 -1.8127 -1.3837 -0.1538
 3502TIP3   OH232140   5.934   0.023   2.040  0.1482 -0.2309  0.2461
 3502TIP3    H132141   5.974  -0.014   2.119  2.5745  0.1590 -0.7078
 3502TIP3    H232142   5.878  -0.047   2.006  1.6114 -1.6016  0.5773
 3503TIP3   OH232143   4.231   5.495   8.440 -0.4863  0.4526  0.1377
 3503TIP3    H132144   4.324   5.481   8.420 -0.4697  0.0053  0.5045
 3503TIP3    H232145   4.206   5.416   8.489 -1.0437  0.6010  0.0879
 3504TIP3   OH232146   4.386   2.965   1.876  0.1373 -0.4215  0.1112
 3504TIP3    H132147   4.291   2.952   1.868 -0.0053  0.9665 -0.8972
 3504TIP3    H232148   4.399   3.000   1.964 -0.3390 -0.2453  0.1125
 3505TIP3   OH232149   5.340   4.303   8.035 -0.3275  0.1928  0.3689
 3505TIP3    H132150   5.302   4.237   7.977  0.1737  0.9548 -0.8561
 3505TIP3    H232151   5.270   4.367   8.048 -0.2792  0.2881  0.1704
 3506TIP3   OH232152   3.541   5.021   0.552  0.2648 -0.4685 -0.3409
 3506TIP3    H132153   3.630   4.987   0.561 -0.2525 -1.7154  0.4233
 3506TIP3    H232154   3.485   4.944   0.562 -1.0317  0.7002  2.3045
 3507TIP3   OH232155   0.615   0.520   9.029 -0.4264  0.2903  0.1024
 3507TIP3    H132156   0.598   0.527   9.122 -0.2661 -1.9370  0.3502
 3507TIP3    H232157   0.699   0.474   9.023 -1.4522 -1.5624 -1.0902
 3508TIP3   OH232158   4.699   4.448   1.438  0.5488  0.0698  0.0067
 3508TIP3    H132159   4.779   4.463   1.387  0.0832  2.9876 -0.0292
 3508TIP3    H232160   4.629   4.479   1.381 -0.4572 -0.9577  0.6637
 3509TIP3   OH232161   0.049   5.585   0.990 -0.7456 -0.3843  0.6704
 3509TIP3    H132162  -0.021   5.644   0.961 -1.5991 -1.7400 -0.1403
 3509TIP3    H232163   0.003   5.507   1.020  0.3583 -0.5868  1.9112
 3510TIP3   OH232164   2.387   0.408   0.978  0.0949  0.0866  0.2515
 3510TIP3    H132165   2.438   0.414   1.058  0.2929 -1.6119  0.2977
 3510TIP3    H232166   2.443   0.447   0.910  0.5313  0.2082  0.6788
 3511TIP3   OH232167   5.394   3.914   0.420  0.4943  0.4068  0.7988
 3511TIP3    H132168   5.449   3.857   0.366  0.8464  0.7683  0.7715
 3511TIP3    H232169   5.394   3.998   0.374 -1.3131  0.0141 -0.0191
 3512TIP3   OH232170   4.770   4.606   1.653 -0.1359  0.0510  0.0046
 3512TIP3    H132171   4.791   4.683   1.600  2.1555 -1.5169 -1.5504
 3512TIP3    H232172   4.742   4.541   1.589 -1.5761 -0.6112  1.2459
 3513TIP3   OH232173   6.190   0.820   1.271  0.0872  0.0791  0.2531
 3513TIP3    H132174   6.143   0.894   1.310  1.8207  0.5465  1.5648
 3513TIP3    H232175   6.281   0.849   1.268  0.3909 -0.9667 -1.8162
 3514TIP3   OH232176   5.217   5.110   2.301 -0.0511  0.2394 -0.3848
 3514TIP3    H132177   5.244   5.062   2.223 -0.7870 -1.9002  0.5954
 3514TIP3    H232178   5.281   5.084   2.368  1.0091  2.6063 -0.3855
 3515TIP3   OH232179   5.620   6.420   8.162 -0.0104 -0.3575 -0.2723
 3515TIP3    H132180   5.683   6.474   8.211 -0.8285  0.3371  0.0328
 3515TIP3    H232181   5.581   6.480   8.099  0.8341 -1.1825 -1.6256
 3516TIP3   OH232182   5.921   0.509   1.417 -0.4717  0.1741 -0.0359
 3516TIP3    H132183   5.858   0.487   1.485 -0.1177  2.2817  1.0430
 3516TIP3    H232184   6.004   0.523   1.463  0.6813 -1.7398 -1.3372
 3517TIP3   OH232185   6.175   6.348   8.171  0.0032 -0.0225 -0.3413
 3517TIP3    H132186   6.213   6.384   8.251  1.6688 -1.8331 -0.2320
 3517TIP3    H232187   6.091   6.311   8.199 -1.0349  2.2727 -0.1780
 3518TIP3   OH232188   3.316   0.049   1.437  0.0427 -0.2017  0.4521
 3518TIP3    H132189   3.390  -0.012   1.445 -1.3098 -1.8599  1.1463
 3518TIP3    H232190   3.347   0.117   1.378  1.8974 -1.1863  0.2094
 3519TIP3   OH232191   3.554   4.205   0.212 -0.6520  0.1866  0.0960
 3519TIP3    H132192   3.475   4.153   0.226 -1.2648  1.0382 -0.1218
 3519TIP3    H232193   3.611   4.183   0.286 -0.9059 -0.7564  0.0260
 3520TIP3   OH232194   4.773   2.808   2.176  0.2355 -0.5802 -0.1187
 3520TIP3    H132195   4.859   2.786   2.214 -0.0700 -2.6275 -0.4844
 3520TIP3    H232196   4.794   2.863   2.100  1.1152  0.1717  0.6461
 3521TIP3   OH232197   2.203   3.206   1.294  0.0287 -0.1251  0.0711
 3521TIP3    H132198   2.211   3.191   1.388 -0.6832  0.4824  0.2331
 3521TIP3    H232199   2.214   3.301   1.284 -0.3375 -0.1312 -0.4058
 3522TIP3   OH232200   5.802   0.214   1.460  0.3448  0.8925  1.1311
 3522TIP3    H132201   5.747   0.137   1.447 -0.4407  1.7449 -0.9090
 3522TIP3    H232202   5.747   0.275   1.509 -0.0207  1.1546  0.4165
 3523TIP3   OH232203   1.400   2.471   1.502  0.4899  0.0937  0.2496
 3523TIP3    H132204   1.393   2.473   1.598  0.8094 -2.0681  0.3658
 3523TIP3    H232205   1.320   2.428   1.473 -0.2600  1.9763 -0.5981
 3524TIP3   OH232206   4.509   0.664   0.970 -0.1365  0.3901 -0.2538
 3524TIP3    H132207   4.486   0.664   1.063 -0.4416 -0.5882 -0.3184
 3524TIP3    H232208   4.560   0.744   0.957  1.4974 -0.3674  1.1414
 3525TIP3   OH232209   2.266   4.177   0.537  0.1333  0.3840 -0.1499
 3525TIP3    H132210   2.196   4.242   0.542  0.6333  0.8439  1.1515
 3525TIP3    H232211   2.234   4.114   0.472 -1.0877  1.0390 -0.2340
 3526TIP3   OH232212   3.717   4.870   0.156 -0.3795 -0.8618 -0.1267
 3526TIP3    H132213   3.701   4.777   0.166  0.2390 -1.0649 -0.8899
 3526TIP3    H232214   3.650   4.913   0.209 -0.9366 -1.7271 -0.1262
 3527TIP3   OH232215   0.019   4.313   7.274 -0.0351  0.1885  0.9660
 3527TIP3    H132216   0.084   4.274   7.215 -0.3107  1.2637 -0.0892
 3527TIP3    H232217   0.038   4.406   7.272  0.0262  0.2440  2.7193
 3528TIP3   OH232218   3.290   0.539   8.463 -0.1773 -0.1325  0.1835
 3528TIP3    H132219   3.333   0.495   8.537 -0.9937 -0.4352  0.4875
 3528TIP3    H232220   3.236   0.606   8.504  0.5861  0.7557 -0.2450
 3529TIP3   OH232221   6.205   3.772   1.110 -0.2966 -0.0992  0.0124
 3529TIP3    H132222   6.229   3.775   1.203  0.0391  1.6337 -0.0860
 3529TIP3    H232223   6.274   3.821   1.065 -1.4015  0.7136 -0.8937
 3530TIP3   OH232224   5.466   5.174   8.054  0.0507 -0.3198  0.2395
 3530TIP3    H132225   5.404   5.246   8.056 -1.2937 -1.3823 -0.7571
 3530TIP3    H232226   5.552   5.215   8.066 -0.6629  1.4323 -0.3127
 3531TIP3   OH232227   1.123   4.915   8.206 -0.1643 -0.4157  0.2233
 3531TIP3    H132228   1.169   4.880   8.130  0.0644 -0.5652  0.4282
 3531TIP3    H232229   1.174   4.992   8.231  0.5468 -1.1204  1.0322
 3532TIP3   OH232230   3.583   4.673   2.875 -0.1492  0.2812  0.2462
 3532TIP3    H132231   3.552   4.669   2.965 -1.3606 -0.1004 -0.1696
 3532TIP3    H232232   3.548   4.594   2.834 -0.5398  0.9860 -0.8300
 3533TIP3   OH232233   3.110   3.361   2.399 -0.0978  0.3020 -0.1070
 3533TIP3    H132234   3.062   3.338   2.320 -1.0778  1.3424  0.1477
 3533TIP3    H232235   3.163   3.437   2.374  0.0881  0.2300  0.0640
 3534TIP3   OH232236   4.094   3.223   8.192  0.0760 -0.4786  0.1918
 3534TIP3    H132237   4.013   3.273   8.186 -0.2879 -0.7132  2.3638
 3534TIP3    H232238   4.067   3.135   8.218  1.0305 -0.4486  1.3516
 3535TIP3   OH232239   1.229   4.403   0.872 -0.5286 -0.2557  0.0858
 3535TIP3    H132240   1.242   4.483   0.923  1.9727 -0.6565  0.2180
 3535TIP3    H232241   1.271   4.334   0.924 -1.8165 -1.5138 -0.4611
 3536TIP3   OH232242   4.308   0.870   8.829 -0.2150 -0.2565  0.4134
 3536TIP3    H132243   4.224   0.867   8.875 -0.7826  1.7256 -0.3872
 3536TIP3    H232244   4.373   0.888   8.897 -0.2505 -2.6352  1.1663
 3537TIP3   OH232245   3.310   5.193   1.611  0.0932 -0.3110 -0.1661
 3537TIP3    H132246   3.343   5.244   1.537  1.0434 -1.9194 -0.9008
 3537TIP3    H232247   3.251   5.129   1.571 -1.9590  0.8034  0.8517
 3538TIP3   OH232248   0.575   0.823   0.583 -0.0845 -0.1731 -0.3245
 3538TIP3    H132249   0.495   0.830   0.635 -0.7723  0.3777 -1.4247
 3538TIP3    H232250   0.580   0.731   0.558 -0.3258 -0.2230 -0.1942
 3539TIP3   OH232251   6.628   1.823   1.754  0.3263  0.3995 -0.3141
 3539TIP3    H132252   6.680   1.901   1.772  0.8399  0.1986 -0.8809
 3539TIP3    H232253   6.558   1.853   1.697  0.2031  0.5481 -0.0850
 3540TIP3   OH232254   3.823   3.501   0.453  0.0231  0.5364 -0.6948
 3540TIP3    H132255   3.845   3.420   0.406 -1.0014  0.2682 -0.7320
 3540TIP3    H232256   3.904   3.551   0.453  1.2606 -1.3125  1.0545
 3541TIP3   OH232257   2.678   2.198   3.283  0.8187  0.2418  0.3212
 3541TIP3    H132258   2.743   2.188   3.353  1.0479 -3.3266 -0.1948
 3541TIP3    H232259   2.598   2.225   3.329  1.1679 -1.2140  1.9197
 3542TIP3   OH232260   2.040   6.469   1.744 -0.0394 -0.5093  0.0900
 3542TIP3    H132261   2.055   6.562   1.756  0.8317 -0.2376 -2.5026
 3542TIP3    H232262   2.014   6.437   1.831  0.2591  1.9919  1.1722
 3543TIP3   OH232263   4.783   2.536   2.594 -0.3850 -0.4878 -0.1050
 3543TIP3    H132264   4.801   2.540   2.688 -1.0947 -2.1158  0.1203
 3543TIP3    H232265   4.824   2.615   2.559  2.1838 -1.1252  1.2000
 3544TIP3   OH232266   6.163   2.384   2.752  0.0156 -0.0760  0.2981
 3544TIP3    H132267   6.249   2.346   2.774  0.5158  1.0230  0.3072
 3544TIP3    H232268   6.100   2.321   2.788  0.7983 -1.2094 -0.2369
 3545TIP3   OH232269   0.585   2.376   2.265  1.0113  0.3499  0.5433
 3545TIP3    H132270   0.675   2.360   2.237  1.2245  1.0829  0.7812
 3545TIP3    H232271   0.588   2.462   2.307 -0.0136  0.9004 -0.4496
 3546TIP3   OH232272   5.937   1.660   8.881  0.2262  0.0693  0.2195
 3546TIP3    H132273   5.880   1.588   8.907  1.4747 -1.0374  0.0481
 3546TIP3    H232274   5.973   1.633   8.797  1.1698  0.6154  0.4235
 3547TIP3   OH232275   3.482   5.294   8.078  0.1837  0.8475 -0.0330
 3547TIP3    H132276   3.432   5.289   7.997  1.5530  3.0455 -1.0659
 3547TIP3    H232277   3.523   5.380   8.077  1.6730  0.2496  2.1624
 3548TIP3   OH232278   3.612   1.874   1.687  0.2960  0.0458 -0.1142
 3548TIP3    H132279   3.562   1.849   1.609 -1.4588 -1.7511  1.4651
 3548TIP3    H232280   3.547   1.911   1.746  1.8361  2.7073  0.0676
 3549TIP3   OH232281   4.809   5.918   0.568 -0.1569  0.2914  0.1190
 3549TIP3    H132282   4.747   5.988   0.548 -0.2155  0.0142 -0.7022
 3549TIP3    H232283   4.825   5.875   0.484  2.0170  1.0596  0.0887
 3550TIP3   OH232284   1.883   5.903   0.189  0.3388  0.0567 -0.7624
 3550TIP3    H132285   1.894   5.913   0.094  0.8743 -1.1466 -0.8517
 3550TIP3    H232286   1.907   5.812   0.206  0.1858  0.2386  0.5277
 3551TIP3   OH232287   4.233   6.445   0.964  0.1029  0.4231  0.0155
 3551TIP3    H132288   4.163   6.410   0.908  1.4941 -0.6751 -1.1361
 3551TIP3    H232289   4.187   6.487   1.036 -1.7501 -2.1491  0.4976
 3552TIP3   OH232290   1.402   2.385   8.539  0.1329 -0.1129 -0.0889
 3552TIP3    H132291   1.451   2.362   8.460  0.5033 -0.2453  0.1787
 3552TIP3    H232292   1.316   2.412   8.506  0.0352 -0.8622 -0.4853
 3553TIP3   OH232293   1.396   3.746   1.638  0.4744 -0.4365  0.4421
 3553TIP3    H132294   1.379   3.761   1.545  2.0756  2.3913  0.5110
 3553TIP3    H232295   1.464   3.678   1.640  0.4043 -0.5356 -0.4360
 3554TIP3   OH232296   1.240   5.079   2.813  0.3917  0.0847  0.1973
 3554TIP3    H132297   1.159   5.030   2.818 -2.4626  4.3470  1.1963
 3554TIP3    H232298   1.273   5.081   2.903  0.1601  0.4878  0.2747
 3555TIP3   OH232299   6.420   4.811   7.253  0.4503  0.3566 -0.1430
 3555TIP3    H132300   6.333   4.830   7.217  0.9680  1.4595 -0.8804
 3555TIP3    H232301   6.424   4.715   7.257 -0.8081  0.2901 -0.0603
 3556TIP3   OH232302   3.332   5.604   0.893  0.1367 -0.2907 -0.4168
 3556TIP3    H132303   3.319   5.601   0.798 -2.1690  0.5609 -0.2033
 3556TIP3    H232304   3.304   5.518   0.924  0.1500 -0.3005 -0.4322
 3557TIP3   OH232305   2.405   0.871   8.352  0.1163 -0.1618  0.0009
 3557TIP3    H132306   2.383   0.961   8.377  0.1324 -0.3979  0.8818
 3557TIP3    H232307   2.320   0.830   8.335  0.1525  0.2643 -1.2997
 3558TIP3   OH232308   4.004   4.072   2.923 -0.2137  0.5259  0.3235
 3558TIP3    H132309   4.050   4.053   2.841 -0.2611  1.4821  0.0644
 3558TIP3    H232310   4.072   4.106   2.981 -0.3717  0.8539  0.3214
 3559TIP3   OH232311   3.617   2.291   0.435  0.1833 -0.4658  0.2265
 3559TIP3    H132312   3.697   2.281   0.487  0.8544  0.8100 -0.5007
 3559TIP3    H232313   3.648   2.298   0.345 -0.5400  1.9250  0.0849
 3560TIP3   OH232314   4.406   1.092   2.277  0.6771 -0.3308  0.2814
 3560TIP3    H132315   4.435   1.027   2.340  1.5862  0.5399  0.7958
 3560TIP3    H232316   4.482   1.149   2.264 -0.3354  1.1251  0.4969
 3561TIP3   OH232317   3.430   6.120   2.071  0.3127 -0.4630  0.1290
 3561TIP3    H132318   3.403   6.047   2.127  2.2703 -0.4680  1.1485
 3561TIP3    H232319   3.517   6.144   2.103 -0.2242  2.2669 -0.2405
 3562TIP3   OH232320   1.014   3.348   1.132  0.1270  0.0115  0.2637
 3562TIP3    H132321   0.931   3.391   1.113  0.8602  1.0639 -0.6571
 3562TIP3    H232322   1.062   3.410   1.187  0.7653 -0.0555 -0.1965
 3563TIP3   OH232323   1.332   4.255   7.937  0.1661  0.2843 -0.4520
 3563TIP3    H132324   1.348   4.349   7.936  0.0446  0.3047 -0.4122
 3563TIP3    H232325   1.249   4.245   7.983  0.1652  0.1596 -0.4808
 3564TIP3   OH232326   1.365   0.359   0.565 -0.2390 -0.0451 -0.4933
 3564TIP3    H132327   1.377   0.272   0.604  3.0171 -0.1002 -1.3779
 3564TIP3    H232328   1.328   0.342   0.478  1.5795 -0.7222 -1.1755
 3565TIP3   OH232329   4.797   1.932   8.816 -0.2901 -0.1671  0.6201
 3565TIP3    H132330   4.767   1.846   8.842  0.5812 -0.7343 -0.1807
 3565TIP3    H232331   4.874   1.916   8.762 -1.6057  0.9457 -1.7687
 3566TIP3   OH232332   3.363   3.997   2.031  0.4785 -0.2840  0.0129
 3566TIP3    H132333   3.392   3.943   2.105 -0.6813  0.2317  0.8779
 3566TIP3    H232334   3.321   3.935   1.971  1.6136 -0.7378 -0.3358
 3567TIP3   OH232335   1.910   2.326   0.151 -0.4306 -0.6520  0.5401
 3567TIP3    H132336   1.966   2.264   0.198  0.5423  0.5271  0.9868
 3567TIP3    H232337   1.829   2.330   0.202  0.1312 -0.3349  1.4190
 3568TIP3   OH232338   3.729   2.893   7.719  0.2986 -0.4396 -0.5141
 3568TIP3    H132339   3.655   2.934   7.764  1.4487 -0.3488  1.4111
 3568TIP3    H232340   3.751   2.955   7.649 -0.0750  0.6180  0.2756
 3569TIP3   OH232341   6.123   1.653   1.424 -0.1789  0.2538  0.3983
 3569TIP3    H132342   6.127   1.601   1.343  0.1287  0.6930  0.1304
 3569TIP3    H232343   6.149   1.591   1.493 -0.9735 -0.2737  0.2405
 3570TIP3   OH232344   6.253   2.318   1.370 -0.1728  0.0569  0.0306
 3570TIP3    H132345   6.213   2.246   1.419  2.7388 -1.6612  0.1187
 3570TIP3    H232346   6.285   2.378   1.438  1.6964 -1.0954  0.2291
 3571TIP3   OH232347   5.992   3.406   1.927 -0.0822  0.0047 -0.4386
 3571TIP3    H132348   5.973   3.349   2.001  0.0532 -0.1666 -0.5361
 3571TIP3    H232349   6.074   3.449   1.951 -0.0661 -0.0108 -0.4655
 3572TIP3   OH232350   5.417   1.518   2.392  0.3943  0.6195 -0.2743
 3572TIP3    H132351   5.410   1.593   2.451 -0.5213  0.7452 -0.5305
 3572TIP3    H232352   5.421   1.442   2.450  1.1904  0.8484 -0.0166
 3573TIP3   OH232353   2.745   0.740   7.338  0.3870  0.0987  0.1848
 3573TIP3    H132354   2.665   0.788   7.357 -0.7059 -0.3313 -2.7804
 3573TIP3    H232355   2.803   0.804   7.297 -0.0703 -0.4342 -1.3822
 3574TIP3   OH232356   2.704   4.530   7.885 -0.0428 -0.5200  0.7116
 3574TIP3    H132357   2.785   4.478   7.880  0.0148 -0.3440 -2.4354
 3574TIP3    H232358   2.733   4.617   7.910  0.5667 -0.7956  0.9773
 3575TIP3   OH232359   0.105   4.582   9.029  0.0932  0.4529  0.0629
 3575TIP3    H132360   0.136   4.570   8.939  0.1613 -0.8195  0.2294
 3575TIP3    H232361   0.016   4.546   9.029 -0.0832  0.8813  0.3937
 3576TIP3   OH232362   5.107   2.428   2.297  0.0927 -0.0109  0.1401
 3576TIP3    H132363   5.179   2.470   2.345 -0.2157 -1.4489  1.9866
 3576TIP3    H232364   5.066   2.499   2.247  2.7291  0.8635 -0.9514
 3577TIP3   OH232365   1.775   0.607   0.793 -0.1315 -0.3242 -0.2770
 3577TIP3    H132366   1.732   0.543   0.735 -2.4699  0.4538  0.4887
 3577TIP3    H232367   1.740   0.587   0.880  0.9220  0.5120  0.3505
 3578TIP3   OH232368   1.046   3.911   1.949 -0.3140  0.1785  0.0705
 3578TIP3    H132369   1.088   3.884   1.868  1.8867 -0.0219  1.1785
 3578TIP3    H232370   0.955   3.883   1.940 -0.0905  0.0221 -2.2240
 3579TIP3   OH232371   3.176   3.025   2.520  0.4219  0.4123  0.0702
 3579TIP3    H132372   3.217   3.106   2.489  0.0580  0.4530 -0.3005
 3579TIP3    H232373   3.197   3.023   2.614  1.8924  0.0691 -0.2367
 3580TIP3   OH232374   5.681   3.427   0.677 -0.2045 -0.0965 -0.3830
 3580TIP3    H132375   5.652   3.502   0.729  2.6751  0.5174  0.5355
 3580TIP3    H232376   5.710   3.465   0.595 -1.3593 -0.6139 -1.0519
 3581TIP3   OH232377   0.997   3.658   1.658  0.0909 -0.5480 -0.1776
 3581TIP3    H132378   1.070   3.716   1.636  0.6067 -1.0263  0.2458
 3581TIP3    H232379   1.009   3.638   1.751 -1.2118  0.2525  0.1835
 3582TIP3   OH232380   5.840   4.097   8.742  0.0512  0.0630  0.0274
 3582TIP3    H132381   5.827   4.140   8.657 -0.5954 -0.2946 -0.0645
 3582TIP3    H232382   5.752   4.069   8.768  0.2382  0.2041  0.8340
 3583TIP3   OH232383   0.961   2.311   8.584 -0.0862  0.1878 -0.0017
 3583TIP3    H132384   0.889   2.363   8.547  0.4176  0.8690 -0.0461
 3583TIP3    H232385   1.032   2.322   8.521  0.6303  0.9746  0.9145
 3584TIP3   OH232386   4.528   2.555   8.579  0.2522 -0.2943 -0.4614
 3584TIP3    H132387   4.562   2.525   8.496  0.2921  1.0516 -0.9655
 3584TIP3    H232388   4.434   2.538   8.574  0.1561  0.3473 -1.0608
 3585TIP3   OH232389   4.896   5.019   0.399 -0.1980  0.3835  0.6760
 3585TIP3    H132390   4.831   4.948   0.397 -0.8965  0.9926  1.0372
 3585TIP3    H232391   4.926   5.021   0.490  1.2035 -0.6463  0.2639
 3586TIP3   OH232392   6.488   5.116   1.191 -0.1992 -0.0703 -0.0744
 3586TIP3    H132393   6.481   5.206   1.157 -1.4212 -0.2106 -0.2501
 3586TIP3    H232394   6.431   5.116   1.268  1.1442 -0.2456  0.9618
 3587TIP3   OH232395   2.887   1.632   0.228 -0.3509 -0.1793  0.3602
 3587TIP3    H132396   2.871   1.538   0.219  1.5166 -0.3959 -1.2014
 3587TIP3    H232397   2.806   1.666   0.267 -1.1133 -2.3889  0.8539
 3588TIP3   OH232398   4.100   0.792   0.157 -0.0457 -0.3750  0.1322
 3588TIP3    H132399   4.096   0.884   0.183 -0.2364  0.0074 -1.1504
 3588TIP3    H232400   4.011   0.773   0.127 -0.0057 -0.9790  0.4016
 3589TIP3   OH232401   3.693   1.386   1.316  0.0492  0.3523  0.1136
 3589TIP3    H132402   3.699   1.461   1.375 -0.5587 -0.4223  1.1853
 3589TIP3    H232403   3.622   1.332   1.351 -0.6948  0.1244 -1.6392
 3590TIP3   OH232404   1.554   0.248   1.921  0.4721 -0.0077  0.5795
 3590TIP3    H132405   1.475   0.300   1.909  2.0146  2.2273 -0.5802
 3590TIP3    H232406   1.586   0.273   2.008  0.6095  0.1177  0.4932
 3591TIP3   OH232407   4.314   1.437   1.389  0.1279 -0.5564  0.7043
 3591TIP3    H132408   4.296   1.531   1.389  1.0944 -0.3387 -0.8635
 3591TIP3    H232409   4.233   1.397   1.358  0.7616  0.0939 -2.1470
 3592TIP3   OH232410   1.259   6.104   1.558 -0.0966 -0.2551  0.0335
 3592TIP3    H132411   1.278   6.013   1.581 -1.6669 -0.6701 -0.2390
 3592TIP3    H232412   1.242   6.103   1.464 -3.2507 -0.2943  0.5156
 3593TIP3   OH232413   3.895   4.096   8.456 -0.0244  0.0929  0.6615
 3593TIP3    H132414   3.826   4.083   8.520 -0.0475 -0.8335  0.4619
 3593TIP3    H232415   3.871   4.039   8.383 -0.5254  1.8331 -0.6071
 3594TIP3   OH232416   0.939   2.845   2.740 -0.3444 -0.0482  0.1039
 3594TIP3    H132417   0.918   2.872   2.650 -0.1150  1.1267  0.3901
 3594TIP3    H232418   1.033   2.855   2.746 -0.6919  3.3400  1.5253
 3595TIP3   OH232419   5.651   5.504   9.198 -0.2769 -0.2511  0.3967
 3595TIP3    H132420   5.671   5.420   9.156 -0.8802 -0.3057  0.2043
 3595TIP3    H232421   5.586   5.544   9.141  1.0329  1.0051 -0.2717
 3596TIP3   OH232422   3.140   5.240   8.452  0.3412  0.2482 -0.1029
 3596TIP3    H132423   3.235   5.240   8.439  0.0726 -1.0471 -2.7717
 3596TIP3    H232424   3.104   5.211   8.368 -2.3879 -0.4539  1.1822
 3597TIP3   OH232425   1.464   5.807   2.478  0.1708  1.0359 -0.7055
 3597TIP3    H132426   1.430   5.770   2.397 -1.1240  1.5001 -0.3926
 3597TIP3    H232427   1.390   5.804   2.539  1.4846 -0.6666  0.9528
 3598TIP3   OH232428   0.831   3.208   1.725  0.5016 -0.1156 -0.3923
 3598TIP3    H132429   0.749   3.189   1.679  1.1347  0.1911 -1.6929
 3598TIP3    H232430   0.889   3.137   1.699  0.3086 -1.0248  1.5086
 3599TIP3   OH232431   3.274   3.599   1.486 -0.2828  0.4647 -0.3412
 3599TIP3    H132432   3.191   3.587   1.440 -0.8250 -0.1768  0.7604
 3599TIP3    H232433   3.341   3.586   1.419 -1.0545  2.5389 -1.6058
 3600TIP3   OH232434   0.090   4.922   1.829  0.2072 -0.8750 -0.3854
 3600TIP3    H132435   0.019   4.889   1.883  0.1868 -2.4477 -1.2908
 3600TIP3    H232436   0.168   4.879   1.864  0.3215 -1.1669 -0.9732
 3601TIP3   OH232437   4.624   5.595   0.493  0.8257 -0.0911  0.0280
 3601TIP3    H132438   4.625   5.614   0.400  1.1002  1.1016  0.2587
 3601TIP3    H232439   4.575   5.667   0.532  1.7892  0.1114  0.9296
 3602TIP3   OH232440   2.893   1.617   1.190  0.4319  0.3923 -0.1430
 3602TIP3    H132441   2.901   1.596   1.283  1.7551  0.3142 -0.2582
 3602TIP3    H232442   2.824   1.683   1.187 -0.6061 -0.5852  0.7242
 3603TIP3   OH232443   5.603   4.793   1.040  0.4947 -0.2240 -0.8615
 3603TIP3    H132444   5.589   4.840   1.122  0.5898 -0.4500 -0.7143
 3603TIP3    H232445   5.688   4.749   1.051 -0.7793 -2.6301  0.0808
 3604TIP3   OH232446   1.528   5.340   9.187 -0.6620 -0.2618  0.3321
 3604TIP3    H132447   1.482   5.264   9.153 -0.2352  0.3064 -1.6735
 3604TIP3    H232448   1.459   5.399   9.217 -1.1069 -0.5760 -0.0553
 3605TIP3   OH232449   4.097   1.504   8.859 -0.0650  0.1285  0.5069
 3605TIP3    H132450   4.090   1.469   8.771 -1.1403 -1.6002  1.2149
 3605TIP3    H232451   4.115   1.597   8.847  1.0505 -0.3017 -1.5001
 3606TIP3   OH232452   1.033   3.110   2.163  0.3090  0.1532 -0.6245
 3606TIP3    H132453   0.950   3.134   2.122 -0.1463 -0.7989 -0.2763
 3606TIP3    H232454   1.057   3.187   2.215  0.3293  0.9426 -1.7677
 3607TIP3   OH232455   3.324   2.378   0.246 -0.0874 -0.4626 -0.4074
 3607TIP3    H132456   3.344   2.468   0.218  1.3557 -0.1322  1.4389
 3607TIP3    H232457   3.358   2.323   0.176  1.3261  0.3831 -0.4244
 3608TIP3   OH232458   4.632   2.908   1.459  0.0640  0.3774 -0.3733
 3608TIP3    H132459   4.554   2.869   1.420  0.3046 -2.0154  1.3517
 3608TIP3    H232460   4.630   2.881   1.551  1.6221  2.3981  0.3325
 3609TIP3   OH232461   6.540   0.070   1.907  0.3031  0.3296  0.3379
 3609TIP3    H132462   6.633   0.053   1.894  0.4597  2.0396 -1.2819
 3609TIP3    H232463   6.538   0.148   1.962 -0.1229  0.7116 -0.2031
 3610TIP3   OH232464   6.390   3.467   0.729  0.1736 -0.1213 -0.0092
 3610TIP3    H132465   6.314   3.474   0.671  2.5281  0.8700 -3.2933
 3610TIP3    H232466   6.403   3.373   0.741  1.0120 -0.5559 -3.3512
 3611TIP3   OH232467   4.220   6.076   2.584 -0.4468  0.3842  0.3961
 3611TIP3    H132468   4.198   6.168   2.571 -1.3794  0.3011  1.2259
 3611TIP3    H232469   4.312   6.076   2.609  0.4033  0.8217 -2.3996
 3612TIP3   OH232470   3.951   4.808   6.994 -0.2942 -0.1226 -0.0436
 3612TIP3    H132471   4.023   4.870   7.003 -0.9830  0.5776  0.7467
 3612TIP3    H232472   3.872   4.861   7.001 -0.8950 -0.9141 -0.6634
 3613TIP3   OH232473   5.560   3.408   8.947  0.4530 -0.6166 -0.1025
 3613TIP3    H132474   5.515   3.491   8.930 -2.7717 -2.0550  0.5879
 3613TIP3    H232475   5.559   3.363   8.862  3.6679  0.5599 -0.8876
 3614TIP3   OH232476   5.843   0.141   3.236  0.0477  0.0669 -0.5737
 3614TIP3    H132477   5.912   0.079   3.261 -0.9850 -1.8194 -2.1649
 3614TIP3    H232478   5.891   0.217   3.203  1.3746 -0.6348 -0.3416
 3615TIP3   OH232479   0.008   0.036   0.677 -0.5905  0.3080  0.7584
 3615TIP3    H132480   0.073  -0.013   0.728 -0.8514 -1.4233 -0.4902
 3615TIP3    H232481  -0.032  -0.030   0.619 -1.1382  1.9705 -0.8306
 3616TIP3   OH232482   3.005   2.472   2.860  0.3464  0.0620 -0.7534
 3616TIP3    H132483   3.082   2.482   2.916 -0.2995  0.9335  0.0091
 3616TIP3    H232484   2.991   2.558   2.820  0.4108 -0.3776 -1.7620
 3617TIP3   OH232485   3.855   3.803   8.725 -0.2472 -0.0188  0.0814
 3617TIP3    H132486   3.786   3.788   8.660 -1.3126 -1.1753  1.4315
 3617TIP3    H232487   3.925   3.743   8.699 -1.1544 -1.3733  0.6536
 3618TIP3   OH232488   3.026   0.424   2.922  0.2201  0.0475  0.4130
 3618TIP3    H132489   3.070   0.509   2.934  1.2768 -0.4976  0.5179
 3618TIP3    H232490   3.086   0.361   2.960 -0.2869 -0.8192 -0.1985
 3619TIP3   OH232491   2.174   6.069   2.078 -0.2506  0.2696  0.0940
 3619TIP3    H132492   2.144   5.997   2.023 -1.4892 -0.6348  1.8698
 3619TIP3    H232493   2.101   6.130   2.080 -1.4723 -1.0993  3.0001
 3620TIP3   OH232494   5.745   3.489   0.412  0.0979  0.5486  0.0712
 3620TIP3    H132495   5.749   3.549   0.338  1.1203  0.7280  0.2635
 3620TIP3    H232496   5.753   3.402   0.374  2.9359  0.7168  0.1138
 3621TIP3   OH232497   0.109   0.092   0.227 -0.1856  0.7182  0.5938
 3621TIP3    H132498   0.083   0.097   0.319 -2.0492 -2.4548  0.4260
 3621TIP3    H232499   0.026   0.085   0.180  0.7372 -1.4173 -0.8937
 3622TIP3   OH232500   4.647   2.312   7.666  0.0159 -0.6640 -0.1605
 3622TIP3    H132501   4.621   2.317   7.574 -0.1997 -0.4324 -0.0887
 3622TIP3    H232502   4.586   2.249   7.704 -0.2552 -0.3409 -0.0558
 3623TIP3   OH232503   6.555   4.431   0.220 -0.7158 -0.3658  0.0635
 3623TIP3    H132504   6.555   4.461   0.129 -0.3313  1.0990  0.5184
 3623TIP3    H232505   6.636   4.381   0.229 -1.6689 -2.1923 -0.8754
 3624TIP3   OH232506   3.553   6.517   8.914  0.2060  0.1876 -0.1184
 3624TIP3    H132507   3.600   6.440   8.946 -0.4298  0.2570  1.0186
 3624TIP3    H232508   3.530   6.567   8.993 -0.3785  0.9651 -0.7581
 3625TIP3   OH232509   6.594   3.938   2.702 -0.7774  0.0497 -0.3174
 3625TIP3    H132510   6.671   3.939   2.759 -1.7384 -0.5909  1.0621
 3625TIP3    H232511   6.560   3.848   2.709 -0.7817 -0.1379 -2.1466
 3626TIP3   OH232512   2.896   1.935   0.695  0.1091  0.0186 -0.0193
 3626TIP3    H132513   2.961   1.904   0.632  1.6512  1.9188  0.5377
 3626TIP3    H232514   2.840   1.859   0.711  1.7119 -1.4770 -1.1215
 3627TIP3   OH232515   4.292   4.701   8.088 -0.3151 -0.0885  0.1536
 3627TIP3    H132516   4.336   4.623   8.054 -0.6196 -0.0883 -0.2522
 3627TIP3    H232517   4.238   4.731   8.015 -1.0665 -0.1481  0.6731
 3628TIP3   OH232518   4.344   1.145   8.439 -0.2179  0.5916 -0.8425
 3628TIP3    H132519   4.348   1.161   8.534 -0.9755 -0.3727 -0.6287
 3628TIP3    H232520   4.405   1.208   8.402  1.1573  0.0678  0.3943
 3629TIP3   OH232521   4.191   3.241   8.604  0.6310 -0.2802  0.3977
 3629TIP3    H132522   4.109   3.289   8.619 -0.0908 -1.6309  0.9682
 3629TIP3    H232523   4.252   3.278   8.668  1.0308  1.9187 -1.1499
 3630TIP3   OH232524   0.041   0.567   1.410  0.3536 -0.2704 -0.1684
 3630TIP3    H132525   0.057   0.566   1.504 -3.7405 -0.0707  0.6927
 3630TIP3    H232526   0.015   0.657   1.390 -3.4721 -1.2669 -0.3787
 3631TIP3   OH232527   3.409   2.753   2.337  0.6887 -0.3605  0.3698
 3631TIP3    H132528   3.497   2.770   2.303 -0.3187 -0.1873 -2.4394
 3631TIP3    H232529   3.407   2.659   2.354  0.3220 -1.2414 -3.5403
 3632TIP3   OH232530   6.330   1.585   8.642  0.2290 -0.1043 -0.0684
 3632TIP3    H132531   6.317   1.669   8.598  1.8755 -0.2645 -0.9240
 3632TIP3    H232532   6.331   1.520   8.571  1.6548 -0.5103  0.2815
 3633TIP3   OH232533   0.969   2.980   8.985 -0.1335 -0.1931 -0.2257
 3633TIP3    H132534   0.945   3.025   9.065 -0.3867 -2.1437  0.8690
 3633TIP3    H232535   1.064   2.966   8.993 -0.5626 -2.9689  1.2484
 3634TIP3   OH232536   4.988   2.203   8.864  0.1746 -0.3320 -0.4040
 3634TIP3    H132537   5.037   2.279   8.832  0.6284 -0.1152  0.7185
 3634TIP3    H232538   4.947   2.165   8.787  0.7284  0.4998 -1.1200
 3635TIP3   OH232539   1.197   5.846   0.674  0.8059 -0.5927  0.2946
 3635TIP3    H132540   1.266   5.796   0.632 -0.2427 -1.0706 -0.9306
 3635TIP3    H232541   1.132   5.861   0.605  0.2878  0.9793  1.0677
 3636TIP3   OH232542   0.616   4.143   8.453 -0.3078  0.1578  0.3120
 3636TIP3    H132543   0.637   4.231   8.421  1.8490  0.1598  1.5785
 3636TIP3    H232544   0.701   4.103   8.471 -1.2533 -2.1130  0.0444
 3637TIP3   OH232545   1.418   2.753   1.579 -0.5140  0.4557 -0.7690
 3637TIP3    H132546   1.380   2.673   1.545 -0.9085  0.7423 -1.0088
 3637TIP3    H232547   1.472   2.725   1.653  2.1062 -0.4621 -2.8553
 3638TIP3   OH232548   5.776   4.245   8.144  0.0619  0.3599  0.1465
 3638TIP3    H132549   5.694   4.285   8.117 -0.2562 -0.9936 -1.0400
 3638TIP3    H232550   5.830   4.242   8.064  1.9210  2.5916  1.1987
 3639TIP3   OH232551   5.106   1.730   0.649  0.1297 -0.7106  0.7444
 3639TIP3    H132552   5.016   1.705   0.628  0.0596  0.7866 -1.0685
 3639TIP3    H232553   5.157   1.651   0.633 -0.5295 -0.8004 -1.1759
 3640TIP3   OH232554   1.863   4.743   1.433  0.8860  0.2634 -0.4678
 3640TIP3    H132555   1.854   4.655   1.468 -2.1897  0.0820 -1.4139
 3640TIP3    H232556   1.789   4.752   1.373  1.4713  3.2795 -0.8736
 3641TIP3   OH232557   4.211   0.025   7.918 -0.4483 -0.1065 -0.5647
 3641TIP3    H132558   4.294   0.049   7.957 -0.9774  1.4303 -0.3060
 3641TIP3    H232559   4.157  -0.003   7.992 -0.6845  0.5197 -0.4911
 3642TIP3   OH232560   0.134   5.928   0.731  0.1069 -0.4255  0.5328
 3642TIP3    H132561   0.067   5.959   0.793 -0.2076  1.1750 -0.5416
 3642TIP3    H232562   0.089   5.926   0.647  1.7074  1.9829 -0.4715
 3643TIP3   OH232563   6.284   5.523   0.183  0.3251  0.0974 -0.1212
 3643TIP3    H132564   6.240   5.438   0.191  1.2249 -0.6772 -2.3733
 3643TIP3    H232565   6.296   5.553   0.272 -0.8626 -1.7101  0.7058
 3644TIP3   OH232566   6.496   6.425   0.760 -0.0519 -0.3093  0.0580
 3644TIP3    H132567   6.517   6.468   0.677  0.1835 -0.1086  0.2191
 3644TIP3    H232568   6.502   6.495   0.825  0.2315 -0.5623  0.3087
 3645TIP3   OH232569   4.518   3.329   1.988  1.0569  0.0907 -0.3366
 3645TIP3    H132570   4.480   3.411   2.018  0.1086 -0.0906 -0.9837
 3645TIP3    H232571   4.456   3.297   1.923  1.6593 -0.9007 -0.4392
 3646TIP3   OH232572   2.041   4.103   7.916  0.4193 -0.0068  0.3045
 3646TIP3    H132573   1.954   4.062   7.916  0.9426 -1.1830  0.5344
 3646TIP3    H232574   2.080   4.076   8.000  1.4179 -0.4392 -0.2810
 3647TIP3   OH232575   5.689   1.404   7.765  0.0509 -0.2422 -0.7269
 3647TIP3    H132576   5.701   1.483   7.713 -1.3152 -1.1052 -2.4881
 3647TIP3    H232577   5.778   1.378   7.790  0.6006  1.2355 -1.0349
 3648TIP3   OH232578   5.062   3.818   2.185 -0.5945  0.1053  0.2781
 3648TIP3    H132579   5.083   3.909   2.203 -0.8518  0.0598  0.8310
 3648TIP3    H232580   5.003   3.821   2.109 -0.4107  0.3767  0.1436
 3649TIP3   OH232581   1.120   3.541   7.744  0.4435 -0.5212  0.2223
 3649TIP3    H132582   1.162   3.586   7.671 -0.7752  0.4269  0.0894
 3649TIP3    H232583   1.056   3.483   7.703 -0.3372  0.1104  0.5305
 3650TIP3   OH232584   5.791   6.324   0.323 -0.1130  0.4610  0.2268
 3650TIP3    H132585   5.745   6.351   0.243  1.6250 -0.4572 -1.1517
 3650TIP3    H232586   5.864   6.270   0.292  0.3745 -0.2831  2.4794
 3651TIP3   OH232587   5.181   5.760   1.928 -0.8912 -0.6327  0.2188
 3651TIP3    H132588   5.226   5.760   2.013  1.0778  0.5801 -0.7649
 3651TIP3    H232589   5.092   5.731   1.949 -0.4908 -0.3230  2.7015
 3652TIP3   OH232590   6.531   3.631   0.490  0.9574  0.0191 -0.0121
 3652TIP3    H132591   6.523   3.719   0.527  2.6444  0.2399 -0.1043
 3652TIP3    H232592   6.538   3.574   0.566  1.0838  0.1082  0.0442
 3653TIP3   OH232593   0.399   5.946   2.889  0.6454  0.5308  0.2909
 3653TIP3    H132594   0.351   5.991   2.820 -0.6402  0.5594  1.1646
 3653TIP3    H232595   0.331   5.921   2.953  1.1913 -2.8257 -0.2345
 3654TIP3   OH232596   5.217   4.177   6.812  0.5620  0.0401  0.0837
 3654TIP3    H132597   5.176   4.263   6.813  0.6655  0.1049 -1.0024
 3654TIP3    H232598   5.306   4.192   6.845  0.2723  0.1685  0.8448
 3655TIP3   OH232599   3.965   5.203   8.773  0.0068 -0.1330  0.1732
 3655TIP3    H132600   4.031   5.181   8.839 -1.1949 -0.8880  1.1612
 3655TIP3    H232601   3.969   5.298   8.766 -0.6467  0.0866  2.2337
 3656TIP3   OH232602   5.646   5.470   8.575  0.0586 -0.0881 -0.0330
 3656TIP3    H132603   5.683   5.529   8.510  1.9070 -0.9680  0.1779
 3656TIP3    H232604   5.595   5.407   8.524  0.5585 -0.1016 -0.5160
 3657TIP3   OH232605   1.835   5.197   1.183 -0.0395  0.2424 -0.3319
 3657TIP3    H132606   1.863   5.106   1.193  2.1573  0.9665  0.8354
 3657TIP3    H232607   1.807   5.205   1.092  1.3203 -1.2099 -0.9146
 3658TIP3   OH232608   3.306   6.581   1.174 -0.0265 -0.1160 -0.0993
 3658TIP3    H132609   3.248   6.505   1.182  0.4771 -0.4634  0.2580
 3658TIP3    H232610   3.388   6.546   1.141  0.0206  0.3654 -0.5127
 3659TIP3   OH232611   3.628   3.327   8.183  0.1219 -0.0267  0.1353
 3659TIP3    H132612   3.718   3.317   8.151 -0.9542 -1.4339 -2.7457
 3659TIP3    H232613   3.597   3.238   8.197 -1.8067  0.2180 -2.0396
 3660TIP3   OH232614   1.736   4.649   8.795  0.0591  0.0632  0.0802
 3660TIP3    H132615   1.764   4.712   8.860  1.1521  0.9002 -1.1477
 3660TIP3    H232616   1.778   4.567   8.820  0.2401  0.3008  0.5619
 3661TIP3   OH232617   2.683   2.779   8.639  0.0786  0.6268  0.2254
 3661TIP3    H132618   2.658   2.731   8.718 -0.8236  0.3064 -0.2495
 3661TIP3    H232619   2.665   2.871   8.660 -1.4220  0.4184 -0.0576
 3662TIP3   OH232620   2.037   2.038   2.643 -0.3741 -0.0709  0.0594
 3662TIP3    H132621   2.109   1.987   2.680  1.7380  2.6506  0.0676
 3662TIP3    H232622   1.992   2.073   2.719 -1.1127 -0.9505  0.0424
 3663TIP3   OH232623   5.260   6.373   1.607 -0.0224  0.3758 -0.5344
 3663TIP3    H132624   5.226   6.296   1.561  0.6114  0.4936 -1.2227
 3663TIP3    H232625   5.287   6.340   1.692 -0.3221 -0.0415 -0.5957
 3664TIP3   OH232626   2.780   1.669   0.770 -0.2052  0.2272 -0.1138
 3664TIP3    H132627   2.721   1.617   0.715 -1.3194  1.2486  0.0984
 3664TIP3    H232628   2.731   1.685   0.850  0.0870  1.6614 -0.2025
 3665TIP3   OH232629   2.912   5.917   7.418 -0.2270  1.0175  0.3684
 3665TIP3    H132630   2.915   5.985   7.485  1.2712  2.1976 -0.8236
 3665TIP3    H232631   3.004   5.902   7.395 -0.5855 -0.7382 -0.0867
 3666TIP3   OH232632   0.728   3.016   0.741  0.3056  0.2382  0.2062
 3666TIP3    H132633   0.813   3.059   0.740 -0.8581  2.8044  0.8603
 3666TIP3    H232634   0.695   3.026   0.652  1.0681 -1.7501 -0.3523
 3667TIP3   OH232635   3.193   3.806   0.910 -0.0165  0.4220  0.1950
 3667TIP3    H132636   3.276   3.765   0.936 -0.5232 -0.4114  0.5686
 3667TIP3    H232637   3.212   3.900   0.909  0.8412  0.2701  0.6152
 3668TIP3   OH232638   2.158   0.223   1.047 -0.1408  1.1840  0.5425
 3668TIP3    H132639   2.132   0.159   0.981  1.4663  0.7807  0.2737
 3668TIP3    H232640   2.217   0.283   1.000  1.3490  0.6573  1.6806
 3669TIP3   OH232641   4.889   1.498   9.017  0.0699 -0.2622  0.2992
 3669TIP3    H132642   4.919   1.471   8.930  0.4592 -2.6939  1.1283
 3669TIP3    H232643   4.838   1.578   9.001  1.7053  0.4376 -1.9113
 3670TIP3   OH232644   2.289   0.020   1.185  0.2078  0.0577  0.1000
 3670TIP3    H132645   2.301   0.114   1.198 -1.5074  0.4833 -1.0897
 3670TIP3    H232646   2.322   0.005   1.096  0.6995 -0.5176  0.3782
 3671TIP3   OH232647   4.158   4.898   7.918  0.3284 -0.8263  0.2826
 3671TIP3    H132648   4.156   4.993   7.924  0.0301 -0.9038  2.0178
 3671TIP3    H232649   4.181   4.879   7.827 -0.2258  0.8855 -0.2292
 3672TIP3   OH232650   1.468   0.769   8.599 -0.1476  0.0924 -0.1221
 3672TIP3    H132651   1.391   0.744   8.649 -2.2666  2.3666 -2.0011
 3672TIP3    H232652   1.498   0.851   8.640 -0.5482  0.7784 -1.1673
 3673TIP3   OH232653   3.573   3.338   2.573  0.2585 -0.0360 -1.0642
 3673TIP3    H132654   3.631   3.309   2.643  2.0427  2.3030 -1.4175
 3673TIP3    H232655   3.485   3.330   2.609  1.0331 -0.3377  0.8803
 3674TIP3   OH232656   0.055   6.595   1.666  0.2644 -0.0116  0.4491
 3674TIP3    H132657   0.003   6.517   1.647 -0.4209  0.4727  0.2965
 3674TIP3    H232658   0.065   6.595   1.761  0.3907 -0.3651  0.4353
 3675TIP3   OH232659   3.289   6.077   7.503 -0.0669 -0.5648  0.0359
 3675TIP3    H132660   3.222   6.027   7.552 -0.6522  0.0003 -0.1773
 3675TIP3    H232661   3.255   6.166   7.502  1.4162  0.0548  1.2202
 3676TIP3   OH232662   1.555   4.518   1.458 -0.0658  0.4961  0.7734
 3676TIP3    H132663   1.472   4.507   1.505  0.5350  0.4744  1.8565
 3676TIP3    H232664   1.529   4.526   1.366 -1.1372 -1.4773  0.8489
 3677TIP3   OH232665   4.507   5.327   1.111  0.2939  0.3567  0.2710
 3677TIP3    H132666   4.486   5.376   1.190 -0.5238 -0.0617  0.3253
 3677TIP3    H232667   4.452   5.249   1.115 -1.1031  1.1712 -1.5768
 3678TIP3   OH232668   2.125   0.951   0.827  0.1064  0.3166  0.2872
 3678TIP3    H132669   2.186   0.894   0.874  0.3332  1.3130  1.2563
 3678TIP3    H232670   2.089   0.896   0.757  1.9706 -0.3502 -0.2028
 3679TIP3   OH232671   5.690   2.487   8.332 -0.5248 -0.6919 -0.1372
 3679TIP3    H132672   5.707   2.535   8.251  1.3234 -0.8743  0.0942
 3679TIP3    H232673   5.748   2.529   8.396 -1.7729 -0.7213  1.0367
 3680TIP3   OH232674   6.558   1.375   8.255 -0.2049  1.0011  0.6410
 3680TIP3    H132675   6.630   1.357   8.315  0.1116  1.3478  0.3671
 3680TIP3    H232676   6.481   1.384   8.311  0.1014  1.4013  1.0006
 3681TIP3   OH232677   5.687   1.493   8.886 -0.0920 -0.4469  0.2966
 3681TIP3    H132678   5.607   1.481   8.936 -0.8395  0.3956 -0.6622
 3681TIP3    H232679   5.706   1.406   8.850 -0.9279 -0.5230  0.0213
 3682TIP3   OH232680   6.320   1.220   0.357 -0.0242  0.5576  0.3537
 3682TIP3    H132681   6.319   1.315   0.350 -0.8584  0.5312  0.0028
 3682TIP3    H232682   6.355   1.203   0.445 -0.6830  1.2211  0.7640
 3683TIP3   OH232683   2.311   2.493   0.358 -0.5687 -0.1765 -0.5235
 3683TIP3    H132684   2.353   2.439   0.425  1.0096  0.0233 -1.2975
 3683TIP3    H232685   2.289   2.431   0.288 -1.2489 -0.2273 -0.2640
 3684TIP3   OH232686   4.820   3.662   1.240 -0.0611 -0.2092 -0.3691
 3684TIP3    H132687   4.913   3.639   1.238  0.4015  1.3674  1.1540
 3684TIP3    H232688   4.807   3.714   1.160  0.5511  0.2234 -0.1919
 3685TIP3   OH232689   3.391   3.158   6.984  0.2210 -0.4041  0.2240
 3685TIP3    H132690   3.417   3.230   7.041 -0.5266  1.0638 -1.2211
 3685TIP3    H232691   3.404   3.079   7.038  1.0660  0.7768  1.8400
 3686TIP3   OH232692   1.097   3.368   8.771  0.5344 -0.4815 -0.1162
 3686TIP3    H132693   1.033   3.297   8.765 -2.8504  2.1172  1.5450
 3686TIP3    H232694   1.120   3.372   8.864 -0.0912  1.0974  0.0105
 3687TIP3   OH232695   6.161   1.461   1.612  0.2637  0.6587  0.0304
 3687TIP3    H132696   6.239   1.467   1.667 -0.9771 -0.5258  2.0334
 3687TIP3    H232697   6.111   1.388   1.648  0.0814 -1.3178 -3.6871
 3688TIP3   OH232698   1.585   3.559   1.660  0.1974 -0.2708 -0.0882
 3688TIP3    H132699   1.663   3.513   1.630 -0.3080 -0.9558 -0.3596
 3688TIP3    H232700   1.555   3.509   1.735  0.7644  0.7476  0.8534
 3689TIP3   OH232701   2.442   2.642   8.504  0.1470 -0.0279  0.2756
 3689TIP3    H132702   2.492   2.640   8.422 -0.0742 -0.2805  0.1470
 3689TIP3    H232703   2.502   2.683   8.567  1.0338 -1.4927  0.4536
 3690TIP3   OH232704   6.273   0.751   2.261  0.0707  0.1138 -0.6317
 3690TIP3    H132705   6.349   0.745   2.320  0.9649  3.0716 -1.2869
 3690TIP3    H232706   6.209   0.801   2.311 -1.1569 -1.6062 -0.4230
 3691TIP3   OH232707   2.307   4.171   7.018 -0.0154  0.4022  0.6274
 3691TIP3    H132708   2.399   4.154   7.039 -0.0739 -1.7459 -0.5452
 3691TIP3    H232709   2.273   4.215   7.096  1.8308  0.6736  1.3506
 3692TIP3   OH232710   2.671   0.730   0.562 -0.0285  0.2600  0.4773
 3692TIP3    H132711   2.695   0.738   0.655  4.2645  1.0705 -0.4637
 3692TIP3    H232712   2.684   0.818   0.527  1.0424 -0.5648 -1.3248
 3693TIP3   OH232713   3.896   1.381   2.422  0.0733  0.2171 -0.4757
 3693TIP3    H132714   3.906   1.461   2.473  0.3371  1.3137 -2.1384
 3693TIP3    H232715   3.805   1.355   2.434  0.3881 -0.1765  1.3480
 3694TIP3   OH232716   3.035   5.913   8.069  0.6685  0.0659 -0.6444
 3694TIP3    H132717   3.083   5.917   7.987 -1.9498 -0.5656 -2.3147
 3694TIP3    H232718   3.008   6.003   8.086  2.5953  0.4819  0.4814
 3695TIP3   OH232719   1.958   3.018   0.199  1.6252 -0.1250  0.3110
 3695TIP3    H132720   1.928   2.952   0.262  1.8276 -0.6320 -0.1089
 3695TIP3    H232721   2.001   2.966   0.130  2.0895  0.4732  0.1460
 3696TIP3   OH232722   2.362   0.347   2.654 -0.5318  0.3771 -0.2774
 3696TIP3    H132723   2.393   0.322   2.741  1.9780 -0.1764 -1.2160
 3696TIP3    H232724   2.320   0.432   2.666  1.6207  1.3205  1.2151
 3697TIP3   OH232725   0.433   1.578   1.029 -0.2754  0.1174  0.8216
 3697TIP3    H132726   0.403   1.494   0.995  1.5133 -0.8151  1.4596
 3697TIP3    H232727   0.479   1.557   1.110 -0.3798  1.7903  1.3650
 3698TIP3   OH232728   0.841   1.792   2.131 -0.1130 -0.0861 -0.4147
 3698TIP3    H132729   0.823   1.830   2.217 -0.5906 -0.4951 -0.3249
 3698TIP3    H232730   0.935   1.802   2.119 -0.2874  1.4994 -0.5834
 3699TIP3   OH232731   4.922   4.907   8.506 -0.0431  0.1888 -0.2232
 3699TIP3    H132732   5.002   4.884   8.553 -0.1608  1.1458  0.4678
 3699TIP3    H232733   4.951   4.970   8.440  0.0270 -0.7174 -1.0890
 3700TIP3   OH232734   0.263   1.367   2.449 -0.0861 -0.8791  0.1436
 3700TIP3    H132735   0.302   1.376   2.536 -2.0434 -0.4221  1.0450
 3700TIP3    H232736   0.242   1.457   2.423 -0.7785 -1.1211 -0.1541
 3701TIP3   OH232737   0.800   0.986   1.665  0.2775 -0.1316  0.1579
 3701TIP3    H132738   0.716   0.945   1.686  0.5057 -1.2431 -0.9752
 3701TIP3    H232739   0.849   0.918   1.619  1.5179  0.7419  0.1362
 3702TIP3   OH232740   0.482   6.041   1.693  0.0043 -0.0750 -0.7226
 3702TIP3    H132741   0.399   6.057   1.737 -0.3492  0.4105 -1.5527
 3702TIP3    H232742   0.459   5.993   1.613  0.6278 -0.8633 -0.4385
 3703TIP3   OH232743   0.858   5.579   8.001 -0.1004 -0.7171 -0.5865
 3703TIP3    H132744   0.951   5.570   7.981 -0.5929 -2.3037 -2.5251
 3703TIP3    H232745   0.821   5.625   7.925 -0.8664  0.2033  0.3159
 3704TIP3   OH232746   3.935   0.851   1.501 -0.7856 -0.5864 -0.1855
 3704TIP3    H132747   3.903   0.770   1.461 -0.9287 -1.0779  0.8793
 3704TIP3    H232748   3.856   0.895   1.532 -0.6721 -0.2741 -0.3422
 3705TIP3   OH232749   4.233   1.506   1.946 -0.2506 -0.2432 -0.0318
 3705TIP3    H132750   4.266   1.427   1.989  0.6543 -1.3034 -2.4709
 3705TIP3    H232751   4.303   1.531   1.885 -1.9274  0.4285 -1.7675
 3706TIP3   OH232752   4.515   2.688   2.588  0.4150  0.3627 -0.1592
 3706TIP3    H132753   4.513   2.709   2.681  0.9135 -1.3667  0.2794
 3706TIP3    H232754   4.603   2.652   2.573  0.9488  2.1421 -1.6772
 3707TIP3   OH232755   0.153   5.171   3.006  0.0567  0.2219 -0.3265
 3707TIP3    H132756   0.139   5.252   3.056  0.4130 -0.0720  0.2577
 3707TIP3    H232757   0.101   5.105   3.053 -1.6517  0.4480 -1.7882
 3708TIP3   OH232758   4.266   1.306   6.994 -0.1070 -0.0133 -0.2820
 3708TIP3    H132759   4.231   1.395   7.000  1.2210  0.4179  2.3279
 3708TIP3    H232760   4.189   1.251   6.975 -1.1589  1.5238 -0.6656
 3709TIP3   OH232761   2.343   6.384   1.779 -0.1417  0.3510 -0.5538
 3709TIP3    H132762   2.438   6.378   1.771  0.0347  1.7419  0.2394
 3709TIP3    H232763   2.320   6.467   1.736 -0.8372  0.6523  0.3567
 3710TIP3   OH232764   2.860   5.727   8.735  0.3898 -0.6809  0.0159
 3710TIP3    H132765   2.786   5.675   8.703 -1.8247 -0.0356  3.5269
 3710TIP3    H232766   2.934   5.666   8.736 -1.0423 -2.5017 -0.0765
 3711TIP3   OH232767   1.009   6.123   0.392 -0.3567 -0.2357 -0.4961
 3711TIP3    H132768   0.975   6.159   0.474 -1.9851  0.6945 -1.5110
 3711TIP3    H232769   1.024   6.031   0.411 -0.5471  0.0038  0.9021
 3712TIP3   OH232770   1.352   3.007   1.674 -0.4507 -0.3725 -0.1409
 3712TIP3    H132771   1.360   2.925   1.626 -1.0811 -0.3803 -0.2400
 3712TIP3    H232772   1.273   2.996   1.727 -0.3035  0.0087  0.1580
 3713TIP3   OH232773   4.255   1.709   1.437  0.0184 -0.1694  0.2319
 3713TIP3    H132774   4.182   1.743   1.386  0.2550  1.3861  0.8798
 3713TIP3    H232775   4.214   1.662   1.509 -0.3196 -0.4243 -0.1175
 3714TIP3   OH232776   1.818   1.602   7.666 -0.0204 -0.4284  0.0146
 3714TIP3    H132777   1.892   1.616   7.725  0.2653  2.1857 -0.8025
 3714TIP3    H232778   1.845   1.642   7.583 -2.7325  1.9170  0.0690
 3715TIP3   OH232779   4.319   5.321   8.185 -0.2373  0.5717  0.4003
 3715TIP3    H132780   4.312   5.251   8.249 -2.1704 -0.8005 -1.1869
 3715TIP3    H232781   4.242   5.377   8.202 -1.3866 -0.3971 -1.2817
 3716TIP3   OH232782   3.197   1.374   0.745 -0.2109 -0.1862 -0.2205
 3716TIP3    H132783   3.143   1.328   0.681  0.6427 -1.6901  0.0966
 3716TIP3    H232784   3.221   1.456   0.702  1.2538 -1.6194 -2.3020
 3717TIP3   OH232785   4.166   4.464   7.803 -0.0500 -0.5125 -0.0324
 3717TIP3    H132786   4.094   4.403   7.820  1.0992 -1.4775  1.6837
 3717TIP3    H232787   4.222   4.458   7.881  0.4583  2.2972 -0.0669
 3718TIP3   OH232788   1.372   6.615   9.159  0.6529 -0.5591 -0.0487
 3718TIP3    H132789   1.381   6.521   9.144  1.9541 -0.1673 -2.2588
 3718TIP3    H232790   1.458   6.651   9.137 -0.0039  1.2209  0.1146
 3719TIP3   OH232791   3.565   0.514   2.722  0.0316  0.8516 -0.6382
 3719TIP3    H132792   3.601   0.437   2.678 -0.0246  0.1593  0.4889
 3719TIP3    H232793   3.635   0.579   2.716  0.5687  0.2956 -0.4959
 3720TIP3   OH232794   1.362   4.405   9.201  0.3491  0.3664  0.2178
 3720TIP3    H132795   1.438   4.350   9.181 -0.7472 -1.7497  1.4453
 3720TIP3    H232796   1.316   4.414   9.118  0.4049 -0.8765  0.0355
 3721TIP3   OH232797   1.854   3.193   1.809 -0.1757 -0.0945 -0.4077
 3721TIP3    H132798   1.859   3.281   1.846 -2.3245 -0.8946  2.0803
 3721TIP3    H232799   1.835   3.207   1.716  1.2271  2.0272 -0.4241
 3722TIP3   OH232800   0.197   3.947   2.605  0.3530 -0.4759 -0.3676
 3722TIP3    H132801   0.191   4.043   2.605  0.1572 -0.4880  0.4322
 3722TIP3    H232802   0.117   3.917   2.646  0.5269 -0.9846 -0.3879
 3723TIP3   OH232803   2.595   0.723   8.229 -0.3860  0.3056  0.4295
 3723TIP3    H132804   2.531   0.662   8.193 -0.2466  0.3674  0.0732
 3723TIP3    H232805   2.544   0.783   8.283 -0.4042 -0.7028  1.5669
 3724TIP3   OH232806   5.173   4.015   1.815 -0.6477  0.1290 -0.1908
 3724TIP3    H132807   5.112   3.949   1.849  0.0556 -0.5923 -0.2761
 3724TIP3    H232808   5.198   4.066   1.892 -0.3239 -0.4446  0.0913
 3725TIP3   OH232809   2.633   6.046   1.449  0.4708 -0.3406 -0.1095
 3725TIP3    H132810   2.634   5.969   1.506 -0.2729 -0.2432  0.0385
 3725TIP3    H232811   2.576   6.022   1.377 -1.6793  0.8665  1.0810
 3726TIP3   OH232812   1.616   6.169   2.160 -0.3797 -0.0679  0.6263
 3726TIP3    H132813   1.602   6.254   2.118  0.0983 -0.6369 -0.7300
 3726TIP3    H232814   1.652   6.191   2.246  0.0502  1.0974  0.1767
 3727TIP3   OH232815   1.455   0.264   0.098  0.1885 -0.1943 -0.1387
 3727TIP3    H132816   1.456   0.290   0.006  2.6340  0.2244 -0.0510
 3727TIP3    H232817   1.546   0.270   0.126 -0.5240 -0.0338  2.4054
 3728TIP3   OH232818   3.291   6.303   3.416 -0.4319 -0.2255 -0.5055
 3728TIP3    H132819   3.361   6.290   3.352  0.8696  0.4283  0.7272
 3728TIP3    H232820   3.303   6.233   3.480 -1.2488 -0.4186 -0.5428
 3729TIP3   OH232821   5.618   2.180   0.565  0.0970  0.9079  0.0734
 3729TIP3    H132822   5.704   2.209   0.535  0.7501 -1.5068 -0.6189
 3729TIP3    H232823   5.634   2.144   0.652 -0.4807  1.5508  0.4583
 3730TIP3   OH232824   6.685   6.393   2.028 -0.6970 -0.5441 -0.3184
 3730TIP3    H132825   6.631   6.451   2.081  0.1764  0.5292 -0.5634
 3730TIP3    H232826   6.629   6.317   2.011 -2.5295  0.9684 -1.4616
 3731TIP3   OH232827   6.381   5.225   0.258  0.0059 -0.0169  0.6492
 3731TIP3    H132828   6.288   5.206   0.245  0.4859 -1.3672 -1.3365
 3731TIP3    H232829   6.392   5.228   0.353 -2.2204  1.1748  0.9516
 3732TIP3   OH232830   1.047   4.499   7.857  0.1429  0.2403  0.1702
 3732TIP3    H132831   1.041   4.419   7.908  0.2636  0.2144  0.1420
 3732TIP3    H232832   1.035   4.471   7.766  1.8376  0.0257 -0.0159
 3733TIP3   OH232833   2.932   4.534   0.647 -0.0119  0.4693  0.1004
 3733TIP3    H132834   2.902   4.485   0.570  0.5236  0.8698 -0.3790
 3733TIP3    H232835   3.009   4.486   0.677 -0.0924  0.4376  0.2569
 3734TIP3   OH232836   4.021   3.247   2.050 -0.5640  0.5039 -0.3873
 3734TIP3    H132837   4.045   3.339   2.044 -0.2072  0.5182  0.9267
 3734TIP3    H232838   3.937   3.240   2.005 -1.9505  2.0021  1.8156
 3735TIP3   OH232839   5.423   0.385   8.643 -0.0526  0.2584 -0.0052
 3735TIP3    H132840   5.426   0.474   8.679 -0.4992  0.3416 -0.1668
 3735TIP3    H232841   5.428   0.328   8.720 -0.7318  0.4359  0.1801
 3736TIP3   OH232842   5.848   0.897   2.692  0.4226 -0.3548 -0.0133
 3736TIP3    H132843   5.930   0.920   2.735  0.8018 -1.2831 -0.2121
 3736TIP3    H232844   5.796   0.855   2.760  0.9349 -1.6203 -0.3630
 3737TIP3   OH232845   6.187   1.696   0.893 -0.7744 -0.4327  0.1143
 3737TIP3    H132846   6.264   1.647   0.923 -0.8941 -1.0433 -0.5439
 3737TIP3    H232847   6.157   1.743   0.970 -0.1920 -0.7987  0.5711
 3738TIP3   OH232848   6.321   2.496   0.795  0.0644 -0.8997 -0.8057
 3738TIP3    H132849   6.244   2.512   0.741 -1.5065 -1.3659  1.1539
 3738TIP3    H232850   6.312   2.404   0.823 -0.6648 -0.0160  2.2707
 3739TIP3   OH232851   3.861   1.327   8.469  0.3106 -0.1225  0.8417
 3739TIP3    H132852   3.923   1.258   8.445 -0.9296 -1.3630  1.0690
 3739TIP3    H232853   3.775   1.293   8.443 -0.2333  1.9488 -0.3446
 3740TIP3   OH232854   2.426   6.086   1.225  0.1285  0.1841  0.1372
 3740TIP3    H132855   2.342   6.043   1.208 -1.1574  3.3589 -2.7290
 3740TIP3    H232856   2.404   6.161   1.280  1.7947 -0.8952  2.4272
 3741TIP3   OH232857   0.338   4.003   7.269 -0.2107  0.1412  0.0880
 3741TIP3    H132858   0.336   4.066   7.341 -0.8249  0.1658  0.0542
 3741TIP3    H232859   0.262   3.947   7.283  1.3122 -1.7675  1.1370
 3742TIP3   OH232860   2.518   3.388   9.193  0.3402  0.7450 -0.2926
 3742TIP3    H132861   2.441   3.429   9.152  0.8790  1.6228 -0.4662
 3742TIP3    H232862   2.487   3.361   9.280  0.5462  3.7824  0.8473
 3743TIP3   OH232863   4.413   6.614   8.784 -0.2104 -0.2918 -0.0372
 3743TIP3    H132864   4.336   6.580   8.829  0.1408 -0.6726  0.2916
 3743TIP3    H232865   4.468   6.537   8.769 -0.4673 -0.2245 -1.4241
 3744TIP3   OH232866   4.536   1.286   8.272  0.9409  0.0217  0.0647
 3744TIP3    H132867   4.462   1.337   8.239  0.9469  0.7518  1.1347
 3744TIP3    H232868   4.609   1.308   8.213  0.8557  0.9948  0.3126
 3745TIP3   OH232869   6.375   0.093   7.942  0.7286 -0.2629  0.1256
 3745TIP3    H132870   6.351   0.023   8.002  0.3201 -0.6155 -0.4355
 3745TIP3    H232871   6.357   0.058   7.855  2.5517 -0.2347 -0.3010
 3746TIP3   OH232872   2.990   4.842   1.170  0.1702  0.6478 -0.1410
 3746TIP3    H132873   2.907   4.880   1.141  0.1023 -0.1840 -1.0799
 3746TIP3    H232874   2.996   4.758   1.125  0.1358 -0.6810  2.1467
 3747TIP3   OH232875   2.508   1.867   8.731  0.3030 -0.1597 -0.0992
 3747TIP3    H132876   2.504   1.932   8.801  2.4888 -0.0170 -0.0274
 3747TIP3    H232877   2.473   1.912   8.654 -0.0007  0.4418  0.3830
 3748TIP3   OH232878   4.846   3.089   7.850  0.2678 -0.1163 -0.2468
 3748TIP3    H132879   4.852   3.013   7.791  1.2685  0.9524 -1.5926
 3748TIP3    H232880   4.929   3.090   7.897 -0.4130 -0.7935  1.0164
 3749TIP3   OH232881   1.519   2.154   3.136 -0.3205  0.0174  0.3609
 3749TIP3    H132882   1.541   2.236   3.092 -0.2370 -0.7085 -1.0307
 3749TIP3    H232883   1.512   2.177   3.228 -0.8767  1.7064 -0.0595
 3750TIP3   OH232884   3.395   0.033   7.424 -0.8406 -0.2781  0.6707
 3750TIP3    H132885   3.489   0.021   7.411 -0.7303 -0.1502  1.3046
 3750TIP3    H232886   3.357   0.020   7.337 -0.0925  1.1767  0.0898
 3751TIP3   OH232887   1.317   2.554   0.107 -0.6326  0.1941  0.1155
 3751TIP3    H132888   1.335   2.467   0.072  1.4410 -0.2752  2.0783
 3751TIP3    H232889   1.228   2.574   0.079 -0.5314 -1.7982 -1.8537
 3752TIP3   OH232890   3.035   1.863   1.954 -0.6987  0.5058 -0.0797
 3752TIP3    H132891   3.094   1.788   1.940 -0.1634  0.8170  0.4913
 3752TIP3    H232892   2.948   1.824   1.960 -0.4112 -0.0875  0.3295
 3753TIP3   OH232893   5.981   6.596   3.002  0.4875  0.3528 -0.0533
 3753TIP3    H132894   5.964   6.647   3.082  2.8088 -0.0265  0.7393
 3753TIP3    H232895   5.977   6.660   2.931 -0.6996  0.8522  0.4299
 3754TIP3   OH232896   3.004   1.054   0.918  0.0582  0.3415  0.0015
 3754TIP3    H132897   2.960   0.997   0.980  0.3865 -0.6513 -0.6593
 3754TIP3    H232898   2.975   1.024   0.832 -2.8537  3.6234 -0.3916
 3755TIP3   OH232899   3.499   4.707   1.234 -0.0834  0.3288  0.1246
 3755TIP3    H132900   3.583   4.678   1.198 -0.2017 -0.4249  0.4545
 3755TIP3    H232901   3.441   4.632   1.226  0.1042 -0.1564  2.6165
 3756TIP3   OH232902   5.775   3.120   1.519  0.2794  0.2411 -0.0243
 3756TIP3    H132903   5.697   3.142   1.570 -0.1411  1.6830 -1.2258
 3756TIP3    H232904   5.848   3.130   1.580 -0.3346  0.4042  0.6957
 3757TIP3   OH232905   0.339   2.195   0.315  0.2293 -0.3409  0.2386
 3757TIP3    H132906   0.372   2.267   0.369 -0.4249 -0.0879  0.3004
 3757TIP3    H232907   0.410   2.178   0.253  0.4276  0.2961  0.2803
 3758TIP3   OH232908   4.674   6.662   8.959 -0.1934 -0.2299  0.2513
 3758TIP3    H132909   4.640   6.575   8.982  0.9109 -0.5450  0.7645
 3758TIP3    H232910   4.653   6.671   8.866  0.1576 -1.2886  0.0458
 3759TIP3   OH232911   0.883   5.678   0.007 -0.2103  0.3661 -0.2892
 3759TIP3    H132912   0.903   5.666  -0.085 -0.2771 -0.1497 -0.2421
 3759TIP3    H232913   0.952   5.735   0.040 -0.6400  1.2075 -0.8352
 3760TIP3   OH232914   4.254   2.308   2.891  0.1059 -0.1097 -0.3929
 3760TIP3    H132915   4.304   2.230   2.865 -0.7096 -0.5728 -0.6027
 3760TIP3    H232916   4.167   2.295   2.852 -0.0517  0.8929 -0.3983
 3761TIP3   OH232917   2.198   0.850   2.548  0.0965 -0.4149 -0.2334
 3761TIP3    H132918   2.222   0.784   2.483 -0.3675  0.4829 -1.3461
 3761TIP3    H232919   2.270   0.849   2.611  0.3623 -1.5799 -0.5279
 3762TIP3   OH232920   5.351   0.966   1.672 -0.4486 -0.8478  0.2563
 3762TIP3    H132921   5.273   0.969   1.728 -1.5369  3.6578 -1.1295
 3762TIP3    H232922   5.321   0.924   1.591 -1.4492  0.7046 -0.2015
 3763TIP3   OH232923   3.305   5.618   0.294  0.0289  0.3259 -0.3158
 3763TIP3    H132924   3.219   5.621   0.335 -0.1274  2.5327 -0.6623
 3763TIP3    H232925   3.301   5.683   0.223  2.0012  0.6064 -0.2508
 3764TIP3   OH232926   3.608   0.809   0.597  0.0284 -0.4783 -0.8329
 3764TIP3    H132927   3.655   0.769   0.525 -1.1263 -0.8173 -1.4279
 3764TIP3    H232928   3.581   0.895   0.563  1.8536  0.5706  0.1792
 3765TIP3   OH232929   0.295   0.880   1.182  0.6506  0.0498 -0.6316
 3765TIP3    H132930   0.360   0.935   1.226  0.7359 -0.6392  0.1252
 3765TIP3    H232931   0.304   0.794   1.223  0.6307 -0.5893 -1.9059
 3766TIP3   OH232932   0.510   3.868   0.396 -0.3398  0.4826 -0.2297
 3766TIP3    H132933   0.527   3.810   0.469  1.9697  1.8178  0.4072
 3766TIP3    H232934   0.460   3.941   0.434 -2.0509 -0.3880 -0.7379
 3767TIP3   OH232935   2.117   4.587   8.770  0.2416 -1.2384  0.1474
 3767TIP3    H132936   2.137   4.594   8.863  1.0005 -2.2546  0.0675
 3767TIP3    H232937   2.039   4.531   8.766 -1.1818  0.6074  0.2833
 3768TIP3   OH232938   4.285   2.925   8.809 -0.0037  0.6011 -0.4284
 3768TIP3    H132939   4.217   2.991   8.822  1.4850  2.3471 -0.9772
 3768TIP3    H232940   4.349   2.968   8.752 -0.0871 -2.1817 -2.8397
 3769TIP3   OH232941   5.462   2.915   1.534 -0.2040 -0.1622  0.2095
 3769TIP3    H132942   5.541   2.880   1.492  1.4149  0.9464  2.1692
 3769TIP3    H232943   5.485   2.923   1.626 -2.1911  1.4077  0.6460
 3770TIP3   OH232944   0.261   0.536   2.004  0.2745  0.3251 -0.3511
 3770TIP3    H132945   0.323   0.602   1.973  1.8265 -1.0355 -0.3081
 3770TIP3    H232946   0.276   0.461   1.946 -1.5551  0.0411 -0.5103
 3771TIP3   OH232947   4.563   5.991   2.219  0.2126 -0.5877 -0.6050
 3771TIP3    H132948   4.499   5.963   2.154  0.9806  0.1734 -1.7274
 3771TIP3    H232949   4.553   6.086   2.224 -0.1418 -0.6835  0.7383
 3772TIP3   OH232950   0.121   2.023   0.391 -0.0833  0.0728 -0.5001
 3772TIP3    H132951   0.104   2.039   0.484 -0.6706  0.1758 -0.6217
 3772TIP3    H232952   0.204   2.069   0.374  0.0624 -0.0050 -0.0133
 3773TIP3   OH232953   6.014   6.316   2.305  0.2896  0.0285 -0.5007
 3773TIP3    H132954   5.996   6.353   2.392 -0.7848 -0.4348 -0.5112
 3773TIP3    H232955   5.942   6.256   2.289  1.5562 -1.4618 -0.8455
 3774TIP3   OH232956   4.236   4.283   0.504 -0.7909 -0.0315  0.2649
 3774TIP3    H132957   4.181   4.260   0.428  0.8422 -1.5682 -0.5164
 3774TIP3    H232958   4.296   4.209   0.513  2.7438  2.5220 -0.4187
 3775TIP3   OH232959   1.030   0.403   8.428  0.3777  0.3409  0.2160
 3775TIP3    H132960   1.042   0.495   8.455 -0.8956  0.7688 -0.5916
 3775TIP3    H232961   1.062   0.401   8.338  0.6981 -0.0951  0.3380
 3776TIP3   OH232962   5.412   5.324   8.383  0.0071 -0.6684  0.2641
 3776TIP3    H132963   5.346   5.301   8.318  0.4283  0.2895 -0.5348
 3776TIP3    H232964   5.492   5.338   8.333  0.3329  0.1332  0.9669
 3777TIP3   OH232965   3.690   2.555   2.656 -0.2029 -0.3141 -0.3285
 3777TIP3    H132966   3.635   2.558   2.734 -0.3247  1.7969 -0.4435
 3777TIP3    H232967   3.768   2.506   2.684 -0.4685 -0.0430  0.9647
 3778TIP3   OH232968   1.939   1.968   8.037 -0.1777  0.0274  0.6935
 3778TIP3    H132969   2.027   2.008   8.035  0.8298 -2.0820 -0.9379
 3778TIP3    H232970   1.919   1.952   7.945 -1.8402 -0.5110  1.1306
 3779TIP3   OH232971   2.284   4.591   8.567 -0.1517 -0.4288 -0.0055
 3779TIP3    H132972   2.360   4.591   8.626 -1.4725 -0.2344  1.7870
 3779TIP3    H232973   2.209   4.581   8.625 -1.6861  1.6800 -1.4859
 3780TIP3   OH232974   0.176   4.603   1.323 -0.2438  0.0504  0.2162
 3780TIP3    H132975   0.094   4.564   1.295 -0.2013  0.4762 -0.5264
 3780TIP3    H232976   0.149   4.681   1.372 -0.2951 -0.0732  0.3838
 3781TIP3   OH232977   2.233   0.256   1.740 -0.3007  0.7265 -0.1747
 3781TIP3    H132978   2.264   0.284   1.826 -0.6337 -0.7981  0.4661
 3781TIP3    H232979   2.190   0.334   1.704 -3.6978  0.4389  2.6894
 3782TIP3   OH232980   0.650   2.287   8.937 -0.1229  0.0382  0.4189
 3782TIP3    H132981   0.566   2.258   8.973 -1.0784  2.2535  0.1607
 3782TIP3    H232982   0.687   2.209   8.896 -1.5560 -1.2465  1.4585
 3783TIP3   OH232983   5.046   3.320   8.816 -0.3212  0.2321 -0.2534
 3783TIP3    H132984   5.024   3.332   8.723  1.3349  2.4586 -0.4424
 3783TIP3    H232985   5.015   3.400   8.858  0.7554  0.1441  0.7363
 3784TIP3   OH232986   2.933   6.004   1.749 -0.4531  0.7712 -0.5344
 3784TIP3    H132987   2.919   5.949   1.671 -0.2524 -0.5446  0.3260
 3784TIP3    H232988   3.024   5.986   1.775 -0.6035  0.9852  0.1595
 3785TIP3   OH232989   5.747   0.356   8.768  0.5090  0.1683 -0.4335
 3785TIP3    H132990   5.836   0.327   8.786  0.1330  0.5141  2.3437
 3785TIP3    H232991   5.695   0.275   8.773  0.4402  0.2249 -0.2185
 3786TIP3   OH232992   5.461   1.160   1.816  0.4676 -0.2436  0.3934
 3786TIP3    H132993   5.429   1.087   1.764  1.7139 -0.4709 -0.1035
 3786TIP3    H232994   5.426   1.238   1.772  1.5668 -0.4306 -0.8739
 3787TIP3   OH232995   4.430   3.597   1.982  0.3773  0.4040  0.5132
 3787TIP3    H132996   4.408   3.649   1.905  0.4515 -0.9614 -0.4603
 3787TIP3    H232997   4.515   3.629   2.010  0.7222  0.3718 -0.4703
 3788TIP3   OH232998   4.086   6.564   8.491  0.3115  0.1781  0.2606
 3788TIP3    H132999   4.054   6.650   8.516 -0.1235 -0.3460  1.5819
 3788TIP3    H233000   4.026   6.534   8.423  0.7810  1.1223 -0.5924
 3789TIP3   OH233001   0.711   5.991   8.422  0.8098 -0.2357  0.6634
 3789TIP3    H133002   0.691   6.027   8.336  0.8482 -1.1479  0.2715
 3789TIP3    H233003   0.745   6.067   8.472  0.7213  0.3077 -0.0878
 3790TIP3   OH233004   5.094   1.352   1.785  0.2010  0.2478  0.1029
 3790TIP3    H133005   5.080   1.300   1.864 -0.1587  0.8275  0.4310
 3790TIP3    H233006   5.189   1.350   1.771  0.2141 -0.2740  0.2622
 3791TIP3   OH233007   1.047   3.871   2.421 -0.1449 -0.8229  0.1245
 3791TIP3    H133008   0.985   3.807   2.456 -0.6057  0.0858  0.9708
 3791TIP3    H233009   1.041   3.859   2.326 -2.0802 -0.3284  0.1499
 3792TIP3   OH233010   2.066   6.447   3.033  0.1037  0.1868 -0.0498
 3792TIP3    H133011   2.147   6.397   3.044 -0.5457 -0.5474  1.6463
 3792TIP3    H233012   2.073   6.519   3.095 -0.8889 -0.3574  0.7152
 3793TIP3   OH233013   4.516   2.655   8.075  0.3497  0.2951 -0.0053
 3793TIP3    H133014   4.506   2.719   8.145  2.0743 -0.3696  0.9346
 3793TIP3    H233015   4.607   2.665   8.047 -0.3469  0.6862 -2.3391
 3794TIP3   OH233016   1.408   3.869   1.880 -0.0136 -0.0348  0.5269
 3794TIP3    H133017   1.344   3.940   1.882  0.8190  0.7282  1.6113
 3794TIP3    H233018   1.393   3.826   1.796 -0.8638  1.1148  0.0516
 3795TIP3   OH233019   3.851   2.735   0.536  0.1422 -0.0382 -0.1934
 3795TIP3    H133020   3.768   2.773   0.564  0.9665  1.1983  0.6362
 3795TIP3    H233021   3.825   2.662   0.479 -1.4908  0.7867 -0.5692
 3796TIP3   OH233022   1.683   4.603   0.640  0.0618 -0.0122 -1.0074
 3796TIP3    H133023   1.649   4.672   0.582 -0.7985  0.2694 -0.2043
 3796TIP3    H233024   1.604   4.559   0.672  0.4875  0.1050  0.2515
 3797TIP3   OH233025   1.369   5.073   8.737  0.1732  0.4446 -0.3952
 3797TIP3    H133026   1.374   4.981   8.710  1.2842  0.7305 -1.2257
 3797TIP3    H233027   1.457   5.094   8.767 -0.4499  0.8188  1.3341
 3798TIP3   OH233028   1.240   6.619   8.641  0.1177  0.9798  0.3063
 3798TIP3    H133029   1.150   6.614   8.672 -0.7196  0.5123 -2.0147
 3798TIP3    H233030   1.270   6.529   8.640  1.0608  1.2311  2.1612
 3799TIP3   OH233031   2.494   3.918   8.488  0.4064 -0.3644 -0.1280
 3799TIP3    H133032   2.424   3.896   8.549  2.6728 -4.0384  1.4936
 3799TIP3    H233033   2.449   3.934   8.405 -2.4373 -0.3917  1.2729
 3800TIP3   OH233034   5.188   1.026   0.534  0.6478  0.2152  0.3247
 3800TIP3    H133035   5.105   1.075   0.533  0.5522  0.1416  2.0806
 3800TIP3    H233036   5.162   0.936   0.517  0.0329 -0.1730  2.8634
 3801TIP3   OH233037   2.650   5.369   0.383 -0.0598  0.0674  0.3871
 3801TIP3    H133038   2.689   5.301   0.438  0.8637  1.0324  0.9652
 3801TIP3    H233039   2.562   5.382   0.419 -0.4100 -1.1038 -0.0038
 3802TIP3   OH233040   6.181   5.179   0.491 -0.1426 -0.0896  0.5169
 3802TIP3    H133041   6.204   5.236   0.564 -0.2668  1.2000 -0.4260
 3802TIP3    H233042   6.089   5.199   0.473 -0.7194 -1.8378  1.2526
 3803TIP3   OH233043   0.671   2.064   0.274 -0.8434 -0.6305 -0.1696
 3803TIP3    H133044   0.622   2.104   0.202  0.0433  0.8194 -0.0118
 3803TIP3    H233045   0.707   2.139   0.323  1.6541 -1.5889 -0.3867
 3804TIP3   OH233046   4.316   0.702   7.489 -0.3655 -0.5239  0.3960
 3804TIP3    H133047   4.350   0.619   7.454  1.1097  0.1485  0.1635
 3804TIP3    H233048   4.333   0.766   7.420  0.9353  0.4734  1.5732
 3805TIP3   OH233049   5.057   1.316   3.402  0.6497  0.6262 -0.5660
 3805TIP3    H133050   5.102   1.394   3.435 -0.0894  0.1906  1.5957
 3805TIP3    H233051   4.977   1.349   3.362  1.3074  1.1127 -1.5328
 3806TIP3   OH233052   5.164   1.684   8.214 -0.2706 -0.3417 -0.3433
 3806TIP3    H133053   5.238   1.744   8.217  0.0999 -0.6597 -2.0310
 3806TIP3    H233054   5.197   1.606   8.170 -1.8717  0.0222 -2.4043
 3807TIP3   OH233055   3.550   3.772   0.634  0.0242 -0.0666 -0.2482
 3807TIP3    H133056   3.538   3.778   0.539  0.1822 -0.3180 -0.2863
 3807TIP3    H233057   3.621   3.709   0.645 -1.8367 -2.2292  0.1152
 3808TIP3   OH233058   5.840   0.445   0.656 -0.2477 -0.1387 -0.1946
 3808TIP3    H133059   5.821   0.538   0.666 -0.1492 -0.2744  1.6764
 3808TIP3    H233060   5.936   0.442   0.648 -0.3011 -0.0470 -0.9315
 3809TIP3   OH233061   1.623   4.323   7.894 -0.2301 -0.3133  0.5570
 3809TIP3    H133062   1.573   4.242   7.884 -0.5398  0.0599 -1.5404
 3809TIP3    H233063   1.677   4.328   7.815 -1.6391  2.4260 -0.3905
 3810TIP3   OH233064   6.666   5.858   1.381  0.2527 -0.2637 -0.0284
 3810TIP3    H133065   6.589   5.801   1.372  0.1342  0.0015 -0.8229
 3810TIP3    H233066   6.725   5.810   1.439 -0.2059 -0.8072 -0.0025
 3811TIP3   OH233067   5.173   4.702   0.032 -0.3784 -0.0834  0.2756
 3811TIP3    H133068   5.264   4.725   0.016 -0.2719 -0.2382  0.6463
 3811TIP3    H233069   5.177   4.633   0.099 -0.7484 -0.3390  0.0401
 3812TIP3   OH233070   3.829   2.815   7.339 -0.1866 -0.2949  0.5240
 3812TIP3    H133071   3.753   2.757   7.333 -0.7871  0.5147  0.0722
 3812TIP3    H233072   3.795   2.901   7.313  0.8382  0.1204  0.5289
 3813TIP3   OH233073   4.390   1.459   0.524  0.0464 -0.3952  0.5416
 3813TIP3    H133074   4.310   1.485   0.478 -1.3806 -1.1710  2.4759
 3813TIP3    H233075   4.370   1.472   0.617  2.6289  0.5817  1.0573
 3814TIP3   OH233076   1.577   2.502   9.105 -0.0414 -0.5760  0.5188
 3814TIP3    H133077   1.544   2.530   9.019  1.5352 -0.8265 -0.1998
 3814TIP3    H233078   1.585   2.582   9.156  1.2626 -0.0875 -0.3953
 3815TIP3   OH233079   6.317   5.147   8.640 -0.4458 -0.1482  0.1741
 3815TIP3    H133080   6.230   5.164   8.603 -0.0842  0.0144 -0.6105
 3815TIP3    H233081   6.302   5.143   8.734 -1.4447 -0.9270  0.0046
 3816TIP3   OH233082   0.585   6.463   2.107  0.0665 -0.4505  0.1717
 3816TIP3    H133083   0.503   6.455   2.059  1.1294 -2.3082 -1.4835
 3816TIP3    H233084   0.591   6.383   2.159  0.4382  0.0818  0.9827
 3817TIP3   OH233085   5.127   0.754   0.553 -0.1885  0.4653 -0.7228
 3817TIP3    H133086   5.184   0.686   0.518  1.9009  1.6584  0.1595
 3817TIP3    H233087   5.159   0.769   0.642 -0.3526  2.7489 -0.9816
 3818TIP3   OH233088   3.708   5.856   1.470  0.3308  0.2217 -0.1626
 3818TIP3    H133089   3.628   5.864   1.417  1.0939  0.2774 -1.3582
 3818TIP3    H233090   3.775   5.831   1.406  1.4161  0.9036  0.6911
 3819TIP3   OH233091   4.197   3.430   1.056  0.3766 -0.2859  0.1050
 3819TIP3    H133092   4.115   3.441   1.008  0.5998 -2.1481 -0.7711
 3819TIP3    H233093   4.260   3.485   1.008 -0.2473  0.9279  0.6188
 3820TIP3   OH233094   5.159   5.793   2.225  0.7491 -0.3669  0.1722
 3820TIP3    H133095   5.203   5.802   2.310  0.6773 -0.3312  0.2053
 3820TIP3    H233096   5.080   5.743   2.244  1.2088 -1.1860 -0.0312
 3821TIP3   OH233097   6.454   1.121   9.157 -0.1088  0.4877  0.0764
 3821TIP3    H133098   6.437   1.210   9.127  0.6793 -0.0236 -2.0996
 3821TIP3    H233099   6.455   1.127   9.252  2.4473  3.3544  0.0199
 3822TIP3   OH233100   6.162   2.371   0.439  0.4292 -0.3404 -0.4402
 3822TIP3    H133101   6.150   2.466   0.441  0.0089 -0.3953  0.2067
 3822TIP3    H233102   6.162   2.349   0.346  1.0055  0.3490 -0.6142
 3823TIP3   OH233103   2.548   1.985   1.214  0.4519 -0.5981 -0.1596
 3823TIP3    H133104   2.538   2.033   1.132 -0.6104 -0.8891 -0.2066
 3823TIP3    H233105   2.545   1.893   1.189 -4.1083 -0.8441  0.5563
 3824TIP3   OH233106   0.502   6.203   7.300  0.3598  0.8013 -0.4837
 3824TIP3    H133107   0.595   6.183   7.290 -0.1092 -1.4872 -0.9320
 3824TIP3    H233108   0.489   6.212   7.394  0.8445 -0.0291 -0.3280
 3825TIP3   OH233109   2.299   5.922   8.192 -0.5679 -0.4592  0.1807
 3825TIP3    H133110   2.297   5.826   8.191 -3.3477 -0.5431  2.1749
 3825TIP3    H233111   2.386   5.943   8.226  0.1887 -2.2299 -0.4969
 3826TIP3   OH233112   5.436   2.144   2.757 -0.5274 -0.0973 -0.0702
 3826TIP3    H133113   5.459   2.055   2.783  0.2364  0.5397  1.5632
 3826TIP3    H233114   5.370   2.133   2.689 -0.4719 -1.8995  0.1225
 3827TIP3   OH233115   5.541   5.784   8.427  0.1519 -0.4907  0.0747
 3827TIP3    H133116   5.609   5.748   8.369 -0.1202  0.2000 -0.6939
 3827TIP3    H233117   5.493   5.846   8.372 -0.0049  0.3169  1.0919
 3828TIP3   OH233118   5.564   6.588   7.949 -0.2505  0.0637  0.4558
 3828TIP3    H133119   5.617   6.596   7.869  0.2383  1.1316  0.8614
 3828TIP3    H233120   5.587   6.666   8.000 -1.3042 -0.0921  1.1928
 3829TIP3   OH233121   4.038   3.339   1.280  0.3703 -0.0060  0.2389
 3829TIP3    H133122   4.099   3.385   1.223  1.5467 -0.0753  1.3769
 3829TIP3    H233123   4.078   3.253   1.294 -0.2205 -0.2229  0.6484
 3830TIP3   OH233124   4.810   1.537   0.296  0.6046 -0.2935  0.1824
 3830TIP3    H133125   4.877   1.511   0.359  0.1930 -0.1418  0.6889
 3830TIP3    H233126   4.747   1.589   0.347  1.8659  2.5754 -0.9455
 3831TIP3   OH233127   1.048   6.484   8.328  0.1125  0.0164 -0.3220
 3831TIP3    H133128   1.008   6.484   8.241 -2.6874  0.7780  0.8470
 3831TIP3    H233129   1.087   6.571   8.336 -0.3200  0.2324 -0.5257
 3832TIP3   OH233130   0.926   0.210   0.859 -0.6400 -0.2242 -0.4275
 3832TIP3    H133131   1.017   0.208   0.889 -0.8202  1.6172  0.3975
 3832TIP3    H233132   0.903   0.118   0.848  1.3141 -0.7467 -0.6781
 3833TIP3   OH233133   2.668   3.889   2.070 -0.5753  0.3811 -0.1641
 3833TIP3    H133134   2.676   3.932   1.985 -2.8398  1.7464  0.2202
 3833TIP3    H233135   2.613   3.948   2.122  0.9919 -0.2346  2.3981
 3834TIP3   OH233136   2.071   3.682   0.474  0.0203 -0.2030 -0.1724
 3834TIP3    H133137   1.995   3.711   0.425  0.7136  1.1374 -0.5151
 3834TIP3    H233138   2.037   3.620   0.538 -1.3262  0.2351 -0.4385
 3835TIP3   OH233139   3.842   2.681   1.331 -0.2442  0.0821 -0.6370
 3835TIP3    H133140   3.933   2.682   1.301  0.0629  0.0172  0.2496
 3835TIP3    H233141   3.803   2.758   1.290  0.5576  0.8295 -0.0540
 3836TIP3   OH233142   2.435   5.624   0.385  0.5987 -0.0478  0.4540
 3836TIP3    H133143   2.411   5.582   0.302  1.1845 -1.1493  0.8120
 3836TIP3    H233144   2.357   5.673   0.411 -0.0767 -0.8170 -0.0660
 3837TIP3   OH233145   5.493   0.622   8.057 -0.1179  0.5946  0.4506
 3837TIP3    H133146   5.527   0.561   8.122  0.1189 -0.4209 -0.5860
 3837TIP3    H233147   5.451   0.692   8.108 -2.7037 -1.6890  1.7101
 3838TIP3   OH233148   3.444   3.714   0.980  0.8243  0.2588  0.2087
 3838TIP3    H133149   3.468   3.622   0.968  0.5964 -0.3225  3.3093
 3838TIP3    H233150   3.526   3.758   1.003  0.7239  0.5499  0.0114
 3839TIP3   OH233151   4.576   2.007   1.668  0.4969 -0.7183 -0.1541
 3839TIP3    H133152   4.564   1.925   1.621  0.8890 -0.1241 -1.3112
 3839TIP3    H233153   4.487   2.042   1.676  0.3087 -1.3159  0.4824
 3840TIP3   OH233154   1.983   1.027   1.300  0.0180 -0.1172 -0.3653
 3840TIP3    H133155   1.901   1.063   1.335  0.7573 -0.3868  1.8177
 3840TIP3    H233156   1.985   0.938   1.334  1.3814  0.0095 -0.0757
 3841TIP3   OH233157   0.635   0.862   1.823  0.9398  0.5410 -0.0205
 3841TIP3    H133158   0.696   0.895   1.890 -0.3022  2.4628  0.2409
 3841TIP3    H233159   0.577   0.803   1.871  1.6575 -0.1307  0.0365
 3842TIP3   OH233160   6.591   6.348   0.351  0.2499  0.0866 -0.2511
 3842TIP3    H133161   6.511   6.321   0.397 -0.0767 -0.1906 -0.9694
 3842TIP3    H233162   6.639   6.267   0.337  0.3471  0.1699 -0.3977
 3843TIP3   OH233163   4.377   3.589   0.906  0.2277  0.1014  0.4114
 3843TIP3    H133164   4.408   3.663   0.958 -1.7245  1.2159  0.0924
 3843TIP3    H233165   4.449   3.526   0.908  0.7725  0.7078  3.2193
 3844TIP3   OH233166   6.290   6.337   2.338  0.0824  0.5403 -0.0033
 3844TIP3    H133167   6.214   6.298   2.382  0.0509  0.8285  0.1984
 3844TIP3    H233168   6.352   6.264   2.329 -0.6436  0.0431 -1.1406
 3845TIP3   OH233169   1.129   3.095   7.819 -0.3709 -0.2302  0.0256
 3845TIP3    H133170   1.155   3.007   7.849 -2.3483 -1.4432 -1.5954
 3845TIP3    H233171   1.117   3.145   7.900  1.5825 -1.1447  0.9762
 3846TIP3   OH233172   2.186   1.723   0.503  0.5685 -0.0407 -0.1641
 3846TIP3    H133173   2.248   1.683   0.564 -1.4243 -3.2977 -0.0030
 3846TIP3    H233174   2.224   1.707   0.416  0.5817 -0.8875 -0.0092
 3847TIP3   OH233175   0.408   3.609   1.570 -0.0848  0.0375  0.3227
 3847TIP3    H133176   0.332   3.619   1.512 -0.1333 -1.3291  0.1206
 3847TIP3    H233177   0.458   3.536   1.532  0.9307  0.4169  0.8866
 3848TIP3   OH233178   5.731   1.192   1.279 -0.2711  0.0242 -0.1409
 3848TIP3    H133179   5.745   1.124   1.212 -2.1239  1.0868 -1.7125
 3848TIP3    H233180   5.811   1.244   1.278  0.8458 -1.5940  0.5012
 3849TIP3   OH233181   5.712   1.645   2.639  0.2352 -0.0545  0.1707
 3849TIP3    H133182   5.786   1.595   2.673  0.1966  0.4272  0.9936
 3849TIP3    H233183   5.674   1.687   2.716 -1.3079 -0.8259 -0.1329
 3850TIP3   OH233184   4.558   2.912   8.174 -0.8235  0.3142 -0.3390
 3850TIP3    H133185   4.581   2.996   8.214 -1.4838 -0.0035  0.7814
 3850TIP3    H233186   4.499   2.871   8.238 -0.8908 -0.7941 -1.0801
 3851TIP3   OH233187   3.221   3.975   7.665 -0.2765 -0.1968 -0.4057
 3851TIP3    H133188   3.185   4.063   7.658 -0.2397 -0.1706 -0.2621
 3851TIP3    H233189   3.144   3.918   7.672 -0.3518 -0.2976 -1.7572
 3852TIP3   OH233190   0.239   5.318   0.450  0.1049 -0.0996 -0.3664
 3852TIP3    H133191   0.289   5.387   0.493  0.0341  0.7946 -1.6589
 3852TIP3    H233192   0.217   5.354   0.364 -4.0794  0.2307  0.6170
 3853TIP3   OH233193   0.428   0.197   0.454  0.7562  0.0202  0.0393
 3853TIP3    H133194   0.336   0.175   0.468  0.6400 -0.9013 -1.9202
 3853TIP3    H233195   0.470   0.179   0.538 -0.8158  0.3731  0.9299
 3854TIP3   OH233196   2.157   1.750   8.338  0.4846 -0.1498  0.0488
 3854TIP3    H133197   2.066   1.727   8.353  0.3129  0.4840 -0.0132
 3854TIP3    H233198   2.207   1.676   8.373 -0.0360 -0.3169  0.4369
 3855TIP3   OH233199   4.620   4.113   7.945 -0.1604 -0.5080  0.6013
 3855TIP3    H133200   4.589   4.063   8.020  0.4356  0.1114  1.2873
 3855TIP3    H233201   4.568   4.081   7.871 -0.1213 -1.7795  1.0987
 3856TIP3   OH233202   6.188   5.121   8.170  0.3063  0.2857  0.1380
 3856TIP3    H133203   6.117   5.157   8.117  1.6662  0.3759 -1.7038
 3856TIP3    H233204   6.143   5.068   8.237 -1.5506  1.9416  0.2927
 3857TIP3   OH233205   2.990   4.506   1.050  0.3393 -0.2324  0.0663
 3857TIP3    H133206   2.961   4.421   1.018  0.6450 -0.7920  1.2010
 3857TIP3    H233207   2.944   4.517   1.134  1.0500  0.2656  0.4064
 3858TIP3   OH233208   3.937   4.783   2.582 -0.1888 -0.4278  0.1990
 3858TIP3    H133209   3.865   4.720   2.577 -0.6550  0.1019  0.0698
 3858TIP3    H233210   3.931   4.820   2.671 -0.9500  0.6080 -0.2585
 3859TIP3   OH233211   6.052   1.081   0.637 -0.2691  0.0670  0.0646
 3859TIP3    H133212   6.036   1.047   0.550 -3.2664  0.9217  0.1693
 3859TIP3    H233213   6.034   1.175   0.630 -1.7631 -0.0330  1.8028
 3860TIP3   OH233214   4.087   1.458   8.581 -0.3035  0.1619  0.2215
 3860TIP3    H133215   4.033   1.407   8.521  0.2849 -1.1376  0.7597
 3860TIP3    H233216   4.034   1.535   8.602 -1.0357  0.0024 -0.9424
 3861TIP3   OH233217   0.292   1.682   8.800  0.4141 -0.2637 -0.7536
 3861TIP3    H133218   0.355   1.745   8.836  1.2214 -1.1539 -0.5438
 3861TIP3    H233219   0.257   1.637   8.877  1.4030 -1.4843 -0.9690
 3862TIP3   OH233220   3.452   1.597   0.107 -0.1001 -0.3612 -0.1069
 3862TIP3    H133221   3.437   1.526   0.169 -0.9724 -1.1262 -1.1665
 3862TIP3    H233222   3.541   1.581   0.073 -0.1649 -0.7534 -0.0947
 3863TIP3   OH233223   2.157   3.815   8.186  0.2567  0.1928  0.1728
 3863TIP3    H133224   2.200   3.754   8.246  0.4334 -2.2755 -2.2547
 3863TIP3    H233225   2.076   3.771   8.161 -1.2478  2.4598  0.6966
 3864TIP3   OH233226   1.746   6.564   0.588  0.1323 -0.0469 -0.2232
 3864TIP3    H133227   1.835   6.598   0.575  0.7700 -0.2755  2.7374
 3864TIP3    H233228   1.738   6.493   0.525  2.3820 -0.5361 -0.0439
 3865TIP3   OH233229   3.902   1.002   0.427  0.4240 -0.4844  0.4234
 3865TIP3    H133230   3.913   0.939   0.498  0.7015  0.6207  1.3860
 3865TIP3    H233231   3.859   1.077   0.467  0.7045  0.2182 -0.5425
 3866TIP3   OH233232   6.240   2.367   1.667  0.0791  0.0284  0.3396
 3866TIP3    H133233   6.215   2.307   1.737 -1.4954 -0.9646 -1.0100
 3866TIP3    H233234   6.178   2.439   1.674 -0.5881 -0.4469 -0.4698
 3867TIP3   OH233235   2.103   3.982   3.107  0.5740  0.8430 -0.0203
 3867TIP3    H133236   2.062   4.068   3.100 -3.8508 -1.0113 -0.8922
 3867TIP3    H233237   2.092   3.958   3.199  1.1123  0.9431  0.0676
 3868TIP3   OH233238   5.540   5.717   1.114 -0.2453 -0.0385 -0.3209
 3868TIP3    H133239   5.620   5.761   1.085  0.7844 -1.1944  0.6608
 3868TIP3    H233240   5.479   5.730   1.042  0.9823  0.4675 -1.3216
 3869TIP3   OH233241   2.901   1.566   2.594  0.0968 -0.2237 -0.3447
 3869TIP3    H133242   2.886   1.638   2.533 -0.0537 -0.9352 -1.1751
 3869TIP3    H233243   2.855   1.592   2.674  0.0580  0.5987 -0.6248
 3870TIP3   OH233244   3.434   2.496   2.425  0.2341  0.1325 -0.3067
 3870TIP3    H133245   3.446   2.457   2.511 -1.4323  1.3908  0.5582
 3870TIP3    H233246   3.357   2.452   2.389 -0.3129  1.0213 -0.2614
 3871TIP3   OH233247   4.040   4.568   1.671  0.2295  0.5081  1.0552
 3871TIP3    H133248   4.039   4.497   1.736  1.0246  0.9397  1.5516
 3871TIP3    H233249   4.039   4.523   1.586  0.1692 -0.0805  1.3624
 3872TIP3   OH233250   6.452   2.174   1.606  0.1267 -0.8481 -0.2972
 3872TIP3    H133251   6.388   2.244   1.615  0.7761 -0.3374  0.6031
 3872TIP3    H233252   6.516   2.192   1.676  1.1759 -1.3971 -1.0900
 3873TIP3   OH233253   5.212   1.919   1.476 -0.1345  0.9525 -0.4029
 3873TIP3    H133254   5.163   1.999   1.490 -1.0288  0.1695  1.2052
 3873TIP3    H233255   5.146   1.850   1.469  0.6539  0.1002  0.1523
 3874TIP3   OH233256   1.968   1.439   1.404  0.1041 -0.0051 -0.3703
 3874TIP3    H133257   1.925   1.508   1.352  1.4432 -0.4617 -2.1737
 3874TIP3    H233258   1.906   1.366   1.402 -1.4611  1.1346  1.7948
 3875TIP3   OH233259   4.660   1.681   9.055 -0.4100 -0.3062  0.3137
 3875TIP3    H133260   4.574   1.669   9.015 -0.0168  0.3455 -0.7531
 3875TIP3    H233261   4.652   1.642   9.142 -1.8664 -0.0133  0.3272
 3876TIP3   OH233262   4.850   5.810   7.885 -0.3306 -0.2915 -0.6391
 3876TIP3    H133263   4.870   5.884   7.828 -1.6643  0.0586 -0.6839
 3876TIP3    H233264   4.873   5.733   7.832 -0.5473  0.0537 -1.2525
 3877TIP3   OH233265   5.877   4.953   8.698  0.2853 -0.0376 -0.4128
 3877TIP3    H133266   5.902   4.881   8.640 -0.3682 -1.9677  1.5931
 3877TIP3    H233267   5.931   4.942   8.776 -0.7409  0.8716  0.4658
 3878TIP3   OH233268   3.935   4.144   7.673 -0.0855 -0.7019  0.2699
 3878TIP3    H133269   3.976   4.179   7.594 -1.2741 -0.5721 -0.3059
 3878TIP3    H233270   3.928   4.219   7.732 -1.8517 -0.1110 -0.6353
 3879TIP3   OH233271   5.790   2.300   1.164  0.7466  0.3748  0.3228
 3879TIP3    H133272   5.859   2.280   1.101  0.3914 -1.9170  0.5681
 3879TIP3    H233273   5.828   2.279   1.250 -0.1337 -0.6644  0.4827
 3880TIP3   OH233274   0.354   4.782   8.461  0.4919  0.0477 -0.4539
 3880TIP3    H133275   0.259   4.783   8.467  0.5397  1.8195  0.6950
 3880TIP3    H233276   0.384   4.791   8.551  1.7830 -1.2331 -0.7187
 3881TIP3   OH233277   2.114   5.534   1.286 -0.8081 -0.2419  0.2807
 3881TIP3    H133278   2.158   5.455   1.317  0.4323  0.9714  1.7113
 3881TIP3    H233279   2.127   5.532   1.191 -2.9952 -3.0096 -0.1115
 3882TIP3   OH233280   1.875   4.428   7.023 -0.0952 -0.2951 -0.4200
 3882TIP3    H133281   1.970   4.436   7.030 -0.0050 -0.3837 -1.3670
 3882TIP3    H233282   1.861   4.344   6.979 -0.5204  0.6380 -2.1563
 3883TIP3   OH233283   6.052   0.211   0.744 -0.3012  0.2664 -0.4452
 3883TIP3    H133284   6.012   0.277   0.800  0.0560  0.2397 -0.1554
 3883TIP3    H233285   6.145   0.234   0.742  0.0170 -0.8106  0.5005
 3884TIP3   OH233286   2.861   4.443   2.972 -0.2803 -0.0859  0.1104
 3884TIP3    H133287   2.847   4.348   2.978 -1.3767  0.1582  2.4231
 3884TIP3    H233288   2.905   4.466   3.053 -0.3760  1.4504 -0.2509
 3885TIP3   OH233289   6.407   1.993   9.040 -0.1700 -0.4015 -0.4170
 3885TIP3    H133290   6.364   1.923   8.990 -2.1799 -0.0372  0.7171
 3885TIP3    H233291   6.495   1.960   9.055 -0.8907 -2.4840 -0.3689
 3886TIP3   OH233292   0.186   5.643   0.752  0.8168  0.6813 -0.3232
 3886TIP3    H133293   0.143   5.729   0.757  0.2142  0.4231 -0.8749
 3886TIP3    H233294   0.162   5.600   0.834 -0.1419  0.4828 -0.6867
 3887TIP3   OH233295   4.008   5.827   7.637  0.8519 -0.4670 -1.0540
 3887TIP3    H133296   4.057   5.805   7.558  1.9040 -0.0704 -0.5335
 3887TIP3    H233297   4.033   5.918   7.656  0.3190 -0.4346 -0.4759
 3888TIP3   OH233298   5.506   5.266   2.118  0.1347 -0.8950  0.3362
 3888TIP3    H133299   5.496   5.173   2.136  2.2561 -1.2084  0.1730
 3888TIP3    H233300   5.535   5.304   2.201 -2.8181  0.0709  1.0136
 3889TIP3   OH233301   0.633   0.880   2.532 -0.0040  0.5448  0.1030
 3889TIP3    H133302   0.542   0.891   2.502  0.1135  1.0818 -0.0714
 3889TIP3    H233303   0.683   0.940   2.476  0.6014 -0.4860 -0.4784
 3890TIP3   OH233304   1.287   6.441   0.705  0.0162 -0.3140  0.5955
 3890TIP3    H133305   1.252   6.399   0.626  0.1455  1.8516 -0.6955
 3890TIP3    H233306   1.377   6.409   0.710  0.4950  0.6724 -1.0604
 3891TIP3   OH233307   1.036   6.617   0.528 -0.1046  0.1040  0.3449
 3891TIP3    H133308   1.093   6.621   0.604  1.3201  0.5000 -0.6887
 3891TIP3    H233309   1.066   6.541   0.479 -0.9729 -0.1266  0.1424
 3892TIP3   OH233310   0.237   1.402   8.105  0.4524 -0.3154  0.0249
 3892TIP3    H133311   0.263   1.413   8.014  1.5315 -2.5141  0.0035
 3892TIP3    H233312   0.271   1.316   8.130 -1.3071 -0.5319  1.9865
 3893TIP3   OH233313   5.243   0.552   0.431  0.1719 -0.2068 -0.1207
 3893TIP3    H133314   5.156   0.514   0.440  0.0285  0.1106 -0.1687
 3893TIP3    H233315   5.256   0.560   0.336 -0.8823  2.3190 -0.1309
 3894TIP3   OH233316   4.845   4.620   9.098  0.4218 -0.0091 -0.1466
 3894TIP3    H133317   4.804   4.565   9.031  0.5899  1.0489 -1.1568
 3894TIP3    H233318   4.920   4.569   9.128 -1.0333 -1.5815  1.0831
 3895TIP3   OH233319   3.974   5.078   1.714  0.3700 -0.1106  0.3469
 3895TIP3    H133320   3.889   5.082   1.670  0.0412  0.6410  1.0158
 3895TIP3    H233321   4.017   5.001   1.676  0.3159  0.7678 -1.6217
 3896TIP3   OH233322   5.071   6.261   2.487 -0.7386 -0.2130 -0.2009
 3896TIP3    H133323   5.050   6.227   2.399  0.1742 -0.0135 -0.5070
 3896TIP3    H233324   5.101   6.350   2.472 -1.6518  0.2243  0.4516
 3897TIP3   OH233325   0.271   2.071   0.686 -0.1320 -0.1970  0.3469
 3897TIP3    H133326   0.184   2.032   0.694 -0.4588  0.6619  1.2348
 3897TIP3    H233327   0.328   1.999   0.662 -1.2207 -0.6223 -1.0560
 3898TIP3   OH233328   4.591   4.727   2.089  0.0286 -0.6134 -0.4606
 3898TIP3    H133329   4.587   4.737   1.994 -0.4156 -0.0451 -0.3928
 3898TIP3    H233330   4.683   4.740   2.111 -0.1551  1.2049 -0.6311
 3899TIP3   OH233331   2.926   5.149   8.211  0.0917 -0.0364 -0.7866
 3899TIP3    H133332   2.951   5.241   8.218 -1.5603  0.3179  1.6948
 3899TIP3    H233333   2.840   5.150   8.169  0.0695 -0.4477 -0.7570
 3900TIP3   OH233334   3.186   1.244   8.729  0.6961 -0.6650 -0.1262
 3900TIP3    H133335   3.262   1.301   8.738 -0.0840  0.3733  0.1349
 3900TIP3    H233336   3.144   1.245   8.815 -0.3286 -0.1560 -0.6114
 3901TIP3   OH233337   4.050   6.476   2.148  0.9460 -0.0243  0.4796
 3901TIP3    H133338   4.068   6.393   2.105 -0.9893  0.2712 -1.0338
 3901TIP3    H233339   3.956   6.473   2.169  1.0748  1.3381  1.4104
 3902TIP3   OH233340   2.916   6.036   1.102  0.3447 -0.4418  0.1606
 3902TIP3    H133341   2.968   5.998   1.031 -2.1796  0.1758 -2.1772
 3902TIP3    H233342   2.873   5.960   1.142 -0.8232 -0.5455 -1.2291
 3903TIP3   OH233343   3.901   2.240   2.239  0.1164 -0.2506  0.3205
 3903TIP3    H133344   3.996   2.229   2.246  0.0509 -0.0598  1.8613
 3903TIP3    H233345   3.865   2.157   2.271 -0.2518 -0.0236  0.4942
 3904TIP3   OH233346   6.672   2.069   8.315  0.1240  0.0892  0.6834
 3904TIP3    H133347   6.728   1.993   8.328 -0.2981 -1.0073 -2.7808
 3904TIP3    H233348   6.595   2.054   8.370  0.3306 -1.6934  0.5149
 3905TIP3   OH233349   5.205   6.329   7.256 -0.0654 -0.1877  0.4817
 3905TIP3    H133350   5.188   6.282   7.174 -0.9444  0.5814  0.2097
 3905TIP3    H233351   5.190   6.421   7.234 -1.6300 -0.0828  1.8334
 3906TIP3   OH233352   3.715   4.780   7.760  0.1419  0.0885  0.2080
 3906TIP3    H133353   3.752   4.797   7.673  0.7857  0.2479  0.5062
 3906TIP3    H233354   3.773   4.714   7.798 -0.6112 -0.5906  0.2090
 3907TIP3   OH233355   2.405   1.101   7.838  0.4362 -0.7156 -0.3275
 3907TIP3    H133356   2.313   1.094   7.810  0.3251  0.9500 -0.4751
 3907TIP3    H233357   2.444   1.018   7.813 -1.0046 -1.4044 -0.3896
 3908TIP3   OH233358   2.334   6.642   0.193 -0.3477 -0.3715  0.1568
 3908TIP3    H133359   2.322   6.733   0.165 -2.6373  0.1856  2.6138
 3908TIP3    H233360   2.412   6.613   0.145  2.0059  3.6450  1.0953
 3909TIP3   OH233361   3.758   3.353   1.489 -0.3315 -0.0405 -0.7596
 3909TIP3    H133362   3.672   3.387   1.512 -1.1910 -2.6503  0.3194
 3909TIP3    H233363   3.760   3.353   1.394 -1.0107  1.1986 -0.7833
 3910TIP3   OH233364   4.022   5.923   7.212  0.0030  0.3656 -0.0818
 3910TIP3    H133365   4.004   5.961   7.298 -1.1091  0.0071 -0.1451
 3910TIP3    H233366   4.042   5.999   7.157 -0.0752  0.6653  0.2972
 3911TIP3   OH233367   5.463   4.015   2.087 -0.2714  0.2713 -0.2383
 3911TIP3    H133368   5.509   3.935   2.060  0.1316 -0.2103  1.6815
 3911TIP3    H233369   5.529   4.065   2.135 -1.2658  0.3687  1.0896
 3912TIP3   OH233370   4.422   5.641   2.176  0.5744 -0.0438  0.6192
 3912TIP3    H133371   4.398   5.561   2.222 -0.3914  0.2040  0.5611
 3912TIP3    H233372   4.396   5.712   2.235  1.2482  0.2352  0.5885
 3913TIP3   OH233373   3.161   6.100   8.472  0.3610  0.2664  0.2381
 3913TIP3    H133374   3.188   6.109   8.381  1.8805 -0.2659  0.6180
 3913TIP3    H233375   3.241   6.109   8.522 -0.6900  2.5337  1.6901
 3914TIP3   OH233376   2.971   3.273   8.710  0.5408  0.7885  0.0241
 3914TIP3    H133377   3.043   3.247   8.768  1.3168  1.1194 -0.7756
 3914TIP3    H233378   2.901   3.299   8.770  0.1317 -1.9293  0.8867
 3915TIP3   OH233379   2.983   5.725   0.784  0.4342 -0.2594  0.3967
 3915TIP3    H133380   3.002   5.646   0.835  0.3245 -1.0662 -0.7659
 3915TIP3    H233381   2.888   5.734   0.789  0.5652  0.6660  1.7366
 3916TIP3   OH233382   3.905   2.380   1.667  0.1673 -0.0275  0.2857
 3916TIP3    H133383   3.825   2.348   1.625  0.4196 -1.7374  1.0560
 3916TIP3    H233384   3.876   2.415   1.751  0.2589 -1.0078  0.7356
 3917TIP3   OH233385   5.392   3.683   9.077  0.0403 -0.2444 -0.3434
 3917TIP3    H133386   5.389   3.746   9.005  2.0738  0.8097  0.4028
 3917TIP3    H233387   5.302   3.654   9.088 -0.4962  0.4456 -2.5396
 3918TIP3   OH233388   3.590   4.248   2.303 -0.0807  0.0709  0.7056
 3918TIP3    H133389   3.589   4.158   2.335 -1.5437  0.6604  2.5378
 3918TIP3    H233390   3.520   4.251   2.237  2.2600 -0.8945 -2.0165
 3919TIP3   OH233391   3.098   1.782   8.536  0.2368 -0.0260 -0.4219
 3919TIP3    H133392   3.044   1.849   8.494  1.6117  0.1786 -1.9893
 3919TIP3    H233393   3.061   1.699   8.507  0.9060  0.1155 -1.7611
 3920TIP3   OH233394   6.476   1.568   1.264  0.9176 -0.0230 -0.2972
 3920TIP3    H133395   6.445   1.478   1.278 -0.8820  0.3746 -1.4188
 3920TIP3    H233396   6.541   1.582   1.333 -0.6475 -1.3115  1.5500
 3921TIP3   OH233397   0.051   4.128   0.769 -0.3399 -0.0222 -0.1005
 3921TIP3    H133398   0.140   4.117   0.804  0.9993  2.5652 -2.3562
 3921TIP3    H233399   0.057   4.099   0.678 -1.8333  0.1806 -0.2877
 3922TIP3   OH233400   2.154   2.641   8.744  0.5592 -0.5002  0.1345
 3922TIP3    H133401   2.188   2.581   8.810 -0.6746 -0.3593  0.9509
 3922TIP3    H233402   2.172   2.728   8.779  0.7638 -0.4149 -0.1815
 3923TIP3   OH233403   4.216   6.637   9.022 -0.7898 -0.3646  0.4178
 3923TIP3    H133404   4.288   6.699   9.029 -0.1369 -0.5551 -2.8907
 3923TIP3    H233405   4.153   6.680   8.964  0.0126 -2.8996 -2.5862
 3924TIP3   OH233406   6.436   5.492   7.436 -0.3252  0.1530  0.1956
 3924TIP3    H133407   6.421   5.560   7.370 -0.8807  0.8185  0.9903
 3924TIP3    H233408   6.434   5.410   7.387  1.0700  0.7295 -0.9042
 3925TIP3   OH233409   1.837   1.790   1.891 -0.0778 -0.3998  0.8065
 3925TIP3    H133410   1.860   1.852   1.960  1.3585  1.1824 -0.9725
 3925TIP3    H233411   1.913   1.732   1.884  0.5781  0.5879 -0.5984
 3926TIP3   OH233412   6.316   3.921   8.446  0.1728  0.0979  0.3196
 3926TIP3    H133413   6.257   3.846   8.453  0.4228 -0.2432 -0.8843
 3926TIP3    H233414   6.337   3.944   8.536  0.2921 -1.4442  0.7150
 3927TIP3   OH233415   6.136   0.438   1.582 -0.2879 -0.0631  0.2618
 3927TIP3    H133416   6.191   0.360   1.585 -0.4019 -0.1303  2.3064
 3927TIP3    H233417   6.136   0.470   1.672 -2.5172  0.7018  0.0511
 3928TIP3   OH233418   6.219   2.335   0.158 -0.2893 -0.0691  0.8979
 3928TIP3    H133419   6.274   2.344   0.081  1.9661  0.4158  2.4950
 3928TIP3    H233420   6.177   2.420   0.168  1.2512  0.6545  1.5016
 3929TIP3   OH233421   5.882   4.968   1.214  0.5819  0.3482  0.5917
 3929TIP3    H133422   5.941   5.002   1.281  0.6890  0.8113  0.2692
 3929TIP3    H233423   5.940   4.929   1.149  0.4548 -0.5486  1.0038
 3930TIP3   OH233424   4.248   0.397   0.223 -0.0350  0.1837 -0.6823
 3930TIP3    H133425   4.309   0.464   0.254  2.3127 -1.2050 -1.9410
 3930TIP3    H233426   4.300   0.316   0.226 -1.5776 -0.9416 -2.6368
 3931TIP3   OH233427   1.462   5.877   8.945 -0.2314  0.0737 -0.2632
 3931TIP3    H133428   1.454   5.797   8.894  1.5120  0.5621 -1.3866
 3931TIP3    H233429   1.384   5.928   8.923 -0.5981 -0.6600 -0.7088
 3932TIP3   OH233430   3.719   2.348   0.788 -0.2023 -0.6166  0.1033
 3932TIP3    H133431   3.765   2.388   0.862  2.1944  1.5548 -2.3054
 3932TIP3    H233432   3.772   2.271   0.766  0.4943  0.0627 -0.6957
 3933TIP3   OH233433   4.533   3.582   2.406 -0.1133 -0.3338  0.2309
 3933TIP3    H133434   4.569   3.517   2.346 -0.7761 -0.0198 -0.5222
 3933TIP3    H233435   4.583   3.661   2.389  0.6268 -0.6007  1.0789
 3934TIP3   OH233436   0.170   3.846   0.509 -0.0070  0.6400 -0.0078
 3934TIP3    H133437   0.180   3.824   0.602 -0.5136  0.7296  0.0723
 3934TIP3    H233438   0.189   3.765   0.462 -2.4071 -0.1649  0.3007
 3935TIP3   OH233439   0.331   2.361   1.621 -0.0050  0.5485  0.0438
 3935TIP3    H133440   0.284   2.278   1.632 -0.4198  0.7518 -0.1786
 3935TIP3    H233441   0.263   2.428   1.630  0.2690  0.8510 -0.1359
 3936TIP3   OH233442   6.458   1.413   0.673 -0.4311 -0.2680  0.6050
 3936TIP3    H133443   6.397   1.473   0.630 -1.9792 -1.5710  0.9020
 3936TIP3    H233444   6.415   1.391   0.756 -0.6727 -2.9541 -0.1503
 3937TIP3   OH233445   5.035   2.706   8.156 -0.1497  0.4560 -0.2098
 3937TIP3    H133446   4.952   2.688   8.200 -0.6776  0.3162 -1.2271
 3937TIP3    H233447   5.066   2.787   8.196 -0.1741 -0.1194  1.0122
 3938TIP3   OH233448   0.287   0.064   0.027 -0.5801 -0.1245 -0.1868
 3938TIP3    H133449   0.269  -0.012  -0.028  2.0482 -0.9987 -0.0092
 3938TIP3    H233450   0.223   0.058   0.098 -1.1467 -1.5487 -0.7685
 3939TIP3   OH233451   0.197   4.240   2.325 -0.4495  0.3416  0.0237
 3939TIP3    H133452   0.247   4.322   2.321  1.3677 -0.6552  1.0057
 3939TIP3    H233453   0.150   4.237   2.242  0.1914  1.9315 -0.4399
 3940TIP3   OH233454   2.115   2.520   1.065 -0.4006 -0.1134  0.5102
 3940TIP3    H133455   2.040   2.478   1.106  0.3859 -1.5876  0.4828
 3940TIP3    H233456   2.154   2.573   1.134 -1.1991  0.3266  0.6382
 3941TIP3   OH233457   3.029   3.758   8.570 -0.3448  0.1258  0.4099
 3941TIP3    H133458   3.105   3.816   8.566  0.3021 -0.7106  0.3540
 3941TIP3    H233459   2.955   3.815   8.551  0.2711  0.9418  0.3893
 3942TIP3   OH233460   2.666   5.650   8.168  0.2133 -0.0420 -0.5113
 3942TIP3    H133461   2.713   5.654   8.085  0.2718  2.4613 -0.4614
 3942TIP3    H233462   2.726   5.691   8.231 -0.2303 -0.9955  0.5689
 3943TIP3   OH233463   6.583   0.715   0.478  0.1539 -0.3798 -0.3243
 3943TIP3    H133464   6.540   0.630   0.466 -1.3373  0.2308  0.3947
 3943TIP3    H233465   6.512   0.774   0.506  0.6047  1.7137 -3.1001
 3944TIP3   OH233466   2.254   5.150   1.829  0.1831  0.3050 -0.2579
 3944TIP3    H133467   2.200   5.072   1.841  1.3017 -0.5157 -0.3610
 3944TIP3    H233468   2.245   5.199   1.910  0.0427 -0.3069  0.0998
 3945TIP3   OH233469   0.271   0.727   2.798  0.2130 -0.2524 -0.7609
 3945TIP3    H133470   0.306   0.732   2.887  2.8447 -1.6270 -1.6316
 3945TIP3    H233471   0.209   0.800   2.793 -1.7744 -1.4468  2.8413
 3946TIP3   OH233472   5.724   3.754   8.617  0.3627 -0.4091 -0.5944
 3946TIP3    H133473   5.696   3.668   8.586 -2.3121 -0.9704  2.8122
 3946TIP3    H233474   5.670   3.816   8.568 -1.1091 -1.0372  0.1646
 3947TIP3   OH233475   5.039   2.667   0.509 -0.6436  0.1763  0.0417
 3947TIP3    H133476   5.028   2.573   0.493 -0.5473  0.1816 -0.0581
 3947TIP3    H233477   4.977   2.687   0.579 -1.0416  0.1389 -0.2947
 3948TIP3   OH233478   2.760   6.067   9.051  0.3381 -0.4608  0.1399
 3948TIP3    H133479   2.812   6.011   9.109  1.3743  1.4892  1.1766
 3948TIP3    H233480   2.785   6.040   8.963  1.0482 -1.4093  0.6118
 3949TIP3   OH233481   4.573   4.504   8.226 -0.3503  0.1654 -0.3892
 3949TIP3    H133482   4.617   4.419   8.232  0.2625  0.5337  0.6913
 3949TIP3    H233483   4.605   4.542   8.144  2.4529  0.9703  0.9529
 3950TIP3   OH233484   2.377   1.285   1.921 -0.0036  0.5417  0.2808
 3950TIP3    H133485   2.310   1.239   1.869 -0.4341 -0.5684  1.7450
 3950TIP3    H233486   2.328   1.324   1.993  1.0453 -1.4165  2.1279
 3951TIP3   OH233487   1.417   1.586   2.617  0.0768  0.4110  0.3297
 3951TIP3    H133488   1.371   1.623   2.692 -0.1447  0.4751  0.1647
 3951TIP3    H233489   1.486   1.650   2.598  0.4974  0.1164  0.8297
 3952TIP3   OH233490   0.878   6.240   2.038  0.1284  0.3691 -0.2852
 3952TIP3    H133491   0.885   6.170   1.973 -1.0051 -0.2897  0.2817
 3952TIP3    H233492   0.831   6.200   2.112  1.4382  1.0723  0.9867
 3953TIP3   OH233493   3.440   0.059   8.999 -0.5310  0.1927 -0.3535
 3953TIP3    H133494   3.416   0.032   8.910 -1.6089  1.0337 -0.3398
 3953TIP3    H233495   3.403   0.147   9.008 -0.1162  0.2617  0.7983
 3954TIP3   OH233496   5.117   1.178   1.320  0.1402 -0.2512  0.1417
 3954TIP3    H133497   5.136   1.089   1.292  1.6777  0.2521 -0.5358
 3954TIP3    H233498   5.022   1.185   1.318  0.0554 -1.3985 -1.3080
 3955TIP3   OH233499   6.195   0.289   8.505 -0.3388  0.4201  0.1044
 3955TIP3    H133500   6.245   0.255   8.431 -1.1647  0.8254 -0.6626
 3955TIP3    H233501   6.238   0.252   8.583  0.0156 -0.7033 -0.6112
 3956TIP3   OH233502   1.281   6.579   7.482  0.0280 -0.2252 -0.4982
 3956TIP3    H133503   1.304   6.589   7.574 -1.4680 -0.2603 -0.0905
 3956TIP3    H233504   1.329   6.649   7.438 -0.2214  0.6016  0.4930
 3957TIP3   OH233505   4.033   1.277   2.782  0.1174  0.0261 -0.6520
 3957TIP3    H133506   3.974   1.203   2.764  0.7380 -0.3913 -1.0015
 3957TIP3    H233507   4.114   1.254   2.737  0.4056  0.8010 -0.5293
 3958TIP3   OH233508   0.964   0.596   8.000 -0.1236 -0.0146  1.0374
 3958TIP3    H133509   0.934   0.652   8.071 -1.0536  0.8064  0.0357
 3958TIP3    H233510   0.980   0.656   7.927 -0.0229 -0.9288  0.2910
 3959TIP3   OH233511   0.200   5.744   0.076 -0.0827  0.3670 -0.0426
 3959TIP3    H133512   0.181   5.833   0.045  0.6690  0.1609 -1.1502
 3959TIP3    H233513   0.150   5.687   0.018 -0.1813  0.0369  0.3568
 3960TIP3   OH233514   1.312   5.908   2.017 -0.4269 -0.4113  0.2526
 3960TIP3    H133515   1.388   5.855   1.992  0.1217 -0.0274  1.0366
 3960TIP3    H233516   1.315   5.984   1.958 -0.1336 -0.3458  0.3486
 3961TIP3   OH233517   1.239   3.496   0.813 -0.1173 -0.2002  0.0371
 3961TIP3    H133518   1.233   3.586   0.780  0.0482  0.6212  2.1061
 3961TIP3    H233519   1.333   3.478   0.818 -0.0593  0.3982  1.7594
 3962TIP3   OH233520   4.863   4.729   0.379  0.0384  0.0408  0.3328
 3962TIP3    H133521   4.792   4.695   0.434  0.5926 -0.2561  0.8748
 3962TIP3    H233522   4.903   4.652   0.340 -0.5145  0.2645 -0.7196
 3963TIP3   OH233523   4.807   3.902   7.682 -0.4422 -0.2848 -0.3151
 3963TIP3    H133524   4.857   3.823   7.660 -0.2479 -0.5366  0.9765
 3963TIP3    H233525   4.837   3.967   7.619 -1.3132 -1.4717 -2.0576
 3964TIP3   OH233526   4.395   3.688   0.526 -0.4916  0.1764  0.0238
 3964TIP3    H133527   4.369   3.678   0.618 -1.1560  1.6297  0.0081
 3964TIP3    H233528   4.481   3.645   0.521 -1.1407 -1.3355  0.9380
 3965TIP3   OH233529   5.110   5.997   8.624  0.1771 -0.0865  0.3759
 3965TIP3    H133530   5.120   5.952   8.540 -2.2039 -1.1654  0.5974
 3965TIP3    H233531   5.033   6.052   8.613  0.5624  0.7041  1.4795
 3966TIP3   OH233532   5.934   5.376   2.982 -0.7910 -0.2231  0.4632
 3966TIP3    H133533   6.001   5.375   3.050  0.4662  3.2179 -0.5064
 3966TIP3    H233534   5.887   5.458   2.995 -2.3460 -0.7591 -1.2154
 3967TIP3   OH233535   6.083   0.110   0.159 -0.3071 -0.4162  0.0357
 3967TIP3    H133536   6.121   0.046   0.220 -0.2165 -0.3556  0.0422
 3967TIP3    H233537   6.118   0.194   0.187 -1.4483 -0.1788  0.8609
 3968TIP3   OH233538   1.162   4.505   1.871  0.9908  0.5868 -0.5077
 3968TIP3    H133539   1.211   4.452   1.934  1.2129  1.3174 -0.0481
 3968TIP3    H233540   1.081   4.456   1.857  1.3999 -0.1092 -0.4707
 3969TIP3   OH233541   0.506   2.540   1.906  0.3947  0.6791  0.0792
 3969TIP3    H133542   0.468   2.614   1.859 -0.8370  0.7547  1.1579
 3969TIP3    H233543   0.565   2.499   1.843 -1.7191  0.3462 -1.7923
 3970TIP3   OH233544   2.738   6.677   0.973 -0.6152 -0.3592 -0.8298
 3970TIP3    H133545   2.763   6.591   1.007  0.9362  0.7815  1.2081
 3970TIP3    H233546   2.703   6.723   1.049  0.7545  1.5466 -1.2759
 3971TIP3   OH233547   4.769   3.763   8.282 -0.2370  0.0461  0.3734
 3971TIP3    H133548   4.864   3.748   8.288 -0.3173  0.1545  2.9916
 3971TIP3    H233549   4.738   3.694   8.222  1.6629  1.1275 -2.0368
 3972TIP3   OH233550   4.784   0.918   8.706  0.4054 -0.0707  0.3433
 3972TIP3    H133551   4.698   0.893   8.673 -0.1792  0.9981  0.9841
 3972TIP3    H233552   4.766   0.962   8.789  1.5467  0.4466  0.3373
 3973TIP3   OH233553   5.955   1.709   2.329  0.1938  0.3263 -0.1031
 3973TIP3    H133554   5.918   1.714   2.417  0.0137 -0.3266 -0.1345
 3973TIP3    H233555   6.029   1.770   2.331  1.5223 -1.1904  1.1746
 3974TIP3   OH233556   4.287   5.150   7.628 -0.0275 -0.1790  0.1260
 3974TIP3    H133557   4.332   5.228   7.659  0.4912  0.0878 -1.2073
 3974TIP3    H233558   4.196   5.178   7.615  0.4768  0.7125 -1.8867
 3975TIP3   OH233559   2.605   6.100   2.030  0.1097 -0.0701  0.0836
 3975TIP3    H133560   2.529   6.155   2.049 -0.3075 -1.1680  1.8822
 3975TIP3    H233561   2.656   6.150   1.966 -0.7095  1.9748  0.9369
 3976TIP3   OH233562   6.607   5.426   8.900 -0.5127  0.5657  0.1552
 3976TIP3    H133563   6.636   5.480   8.826 -2.2250  2.6917  0.9283
 3976TIP3    H233564   6.514   5.444   8.908 -0.4749  0.0550  2.5376
 3977TIP3   OH233565   1.154   4.558   8.112 -0.4480  0.2101  0.4144
 3977TIP3    H133566   1.225   4.576   8.051  0.0922  2.2831  1.5519
 3977TIP3    H233567   1.086   4.517   8.058  1.6268 -2.0783 -0.6476
 3978TIP3   OH233568   3.883   1.645   8.659 -0.6095 -0.4793  0.0727
 3978TIP3    H133569   3.837   1.631   8.741  0.8044  0.3340  1.0456
 3978TIP3    H233570   3.819   1.687   8.602 -0.6959  2.1089  1.9192
 3979TIP3   OH233571   4.555   5.268   1.984  0.1243 -0.9531 -0.5059
 3979TIP3    H133572   4.575   5.203   2.052 -0.6827  1.3370  2.1605
 3979TIP3    H233573   4.463   5.290   1.998  0.2573  0.4370 -1.5603
 3980TIP3   OH233574   4.664   6.325   8.204 -0.2445  0.4361 -0.3714
 3980TIP3    H133575   4.598   6.393   8.190 -0.7693  0.3698  1.4541
 3980TIP3    H233576   4.616   6.243   8.195  0.4729  0.2213 -2.9825
 3981TIP3   OH233577   0.609   5.766   0.126 -0.3991 -0.1818 -0.0250
 3981TIP3    H133578   0.581   5.771   0.035 -0.6365 -1.0313 -0.0098
 3981TIP3    H233579   0.690   5.716   0.124 -1.0563 -1.3113  0.3347
 3982TIP3   OH233580   1.822   5.087   0.626  0.0785 -0.3284 -0.6677
 3982TIP3    H133581   1.873   5.039   0.559 -0.4309 -1.4765 -0.2662
 3982TIP3    H233582   1.836   5.179   0.606  2.4951 -0.5864 -0.4665
 3983TIP3   OH233583   0.938   2.036   9.069 -0.6669 -0.0060 -0.7125
 3983TIP3    H133584   0.937   2.123   9.110  1.3614 -0.6575  0.8950
 3983TIP3    H233585   0.848   2.004   9.080 -1.8052  2.3059 -2.4700
 3984TIP3   OH233586   3.792   1.416   8.920  0.6763 -0.4567  0.1090
 3984TIP3    H133587   3.879   1.406   8.880  0.4547  0.5341 -0.6659
 3984TIP3    H233588   3.734   1.364   8.864  0.3483  1.0139 -0.9891
 3985TIP3   OH233589   6.647   6.096   9.092 -0.1947 -0.0709  0.0761
 3985TIP3    H133590   6.723   6.087   9.149  0.7336  0.1942 -1.0856
 3985TIP3    H233591   6.593   6.019   9.112  0.7171 -0.6370  0.4240
 3986TIP3   OH233592   4.987   3.306   8.547 -0.1873 -0.2123 -0.5323
 3986TIP3    H133593   5.074   3.273   8.525 -0.0856 -0.7376  0.5890
 3986TIP3    H233594   4.929   3.231   8.533 -0.1738 -0.4396  0.5606
 3987TIP3   OH233595   4.579   2.412   0.233  0.0126 -0.0038 -0.0076
 3987TIP3    H133596   4.624   2.345   0.181  1.5490  2.3269 -1.8291
 3987TIP3    H233597   4.486   2.395   0.216  0.3116 -2.0043  0.0612
 3988TIP3   OH233598   0.679   5.478   1.950  0.3323 -0.2578  0.0994
 3988TIP3    H133599   0.697   5.508   2.039  1.5263  0.2643 -0.2883
 3988TIP3    H233600   0.679   5.383   1.956  1.2815 -0.2478  0.5245
 3989TIP3   OH233601   1.737   0.599   2.155 -0.0725  0.1273  0.0317
 3989TIP3    H133602   1.827   0.594   2.123 -0.0040 -1.0349  0.3345
 3989TIP3    H233603   1.740   0.662   2.226  0.6540 -0.3780  0.4683
 3990TIP3   OH233604   5.420   0.154   1.686 -0.6089 -0.2672 -0.0583
 3990TIP3    H133605   5.435   0.122   1.597  0.6907  0.9740 -0.3252
 3990TIP3    H233606   5.370   0.084   1.728 -1.6708 -0.6842 -1.8753
 3991TIP3   OH233607   0.763   2.412   0.105  0.3919 -0.0467 -0.1234
 3991TIP3    H133608   0.775   2.409   0.200 -0.0842  1.5994  0.0147
 3991TIP3    H233609   0.773   2.504   0.082  0.6412 -0.4359 -1.7044
 3992TIP3   OH233610   1.378   1.833   0.978  0.2478 -0.0424  0.2261
 3992TIP3    H133611   1.300   1.889   0.978 -0.2210 -0.6815 -0.2477
 3992TIP3    H233612   1.384   1.802   0.888  1.6449  0.8018 -0.0107
 3993TIP3   OH233613   3.787   0.939   1.818  0.1802 -0.0418 -0.4508
 3993TIP3    H133614   3.870   0.979   1.791 -0.0091  0.3601 -0.4513
 3993TIP3    H233615   3.725   0.966   1.750  0.4488 -1.9314 -1.5134
 3994TIP3   OH233616   2.708   4.442   2.193 -0.0198  0.1409 -0.3413
 3994TIP3    H133617   2.627   4.440   2.141  0.3661 -2.8634 -0.9954
 3994TIP3    H233618   2.713   4.355   2.232  0.7737  1.6028  3.2183
 3995TIP3   OH233619   4.056   1.121   2.063  0.2960  0.4224  0.2080
 3995TIP3    H133620   4.053   1.045   2.122 -0.6268  0.0750 -0.2750
 3995TIP3    H233621   4.086   1.193   2.119 -0.5767  0.1037  1.1165
 3996TIP3   OH233622   5.845   4.078   1.661 -0.0579 -0.0020  0.0786
 3996TIP3    H133623   5.895   4.036   1.591 -1.1643 -1.0451 -0.1212
 3996TIP3    H233624   5.876   4.037   1.741  0.9266  0.9088  0.1822
 3997TIP3   OH233625   6.324   0.720   1.989 -0.2722  0.2189 -0.0596
 3997TIP3    H133626   6.328   0.729   2.084  3.2678 -2.5739  0.2824
 3997TIP3    H233627   6.405   0.761   1.958  0.9375 -2.7619 -1.2437
 3998TIP3   OH233628   5.305   4.717   0.437  0.3562  0.2599 -0.0051
 3998TIP3    H133629   5.387   4.721   0.487  0.6527  1.3411 -0.5557
 3998TIP3    H233630   5.238   4.746   0.497  0.5870  0.7099  0.0415
 3999TIP3   OH233631   0.887   0.398   0.230 -0.0521 -0.5081  0.0243
 3999TIP3    H133632   0.953   0.346   0.185  0.5361  0.2687 -0.0284
 3999TIP3    H233633   0.817   0.335   0.251 -0.0655 -1.0002 -1.4028
 4000TIP3   OH233634   2.885   6.310   0.879 -0.2248  0.3288 -0.7052
 4000TIP3    H133635   2.960   6.256   0.853  0.2324  0.4298  0.3501
 4000TIP3    H233636   2.832   6.253   0.934  1.0351  1.2972  1.6947
 4001TIP3   OH233637   0.894   6.058   1.240  0.1794  0.2494 -0.0698
 4001TIP3    H133638   0.904   5.996   1.312  0.5453 -0.1353 -0.4415
 4001TIP3    H233639   0.800   6.077   1.236  0.1873  0.4541  0.6519
 4002TIP3   OH233640   2.170   5.041   1.485 -0.0068  0.2365 -0.2099
 4002TIP3    H133641   2.086   5.072   1.520  0.5499  0.4285  1.0086
 4002TIP3    H233642   2.235   5.100   1.523  0.6669  0.2672 -1.3773
 4003TIP3   OH233643   3.934   3.252   1.716  0.6066 -0.1464  0.0903
 4003TIP3    H133644   3.887   3.273   1.635 -0.8296  0.5657  1.0658
 4003TIP3    H233645   4.012   3.307   1.713  0.7680 -0.4036 -0.9733
 4004TIP3   OH233646   0.611   1.753   3.632  0.0500 -0.3219  0.1018
 4004TIP3    H133647   0.570   1.680   3.585 -2.0864  0.4850  0.5968
 4004TIP3    H233648   0.680   1.712   3.684 -0.0861 -1.7685 -0.7868
 4005TIP3   OH233649   3.643   1.748   8.540 -0.1053 -0.3772  0.1306
 4005TIP3    H133650   3.589   1.827   8.544 -0.6072 -0.6982 -0.1843
 4005TIP3    H233651   3.669   1.741   8.448 -0.1759 -0.6495  0.1293
 4006TIP3   OH233652   3.163   5.507   2.500  0.4740  0.0400  0.1234
 4006TIP3    H133653   3.149   5.422   2.459  0.8509 -0.3004  0.6857
 4006TIP3    H233654   3.258   5.512   2.513  0.6683  1.2982 -1.4892
 4007TIP3   OH233655   3.863   1.090   7.965  0.3092  0.1236  0.2031
 4007TIP3    H133656   3.921   1.019   7.937 -1.4351 -1.2697 -0.0078
 4007TIP3    H233657   3.775   1.060   7.942 -0.4812  2.4339 -0.0372
 4008TIP3   OH233658   2.688   5.637   0.181 -0.4948  0.0101  0.3871
 4008TIP3    H133659   2.613   5.583   0.157  0.5371 -1.4624  0.2883
 4008TIP3    H233660   2.714   5.604   0.267 -1.1006  1.8100  1.3032
 4009TIP3   OH233661   2.211   2.379   0.023  0.3925 -0.0907  0.0252
 4009TIP3    H133662   2.181   2.293   0.051 -0.0707 -0.5769 -1.7994
 4009TIP3    H233663   2.306   2.370   0.013  0.2654 -0.6123 -0.8084
 4010TIP3   OH233664   1.711   3.846   0.479 -0.0716  0.4952 -0.3587
 4010TIP3    H133665   1.725   3.831   0.386 -0.1471  0.1024 -0.3103
 4010TIP3    H233666   1.618   3.867   0.487 -0.4377 -1.0179 -0.2022
 4011TIP3   OH233667   2.342   5.867   8.955  0.3526  0.0037 -0.4290
 4011TIP3    H133668   2.407   5.800   8.931  0.4096 -1.3992  3.0582
 4011TIP3    H233669   2.394   5.945   8.974  1.1785 -1.0812  2.2486
 4012TIP3   OH233670   6.572   3.703   8.584  0.2002  0.2033  0.5754
 4012TIP3    H133671   6.625   3.624   8.573 -1.4430 -0.6651 -2.3189
 4012TIP3    H233672   6.595   3.758   8.509 -0.7208  1.1748  0.9759
 4013TIP3   OH233673   1.333   0.796   8.900  0.0402 -0.0026 -0.3823
 4013TIP3    H133674   1.399   0.856   8.935  0.8310 -0.2111 -1.4541
 4013TIP3    H233675   1.269   0.853   8.858 -0.0055  0.1594 -0.0958
 4014TIP3   OH233676   0.401   4.261   7.817 -0.0031 -0.2040  0.3445
 4014TIP3    H133677   0.305   4.264   7.808 -0.1106 -1.2004  1.0155
 4014TIP3    H233678   0.433   4.291   7.732 -0.9009  0.7219  0.3109
 4015TIP3   OH233679   0.793   1.517   2.286 -0.0790  0.3639 -0.2617
 4015TIP3    H133680   0.840   1.571   2.223 -1.0939  0.0219 -1.3488
 4015TIP3    H233681   0.861   1.471   2.334  0.8070  2.3125  0.4732
 4016TIP3   OH233682   3.441   2.471   9.162 -0.9032  0.3761 -0.1449
 4016TIP3    H133683   3.533   2.478   9.185 -0.7323 -0.4972 -0.5174
 4016TIP3    H233684   3.441   2.434   9.074 -1.5463  3.0729 -1.3912
 4017TIP3   OH233685   1.669   0.841   1.812 -0.6951 -0.0023  0.5077
 4017TIP3    H133686   1.639   0.750   1.808 -0.3908 -0.1133  0.7479
 4017TIP3    H233687   1.668   0.862   1.906 -0.5714  0.1789  0.4677
 4018TIP3   OH233688   5.993   3.744   1.727 -0.1832  0.0059 -0.2759
 4018TIP3    H133689   6.001   3.655   1.762 -0.0959 -0.9137 -2.4816
 4018TIP3    H233690   5.992   3.800   1.805  0.7222 -1.8358  1.1538
 4019TIP3   OH233691   3.604   3.692   8.651 -0.1080  0.0080 -0.0296
 4019TIP3    H133692   3.601   3.743   8.570 -2.1243  0.6551  0.3706
 4019TIP3    H233693   3.512   3.676   8.672  0.3342  0.0293  2.2253
 4020TIP3   OH233694   3.682   2.617   0.015 -0.0803 -0.1782 -0.8260
 4020TIP3    H133695   3.667   2.703   0.055 -1.2259  0.0347 -1.6828
 4020TIP3    H233696   3.776   2.617  -0.006  0.1893  0.3604  0.3028
 4021TIP3   OH233697   2.304   0.953   8.758 -0.2603 -0.5754 -0.0192
 4021TIP3    H133698   2.303   1.040   8.718  0.7280 -0.9134 -0.8071
 4021TIP3    H233699   2.236   0.957   8.826  1.2301  1.5040  1.4541
 4022TIP3   OH233700   5.116   1.918   7.946 -0.0325 -0.2163 -0.3249
 4022TIP3    H133701   5.062   1.978   7.893  1.5662 -0.2892 -2.1619
 4022TIP3    H233702   5.206   1.943   7.925  0.6770 -0.6329  2.0335
 4023TIP3   OH233703   6.074   4.220   7.549  0.0384  0.1115  0.2015
 4023TIP3    H133704   6.036   4.146   7.502 -1.2239  0.5108  0.5711
 4023TIP3    H233705   6.118   4.271   7.481  0.1856 -0.5204 -0.1861
 4024TIP3   OH233706   2.673   3.222   0.340 -0.1645  0.6910  0.2193
 4024TIP3    H133707   2.657   3.191   0.430 -0.0246  2.1959  0.7980
 4024TIP3    H233708   2.631   3.308   0.337 -1.5358  0.0169 -1.6791
 4025TIP3   OH233709   0.605   5.131   7.274  0.1059 -0.2478  0.2602
 4025TIP3    H133710   0.515   5.101   7.284 -0.4725  1.3650  0.1012
 4025TIP3    H233711   0.655   5.051   7.255 -1.3780 -1.0747 -0.2979
 4026TIP3   OH233712   2.016   0.605   8.106 -0.0632 -0.4601  0.5759
 4026TIP3    H133713   1.991   0.517   8.078  0.5482 -0.6866  0.7244
 4026TIP3    H233714   1.997   0.661   8.030 -1.0125 -0.6137  0.6886
 4027TIP3   OH233715   0.403   5.493   2.148  0.0427  0.4714 -0.7451
 4027TIP3    H133716   0.435   5.530   2.230 -0.5732 -0.7497  0.0833
 4027TIP3    H233717   0.355   5.565   2.106 -0.9950  0.6777  0.7339
 4028TIP3   OH233718   1.449   3.949   8.810 -0.3817  0.0898 -0.4522
 4028TIP3    H133719   1.375   3.900   8.775  0.5673 -0.5432 -1.6505
 4028TIP3    H233720   1.447   4.032   8.762  0.7380 -0.6590 -1.9107
 4029TIP3   OH233721   0.693   1.650   0.847  0.2069 -0.3100  0.4198
 4029TIP3    H133722   0.712   1.612   0.762  1.3693  2.4682 -0.6775
 4029TIP3    H233723   0.605   1.619   0.869 -0.1390 -1.0383 -1.8129
 4030TIP3   OH233724   0.661   6.359   0.111  0.4562  0.1803 -0.0913
 4030TIP3    H133725   0.640   6.430   0.050  1.1165 -0.6703 -1.3539
 4030TIP3    H233726   0.594   6.367   0.180 -0.2939  1.1958 -0.8888
 4031TIP3   OH233727   2.276   3.498   9.109 -0.1457  0.4228 -0.1650
 4031TIP3    H133728   2.257   3.531   9.021 -1.3916  1.7031  0.5381
 4031TIP3    H233729   2.227   3.417   9.115 -1.1859  1.0326 -0.2003
 4032TIP3   OH233730   2.306   0.230   2.420 -0.0612  0.2552 -0.4458
 4032TIP3    H133731   2.351   0.147   2.436 -2.5842 -0.9294  1.1034
 4032TIP3    H233732   2.327   0.285   2.496 -0.6968 -0.0642 -0.0336
 4033TIP3   OH233733   6.314   5.553   8.261 -0.0248 -0.2183  0.1515
 4033TIP3    H133734   6.307   5.582   8.170  0.5353 -1.5833 -0.3612
 4033TIP3    H233735   6.360   5.624   8.305 -1.5837  1.1167 -0.2729
 4034TIP3   OH233736   6.701   4.098   1.157  0.7614 -0.5370  0.0830
 4034TIP3    H133737   6.774   4.134   1.209  2.6544 -1.5370 -1.7208
 4034TIP3    H233738   6.659   4.034   1.215  1.0861  0.3071  1.2828
 4035TIP3   OH233739   4.212   6.008   8.932  0.3129 -0.5739 -0.1876
 4035TIP3    H133740   4.164   6.087   8.908 -1.2947 -1.1027  1.1353
 4035TIP3    H233741   4.303   6.038   8.942 -0.2469  1.1051  0.2714
 4036TIP3   OH233742   3.572   0.787   8.033 -0.4456 -0.1996  0.0675
 4036TIP3    H133743   3.588   0.809   7.941 -2.4037 -2.0134 -0.8011
 4036TIP3    H233744   3.659   0.772   8.070  0.3347 -0.8149 -1.8797
 4037TIP3   OH233745   1.633   2.219   1.224 -0.0479 -0.3012  0.4343
 4037TIP3    H133746   1.655   2.162   1.298 -1.2428 -2.3023 -0.6609
 4037TIP3    H233747   1.700   2.200   1.158 -0.0863  0.0345  0.2989
 4038TIP3   OH233748   5.982   1.928   8.131 -0.4479 -0.0081 -0.1636
 4038TIP3    H133749   6.022   1.844   8.110 -0.3276  0.4984 -2.1332
 4038TIP3    H233750   5.942   1.915   8.217 -0.7265 -2.1898 -0.5690
 4039TIP3   OH233751   2.780   1.605   2.835 -0.4891 -0.0506  0.2866
 4039TIP3    H133752   2.843   1.672   2.862  0.2005 -0.4063 -0.4029
 4039TIP3    H233753   2.809   1.526   2.881 -0.5658 -0.1570  0.1521
 4040TIP3   OH233754   4.578   2.998   9.065  0.1276  0.1414 -0.6342
 4040TIP3    H133755   4.599   3.043   8.983  1.4973 -1.1117 -1.0092
 4040TIP3    H233756   4.660   2.959   9.093 -0.2279  0.8159  1.5585
 4041TIP3   OH233757   5.496   5.406   0.768 -0.2392  0.2205 -0.5619
 4041TIP3    H133758   5.408   5.381   0.795  0.8704 -0.5075  2.8643
 4041TIP3    H233759   5.500   5.501   0.781 -0.5239  0.2579 -0.7511
 4042TIP3   OH233760   0.563   1.595   7.852  0.0369  0.4671 -0.2065
 4042TIP3    H133761   0.492   1.531   7.846  1.0409 -0.7398  0.4788
 4042TIP3    H233762   0.643   1.543   7.856  1.1306  1.8228 -2.4968
 4043TIP3   OH233763   3.148   5.886   0.627  0.0064 -0.5981  0.3346
 4043TIP3    H133764   3.082   5.837   0.678 -0.3258 -2.1725 -1.4915
 4043TIP3    H233765   3.142   5.975   0.660 -0.5632 -1.4167  2.6681
 4044TIP3   OH233766   5.366   1.691   1.721  0.1308  0.0163  0.4377
 4044TIP3    H133767   5.272   1.677   1.731  0.1040  0.4270  0.8183
 4044TIP3    H233768   5.377   1.786   1.728  0.4535  0.0813 -0.6920
 4045TIP3   OH233769   2.182   1.304   2.122  0.5522 -0.2901 -0.2829
 4045TIP3    H133770   2.246   1.266   2.182  1.6262  0.7110 -0.7643
 4045TIP3    H233771   2.108   1.243   2.124  1.5803 -1.5562  0.1513
 4046TIP3   OH233772   4.351   2.566   2.888 -0.3071  0.0937 -0.5490
 4046TIP3    H133773   4.270   2.588   2.934 -0.1859 -0.0702 -0.2495
 4046TIP3    H233774   4.342   2.474   2.866  0.0147 -0.0658 -0.0432
 4047TIP3   OH233775   6.316   3.982   8.179 -0.3873 -0.5462  0.3127
 4047TIP3    H133776   6.338   3.990   8.272  0.3709 -2.3242  0.3296
 4047TIP3    H233777   6.315   3.888   8.162 -2.9440 -0.3838 -0.9502
 4048TIP3   OH233778   3.302   6.699   8.761  0.2706  0.0400  0.2442
 4048TIP3    H133779   3.300   6.792   8.739  0.6223 -0.0986 -0.4202
 4048TIP3    H233780   3.370   6.663   8.704 -1.4763 -1.0688 -1.2495
 4049TIP3   OH233781   6.487   3.927   7.396  0.5839 -0.2467 -0.3540
 4049TIP3    H133782   6.530   3.894   7.475  1.0827  0.0733 -0.4889
 4049TIP3    H233783   6.427   3.857   7.371  0.1593 -0.2048  0.5092
 4050TIP3   OH233784   5.115   0.604   0.924  0.0417  0.5613 -0.0134
 4050TIP3    H133785   5.039   0.636   0.875  0.3646 -0.6972 -1.3842
 4050TIP3    H233786   5.185   0.664   0.901 -0.4378  1.5809  1.0634
 4051TIP3   OH233787   0.276   6.693   1.544  0.2433 -0.0089  0.0792
 4051TIP3    H133788   0.192   6.667   1.581  1.1019  2.1675  4.1347
 4051TIP3    H233789   0.335   6.621   1.564 -0.1273 -0.5868 -0.8264
 4052TIP3   OH233790   0.779   0.717   8.587  0.1781 -0.1604 -0.0745
 4052TIP3    H133791   0.803   0.671   8.668  0.0169  1.1781  0.7635
 4052TIP3    H233792   0.702   0.670   8.555  0.0994 -0.5653  0.6818
 4053TIP3   OH233793   3.119   3.000   7.955  0.2903 -0.0460 -0.2898
 4053TIP3    H133794   3.071   2.961   7.881 -0.5053 -0.6307  0.5167
 4053TIP3    H233795   3.056   3.002   8.026  0.5885  1.9640 -0.0447
 4054TIP3   OH233796   3.334   0.764   1.166 -0.0311  0.0839 -0.5373
 4054TIP3    H133797   3.341   0.697   1.235 -1.4961  0.6854  0.2206
 4054TIP3    H233798   3.425   0.779   1.140  0.4827 -0.8732  0.5649
 4055TIP3   OH233799   3.103   4.273   2.279  0.8348 -0.2520  0.6895
 4055TIP3    H133800   3.035   4.313   2.225  1.1214  0.2347  0.6808
 4055TIP3    H233801   3.056   4.210   2.334  0.5213 -0.6608 -0.0242
 4056TIP3   OH233802   0.507   4.928   2.037  0.4023 -0.5634  0.3328
 4056TIP3    H133803   0.528   4.973   1.955  0.4868 -0.6229  0.3211
 4056TIP3    H233804   0.431   4.873   2.015 -1.3218  1.4406  0.9792
 4057TIP3   OH233805   3.735   6.043   0.197 -0.0377  0.3242 -0.2522
 4057TIP3    H133806   3.726   5.994   0.115 -1.0663  0.6694 -0.3582
 4057TIP3    H233807   3.829   6.040   0.216  0.3518  0.9890 -1.8973
 4058TIP3   OH233808   4.423   6.371   0.747  0.4347  0.7115 -0.4185
 4058TIP3    H133809   4.519   6.375   0.747  0.4782 -0.0558  0.0153
 4058TIP3    H233810   4.398   6.417   0.827  0.4854  0.2093 -0.1100
 4059TIP3   OH233811   4.279   0.664   1.921  0.2760  0.1423 -0.0082
 4059TIP3    H133812   4.334   0.726   1.968  1.9912  0.4757 -2.2904
 4059TIP3    H233813   4.233   0.717   1.856 -1.3354 -0.4334  0.6067
 4060TIP3   OH233814   5.539   5.466   1.189  0.3573  0.0887  0.2777
 4060TIP3    H133815   5.482   5.431   1.258  0.5982  0.2110  0.5439
 4060TIP3    H233816   5.520   5.560   1.187  2.2083  0.5677  2.0065
 4061TIP3   OH233817   0.062   1.091   8.284  0.2900  0.0114 -0.4313
 4061TIP3    H133818   0.019   1.044   8.213  0.0520 -0.2365 -0.1261
 4061TIP3    H233819   0.058   1.183   8.259  0.3658 -0.0897 -0.8205
 4062TIP3   OH233820   6.017   2.593   1.294  0.0328 -0.0629  0.0582
 4062TIP3    H133821   5.956   2.523   1.318 -0.8995  0.4515 -0.7817
 4062TIP3    H233822   5.995   2.666   1.352 -1.7205  0.9195 -1.7641
 4063TIP3   OH233823   4.656   1.402   1.789  0.4742  0.2366 -0.5269
 4063TIP3    H133824   4.582   1.410   1.729  0.0145  0.7278  0.0887
 4063TIP3    H233825   4.732   1.427   1.736  0.3271 -1.0208 -1.3851
 4064TIP3   OH233826   2.902   4.626   2.138 -0.0371 -0.5993 -0.4299
 4064TIP3    H133827   2.846   4.697   2.109  0.5984 -0.5524 -1.6116
 4064TIP3    H233828   2.843   4.552   2.154 -0.7396  0.2623  1.1569
 4065TIP3   OH233829   2.950   6.453   2.356 -0.3921 -0.1010  0.5541
 4065TIP3    H133830   2.900   6.521   2.400  1.1384  1.1110  0.4772
 4065TIP3    H233831   3.011   6.421   2.422 -1.0071 -1.3437  0.5538
 4066TIP3   OH233832   4.547   6.663   8.184 -0.0309  0.6693 -0.0258
 4066TIP3    H133833   4.455   6.636   8.180  0.0166  0.0645  1.9020
 4066TIP3    H233834   4.569   6.688   8.094 -1.7446 -0.2797 -0.7505
 4067TIP3   OH233835   6.642   5.302   1.002 -0.6899 -0.5631  0.0206
 4067TIP3    H133836   6.671   5.283   0.912  0.9984  1.3791  0.0823
 4067TIP3    H233837   6.559   5.350   0.991 -0.2092  0.1572 -0.5539
 4068TIP3   OH233838   5.416   1.273   2.545 -0.2147  0.7025 -0.2551
 4068TIP3    H133839   5.465   1.332   2.603 -0.7694 -1.4544  2.6418
 4068TIP3    H233840   5.324   1.287   2.568 -0.4662 -0.0505 -0.7647
 4069TIP3   OH233841   1.294   0.183   7.556 -0.1523  0.4909  0.4768
 4069TIP3    H133842   1.220   0.172   7.496  0.7721  2.4649 -1.1159
 4069TIP3    H233843   1.368   0.146   7.509  0.2775  0.4704  1.1642
 4070TIP3   OH233844   1.043   4.201   1.696  0.3805 -0.7132  0.0346
 4070TIP3    H133845   0.961   4.152   1.706 -0.0452  0.0894  0.6589
 4070TIP3    H233846   1.104   4.157   1.754  0.2109 -0.9472  0.0387
 4071TIP3   OH233847   3.742   4.168   7.302 -0.3645  0.4154  0.0711
 4071TIP3    H133848   3.748   4.072   7.302  0.0369  0.4290  1.1129
 4071TIP3    H233849   3.650   4.186   7.280 -0.0822 -0.1451 -1.7292
 4072TIP3   OH233850   0.063   3.666   2.346 -0.0750 -0.4502  0.5781
 4072TIP3    H133851   0.045   3.614   2.424 -1.1760 -1.4032 -0.2824
 4072TIP3    H233852   0.049   3.606   2.272 -2.0153  1.1720 -0.4830
 4073TIP3   OH233853   0.384   5.922   1.471  0.1543 -0.6085  0.0572
 4073TIP3    H133854   0.345   6.001   1.434  0.3847 -0.6242 -0.2261
 4073TIP3    H233855   0.316   5.855   1.462  0.2854 -0.6655 -0.5417
 4074TIP3   OH233856   6.300   2.701   1.506 -0.1187 -0.2709 -0.0735
 4074TIP3    H133857   6.222   2.686   1.560  0.2608  0.2716  0.6544
 4074TIP3    H233858   6.270   2.761   1.438 -0.6286 -1.0388 -0.5488
 4075TIP3   OH233859   0.166   4.104   1.604  0.3972  0.8647 -0.6074
 4075TIP3    H133860   0.132   4.192   1.589  1.4597  1.3151 -0.4282
 4075TIP3    H233861   0.157   4.090   1.698 -2.9235 -0.5731 -1.0109
 4076TIP3   OH233862   2.125   2.419   1.809  0.4020  0.5512 -0.1136
 4076TIP3    H133863   2.103   2.445   1.899  1.0426  2.2445 -0.4102
 4076TIP3    H233864   2.215   2.387   1.816  0.0048 -0.5718  0.0514
 4077TIP3   OH233865   4.475   2.483   7.365 -0.0364 -0.3982 -0.0738
 4077TIP3    H133866   4.407   2.533   7.321  0.9842 -0.2737 -1.5567
 4077TIP3    H233867   4.428   2.408   7.404 -0.9924 -0.4584 -1.2853
 4078TIP3   OH233868   2.301   3.656   8.356 -0.5489  0.1429 -0.0085
 4078TIP3    H133869   2.392   3.640   8.333 -1.4114 -2.3890 -2.1581
 4078TIP3    H233870   2.276   3.582   8.412 -2.0047 -0.8428 -1.8584
 4079TIP3   OH233871   2.067   0.033   8.405 -0.1404  0.1194  0.1691
 4079TIP3    H133872   2.100   0.120   8.429  0.2857 -0.2140  0.8395
 4079TIP3    H233873   2.142  -0.025   8.419 -0.7845 -0.5482  0.9830
 4080TIP3   OH233874   2.431   5.636   8.297  0.6649  0.2225 -0.2562
 4080TIP3    H133875   2.522   5.639   8.267  1.2335 -0.9403  1.2056
 4080TIP3    H233876   2.396   5.556   8.257  1.3849 -1.2570  1.8823
 4081TIP3   OH233877   3.656   1.738   7.000 -0.1867 -0.9253 -0.0075
 4081TIP3    H133878   3.646   1.643   7.005 -1.1513 -0.8101  0.5149
 4081TIP3    H233879   3.581   1.773   7.049  0.9461  0.0836  1.0607
 4082TIP3   OH233880   5.420   3.624   1.605  0.0959 -0.4259 -0.2979
 4082TIP3    H133881   5.475   3.651   1.679 -0.0015  1.1579 -0.7747
 4082TIP3    H233882   5.470   3.553   1.564  0.7301 -0.5031  0.5612
 4083TIP3   OH233883   3.895   3.919   0.377  0.0436  0.2757  0.0083
 4083TIP3    H133884   3.848   3.867   0.312  1.1733  0.5427 -1.0521
 4083TIP3    H233885   3.910   3.859   0.450  0.0428 -0.4525 -0.5845
 4084TIP3   OH233886   2.228   5.796   1.264  0.1621  0.8618  0.0629
 4084TIP3    H133887   2.194   5.869   1.316 -0.9012 -0.1662  0.8506
 4084TIP3    H233888   2.194   5.718   1.306 -0.4250 -0.0320 -1.9421
 4085TIP3   OH233889   1.956   4.287   9.185  0.4329  0.0674  0.6181
 4085TIP3    H133890   1.897   4.347   9.231 -1.4401 -0.2680 -1.2480
 4085TIP3    H233891   2.028   4.343   9.154 -0.8506  1.2384 -0.3587
 4086TIP3   OH233892   4.203   3.946   6.940  0.4179 -0.2304 -0.4334
 4086TIP3    H133893   4.111   3.963   6.961  0.2162  1.6361 -2.4741
 4086TIP3    H233894   4.250   4.023   6.972  0.9750 -0.2212 -1.2601
 4087TIP3   OH233895   1.659   6.067   8.575 -0.5255 -0.4152  0.0081
 4087TIP3    H133896   1.623   6.069   8.664  0.1952  1.2393  0.2853
 4087TIP3    H233897   1.634   6.151   8.536 -0.6120 -1.0097 -1.2813
 4088TIP3   OH233898   5.581   5.913   2.298  0.8421 -0.2734  0.5882
 4088TIP3    H133899   5.521   5.856   2.251 -0.1465  0.7764  0.5245
 4088TIP3    H233900   5.640   5.947   2.230 -0.7645  1.4718 -0.0245
 4089TIP3   OH233901   0.764   2.002   2.810 -0.4249  0.4347 -0.1286
 4089TIP3    H133902   0.778   2.092   2.780  2.3437  0.4571  0.9851
 4089TIP3    H233903   0.852   1.965   2.819 -1.4774 -2.4671 -0.6692
 4090TIP3   OH233904   2.989   1.029   7.542  0.4474  0.3504  0.1219
 4090TIP3    H133905   2.902   1.059   7.569  0.3398 -0.6827  0.9927
 4090TIP3    H233906   2.974   0.941   7.508  0.7745  1.1523 -2.2623
 4091TIP3   OH233907   6.503   0.733   2.417 -0.1781  0.1542 -0.2223
 4091TIP3    H133908   6.553   0.796   2.469  0.4312  0.1475 -0.7832
 4091TIP3    H233909   6.564   0.704   2.349  0.0270 -2.0956  0.8455
 4092TIP3   OH233910   6.695   1.292   1.941  0.2963 -0.2165  0.0622
 4092TIP3    H133911   6.650   1.371   1.910  1.6825  1.2411  1.5906
 4092TIP3    H233912   6.629   1.245   1.993  0.6456  2.3485  3.0641
 4093TIP3   OH233913   1.278   0.340   1.869 -0.1359 -0.2774  0.2563
 4093TIP3    H133914   1.216   0.304   1.933  1.0366  0.4514  1.8891
 4093TIP3    H233915   1.305   0.265   1.816 -1.4431 -0.8297  0.3501
 4094TIP3   OH233916   1.517   5.821   7.900  0.3179  0.5853 -0.7751
 4094TIP3    H133917   1.539   5.757   7.968 -1.6290 -1.1470 -1.6279
 4094TIP3    H233918   1.593   5.878   7.895  2.8900 -2.5376 -0.9563
 4095TIP3   OH233919   0.660   5.954   1.278  0.0929  0.3606  0.2784
 4095TIP3    H133920   0.667   5.870   1.233 -2.2683  0.8378 -1.1366
 4095TIP3    H233921   0.596   5.939   1.347 -0.0437  0.8757  0.2681
 4096TIP3   OH233922   0.999   5.216   8.892  0.0489  0.4178 -0.1860
 4096TIP3    H133923   0.922   5.167   8.920  0.5618  0.2069  0.8844
 4096TIP3    H233924   0.973   5.257   8.809 -0.4447 -1.5070 -1.0180
 4097TIP3   OH233925   6.115   2.088   0.503  0.9286 -0.1684 -0.0249
 4097TIP3    H133926   6.189   2.028   0.514  0.1737 -0.8860  1.4159
 4097TIP3    H233927   6.156   2.172   0.481  2.1180 -0.7361 -0.0803
 4098TIP3   OH233928   0.518   3.170   0.901 -0.1488  0.1218  0.0260
 4098TIP3    H133929   0.541   3.194   0.991  2.3770 -1.7156 -0.0038
 4098TIP3    H233930   0.592   3.117   0.872 -2.3712 -2.0582 -2.0393
 4099TIP3   OH233931   3.835   2.515   7.594 -0.0195 -0.3358 -0.0177
 4099TIP3    H133932   3.816   2.430   7.636  0.2049  0.2880  1.4182
 4099TIP3    H233933   3.750   2.559   7.592 -0.0811 -0.4695 -0.4977
 4100TIP3   OH233934   6.518   2.204   1.937 -0.3368 -0.1223 -0.5542
 4100TIP3    H133935   6.532   2.294   1.968  1.5104 -0.2661 -0.8118
 4100TIP3    H233936   6.439   2.175   1.981 -0.8462  1.5561 -0.2963
 4101TIP3   OH233937   0.137   2.180   1.616 -0.1482 -0.0078  0.1803
 4101TIP3    H133938   0.066   2.172   1.680 -0.1567 -1.6589  0.0067
 4101TIP3    H233939   0.184   2.097   1.622  0.9360  0.5215 -0.6950
 4102TIP3   OH233940   4.283   4.741   1.142 -0.7981  0.5304 -0.0553
 4102TIP3    H133941   4.241   4.662   1.110 -0.5390  0.7838 -1.0413
 4102TIP3    H233942   4.229   4.813   1.108  0.6491  0.8789 -1.7333
 4103TIP3   OH233943   3.024   5.602   0.384  0.3283  0.2089  0.1712
 4103TIP3    H133944   2.982   5.687   0.392 -1.7315 -0.5026 -1.8320
 4103TIP3    H233945   2.970   5.543   0.437  1.6365  0.0801  1.4135
 4104TIP3   OH233946   3.404   2.502   0.521  0.3494  0.2688  0.2423
 4104TIP3    H133947   3.328   2.556   0.543  0.1515 -0.4271  1.3638
 4104TIP3    H233948   3.478   2.546   0.565  0.4468  0.4634 -0.1159
 4105TIP3   OH233949   3.292   2.293   8.647 -0.2278 -0.0370  0.1165
 4105TIP3    H133950   3.330   2.272   8.562 -1.4649 -0.7406 -0.3060
 4105TIP3    H233951   3.219   2.231   8.656 -0.0479 -0.0736  1.7561
 4106TIP3   OH233952   2.628   6.371   1.796  0.6254 -0.2026  0.8049
 4106TIP3    H133953   2.666   6.459   1.803  2.2056 -0.5622 -1.8634
 4106TIP3    H233954   2.694   6.313   1.834  0.7398 -0.4424  0.2487
 4107TIP3   OH233955   0.963   2.536   0.698 -0.3015  0.5377 -0.2742
 4107TIP3    H133956   0.989   2.625   0.721  0.2130  0.3058  0.0540
 4107TIP3    H233957   0.978   2.485   0.778  1.8701 -0.3629 -1.1937
 4108TIP3   OH233958   5.121   4.598   9.005 -0.1399 -0.1288  0.2631
 4108TIP3    H133959   5.124   4.671   9.067  1.6778 -0.0212  0.1190
 4108TIP3    H233960   5.174   4.529   9.046 -0.2447 -0.6522 -0.4581
 4109TIP3   OH233961   3.592   6.664   0.707  0.1059  0.2189 -0.7133
 4109TIP3    H133962   3.618   6.717   0.782  0.6236  1.2660 -1.5986
 4109TIP3    H233963   3.592   6.574   0.740  1.2038  0.5584  0.3083
 4110TIP3   OH233964   0.943   4.866   9.030 -0.2133  0.6108 -0.0470
 4110TIP3    H133965   1.007   4.897   8.966  0.5845 -1.3849 -0.2580
 4110TIP3    H233966   0.858   4.886   8.991  0.2324 -1.3912 -2.2204
 4111TIP3   OH233967   1.335   4.725   9.072 -0.3161  0.0037  0.7087
 4111TIP3    H133968   1.403   4.735   9.138 -1.1683  0.7937  1.4961
 4111TIP3    H233969   1.256   4.704   9.122 -0.2056 -3.5553 -0.3227
 4112TIP3   OH233970   0.690   3.103   0.486  0.2085 -0.2396  0.0415
 4112TIP3    H133971   0.729   3.191   0.484 -0.7812  0.2820  1.8688
 4112TIP3    H233972   0.627   3.103   0.413 -0.5164  0.9441  0.6412
 4113TIP3   OH233973   2.677   5.696   0.479  0.3703 -0.7890 -0.5041
 4113TIP3    H133974   2.590   5.678   0.443 -0.1392 -1.4446  0.9761
 4113TIP3    H233975   2.685   5.637   0.554  1.4031  0.4496  0.4234
 4114TIP3   OH233976   4.199   2.436   7.798 -0.0613  0.0026  1.0891
 4114TIP3    H133977   4.170   2.476   7.880 -0.6029  2.0454 -0.0175
 4114TIP3    H233978   4.129   2.374   7.776 -0.0443 -0.3649  2.0163
 4115TIP3   OH233979   5.244   4.770   1.730  0.0976 -0.0962 -0.3135
 4115TIP3    H133980   5.214   4.847   1.777 -1.0592 -0.7948  0.1413
 4115TIP3    H233981   5.180   4.702   1.752  2.9506 -2.2597  2.2587
 4116TIP3   OH233982   4.923   3.401   0.913 -0.2822 -0.1311  0.2773
 4116TIP3    H133983   4.914   3.329   0.975 -1.0835  0.0012  0.3261
 4116TIP3    H233984   5.012   3.392   0.879  0.1171 -0.2960  1.3242
 4117TIP3   OH233985   4.218   4.615   7.550 -0.3647 -0.6239  0.2360
 4117TIP3    H133986   4.259   4.693   7.588 -0.8939  0.3932 -1.2079
 4117TIP3    H233987   4.200   4.558   7.625 -0.0761  0.6818  1.3259
 4118TIP3   OH233988   4.235   4.990   2.134  0.4027  0.0425  0.0445
 4118TIP3    H133989   4.253   4.978   2.041  0.1526  1.0708 -0.1431
 4118TIP3    H233990   4.320   4.979   2.177  0.5811 -0.0827 -0.3399
 4119TIP3   OH233991   2.750   6.359   2.163 -0.3078  0.0064  0.0539
 4119TIP3    H133992   2.839   6.383   2.140 -0.1775  0.6290  1.1590
 4119TIP3    H233993   2.695   6.423   2.118 -0.1108  0.5528  0.5754
 4120TIP3   OH233994   1.478   1.797   2.106  0.2814  0.2679  0.3596
 4120TIP3    H133995   1.477   1.799   2.011  1.1059 -0.2728  0.3320
 4120TIP3    H233996   1.548   1.736   2.128 -0.0806  0.1761  1.3101
 4121TIP3   OH233997   2.417   3.627   2.451  0.5286 -0.2353  0.0895
 4121TIP3    H133998   2.361   3.556   2.483  1.4354 -0.5816  0.9832
 4121TIP3    H233999   2.410   3.623   2.356 -1.1028 -0.1359  0.1863
 4122TIP3   OH234000   3.789   2.954   9.167  0.1842  0.1045  0.5173
 4122TIP3    H134001   3.852   2.999   9.224 -1.3748  2.2637  0.6798
 4122TIP3    H234002   3.735   2.903   9.227  0.5738 -0.2273  0.5903
 4123TIP3   OH234003   2.135   0.332   0.298  0.0050 -0.0372  0.1955
 4123TIP3    H134004   2.057   0.334   0.243  1.0499  1.3916 -1.3054
 4123TIP3    H234005   2.102   0.355   0.386 -1.1693  1.4538 -0.5714
 4124TIP3   OH234006   1.214   2.596   1.956 -0.3484  0.0361 -0.2275
 4124TIP3    H134007   1.198   2.687   1.979  0.1598 -0.1943  1.1790
 4124TIP3    H234008   1.296   2.574   2.002 -0.4282 -1.1032 -0.5900
 4125TIP3   OH234009   6.065   3.696   8.300 -0.5631  0.4097 -0.4311
 4125TIP3    H134010   5.992   3.743   8.260 -2.2736 -0.1453  1.8777
 4125TIP3    H234011   6.025   3.636   8.362  1.8291 -0.6194  0.2550
 4126TIP3   OH234012   1.332   0.120   1.723 -0.4592 -0.0033  0.2326
 4126TIP3    H134013   1.316   0.038   1.770  0.8882 -0.3587  0.1096
 4126TIP3    H234014   1.410   0.103   1.671  0.6648  1.7765  1.2621
 4127TIP3   OH234015   4.976   4.043   6.812  0.0667  0.2447  0.0483
 4127TIP3    H134016   5.059   4.073   6.776 -0.2608 -1.5272 -2.4319
 4127TIP3    H234017   4.998   3.962   6.859 -0.4903 -2.0110 -3.2352
 4128TIP3   OH234018   1.584   6.412   2.070 -0.1487  0.0540 -0.1054
 4128TIP3    H134019   1.627   6.432   1.987  0.7578  0.2701  0.4016
 4128TIP3    H234020   1.593   6.493   2.121  1.6966 -0.9005  1.1924
 4129TIP3   OH234021   1.012   0.737   1.631  0.9144  0.1516 -0.4075
 4129TIP3    H134022   1.068   0.667   1.664 -0.4793 -0.5162  0.6809
 4129TIP3    H234023   0.948   0.692   1.576 -1.7635 -0.0161  2.5110
 4130TIP3   OH234024   4.958   1.172   0.978  0.6742  0.2688 -0.3652
 4130TIP3    H134025   4.904   1.160   1.056  0.2528  1.3498 -0.4756
 4130TIP3    H234026   4.898   1.208   0.912  1.1105 -0.2736 -1.0782
 4131TIP3   OH234027   4.015   2.670   7.720 -0.0785  0.1564 -0.2043
 4131TIP3    H134028   3.936   2.627   7.688 -0.1681 -0.7131  1.1148
 4131TIP3    H234029   4.086   2.630   7.668 -0.2616 -0.9367  0.3471
 4132TIP3   OH234030   0.597   4.834   8.643 -0.6581  0.0366  0.3671
 4132TIP3    H134031   0.530   4.847   8.711  0.1396 -0.1239  1.2016
 4132TIP3    H234032   0.548   4.833   8.561 -1.7741 -0.7991  1.0200
 4133TIP3   OH234033   1.101   4.589   2.281  0.3341 -0.2255  0.6868
 4133TIP3    H134034   1.133   4.610   2.194  2.5743  0.3961  1.5954
 4133TIP3    H234035   1.081   4.496   2.278  2.8602 -0.8149  0.1686
 4134TIP3   OH234036   4.363   0.398   7.708  0.1315 -0.1941  0.4211
 4134TIP3    H134037   4.370   0.406   7.803  0.3161  1.4002  0.3059
 4134TIP3    H234038   4.452   0.381   7.678  0.3243  0.6702  0.4555
 4135TIP3   OH234039   2.547   1.549   8.238 -0.3124  0.3942  0.3271
 4135TIP3    H134040   2.635   1.580   8.261 -0.0276 -0.4980  0.4682
 4135TIP3    H234041   2.531   1.585   8.151 -0.7339  2.4284  1.1862
 4136TIP3   OH234042   4.324   1.079   0.406  0.7135  0.0965 -0.0626
 4136TIP3    H134043   4.358   1.140   0.340  0.0498 -0.1636 -0.6569
 4136TIP3    H234044   4.240   1.117   0.433  0.2914 -0.5538 -0.4477
 4137TIP3   OH234045   0.272   1.794   0.967  0.0816 -0.3355 -0.1801
 4137TIP3    H134046   0.317   1.709   0.966  2.2585  0.7692 -1.2594
 4137TIP3    H234047   0.224   1.794   1.050  0.7451 -2.2556  0.2502
 4138TIP3   OH234048   6.429   5.367   3.182 -0.4652 -0.0541 -0.5738
 4138TIP3    H134049   6.482   5.434   3.139 -0.0503  0.4077  0.6308
 4138TIP3    H234050   6.355   5.415   3.219 -0.8643 -0.4630 -0.8192
 4139TIP3   OH234051   2.492   0.163   1.725  0.0718  0.1963 -0.0058
 4139TIP3    H134052   2.512   0.142   1.634 -1.0984  0.5133 -0.3563
 4139TIP3    H234053   2.411   0.214   1.721  0.7053  1.3446  1.1191
 4140TIP3   OH234054   5.501   2.342   3.396 -0.4262 -0.1329  0.0996
 4140TIP3    H134055   5.554   2.333   3.318 -1.0360 -0.9253 -0.2459
 4140TIP3    H234056   5.432   2.404   3.372 -0.0549  0.3852  0.3374
 4141TIP3   OH234057   5.978   4.261   1.462  0.2164  0.0791  0.3902
 4141TIP3    H134058   5.883   4.272   1.470 -0.2967 -1.9790 -1.5675
 4141TIP3    H234059   6.010   4.257   1.552 -1.7323 -0.4127  1.1078
 4142TIP3   OH234060   2.312   4.936   8.963  0.4720  0.1584 -0.2366
 4142TIP3    H134061   2.274   4.933   9.051  0.6977  1.3037 -0.0815
 4142TIP3    H234062   2.358   5.020   8.960  1.4839 -0.4084 -1.0410
 4143TIP3   OH234063   0.556   5.063   9.124  0.0541 -0.0637  0.5451
 4143TIP3    H134064   0.523   5.151   9.104  0.0618 -0.4733 -1.4478
 4143TIP3    H234065   0.483   5.005   9.104  0.6167 -0.6479  0.1878
 4144TIP3   OH234066   5.205   2.361   8.134  0.5009 -0.8841  0.2242
 4144TIP3    H134067   5.215   2.355   8.039  0.0683  0.3938  0.0836
 4144TIP3    H234068   5.280   2.413   8.163 -0.3698  0.3721  0.3256
 4145TIP3   OH234069   1.291   2.545   7.698 -0.1539  0.9712 -0.1355
 4145TIP3    H134070   1.277   2.513   7.787  0.2838  1.6779  0.1976
 4145TIP3    H234071   1.385   2.565   7.695 -0.1031  0.6499 -0.8638
 4146TIP3   OH234072   5.751   0.504   9.006  0.0036 -0.4397 -0.0465
 4146TIP3    H134073   5.743   0.455   8.924 -1.7197 -0.9620  0.3790
 4146TIP3    H234074   5.672   0.481   9.055  0.2740  1.0113  1.1439
 4147TIP3   OH234075   6.319   0.486   2.395  0.2759 -0.6727 -0.1173
 4147TIP3    H134076   6.377   0.563   2.402  0.0591 -0.3939 -1.2603
 4147TIP3    H234077   6.337   0.450   2.309  0.0465 -1.6613  0.2353
 4148TIP3   OH234078   5.904   2.539   2.679 -0.0780  0.0653 -0.2170
 4148TIP3    H134079   5.900   2.611   2.741 -0.3503 -1.4988  1.6938
 4148TIP3    H234080   5.969   2.479   2.716  0.4281 -0.5210 -1.9398
 4149TIP3   OH234081   5.648   6.278   1.557 -0.4303  0.5595 -0.1869
 4149TIP3    H134082   5.648   6.204   1.496  0.3527  2.0159 -2.0552
 4149TIP3    H234083   5.723   6.262   1.614 -1.4158 -1.0397  0.7522
 4150TIP3   OH234084   3.472   6.340   0.229  0.1193  0.4254 -0.9230
 4150TIP3    H134085   3.518   6.257   0.214 -0.1367  0.0959  0.0343
 4150TIP3    H234086   3.506   6.372   0.313 -1.3716  0.1609 -0.1787
 4151TIP3   OH234087   0.007   3.431   8.555  0.2688  0.1918  0.1545
 4151TIP3    H134088   0.055   3.355   8.588  0.6229  0.7300  0.9201
 4151TIP3    H234089  -0.053   3.396   8.489  0.2019 -0.7851  0.7279
 4152TIP3   OH234090   3.617   1.903   2.331  0.1769 -0.3777  0.1089
 4152TIP3    H134091   3.678   1.832   2.311  0.5186 -0.0516 -0.0023
 4152TIP3    H234092   3.580   1.927   2.247 -0.0003 -0.4775  0.1577
 4153TIP3   OH234093   3.404   3.054   0.336  0.4011  0.2770 -0.2298
 4153TIP3    H134094   3.367   2.972   0.304  1.2851 -0.0020 -0.5558
 4153TIP3    H234095   3.379   3.057   0.429 -1.5018  0.7117 -0.7029
 4154TIP3   OH234096   0.699   1.936   0.849 -0.3834 -0.5378  0.1032
 4154TIP3    H134097   0.617   1.955   0.895  0.1157 -0.8669  1.1506
 4154TIP3    H234098   0.689   1.845   0.821 -0.1422 -0.7686  0.7518
 4155TIP3   OH234099   6.672   4.875   8.053  0.3549  0.3579 -0.2300
 4155TIP3    H134100   6.670   4.944   7.987  1.0213  0.3074 -0.3098
 4155TIP3    H234101   6.763   4.874   8.083  0.1395  0.1230  0.4167
 4156TIP3   OH234102   2.416   0.014   3.047  0.2902  0.3500 -0.1339
 4156TIP3    H134103   2.456  -0.048   2.985 -1.4266 -0.3064 -0.6265
 4156TIP3    H234104   2.491   0.054   3.092  1.4693 -1.5552 -0.3013
 4157TIP3   OH234105   1.149   2.031   0.979  0.0636 -0.2984  0.7570
 4157TIP3    H134106   1.096   2.050   1.056 -0.1028  0.0074  0.5665
 4157TIP3    H234107   1.192   2.113   0.958  0.4003 -0.4764  0.7457
 4158TIP3   OH234108   0.285   6.413   1.398 -0.3538  0.2960  0.1568
 4158TIP3    H134109   0.285   6.490   1.341 -0.3064 -1.0878 -1.8325
 4158TIP3    H234110   0.353   6.432   1.463 -1.8122  2.8019  1.0987
 4159TIP3   OH234111   0.679   1.960   9.086  0.1577 -0.0159  0.0305
 4159TIP3    H134112   0.608   1.986   9.146 -0.2607  0.0717 -0.4989
 4159TIP3    H234113   0.675   1.865   9.084  0.5691 -0.0538  0.6118
 4160TIP3   OH234114   5.126   0.723   8.191 -0.4194 -0.6930 -0.1619
 4160TIP3    H134115   5.222   0.728   8.191 -0.4407 -0.1337 -1.0790
 4160TIP3    H234116   5.102   0.720   8.099 -1.3933  1.7469 -0.0608
 4161TIP3   OH234117   1.427   2.136   0.241  0.0151 -0.1678 -0.2163
 4161TIP3    H134118   1.395   2.086   0.316  0.1917 -1.3198 -0.8828
 4161TIP3    H234119   1.349   2.159   0.192 -0.1099  0.6709  0.3428
 4162TIP3   OH234120   5.246   6.451   2.810 -0.3621  0.5070  0.1040
 4162TIP3    H134121   5.270   6.420   2.723 -2.3167  1.9525 -1.0312
 4162TIP3    H234122   5.211   6.539   2.796  3.0825  2.5864  2.9076
 4163TIP3   OH234123   3.221   4.141   1.838  0.2323 -0.0638  0.0278
 4163TIP3    H134124   3.291   4.168   1.779  0.3649  0.4411  0.4053
 4163TIP3    H234125   3.264   4.125   1.922  0.0386 -0.7366  0.0064
 4164TIP3   OH234126   3.922   3.746   1.061 -0.3235  0.5236 -0.2387
 4164TIP3    H134127   4.011   3.781   1.069  0.5695 -1.8441  1.4033
 4164TIP3    H234128   3.933   3.663   1.015 -1.9388  0.8906 -1.3712
 4165TIP3   OH234129   3.192   2.244   2.768 -0.5217 -0.0111 -0.4742
 4165TIP3    H134130   3.107   2.265   2.729  0.3375 -2.3365 -4.1011
 4165TIP3    H234131   3.186   2.151   2.789  0.5135  0.2616  1.1698
 4166TIP3   OH234132   1.770   5.605   1.694  0.0926 -0.1359 -0.1004
 4166TIP3    H134133   1.708   5.666   1.654  0.4454  0.8656  0.8274
 4166TIP3    H234134   1.831   5.583   1.624 -0.3669  0.1455 -0.5963
 4167TIP3   OH234135   5.799   4.474   8.656 -0.0441  0.3369 -0.1237
 4167TIP3    H134136   5.822   4.430   8.738  1.6385  0.7882 -0.3109
 4167TIP3    H234137   5.714   4.515   8.674 -1.0004 -1.7739  0.4984
 4168TIP3   OH234138   3.618   1.545   2.774  0.4696 -0.2890 -0.7825
 4168TIP3    H134139   3.575   1.460   2.773  0.4584 -0.3175  0.6282
 4168TIP3    H234140   3.614   1.573   2.865 -0.8836  1.9079 -1.4428
 4169TIP3   OH234141   5.618   1.837   2.115 -0.3661  0.2095  0.3297
 4169TIP3    H134142   5.630   1.918   2.065 -1.4795 -0.8756 -1.8212
 4169TIP3    H234143   5.583   1.866   2.200 -0.6292  1.9747 -0.3359
 4170TIP3   OH234144   1.770   3.107   1.015  0.0737 -0.2300  0.4635
 4170TIP3    H134145   1.728   3.186   1.049  2.6220  1.3951  0.1895
 4170TIP3    H234146   1.741   3.037   1.073 -2.4306  0.8471  0.6101
 4171TIP3   OH234147   4.071   5.696   7.386 -0.7089 -0.1541  0.3122
 4171TIP3    H134148   4.063   5.611   7.342 -0.0542  0.7056 -1.5764
 4171TIP3    H234149   4.053   5.760   7.317  2.8249  1.3565  0.5772
 4172TIP3   OH234150   1.675   2.288   1.685  0.3782 -0.1621  0.0470
 4172TIP3    H134151   1.766   2.313   1.671  0.1277 -0.3874 -2.3957
 4172TIP3    H234152   1.625   2.368   1.667  0.0803  0.6981  3.7289
 4173TIP3   OH234153   2.623   1.261   0.642  0.4693 -0.0689  0.2621
 4173TIP3    H134154   2.615   1.226   0.731 -1.6426  1.2660  0.6705
 4173TIP3    H234155   2.663   1.190   0.592 -0.4520 -1.7394  1.7811
 4174TIP3   OH234156   5.617   6.426   2.058  0.1244  0.3570  0.5154
 4174TIP3    H134157   5.643   6.443   2.149 -1.0537  2.0540  0.5678
 4174TIP3    H234158   5.700   6.424   2.010  0.5833  3.2816  1.0360
 4175TIP3   OH234159   4.862   6.632   9.170  0.4498 -0.2312 -0.1496
 4175TIP3    H134160   4.840   6.701   9.232  0.0992 -0.3554 -0.1321
 4175TIP3    H234161   4.792   6.635   9.104  0.5787 -0.3892 -0.2956
 4176TIP3   OH234162   1.206   3.751   0.685 -0.1242  0.5314  0.1359
 4176TIP3    H134163   1.159   3.830   0.712 -0.9701  0.6053 -1.4564
 4176TIP3    H234164   1.290   3.784   0.651  0.0446  0.6226  0.6329
 4177TIP3   OH234165   4.511   0.632   8.812  0.1424 -0.1468 -0.2314
 4177TIP3    H134166   4.573   0.663   8.877  1.0219 -0.3236 -0.9770
 4177TIP3    H234167   4.431   0.683   8.829  0.3933 -0.0971  0.8899
 4178TIP3   OH234168   5.517   5.063   0.643  0.6361  0.9570 -0.2943
 4178TIP3    H134169   5.474   5.142   0.609 -1.0941 -0.1911 -0.9051
 4178TIP3    H234170   5.488   5.058   0.734  0.8751  1.0964 -0.2087
 4179TIP3   OH234171   1.470   0.089   1.460  0.5633 -0.1882  0.2488
 4179TIP3    H134172   1.533   0.062   1.394 -0.2170 -3.0545  0.5431
 4179TIP3    H234173   1.397   0.029   1.450 -1.0508  1.4257  1.5701
 4180TIP3   OH234174   4.921   0.919   8.294  0.2641  0.6949 -0.8348
 4180TIP3    H134175   4.846   0.911   8.235 -0.0071  1.5719 -0.6301
 4180TIP3    H234176   4.992   0.873   8.249 -0.2212  0.4302 -1.3437
 4181TIP3   OH234177   2.309   1.900   0.852  0.2556 -0.2431  0.4150
 4181TIP3    H134178   2.223   1.863   0.868  0.0254 -0.2863 -0.8313
 4181TIP3    H234179   2.367   1.824   0.844  0.3295 -0.2290  0.8071
 4182TIP3   OH234180   1.245   3.852   0.270  0.4134 -0.6670  0.0172
 4182TIP3    H134181   1.266   3.935   0.227 -0.1954 -0.3235  0.3598
 4182TIP3    H234182   1.262   3.785   0.203 -1.1074 -0.0984 -0.9983
 4183TIP3   OH234183   0.483   5.804   9.019  0.0673  0.7296 -0.0201
 4183TIP3    H134184   0.474   5.739   8.950 -1.9591 -0.4857  1.3086
 4183TIP3    H234185   0.395   5.839   9.032  0.5176  1.4319  1.4513
 4184TIP3   OH234186   0.943   3.468   8.315  0.0898  0.1355  0.5107
 4184TIP3    H134187   0.963   3.374   8.311 -0.3235  0.0938 -1.2406
 4184TIP3    H234188   0.961   3.492   8.406  0.1927 -1.6387  0.9990
 4185TIP3   OH234189   4.752   2.729   1.068  0.0657  0.2207  0.2919
 4185TIP3    H134190   4.819   2.670   1.102 -1.6808 -1.7078  0.6063
 4185TIP3    H234191   4.709   2.679   0.999 -0.7544  1.5844 -0.2340
 4186TIP3   OH234192   3.839   4.783   2.861  0.2019  0.3502  0.5514
 4186TIP3    H134193   3.751   4.745   2.855 -0.2266  1.4922 -1.3933
 4186TIP3    H234194   3.828   4.856   2.923 -0.6027  1.2953 -0.6361
 4187TIP3   OH234195   2.672   0.405   8.672 -0.5302  0.4988  0.2801
 4187TIP3    H134196   2.734   0.333   8.681  1.6132  2.4358  2.3080
 4187TIP3    H234197   2.628   0.388   8.588  0.8473 -2.3437 -0.0033
 4188TIP3   OH234198   5.374   1.983   0.932 -0.2616  0.0070 -0.3203
 4188TIP3    H134199   5.411   1.919   0.992 -1.3504 -0.7783 -0.4613
 4188TIP3    H234200   5.282   1.990   0.957 -0.7868 -0.4563 -1.9571
 4189TIP3   OH234201   4.464   1.050   0.042  0.3441 -0.1298  0.9707
 4189TIP3    H134202   4.408   0.974   0.025  2.7000 -1.6189 -0.8887
 4189TIP3    H234203   4.511   1.027   0.122 -0.8299  0.6431  1.9233
 4190TIP3   OH234204   0.256   6.055   8.685 -0.0058 -0.4711 -0.5070
 4190TIP3    H134205   0.258   6.095   8.772 -1.8534 -0.7145 -0.3159
 4190TIP3    H234206   0.319   5.984   8.690 -1.1823 -1.4676  1.1648
 4191TIP3   OH234207   0.380   1.986   1.636 -0.3948 -0.3407  0.3882
 4191TIP3    H134208   0.465   1.954   1.666  1.3255  1.8242 -1.7731
 4191TIP3    H234209   0.365   1.940   1.553 -0.0518  1.0961 -0.4995
 4192TIP3   OH234210   2.216   5.316   1.416 -0.4621  0.2924  0.4935
 4192TIP3    H134211   2.189   5.337   1.505  0.0126 -2.5631  1.4150
 4192TIP3    H234212   2.164   5.239   1.393 -0.3263  0.7696 -1.5848
 4193TIP3   OH234213   5.453   0.289   2.216 -0.1040 -0.5509  0.1285
 4193TIP3    H134214   5.470   0.357   2.151 -0.6989 -1.3653 -0.9235
 4193TIP3    H234215   5.373   0.318   2.260 -0.6083 -0.7650 -0.6208
 4194TIP3   OH234216   6.371   2.777   2.382 -0.4146 -0.0360 -0.1862
 4194TIP3    H134217   6.441   2.718   2.353 -0.4935 -1.0967  1.6403
 4194TIP3    H234218   6.311   2.781   2.307  2.4526  2.4822 -2.6085
 4195TIP3   OH234219   3.043   1.290   0.034 -0.1128 -0.1396 -0.4243
 4195TIP3    H134220   3.061   1.264  -0.056 -1.5606  1.1093 -1.1267
 4195TIP3    H234221   3.096   1.369   0.048  0.6785 -0.7481  0.0932
 4196TIP3   OH234222   0.774   0.264   7.735 -0.2948  0.2442 -0.1927
 4196TIP3    H134223   0.824   0.184   7.748 -0.7413 -0.4393 -2.2767
 4196TIP3    H234224   0.819   0.310   7.664 -1.2638  0.7545 -0.5075
 4197TIP3   OH234225   0.699   2.134   0.639 -0.0098 -0.1150 -0.0964
 4197TIP3    H134226   0.653   2.209   0.677  0.0491  0.4177 -1.0305
 4197TIP3    H234227   0.704   2.070   0.710 -0.7273  0.4680  0.4996
 4198TIP3   OH234228   6.158   1.776   0.565 -0.1160  0.0382  0.3001
 4198TIP3    H134229   6.065   1.774   0.542  0.1119  0.0785 -0.6774
 4198TIP3    H234230   6.159   1.766   0.660 -1.1404  0.5672  0.3834
 4199TIP3   OH234231   1.000   0.587   7.427 -0.2617 -0.0115 -0.4643
 4199TIP3    H134232   1.092   0.568   7.406 -0.6914 -0.8645 -1.7179
 4199TIP3    H234233   0.987   0.677   7.398  0.3949  0.4239  0.5390
 4200TIP3   OH234234   5.462   2.977   2.458  0.2274 -0.3879  0.2022
 4200TIP3    H134235   5.498   3.045   2.401  0.7960 -0.9585 -0.1352
 4200TIP3    H234236   5.527   2.966   2.527  0.4213 -0.9977 -0.0706
 4201TIP3   OH234237   4.589   4.441   9.114  0.1318 -0.3867  0.4661
 4201TIP3    H134238   4.496   4.451   9.137  0.4905  2.8023  0.9680
 4201TIP3    H234239   4.634   4.441   9.198  0.7559  0.7119  0.1385
 4202TIP3   OH234240   1.396   5.771   0.964 -0.0121 -0.3210  0.7859
 4202TIP3    H134241   1.353   5.735   0.886  0.0570 -0.5440  0.8484
 4202TIP3    H234242   1.357   5.721   1.036 -0.5091  0.2857  0.9497
 4203TIP3   OH234243   2.219   3.709   1.881  0.0065 -0.6072  0.4671
 4203TIP3    H134244   2.289   3.720   1.944  1.9601 -0.4109 -1.6099
 4203TIP3    H234245   2.143   3.685   1.934  1.2693  0.4526  2.9345
 4204TIP3   OH234246   1.611   1.530   1.218 -0.2809 -0.3763 -0.3073
 4204TIP3    H134247   1.573   1.445   1.239  1.0640 -0.7073  0.9007
 4204TIP3    H234248   1.628   1.571   1.303 -4.7989  3.0327 -0.6452
 4205TIP3   OH234249   1.386   4.575   8.363  0.2713  0.2801  0.1075
 4205TIP3    H134250   1.365   4.491   8.404  0.2934 -0.6583 -1.7401
 4205TIP3    H234251   1.302   4.622   8.361 -0.0530 -0.3116 -0.2252
 4206TIP3   OH234252   4.165   2.978   2.383  0.4824 -0.5631  0.0508
 4206TIP3    H134253   4.180   2.972   2.477  0.1896 -1.9071  0.0253
 4206TIP3    H234254   4.123   2.896   2.359  0.8557 -0.3900 -1.3189
 4207TIP3   OH234255   5.039   2.622   8.596 -0.2695  0.1049  0.1122
 4207TIP3    H134256   5.134   2.614   8.585 -0.0675 -2.6886  2.5734
 4207TIP3    H234257   5.004   2.605   8.508  1.4844 -1.8822 -0.3199
 4208TIP3   OH234258   2.773   1.104   2.350  0.0038  0.3821  0.1209
 4208TIP3    H134259   2.782   1.027   2.294 -3.6928 -0.7030  0.7630
 4208TIP3    H234260   2.731   1.170   2.294 -3.0832 -0.4854  1.2099
 4209TIP3   OH234261   0.395   1.904   1.331  0.4543  0.2162 -0.0492
 4209TIP3    H134262   0.405   1.977   1.270  0.1354  1.0033  0.8302
 4209TIP3    H234263   0.459   1.839   1.301  2.7204  1.9649  0.8157
 4210TIP3   OH234264   6.273   0.912   9.110 -0.3427 -0.0522  0.1033
 4210TIP3    H134265   6.361   0.950   9.100 -0.6524  0.7683  0.4167
 4210TIP3    H234266   6.219   0.985   9.140 -1.0376 -0.6653  0.3594
 4211TIP3   OH234267   1.994   2.507   0.481  0.0537  0.6572  0.4963
 4211TIP3    H134268   1.976   2.413   0.491  0.1403  0.6213  0.3323
 4211TIP3    H234269   2.088   2.511   0.466  0.4426  0.9586  2.7607
 4212TIP3   OH234270   4.670   2.257   1.866  0.1503 -0.7744  0.3484
 4212TIP3    H134271   4.636   2.178   1.824 -1.1449  0.1860 -0.5023
 4212TIP3    H234272   4.593   2.295   1.910  0.5932  0.3575  0.1662
 4213TIP3   OH234273   4.466   4.936   2.552  0.1275 -0.1590 -0.4959
 4213TIP3    H134274   4.442   5.002   2.488 -0.5508  0.7788  0.6777
 4213TIP3    H234275   4.384   4.913   2.595  0.8364  0.9062  1.5560
 4214TIP3   OH234276   6.659   1.814   0.333 -0.9044 -0.0890 -0.7037
 4214TIP3    H134277   6.575   1.857   0.346 -1.3220 -0.8434 -0.8276
 4214TIP3    H234278   6.724   1.881   0.352 -1.5283  0.9038 -1.9650
 4215TIP3   OH234279   4.157   6.188   1.460 -0.0050  0.6236  0.2042
 4215TIP3    H134280   4.072   6.146   1.443  0.7781  0.1993 -3.4487
 4215TIP3    H234281   4.221   6.118   1.448  1.0633  1.7932 -1.2699
 4216TIP3   OH234282   6.466   1.373   8.806 -0.0428  0.0213 -0.1809
 4216TIP3    H134283   6.500   1.389   8.895  0.7051  0.2329 -0.4966
 4216TIP3    H234284   6.430   1.458   8.779  0.0585  0.0525 -0.2185
 4217TIP3   OH234285   3.105   2.372   0.818 -0.1819  0.0178 -0.1830
 4217TIP3    H134286   3.015   2.365   0.850  0.1532 -1.0265  0.5884
 4217TIP3    H234287   3.158   2.346   0.893  0.7534  0.4241 -0.7008
 4218TIP3   OH234288   2.271   0.756   1.504  0.1249 -0.2846  0.3407
 4218TIP3    H134289   2.274   0.743   1.409 -0.3060  3.2169 -0.2733
 4218TIP3    H234290   2.318   0.838   1.519 -3.6024  1.7306  2.5087
 4219TIP3   OH234291   3.622   6.139   1.382 -0.2140 -0.4582 -0.0665
 4219TIP3    H134292   3.590   6.105   1.299 -1.3769  0.4507 -0.0163
 4219TIP3    H234293   3.617   6.234   1.372  1.3003 -0.2989  0.4211
 4220TIP3   OH234294   3.284   3.656   2.451  0.3665  0.4101  0.1906
 4220TIP3    H134295   3.309   3.585   2.391 -1.2034  0.2147 -0.2658
 4220TIP3    H234296   3.359   3.665   2.509  2.0037  0.6713 -1.8467
 4221TIP3   OH234297   2.033   2.950   0.941 -0.0101  0.1373  0.1376
 4221TIP3    H134298   1.945   2.968   0.974 -0.4666 -0.9584 -0.4506
 4221TIP3    H234299   2.048   3.019   0.876 -1.0082 -0.4729 -0.7714
 4222TIP3   OH234300   5.379   2.219   9.123 -0.1457  0.1742  0.2197
 4222TIP3    H134301   5.333   2.295   9.158  1.1604  1.1273 -0.0314
 4222TIP3    H234302   5.316   2.178   9.064 -0.4380  1.9230 -0.7712
 4223TIP3   OH234303   5.526   5.024   2.246 -0.1863  0.4240 -0.0278
 4223TIP3    H134304   5.448   4.973   2.224 -0.1093  0.6687 -0.9337
 4223TIP3    H234305   5.504   5.069   2.327 -0.0982 -1.3796  1.0478
 4224TIP3   OH234306   0.769   5.706   1.783  0.2259  0.1885 -0.2051
 4224TIP3    H134307   0.716   5.702   1.703 -1.6203  1.1551  0.8984
 4224TIP3    H234308   0.769   5.615   1.815  2.4865 -0.5916 -2.1382
 4225TIP3   OH234309   1.092   2.141   2.332  0.2327  0.0386  0.3625
 4225TIP3    H134310   1.169   2.139   2.389 -0.4168  2.0713  1.4347
 4225TIP3    H234311   1.119   2.192   2.256  0.1088  0.3423  0.5178
 4226TIP3   OH234312   6.548   5.553   2.507 -0.0667 -0.2775  0.1621
 4226TIP3    H134313   6.587   5.477   2.463 -0.5494 -0.4384  0.0045
 4226TIP3    H234314   6.561   5.536   2.600  2.4533  0.8558  0.0774
 4227TIP3   OH234315   1.493   5.150   1.473  0.3800  0.0444 -0.2364
 4227TIP3    H134316   1.518   5.237   1.503  2.4909 -0.6102  0.0940
 4227TIP3    H234317   1.397   5.151   1.474  0.3490  1.8989  1.0617
 4228TIP3   OH234318   0.143   3.190   8.149 -0.5093 -0.2226 -0.0588
 4228TIP3    H134319   0.166   3.130   8.220 -1.0459 -2.3145 -1.5373
 4228TIP3    H234320   0.070   3.241   8.183 -1.0120 -1.4578  0.7762
 4229TIP3   OH234321   2.025   0.864   8.452 -0.0715 -0.4915 -0.1158
 4229TIP3    H134322   2.067   0.950   8.467 -2.9855  0.9809  0.2984
 4229TIP3    H234323   2.004   0.833   8.540 -1.6130 -0.2037 -0.3584
 4230TIP3   OH234324   5.813   6.521   8.327  0.0024  0.1348  0.5041
 4230TIP3    H134325   5.819   6.441   8.379  1.4945  0.1976  0.4617
 4230TIP3    H234326   5.900   6.562   8.335 -1.0676  2.4033  1.5532
 4231TIP3   OH234327   5.018   0.072   0.559 -0.4695 -0.7357 -0.1247
 4231TIP3    H134328   5.100   0.110   0.524 -1.1144  0.8036 -0.0702
 4231TIP3    H234329   4.981   0.024   0.485  0.0240 -0.6408 -0.4416
 4232TIP3   OH234330   1.988   4.696   9.188 -0.2256 -0.1022  0.3080
 4232TIP3    H134331   2.054   4.763   9.208  1.0489 -1.0051 -0.7137
 4232TIP3    H234332   2.034   4.634   9.132 -2.0632 -0.5733 -0.7411
 4233TIP3   OH234333   5.890   1.934   2.617 -0.0090 -0.0101 -0.5754
 4233TIP3    H134334   5.934   2.001   2.669  0.9261 -0.3883 -0.8692
 4233TIP3    H234335   5.908   1.852   2.662 -0.0154 -0.2249 -0.9628
 4234TIP3   OH234336   2.832   3.870   0.720  0.1096 -0.5091  0.0919
 4234TIP3    H134337   2.832   3.873   0.816  1.9018  0.1252  0.1105
 4234TIP3    H234338   2.918   3.903   0.695  0.1941 -1.9245 -1.7051
 4235TIP3   OH234339   3.984   1.145   1.776  0.0049 -0.1760  0.1118
 4235TIP3    H134340   3.986   1.150   1.871  2.9180  1.6088  0.1009
 4235TIP3    H234341   3.954   1.232   1.748 -2.5317 -1.2124 -0.7077
 4236TIP3   OH234342   6.144   4.284   8.049 -0.0766  0.2566 -0.0916
 4236TIP3    H134343   6.136   4.234   7.968 -1.2268  0.2670  0.0033
 4236TIP3    H234344   6.228   4.255   8.087 -0.4675 -1.2117 -0.2947
 4237TIP3   OH234345   3.218   0.784   8.937 -0.0381 -0.7681 -0.2036
 4237TIP3    H134346   3.270   0.831   8.871 -0.9211  1.0539  0.3325
 4237TIP3    H234347   3.129   0.782   8.901 -0.2221 -1.1076  0.2541
 4238TIP3   OH234348   1.256   5.069   0.147 -0.1166  0.1035  0.1500
 4238TIP3    H134349   1.168   5.031   0.157  0.8994 -2.2996  0.6312
 4238TIP3    H234350   1.292   5.025   0.069  1.9688 -1.8378  2.0699
 4239TIP3   OH234351   6.031   6.254   1.950  1.1312  0.3151  0.1121
 4239TIP3    H134352   6.078   6.335   1.971  0.4341  0.6490  0.4133
 4239TIP3    H234353   6.058   6.193   2.018  1.9327  0.1723 -0.3152
 4240TIP3   OH234354   6.525   2.667   3.277  0.0317 -0.1455  0.2644
 4240TIP3    H134355   6.456   2.725   3.310 -0.1416  0.4789 -1.1080
 4240TIP3    H234356   6.560   2.713   3.201  0.5367 -1.4182 -0.3001
 4241TIP3   OH234357   2.232   0.198   8.913 -0.5730  0.0517  0.1988
 4241TIP3    H134358   2.154   0.144   8.898 -0.8848  0.3063  0.8502
 4241TIP3    H234359   2.200   0.288   8.907 -0.2920  0.1571  0.2710
 4242TIP3   OH234360   4.329   4.423   8.020  0.6947 -0.1420  0.1584
 4242TIP3    H134361   4.321   4.335   8.056  0.9436 -0.7251 -1.1456
 4242TIP3    H234362   4.412   4.422   7.972 -0.5955 -0.1593 -2.2687
 4243TIP3   OH234363   2.833   3.434   8.405  0.1567  0.1012  0.0435
 4243TIP3    H134364   2.817   3.464   8.495 -0.1141 -1.1428  0.4290
 4243TIP3    H234365   2.805   3.343   8.405  1.7914 -0.4337 -0.8588
 4244TIP3   OH234366   5.619   1.648   0.328  0.3717 -0.2913 -0.3186
 4244TIP3    H134367   5.574   1.705   0.266 -1.9245  0.7634  2.1287
 4244TIP3    H234368   5.549   1.605   0.377  2.0503 -1.1352  1.5105
 4245TIP3   OH234369   1.611   4.710   7.191  0.0548  0.2534 -0.3758
 4245TIP3    H134370   1.545   4.770   7.156 -3.0824 -1.3033  2.2432
 4245TIP3    H234371   1.655   4.759   7.260  2.0178  1.3861 -2.3057
 4246TIP3   OH234372   1.082   6.523   7.825 -0.4470  0.1337  0.4819
 4246TIP3    H134373   1.149   6.579   7.786 -0.4429 -0.0204  0.2666
 4246TIP3    H234374   1.086   6.442   7.774 -0.8667  0.1631  0.4027
 4247TIP3   OH234375   1.381   0.009   3.496 -0.5853  0.6322  0.0095
 4247TIP3    H134376   1.309   0.071   3.495 -3.0611 -2.0401 -0.8837
 4247TIP3    H234377   1.381  -0.030   3.408  1.7260  0.2489  0.1009
 4248TIP3   OH234378   3.269   5.711   1.924 -0.1139  0.5809 -0.3104
 4248TIP3    H134379   3.275   5.789   1.868  0.9815  0.3119 -0.5912
 4248TIP3    H234380   3.175   5.695   1.933 -0.3612  2.0008 -0.1468
 4249TIP3   OH234381   3.781   1.889   0.820  0.3931  0.7439  0.6216
 4249TIP3    H134382   3.746   1.893   0.910  1.2197  0.3885  0.9674
 4249TIP3    H234383   3.876   1.884   0.832  0.4329 -1.3520 -0.2115
 4250TIP3   OH234384   1.906   6.544   1.068  0.2040 -0.0430  0.2265
 4250TIP3    H134385   1.965   6.483   1.111 -0.0878  0.8166  1.9030
 4250TIP3    H234386   1.822   6.532   1.112  0.1115  1.4784  0.5307
 4251TIP3   OH234387   3.791   2.095   1.933  0.1620  0.3614  0.8498
 4251TIP3    H134388   3.841   2.084   1.853  1.2887  0.1905  1.5622
 4251TIP3    H234389   3.764   2.187   1.932 -1.9567 -0.1795 -0.9037
 4252TIP3   OH234390   2.623   2.183   1.676 -0.0158 -0.0924 -0.1416
 4252TIP3    H134391   2.642   2.252   1.740 -0.4394  0.6743 -0.8223
 4252TIP3    H234392   2.661   2.216   1.595  1.5063 -1.5593 -0.0775
 4253TIP3   OH234393   0.111   1.752   1.168  0.3966 -0.0813  0.2713
 4253TIP3    H134394   0.105   1.805   1.247 -0.4239  1.0260 -0.4957
 4253TIP3    H234395   0.128   1.663   1.199 -0.3140  0.2568  1.7094
 4254TIP3   OH234396   3.966   1.011   7.624  0.8995  0.0049 -0.3612
 4254TIP3    H134397   3.964   0.936   7.684  0.1675 -0.4189 -0.9035
 4254TIP3    H234398   4.012   0.979   7.546  0.7209  0.1658 -0.5341
 4255TIP3   OH234399   3.165   0.473   1.378 -0.2626 -0.1583  0.2723
 4255TIP3    H134400   3.199   0.434   1.297 -0.3929 -1.8904  1.0024
 4255TIP3    H234401   3.243   0.494   1.429 -0.1918  0.5522 -0.1151
 4256TIP3   OH234402   1.597   6.371   0.196 -0.4305 -0.2708 -0.1870
 4256TIP3    H134403   1.629   6.295   0.245 -0.8674 -1.2107 -1.3264
 4256TIP3    H234404   1.676   6.409   0.157 -0.2132 -0.1486  0.3596
 4257TIP3   OH234405   4.724   1.725   1.347  0.4990  0.3046  0.1052
 4257TIP3    H134406   4.678   1.794   1.394 -1.5187 -0.4107 -0.7082
 4257TIP3    H234407   4.668   1.648   1.356  1.1376 -0.4150 -1.6012
 4258TIP3   OH234408   3.749   0.289   1.067  0.4088  0.4940  0.3407
 4258TIP3    H134409   3.791   0.312   0.985 -0.2215  0.0525 -0.1159
 4258TIP3    H234410   3.820   0.258   1.123  0.7956  0.5037 -0.1432
 4259TIP3   OH234411   0.474   3.978   8.267  0.5686 -0.5418 -0.2204
 4259TIP3    H134412   0.537   4.040   8.301 -1.1394  1.5036 -0.5773
 4259TIP3    H234413   0.466   3.912   8.336  0.9225  0.7724  1.1294
 4260TIP3   OH234414   3.883   0.055   8.535 -0.5294  0.0197  0.9715
 4260TIP3    H134415   3.814   0.085   8.593 -0.2521  0.3568  1.1297
 4260TIP3    H234416   3.846  -0.022   8.492 -1.9348  1.6021 -0.8048
 4261TIP3   OH234417   4.032   1.922   0.447 -0.4252 -0.3139  0.0444
 4261TIP3    H134418   4.054   2.014   0.432 -0.7401  0.0867  1.8523
 4261TIP3    H234419   4.000   1.891   0.362  0.8503  0.8895 -0.9060
 4262TIP3   OH234420   3.087   4.604   0.297  0.1856  0.3200  0.5273
 4262TIP3    H134421   3.047   4.529   0.342  0.6281  0.4509  1.1502
 4262TIP3    H234422   3.178   4.604   0.328  0.3096  0.8390  0.1672
 4263TIP3   OH234423   3.471   0.429   0.723  0.6901 -0.1750 -0.1963
 4263TIP3    H134424   3.455   0.523   0.730  0.9311 -0.1886  0.6072
 4263TIP3    H234425   3.398   0.396   0.670  0.8186  0.5144 -0.8211
 4264TIP3   OH234426   4.503   6.606   7.552  0.1105  0.0105 -0.1264
 4264TIP3    H134427   4.528   6.689   7.593  0.2844 -0.0656 -0.0780
 4264TIP3    H234428   4.491   6.628   7.460  0.0374  0.1146 -0.0918
 4265TIP3   OH234429   3.146   1.995   1.700  0.4377 -0.1025 -0.2559
 4265TIP3    H134430   3.083   2.062   1.727  0.8560 -0.7506  2.7041
 4265TIP3    H234431   3.097   1.913   1.706  0.2201 -0.2306 -2.8627
 4266TIP3   OH234432   5.097   0.955   1.786 -0.1488 -0.3684  0.1623
 4266TIP3    H134433   5.084   0.890   1.717 -1.3090 -0.0269  0.0316
 4266TIP3    H234434   5.024   0.940   1.847 -0.0329  0.3508  0.4893
 4267TIP3   OH234435   0.119   0.879   1.510  0.2055 -0.0798 -0.2679
 4267TIP3    H134436   0.166   0.912   1.586 -0.4115  0.5997 -0.1608
 4267TIP3    H234437   0.183   0.828   1.462  0.7316 -0.1287  0.4642
 4268TIP3   OH234438   5.465   0.172   1.014 -0.1530  0.2284  0.5623
 4268TIP3    H134439   5.394   0.109   1.020  0.2581 -0.2945  0.0546
 4268TIP3    H234440   5.535   0.125   0.969  0.2391  0.9784  0.3718
 4269TIP3   OH234441   5.453   4.276   6.959  0.0891 -0.0415 -0.1071
 4269TIP3    H134442   5.468   4.371   6.964  0.8730 -0.0898 -1.2016
 4269TIP3    H234443   5.526   4.238   7.007  0.9620 -0.1284 -1.4367
 4270TIP3   OH234444   0.737   1.028   0.699 -0.1369 -0.0835  0.0409
 4270TIP3    H134445   0.700   0.947   0.663  2.0833 -0.6864 -1.0444
 4270TIP3    H234446   0.728   1.091   0.627 -0.9513  0.3792  0.5351
 4271TIP3   OH234447   6.155   1.506   2.723 -0.2153 -0.3187 -0.2731
 4271TIP3    H134448   6.087   1.447   2.756  1.6388 -2.9396 -0.7769
 4271TIP3    H234449   6.236   1.473   2.762  1.0692  1.1625 -1.5629
 4272TIP3   OH234450   4.863   5.623   1.662  0.2682 -0.0885  0.3721
 4272TIP3    H134451   4.913   5.591   1.587  0.7855  0.4393  0.4863
 4272TIP3    H234452   4.901   5.577   1.737 -1.0878 -1.5863  0.1926
 4273TIP3   OH234453   0.237   3.750   1.968  0.5635  0.4840 -0.0717
 4273TIP3    H134454   0.233   3.747   2.063 -3.2346 -1.8484 -0.0646
 4273TIP3    H234455   0.277   3.667   1.943  0.6929  0.6695 -0.4851
 4274TIP3   OH234456   4.152   3.873   8.428  0.3683  0.5305  0.1613
 4274TIP3    H134457   4.226   3.933   8.420  0.7895 -0.0374 -0.2610
 4274TIP3    H234458   4.096   3.914   8.494  2.1840 -0.1522  2.2838
 4275TIP3   OH234459   4.940   3.305   1.373 -0.3626 -0.4847 -0.0211
 4275TIP3    H134460   4.931   3.359   1.452  0.2835 -1.6721  0.8968
 4275TIP3    H234461   4.858   3.255   1.369 -0.8082  0.2729 -0.6707
 4276TIP3   OH234462   3.746   0.099   0.451  1.0311  0.3964 -0.1761
 4276TIP3    H134463   3.750   0.182   0.499 -1.4307  1.5416 -1.7744
 4276TIP3    H234464   3.675   0.050   0.494 -0.1666  0.8023 -1.6371
 4277TIP3   OH234465   1.726   0.253   1.467  0.1407 -0.0989  0.1164
 4277TIP3    H134466   1.703   0.219   1.380  1.2839  1.1151 -0.7039
 4277TIP3    H234467   1.666   0.326   1.481 -0.2592 -0.4946  0.5105
 4278TIP3   OH234468   1.436   5.273   0.618  0.0832  0.2872 -0.3504
 4278TIP3    H134469   1.440   5.280   0.523 -3.1812 -0.1835 -0.6139
 4278TIP3    H234470   1.453   5.361   0.649 -2.6739  1.3969 -1.6530
 4279TIP3   OH234471   0.526   1.944   1.993 -0.0044 -0.2592  0.3175
 4279TIP3    H134472   0.500   1.858   2.027  0.1525 -0.8092 -0.9039
 4279TIP3    H234473   0.618   1.935   1.971  0.0503  0.2747  0.3023
 4280TIP3   OH234474   5.366   3.980   1.625  0.0950  0.5392 -0.1567
 4280TIP3    H134475   5.300   3.998   1.692 -0.3727 -0.8603 -0.2177
 4280TIP3    H234476   5.330   3.907   1.574  1.6055 -0.1328 -0.3113
 4281TIP3   OH234477   1.694   0.193   1.197  0.2809  0.2313  0.3520
 4281TIP3    H134478   1.666   0.195   1.105  0.6075 -0.5209  0.2365
 4281TIP3    H234479   1.777   0.146   1.196  0.9142  1.2906  0.8735
 4282TIP3   OH234480   1.261   5.325   8.666  0.1392 -0.0982  0.3249
 4282TIP3    H134481   1.267   5.389   8.737  2.0493  2.3041 -1.7695
 4282TIP3    H234482   1.318   5.253   8.693  0.2562  0.4279  1.5413
 4283TIP3   OH234483   6.572   3.895   2.385 -0.2327 -0.3658  0.0686
 4283TIP3    H134484   6.657   3.853   2.382  0.6264  1.3148 -0.1865
 4283TIP3    H234485   6.582   3.965   2.450 -1.0817  0.5396 -0.7407
 4284TIP3   OH234486   4.877   1.137   1.631  0.1432  0.2521  0.6507
 4284TIP3    H134487   4.961   1.150   1.677  0.2329  0.6024  0.3883
 4284TIP3    H234488   4.838   1.062   1.675  0.7700 -0.1564  0.5309
 4285TIP3   OH234489   1.432   0.787   0.717 -0.3539 -0.1907 -0.2315
 4285TIP3    H134490   1.378   0.779   0.638  2.6543 -1.0761 -2.4046
 4285TIP3    H234491   1.464   0.699   0.733  0.5912  0.3219  0.8313
 4286TIP3   OH234492   2.940   6.427   8.849  0.0249  0.5286 -0.3415
 4286TIP3    H134493   2.963   6.517   8.873 -1.0002  1.4063 -2.4003
 4286TIP3    H234494   2.849   6.418   8.875  0.6591 -0.6776  1.7159
 4287TIP3   OH234495   4.106   1.814   8.555 -0.4961 -0.0727  0.4368
 4287TIP3    H134496   4.052   1.805   8.634 -2.2217  1.3596 -0.5095
 4287TIP3    H234497   4.117   1.909   8.545  1.5817 -0.2979  0.1408
 4288TIP3   OH234498   6.629   0.203   2.380  0.2095 -0.2481  0.0653
 4288TIP3    H134499   6.632   0.297   2.398 -1.3466 -0.1836  0.0447
 4288TIP3    H234500   6.677   0.193   2.298 -1.5099  0.8442 -1.1236
 4289TIP3   OH234501   6.331   5.351   2.092  1.0751 -0.0262  0.6559
 4289TIP3    H134502   6.391   5.425   2.096  1.1872 -0.1560  2.1073
 4289TIP3    H234503   6.313   5.330   2.184 -1.6655  0.3892  0.2895
 4290TIP3   OH234504   0.878   2.968   7.761 -0.7820 -0.4706 -0.4202
 4290TIP3    H134505   0.827   2.987   7.682  2.6733 -0.3471 -2.8370
 4290TIP3    H234506   0.949   3.032   7.761  1.7420 -3.0281  0.3913
 4291TIP3   OH234507   0.219   5.414   8.164  0.1905 -0.0338  0.5032
 4291TIP3    H134508   0.137   5.457   8.189  0.5215  1.6592 -1.0692
 4291TIP3    H234509   0.192   5.332   8.123 -0.5459 -0.7353  2.3018
 4292TIP3   OH234510   4.964   2.399   0.072 -0.5964  0.1633  0.5645
 4292TIP3    H134511   5.052   2.389   0.037 -1.1655  0.5789 -1.0626
 4292TIP3    H234512   4.973   2.466   0.140  0.3856 -0.0464  0.6562
 4293TIP3   OH234513   2.762   1.425   7.435  0.5341 -0.0919 -0.2885
 4293TIP3    H134514   2.695   1.485   7.469  0.6947 -0.0817  0.0087
 4293TIP3    H234515   2.843   1.454   7.476  1.3163  1.8289 -2.8997
 4294TIP3   OH234516   6.565   2.454   1.214 -0.3043 -0.2408 -0.1329
 4294TIP3    H134517   6.534   2.447   1.304  0.5445  0.2146  0.2032
 4294TIP3    H234518   6.543   2.370   1.174 -0.0626 -0.7098  0.6980
 4295TIP3   OH234519   2.774   3.907   7.395  0.1923 -0.8862 -0.1390
 4295TIP3    H134520   2.846   3.969   7.393 -1.0789  0.6454 -0.6102
 4295TIP3    H234521   2.811   3.826   7.360  2.0172 -0.5687  0.9312
 4296TIP3   OH234522   0.950   1.537   0.261  0.0353  0.1209  0.2026
 4296TIP3    H134523   1.017   1.474   0.235  1.5618  1.2137  1.2217
 4296TIP3    H234524   1.001   1.612   0.294 -1.7068  1.0157  0.9689
 4297TIP3   OH234525   4.901   6.166   0.773 -0.2058 -0.1194 -0.2554
 4297TIP3    H134526   4.899   6.075   0.744 -2.0008 -0.1392 -0.1404
 4297TIP3    H234527   4.818   6.180   0.818  0.0253  1.5776 -0.2742
 4298TIP3   OH234528   1.760   2.470   1.945 -0.3037 -0.7857  0.2640
 4298TIP3    H134529   1.788   2.379   1.956  1.1728 -0.1316  2.6350
 4298TIP3    H234530   1.714   2.490   2.026 -1.9608  0.1764 -0.8670
 4299TIP3   OH234531   5.239   2.434   3.249 -0.0508 -0.3128 -0.0976
 4299TIP3    H134532   5.205   2.444   3.160 -0.5881 -0.4264  0.0892
 4299TIP3    H234533   5.186   2.493   3.302 -0.0397 -0.5837  0.2196
 4300TIP3   OH234534   0.876   4.599   9.053  0.5736 -0.1021 -0.0115
 4300TIP3    H134535   0.810   4.579   9.120  0.5018  1.7650  0.5255
 4300TIP3    H234536   0.917   4.679   9.084  1.0384  0.4036 -1.8592
 4301TIP3   OH234537   5.749   5.266   0.734  0.1461 -0.0305 -0.0330
 4301TIP3    H134538   5.674   5.283   0.676  1.0642  1.4452 -0.8560
 4301TIP3    H234539   5.781   5.354   0.757  1.1288 -0.6301  0.9639
 4302TIP3   OH234540   3.643   2.376   1.097 -0.4976  0.1208 -0.0481
 4302TIP3    H134541   3.654   2.396   1.190  0.6410 -2.4127  0.4716
 4302TIP3    H234542   3.709   2.429   1.053  0.3019 -0.0883  0.8539
 4303TIP3   OH234543   1.500   2.971   1.925  0.8856  0.1543 -0.2371
 4303TIP3    H134544   1.595   2.969   1.931  0.9143 -1.0228 -0.7612
 4303TIP3    H234545   1.482   2.986   1.832  0.6148 -2.3565 -0.6719
 4304TIP3   OH234546   6.442   4.231   7.332  0.0504  0.0041  0.4575
 4304TIP3    H134547   6.537   4.225   7.345 -0.1001 -0.0325  1.6353
 4304TIP3    H234548   6.409   4.145   7.357 -0.1884 -0.4264 -1.2040
 4305TIP3   OH234549   6.205   5.321   0.729  0.9454  0.0903  0.0576
 4305TIP3    H134550   6.294   5.356   0.734  1.6441 -1.3516 -1.4478
 4305TIP3    H234551   6.200   5.260   0.803  0.8307  0.9434  0.7651
 4306TIP3   OH234552   2.169   4.352   1.601 -0.3158  0.1464  0.1652
 4306TIP3    H134553   2.226   4.371   1.527  0.1606 -0.2165  0.4378
 4306TIP3    H234554   2.213   4.282   1.648 -0.9658 -0.1094  0.4024
 4307TIP3   OH234555   2.506   1.468   9.129 -0.0778 -0.1567  0.2709
 4307TIP3    H134556   2.486   1.489   9.220 -0.5076 -0.2089  0.1871
 4307TIP3    H234557   2.422   1.449   9.088 -0.0898  1.5388 -0.5794
 4308TIP3   OH234558   4.431   1.398   7.194 -0.2464 -0.3981  0.8736
 4308TIP3    H134559   4.405   1.342   7.267 -1.0601 -0.9817  0.1446
 4308TIP3    H234560   4.368   1.380   7.125 -0.2927  1.1301  0.4732
 4309TIP3   OH234561   6.313   1.151   8.296 -0.0565  0.0905 -0.2604
 4309TIP3    H134562   6.265   1.233   8.303  2.4254  1.5762  0.3892
 4309TIP3    H234563   6.336   1.128   8.386  0.6771 -0.4178 -0.5630
 4310TIP3   OH234564   1.642   2.705   0.544 -0.1028 -0.1300  0.0312
 4310TIP3    H134565   1.660   2.670   0.457  2.2170  1.2643 -0.1471
 4310TIP3    H234566   1.710   2.666   0.600  1.0419  2.1219  0.3045
 4311TIP3   OH234567   2.288   0.672   2.367 -0.2771 -0.1768 -0.0545
 4311TIP3    H134568   2.317   0.586   2.398 -0.9277 -1.0444 -1.7607
 4311TIP3    H234569   2.363   0.708   2.320  1.1802  1.7058  3.3130
 4312TIP3   OH234570   3.690   1.994   0.453  0.1444  0.4605 -0.1997
 4312TIP3    H134571   3.654   2.058   0.391 -1.7506 -0.6022 -0.2900
 4312TIP3    H234572   3.727   1.925   0.398 -0.2840  0.1836 -0.1465
 4313TIP3   OH234573   0.397   5.274   1.950 -0.2413 -0.3093 -1.1161
 4313TIP3    H134574   0.392   5.357   1.997  0.2242 -0.2800 -1.1188
 4313TIP3    H234575   0.309   5.237   1.957 -0.0039 -0.6696  0.4516
 4314TIP3   OH234576   5.727   3.517   1.021 -0.1315  0.2474  0.3320
 4314TIP3    H134577   5.750   3.553   1.107  1.6541 -1.9117  0.8530
 4314TIP3    H234578   5.713   3.595   0.966 -0.7366  1.6859  2.3806
 4315TIP3   OH234579   6.674   1.503   2.184 -0.7000  0.6217  0.0370
 4315TIP3    H134580   6.702   1.412   2.199  0.0477  0.7952 -0.2727
 4315TIP3    H234581   6.578   1.500   2.192 -0.5917  0.0784  1.4548
 4316TIP3   OH234582   2.613   2.762   7.731  0.1595 -0.4283 -0.2379
 4316TIP3    H134583   2.709   2.765   7.722  0.4936 -2.2377  1.6946
 4316TIP3    H234584   2.582   2.735   7.645  1.5184 -0.9144 -0.6135
 4317TIP3   OH234585   4.591   3.679   7.266 -0.1082 -0.3453 -0.5003
 4317TIP3    H134586   4.587   3.714   7.355  1.8663 -0.0035 -0.5127
 4317TIP3    H234587   4.632   3.593   7.275  1.2777  0.2235 -1.1973
 4318TIP3   OH234588   0.338   0.591   9.064 -0.0218 -0.1952 -0.2603
 4318TIP3    H134589   0.428   0.559   9.061  0.3929  0.7897  0.6996
 4318TIP3    H234590   0.323   0.611   9.156 -1.3013 -0.5218 -0.3801
 4319TIP3   OH234591   5.116   5.512   1.790  0.4208  0.6703  0.2372
 4319TIP3    H134592   5.145   5.597   1.823  2.9757 -0.0793  0.0825
 4319TIP3    H234593   5.143   5.449   1.857 -1.1245 -0.1147  0.1829
 4320TIP3   OH234594   6.352   5.936   7.794  0.7520  0.2431  0.3836
 4320TIP3    H134595   6.391   5.855   7.761 -1.7735 -0.5036 -1.0272
 4320TIP3    H234596   6.357   5.996   7.719  1.4731  1.0158  1.0255
 4321TIP3   OH234597   0.773   4.337   1.006 -0.1489  0.4707  0.4183
 4321TIP3    H134598   0.731   4.392   1.072  0.3825  2.4436 -0.8146
 4321TIP3    H234599   0.707   4.271   0.984 -1.1662  1.1808  1.2546
 4322TIP3   OH234600   2.999   1.748   7.382  0.0258  0.5452 -0.0002
 4322TIP3    H134601   3.024   1.770   7.472  2.4521 -2.7455  0.3098
 4322TIP3    H234602   3.063   1.795   7.328 -0.8422  1.7609 -0.0153
 4323TIP3   OH234603   1.696   1.557   1.950 -0.2627 -0.4134 -0.1242
 4323TIP3    H134604   1.646   1.508   1.885 -1.3262  0.2148  0.2036
 4323TIP3    H234605   1.715   1.641   1.908  0.2689 -0.5401 -0.1405
 4324TIP3   OH234606   0.215   1.822   2.101 -0.6085  0.3013 -0.0731
 4324TIP3    H134607   0.306   1.802   2.125 -1.1023 -1.0486  0.7631
 4324TIP3    H234608   0.222   1.901   2.047  1.0284  0.4153  0.2419
 4325TIP3   OH234609   1.161   2.022   8.476  0.0156  0.3842  0.0806
 4325TIP3    H134610   1.175   1.978   8.560  0.9726  0.7667  0.1384
 4325TIP3    H234611   1.171   2.115   8.495  1.0432  0.4302 -0.5854
 4326TIP3   OH234612   1.634   3.060   8.600  0.1851 -0.2687  0.3164
 4326TIP3    H134613   1.540   3.039   8.595 -0.3872  1.9431  0.7940
 4326TIP3    H234614   1.649   3.080   8.692  1.0991 -0.3818  0.1979
 4327TIP3   OH234615   4.929   5.067   1.646 -0.4405 -0.2321 -0.7146
 4327TIP3    H134616   4.933   5.081   1.740 -0.3314 -2.5706 -0.3317
 4327TIP3    H234617   4.980   5.140   1.609  0.9338 -0.2011  1.1260
 4328TIP3   OH234618   6.334   3.703   8.206  0.1045  0.0556  0.4917
 4328TIP3    H134619   6.359   3.661   8.289 -0.2032  0.9225  1.0341
 4328TIP3    H234620   6.239   3.718   8.214 -0.3581 -1.7670 -0.8935
 4329TIP3   OH234621   6.643   6.562   0.492  0.1643 -0.1474 -0.4072
 4329TIP3    H134622   6.737   6.548   0.481  0.0666  0.2399 -1.8855
 4329TIP3    H234623   6.602   6.493   0.440 -0.4440 -1.6314  1.8665
 4330TIP3   OH234624   6.114   0.514   2.145 -0.1543 -0.7136  0.2132
 4330TIP3    H134625   6.161   0.595   2.124  2.4514 -2.2327 -0.2995
 4330TIP3    H234626   6.094   0.521   2.238  1.2153 -0.0107  0.4801
 4331TIP3   OH234627   1.719   6.250   0.424 -0.1436 -0.8679  0.0432
 4331TIP3    H134628   1.645   6.197   0.454 -1.9971  0.0810 -2.4907
 4331TIP3    H234629   1.784   6.187   0.394  0.0317 -1.7191  2.0663
 4332TIP3   OH234630   0.027   0.798   9.200 -0.3907  0.2963  0.5146
 4332TIP3    H134631  -0.009   0.824   9.285 -1.0266 -0.1975  0.3993
 4332TIP3    H234632   0.053   0.880   9.159 -2.1350  0.7447  0.2638
 4333TIP3   OH234633   4.714   6.424   0.716  0.6969  0.1069  0.4139
 4333TIP3    H134634   4.763   6.493   0.760  1.1265  0.0569  0.0247
 4333TIP3    H234635   4.706   6.355   0.783 -1.3584  1.2333  1.4250
 4334TIP3   OH234636   0.260   1.555   7.819 -0.3138  0.4322  0.3131
 4334TIP3    H134637   0.188   1.520   7.766  0.7035  0.5914 -1.2494
 4334TIP3    H234638   0.284   1.637   7.776  0.7249  0.4359  0.8677
 4335TIP3   OH234639   2.742   3.877   7.718 -0.4973  0.0860 -0.3364
 4335TIP3    H134640   2.754   3.860   7.624 -0.0294 -1.4328 -0.0360
 4335TIP3    H234641   2.656   3.917   7.724 -0.7251 -0.2061 -1.3782
 4336TIP3   OH234642   4.969   5.707   9.189  0.2070 -0.0135 -0.3657
 4336TIP3    H134643   5.035   5.725   9.122  0.8217 -2.1928 -0.4436
 4336TIP3    H234644   5.015   5.720   9.272  0.2226  0.1679 -0.4037
 4337TIP3   OH234645   1.360   3.319   0.025 -0.4498  0.2713  0.9012
 4337TIP3    H134646   1.398   3.242  -0.019  1.3374  1.2645  0.6076
 4337TIP3    H234647   1.376   3.305   0.118 -0.0856  0.3062  0.8436
 4338TIP3   OH234648   4.463   5.799   0.540  0.7572 -0.2060  0.4177
 4338TIP3    H134649   4.474   5.885   0.581  0.8323  0.7605 -1.4944
 4338TIP3    H234650   4.406   5.816   0.465  0.4878 -1.9102  0.2138
 4339TIP3   OH234651   2.415   4.665   1.184  0.0423 -0.5260  0.4204
 4339TIP3    H134652   2.489   4.723   1.165  0.4818 -1.4325 -0.7564
 4339TIP3    H234653   2.339   4.723   1.186  0.6153  0.2420  0.3500
 4340TIP3   OH234654   2.610   3.424   8.760 -0.2492 -0.6953  0.5616
 4340TIP3    H134655   2.619   3.392   8.850 -1.4489 -3.2507 -0.1542
 4340TIP3    H234656   2.654   3.359   8.706  0.9659  1.0899 -0.7404
 4341TIP3   OH234657   0.891   6.005   7.214  0.3318  0.4506 -0.0297
 4341TIP3    H134658   0.984   6.025   7.226  0.6117 -1.5620  1.9451
 4341TIP3    H234659   0.891   5.921   7.168 -0.4289 -0.1868  1.0821
 4342TIP3   OH234660   0.710   3.969   0.203  0.1444 -0.2215  0.2873
 4342TIP3    H134661   0.640   3.932   0.257  0.5692 -0.5434  0.6253
 4342TIP3    H234662   0.665   4.012   0.131 -0.3960 -0.5458  0.4285
 4343TIP3   OH234663   3.095   1.084   1.795 -0.5235 -0.0269  0.3468
 4343TIP3    H134664   3.054   1.095   1.881  0.9819  2.3965  0.8440
 4343TIP3    H234665   3.076   1.165   1.749  1.0089 -0.1452 -0.5596
 4344TIP3   OH234666   3.826   2.154   9.046 -0.3632  0.0406 -0.2641
 4344TIP3    H134667   3.891   2.131   8.980  1.8378  1.4553  1.2550
 4344TIP3    H234668   3.830   2.083   9.110  0.4030  0.5561  0.2817
 4345TIP3   OH234669   6.040   5.064   2.205 -0.0159  0.2511  0.5409
 4345TIP3    H134670   6.061   4.974   2.228 -2.0831 -0.1495  1.0128
 4345TIP3    H234671   5.973   5.057   2.137 -0.2600  1.4290  0.6414
 4346TIP3   OH234672   5.225   1.163   3.290 -0.5002  0.4265 -0.4046
 4346TIP3    H134673   5.172   1.084   3.296  0.8812 -0.4628  1.0692
 4346TIP3    H234674   5.180   1.227   3.345 -0.1554 -0.2788  0.7271
 4347TIP3   OH234675   6.192   3.998   0.267  0.1913  0.4219 -0.2360
 4347TIP3    H134676   6.284   3.980   0.284  0.0183  0.2095  0.4901
 4347TIP3    H234677   6.191   4.085   0.227  0.9278 -0.5935 -2.6529
 4348TIP3   OH234678   0.186   4.046   8.284 -0.1688  0.1675 -0.0227
 4348TIP3    H134679   0.200   3.976   8.347 -2.3423  0.8726  1.3252
 4348TIP3    H234680   0.272   4.058   8.242  1.4213 -0.2295  2.8882
 4349TIP3   OH234681   0.006   1.377   0.777  0.7822 -0.1793  0.6846
 4349TIP3    H134682   0.035   1.463   0.746  0.5286  0.6283  2.5672
 4349TIP3    H234683  -0.080   1.365   0.736  2.0173 -0.8791 -1.8774
 4350TIP3   OH234684   4.533   6.195   1.482  0.1800 -0.3900 -0.1846
 4350TIP3    H134685   4.498   6.222   1.567  1.8615  1.8455 -0.1132
 4350TIP3    H234686   4.460   6.148   1.441 -0.8731 -1.0211  2.2253
 4351TIP3   OH234687   3.426   4.148   8.369  0.0660 -0.0925  0.2670
 4351TIP3    H134688   3.453   4.159   8.277  0.7844 -1.7281  0.2534
 4351TIP3    H234689   3.465   4.065   8.395 -1.9035 -0.6907  1.4209
 4352TIP3   OH234690   4.609   3.629   8.732  0.7453  0.0003  0.1387
 4352TIP3    H134691   4.631   3.596   8.645 -0.1861  0.1370 -0.1651
 4352TIP3    H234692   4.519   3.601   8.746  0.5914  0.7281  0.6927
 4353TIP3   OH234693   3.196   0.866   0.109 -0.2981 -0.0023  0.2460
 4353TIP3    H134694   3.135   0.932   0.142 -0.1977 -0.8593  2.2367
 4353TIP3    H234695   3.143   0.786   0.103  0.0266 -0.1721 -0.4246
 4354TIP3   OH234696   1.507   6.594   1.047  0.1035  0.7000 -0.0474
 4354TIP3    H134697   1.575   6.590   0.980 -2.6245  2.5285 -3.2194
 4354TIP3    H234698   1.461   6.511   1.040  1.5552 -0.3466  1.7859
 4355TIP3   OH234699   3.525   4.597   8.056 -0.5409  0.6343  0.2920
 4355TIP3    H134700   3.560   4.532   7.995  0.5239  0.6623  0.8404
 4355TIP3    H234701   3.445   4.629   8.015 -0.5842 -0.3610 -0.4163
 4356TIP3   OH234702   5.814   1.555   8.128 -0.1896 -0.1942  0.2225
 4356TIP3    H134703   5.881   1.623   8.123 -0.5104  0.0649 -0.6396
 4356TIP3    H234704   5.858   1.476   8.098  0.0440 -0.2696  0.7529
 4357TIP3   OH234705   0.505   1.256   0.398 -0.7512  0.1592  0.1202
 4357TIP3    H134706   0.468   1.174   0.366  1.0628 -0.4178 -0.6756
 4357TIP3    H234707   0.440   1.322   0.375 -1.6642 -0.8866 -0.4326
 4358TIP3   OH234708   5.209   2.418   0.735  0.0761  0.0070 -0.0933
 4358TIP3    H134709   5.227   2.484   0.802 -0.8771  0.4053 -0.2118
 4358TIP3    H234710   5.256   2.340   0.764  0.1831  0.3610  0.7088
 4359TIP3   OH234711   4.040   2.447   7.435 -0.1856  0.1369  0.1036
 4359TIP3    H134712   4.098   2.522   7.448  0.4062 -0.3980  0.6267
 4359TIP3    H234713   3.960   2.470   7.483 -0.1760  0.6140 -0.1026
 4360TIP3   OH234714   0.030   4.669   0.888 -0.6013 -0.2669 -0.4282
 4360TIP3    H134715   0.103   4.664   0.951 -2.2462  0.2747  1.6359
 4360TIP3    H234716   0.068   4.638   0.806  1.5811 -1.3899  0.8860
 4361TIP3   OH234717   4.033   4.876   7.490 -0.4008 -0.4918  0.5674
 4361TIP3    H134718   4.071   4.911   7.409  0.4281  0.2661  1.2655
 4361TIP3    H234719   4.108   4.849   7.542 -0.8382  0.2436  1.6226
 4362TIP3   OH234720   2.166   5.161   8.879  0.3653 -0.1976 -0.0921
 4362TIP3    H134721   2.176   5.068   8.899 -2.2448 -0.7413 -0.8283
 4362TIP3    H234722   2.173   5.165   8.783  2.4743  0.7450  0.0451
 4363TIP3   OH234723   4.460   3.818   1.382  0.4107  0.4016 -0.4075
 4363TIP3    H134724   4.492   3.728   1.392  1.9987  0.8066 -1.4593
 4363TIP3    H234725   4.446   3.827   1.287  0.5375  1.3627 -0.3358
 4364TIP3   OH234726   5.069   5.109   8.363  0.4643  0.2493 -0.4499
 4364TIP3    H134727   5.062   5.204   8.376  1.8109  0.5007 -1.3203
 4364TIP3    H234728   5.157   5.097   8.326 -0.2170 -1.1894 -1.7007
 4365TIP3   OH234729   4.022   2.177   0.070 -0.3502 -0.3747  0.1566
 4365TIP3    H134730   4.035   2.086   0.097 -1.0891 -1.6099 -3.2276
 4365TIP3    H234731   3.966   2.214   0.138  0.3203 -2.2721  1.8610
 4366TIP3   OH234732   2.998   0.392   1.584  0.0512  0.1316 -0.0864
 4366TIP3    H134733   2.969   0.478   1.552 -0.9475 -0.0695  0.2400
 4366TIP3    H234734   3.062   0.362   1.519  0.5780  1.2096 -0.0954
 4367TIP3   OH234735   4.791   5.562   8.097  0.2453  0.2368 -0.1642
 4367TIP3    H134736   4.787   5.651   8.062 -0.5045  1.2819  2.3095
 4367TIP3    H234737   4.708   5.522   8.072 -1.0766  1.5781  1.7194
 4368TIP3   OH234738   6.278   4.632   1.957 -0.3811 -0.5249  0.1473
 4368TIP3    H134739   6.350   4.628   1.894 -0.3483 -2.3280  0.2479
 4368TIP3    H234740   6.199   4.640   1.904 -0.5105 -3.6600 -0.3393
 4369TIP3   OH234741   1.642   5.932   1.245  0.5550  0.6229  0.9006
 4369TIP3    H134742   1.625   5.867   1.313  1.3383 -0.7560 -0.1597
 4369TIP3    H234743   1.557   5.949   1.207  0.7249 -3.7174 -2.1651
 4370TIP3   OH234744   1.190   5.136   1.564 -0.1325 -0.1658  0.0995
 4370TIP3    H134745   1.164   5.076   1.635 -0.1169  0.4040  0.5903
 4370TIP3    H234746   1.191   5.222   1.605  1.2585 -0.0059 -0.2451
 4371TIP3   OH234747   3.917   6.489   9.070  0.0188  0.5771 -0.3759
 4371TIP3    H134748   3.994   6.546   9.080  0.5219 -0.3515  1.4868
 4371TIP3    H234749   3.884   6.478   9.159 -1.2466 -0.4521 -0.9413
 4372TIP3   OH234750   5.535   2.375   1.974  0.5523  0.1098 -0.4280
 4372TIP3    H134751   5.490   2.327   1.905 -0.4652  0.5049 -0.0539
 4372TIP3    H234752   5.520   2.324   2.053  1.2416 -0.0464 -0.3862
 4373TIP3   OH234753   0.914   2.355   2.946  0.0329 -0.5366  0.2521
 4373TIP3    H134754   0.877   2.326   2.862  0.7912 -0.7968 -0.0028
 4373TIP3    H234755   0.972   2.283   2.973  0.3660 -0.1338  0.6289
 4374TIP3   OH234756   4.639   2.114   8.674 -0.1859  0.3077 -0.0074
 4374TIP3    H134757   4.706   2.166   8.630 -0.3479 -0.0131 -0.6306
 4374TIP3    H234758   4.685   2.073   8.747  0.2048  0.4113 -0.1953
 4375TIP3   OH234759   4.765   0.927   2.649  0.7567  0.4539 -0.0947
 4375TIP3    H134760   4.748   1.016   2.616 -0.3897  0.3054  0.0670
 4375TIP3    H234761   4.853   0.932   2.685  0.3718  1.7874  0.7658
 4376TIP3   OH234762   0.620   5.804   1.523 -0.1571  0.4571  0.5752
 4376TIP3    H134763   0.624   5.711   1.498 -0.4598  0.8231 -0.9408
 4376TIP3    H234764   0.526   5.823   1.524 -0.0704  0.9138  0.1896
 4377TIP3   OH234765   0.478   5.683   8.118 -0.2618  0.1112 -0.0102
 4377TIP3    H134766   0.386   5.693   8.143  0.1918  0.3164  1.7060
 4377TIP3    H234767   0.498   5.591   8.139 -0.1558 -0.0141 -0.6631
 4378TIP3   OH234768   2.053   1.915   8.665 -0.4000 -0.2339 -0.1580
 4378TIP3    H134769   2.044   1.966   8.746  0.7214  0.9387 -0.7396
 4378TIP3    H234770   1.971   1.867   8.658 -0.6892 -0.0501  1.4680
 4379TIP3   OH234771   2.033   2.589   0.047 -0.0425 -0.2968 -0.3466
 4379TIP3    H134772   1.966   2.549   0.102  0.5862  0.2206  0.8184
 4379TIP3    H234773   2.092   2.518   0.024  0.2891 -0.3204  0.5507
 4380TIP3   OH234774   3.843   2.654   1.620  0.2541 -0.3293  0.3420
 4380TIP3    H134775   3.754   2.682   1.641 -0.0159 -1.8525  1.4370
 4380TIP3    H234776   3.851   2.666   1.526 -0.6477  1.0538  0.4243
 4381TIP3   OH234777   3.362   3.477   2.250 -0.4155  0.0177  0.2780
 4381TIP3    H134778   3.446   3.432   2.241 -0.3591 -0.1183  1.3473
 4381TIP3    H234779   3.307   3.440   2.181 -0.4119 -1.7953  1.2170
 4382TIP3   OH234780   0.757   4.195   1.445 -0.5026  0.5432 -0.6397
 4382TIP3    H134781   0.763   4.134   1.519  0.7392  0.3693 -0.8611
 4382TIP3    H234782   0.848   4.216   1.424 -0.8918  2.0981 -0.8932
 4383TIP3   OH234783   5.802   6.534   0.629 -0.0450  0.5426 -0.3766
 4383TIP3    H134784   5.838   6.603   0.573  1.8952  0.7653  1.0512
 4383TIP3    H234785   5.865   6.525   0.700 -1.5648 -0.9126  0.8825
 4384TIP3   OH234786   5.177   2.947   2.179  0.4087 -0.1875 -0.0153
 4384TIP3    H134787   5.109   2.963   2.114  0.7333 -0.7053 -0.4911
 4384TIP3    H234788   5.201   2.855   2.167  1.1039 -0.0471  0.2329
 4385TIP3   OH234789   5.032   2.895   8.713 -0.3995  0.0540  0.0868
 4385TIP3    H134790   5.085   2.899   8.633  1.7179  0.4171  1.4321
 4385TIP3    H234791   5.019   2.801   8.728 -2.0767 -0.0010 -1.4217
 4386TIP3   OH234792   1.130   5.694   1.350  0.0797 -0.4653  0.9411
 4386TIP3    H134793   1.061   5.673   1.413  0.9937  0.4238  2.2751
 4386TIP3    H234794   1.120   5.788   1.333  0.1094 -0.6110  0.0830
 4387TIP3   OH234795   5.710   1.064   0.742 -0.2175 -0.1528  0.0269
 4387TIP3    H134796   5.743   1.142   0.698  1.0670 -0.5603  0.2299
 4387TIP3    H234797   5.633   1.039   0.692  1.5318 -0.9786 -2.4145
 4388TIP3   OH234798   3.179   3.541   1.736 -0.2496 -0.3541 -0.0568
 4388TIP3    H134799   3.200   3.540   1.643  0.6004 -0.2468  0.1261
 4388TIP3    H234800   3.084   3.555   1.739 -0.1717  0.4803 -0.8984
 4389TIP3   OH234801   0.384   6.617   2.760  0.4962 -0.4122  0.4164
 4389TIP3    H134802   0.391   6.543   2.819 -0.3568 -0.8167  0.0317
 4389TIP3    H234803   0.396   6.694   2.816 -0.6662 -0.7687  1.1881
 4390TIP3   OH234804   1.300   2.060   1.436 -0.1623  0.1333 -0.2031
 4390TIP3    H134805   1.312   2.155   1.436  0.8988  0.0085  0.0324
 4390TIP3    H234806   1.356   2.028   1.366 -0.7242 -0.2984 -0.4623
 4391TIP3   OH234807   2.734   3.196   0.087 -0.0268  0.4489  0.1497
 4391TIP3    H134808   2.704   3.283   0.062 -0.6054  0.4584  0.8622
 4391TIP3    H234809   2.722   3.192   0.182 -1.5973 -0.9916 -0.0600
 4392TIP3   OH234810   1.901   2.375   2.629 -0.1312 -0.3626  0.1282
 4392TIP3    H134811   1.908   2.452   2.685  1.0370 -0.2960 -0.0633
 4392TIP3    H234812   1.825   2.327   2.662  0.6057 -0.4146  1.8792
 4393TIP3   OH234813   6.031   3.516   0.050  0.2050  0.0884  0.1927
 4393TIP3    H134814   5.971   3.562   0.107  0.5171 -0.5712  1.0804
 4393TIP3    H234815   5.987   3.433   0.030  0.7869 -0.4018  0.8546
 4394TIP3   OH234816   0.710   2.569   8.935 -0.7989 -0.1683  0.6542
 4394TIP3    H134817   0.673   2.482   8.918 -3.4332  0.6277  1.7112
 4394TIP3    H234818   0.733   2.603   8.848  2.2921 -2.5957  0.3350
 4395TIP3   OH234819   2.731   1.440   8.555  0.1979 -0.0734 -0.2427
 4395TIP3    H134820   2.809   1.385   8.555  0.3864  0.1868  0.1080
 4395TIP3    H234821   2.761   1.524   8.520  0.2466  0.2540  0.5558
 4396TIP3   OH234822   2.161   2.322   8.677  0.1533 -0.3030  0.4725
 4396TIP3    H134823   2.153   2.251   8.613  2.0484  0.1883 -0.3723
 4396TIP3    H234824   2.243   2.366   8.654 -0.4026  1.4595  1.6927
 4397TIP3   OH234825   2.941   4.200   1.049 -0.1869 -0.0143 -0.2798
 4397TIP3    H134826   2.879   4.140   1.091  0.6606 -0.3299  0.5658
 4397TIP3    H234827   3.016   4.203   1.109  1.3805 -1.0048 -2.0771
 4398TIP3   OH234828   5.242   2.417   0.032  0.1960  0.1189  0.3267
 4398TIP3    H134829   5.263   2.503  -0.004  0.9490 -0.3153 -0.3085
 4398TIP3    H234830   5.288   2.414   0.116  2.5027 -0.6625 -0.8559
 4399TIP3   OH234831   3.520   4.625   8.533 -0.7976  0.2148  0.0868
 4399TIP3    H134832   3.430   4.655   8.517 -0.9692 -0.1327  0.4048
 4399TIP3    H234833   3.572   4.676   8.471 -1.5546 -1.9068 -2.4877
 4400TIP3   OH234834   5.272   5.607   0.545  0.4788 -0.4765  0.3585
 4400TIP3    H134835   5.291   5.655   0.626 -0.0603 -0.8971  0.7360
 4400TIP3    H234836   5.357   5.570   0.520  0.9790  0.9129 -0.1110
 4401TIP3   OH234837   0.834   5.538   0.791 -0.0933 -0.4137 -0.8489
 4401TIP3    H134838   0.922   5.538   0.827  0.2051 -0.6910 -1.5571
 4401TIP3    H234839   0.799   5.625   0.813  0.6817  0.0364 -1.3321
 4402TIP3   OH234840   6.660   0.077   9.209  0.4226  0.0552 -0.5308
 4402TIP3    H134841   6.690  -0.013   9.196  0.0684 -0.0010 -0.9755
 4402TIP3    H234842   6.565   0.069   9.217  0.5777  0.0931  2.0487
 4403TIP3   OH234843   1.784   1.840   0.983  0.4214  0.5161  0.3776
 4403TIP3    H134844   1.727   1.779   0.937 -0.8172  0.2876  2.1188
 4403TIP3    H234845   1.737   1.861   1.064  1.9396  1.8572  0.9726
 4404TIP3   OH234846   3.280   4.554   8.991  0.1179 -0.2539  0.4534
 4404TIP3    H134847   3.313   4.631   8.945 -0.5451 -0.2947 -0.0957
 4404TIP3    H234848   3.319   4.480   8.946 -0.6714 -0.3008 -0.1713
 4405TIP3   OH234849   2.750   0.193   7.676 -0.4123 -0.0885 -0.4736
 4405TIP3    H134850   2.673   0.249   7.690 -1.6062 -1.8574  0.3667
 4405TIP3    H234851   2.821   0.238   7.721 -1.2346  0.9353 -0.1516
 4406TIP3   OH234852   1.447   1.766   8.822 -0.6767 -0.1020  0.0672
 4406TIP3    H134853   1.407   1.794   8.739 -2.2809  1.3368  1.2663
 4406TIP3    H234854   1.511   1.834   8.842  0.2500 -0.8370 -0.3334
 4407TIP3   OH234855   3.408   4.142   0.523 -0.4521 -0.2839  0.1125
 4407TIP3    H134856   3.493   4.114   0.487 -0.1032 -1.9190  2.0179
 4407TIP3    H234857   3.344   4.112   0.459  0.3432  0.7928 -1.2629
 4408TIP3   OH234858   1.400   4.810   8.159  0.1373  0.0397 -0.5799
 4408TIP3    H134859   1.398   4.717   8.137  0.1781 -0.3501  0.9341
 4408TIP3    H234860   1.444   4.813   8.244  2.0051  1.6569 -1.5373
 4409TIP3   OH234861   0.447   3.434   2.335  0.0318  0.2131  0.5743
 4409TIP3    H134862   0.477   3.504   2.393 -0.9997  2.4346 -1.4152
 4409TIP3    H234863   0.360   3.411   2.367  1.4135 -2.3482  2.9717
 4410TIP3   OH234864   4.589   0.655   9.164 -0.2817 -0.1174 -0.0839
 4410TIP3    H134865   4.637   0.673   9.083 -0.5377 -0.5455 -0.3383
 4410TIP3    H234866   4.499   0.681   9.144 -0.1894  0.5331  0.3369
 4411TIP3   OH234867   2.602   3.796   0.022 -0.1138  0.2814 -0.5520
 4411TIP3    H134868   2.530   3.745   0.060  0.0573  1.9073  2.1766
 4411TIP3    H234869   2.559   3.858  -0.038 -0.8029  0.1279 -0.2194
 4412TIP3   OH234870   4.659   3.693   9.018  0.5445 -0.1914 -0.1042
 4412TIP3    H134871   4.627   3.690   8.928 -0.7846 -0.9874  0.3755
 4412TIP3    H234872   4.581   3.707   9.071  1.2170 -0.4427  0.9823
 4413TIP3   OH234873   4.966   1.824   1.519 -0.2364  0.5263 -0.5626
 4413TIP3    H134874   4.908   1.758   1.482 -0.2890  1.2474 -1.8090
 4413TIP3    H234875   5.014   1.777   1.588 -1.6874 -0.2835 -0.0555
 4414TIP3   OH234876   5.594   5.656   8.771 -0.2648  0.0528  0.2546
 4414TIP3    H134877   5.632   5.590   8.713 -0.6802 -1.1730  1.3406
 4414TIP3    H234878   5.503   5.663   8.743  0.0364  0.9853 -0.5577
 4415TIP3   OH234879   0.252   0.053   2.150  0.4736 -0.0613  0.4456
 4415TIP3    H134880   0.258   0.145   2.177 -0.2764  0.5833 -1.4234
 4415TIP3    H234881   0.340   0.018   2.164  0.4718  0.5564  2.3448
 4416TIP3   OH234882   1.233   4.819   8.492  0.2377 -0.5484  0.0785
 4416TIP3    H134883   1.193   4.830   8.578 -0.9160 -1.5168 -0.3065
 4416TIP3    H234884   1.163   4.781   8.438  1.0368 -0.2530 -1.1981
 4417TIP3   OH234885   2.828   3.885   1.690 -0.0665 -0.3952 -0.0170
 4417TIP3    H134886   2.908   3.935   1.704  0.7568 -1.5984 -0.3110
 4417TIP3    H234887   2.760   3.938   1.732  0.7845  0.8811 -0.1675
 4418TIP3   OH234888   5.927   4.196   0.301 -0.0181 -0.1236 -0.1270
 4418TIP3    H134889   5.916   4.286   0.271  1.2317  0.8041  1.9649
 4418TIP3    H234890   6.013   4.196   0.344 -0.4191 -2.0696  0.7499
 4419TIP3   OH234891   1.189   0.103   0.931  0.7358 -0.4091  0.1341
 4419TIP3    H134892   1.267   0.108   0.876  0.3923 -1.2353 -0.4514
 4419TIP3    H234893   1.222   0.083   1.018  1.2493  0.3381  0.1216
 4420TIP3   OH234894   3.538   3.836   8.369  0.0982  0.2211  0.0060
 4420TIP3    H134895   3.575   3.749   8.375 -0.9766 -0.4396 -2.0697
 4420TIP3    H234896   3.587   3.879   8.299 -1.4267  0.1464 -1.1564
 4421TIP3   OH234897   6.285   1.160   2.213  0.6895  0.8222  0.2629
 4421TIP3    H134898   6.233   1.087   2.179  0.3348 -0.2592  2.8788
 4421TIP3    H234899   6.282   1.226   2.143  0.9356 -1.5537 -2.1731
 4422TIP3   OH234900   0.263   3.078   8.859 -0.3813  0.7658  0.6988
 4422TIP3    H134901   0.340   3.114   8.815  0.2432 -2.0561 -0.7675
 4422TIP3    H234902   0.298   3.037   8.938 -0.4604 -0.0066  0.3354
 4423TIP3   OH234903   4.617   5.114   8.584 -0.2189 -0.1234 -0.4006
 4423TIP3    H134904   4.673   5.037   8.597  0.1176  0.3359  1.0956
 4423TIP3    H234905   4.577   5.100   8.498  0.6318 -1.4555 -0.6179
 4424TIP3   OH234906   0.021   4.588   2.470 -0.3212  0.3132  0.0981
 4424TIP3    H134907   0.111   4.556   2.475 -0.4244  0.1787  1.6659
 4424TIP3    H234908  -0.032   4.510   2.453 -0.2073  0.2778 -0.0947
 4425TIP3   OH234909   6.444   5.819   2.521  0.3488 -0.5516  0.0202
 4425TIP3    H134910   6.519   5.865   2.559  0.6050 -0.8476 -0.1257
 4425TIP3    H234911   6.461   5.726   2.537  1.0988 -0.7916 -1.9150
 4426TIP3   OH234912   5.523   4.338   0.602 -0.0720  0.8263 -0.1148
 4426TIP3    H134913   5.585   4.387   0.656 -0.7151  0.4110  1.0331
 4426TIP3    H234914   5.578   4.291   0.540  0.9320 -0.5981  1.7260
 4427TIP3   OH234915   3.557   0.091   8.412  0.6010 -0.2149 -0.3696
 4427TIP3    H134916   3.540   0.185   8.410 -0.4032 -0.3712 -0.1794
 4427TIP3    H234917   3.624   0.076   8.345  0.9713  0.6668 -0.1990
 4428TIP3   OH234918   4.503   5.035   8.889 -0.3946 -0.2648 -0.2846
 4428TIP3    H134919   4.578   4.976   8.891 -0.0137  0.1975 -0.6901
 4428TIP3    H234920   4.464   5.028   8.976  0.6256  0.1416  0.2220
 4429TIP3   OH234921   5.921   5.973   1.274  0.2036 -0.3462 -0.2356
 4429TIP3    H134922   5.906   6.032   1.348  1.8575 -0.3903  0.1707
 4429TIP3    H234923   5.939   6.032   1.200 -0.8658 -0.3165 -0.4935
 4430TIP3   OH234924   4.459   6.272   1.724 -0.0278 -0.0577  0.2334
 4430TIP3    H134925   4.411   6.354   1.735 -0.4094  0.0562 -1.7889
 4430TIP3    H234926   4.458   6.232   1.810 -1.8012  1.0140  0.7776
 4431TIP3   OH234927   4.978   3.564   0.536  0.6318  0.3805  0.1429
 4431TIP3    H134928   5.039   3.495   0.564 -1.6380 -1.1817  1.5889
 4431TIP3    H234929   4.900   3.550   0.590  0.1192  4.2900  0.6510
 4432TIP3   OH234930   4.590   2.296   0.779  0.3382  0.0664 -0.3078
 4432TIP3    H134931   4.642   2.319   0.703 -1.2027 -1.4355 -1.9246
 4432TIP3    H234932   4.499   2.314   0.753 -0.2291 -0.3669  1.2200
 4433TIP3   OH234933   3.816   2.060   1.617  0.8967 -0.3916  0.4394
 4433TIP3    H134934   3.795   2.081   1.525 -0.5264  1.8307  1.1734
 4433TIP3    H234935   3.732   2.033   1.655  1.1392  0.2178  1.4414
 4434TIP3   OH234936   1.748   4.708   8.526 -0.2781  0.1055  0.0789
 4434TIP3    H134937   1.730   4.708   8.620  0.2397  0.9229  0.1919
 4434TIP3    H234938   1.758   4.616   8.503 -0.2832 -0.0936  0.8534
 4435TIP3   OH234939   4.633   3.215   1.106 -0.3476  0.0562 -0.2562
 4435TIP3    H134940   4.725   3.189   1.096  0.0743  1.1066  0.6616
 4435TIP3    H234941   4.613   3.192   1.197 -1.1051 -0.4746 -0.5533
 4436TIP3   OH234942   4.732   4.903   1.323 -0.1294 -0.0276  0.1456
 4436TIP3    H134943   4.776   4.984   1.296 -0.3460 -0.1702 -0.6804
 4436TIP3    H234944   4.639   4.926   1.326 -0.1745 -0.1937  0.0716
 4437TIP3   OH234945   0.972   5.603   8.824  0.0916 -0.4275 -0.1609
 4437TIP3    H134946   0.945   5.522   8.782  0.0860  0.0893 -1.1746
 4437TIP3    H234947   0.913   5.670   8.789 -0.2374 -0.0582  1.0440
 4438TIP3   OH234948   4.102   6.421   1.216  1.0881  0.6161  0.5938
 4438TIP3    H134949   4.130   6.363   1.286  0.1862 -1.5697 -0.7705
 4438TIP3    H234950   4.065   6.497   1.261 -1.2243 -1.5163  2.5937
 4439TIP3   OH234951   0.450   4.940   8.170 -0.5603  0.5074  0.0051
 4439TIP3    H134952   0.483   5.017   8.123  0.6593  1.0633  1.6675
 4439TIP3    H234953   0.521   4.917   8.230 -1.3532 -1.2521  0.3252
 4440TIP3   OH234954   2.346   5.057   0.564 -0.0344  0.0807 -0.0397
 4440TIP3    H134955   2.418   5.007   0.526 -1.7005 -1.0808 -1.8703
 4440TIP3    H234956   2.267   5.022   0.522 -1.7934  0.6775  2.5241
 4441TIP3   OH234957   1.564   5.205   7.303  0.2808  0.1414 -0.4988
 4441TIP3    H134958   1.537   5.249   7.384  0.1739  2.6437 -1.7936
 4441TIP3    H234959   1.655   5.232   7.291  0.7516 -1.3551 -0.5572
 4442TIP3   OH234960   1.703   0.144   0.890 -0.0830  0.3960  0.1753
 4442TIP3    H134961   1.690   0.050   0.890  0.4344  0.3146 -0.7432
 4442TIP3    H234962   1.757   0.161   0.813 -0.0779  1.4289  0.3909
 4443TIP3   OH234963   5.677   0.218   0.040  0.4379  0.2680 -0.0862
 4443TIP3    H134964   5.645   0.246   0.126  0.2823  0.5430 -0.2301
 4443TIP3    H234965   5.635   0.279  -0.021  0.7274  0.2179 -0.3345
 4444TIP3   OH234966   1.956   5.982   0.990 -0.0162  0.9037  0.4931
 4444TIP3    H134967   1.875   5.931   0.996  0.3229  0.3535  0.4214
 4444TIP3    H234968   1.929   6.064   0.949  0.1596 -0.9263 -3.7861
 4445TIP3   OH234969   6.674   1.897   9.063  0.1503 -0.0059 -0.1352
 4445TIP3    H134970   6.713   1.892   8.976 -0.8294  0.2996 -0.5994
 4445TIP3    H234971   6.643   1.809   9.082 -3.9091  0.7541 -2.1449
 4446TIP3   OH234972   4.137   3.476   2.298  0.0663 -0.0167 -0.0222
 4446TIP3    H134973   4.186   3.395   2.283  0.1938  0.4081 -2.0912
 4446TIP3    H234974   4.062   3.448   2.350  1.7927 -0.8734  2.2156
 4447TIP3   OH234975   6.656   4.919   0.655  0.2641 -0.0806  0.4832
 4447TIP3    H134976   6.678   4.944   0.745 -0.5250  2.9743 -0.0420
 4447TIP3    H234977   6.560   4.923   0.652  0.1384 -2.3766  0.0148
 4448TIP3   OH234978   6.565   5.704   0.838  1.0136  0.6335 -0.0016
 4448TIP3    H134979   6.473   5.690   0.817  1.1039  1.7273 -1.2876
 4448TIP3    H234980   6.583   5.793   0.807  1.9055  1.3611  2.3801
 4449TIP3   OH234981   1.642   1.054   8.291  0.0679  0.2380 -0.2631
 4449TIP3    H134982   1.629   0.961   8.276 -0.5180  0.0890  1.0831
 4449TIP3    H234983   1.557   1.087   8.319  0.8004  0.6710  1.6470
 4450TIP3   OH234984   4.743   4.499   0.159  0.4855 -0.4797  0.4956
 4450TIP3    H134985   4.825   4.507   0.111 -0.3380 -1.4366 -1.1982
 4450TIP3    H234986   4.700   4.584   0.148  0.5236 -0.5312 -0.0924
 4451TIP3   OH234987   5.096   5.356   0.108 -0.1408 -0.2515  0.4132
 4451TIP3    H134988   5.136   5.297   0.044  2.6860  0.3415  1.4569
 4451TIP3    H234989   5.076   5.300   0.182 -1.7736 -0.6337 -0.2835
 4452TIP3   OH234990   5.989   1.860   3.029 -0.3833 -0.6854  0.1917
 4452TIP3    H134991   6.012   1.855   2.936 -1.2640 -1.1833 -0.0111
 4452TIP3    H234992   6.072   1.849   3.075 -0.0371 -1.1944 -0.5297
 4453TIP3   OH234993   1.874   5.830   9.132 -0.0506  0.0020 -0.2609
 4453TIP3    H134994   1.799   5.881   9.102 -0.1387 -0.9765 -1.7923
 4453TIP3    H234995   1.923   5.809   9.053  1.8148  0.5196  0.6922
 4454TIP3   OH234996   2.127   4.505   1.143 -0.4737 -0.3510  0.9638
 4454TIP3    H134997   2.222   4.505   1.130 -0.4276  0.9996  1.0820
 4454TIP3    H234998   2.112   4.443   1.214  0.2563 -0.9957  0.5677
 4455TIP3   OH234999   4.074   0.684   2.873  0.2463 -0.0118  0.3316
 4455TIP3    H135000   3.988   0.700   2.912 -1.3002 -0.2531 -2.6747
 4455TIP3    H235001   4.096   0.594   2.900 -1.8948 -1.0709 -1.1535
 4456TIP3   OH235002   4.885   4.275   0.360  0.0561 -0.0577 -0.3045
 4456TIP3    H135003   4.890   4.369   0.340 -0.3266 -0.0300 -0.2839
 4456TIP3    H235004   4.871   4.234   0.275 -1.9049  0.0868 -0.0975
 4457TIP3   OH235005   6.465   4.033   0.280 -0.2786 -0.1709 -0.1083
 4457TIP3    H135006   6.521   4.110   0.274  0.1928 -0.4063  1.0009
 4457TIP3    H235007   6.525   3.960   0.292 -0.7685 -0.5683 -0.0273
 4458TIP3   OH235008   3.200   0.485   0.468  0.6267 -0.2871 -0.0545
 4458TIP3    H135009   3.234   0.398   0.490  1.1086 -0.3751 -1.1039
 4458TIP3    H235010   3.108   0.482   0.493  1.2855 -0.1070  2.7120
 4459TIP3   OH235011   5.172   1.356   3.120 -0.2359  0.0530  0.4569
 4459TIP3    H135012   5.239   1.423   3.135  0.9042 -1.3673  2.1641
 4459TIP3    H235013   5.202   1.281   3.171 -2.4611 -1.1115  0.1580
 4460TIP3   OH235014   5.101   2.952   1.834 -0.0223  0.3456 -0.1464
 4460TIP3    H135015   5.113   3.034   1.786 -0.3344 -0.1776 -1.1420
 4460TIP3    H235016   5.188   2.930   1.866  0.3774  0.2106 -1.2966
 4461TIP3   OH235017   4.722   4.850   0.647  0.2428 -0.3608  0.2653
 4461TIP3    H135018   4.687   4.892   0.725 -0.3540  0.8060 -0.6065
 4461TIP3    H235019   4.684   4.898   0.574  1.0794 -1.1866 -0.7550
 4462TIP3   OH235020   2.667   2.779   1.065 -0.2596  0.0565 -0.0068
 4462TIP3    H135021   2.665   2.748   0.975 -0.6121  0.1876 -0.0499
 4462TIP3    H235022   2.574   2.789   1.088 -0.1731 -0.0453  0.3925
 4463TIP3   OH235023   0.401   1.933   7.951  0.8392 -0.0282 -0.0472
 4463TIP3    H135024   0.414   1.864   7.886  1.1965 -1.0502  1.0597
 4463TIP3    H235025   0.388   2.013   7.900 -1.7587 -1.2192 -1.4357
 4464TIP3   OH235026   3.980   2.477   0.375 -0.6204 -0.1663  0.1834
 4464TIP3    H135027   4.014   2.456   0.462 -3.1434 -2.9614  0.6638
 4464TIP3    H235028   4.056   2.508   0.326  1.6330 -1.9132  2.3241
 4465TIP3   OH235029   4.646   2.572   2.054 -0.9642  0.5996 -0.5267
 4465TIP3    H135030   4.680   2.551   1.967 -5.0105  0.6322 -2.3517
 4465TIP3    H235031   4.699   2.646   2.084  1.7586 -0.5968 -2.0515
 4466TIP3   OH235032   5.609   3.509   8.557 -0.2859  0.0259 -0.2909
 4466TIP3    H135033   5.618   3.431   8.612  0.7728  0.5381  0.2990
 4466TIP3    H235034   5.524   3.499   8.515 -1.4109 -0.0978  1.8883
 4467TIP3   OH235035   3.614   2.738   0.904  0.1252 -0.3574  0.2423
 4467TIP3    H135036   3.603   2.750   0.998 -1.3047  0.3758  0.0006
 4467TIP3    H235037   3.595   2.824   0.866 -1.1821 -1.0834 -0.8441
 4468TIP3   OH235038   0.872   4.788   2.323 -0.6691 -0.2552  0.2981
 4468TIP3    H135039   0.967   4.779   2.329 -0.4895  1.5136  0.7157
 4468TIP3    H235040   0.856   4.805   2.230 -0.7708 -2.0617 -0.0521
 4469TIP3   OH235041   6.229   2.636   3.008 -0.2436 -0.3636 -0.5258
 4469TIP3    H135042   6.273   2.551   2.999  1.0108 -0.0283  1.8224
 4469TIP3    H235043   6.164   2.623   3.077 -0.0149  0.5931 -0.1164
 4470TIP3   OH235044   2.095   1.654   1.862 -0.1631 -0.0614  0.3179
 4470TIP3    H135045   2.095   1.561   1.885 -1.2643 -0.8654 -2.5645
 4470TIP3    H235046   2.165   1.663   1.797 -1.4290  0.6183 -1.0154
 4471TIP3   OH235047   4.586   4.256   0.469 -0.6103 -0.0477  0.1534
 4471TIP3    H135048   4.624   4.171   0.445  1.1670  0.7408  0.0194
 4471TIP3    H235049   4.616   4.271   0.559  0.1284  0.9518 -0.2323
 4472TIP3   OH235050   5.181   1.035   0.886  0.1531  0.5033  0.1443
 4472TIP3    H135051   5.216   1.094   0.818 -2.0801  0.5707 -1.0402
 4472TIP3    H235052   5.110   1.085   0.926  0.2408 -0.2554  1.2756
 4473TIP3   OH235053   4.535   2.332   2.368 -0.4510 -0.4138  0.3157
 4473TIP3    H135054   4.538   2.284   2.450 -0.1212  0.6125  0.9148
 4473TIP3    H235055   4.602   2.400   2.377  0.0024 -0.6468 -1.0290
 4474TIP3   OH235056   5.082   5.012   0.958  0.1040  0.3706 -0.2599
 4474TIP3    H135057   5.037   4.936   0.995 -0.9509  1.8127  1.6272
 4474TIP3    H235058   5.012   5.073   0.936  0.9959  1.9711  1.0871
 4475TIP3   OH235059   6.700   5.203   8.557  0.0235 -0.0112 -0.2824
 4475TIP3    H135060   6.681   5.162   8.473  1.9080  0.8191 -1.1899
 4475TIP3    H235061   6.627   5.262   8.573 -0.8718 -0.9482 -0.7892
 4476TIP3   OH235062   2.475   3.802   0.521 -0.1871 -0.2093 -0.2279
 4476TIP3    H135063   2.531   3.730   0.551 -0.7192 -0.2034  0.8287
 4476TIP3    H235064   2.501   3.877   0.576  0.7787  0.6031 -1.7181
 4477TIP3   OH235065   1.503   1.989   7.990 -0.2834  0.0485  0.2050
 4477TIP3    H135066   1.535   2.042   7.917 -0.3570 -0.4072 -0.1649
 4477TIP3    H235067   1.411   2.013   7.998  0.0585  1.1376  1.0738
 4478TIP3   OH235068   0.429   1.772   8.240 -0.1203  0.2226  0.3529
 4478TIP3    H135069   0.441   1.778   8.335 -1.9915  1.9277  0.5417
 4478TIP3    H235070   0.441   1.679   8.221  0.3587 -0.1578  2.2358
 4479TIP3   OH235071   4.913   4.256   7.318  0.0636 -0.0147 -0.1389
 4479TIP3    H135072   4.830   4.276   7.276 -0.5153 -0.7702  0.6058
 4479TIP3    H235073   4.980   4.288   7.258 -0.7670  0.4480 -0.8217
 4480TIP3   OH235074   5.527   6.409   2.861  0.1550  0.1953  0.1114
 4480TIP3    H135075   5.434   6.398   2.846 -0.3004  0.6625  2.2885
 4480TIP3    H235076   5.558   6.322   2.885 -0.2608  0.4809  1.8138
 4481TIP3   OH235077   1.429   1.462   2.233  0.5137  0.1264  0.2456
 4481TIP3    H135078   1.358   1.526   2.225  0.1831 -0.4091 -1.5672
 4481TIP3    H235079   1.508   1.514   2.241  0.2214  0.7919 -0.9219
 4482TIP3   OH235080   2.014   2.249   0.582 -0.1329 -0.3266  0.1831
 4482TIP3    H135081   2.036   2.275   0.671 -1.4687 -0.0243  0.4383
 4482TIP3    H235082   2.048   2.159   0.574  0.6916 -0.0754  0.7126
 4483TIP3   OH235083   5.646   5.792   0.053 -0.0443 -0.5367 -0.3355
 4483TIP3    H135084   5.625   5.708   0.093  1.0245 -0.5126  0.3031
 4483TIP3    H235085   5.683   5.769  -0.032  0.5354 -0.7267 -0.0326
 4484TIP3   OH235086   0.187   2.691   0.589  0.1302  0.0321  0.1187
 4484TIP3    H135087   0.281   2.706   0.601  0.5540  0.2446 -2.6874
 4484TIP3    H235088   0.148   2.778   0.596 -0.2129 -0.2618  3.1328
 4485TIP3   OH235089   0.938   5.179   2.267 -0.2139 -0.9377 -0.0529
 4485TIP3    H135090   0.947   5.274   2.255 -1.3972 -0.6240  1.3812
 4485TIP3    H235091   0.945   5.165   2.361 -1.4399 -2.1150 -0.1018
 4486TIP3   OH235092   5.276   1.269   7.605 -1.0597 -0.5576  0.8046
 4486TIP3    H135093   5.201   1.214   7.583 -0.4442 -1.0664 -0.0939
 4486TIP3    H235094   5.350   1.209   7.605  0.1855  0.6460 -3.3470
 4487TIP3   OH235095   0.880   3.425   7.639 -0.3260  0.1441 -0.2231
 4487TIP3    H135096   0.793   3.390   7.618 -1.5317  1.6456  1.8800
 4487TIP3    H235097   0.921   3.438   7.554 -1.9591 -1.0595 -1.2725
 4488TIP3   OH235098   1.946   2.673   9.011  0.1743  0.4652  0.1213
 4488TIP3    H135099   1.963   2.595   8.959 -0.0832  0.5896 -0.1526
 4488TIP3    H235100   1.943   2.642   9.101  0.1964  0.1806  0.0240
 4489TIP3   OH235101   3.062   4.776   8.984  0.5988 -0.2894  0.1107
 4489TIP3    H135102   3.085   4.866   9.008  0.4657 -0.4817  1.0238
 4489TIP3    H235103   3.053   4.731   9.069  0.0942 -1.0164 -0.3207
 4490TIP3   OH235104   0.185   1.003   0.377 -0.2687  0.0997 -0.1751
 4490TIP3    H135105   0.264   1.039   0.336  0.1996 -0.0165  0.6088
 4490TIP3    H235106   0.173   1.056   0.456 -1.5551  0.7762 -0.7797
 4491TIP3   OH235107   5.521   2.087   7.707 -0.5463 -0.9071  0.4641
 4491TIP3    H135108   5.496   2.179   7.713  1.7714 -0.0257 -1.7370
 4491TIP3    H235109   5.458   2.049   7.645 -1.4999 -0.8174  1.3694
 4492TIP3   OH235110   1.283   0.916   8.410  0.4198  0.1340  0.6850
 4492TIP3    H135111   1.243   0.841   8.365 -2.1591  0.8403  1.5922
 4492TIP3    H235112   1.330   0.878   8.484 -2.1568 -0.6134  2.0600
 4493TIP3   OH235113   0.182   6.009   2.741 -0.6524 -0.1764  0.1526
 4493TIP3    H135114   0.087   6.009   2.726 -0.9953  1.3796  1.8816
 4493TIP3    H235115   0.213   6.087   2.696 -0.8600  1.4736  2.6893
 4494TIP3   OH235116   0.768   0.389   0.974 -0.9979 -0.2830  0.2576
 4494TIP3    H135117   0.836   0.350   0.919 -1.6334 -2.2969  0.8074
 4494TIP3    H235118   0.764   0.481   0.946  1.7866 -0.1189  0.0837
 4495TIP3   OH235119   5.232   4.607   0.761  0.3987 -0.5203 -0.0177
 4495TIP3    H135120   5.162   4.667   0.737  1.3550 -0.0653 -1.9530
 4495TIP3    H235121   5.297   4.661   0.805  1.0911 -0.1294 -1.4294
 4496TIP3   OH235122   3.713   6.304   8.998 -0.7279  0.2601  0.3192
 4496TIP3    H135123   3.717   6.278   8.905 -1.4590  0.3740  0.2503
 4496TIP3    H235124   3.789   6.361   9.010  0.5643 -1.3671  0.3162
 4497TIP3   OH235125   2.127   1.992   0.567  0.5220  0.0086  0.1705
 4497TIP3    H135126   2.174   2.024   0.490  1.8175 -0.3847  0.7854
 4497TIP3    H235127   2.132   1.897   0.560  3.2123 -0.0984  2.2098
 4498TIP3   OH235128   4.556   6.359   8.794  0.2143  0.5108  0.1715
 4498TIP3    H135129   4.609   6.324   8.723 -0.3760 -2.1090  0.9294
 4498TIP3    H235130   4.479   6.302   8.798 -1.0362  2.1561  1.2750
 4499TIP3   OH235131   2.358   1.514   2.386  0.1251 -0.0003  0.0786
 4499TIP3    H135132   2.289   1.559   2.337  0.5902 -0.3115 -0.8919
 4499TIP3    H235133   2.345   1.541   2.476 -0.9721  0.3269 -0.1622
 4500TIP3   OH235134   2.484   5.205   1.687 -0.0410 -0.0445 -0.4521
 4500TIP3    H135135   2.564   5.160   1.713 -0.2440 -0.4260 -0.4706
 4500TIP3    H235136   2.422   5.187   1.758  0.0049  0.5751 -0.2466
 4501TIP3   OH235137   4.888   1.859   8.509 -0.1639 -0.8203  0.3597
 4501TIP3    H135138   4.797   1.835   8.525 -0.5123  0.1561 -0.0578
 4501TIP3    H235139   4.922   1.881   8.595 -0.8913  0.6400  0.3075
 4502TIP3   OH235140   1.144   2.989   1.824  0.7299  0.0745 -0.5184
 4502TIP3    H135141   1.120   3.047   1.897  0.3659 -2.3422  1.4010
 4502TIP3    H235142   1.068   2.993   1.765  0.4459  1.0375 -0.1110
 4503TIP3   OH235143   3.639   3.289   2.832  0.6702  0.3142 -0.0585
 4503TIP3    H135144   3.594   3.362   2.876  0.3883  0.2959 -0.3126
 4503TIP3    H235145   3.715   3.271   2.887 -1.3883 -1.9204  2.3253
 4504TIP3   OH235146   1.438   3.563   0.604 -0.3355  0.2587  0.1913
 4504TIP3    H135147   1.387   3.638   0.575 -0.5288  0.0934  0.1005
 4504TIP3    H235148   1.390   3.487   0.571  0.8094  0.1340 -1.2761
 4505TIP3   OH235149   4.652   3.060   2.594 -0.2192  0.5342 -0.3675
 4505TIP3    H135150   4.608   3.118   2.657 -0.4835 -0.8158  0.7390
 4505TIP3    H235151   4.590   3.052   2.522 -0.6577  0.7598 -0.0251
 4506TIP3   OH235152   3.751   5.367   0.603  0.1073  0.5458  0.2189
 4506TIP3    H135153   3.664   5.339   0.576 -0.2149 -1.3741  2.8871
 4506TIP3    H235154   3.741   5.458   0.630 -1.0266  0.3816  0.3726
 4507TIP3   OH235155   4.105   0.441   3.058  0.2374 -0.0330 -0.0321
 4507TIP3    H135156   4.163   0.381   3.012  0.8136 -0.8987  1.7587
 4507TIP3    H235157   4.019   0.400   3.053  0.4822 -0.6218  0.5002
 4508TIP3   OH235158   1.346   3.421   6.910 -0.7527  0.2540 -0.5722
 4508TIP3    H135159   1.315   3.343   6.864 -1.4824  0.2975 -0.1693
 4508TIP3    H235160   1.267   3.474   6.923 -0.5463  0.3083  0.5988
 4509TIP3   OH235161   3.379   1.846   0.272 -0.2319 -0.7425 -0.5784
 4509TIP3    H135162   3.449   1.783   0.283  1.3755  0.9294 -0.7507
 4509TIP3    H235163   3.345   1.829   0.184 -0.0957 -1.5921 -0.4772
 4510TIP3   OH235164   5.975   4.412   1.811  0.6972  0.2805 -0.0944
 4510TIP3    H135165   6.058   4.365   1.799 -0.0297 -2.0489  2.6630
 4510TIP3    H235166   5.936   4.371   1.889 -2.4175  2.2213 -0.4624
 4511TIP3   OH235167   2.648   3.444   1.968  0.1866  0.7309  0.6301
 4511TIP3    H135168   2.591   3.521   1.970  2.0549  2.2735 -1.2764
 4511TIP3    H235169   2.608   3.385   1.904 -0.5892  0.6426  1.1846
 4512TIP3   OH235170   3.001   3.615   1.326 -0.6693 -0.3771 -0.0086
 4512TIP3    H135171   2.945   3.689   1.351 -0.0272  0.7485 -1.6896
 4512TIP3    H235172   2.984   3.602   1.233  0.7735 -0.9610 -0.2194
 4513TIP3   OH235173   4.639   2.119   7.471 -0.8443  0.4979  0.7680
 4513TIP3    H135174   4.718   2.092   7.423 -0.3517 -0.0647  1.8494
 4513TIP3    H235175   4.619   2.044   7.527 -1.5509  1.0364  1.2547
 4514TIP3   OH235176   6.234   0.646   0.807  0.1479 -0.1367 -0.4583
 4514TIP3    H135177   6.158   0.640   0.865 -0.0316 -1.8509 -0.7996
 4514TIP3    H235178   6.309   0.634   0.865  0.1313  0.8316 -0.2228
 4515TIP3   OH235179   5.767   2.077   8.894  0.1691 -0.1750  0.0731
 4515TIP3    H135180   5.769   2.127   8.812  1.4023 -1.1827 -0.5453
 4515TIP3    H235181   5.680   2.038   8.896 -0.2294  0.6779 -0.2461
 4516TIP3   OH235182   1.467   0.525   0.765 -0.1631  0.2267 -0.6675
 4516TIP3    H135183   1.437   0.447   0.719 -1.9622  0.4454  0.0442
 4516TIP3    H235184   1.490   0.494   0.853 -1.0318  0.5045 -0.3332
 4517TIP3   OH235185   5.046   3.562   8.537  0.1362  0.4614 -0.3874
 4517TIP3    H135186   5.025   3.571   8.629 -1.7349  2.1100 -0.9206
 4517TIP3    H235187   5.027   3.470   8.517  1.5733 -0.1971  1.0445
 4518TIP3   OH235188   1.322   2.685   1.155 -0.2353  0.6107  0.0406
 4518TIP3    H135189   1.367   2.756   1.110  0.0792 -0.1066 -0.7982
 4518TIP3    H235190   1.392   2.627   1.185 -0.5466 -0.1078 -0.5886
 4519TIP3   OH235191   1.159   3.877   1.663  0.3550 -0.7327 -0.2530
 4519TIP3    H135192   1.120   3.880   1.575 -1.9665 -0.3460  0.7170
 4519TIP3    H235193   1.253   3.881   1.647  0.0869 -2.0163 -2.7786
 4520TIP3   OH235194   5.913   5.764   0.779  0.0099 -0.0632 -0.3922
 4520TIP3    H135195   5.855   5.836   0.752 -3.1691 -1.8433  1.0919
 4520TIP3    H235196   5.975   5.805   0.839 -0.2178  1.8193 -1.3709
 4521TIP3   OH235197   2.106   1.866   3.181  0.4195  0.1648  0.0296
 4521TIP3    H135198   2.072   1.806   3.115 -1.8755 -1.4382  2.4146
 4521TIP3    H235199   2.193   1.833   3.201  0.6156 -0.1293 -1.2448
 4522TIP3   OH235200   3.411   0.980   0.246 -0.5540 -0.3288  0.4719
 4522TIP3    H135201   3.328   0.948   0.210 -0.4170  0.2903 -0.4283
 4522TIP3    H235202   3.420   1.069   0.211  1.1959 -0.9053 -0.6923
 4523TIP3   OH235203   3.218   4.713   2.835  0.2313 -0.6299  0.3724
 4523TIP3    H135204   3.147   4.759   2.790  1.9723  0.3315 -1.5639
 4523TIP3    H235205   3.181   4.689   2.919 -1.7707  1.6067  0.2457
 4524TIP3   OH235206   5.589   1.228   7.947 -0.2993 -0.2796 -0.5338
 4524TIP3    H135207   5.623   1.273   7.870  0.7846 -1.0084 -0.5070
 4524TIP3    H235208   5.529   1.290   7.987 -0.2369  0.4241 -1.5080
 4525TIP3   OH235209   4.197   2.437   2.540 -0.0385  0.1625  0.4444
 4525TIP3    H135210   4.283   2.400   2.562  0.0725  0.3329  0.3051
 4525TIP3    H235211   4.183   2.409   2.449  0.0928  0.5461  0.3033
 4526TIP3   OH235212   1.923   4.297   2.509 -0.5150 -0.2493 -0.3018
 4526TIP3    H135213   1.980   4.291   2.432 -0.5469 -0.1509 -0.3341
 4526TIP3    H235214   1.919   4.208   2.543 -2.8774 -0.9164 -2.1138
 4527TIP3   OH235215   6.353   3.948   8.766  0.2796 -0.0960  0.1882
 4527TIP3    H135216   6.318   4.038   8.766 -2.7142 -1.0657 -2.4737
 4527TIP3    H235217   6.298   3.902   8.829 -0.1619 -0.6382 -0.5786
 4528TIP3   OH235218   3.019   4.812   0.691  0.3499  0.6153 -0.3663
 4528TIP3    H135219   2.962   4.835   0.764  1.3945 -2.2671  1.5351
 4528TIP3    H235220   3.003   4.719   0.676  3.8666 -0.1692 -0.2523
 4529TIP3   OH235221   5.530   3.649   2.529 -0.1147 -0.1944  0.1870
 4529TIP3    H135222   5.615   3.669   2.567  0.2968 -1.4545 -0.0402
 4529TIP3    H235223   5.471   3.716   2.565  1.2613  1.6767 -0.8631
 4530TIP3   OH235224   5.498   1.450   2.736 -0.0608 -0.6755  0.3311
 4530TIP3    H135225   5.491   1.541   2.764  0.5964  0.4843 -2.8871
 4530TIP3    H235226   5.576   1.417   2.781  0.1011  0.5586  0.9941
 4531TIP3   OH235227   3.980   1.422   0.301 -0.4946  0.1393 -0.0062
 4531TIP3    H135228   4.043   1.360   0.265 -0.5564  0.2489 -0.3046
 4531TIP3    H235229   4.013   1.442   0.388  0.7445  1.3745 -0.7138
 4532TIP3   OH235230   6.410   1.146   0.607  0.6824  0.8584 -0.4083
 4532TIP3    H135231   6.402   1.093   0.686 -0.8098  0.5443 -0.7499
 4532TIP3    H235232   6.444   1.230   0.637 -0.6586  1.0285  0.6892
 4533TIP3   OH235233   6.588   6.103   8.806  0.0433  0.2447 -0.0081
 4533TIP3    H135234   6.601   6.101   8.900 -1.0303  1.6324  0.2085
 4533TIP3    H235235   6.647   6.172   8.775 -1.0886  1.2050 -0.0596
 4534TIP3   OH235236   1.700   6.686   3.462  1.1005  0.4578 -0.8641
 4534TIP3    H135237   1.733   6.658   3.377  1.4727 -0.2321 -0.4973
 4534TIP3    H235238   1.611   6.715   3.444  1.3850  0.9285 -1.5987
 4535TIP3   OH235239   6.014   3.089   0.916 -0.0357  0.0386 -0.1851
 4535TIP3    H135240   5.999   3.114   1.007  0.5796 -0.3715  0.0334
 4535TIP3    H235241   6.108   3.103   0.902 -0.4410  2.1302 -1.3843
 4536TIP3   OH235242   0.628   4.332   8.034 -0.9506 -0.1849 -0.2138
 4536TIP3    H135243   0.597   4.266   7.971  1.8803 -0.5000 -1.4124
 4536TIP3    H235244   0.646   4.409   7.981 -3.6593  1.5180  1.1006
 4537TIP3   OH235245   4.123   2.461   8.585  0.3130 -0.2739  0.1041
 4537TIP3    H135246   4.134   2.368   8.603 -2.5266 -0.6942  0.1161
 4537TIP3    H235247   4.111   2.501   8.671 -0.8678 -0.3217 -0.0176
 4538TIP3   OH235248   2.229   3.224   8.966 -0.2604 -0.2627 -0.0381
 4538TIP3    H135249   2.146   3.229   8.919  0.0978  0.3663 -0.6151
 4538TIP3    H235250   2.284   3.168   8.912 -0.9091 -2.3088  1.3055
 4539TIP3   OH235251   1.276   2.328   1.811 -0.4682  0.3274 -0.2765
 4539TIP3    H135252   1.354   2.273   1.817  0.5280  1.6288 -0.5157
 4539TIP3    H235253   1.231   2.317   1.894 -0.9939 -1.7703 -0.7781
 4540TIP3   OH235254   3.153   2.087   8.286  1.0354  1.0744 -0.0865
 4540TIP3    H135255   3.079   2.060   8.339  1.3979  0.7681  0.2701
 4540TIP3    H235256   3.127   2.172   8.250  0.3006  0.7234 -0.4000
 4541TIP3   OH235257   5.986   6.481   0.962 -0.1051 -0.3120  0.1084
 4541TIP3    H135258   6.025   6.568   0.972 -1.5427  0.3042  0.7031
 4541TIP3    H235259   5.916   6.479   1.028  0.2710 -2.1443  0.4932
 4542TIP3   OH235260   1.595   3.922   8.068 -0.1271 -0.7951  0.3108
 4542TIP3    H135261   1.564   3.887   8.152  0.3551 -0.8083  0.4896
 4542TIP3    H235262   1.518   3.962   8.028 -0.5654 -1.5933  0.3478
 4543TIP3   OH235263   6.067   0.460   2.498 -0.8756  0.5051 -0.3635
 4543TIP3    H135264   6.161   0.471   2.485 -0.9371  0.6586 -0.6600
 4543TIP3    H235265   6.053   0.485   2.590 -0.7112  0.9790 -0.4664
 4544TIP3   OH235266   1.947   2.531   8.593  0.1009  0.7768  0.0880
 4544TIP3    H135267   2.009   2.576   8.650  1.2643  0.1803 -0.6542
 4544TIP3    H235268   1.984   2.443   8.582 -1.2973  0.1423  0.2505
 4545TIP3   OH235269   5.609   4.356   1.662 -0.0684 -0.2617  0.0517
 4545TIP3    H135270   5.677   4.337   1.726 -0.0738  0.9819  0.4625
 4545TIP3    H235271   5.600   4.452   1.664 -1.2166 -0.3293 -0.6245
 4546TIP3   OH235272   5.396   3.114   8.284 -0.0076 -0.0625  0.1080
 4546TIP3    H135273   5.435   3.036   8.324 -0.6379 -0.5463 -0.2054
 4546TIP3    H235274   5.469   3.175   8.275  0.6814 -0.9368 -0.4363
 4547TIP3   OH235275   3.890   4.349   2.230  0.0805 -0.0153 -0.1066
 4547TIP3    H135276   3.947   4.301   2.290 -0.4073  0.3816  0.6826
 4547TIP3    H235277   3.853   4.281   2.173 -0.3277 -0.5309  0.7703
 4548TIP3   OH235278   3.248   2.917   8.187  0.3938 -0.4602 -0.0366
 4548TIP3    H135279   3.154   2.936   8.195  0.1595 -1.2179 -0.8447
 4548TIP3    H235280   3.252   2.826   8.158  1.3869 -0.4162 -0.0780
 4549TIP3   OH235281   6.270   0.876   8.566  0.2718 -0.1295 -0.1692
 4549TIP3    H135282   6.301   0.848   8.479 -1.0326 -0.7209 -0.4726
 4549TIP3    H235283   6.336   0.842   8.626  2.5145  2.3449 -1.0248
 4550TIP3   OH235284   2.235   2.087   8.172 -0.4466 -0.4830  0.2132
 4550TIP3    H135285   2.298   2.147   8.211 -0.3342 -0.0419 -0.6367
 4550TIP3    H235286   2.279   2.002   8.174 -0.8267 -0.6691  1.9335
 4551TIP3   OH235287   0.015   2.076   1.831 -0.4032  0.8549 -0.1416
 4551TIP3    H135288   0.092   2.076   1.888  0.4845 -3.3757 -0.9936
 4551TIP3    H235289  -0.052   2.123   1.880  1.4420  0.8089  2.6091
 4552TIP3   OH235290   3.887   5.456   1.050  0.1864  0.1672 -0.3216
 4552TIP3    H135291   3.982   5.440   1.054  0.0827 -0.4553 -0.1990
 4552TIP3    H235292   3.878   5.537   1.000  0.7902  0.2896 -0.2372
 4553TIP3   OH235293   5.205   2.611   1.562 -1.0056 -0.2523  0.5252
 4553TIP3    H135294   5.285   2.600   1.512 -1.7436 -1.0746 -0.5320
 4553TIP3    H235295   5.189   2.705   1.563 -0.6463 -0.1775 -0.2587
 4554TIP3   OH235296   3.630   3.973   1.763  0.4400 -0.3671 -0.3787
 4554TIP3    H135297   3.596   3.891   1.798 -0.9912  0.2471 -0.2758
 4554TIP3    H235298   3.725   3.960   1.758  0.8257 -0.4330  3.8972
 4555TIP3   OH235299   4.771   3.469   0.693  0.3741 -0.2612  0.0092
 4555TIP3    H135300   4.809   3.446   0.778 -1.3897 -0.0902  0.8748
 4555TIP3    H235301   4.732   3.387   0.662  3.0687 -0.9892 -1.8539
 4556TIP3   OH235302   1.614   3.900   2.505  0.3310  0.2156  0.8251
 4556TIP3    H135303   1.598   3.875   2.596 -0.2608 -0.1399  0.6299
 4556TIP3    H235304   1.554   3.846   2.454  0.9302  0.1245  0.1889
 4557TIP3   OH235305   3.158   5.806   7.597  0.4904  0.4935  0.1397
 4557TIP3    H135306   3.094   5.748   7.640  1.0000  0.0658  0.3386
 4557TIP3    H235307   3.127   5.814   7.507 -1.2270  2.2983  0.8157
 4558TIP3   OH235308   2.349   1.538   8.429 -0.2117 -0.2378  0.2125
 4558TIP3    H135309   2.419   1.546   8.364 -0.7400  3.5119 -0.1211
 4558TIP3    H235310   2.392   1.553   8.513 -0.3443  0.7236  0.1267
 4559TIP3   OH235311   2.739   2.780   1.370  0.1137 -0.0254 -0.0021
 4559TIP3    H135312   2.833   2.777   1.387  0.2860 -2.4905 -0.9628
 4559TIP3    H235313   2.732   2.805   1.278 -0.2653  1.4375  0.4024
 4560TIP3   OH235314   0.037   6.355   8.726 -0.3295 -0.1239 -0.3101
 4560TIP3    H135315   0.130   6.364   8.702  0.4387 -1.6802  1.8078
 4560TIP3    H235316  -0.007   6.332   8.644  1.1354  0.6522 -1.3581
 4561TIP3   OH235317   0.755   4.446   2.324 -0.4314  0.1047 -0.2687
 4561TIP3    H135318   0.729   4.469   2.235 -1.8584 -2.2583 -0.5525
 4561TIP3    H235319   0.842   4.408   2.316 -0.7981 -0.6505 -0.7806
 4562TIP3   OH235320   1.381   6.658   8.415  0.0061  0.2128 -0.4127
 4562TIP3    H135321   1.348   6.742   8.383 -1.2467 -0.9079 -2.2602
 4562TIP3    H235322   1.331   6.642   8.495 -0.5224  0.7218 -0.6339
 4563TIP3   OH235323   6.379   5.442   0.946  0.0680  0.2244 -0.7285
 4563TIP3    H135324   6.344   5.530   0.932 -0.8690  0.4432  2.2473
 4563TIP3    H235325   6.305   5.392   0.982  1.4246 -0.7947  0.8114
 4564TIP3   OH235326   3.582   4.179   8.138  0.2956 -0.1551  0.5219
 4564TIP3    H135327   3.673   4.183   8.167  0.2297  0.7213  0.6284
 4564TIP3    H235328   3.581   4.225   8.054  0.1652 -1.2103 -0.0765
 4565TIP3   OH235329   4.022   5.665   1.498 -0.1043  0.0059  0.2642
 4565TIP3    H135330   3.961   5.592   1.509  0.8371 -0.4843  3.2923
 4565TIP3    H235331   3.975   5.728   1.445 -1.4347 -2.2572 -1.4358
 4566TIP3   OH235332   5.991   6.374   1.317 -0.1749 -0.0691  0.1473
 4566TIP3    H135333   6.031   6.461   1.309  1.9325 -1.0629 -0.8772
 4566TIP3    H235334   5.898   6.390   1.306  0.1643  2.0420 -0.1699
 4567TIP3   OH235335   2.514   1.660   0.830  0.1530  0.2591 -0.2139
 4567TIP3    H135336   2.515   1.574   0.873 -0.1709 -0.5581 -1.7573
 4567TIP3    H235337   2.447   1.652   0.763 -0.2404  1.9157 -0.0609
 4568TIP3   OH235338   1.549   1.381   0.950  0.2483 -0.2855 -0.1731
 4568TIP3    H135339   1.621   1.443   0.962  0.9675 -1.1379  0.0173
 4568TIP3    H235340   1.529   1.350   1.039  1.2874 -1.8360 -0.4301
 4569TIP3   OH235341   0.815   3.026   7.472 -0.8012 -0.3529  0.1260
 4569TIP3    H135342   0.802   2.968   7.396 -0.5273 -1.0939  0.6335
 4569TIP3    H235343   0.729   3.029   7.514 -0.7883 -0.4842  0.1628
 4570TIP3   OH235344   3.772   1.804   7.637 -0.2139  0.0967  0.5778
 4570TIP3    H135345   3.770   1.733   7.701 -0.5905 -0.8513 -0.4463
 4570TIP3    H235346   3.802   1.762   7.556 -1.2579  0.9118 -0.2611
 4571TIP3   OH235347   5.941   6.188   1.055 -0.0969  0.1909 -0.2053
 4571TIP3    H135348   6.017   6.161   1.106 -0.2437  0.6232  0.2658
 4571TIP3    H235349   5.953   6.282   1.042 -0.5259  0.2550 -0.1615
 4572TIP3   OH235350   3.653   1.537   7.771  0.7228  0.7416  0.2294
 4572TIP3    H135351   3.624   1.567   7.857 -1.1217  0.6737 -0.3276
 4572TIP3    H235352   3.745   1.512   7.783  0.1075 -0.6585  2.5299
 4573TIP3   OH235353   5.424   6.351   1.114  0.5764  0.1858 -0.9018
 4573TIP3    H135354   5.361   6.352   1.041  0.5657  0.8025 -0.8925
 4573TIP3    H235355   5.408   6.268   1.158 -0.5245  0.5081 -0.6555
 4574TIP3   OH235356   2.037   2.419   8.911  0.0990  0.5377  0.0439
 4574TIP3    H135357   2.046   2.398   8.818  0.5884  0.4513  0.1060
 4574TIP3    H235358   1.959   2.370   8.940 -1.8842  2.8923 -0.9944
 4575TIP3   OH235359   5.767   6.430   1.125  0.1038  0.0946  0.5543
 4575TIP3    H135360   5.722   6.494   1.180 -1.0353  0.4875 -0.7731
 4575TIP3    H235361   5.714   6.425   1.045  1.9436 -0.0655 -0.7333
 4576TIP3   OH235362   1.498   1.579   7.270  0.3126 -0.5053 -0.5085
 4576TIP3    H135363   1.473   1.625   7.350 -1.0486  2.0853 -2.2677
 4576TIP3    H235364   1.593   1.577   7.272  0.3065 -1.4948  1.6240
 4577TIP3   OH235365   3.023   5.488   8.782 -0.8061  0.0380  0.2926
 4577TIP3    H135366   3.113   5.519   8.793 -0.0231 -2.1270  0.3860
 4577TIP3    H235367   2.988   5.486   8.871  0.0449 -1.7678  0.6434
 4578TIP3   OH235368   5.954   5.373   9.027 -0.4420  0.4813 -0.2933
 4578TIP3    H135369   5.949   5.355   8.933 -1.1802  1.1487 -0.3903
 4578TIP3    H235370   5.939   5.467   9.034  1.6279  0.8159  0.3349
 4579TIP3   OH235371   3.069   1.474   2.132  0.0345  0.1111 -0.2012
 4579TIP3    H135372   2.999   1.523   2.088 -0.1007 -0.0604 -0.1775
 4579TIP3    H235373   3.026   1.430   2.204  0.3749  0.9244  0.5219
 4580TIP3   OH235374   6.571   4.826   8.509  0.3382  0.1573  0.3890
 4580TIP3    H135375   6.569   4.848   8.602 -1.1855  0.1783  0.3761
 4580TIP3    H235376   6.533   4.903   8.466 -1.1706 -0.7653 -0.0165
 4581TIP3   OH235377   2.696   0.345   2.544 -0.2059 -0.3046 -0.3996
 4581TIP3    H135378   2.634   0.334   2.616  0.5312 -1.0512  0.1329
 4581TIP3    H235379   2.756   0.412   2.575 -0.1328 -0.3308 -0.4860
 4582TIP3   OH235380   6.226   0.140   2.645 -0.2860 -0.2669 -0.1281
 4582TIP3    H135381   6.197   0.144   2.553  5.0505  1.8189 -2.0913
 4582TIP3    H235382   6.217   0.048   2.669 -0.6782 -1.1495 -3.2254
 4583TIP3   OH235383   2.245   5.769   2.733 -0.4132  0.4416 -0.2484
 4583TIP3    H135384   2.247   5.678   2.763 -1.4047  0.6026  0.3843
 4583TIP3    H235385   2.216   5.764   2.642  0.8583  0.0516 -0.6448
 4584TIP3   OH235386   4.081   3.055   0.030 -0.2424 -1.3772  0.4076
 4584TIP3    H135387   4.077   3.114   0.105  0.8545 -1.1496  0.3011
 4584TIP3    H235388   4.028   2.980   0.056 -1.8868 -0.2769  0.4492
 4585TIP3   OH235389   6.414   5.756   8.936  0.4789 -1.1110  0.0599
 4585TIP3    H135390   6.400   5.724   8.847 -0.3509 -2.0527  0.5139
 4585TIP3    H235391   6.353   5.706   8.989 -0.4485  0.8106  0.8952
 4586TIP3   OH235392   3.115   0.483   8.078  0.0820 -0.4300  0.1350
 4586TIP3    H135393   3.146   0.572   8.095  1.4613 -0.3874 -2.1359
 4586TIP3    H235394   3.186   0.427   8.108 -1.0095 -0.8604  2.0608
 4587TIP3   OH235395   3.748   0.869   2.223 -0.1349 -0.1818 -0.8248
 4587TIP3    H135396   3.696   0.924   2.281 -0.1575 -1.2742  0.2378
 4587TIP3    H235397   3.827   0.920   2.206  0.6149 -0.4352  1.5001
 4588TIP3   OH235398   2.417   3.238   2.425 -0.3354 -0.6301 -0.9885
 4588TIP3    H135399   2.396   3.290   2.347  0.9837 -0.0125 -0.9673
 4588TIP3    H235400   2.365   3.277   2.495 -0.8383 -0.5986 -1.3773
 4589TIP3   OH235401   2.365   3.314   7.794  0.1513 -0.3557  0.0814
 4589TIP3    H135402   2.402   3.293   7.709 -1.9052 -0.4492 -0.8379
 4589TIP3    H235403   2.271   3.310   7.781 -0.2306 -0.9636  2.5136
 4590TIP3   OH235404   6.398   3.091   0.048 -0.0989  0.6281  0.0950
 4590TIP3    H135405   6.421   3.169  -0.002 -0.4881  0.5655 -0.1805
 4590TIP3    H235406   6.392   3.121   0.138  0.8650  0.6875  0.1469
 4591TIP3   OH235407   2.813   3.349   1.050  0.3717 -0.4242 -0.0925
 4591TIP3    H135408   2.828   3.257   1.072  0.1519 -0.4130  0.1204
 4591TIP3    H235409   2.784   3.388   1.133 -1.2207 -0.5445 -0.5474
 4592TIP3   OH235410   1.514   1.665   1.445 -0.0459  0.1468 -0.2524
 4592TIP3    H135411   1.435   1.647   1.394 -1.0076  1.0253  0.8676
 4592TIP3    H235412   1.484   1.663   1.536  1.6389 -1.4937  0.3111
 4593TIP3   OH235413   1.639   2.364   0.177  0.3801  0.1120 -0.3410
 4593TIP3    H135414   1.588   2.285   0.193  0.2932  0.2885  0.2659
 4593TIP3    H235415   1.659   2.361   0.083  1.3850 -1.2475 -0.1189
 4594TIP3   OH235416   5.226   4.458   2.033 -0.4631 -0.2976 -0.4587
 4594TIP3    H135417   5.209   4.419   2.119  0.3548 -0.7719 -0.4963
 4594TIP3    H235418   5.268   4.542   2.052  0.1149 -0.5965 -0.3902
 4595TIP3   OH235419   4.403   5.045   1.116 -0.1549  0.2247 -0.0106
 4595TIP3    H135420   4.415   4.952   1.135  0.7506  0.3552  0.0731
 4595TIP3    H235421   4.411   5.051   1.021  2.3212  0.5478  0.1593
 4596TIP3   OH235422   3.790   0.222   7.758 -0.4278 -0.5401 -0.7723
 4596TIP3    H135423   3.743   0.305   7.747  1.6995  0.9279  0.3158
 4596TIP3    H235424   3.826   0.203   7.672  2.8936  2.2873 -0.2453
 4597TIP3   OH235425   5.518   4.771   0.602 -0.0519  0.1123  0.0250
 4597TIP3    H135426   5.478   4.778   0.689  0.4639  1.2582  0.1854
 4597TIP3    H235427   5.514   4.860   0.567  2.2097  0.2451 -0.0186
 4598TIP3   OH235428   1.282   0.700   1.828 -0.0176  0.3625 -0.0191
 4598TIP3    H135429   1.349   0.638   1.856 -0.6906 -0.1970  0.3875
 4598TIP3    H235430   1.226   0.651   1.769 -1.3707  0.1265  1.3751
 4599TIP3   OH235431   3.516   2.524   1.901  0.0689  0.2300  0.8358
 4599TIP3    H135432   3.505   2.588   1.831 -0.0924  0.5837  1.1765
 4599TIP3    H235433   3.484   2.442   1.865  0.5491  0.2763  0.2921
 4600TIP3   OH235434   6.103   3.194   0.370 -0.1520  0.0221  0.0890
 4600TIP3    H135435   6.023   3.143   0.381 -0.8006  0.4230 -2.2222
 4600TIP3    H235436   6.168   3.131   0.340  0.2454 -0.1668  1.2760
 4601TIP3   OH235437   0.386   6.167   8.434  0.3696  0.2794  0.1927
 4601TIP3    H135438   0.368   6.200   8.347  0.6781  0.2306  0.1095
 4601TIP3    H235439   0.369   6.072   8.428  1.8712  0.0179 -0.2265
 4602TIP3   OH235440   4.596   4.916   7.196  0.0005  0.0876 -0.6389
 4602TIP3    H135441   4.684   4.880   7.209  0.3318  0.8658 -0.6407
 4602TIP3    H235442   4.545   4.843   7.161  0.2993 -0.7496  0.6136
 4603TIP3   OH235443   1.440   1.110   3.130 -0.1267 -0.1900  0.2090
 4603TIP3    H135444   1.389   1.078   3.055  0.0794 -0.9014  0.3666
 4603TIP3    H235445   1.433   1.040   3.195  0.9687 -0.2485  0.2741
 4604TIP3   OH235446   0.659   4.874   1.459 -0.3527  0.1270 -0.2463
 4604TIP3    H135447   0.750   4.848   1.472 -0.2921  0.3169 -0.2873
 4604TIP3    H235448   0.664   4.954   1.406 -0.4167  1.6784  1.9892
 4605TIP3   OH235449   0.842   6.424   2.278  0.3225  0.2202  0.4373
 4605TIP3    H135450   0.752   6.424   2.245  0.3600  3.5131  0.0262
 4605TIP3    H235451   0.895   6.401   2.202 -0.0945 -0.9536  0.4833
 4606TIP3   OH235452   3.233   3.810   1.858 -0.0832 -0.0929 -0.0184
 4606TIP3    H135453   3.227   3.792   1.764 -1.0126 -0.2390  0.0566
 4606TIP3    H235454   3.165   3.755   1.897  0.7499 -0.5491  0.8200
 4607TIP3   OH235455   4.750   2.312   1.238  0.1236 -0.4017 -0.1322
 4607TIP3    H135456   4.832   2.339   1.196  0.7040  0.6578  1.5623
 4607TIP3    H235457   4.777   2.275   1.322 -1.1450  1.3135  1.1215
 4608TIP3   OH235458   5.576   3.618   2.261 -0.1827  0.0427  0.2332
 4608TIP3    H135459   5.601   3.647   2.348  1.7453 -1.0760  0.1100
 4608TIP3    H235460   5.494   3.664   2.242 -0.4681  0.5419  2.4818
 4609TIP3   OH235461   0.638   1.964   8.788 -0.4625 -0.1809  0.3709
 4609TIP3    H135462   0.680   2.039   8.745 -0.3974 -0.0290  0.6959
 4609TIP3    H235463   0.671   1.966   8.878 -0.6915 -0.4253  0.4624
 4610TIP3   OH235464   4.668   4.094   1.392  0.5383 -0.1008 -0.4444
 4610TIP3    H135465   4.732   4.122   1.327  1.1045 -1.0609 -0.3134
 4610TIP3    H235466   4.716   4.089   1.474 -0.1390  0.9535  0.0523
 4611TIP3   OH235467   5.744   3.271   0.230 -0.9093 -0.0476  0.1326
 4611TIP3    H135468   5.829   3.228   0.230 -1.1541 -0.6284  1.6747
 4611TIP3    H235469   5.681   3.200   0.238 -1.4450  0.4533  0.5124
 4612TIP3   OH235470   0.722   6.528   0.528 -0.6062  0.3804  0.3297
 4612TIP3    H135471   0.810   6.528   0.564 -0.7640 -0.3151  0.7389
 4612TIP3    H235472   0.669   6.482   0.594 -1.4484  1.5583  0.5031
 4613TIP3   OH235473   4.600   3.354   2.287 -0.1570 -0.2734 -0.4499
 4613TIP3    H135474   4.630   3.264   2.278 -0.6222 -0.3991 -0.7867
 4613TIP3    H235475   4.506   3.350   2.270 -0.1280  0.3284 -0.7969
 4614TIP3   OH235476   1.804   4.133   1.861 -0.1565 -0.0821  0.0655
 4614TIP3    H135477   1.720   4.142   1.907 -0.7416  0.2541 -1.0486
 4614TIP3    H235478   1.798   4.195   1.788  1.7709  1.2887  0.9810
 4615TIP3   OH235479   6.487   4.376   2.020 -0.7748  0.0857 -0.0732
 4615TIP3    H135480   6.432   4.417   2.087  0.6680  0.6170  0.8285
 4615TIP3    H235481   6.479   4.433   1.944 -1.9169 -0.1640 -0.1498
 4616TIP3   OH235482   5.863   0.591   2.768 -0.0862 -0.2472  0.4724
 4616TIP3    H135483   5.844   0.648   2.842 -1.1932 -1.4392  1.1411
 4616TIP3    H235484   5.959   0.593   2.760 -0.0868  1.5926  0.5265
 4617TIP3   OH235485   6.384   6.192   9.083 -0.1031 -0.3727  0.6231
 4617TIP3    H135486   6.470   6.149   9.080  0.1488 -0.0314  2.1286
 4617TIP3    H235487   6.364   6.197   9.176 -1.6879 -0.2838  0.2906
 4618TIP3   OH235488   4.606   2.144   7.177  0.5550  0.5609 -0.0531
 4618TIP3    H135489   4.617   2.138   7.272  0.7052 -0.8025 -0.1404
 4618TIP3    H235490   4.659   2.220   7.151  0.5824  0.8897  0.9284
 4619TIP3   OH235491   3.565   1.811   1.395 -0.0232 -0.0245  0.0858
 4619TIP3    H135492   3.514   1.889   1.375 -0.3541 -0.5750 -1.3183
 4619TIP3    H235493   3.536   1.746   1.331  0.0854 -1.3829  1.3678
 4620TIP3   OH235494   4.199   2.808   0.986  0.8132  0.1812 -0.0058
 4620TIP3    H135495   4.241   2.728   0.955  1.0981 -0.1763  1.2347
 4620TIP3    H235496   4.111   2.804   0.949  2.3525  2.0433 -4.5425
 4621TIP3   OH235497   4.837   5.828   0.303  0.1415  0.3871 -0.0708
 4621TIP3    H135498   4.827   5.835   0.208 -1.4792 -1.3011 -0.0975
 4621TIP3    H235499   4.925   5.792   0.316 -0.3316 -1.2392 -1.0869
 4622TIP3   OH235500   3.912   4.990   7.698 -0.4370 -0.0472 -0.4383
 4622TIP3    H135501   3.952   4.939   7.627  1.1850 -0.8690  1.0063
 4622TIP3    H235502   3.978   5.055   7.722 -0.0788 -1.0995  1.6546
 4623TIP3   OH235503   1.806   3.427   1.575  0.5470 -0.0213 -0.0888
 4623TIP3    H135504   1.805   3.421   1.479 -0.4083  1.6743 -0.2339
 4623TIP3    H235505   1.893   3.396   1.601 -0.3021 -3.8472 -1.1795
 4624TIP3   OH235506   6.697   6.619   8.698 -0.0116  0.0446  0.2049
 4624TIP3    H135507   6.697   6.524   8.711 -0.5972 -0.2140 -1.4256
 4624TIP3    H235508   6.759   6.633   8.626 -1.4962  0.6451 -0.9993
 4625TIP3   OH235509   4.994   3.830   1.588  0.0021 -0.5978 -0.2996
 4625TIP3    H135510   4.966   3.847   1.678  0.4510 -0.5608 -0.1629
 4625TIP3    H235511   4.915   3.839   1.536 -0.6371 -2.3191  0.2950
 4626TIP3   OH235512   3.339   1.133   7.117 -0.4649 -0.2236 -0.3949
 4626TIP3    H135513   3.403   1.075   7.077  1.5499  1.8544 -0.4278
 4626TIP3    H235514   3.261   1.125   7.062  0.8561 -0.4862 -2.3385
 4627TIP3   OH235515   2.755   6.392   7.668 -0.5463 -0.2426  0.1810
 4627TIP3    H135516   2.738   6.486   7.678 -2.5826 -0.6765  1.5229
 4627TIP3    H235517   2.845   6.387   7.636  0.3961  2.1075  2.1510
 4628TIP3   OH235518   0.109   4.346   7.528  0.0646  0.1335 -0.9324
 4628TIP3    H135519   0.078   4.349   7.437 -2.7857  1.4712 -0.0402
 4628TIP3    H235520   0.087   4.257   7.558  1.0640 -0.3299 -1.5026
 4629TIP3   OH235521   0.813   4.694   0.465 -0.1930  0.4847  0.0515
 4629TIP3    H135522   0.781   4.777   0.429  0.1803  2.0844  3.0460
 4629TIP3    H235523   0.907   4.695   0.448 -0.4879 -0.4566 -1.8565
 4630TIP3   OH235524   2.667   6.171   1.071 -0.5248  0.0614  0.2522
 4630TIP3    H135525   2.588   6.140   1.116  1.0576  0.4524  3.5944
 4630TIP3    H235526   2.720   6.093   1.060 -0.9424 -0.0474 -1.1524
 4631TIP3   OH235527   0.765   1.539   1.624 -0.1259  0.1304  0.5244
 4631TIP3    H135528   0.776   1.465   1.564 -0.2650  0.1042  0.5316
 4631TIP3    H235529   0.855   1.561   1.652 -0.1631 -0.7171  1.3434
 4632TIP3   OH235530   6.526   4.278   1.446  0.1627 -0.1735  0.0285
 4632TIP3    H135531   6.607   4.313   1.485  1.9504 -1.3374 -2.4144
 4632TIP3    H235532   6.456   4.326   1.491  2.2677  4.3044 -0.8503
 4633TIP3   OH235533   4.581   0.103   8.415 -0.3278 -0.3152 -0.0953
 4633TIP3    H135534   4.629   0.172   8.368 -1.8615  1.8002  1.2245
 4633TIP3    H235535   4.575   0.031   8.353  3.2566 -0.1700 -0.7994
 4634TIP3   OH235536   4.282   4.410   9.119  0.1565 -0.1673  0.2662
 4634TIP3    H135537   4.250   4.322   9.140 -1.1572  0.3483  0.5267
 4634TIP3    H235538   4.263   4.461   9.198  2.5310 -0.0275  0.8152
 4635TIP3   OH235539   0.838   5.672   8.312 -0.4013  0.3032  0.8269
 4635TIP3    H135540   0.843   5.639   8.222  1.8877 -0.3277  1.1339
 4635TIP3    H235541   0.879   5.758   8.308 -1.1792  0.7055  1.1245
 4636TIP3   OH235542   6.445   3.264   1.964  0.0830 -0.0331 -0.3851
 4636TIP3    H135543   6.413   3.354   1.962  0.8460  0.2497 -2.2837
 4636TIP3    H235544   6.376   3.213   1.921  1.1834  0.2794 -2.6954
 4637TIP3   OH235545   0.340   2.273   1.003 -0.1366  0.0314  0.4792
 4637TIP3    H135546   0.247   2.256   1.022 -0.3753 -0.9240 -1.2944
 4637TIP3    H235547   0.387   2.210   1.057 -0.6580 -0.9842 -0.2100
 4638TIP3   OH235548   3.342   4.211   2.194  0.1268  0.4168 -0.1027
 4638TIP3    H135549   3.258   4.212   2.240  0.6738  1.1709  0.9357
 4638TIP3    H235550   3.335   4.138   2.133 -0.8404 -0.2816  0.8042
 4639TIP3   OH235551   2.971   4.229   9.064  0.7567  0.1709 -0.3278
 4639TIP3    H135552   2.996   4.242   8.973 -0.7664  1.2303 -0.6140
 4639TIP3    H235553   3.028   4.157   9.094  0.2837 -1.2168 -2.5276
 4640TIP3   OH235554   5.528   4.388   8.476 -0.3181  0.0168 -0.0604
 4640TIP3    H135555   5.523   4.432   8.561  0.2166  1.5695 -0.7798
 4640TIP3    H235556   5.450   4.418   8.429 -0.3732 -0.4622 -0.2784
 4641TIP3   OH235557   3.972   3.720   0.553  0.2772 -0.0367 -0.6171
 4641TIP3    H135558   4.025   3.690   0.627 -0.7600 -0.7562 -0.1361
 4641TIP3    H235559   4.035   3.733   0.482  1.0606 -1.2554 -0.1814
 4642TIP3   OH235560   3.552   3.315   2.177  0.6005 -0.0946  0.1103
 4642TIP3    H135561   3.617   3.247   2.163  2.9751  1.9378  0.5782
 4642TIP3    H235562   3.580   3.387   2.121 -1.4166  0.8042  0.1534
 4643TIP3   OH235563   3.803   2.276   7.947  0.1348 -0.2359 -0.9037
 4643TIP3    H135564   3.749   2.227   8.009  2.7017 -2.0190  0.0814
 4643TIP3    H235565   3.761   2.362   7.943 -0.4225 -0.1150  3.0426
 4644TIP3   OH235566   4.457   1.519   7.794  0.0905 -0.1823 -0.2040
 4644TIP3    H135567   4.543   1.551   7.765 -0.4130  1.1453 -0.2904
 4644TIP3    H235568   4.450   1.548   7.885  1.0149 -3.0104  0.8680
 4645TIP3   OH235569   5.800   1.189   8.887 -0.2156  1.1027 -0.7806
 4645TIP3    H135570   5.880   1.215   8.934 -0.0055  2.2406 -1.7128
 4645TIP3    H235571   5.832   1.141   8.811 -0.5744 -1.2008  0.4480
 4646TIP3   OH235572   6.453   4.198   2.570  0.6261  0.5193  0.1987
 4646TIP3    H135573   6.503   4.128   2.613 -1.0384 -0.7182  0.2259
 4646TIP3    H235574   6.365   4.192   2.608  0.6464  3.3011  0.9181
 4647TIP3   OH235575   5.552   1.626   0.004 -0.1809  0.3895 -0.4635
 4647TIP3    H135576   5.485   1.679  -0.040 -1.0338  1.4025  1.8429
 4647TIP3    H235577   5.503   1.572   0.066  0.8801 -1.5782 -1.2872
 4648TIP3   OH235578   3.816   5.138   1.065  0.1744  0.3236 -0.0802
 4648TIP3    H135579   3.739   5.130   1.007  0.6323 -0.6304 -0.5915
 4648TIP3    H235580   3.873   5.200   1.020  1.0216 -1.2388 -1.2784
 4649TIP3   OH235581   4.474   4.915   7.451  0.0295  0.4848 -0.0008
 4649TIP3    H135582   4.426   4.998   7.457  1.0422  1.1065 -0.1945
 4649TIP3    H235583   4.538   4.930   7.381 -0.5984 -0.9007 -0.9102
 4650TIP3   OH235584   6.299   1.165   8.588 -0.1283  0.4838 -0.0905
 4650TIP3    H135585   6.297   1.070   8.571 -0.9091  0.8946 -2.8240
 4650TIP3    H235586   6.382   1.179   8.633 -0.4663 -1.5981  1.3645
 4651TIP3   OH235587   2.982   0.887   0.416 -0.1751 -0.0497 -0.2170
 4651TIP3    H135588   2.987   0.808   0.362 -0.0152 -0.4883  0.4338
 4651TIP3    H235589   3.050   0.944   0.381 -0.0839 -0.3222 -0.4901
 4652TIP3   OH235590   0.646   2.527   8.118 -0.7922 -0.3440 -0.0500
 4652TIP3    H135591   0.565   2.484   8.091 -0.3382 -0.7775 -0.7737
 4652TIP3    H235592   0.658   2.598   8.055 -0.9175  0.0950  0.4179
 4653TIP3   OH235593   4.016   5.960   2.436  0.9170 -0.4407 -0.0285
 4653TIP3    H135594   3.956   5.921   2.500  0.1537  1.3244  0.4050
 4653TIP3    H235595   4.088   5.994   2.490  0.9351 -0.1377 -0.2422
 4654TIP3   OH235596   2.213   6.345   0.608 -0.3573 -0.5246  0.5702
 4654TIP3    H135597   2.277   6.342   0.537 -1.7162 -0.0935 -0.7136
 4654TIP3    H235598   2.245   6.414   0.666  0.5145 -0.5506  0.1389
 4655TIP3   OH235599   1.532   4.903   0.935 -0.0775  0.3046 -0.1282
 4655TIP3    H135600   1.618   4.860   0.934  0.2653  0.9633  0.4599
 4655TIP3    H235601   1.531   4.956   0.855 -0.4529 -0.6721 -0.7929
 4656TIP3   OH235602   3.898   5.012   0.548 -0.0324  0.5753 -0.5186
 4656TIP3    H135603   3.936   4.954   0.482  0.9424  0.2881  0.2666
 4656TIP3    H235604   3.963   5.082   0.559 -0.7589  1.3174 -0.7598
 4657TIP3   OH235605   0.747   3.046   2.842  0.1200  1.0962 -0.8910
 4657TIP3    H135606   0.821   3.102   2.817  0.5348  2.0973  2.1785
 4657TIP3    H235607   0.779   2.957   2.830  3.0037  1.3719  2.7627
 4658TIP3   OH235608   2.849   1.515   7.898 -0.1955 -0.7649  0.1821
 4658TIP3    H135609   2.869   1.426   7.927  0.7992 -1.2642 -1.8712
 4658TIP3    H235610   2.934   1.557   7.889 -0.6702  0.6339  1.6268
 4659TIP3   OH235611   3.954   4.651   7.809 -0.8705 -0.5179 -0.5984
 4659TIP3    H135612   3.949   4.598   7.889 -3.3061  1.2328  0.5348
 4659TIP3    H235613   4.031   4.707   7.822 -0.5436 -1.0769 -0.0415
 4660TIP3   OH235614   3.157   4.209   1.204  0.0724 -0.1524 -0.1151
 4660TIP3    H135615   3.164   4.249   1.290 -0.8954 -0.1231 -0.0395
 4660TIP3    H235616   3.240   4.229   1.161 -0.3150  1.8702 -0.0462
 4661TIP3   OH235617   3.463   4.370   7.358 -0.4039 -0.3214 -0.3405
 4661TIP3    H135618   3.476   4.400   7.269 -1.4720 -2.6643 -1.3767
 4661TIP3    H235619   3.377   4.406   7.383  0.3032  1.0986  0.1314
 4662TIP3   OH235620   0.479   3.467   0.311  0.8962  0.0611 -0.1239
 4662TIP3    H135621   0.396   3.441   0.271  0.9478  0.8220 -0.7668
 4662TIP3    H235622   0.530   3.501   0.237  1.6143 -0.0135  0.3390
 4663TIP3   OH235623   2.894   0.235   1.258 -0.5611 -0.3520  0.3994
 4663TIP3    H135624   2.827   0.168   1.247 -2.0851  1.4650 -2.5562
 4663TIP3    H235625   2.849   0.307   1.303  0.6416 -0.6229  2.1723
 4664TIP3   OH235626   1.767   3.292   0.484 -0.3573  0.4392  0.1307
 4664TIP3    H135627   1.696   3.242   0.442 -2.1712  0.5615  2.8004
 4664TIP3    H235628   1.752   3.382   0.455  0.3025  0.1125 -1.3092
 4665TIP3   OH235629   0.192   2.431   0.650  0.5560 -0.1410 -0.3650
 4665TIP3    H135630   0.187   2.526   0.654 -1.8672 -0.0203 -3.1294
 4665TIP3    H235631   0.129   2.400   0.715 -1.0713  0.3047 -1.6618
 4666TIP3   OH235632   1.351   3.619   2.081  0.1864  0.1032 -0.3315
 4666TIP3    H135633   1.266   3.577   2.071  0.4255 -0.3597 -0.5242
 4666TIP3    H235634   1.337   3.710   2.056 -0.3090  0.0945 -0.0887
 4667TIP3   OH235635   1.286   1.487   8.813 -0.2496  0.2476 -0.3179
 4667TIP3    H135636   1.348   1.471   8.884 -1.4117  0.2262  0.7307
 4667TIP3    H235637   1.260   1.400   8.785 -0.4956  0.2542 -0.1171
 4668TIP3   OH235638   6.071   3.019   8.469  0.0651 -0.0698 -0.5275
 4668TIP3    H135639   6.081   3.039   8.376 -1.2384  1.9546 -0.3020
 4668TIP3    H235640   6.161   3.007   8.501  0.7131  1.4909 -1.6113
 4669TIP3   OH235641   2.643   1.786   0.324  0.2656  0.1914  0.1562
 4669TIP3    H135642   2.548   1.784   0.315  0.1294  1.2553  1.1918
 4669TIP3    H235643   2.670   1.864   0.276  0.6454 -0.2132 -0.2955
 4670TIP3   OH235644   5.590   4.975   3.252  0.2410  0.5955 -0.3673
 4670TIP3    H135645   5.590   4.973   3.157 -0.4092 -0.0074 -0.3651
 4670TIP3    H235646   5.664   5.031   3.275  0.6181  0.4614 -1.2138
 4671TIP3   OH235647   0.286   2.681   8.269 -0.1872  0.4778  0.4461
 4671TIP3    H135648   0.342   2.745   8.226 -0.1828  0.6618  0.7193
 4671TIP3    H235649   0.201   2.690   8.226  0.0595  0.0088 -0.1526
 4672TIP3   OH235650   2.638   4.075   1.853 -0.0993 -0.8646 -0.2599
 4672TIP3    H135651   2.544   4.085   1.867 -0.9104 -1.8452 -3.9193
 4672TIP3    H235652   2.669   4.164   1.834 -0.5331 -0.6847 -0.1398
 4673TIP3   OH235653   0.008   3.653   7.952 -0.4773 -0.3222  0.0608
 4673TIP3    H135654  -0.067   3.683   7.901 -0.3601  1.1288  0.6811
 4673TIP3    H235655   0.035   3.731   8.002  1.3099 -0.8624 -0.0048
 4674TIP3   OH235656   0.962   5.043   2.749  0.1563  0.4224 -0.5334
 4674TIP3    H135657   0.946   5.078   2.661  0.5969  1.7540 -0.0948
 4674TIP3    H235658   0.884   4.990   2.768  0.0182  0.1761 -1.6805
 4675TIP3   OH235659   3.324   3.581   8.351 -0.1367 -0.0893 -0.9223
 4675TIP3    H135660   3.348   3.558   8.441 -1.6933  1.8887  0.0782
 4675TIP3    H235661   3.236   3.546   8.340 -0.5974  1.0704 -1.0696
 4676TIP3   OH235662   1.011   4.239   0.879  0.0642 -0.6585 -0.2822
 4676TIP3    H135663   0.939   4.264   0.938 -0.1747 -0.3047 -0.7198
 4676TIP3    H235664   1.076   4.309   0.890  1.5625 -2.2888  2.1103
 4677TIP3   OH235665   4.524   0.884   3.135 -0.7582  0.0587 -0.5897
 4677TIP3    H135666   4.530   0.856   3.226 -0.2161  1.0041 -0.3224
 4677TIP3    H235667   4.430   0.890   3.118 -0.8627 -0.2000 -0.1274
 4678TIP3   OH235668   4.153   4.489   1.057 -0.0964 -0.0062 -0.2223
 4678TIP3    H135669   4.075   4.538   1.084  0.1286  0.6146 -0.6871
 4678TIP3    H235670   4.119   4.420   0.999 -0.5373 -1.1210  1.3080
 4679TIP3   OH235671   0.633   4.736   1.033  0.4105 -0.0780 -0.7484
 4679TIP3    H135672   0.593   4.802   0.975  0.9425  1.1835  0.2683
 4679TIP3    H235673   0.591   4.654   1.007 -1.9554  0.9782 -0.5949
 4680TIP3   OH235674   4.145   3.252   2.589 -0.4849 -0.9299 -0.1682
 4680TIP3    H135675   4.063   3.298   2.569 -0.1481  0.6646  1.8354
 4680TIP3    H235676   4.133   3.219   2.678  1.4469  0.3826  0.6445
 4681TIP3   OH235677   2.829   0.228   2.859  0.3906 -0.2344 -0.3588
 4681TIP3    H135678   2.779   0.310   2.855 -1.0106 -0.8203  2.3249
 4681TIP3    H235679   2.920   0.256   2.872  0.0944  0.8878 -0.5673
 4682TIP3   OH235680   3.789   5.704   0.993  0.1147 -0.1268 -0.4371
 4682TIP3    H135681   3.703   5.735   0.963 -0.5282  1.4253  2.6559
 4682TIP3    H235682   3.852   5.760   0.948 -0.6069  0.3018 -0.9375
 4683TIP3   OH235683   3.297   5.305   2.054 -0.1400  0.4076  0.2339
 4683TIP3    H135684   3.223   5.333   2.001 -1.7690 -1.0399  1.5925
 4683TIP3    H235685   3.257   5.267   2.132  1.8805 -2.9139 -0.1453
 4684TIP3   OH235686   6.441   0.607   0.984  0.2737  0.1537 -0.4388
 4684TIP3    H135687   6.444   0.572   1.073 -0.1135 -0.4370 -0.6503
 4684TIP3    H235688   6.492   0.688   0.988  1.9792 -0.8832 -0.1322
 4685TIP3   OH235689   4.500   1.972   0.638 -0.2272 -0.2053 -0.0388
 4685TIP3    H135690   4.586   1.967   0.680 -0.6121  1.7956  1.1254
 4685TIP3    H235691   4.513   2.028   0.562 -0.8046  1.6095  1.1473
 4686TIP3   OH235692   0.229   2.820   1.284 -0.4383 -0.4187 -0.5318
 4686TIP3    H135693   0.226   2.728   1.256 -2.3503 -0.5652 -0.0404
 4686TIP3    H235694   0.191   2.868   1.210  0.3521 -0.0494 -0.6997
 4687TIP3   OH235695   0.648   4.425   1.218  0.9810  0.3344 -0.1307
 4687TIP3    H135696   0.654   4.360   1.288  0.4353  0.5229  0.1003
 4687TIP3    H235697   0.631   4.507   1.265 -0.4713  0.2895 -0.5430
 4688TIP3   OH235698   3.105   5.033   9.081  0.1011 -0.3347  0.0208
 4688TIP3    H135699   3.136   5.065   8.996  3.0271 -1.8762  0.3842
 4688TIP3    H235700   3.145   5.091   9.145 -0.2035 -0.5666  0.4275
 4689TIP3   OH235701   2.701   0.663   0.826 -0.2409  0.2568  0.2725
 4689TIP3    H135702   2.767   0.596   0.839  1.1868  1.8959  2.0808
 4689TIP3    H235703   2.744   0.745   0.851 -2.5256  1.5880  0.1619
 4690TIP3   OH235704   5.800   5.515   0.216 -0.0338 -0.7080  0.2315
 4690TIP3    H135705   5.765   5.498   0.129 -1.1856  0.4315  0.4324
 4690TIP3    H235706   5.875   5.573   0.201 -1.3846  1.0928  0.0574
 4691TIP3   OH235707   0.026   5.464   7.792 -0.3247 -0.2121 -0.0118
 4691TIP3    H135708   0.043   5.374   7.761 -2.2921 -0.3502 -0.8251
 4691TIP3    H235709   0.109   5.491   7.832  0.0935 -2.6657  0.9575
 4692TIP3   OH235710   1.319   5.965   7.771 -0.1069 -0.0118  0.4919
 4692TIP3    H135711   1.368   5.899   7.819 -0.3173  0.9477  2.0848
 4692TIP3    H235712   1.321   5.935   7.680 -1.5884 -3.0823  1.3483
 4693TIP3   OH235713   4.003   2.724   2.353 -0.1911 -0.6078  0.5153
 4693TIP3    H135714   3.976   2.651   2.298 -0.5568  0.8099 -1.2983
 4693TIP3    H235715   4.096   2.709   2.369  0.1584 -0.6211 -1.2879
 4694TIP3   OH235716   2.180   3.150   8.079  0.3000 -0.3068 -0.0263
 4694TIP3    H135717   2.165   3.077   8.019  1.4571 -0.3537 -0.2799
 4694TIP3    H235718   2.274   3.148   8.096  0.3357  1.0880  0.0325
 4695TIP3   OH235719   5.150   2.019   0.231 -0.2533  0.0865 -0.4020
 4695TIP3    H135720   5.170   1.982   0.145 -1.0502 -0.8200 -0.2100
 4695TIP3    H235721   5.069   2.069   0.218 -0.1381  0.3096 -0.2709
 4696TIP3   OH235722   4.661   1.255   7.769  0.3479  0.6859 -0.5851
 4696TIP3    H135723   4.587   1.296   7.724  0.9630  2.3639 -0.1484
 4696TIP3    H235724   4.719   1.227   7.698 -0.4868 -0.2897 -0.9150
 4697TIP3   OH235725   2.882   5.873   0.433  0.0371  0.5072  0.4164
 4697TIP3    H135726   2.877   5.939   0.502 -1.2041 -0.6062  1.4257
 4697TIP3    H235727   2.810   5.813   0.451 -0.0234 -0.0965 -1.5752
 4698TIP3   OH235728   1.956   6.260   1.558  0.0966 -0.1579 -0.5884
 4698TIP3    H135729   1.960   6.325   1.488 -0.4349  0.5635  0.0318
 4698TIP3    H235730   1.993   6.304   1.634 -1.8094  0.0565  0.2834
 4699TIP3   OH235731   4.581   3.762   3.223 -0.0190 -0.8033 -0.4783
 4699TIP3    H135732   4.612   3.757   3.132 -0.4444 -0.7222 -0.6320
 4699TIP3    H235733   4.627   3.692   3.268 -0.4489 -1.3982 -0.9538
 4700TIP3   OH235734   6.579   1.192   8.609  0.6477  0.0510  0.3810
 4700TIP3    H135735   6.668   1.203   8.577  1.8162  0.2255  3.3779
 4700TIP3    H235736   6.566   1.265   8.670 -1.1123 -0.5994  0.8519
 4701TIP3   OH235737   5.779   2.465   8.649  0.1337  0.5192  0.2698
 4701TIP3    H135738   5.816   2.379   8.666  0.8471  0.8365  0.3428
 4701TIP3    H235739   5.684   2.453   8.659  0.3654  0.2564  2.4892
 4702TIP3   OH235740   3.673   5.804   8.934 -0.0108 -0.2492  0.4708
 4702TIP3    H135741   3.640   5.879   8.884  0.3257 -1.2738 -1.3798
 4702TIP3    H235742   3.759   5.786   8.896  0.2591 -1.0773  1.4350
 4703TIP3   OH235743   2.517   4.783   9.142  0.2199  0.3210 -0.0464
 4703TIP3    H135744   2.447   4.769   9.078  1.3058 -0.4387 -1.1339
 4703TIP3    H235745   2.572   4.851   9.102  1.2901 -0.6515 -0.2699
 4704TIP3   OH235746   6.101   4.801   8.224  0.4767 -0.1411 -0.0401
 4704TIP3    H135747   6.112   4.730   8.288 -0.3929 -1.5290 -1.3494
 4704TIP3    H235748   6.108   4.757   8.139 -0.9185  1.2129 -0.8935
 4705TIP3   OH235749   0.407   6.062   0.725  0.4158 -0.5161 -0.1260
 4705TIP3    H135750   0.317   6.053   0.755 -0.0969  2.0811 -0.6740
 4705TIP3    H235751   0.403   6.045   0.631 -0.1038  2.2586 -0.6908
 4706TIP3   OH235752   4.447   6.374   2.452 -0.1414 -0.8763 -0.7507
 4706TIP3    H135753   4.445   6.305   2.518 -0.0284 -0.3885 -0.2275
 4706TIP3    H235754   4.464   6.454   2.502  0.3887 -0.5585 -1.4179
 4707TIP3   OH235755   3.346   4.492   2.731 -0.2712  0.3866 -0.1389
 4707TIP3    H135756   3.316   4.432   2.800  0.6169 -0.5616 -0.5378
 4707TIP3    H235757   3.294   4.571   2.743  0.1337  0.4156  1.9017
 4708TIP3   OH235758   3.453   3.161   0.085  0.2102 -0.0470  0.4735
 4708TIP3    H135759   3.438   3.136   0.176  2.1851 -1.7419  0.4006
 4708TIP3    H235760   3.393   3.106   0.034 -1.6000  1.5854  0.7302
 4709TIP3   OH235761   2.247   0.618   7.914 -0.0443  0.3024  0.2016
 4709TIP3    H135762   2.220   0.709   7.904 -0.3544  0.2610  0.5992
 4709TIP3    H235763   2.177   0.568   7.872 -1.0729  0.1540  2.0001
 4710TIP3   OH235764   2.359   3.903   2.435  0.6162 -0.1462 -0.4267
 4710TIP3    H135765   2.278   3.924   2.482  0.9459  3.1419 -1.0638
 4710TIP3    H235766   2.369   3.809   2.446 -2.0717 -0.3344  1.6090
 4711TIP3   OH235767   1.926   5.150   2.922  0.0369  0.1902  0.2763
 4711TIP3    H135768   2.004   5.188   2.882  0.3311 -0.6844  0.0033
 4711TIP3    H235769   1.882   5.105   2.850 -0.8276  0.8256  0.3883
 4712TIP3   OH235770   5.821   3.351   9.182  0.1282  0.7523 -0.0911
 4712TIP3    H135771   5.792   3.316   9.266 -1.6876 -0.2884 -1.0979
 4712TIP3    H235772   5.755   3.415   9.159  0.5378  0.9277 -0.7905
 4713TIP3   OH235773   3.343   4.576   7.529  0.0342 -0.0955  0.3383
 4713TIP3    H135774   3.414   4.622   7.483  0.5253 -1.6943 -0.5923
 4713TIP3    H235775   3.265   4.629   7.513  0.4669  0.1357 -1.1848
 4714TIP3   OH235776   0.703   3.388   0.500 -0.3962 -0.4841  0.2307
 4714TIP3    H135777   0.659   3.405   0.584 -0.9894 -3.0169  0.5216
 4714TIP3    H235778   0.636   3.408   0.434 -0.2819  0.4696  0.3827
 4715TIP3   OH235779   0.652   2.446   2.641 -0.2682 -0.0395 -0.0629
 4715TIP3    H135780   0.561   2.423   2.621  0.0170 -2.0049  0.7092
 4715TIP3    H235781   0.645   2.524   2.696 -1.4675  0.0224 -0.2643
 4716TIP3   OH235782   4.846   3.405   7.949  0.2626  0.3331  0.1661
 4716TIP3    H135783   4.909   3.399   7.878  0.7871 -2.5385  0.7519
 4716TIP3    H235784   4.773   3.350   7.921  0.1747 -0.2698  1.5171
 4717TIP3   OH235785   1.128   2.958   6.908 -0.1089  0.0801 -0.3858
 4717TIP3    H135786   1.086   2.901   6.845  1.3032 -0.5840 -0.7833
 4717TIP3    H235787   1.105   2.921   6.993 -0.9881  0.2283 -0.5577
 4718TIP3   OH235788   6.675   3.702   3.125  0.3762 -0.2389 -0.1776
 4718TIP3    H135789   6.684   3.775   3.064 -4.4684  0.2906 -0.6263
 4718TIP3    H235790   6.624   3.637   3.077  0.4270 -1.8401  1.8253
 4719TIP3   OH235791   1.844   5.012   2.696 -0.3996  1.0393 -0.2115
 4719TIP3    H135792   1.785   4.937   2.692  0.1471  0.6692 -1.8568
 4719TIP3    H235793   1.833   5.057   2.612  0.1130  2.1625  0.2981
 4720TIP3   OH235794   1.621   0.659   0.119  0.2369  0.3760  0.6332
 4720TIP3    H135795   1.701   0.711   0.126  0.1505  0.3983  1.4876
 4720TIP3    H235796   1.618   0.608   0.200  0.8568 -1.7554 -0.6081
 4721TIP3   OH235797   3.883   0.300   0.835 -0.0124 -0.6897  0.7873
 4721TIP3    H135798   3.828   0.294   0.757  1.8526  0.0554 -0.6606
 4721TIP3    H235799   3.925   0.385   0.828 -0.5110 -0.1849  3.1512
 4722TIP3   OH235800   2.253   3.212   0.024  0.0489  0.2122 -0.7556
 4722TIP3    H135801   2.237   3.209  -0.071 -0.1709  0.5375 -0.7306
 4722TIP3    H235802   2.310   3.137   0.041  1.6362  1.2206 -1.4552
 4723TIP3   OH235803   1.510   0.956   9.040 -0.4592  0.6070  0.1914
 4723TIP3    H135804   1.598   0.919   9.039  0.1118  1.8518 -1.1537
 4723TIP3    H235805   1.482   0.951   9.131  1.3481  0.9265  0.8119
 4724TIP3   OH235806   1.094   3.493   2.043 -0.1021 -0.0502  0.9071
 4724TIP3    H135807   1.045   3.417   2.073  0.6273 -0.0144  2.2301
 4724TIP3    H235808   1.130   3.466   1.958  1.6770 -1.8953  2.1568
 4725TIP3   OH235809   4.730   0.765   1.665 -0.1712 -0.5098 -0.4384
 4725TIP3    H135810   4.771   0.682   1.638 -0.3570 -0.4499 -0.9202
 4725TIP3    H235811   4.708   0.752   1.757  0.1314 -0.8636 -0.4105
 4726TIP3   OH235812   3.895   6.542   1.895  0.0162 -0.1939  0.3231
 4726TIP3    H135813   3.930   6.557   1.983  1.1972 -0.2554 -0.1132
 4726TIP3    H235814   3.824   6.479   1.908  0.8838 -1.0396  1.1115
 4727TIP3   OH235815   4.081   6.451   8.772 -0.1314  0.0153 -0.0589
 4727TIP3    H135816   4.005   6.501   8.803  0.4244 -0.2740  1.8737
 4727TIP3    H235817   4.079   6.463   8.677 -0.8824  2.4833  0.1790
 4728TIP3   OH235818   5.717   5.236   9.053 -0.3532  0.2737 -0.2659
 4728TIP3    H135819   5.718   5.180   8.975 -0.4997  3.1073 -2.4716
 4728TIP3    H235820   5.805   5.274   9.056 -1.1968  2.4218 -0.8840
 4729TIP3   OH235821   4.746   0.283   0.491  0.9224  0.2624  0.4437
 4729TIP3    H135822   4.721   0.323   0.574 -2.1762 -1.5275  0.5422
 4729TIP3    H235823   4.802   0.209   0.516  2.7803  1.6534  0.5954
 4730TIP3   OH235824   3.654   0.651   7.209  0.1472  0.0156 -0.3609
 4730TIP3    H135825   3.681   0.736   7.245  0.9505  0.0783 -1.0814
 4730TIP3    H235826   3.584   0.673   7.147 -1.1720 -0.0832  1.0189
 4731TIP3   OH235827   1.628   1.957   2.288  0.5887  0.3489  0.2689
 4731TIP3    H135828   1.565   1.934   2.356 -0.5354  0.8203 -0.5866
 4731TIP3    H235829   1.591   1.921   2.207  1.3610  0.7277 -0.2656
 4732TIP3   OH235830   5.487   6.491   1.529  0.0218 -0.4735  0.0976
 4732TIP3    H135831   5.548   6.418   1.525  0.2481 -0.3012  0.4042
 4732TIP3    H235832   5.411   6.456   1.577 -0.1020 -0.6691 -0.2348
 4733TIP3   OH235833   6.362   1.877   0.401  0.3799  0.3463  0.0264
 4733TIP3    H135834   6.289   1.837   0.448  0.1807 -1.2949 -1.5609
 4733TIP3    H235835   6.328   1.894   0.314  1.5967  0.4827 -0.4453
 4734TIP3   OH235836   5.006   1.025   0.239 -0.5638 -0.1455 -0.4991
 4734TIP3    H135837   4.984   1.082   0.312 -1.2797 -1.3284  0.2277
 4734TIP3    H235838   5.002   0.936   0.275  3.0925 -0.6406 -0.8746
 4735TIP3   OH235839   3.225   2.898   8.776 -0.3870 -0.5482 -0.4439
 4735TIP3    H135840   3.236   2.983   8.819 -0.8146 -0.2026 -1.0034
 4735TIP3    H235841   3.314   2.865   8.765 -0.0487  0.7455 -2.0268
 4736TIP3   OH235842   3.042   2.632   9.186 -0.2790  0.1052 -0.0910
 4736TIP3    H135843   2.962   2.603   9.143 -0.9028  2.5280 -0.7083
 4736TIP3    H235844   3.098   2.661   9.114  1.1270 -1.3444  0.3492
 4737TIP3   OH235845   5.037   2.072   1.830 -0.0520  0.1256  0.2144
 4737TIP3    H135846   5.023   2.050   1.922 -0.3944  0.5222  0.2582
 4737TIP3    H235847   4.951   2.060   1.790  0.3681 -1.3574 -0.3338
 4738TIP3   OH235848   2.829   0.231   0.434 -0.4460  0.2397 -0.0217
 4738TIP3    H135849   2.860   0.312   0.475 -1.3989  0.2149  0.7939
 4738TIP3    H235850   2.838   0.165   0.503 -0.0029 -0.2937 -0.5729
 4739TIP3   OH235851   1.697   4.199   8.179 -0.1560  0.2931 -0.9056
 4739TIP3    H135852   1.655   4.203   8.093  2.8452 -0.2574 -2.5404
 4739TIP3    H235853   1.783   4.238   8.166  0.4166  0.2132  1.9045
 4740TIP3   OH235854   5.090   6.000   1.801  0.2313 -0.1837 -1.0763
 4740TIP3    H135855   5.139   6.069   1.845 -0.5503  0.5590 -1.3388
 4740TIP3    H235856   5.129   5.919   1.833 -0.7137  0.2790  1.5002
 4741TIP3   OH235857   0.662   2.582   8.629  0.2907 -0.0794 -0.1326
 4741TIP3    H135858   0.682   2.519   8.560 -0.2495 -1.0150  0.5421
 4741TIP3    H235859   0.654   2.665   8.584  2.2623 -0.2479 -0.8897
 4742TIP3   OH235860   4.015   0.353   0.365 -0.1560  0.7798 -0.6501
 4742TIP3    H135861   4.034   0.261   0.381 -0.8377  0.5004 -1.3738
 4742TIP3    H235862   4.094   0.387   0.324  0.5578  0.8292  0.7141
 4743TIP3   OH235863   4.804   5.394   7.787 -0.1084 -0.0680 -0.3109
 4743TIP3    H135864   4.864   5.467   7.797 -0.4128  0.0525  0.7944
 4743TIP3    H235865   4.779   5.396   7.694 -1.9269  2.7043  0.1136
 4744TIP3   OH235866   1.455   2.833   0.723  0.1905  0.4915 -0.6846
 4744TIP3    H135867   1.383   2.813   0.664  1.5175 -2.3097 -1.5275
 4744TIP3    H235868   1.534   2.811   0.673  1.4134 -0.7667  1.6186
 4745TIP3   OH235869   1.316   6.122   1.829  0.4502 -0.3379  0.3073
 4745TIP3    H135870   1.300   6.212   1.855  0.6207 -0.4570  0.8268
 4745TIP3    H235871   1.287   6.118   1.738  1.3805  0.5042 -0.0427
 4746TIP3   OH235872   0.582   2.350   7.836  0.4605 -0.1419  0.1928
 4746TIP3    H135873   0.537   2.267   7.822 -1.4123  0.9953 -0.9320
 4746TIP3    H235874   0.602   2.381   7.747 -0.9274  1.6571  0.4606
 4747TIP3   OH235875   5.154   4.439   6.852  0.2192  0.2141 -0.2806
 4747TIP3    H135876   5.060   4.449   6.869 -0.1910  0.8962 -2.5803
 4747TIP3    H235877   5.189   4.527   6.863  0.3415  0.2159 -0.6661
 4748TIP3   OH235878   4.448   1.699   0.787  0.0382  0.6483 -0.2468
 4748TIP3    H135879   4.488   1.786   0.794  0.9910  0.2917 -1.0546
 4748TIP3    H235880   4.362   1.715   0.748 -0.5414  1.3918  1.2259
 4749TIP3   OH235881   3.234   2.150   1.103 -0.1672  0.1976 -0.1096
 4749TIP3    H135882   3.273   2.078   1.054  2.6181  0.4704  1.4854
 4749TIP3    H235883   3.285   2.227   1.076  0.8606  0.4964  2.4162
 4750TIP3   OH235884   0.456   5.712   7.763  0.7612 -0.1920  0.5382
 4750TIP3    H135885   0.429   5.779   7.700  0.9943 -0.2370  0.3843
 4750TIP3    H235886   0.551   5.726   7.772  0.6295  0.2276  1.3748
 4751TIP3   OH235887   2.042   4.702   0.330 -0.2132  0.2086  0.4664
 4751TIP3    H135888   2.090   4.682   0.410 -1.4333  0.8014  1.3703
 4751TIP3    H235889   2.085   4.779   0.294  1.3792 -1.0243 -0.3639
 4752TIP3   OH235890   1.658   1.598   2.288  0.0559  0.4324 -0.6708
 4752TIP3    H135891   1.708   1.616   2.367  0.4255 -1.1243 -0.5259
 4752TIP3    H235892   1.723   1.573   2.223 -0.4902 -1.7240 -0.4534
 4753TIP3   OH235893   2.777   4.617   8.994 -0.4776  0.5513  0.5429
 4753TIP3    H135894   2.714   4.591   9.061  0.1270 -0.1187  0.8727
 4753TIP3    H235895   2.861   4.623   9.041  0.4755 -2.4129 -0.5317
 4754TIP3   OH235896   6.394   4.825   9.074  0.0463 -0.0224  0.6057
 4754TIP3    H135897   6.373   4.782   9.158 -1.5228  1.7469  1.1785
 4754TIP3    H235898   6.431   4.910   9.100  2.3814 -0.6053 -0.5167
 4755TIP3   OH235899   5.413   6.407   1.867  0.0749  0.3327  0.4332
 4755TIP3    H135900   5.465   6.430   1.944  0.2944  0.4713  0.2445
 4755TIP3    H235901   5.407   6.311   1.869 -0.7688  0.3930  1.1755
 4756TIP3   OH235902   4.579   5.178   0.624  0.0620 -0.0237  1.1008
 4756TIP3    H135903   4.614   5.224   0.700  1.7078  0.6956 -0.0402
 4756TIP3    H235904   4.520   5.241   0.583  0.6247  0.2951  0.7616
 4757TIP3   OH235905   3.408   4.705   7.815 -0.1388  0.2179  0.0695
 4757TIP3    H135906   3.467   4.655   7.759  0.5442 -1.5704  2.2592
 4757TIP3    H235907   3.465   4.765   7.863 -0.3629 -0.0296  0.6576
 4758TIP3   OH235908   6.157   4.872   7.765 -0.3902 -0.6189 -0.2564
 4758TIP3    H135909   6.190   4.845   7.851 -3.4451  0.6722  1.5098
 4758TIP3    H235910   6.183   4.964   7.758 -1.3503 -0.3253 -0.0379
 4759TIP3   OH235911   6.603   4.543   8.030  0.8452 -0.1792 -0.0326
 4759TIP3    H135912   6.698   4.550   8.016  1.1253  1.9538  2.2469
 4759TIP3    H235913   6.592   4.460   8.077  1.6013 -0.3842 -0.2084
 4760TIP3   OH235914   4.997   4.887   0.145  0.4238 -0.2113 -0.2323
 4760TIP3    H135915   4.963   4.836   0.219  0.5602 -0.0926 -0.0870
 4760TIP3    H235916   5.073   4.837   0.114 -0.8284 -1.3667 -1.6197
 4761TIP3   OH235917   3.430   1.262   8.010 -0.2241 -0.1913 -0.3810
 4761TIP3    H135918   3.355   1.258   8.069  0.8819  0.3726  1.1145
 4761TIP3    H235919   3.488   1.328   8.049  1.9507 -1.9935 -0.3871
 4762TIP3   OH235920   6.612   6.167   0.616 -0.0120  0.7804  0.2267
 4762TIP3    H135921   6.562   6.238   0.657  0.5826  0.0014  2.4375
 4762TIP3    H235922   6.560   6.089   0.632  0.2255  0.4500 -0.5791
 4763TIP3   OH235923   4.552   4.665   1.259 -0.4962 -0.0572 -0.5932
 4763TIP3    H135924   4.471   4.619   1.280  0.4668 -1.6117 -0.1575
 4763TIP3    H235925   4.567   4.722   1.335  0.9333 -2.8193  1.3629
 4764TIP3   OH235926   1.710   3.642   8.321 -0.3682 -0.7072 -0.0636
 4764TIP3    H135927   1.719   3.738   8.322  1.3489 -0.8383  0.4391
 4764TIP3    H235928   1.663   3.624   8.240  1.5243  0.4337 -1.5036
 4765TIP3   OH235929   3.207   5.937   7.856  0.8170 -0.1836  0.3392
 4765TIP3    H135930   3.239   6.023   7.830 -2.6611  1.3155  0.5158
 4765TIP3    H235931   3.180   5.895   7.775 -0.4388  0.2332  0.5278
 4766TIP3   OH235932   3.118   5.910   1.282 -0.7315  0.4629 -0.1182
 4766TIP3    H135933   3.174   5.976   1.241  0.0048  0.3670  0.6855
 4766TIP3    H235934   3.053   5.888   1.215 -0.3672  1.2538 -0.7522
 4767TIP3   OH235935   5.182   1.981   8.452  0.6398  0.2345 -0.3353
 4767TIP3    H135936   5.182   1.948   8.362  0.4788 -0.5186 -0.0683
 4767TIP3    H235937   5.183   2.076   8.443  1.3629  0.1601 -1.1272
 4768TIP3   OH235938   0.224   1.609   2.847 -0.0631  0.1868 -0.1913
 4768TIP3    H135939   0.267   1.526   2.865 -1.4488 -0.5366 -0.0931
 4768TIP3    H235940   0.222   1.654   2.932 -1.1318 -0.5824  0.2111
 4769TIP3   OH235941   3.964   3.776   1.921  0.0274 -0.0314 -0.9047
 4769TIP3    H135942   4.036   3.730   1.965 -1.2108  0.0895  1.4309
 4769TIP3    H235943   3.887   3.722   1.939 -1.2132  2.0832  0.6523
 4770TIP3   OH235944   1.837   2.367   9.089  0.2656  0.1702  0.1322
 4770TIP3    H135945   1.887   2.352   9.169 -0.2812 -2.1220  0.1195
 4770TIP3    H235946   1.771   2.431   9.114 -0.1319 -0.7814  1.6645
 4771TIP3   OH235947   4.836   2.540   2.872  0.2577  0.0330  0.2850
 4771TIP3    H135948   4.768   2.554   2.938  0.8550  1.2798  0.6756
 4771TIP3    H235949   4.871   2.454   2.892 -2.8422 -1.8469 -1.4856
 4772TIP3   OH235950   1.816   3.541   7.968 -0.2703 -0.8920  0.6147
 4772TIP3    H135951   1.832   3.472   8.033 -1.0462 -0.9888  0.7084
 4772TIP3    H235952   1.769   3.498   7.897  0.6293 -0.7976 -0.0544
 4773TIP3   OH235953   5.656   6.520   9.190 -0.0041 -0.0848 -0.0820
 4773TIP3    H135954   5.733   6.572   9.168  0.5603 -0.9484 -0.1944
 4773TIP3    H235955   5.604   6.578   9.246  0.0569  1.0020 -1.1022
 4774TIP3   OH235956   6.101   0.050   2.413 -0.7202 -0.5166  0.0521
 4774TIP3    H135957   6.072  -0.024   2.359  0.0368 -1.4547  0.9037
 4774TIP3    H235958   6.026   0.110   2.413 -0.9741 -0.7734 -1.4996
 4775TIP3   OH235959   0.075   4.413   1.584 -0.5104 -0.7260 -0.0947
 4775TIP3    H135960   0.021   4.429   1.661  1.1968 -1.8925  1.4131
 4775TIP3    H235961   0.090   4.500   1.546 -0.4555  0.0043  1.5325
 4776TIP3   OH235962   5.699   4.303   3.033  0.4568  0.2216 -0.0640
 4776TIP3    H135963   5.643   4.359   3.087 -1.5470 -2.0172  0.3603
 4776TIP3    H235964   5.723   4.358   2.959 -0.5930  1.9251  0.7864
 4777TIP3   OH235965   6.456   5.106   7.848  0.2721  0.1312  0.4015
 4777TIP3    H135966   6.464   5.186   7.900  2.3605  1.4721 -1.7807
 4777TIP3    H235967   6.390   5.126   7.782  0.3084 -0.1718  0.2692
 4778TIP3   OH235968   4.792   2.850   7.683 -0.7894  0.2692 -0.1965
 4778TIP3    H135969   4.832   2.882   7.603  0.9423 -0.6511  0.2523
 4778TIP3    H235970   4.715   2.802   7.654 -0.6422  0.6481 -1.2368
 4779TIP3   OH235971   0.259   5.507   0.256 -0.5483  0.0832  0.2290
 4779TIP3    H135972   0.348   5.503   0.289  0.0201 -0.2585 -1.2800
 4779TIP3    H235973   0.262   5.573   0.186 -1.8420  1.2316  1.1884
 4780TIP3   OH235974   2.748   3.813   8.508 -0.7459 -0.7318 -0.2331
 4780TIP3    H135975   2.655   3.832   8.495 -0.7435 -0.6838 -0.1822
 4780TIP3    H235976   2.785   3.895   8.542 -0.7205 -0.8063 -0.0820
 4781TIP3   OH235977   1.121   1.836   0.094  0.1015 -0.3865  0.6199
 4781TIP3    H135978   1.107   1.829   0.189 -1.1588  0.3982  0.5211
 4781TIP3    H235979   1.050   1.893   0.064  0.2756 -0.9052 -0.8495
 4782TIP3   OH235980   1.969   1.756   7.494 -0.4547 -0.1282 -0.1422
 4782TIP3    H135981   1.973   1.820   7.566 -1.5798 -0.4641  0.2364
 4782TIP3    H235982   2.034   1.788   7.431  0.2821  0.3899  0.8355
 4783TIP3   OH235983   5.994   3.210   1.725 -0.2938  0.0450 -0.3336
 4783TIP3    H135984   5.966   3.274   1.790 -0.5444  0.2796 -0.6731
 4783TIP3    H235985   6.073   3.249   1.686  0.9834 -0.9260  1.1154
 4784TIP3   OH235986   1.752   4.259   2.194  0.3156  0.1772  0.1502
 4784TIP3    H135987   1.740   4.174   2.237  0.4726 -0.7280 -1.5105
 4784TIP3    H235988   1.683   4.263   2.128 -0.8838  2.2209  1.4201
 4785TIP3   OH235989   4.012   4.520   8.068  0.2367  0.0449  0.3695
 4785TIP3    H135990   3.962   4.595   8.099  1.1891  1.1810 -0.7219
 4785TIP3    H235991   4.070   4.498   8.141  1.3039  1.6368  0.0622
 4786TIP3   OH235992   0.313   5.743   2.078  0.0805  0.0189  0.3112
 4786TIP3    H135993   0.324   5.721   1.985  1.2597 -2.5939  0.9794
 4786TIP3    H235994   0.336   5.835   2.084  0.8248  0.0251 -1.8519
 4787TIP3   OH235995   1.797   3.388   8.180  0.3635  0.0625  0.0842
 4787TIP3    H135996   1.808   3.303   8.223 -0.9995 -0.4979 -0.6244
 4787TIP3    H235997   1.824   3.452   8.246  0.1333 -0.8553  1.0928
 4788TIP3   OH235998   5.386   1.777   2.503 -0.9683 -0.2577 -0.5882
 4788TIP3    H135999   5.294   1.777   2.527 -0.6825  1.2025  0.6998
 4788TIP3    H236000   5.432   1.806   2.582  0.7499 -2.3198 -0.7358
 4789TIP3   OH236001   0.922   6.552   8.100  0.1204 -0.3442  0.4035
 4789TIP3    H136002   0.839   6.571   8.145  0.9374 -0.1717  1.9125
 4789TIP3    H236003   0.897   6.503   8.022 -1.2809 -2.1390  1.8884
 4790TIP3   OH236004   4.246   4.094   1.122  0.6079  0.1333 -0.4294
 4790TIP3    H136005   4.327   4.133   1.089  0.6643 -0.5122 -1.0975
 4790TIP3    H236006   4.230   4.020   1.063  0.4148 -0.7463  0.6803
 4791TIP3   OH236007   2.651   0.332   8.063 -0.0001 -0.1811 -0.5505
 4791TIP3    H136008   2.586   0.355   7.997  0.2664 -0.2984 -0.8570
 4791TIP3    H236009   2.731   0.374   8.033 -0.0674  0.4458  0.1335
 4792TIP3   OH236010   1.324   4.512   1.636  0.6945  0.1832 -0.0517
 4792TIP3    H136011   1.353   4.428   1.672  0.0463  0.4469  1.1409
 4792TIP3    H236012   1.281   4.555   1.710 -1.5765  0.3507 -1.4046
 4793TIP3   OH236013   4.889   2.896   1.542 -0.2592 -0.2638  0.4391
 4793TIP3    H136014   4.899   2.806   1.510 -0.5224 -0.1557  0.0425
 4793TIP3    H236015   4.812   2.929   1.496  1.4117  1.0796 -1.6021
 4794TIP3   OH236016   5.030   6.614   1.779  0.2707 -0.0778 -0.2991
 4794TIP3    H136017   5.118   6.653   1.782  0.5859 -0.4888 -2.4543
 4794TIP3    H236018   5.026   6.572   1.693 -1.8651 -0.5074 -0.0297
 4795TIP3   OH236019   2.421   0.623   0.769 -0.0720 -0.1230  0.1742
 4795TIP3    H136020   2.417   0.624   0.673 -2.4232  0.9897  0.1987
 4795TIP3    H236021   2.514   0.625   0.789  0.5101  2.4314 -2.1165
 4796TIP3   OH236022   5.124   2.119   0.481  0.2021 -0.0657 -0.0730
 4796TIP3    H136023   5.194   2.075   0.529 -0.0540 -0.8632 -0.4090
 4796TIP3    H236024   5.130   2.084   0.392 -0.7028 -0.2537 -0.0747
 4797TIP3   OH236025   2.971   6.471   8.391  0.5738 -0.3331 -0.5969
 4797TIP3    H136026   2.935   6.415   8.322 -2.1015 -0.0814  0.4837
 4797TIP3    H236027   2.978   6.415   8.467  0.0111  0.2330 -0.1146
 4798TIP3   OH236028   0.996   2.981   1.597  0.1766 -0.1973  0.9291
 4798TIP3    H136029   0.966   2.927   1.523 -1.4968 -0.7716  1.9759
 4798TIP3    H236030   1.065   3.036   1.560  0.2335 -1.3337 -0.7630
 4799TIP3   OH236031   1.720   1.102   1.244 -0.4180  0.5867 -0.1606
 4799TIP3    H136032   1.697   1.009   1.244 -0.3746  0.4185 -3.6542
 4799TIP3    H236033   1.636   1.147   1.240 -0.4105  0.6686  0.5023
 4800TIP3   OH236034   0.185   0.994   9.091 -0.4708 -0.2714 -0.3446
 4800TIP3    H136035   0.249   0.982   9.021  1.3314 -1.1831  1.3582
 4800TIP3    H236036   0.237   1.026   9.165 -2.0625 -0.6513  0.9881
 4801TIP3   OH236037   2.601   4.512   9.191  0.1709  0.3668  0.1968
 4801TIP3    H136038   2.644   4.527   9.275 -1.2672  0.8154  0.8720
 4801TIP3    H236039   2.560   4.595   9.169 -0.7640 -0.1887 -0.1924
 4802TIP3   OH236040   3.046   5.474   7.043 -0.1807  0.9514  0.3596
 4802TIP3    H136041   2.957   5.467   7.076 -0.6938  1.0826 -0.9551
 4802TIP3    H236042   3.037   5.482   6.949  1.3007 -0.5715  0.0320
 4803TIP3   OH236043   1.924   4.378   8.875  0.2113 -0.7148  0.0412
 4803TIP3    H136044   1.961   4.290   8.861  1.7565 -0.2396  0.9394
 4803TIP3    H236045   1.986   4.421   8.933  0.3965  1.5907 -1.7473
 4804TIP3   OH236046   2.097   4.294   1.321 -0.2421  0.3175 -0.0053
 4804TIP3    H136047   2.188   4.271   1.299 -0.7784 -0.2231 -1.8441
 4804TIP3    H236048   2.060   4.213   1.356 -0.6976 -0.2159 -1.6533
 4805TIP3   OH236049   4.970   3.973   2.541 -0.3333  0.0732 -0.1259
 4805TIP3    H136050   4.931   4.027   2.610  0.0732  0.4135 -0.1650
 4805TIP3    H236051   4.966   3.884   2.577  0.3679  0.3118  0.5697
 4806TIP3   OH236052   0.289   5.492   8.982  0.1831  0.3805 -0.1714
 4806TIP3    H136053   0.241   5.510   9.064 -2.1451 -1.3343 -1.0373
 4806TIP3    H236054   0.228   5.516   8.913  1.5894  0.5001 -1.4150
 4807TIP3   OH236055   1.765   0.451   1.246 -0.6672  0.2246 -0.1662
 4807TIP3    H136056   1.724   0.454   1.333 -1.9609  0.1769 -0.7569
 4807TIP3    H236057   1.751   0.361   1.216 -0.5256  0.3338 -0.5596
 4808TIP3   OH236058   0.925   0.809   2.496 -0.3034 -0.4558 -0.4860
 4808TIP3    H136059   1.002   0.842   2.543  0.8849 -2.9070 -0.5342
 4808TIP3    H236060   0.905   0.726   2.540  0.6345 -2.7076 -3.9108
 4809TIP3   OH236061   2.492   5.387   2.541 -0.7543 -0.2404 -0.0526
 4809TIP3    H136062   2.532   5.469   2.572  1.4376 -1.2215 -0.0626
 4809TIP3    H236063   2.433   5.414   2.471 -0.6526  1.3905  0.4537
 4810TIP3   OH236064   0.687   1.384   8.756  0.0626  0.5797  0.2939
 4810TIP3    H136065   0.726   1.469   8.779 -0.3622  0.8552  0.0022
 4810TIP3    H236066   0.608   1.406   8.708 -0.3300  0.0120  0.6726
 4811TIP3   OH236067   6.644   3.541   1.180  0.0124 -0.2086  0.9297
 4811TIP3    H136068   6.733   3.573   1.190  0.7891 -2.2460  0.9970
 4811TIP3    H236069   6.613   3.580   1.098  1.3994 -0.4223  0.2898
 4812TIP3   OH236070   2.575   4.890   0.787 -0.0518  0.1032  0.4900
 4812TIP3    H136071   2.599   4.814   0.734  0.7001 -1.3198  2.7421
 4812TIP3    H236072   2.658   4.924   0.819 -0.3337  2.1960 -0.7615
 4813TIP3   OH236073   2.645   4.267   1.165  0.0956 -0.1763 -0.4674
 4813TIP3    H136074   2.707   4.327   1.208 -0.6487 -0.7550  1.5446
 4813TIP3    H236075   2.571   4.323   1.142 -0.0885 -0.0787  0.3161
 4814TIP3   OH236076   3.754   3.084   8.789 -0.6027  0.1553 -0.4247
 4814TIP3    H136077   3.754   3.122   8.701 -2.6474  0.7830 -0.2066
 4814TIP3    H236078   3.775   3.157   8.847  2.1324 -0.5378 -0.4117
 4815TIP3   OH236079   3.725   2.116   6.932 -0.2392 -0.1916  0.4201
 4815TIP3    H136080   3.639   2.113   6.890 -0.3971  1.6803  0.5037
 4815TIP3    H236081   3.756   2.026   6.930 -1.5564 -0.6601 -0.9638
 4816TIP3   OH236082   3.283   1.433   1.542 -0.6279  0.1909 -0.4283
 4816TIP3    H136083   3.328   1.380   1.475 -0.7881 -1.3932  0.6631
 4816TIP3    H236084   3.322   1.405   1.625 -1.7193  0.7777  0.2991
 4817TIP3   OH236085   4.853   4.263   2.692 -0.4674  0.2806 -0.1776
 4817TIP3    H136086   4.929   4.286   2.745 -0.4039 -0.1320 -0.0845
 4817TIP3    H236087   4.777   4.287   2.746 -0.4157  1.2178 -0.4978
 4818TIP3   OH236088   4.663   0.998   0.206  0.3871 -0.3965  0.0914
 4818TIP3    H136089   4.707   1.082   0.216 -1.3099  0.5393  0.1458
 4818TIP3    H236090   4.731   0.938   0.176  2.2473  0.3131  2.5758
 4819TIP3   OH236091   2.206   3.843   0.652 -0.0452  0.1532 -0.2162
 4819TIP3    H136092   2.273   3.841   0.583  1.0185 -0.1362  0.8074
 4819TIP3    H236093   2.131   3.797   0.613 -0.3187  1.9697 -2.0162
 4820TIP3   OH236094   2.517   3.092   1.481 -0.1056 -0.1215  0.1220
 4820TIP3    H136095   2.490   3.001   1.471 -1.2621  0.3603 -1.6925
 4820TIP3    H236096   2.437   3.137   1.508  0.6093  0.2795  1.6601
 4821TIP3   OH236097   2.400   6.345   0.401 -0.2474  0.6163 -0.2173
 4821TIP3    H136098   2.482   6.384   0.371 -0.3962  0.4278 -0.8788
 4821TIP3    H236099   2.420   6.253   0.412 -0.4447  0.5164 -0.6685
 4822TIP3   OH236100   0.528   6.659   2.514 -0.5021 -0.1457  0.8413
 4822TIP3    H136101   0.563   6.570   2.506 -2.4711 -0.8425 -0.9379
 4822TIP3    H236102   0.465   6.655   2.585 -1.5344 -0.5336 -0.0788
 4823TIP3   OH236103   6.325   0.093   2.270  0.2673  1.1158 -0.0461
 4823TIP3    H136104   6.243   0.064   2.311  0.1306  0.5077 -0.7335
 4823TIP3    H236105   6.393   0.052   2.323  0.0923  0.3641 -0.3894
 4824TIP3   OH236106   1.782   4.026   2.342 -0.6040  0.1674  0.4703
 4824TIP3    H136107   1.868   4.033   2.382 -0.6707 -0.3638  0.7063
 4824TIP3    H236108   1.722   4.012   2.415 -0.7068 -0.9707  0.1810
 4825TIP3   OH236109   0.728   0.282   2.731  0.1131 -0.6296 -0.8024
 4825TIP3    H136110   0.789   0.212   2.707 -0.3888 -1.0699 -0.8101
 4825TIP3    H236111   0.745   0.297   2.824 -0.2143 -1.1987 -0.6493
 4826TIP3   OH236112   2.496   4.820   2.531 -0.5455 -0.0067  0.0784
 4826TIP3    H136113   2.484   4.812   2.626  0.4730 -1.4387  0.1220
 4826TIP3    H236114   2.414   4.857   2.500  0.0734  3.1962  1.8018
 4827TIP3   OH236115   2.727   5.825   7.617  0.3269  0.2548 -0.7148
 4827TIP3    H136116   2.800   5.831   7.555  0.5896 -0.4298 -0.4852
 4827TIP3    H236117   2.766   5.788   7.696 -0.0880  0.7452 -0.2789
 4828TIP3   OH236118   4.032   6.674   1.279  0.0251  0.0906  0.4231
 4828TIP3    H136119   4.083   6.706   1.354 -1.9007  0.0355  1.8211
 4828TIP3    H236120   4.046   6.741   1.212 -0.5715  1.7578  1.8570
 4829TIP3   OH236121   4.862   5.383   0.332 -0.0115  0.1052 -0.3097
 4829TIP3    H136122   4.858   5.399   0.427 -0.3804  0.5464 -0.3960
 4829TIP3    H236123   4.898   5.295   0.325  0.3500  0.1998  0.2309
 4830TIP3   OH236124   4.007   4.978   2.420  0.1280  0.3218 -0.5990
 4830TIP3    H136125   3.926   5.030   2.422 -1.2361 -1.5818 -2.6108
 4830TIP3    H236126   3.990   4.906   2.480  1.2539  1.0544  0.6572
 4831TIP3   OH236127   1.909   5.089   8.980  0.5932  0.3454 -0.1149
 4831TIP3    H136128   1.990   5.131   8.952  0.1272  0.6823 -0.9948
 4831TIP3    H236129   1.878   5.144   9.052  2.6704 -1.4770  2.3598
 4832TIP3   OH236130   3.666   1.001   1.328 -0.4299  0.3738 -0.3588
 4832TIP3    H136131   3.749   1.005   1.280  0.3189  0.7184  0.9160
 4832TIP3    H236132   3.663   0.911   1.361  1.0885  1.2105  2.3301
 4833TIP3   OH236133   2.819   5.735   1.786  0.3786  0.3291 -0.0593
 4833TIP3    H136134   2.838   5.641   1.780  1.2133  0.4039  1.0744
 4833TIP3    H236135   2.800   5.761   1.696  0.4038 -0.8686 -0.4318
 4834TIP3   OH236136   4.517   0.565   1.437  0.5317 -0.1781  0.1611
 4834TIP3    H136137   4.464   0.485   1.434  1.2703 -0.7380  1.1328
 4834TIP3    H236138   4.476   0.624   1.375 -1.0481 -0.7031  0.6696
 4835TIP3   OH236139   3.345   5.670   7.886  0.0473  0.0357 -0.6781
 4835TIP3    H136140   3.322   5.583   7.919 -0.9378  0.7115  0.5018
 4835TIP3    H236141   3.277   5.728   7.921 -0.4965  0.9852 -3.1038
 4836TIP3   OH236142   4.038   3.397   8.770 -0.0479  0.4072 -0.8882
 4836TIP3    H136143   4.055   3.338   8.843  1.2512  0.4728 -1.1010
 4836TIP3    H236144   3.943   3.408   8.769 -0.0157  1.5824  1.6945
 4837TIP3   OH236145   2.986   6.553   0.790  0.7004 -0.3349  0.0128
 4837TIP3    H136146   2.992   6.566   0.884 -1.4747 -1.1485  0.3268
 4837TIP3    H236147   2.923   6.482   0.780 -0.7513  1.1239 -2.1043
 4838TIP3   OH236148   6.147   0.514   0.589 -0.3973 -0.8896 -0.3274
 4838TIP3    H136149   6.185   0.558   0.665 -1.8821 -0.9831  0.5171
 4838TIP3    H236150   6.204   0.440   0.572  1.4953  0.6347 -1.0370
 4839TIP3   OH236151   5.362   6.063   8.767  0.0069  0.0969  0.0044
 4839TIP3    H136152   5.363   6.157   8.753  0.1225  0.0213 -0.5171
 4839TIP3    H236153   5.277   6.034   8.735 -0.9966  0.3168  2.2500
 4840TIP3   OH236154   5.896   2.178   1.424  0.1718 -0.0946  0.3551
 4840TIP3    H136155   5.897   2.149   1.515 -1.5443 -1.6745 -0.0707
 4840TIP3    H236156   5.909   2.097   1.374  1.0504  0.7488 -0.8206
 4841TIP3   OH236157   0.795   4.649   8.750 -0.1626 -0.0362  0.0593
 4841TIP3    H136158   0.805   4.660   8.845 -0.2108 -2.4201  0.4013
 4841TIP3    H236159   0.711   4.690   8.730 -0.7600 -0.6111  1.2850
 4842TIP3   OH236160   2.405   2.529   2.542  0.1518 -0.0961  0.4555
 4842TIP3    H136161   2.389   2.479   2.462 -1.7078 -1.9587  1.8720
 4842TIP3    H236162   2.336   2.595   2.544  1.9514  1.9764 -0.8527
 4843TIP3   OH236163   2.026   2.734   2.250 -0.1401  0.3605  0.3097
 4843TIP3    H136164   2.035   2.657   2.306  1.3550  0.1473 -0.1649
 4843TIP3    H236165   1.979   2.798   2.303 -2.3669 -1.2086  0.3641
 4844TIP3   OH236166   4.277   1.933   2.477 -0.7319 -0.3476  0.6531
 4844TIP3    H136167   4.307   1.951   2.566 -1.4830 -0.2624  0.8987
 4844TIP3    H236168   4.300   1.842   2.462 -2.2347 -0.9327  1.6403
 4845TIP3   OH236169   3.168   5.171   0.398 -0.3320 -0.2256  0.1265
 4845TIP3    H136170   3.219   5.117   0.458  0.9279 -0.4143 -1.0739
 4845TIP3    H236171   3.094   5.115   0.373  0.4471 -1.0538 -0.3730
 4846TIP3   OH236172   5.021   5.874   3.050  0.0973  0.1125  0.1000
 4846TIP3    H136173   5.066   5.956   3.069 -1.5748  0.8020  1.4507
 4846TIP3    H236174   4.932   5.900   3.026 -0.1888 -1.2633 -0.4513
 4847TIP3   OH236175   1.795   2.208   2.036  0.0324 -0.0171  0.1743
 4847TIP3    H136176   1.845   2.157   1.973 -0.6258 -0.7203  0.1995
 4847TIP3    H236177   1.801   2.159   2.118  2.1321  1.6408  1.1180
 4848TIP3   OH236178   4.342   0.869   8.388 -0.3960 -0.3199 -0.4383
 4848TIP3    H136179   4.362   0.808   8.459 -3.3652 -0.1828  0.6520
 4848TIP3    H236180   4.344   0.955   8.429  0.4655  0.0371 -1.1886
 4849TIP3   OH236181   5.484   1.950   9.173  0.4215  0.3086 -0.2872
 4849TIP3    H136182   5.452   2.041   9.175 -1.3685 -0.2812  1.0774
 4849TIP3    H236183   5.467   1.921   9.084 -0.0605  0.9889 -0.4291
 4850TIP3   OH236184   2.714   2.345   1.874 -0.0404  0.1909  0.0582
 4850TIP3    H136185   2.708   2.440   1.875  1.6363  0.3469 -0.5221
 4850TIP3    H236186   2.788   2.325   1.932 -0.5296 -0.7760  0.3719
 4851TIP3   OH236187   4.774   3.696   2.320 -0.5933 -0.5004  0.3428
 4851TIP3    H136188   4.817   3.697   2.406  0.3230  0.0287 -0.1014
 4851TIP3    H236189   4.740   3.784   2.309  0.5380 -0.1437 -0.4275
 4852TIP3   OH236190   0.389   1.240   1.528  0.4188  0.8514 -0.0484
 4852TIP3    H136191   0.325   1.241   1.598 -0.6867  1.2591 -1.0389
 4852TIP3    H236192   0.474   1.243   1.573 -0.0966 -2.1052  1.4267
 4853TIP3   OH236193   3.123   4.754   2.248  0.1117 -0.1362  0.1877
 4853TIP3    H136194   3.148   4.711   2.330 -0.4017 -1.2568 -0.2119
 4853TIP3    H236195   3.038   4.716   2.227  0.6986 -0.6661 -1.3895
 4854TIP3   OH236196   3.622   5.166   1.261 -0.3718  0.0921  0.0221
 4854TIP3    H136197   3.587   5.084   1.294  0.4983 -0.4527 -0.3768
 4854TIP3    H236198   3.686   5.141   1.194 -0.1253  1.0880 -0.1436
 4855TIP3   OH236199   1.704   0.792   2.352  0.3578  0.2470  0.2101
 4855TIP3    H136200   1.637   0.821   2.414  0.4180 -1.1746  0.9790
 4855TIP3    H236201   1.735   0.873   2.311 -1.1740  1.0211  0.4935
 4856TIP3   OH236202   1.027   6.217   9.019 -0.2003  0.3113  0.0959
 4856TIP3    H136203   0.943   6.219   9.064 -0.1950  1.4928  0.0949
 4856TIP3    H236204   1.084   6.274   9.072  0.2077  0.5892 -0.6228
 4857TIP3   OH236205   3.028   6.238   0.128  0.0664  0.3600  0.3770
 4857TIP3    H136206   3.089   6.215   0.058 -0.3044  1.0889 -0.2052
 4857TIP3    H236207   3.018   6.157   0.179  0.6120 -0.0853 -0.2014
 4858TIP3   OH236208   4.051   0.087   0.433 -0.7984 -0.1235 -0.0006
 4858TIP3    H136209   4.081   0.010   0.482 -1.8522  0.3250  1.4221
 4858TIP3    H236210   3.989   0.052   0.370  1.9475 -0.9617 -2.4564
 4859TIP3   OH236211   4.560   2.790   8.784  0.6909  0.4873 -0.4011
 4859TIP3    H136212   4.499   2.801   8.857  0.3622  1.2152 -0.7725
 4859TIP3    H236213   4.555   2.696   8.763  1.7442  0.0066  1.3047
 4860TIP3   OH236214   1.487   6.249   7.435 -0.5946  0.3382 -0.2684
 4860TIP3    H136215   1.517   6.170   7.389  0.6345  0.8026 -0.3044
 4860TIP3    H236216   1.392   6.239   7.441 -0.5486 -0.7216 -1.0552
 4861TIP3   OH236217   1.870   3.959   1.365 -0.0853  0.0094 -0.1089
 4861TIP3    H136218   1.817   3.971   1.286 -1.5174 -0.8212  0.6937
 4861TIP3    H236219   1.810   3.921   1.429  1.2750 -0.1590  1.1141
 4862TIP3   OH236220   2.838   5.120   2.214  0.2805  0.3341 -0.4344
 4862TIP3    H136221   2.798   5.161   2.291 -0.6474  0.1497 -0.8098
 4862TIP3    H236222   2.792   5.036   2.205  1.6502 -0.4913 -0.1094
 4863TIP3   OH236223   0.028   0.523   9.201 -0.2384 -0.6299 -0.9687
 4863TIP3    H136224   0.026   0.619   9.198  2.4608 -0.2533  2.2936
 4863TIP3    H236225   0.121   0.501   9.192 -0.5197 -2.7332  0.4539
 4864TIP3   OH236226   6.613   3.758   7.576 -0.4297  0.1189  0.4878
 4864TIP3    H136227   6.580   3.668   7.584  0.3213 -0.0672  1.6902
 4864TIP3    H236228   6.705   3.753   7.602 -1.0027  1.6275  3.2886
 4865TIP3   OH236229   2.940   3.285   1.558 -0.2569 -0.3679 -0.3113
 4865TIP3    H136230   2.923   3.355   1.621  0.7326 -0.0866 -0.3353
 4865TIP3    H236231   2.884   3.213   1.586 -0.0328 -0.1490  0.7368
 4866TIP3   OH236232   2.796   5.085   2.670 -0.5213  0.5339  0.2130
 4866TIP3    H136233   2.788   5.018   2.738  1.6858  0.6064  0.6434
 4866TIP3    H236234   2.883   5.122   2.684 -1.0508  2.3749 -1.0477
 4867TIP3   OH236235   3.430   4.166   7.079 -0.3995  0.0210 -0.1915
 4867TIP3    H136236   3.490   4.236   7.054 -0.2913 -0.0161 -0.0369
 4867TIP3    H236237   3.343   4.206   7.072 -0.2795  0.5463  1.0477
 4868TIP3   OH236238   0.645   1.886   1.663  0.0062 -0.0054 -0.3933
 4868TIP3    H136239   0.688   1.868   1.747 -1.3018  1.6165  0.6941
 4868TIP3    H236240   0.712   1.929   1.610 -0.1263  2.4782  1.2683
 4869TIP3   OH236241   3.474   3.434   0.297 -0.2221 -0.7460 -0.1248
 4869TIP3    H136242   3.478   3.453   0.390 -2.3208  1.4388 -0.3919
 4869TIP3    H236243   3.389   3.391   0.285  1.6649 -4.8570 -0.5615
 4870TIP3   OH236244   6.453   2.206   1.202 -0.2548  0.1732  0.5248
 4870TIP3    H136245   6.511   2.137   1.234  0.9682  1.4546  1.1952
 4870TIP3    H236246   6.400   2.230   1.279 -3.1150 -2.2370 -0.4983
 4871TIP3   OH236247   4.865   3.327   0.115  0.5079 -0.2135 -0.1144
 4871TIP3    H136248   4.850   3.241   0.153 -0.7334 -0.1447 -0.3762
 4871TIP3    H236249   4.932   3.367   0.170  0.4595 -1.0164  0.5406
 4872TIP3   OH236250   3.522   1.542   8.691 -0.3318 -0.1476  1.1511
 4872TIP3    H136251   3.565   1.616   8.649  0.4004 -1.3769 -0.3141
 4872TIP3    H236252   3.431   1.571   8.701 -0.2130  0.7010 -0.0146
 4873TIP3   OH236253   2.931   4.633   8.552  0.8092  0.4732  0.5871
 4873TIP3    H136254   2.987   4.688   8.608  0.8940  1.1736 -0.1626
 4873TIP3    H236255   2.883   4.696   8.498  0.5984 -0.1832  0.0008
 4874TIP3   OH236256   2.291   0.790   1.232 -0.0983  0.5491 -0.0832
 4874TIP3    H136257   2.245   0.795   1.148  0.2856 -0.4168 -0.3682
 4874TIP3    H236258   2.324   0.878   1.246 -0.0338  0.6918 -1.0357
 4875TIP3   OH236259   3.392   1.503   7.687 -0.6595 -0.5253  0.0923
 4875TIP3    H136260   3.481   1.507   7.723 -0.2326 -1.3322 -0.8049
 4875TIP3    H236261   3.396   1.556   7.607 -1.6843  1.5343  1.3396
 4876TIP3   OH236262   1.515   6.094   0.538  0.0109 -0.2004 -0.6206
 4876TIP3    H136263   1.569   6.050   0.603 -1.9811 -1.3689  0.3107
 4876TIP3    H236264   1.477   6.024   0.486 -0.5156  0.5960 -1.3434
 4877TIP3   OH236265   4.337   6.175   7.974 -0.0476  0.2076  0.1039
 4877TIP3    H136266   4.301   6.147   7.890 -3.6401  1.4486  1.0651
 4877TIP3    H236267   4.349   6.269   7.965 -0.0388  0.2843  0.8583
 4878TIP3   OH236268   1.130   2.157   2.723  0.5310 -0.5631 -0.8218
 4878TIP3    H136269   1.133   2.129   2.815 -2.5695 -1.2460 -0.7874
 4878TIP3    H236270   1.036   2.161   2.703  1.0725  0.9818 -3.5655
 4879TIP3   OH236271   3.591   1.743   0.687 -0.0828  0.4038 -0.1753
 4879TIP3    H136272   3.644   1.771   0.762  0.0304 -0.4620  0.0857
 4879TIP3    H236273   3.518   1.805   0.684 -0.1672  0.3586  0.7454
 4880TIP3   OH236274   3.132   6.460   9.200 -0.3365  0.3530 -0.1364
 4880TIP3    H136275   3.085   6.484   9.280  0.3506 -0.5106  0.5489
 4880TIP3    H236276   3.083   6.387   9.164  0.4728 -0.5915  0.6142
 4881TIP3   OH236277   1.862   3.879   1.766  0.3819 -0.0005 -0.1843
 4881TIP3    H136278   1.843   3.965   1.803  1.4312 -0.3012  1.1154
 4881TIP3    H236279   1.864   3.820   1.841 -0.0284 -1.1162 -1.0277
 4882TIP3   OH236280   2.046   4.856   0.937 -0.1975  0.2537  0.7732
 4882TIP3    H136281   2.065   4.766   0.912  1.4280  0.5791  0.7474
 4882TIP3    H236282   1.997   4.849   1.019 -1.4864 -0.6804 -0.0393
 4883TIP3   OH236283   2.649   2.148   0.024 -0.2161  0.4417 -0.8237
 4883TIP3    H136284   2.598   2.076   0.061 -1.5338  1.1061 -1.2806
 4883TIP3    H236285   2.669   2.121  -0.066  0.3719  0.1224 -0.6008
 4884TIP3   OH236286   1.052   3.791   8.879 -0.0602  0.5277 -0.3530
 4884TIP3    H136287   1.080   3.862   8.937 -1.6690  1.3308 -0.4889
 4884TIP3    H236288   1.108   3.799   8.802  1.0675  0.4103  0.4396
 4885TIP3   OH236289   4.189   2.869   0.402 -0.2410 -0.0080  0.1102
 4885TIP3    H136290   4.195   2.773   0.404 -2.2588 -0.1908  2.6787
 4885TIP3    H236291   4.121   2.887   0.337  1.7934 -0.0433 -2.2052
 4886TIP3   OH236292   3.170   3.221   1.767  0.0302  0.5051 -0.0605
 4886TIP3    H136293   3.110   3.257   1.702 -0.3607 -2.2131 -1.3416
 4886TIP3    H236294   3.129   3.139   1.796  0.5872  1.1954  3.0852
 4887TIP3   OH236295   0.589   5.149   8.688  0.6355  0.1833  0.3852
 4887TIP3    H136296   0.553   5.236   8.668  0.4062  0.1786  0.7465
 4887TIP3    H236297   0.651   5.131   8.618  0.5508  0.5642  0.2102
 4888TIP3   OH236298   1.353   2.067   2.938  0.3716  0.3890  0.2380
 4888TIP3    H136299   1.285   2.010   2.973 -0.3034  0.1937 -1.3477
 4888TIP3    H236300   1.416   2.075   3.010  0.5499 -2.3902  0.5023
 4889TIP3   OH236301   4.103   4.221   0.259 -1.1462 -0.2589 -0.1861
 4889TIP3    H136302   4.028   4.262   0.302 -1.8915  0.4122 -2.0297
 4889TIP3    H236303   4.069   4.139   0.224 -0.1864 -1.5130  1.6332
 4890TIP3   OH236304   1.997   0.228   3.348  0.0838  0.6914 -0.7301
 4890TIP3    H136305   2.009   0.318   3.319 -0.8258  1.2706  0.5416
 4890TIP3    H236306   2.067   0.213   3.412  0.0526  0.5980 -0.7168
 4891TIP3   OH236307   4.137   2.742   8.482  0.1679  0.0173  0.3146
 4891TIP3    H136308   4.167   2.710   8.567  0.7110 -0.7960 -0.1662
 4891TIP3    H236309   4.043   2.759   8.495 -0.0290 -1.2597  0.7543
 4892TIP3   OH236310   2.013   0.731   0.725  0.3767  0.8976 -0.1824
 4892TIP3    H136311   2.089   0.675   0.741  1.3580  2.3285  0.3760
 4892TIP3    H236312   1.944   0.695   0.781  0.3527 -0.9289 -1.3293
 4893TIP3   OH236313   1.601   0.506   1.453  0.1879  0.3803  0.2958
 4893TIP3    H136314   1.575   0.595   1.476 -0.1125  0.8520 -1.6687
 4893TIP3    H236315   1.529   0.473   1.399  0.6347 -0.7817  0.3712
 4894TIP3   OH236316   3.168   5.905   7.309 -0.6170  0.4614 -0.1360
 4894TIP3    H136317   3.249   5.952   7.329 -0.9560  0.6227  0.9310
 4894TIP3    H236318   3.194   5.836   7.248  0.9400 -1.4143  2.4527
 4895TIP3   OH236319   3.932   5.736   8.869  0.0409 -0.2446 -0.0259
 4895TIP3    H136320   3.961   5.733   8.960 -0.9440  1.5592  0.3893
 4895TIP3    H236321   4.006   5.774   8.821  0.5722 -1.2252 -0.0239
 4896TIP3   OH236322   5.832   1.329   0.012  0.0013  0.3030 -0.3635
 4896TIP3    H136323   5.902   1.332  -0.053 -0.8960  2.4038 -1.3273
 4896TIP3    H236324   5.875   1.354   0.094  0.8252 -0.8406 -0.4108
 4897TIP3   OH236325   6.449   1.880   8.391 -0.3262  0.0719  0.1327
 4897TIP3    H136326   6.479   1.855   8.478 -0.3841  0.4512  0.2620
 4897TIP3    H236327   6.450   1.798   8.341 -0.9151 -0.2768  0.6715
 4898TIP3   OH236328   1.184   1.939   8.988  0.5821  0.0859  0.4378
 4898TIP3    H136329   1.212   1.848   8.996 -0.8668 -0.4221 -0.1110
 4898TIP3    H236330   1.104   1.944   9.039 -0.2892  0.6191 -0.9419
 4899TIP3   OH236331   5.632   0.078   8.647 -0.0998  0.1242  0.3829
 4899TIP3    H136332   5.581   0.100   8.724 -0.1685 -0.3865  0.4875
 4899TIP3    H236333   5.586   0.004   8.608  0.3546 -0.1046  0.2762
 4900TIP3   OH236334   1.196   0.755   2.080 -0.2445 -0.1563  0.4128
 4900TIP3    H136335   1.223   0.743   1.989  2.0044 -0.7744  1.1077
 4900TIP3    H236336   1.153   0.673   2.103 -1.1696  0.1459 -0.1700
 4901TIP3   OH236337   5.181   3.368   0.632  0.1788  1.0090 -0.5111
 4901TIP3    H136338   5.222   3.343   0.715 -2.1367 -0.9543  0.1447
 4901TIP3    H236339   5.251   3.356   0.567  1.3863  0.2851  0.8539
 4902TIP3   OH236340   5.200   5.941   7.671 -0.4309  0.4869  0.0143
 4902TIP3    H136341   5.205   5.848   7.692  0.0719  0.3358 -0.7304
 4902TIP3    H236342   5.106   5.960   7.665 -0.5332 -0.1382 -0.5015
 4903TIP3   OH236343   4.294   5.658   7.572  0.1420 -0.1114 -0.1552
 4903TIP3    H136344   4.209   5.623   7.547  0.7255 -1.7117 -0.0100
 4903TIP3    H236345   4.294   5.747   7.538 -1.9696  0.2836  0.7376
 4904TIP3   OH236346   6.441   0.588   1.653 -0.5575  0.5192 -0.2075
 4904TIP3    H136347   6.477   0.676   1.663  0.0859  0.2912 -0.5173
 4904TIP3    H236348   6.362   0.589   1.709  0.9815  0.3995  2.1006
 4905TIP3   OH236349   1.500   6.362   1.476  0.2716  0.3822 -0.1737
 4905TIP3    H136350   1.428   6.340   1.417 -0.3730 -0.1394  0.7802
 4905TIP3    H236351   1.563   6.292   1.464 -0.2164 -0.1531  0.3191
 4906TIP3   OH236352   4.769   2.754   9.029  0.1260 -0.2774  0.0560
 4906TIP3    H136353   4.759   2.702   9.109 -0.5425 -1.8311 -0.9662
 4906TIP3    H236354   4.749   2.692   8.958 -0.0500  1.2352 -1.2813
 4907TIP3   OH236355   2.025   1.575   7.837  0.1818  0.6720  0.1603
 4907TIP3    H136356   2.055   1.490   7.868 -5.2596 -1.8106 -0.2371
 4907TIP3    H236357   2.064   1.638   7.899  0.9821 -2.5460  3.2721
 4908TIP3   OH236358   0.495   6.671   8.109  0.5055 -0.1548 -0.0844
 4908TIP3    H136359   0.460   6.757   8.084  2.3343  0.4504 -0.7610
 4908TIP3    H236360   0.501   6.623   8.027 -1.2452 -1.2611  0.3958
 4909TIP3   OH236361   2.235   0.483   8.599 -0.5171  0.5871 -0.1478
 4909TIP3    H136362   2.197   0.549   8.657  0.9931  0.5387  0.9650
 4909TIP3    H236363   2.304   0.530   8.552 -1.1161  0.3897 -1.2640
 4910TIP3   OH236364   0.470   3.800   0.774 -0.0026 -0.0275 -0.4400
 4910TIP3    H136365   0.524   3.877   0.757 -1.3340  0.7853 -1.0996
 4910TIP3    H236366   0.481   3.745   0.696  2.2334 -1.3612  0.6902
 4911TIP3   OH236367   1.442   4.252   1.663  0.7293  0.3384  0.1355
 4911TIP3    H136368   1.535   4.263   1.682  0.6849  0.7625  0.1157
 4911TIP3    H236369   1.438   4.237   1.569  0.9226 -1.4487  0.3919
 4912TIP3   OH236370   4.313   3.671   3.273  0.3161  0.3082 -0.6227
 4912TIP3    H136371   4.392   3.725   3.275  0.9192 -0.5865  0.6843
 4912TIP3    H236372   4.345   3.583   3.253 -0.2911 -0.1324  0.2849
 4913TIP3   OH236373   0.702   5.644   2.185 -0.4239  0.0350  0.0494
 4913TIP3    H136374   0.628   5.629   2.243  0.4829  0.3078  1.3076
 4913TIP3    H236375   0.688   5.731   2.149 -1.9741 -0.8602 -1.6849
 4914TIP3   OH236376   6.103   4.707   7.176 -0.0777  0.0704 -0.3567
 4914TIP3    H136377   6.136   4.769   7.111 -0.1400  0.5705  0.0823
 4914TIP3    H236378   6.144   4.624   7.152  0.5275  0.4214 -0.5624
 4915TIP3   OH236379   2.221   1.809   9.169 -0.2253  1.0051  0.2109
 4915TIP3    H136380   2.144   1.751   9.165  0.6344 -0.1171 -0.8726
 4915TIP3    H236381   2.258   1.794   9.256 -0.9025  1.1260  0.5276
 4916TIP3   OH236382   6.466   0.711   3.067  0.4348 -0.3749 -0.7516
 4916TIP3    H136383   6.401   0.643   3.049 -0.6193  0.4904 -0.3014
 4916TIP3    H236384   6.426   0.792   3.036  1.0820  0.2538  0.0043
 4917TIP3   OH236385   4.106   3.536   1.729 -0.1350 -0.0066 -0.2743
 4917TIP3    H136386   4.010   3.533   1.738  0.0273 -1.6029  1.5105
 4917TIP3    H236387   4.138   3.548   1.818  1.3759 -0.8269 -0.6750
 4918TIP3   OH236388   1.805   6.602   0.252  0.3609 -0.3991  0.3961
 4918TIP3    H136389   1.832   6.619   0.162  0.6631  0.7151  0.6765
 4918TIP3    H236390   1.884   6.619   0.304 -0.4717  1.7008  1.1189
 4919TIP3   OH236391   4.824   0.360   0.251  0.1979  0.2159 -0.6529
 4919TIP3    H136392   4.797   0.339   0.340  0.8281 -0.5525 -0.6357
 4919TIP3    H236393   4.771   0.437   0.227  0.1369  0.5216  0.4290
 4920TIP3   OH236394   6.657   3.957   7.159  0.2310 -0.2157  0.5858
 4920TIP3    H136395   6.609   3.957   7.242  1.6700 -0.7770  1.4596
 4920TIP3    H236396   6.662   3.865   7.134  0.6676 -0.1460  0.4124
 4921TIP3   OH236397   5.505   0.411   8.247 -0.1318  0.6220 -0.1869
 4921TIP3    H136398   5.415   0.391   8.271  0.6709  0.3950  3.2165
 4921TIP3    H236399   5.558   0.351   8.300  2.0641  0.7705 -2.0296
 4922TIP3   OH236400   4.003   2.685   2.862  0.3190 -0.5441  0.6911
 4922TIP3    H136401   4.005   2.767   2.813  0.5146 -0.4542  0.8459
 4922TIP3    H236402   4.053   2.703   2.942  0.4159 -0.8302  0.6995
 4923TIP3   OH236403   5.888   3.529   8.506  0.3622 -0.0365 -0.0705
 4923TIP3    H136404   5.799   3.494   8.508 -0.0443  0.9864  1.2598
 4923TIP3    H236405   5.886   3.603   8.566  1.9369  0.4569 -0.5763
 4924TIP3   OH236406   3.217   5.683   7.171  0.2230 -0.6214  0.2683
 4924TIP3    H136407   3.166   5.622   7.119  1.3416 -1.7795  0.4821
 4924TIP3    H236408   3.305   5.647   7.171  0.5675  0.1240  1.7470
 4925TIP3   OH236409   0.273   0.634   8.810 -0.2100  0.9163 -0.1559
 4925TIP3    H136410   0.289   0.634   8.904  0.4594  1.2877 -0.2622
 4925TIP3    H236411   0.354   0.600   8.772 -1.3888 -1.7245 -0.4826
 4926TIP3   OH236412   0.176   0.983   2.827  0.5472 -0.2685 -0.4766
 4926TIP3    H136413   0.188   1.051   2.893  0.8172 -2.2108  1.6134
 4926TIP3    H236414   0.085   0.954   2.837  0.9474 -1.4450 -0.0199
 4927TIP3   OH236415   2.490   4.971   7.161  0.5195 -0.1080 -0.6296
 4927TIP3    H136416   2.573   4.941   7.198  0.7188  0.6506 -0.4623
 4927TIP3    H236417   2.489   5.065   7.174 -0.9522 -0.2485  0.5756
 4928TIP3   OH236418   0.490   0.556   8.618  0.6486  0.6024  0.7117
 4928TIP3    H136419   0.423   0.534   8.553  0.0523  1.1502  1.1176
 4928TIP3    H236420   0.558   0.490   8.607  0.3369  0.4142 -0.1459
 4929TIP3   OH236421   5.141   3.649   1.247 -0.0627  0.1967 -0.4847
 4929TIP3    H136422   5.167   3.562   1.277  1.5256 -0.3909 -3.2630
 4929TIP3    H236423   5.185   3.709   1.307  0.2248 -0.8908  0.4161
 4930TIP3   OH236424   2.498   0.942   0.734  0.1663 -0.0003 -0.2083
 4930TIP3    H136425   2.481   0.850   0.755 -0.7537  0.5624  1.8268
 4930TIP3    H236426   2.460   0.954   0.647 -0.9062 -1.2367  0.0529
 4931TIP3   OH236427   2.200   1.942   2.912  0.1441  0.5698 -0.6281
 4931TIP3    H136428   2.159   1.861   2.944 -0.4134 -0.1978 -3.0877
 4931TIP3    H236429   2.136   2.010   2.932 -0.4368  0.0308 -0.5861
 4932TIP3   OH236430   1.848   4.311   7.305 -0.5472  0.4909  0.2895
 4932TIP3    H136431   1.921   4.350   7.354  1.1211 -0.0999 -1.5857
 4932TIP3    H236432   1.874   4.318   7.213 -2.3687 -0.7599 -0.3827
 4933TIP3   OH236433   1.935   1.494   0.846 -1.0596 -0.0348 -0.2893
 4933TIP3    H136434   1.944   1.403   0.876 -1.5729 -0.2333 -0.7253
 4933TIP3    H236435   1.868   1.491   0.778 -1.5366  0.7690  0.1253
 4934TIP3   OH236436   5.959   5.648   9.131  0.1643  0.1426  0.0653
 4934TIP3    H136437   5.909   5.710   9.078  0.8865 -0.5415 -1.4996
 4934TIP3    H236438   5.947   5.678   9.221 -2.2604  0.5285 -0.3313
 4935TIP3   OH236439   4.506   0.064   7.930  0.0575  0.1600  0.4623
 4935TIP3    H136440   4.552  -0.020   7.936  1.9956  1.2114  1.0577
 4935TIP3    H236441   4.520   0.092   7.839 -2.5895 -1.1593 -0.4738
 4936TIP3   OH236442   2.087   6.427   8.528 -0.1734  0.4776 -0.5042
 4936TIP3    H136443   2.145   6.478   8.585  0.2830 -0.9231  0.3465
 4936TIP3    H236444   2.033   6.376   8.588  1.7508 -2.6678 -1.1612
 4937TIP3   OH236445   4.702   4.423   8.562  0.2526 -0.2896  0.0142
 4937TIP3    H136446   4.652   4.501   8.585  0.6582 -0.3521  1.1852
 4937TIP3    H236447   4.792   4.454   8.553  0.3993 -0.6066  0.3727
 4938TIP3   OH236448   6.341   5.435   8.874  0.3214 -0.0326 -0.2180
 4938TIP3    H136449   6.316   5.489   8.799  0.3000  0.0769 -0.1314
 4938TIP3    H236450   6.289   5.356   8.864  0.9857 -0.4082 -0.8254
 4939TIP3   OH236451   1.746   3.032   0.054 -0.0834  0.0946  0.0226
 4939TIP3    H136452   1.756   3.077  -0.030 -0.9550  0.8527  0.3127
 4939TIP3    H236453   1.829   3.047   0.099 -0.2060  1.0686 -0.0572
 4940TIP3   OH236454   4.390   1.639   0.213  0.0766  0.1994 -0.5046
 4940TIP3    H136455   4.377   1.717   0.160 -3.2214  0.6606  0.8042
 4940TIP3    H236456   4.429   1.671   0.294  0.6009  0.1667 -0.7377
 4941TIP3   OH236457   2.289   3.957   8.691  0.0051 -0.0081 -0.6458
 4941TIP3    H136458   2.313   3.930   8.779 -0.2610  0.5427 -0.4024
 4941TIP3    H236459   2.210   4.010   8.702  0.3507  0.6299 -1.1413
 4942TIP3   OH236460   4.791   4.185   6.975 -0.3594  0.2265 -0.1491
 4942TIP3    H136461   4.851   4.153   6.908 -0.5540 -0.8574  0.1691
 4942TIP3    H236462   4.808   4.130   7.051 -1.8042 -0.1761 -0.0811
 4943TIP3   OH236463   0.149   3.279   0.563  0.1875  0.7925  0.2496
 4943TIP3    H136464   0.192   3.213   0.618  1.8084  0.9381 -0.7764
 4943TIP3    H236465   0.166   3.362   0.607 -1.0763  0.6495  1.0603
 4944TIP3   OH236466   1.305   5.035   2.310 -0.6912 -0.3985 -0.3304
 4944TIP3    H136467   1.248   5.001   2.241 -2.0537 -2.1272  1.5018
 4944TIP3    H236468   1.362   4.962   2.332  1.8096  1.0669 -1.5691
 4945TIP3   OH236469   6.420   3.280   3.000  0.2590 -0.3978 -0.4356
 4945TIP3    H136470   6.457   3.368   2.987  0.2472 -0.5351 -1.4577
 4945TIP3    H236471   6.351   3.293   3.065  0.4122  0.3057 -0.4006
 4946TIP3   OH236472   5.019   5.407   2.041 -0.1250 -0.1695 -0.7730
 4946TIP3    H136473   5.008   5.419   2.135 -2.3450 -1.1238 -0.8445
 4946TIP3    H236474   4.930   5.402   2.007  0.6234  0.4294 -2.9906
 4947TIP3   OH236475   1.051   5.471   7.768  0.1260 -0.2380  0.9439
 4947TIP3    H136476   1.123   5.455   7.708 -1.5439 -1.2910 -0.9213
 4947TIP3    H236477   1.038   5.566   7.766 -0.5433 -0.3173 -1.2834
 4948TIP3   OH236478   5.118   5.778   1.136 -0.5070  0.1534  0.1435
 4948TIP3    H136479   5.182   5.742   1.196 -1.2849 -1.7433 -0.0889
 4948TIP3    H236480   5.050   5.815   1.192  0.9552  2.7043  0.3993
 4949TIP3   OH236481   0.561   4.790   2.306  0.3524  0.5568 -0.0972
 4949TIP3    H136482   0.476   4.755   2.331  1.5405 -2.3263  0.3756
 4949TIP3    H236483   0.543   4.847   2.231 -2.0438  0.6109  0.4613
 4950TIP3   OH236484   1.904   6.488   8.828 -0.1228 -0.1149  0.1775
 4950TIP3    H136485   1.930   6.454   8.914 -0.6100 -1.0591 -0.0406
 4950TIP3    H236486   1.927   6.418   8.767  1.5203  1.0989 -0.6660
 4951TIP3   OH236487   0.191   0.366   0.209 -0.5334 -0.0700  0.2817
 4951TIP3    H136488   0.167   0.280   0.244  2.7637 -0.0090  3.1418
 4951TIP3    H236489   0.152   0.429   0.270 -0.2564  0.3571  0.0226
 4952TIP3   OH236490   2.471   0.557   8.473 -0.1939 -0.4729  0.3071
 4952TIP3    H136491   2.495   0.649   8.480  0.5954 -0.7939  2.6228
 4952TIP3    H236492   2.548   0.514   8.436 -0.7252 -0.1855 -1.2070
 4953TIP3   OH236493   2.832   2.199   2.240 -0.5738 -0.0924 -0.4642
 4953TIP3    H136494   2.758   2.254   2.265  0.7636  1.7780 -0.4035
 4953TIP3    H236495   2.895   2.210   2.311  0.8533  0.5503 -1.7600
 4954TIP3   OH236496   1.777   5.150   0.238  0.5273  0.7272 -0.1615
 4954TIP3    H136497   1.719   5.080   0.269  2.0484 -1.0320 -1.1058
 4954TIP3    H236498   1.828   5.174   0.315  0.7212  0.0335 -0.0647
 4955TIP3   OH236499   4.004   0.453   2.202  0.4602 -0.0236 -0.0511
 4955TIP3    H136500   4.069   0.450   2.132  0.3610 -1.7464 -0.1151
 4955TIP3    H236501   4.055   0.458   2.282  0.6185  0.4807 -0.1848
 4956TIP3   OH236502   2.942   2.274   2.002  0.7163 -0.2056 -0.5507
 4956TIP3    H136503   2.978   2.363   2.008  2.7624 -0.9613 -0.6852
 4956TIP3    H236504   2.922   2.251   2.093 -0.7954  0.7235 -0.6130
 4957TIP3   OH236505   0.423   6.503   0.657 -0.5049  0.3173 -0.2380
 4957TIP3    H136506   0.375   6.425   0.628  0.4356 -0.1340 -0.6014
 4957TIP3    H236507   0.505   6.469   0.693  0.1253  1.1603 -0.8326
 4958TIP3   OH236508   2.916   2.122   1.766 -0.4601 -0.2824  0.5878
 4958TIP3    H136509   2.837   2.175   1.761 -0.3138 -0.1859 -1.6845
 4958TIP3    H236510   2.957   2.148   1.849  0.0094  3.8060 -0.7169
 4959TIP3   OH236511   5.984   1.195   2.440  0.4530 -0.0398  0.3714
 4959TIP3    H136512   6.006   1.178   2.532 -4.3327 -1.0553  1.5890
 4959TIP3    H236513   5.994   1.289   2.430 -1.3582  0.5282  2.8467
 4960TIP3   OH236514   0.628   1.164   1.134  0.3145  0.6984 -0.3034
 4960TIP3    H136515   0.695   1.218   1.092  0.4148  1.1837  0.4497
 4960TIP3    H236516   0.667   1.077   1.139  0.5781  0.8000 -0.5649
 4961TIP3   OH236517   1.429   3.261   1.330  0.2615  0.1096 -0.0980
 4961TIP3    H136518   1.519   3.232   1.348  0.3991  0.5824 -0.0192
 4961TIP3    H236519   1.399   3.204   1.259  0.1230 -1.0069  0.8245
 4962TIP3   OH236520   3.432   0.884   8.558  0.1708  0.7148  0.2576
 4962TIP3    H136521   3.422   0.957   8.619 -0.2587  0.4885  0.4636
 4962TIP3    H236522   3.527   0.879   8.542  0.3125  0.6774  1.0364
 4963TIP3   OH236523   1.492   3.307   8.370  0.4156 -0.3507  0.1091
 4963TIP3    H136524   1.493   3.345   8.458  2.3224  1.7081 -0.7165
 4963TIP3    H236525   1.579   3.268   8.360  0.2190 -0.5493 -0.8670
 4964TIP3   OH236526   3.607   1.278   1.854  0.2658  0.3743 -0.0138
 4964TIP3    H136527   3.679   1.277   1.918 -0.2341 -1.3121  0.5673
 4964TIP3    H236528   3.555   1.201   1.876 -0.8299  0.6784 -1.4540
 4965TIP3   OH236529   2.265   5.941   8.509 -0.7662 -0.0309  0.4320
 4965TIP3    H136530   2.245   5.999   8.435 -0.8591 -0.2936  0.2487
 4965TIP3    H236531   2.246   5.994   8.587  2.3226  1.4081  0.3801
 4966TIP3   OH236532   6.340   1.869   1.360 -0.4659  0.1566  0.0831
 4966TIP3    H136533   6.422   1.871   1.312 -1.6048 -0.9471 -2.0466
 4966TIP3    H236534   6.319   1.776   1.368 -1.1516  0.3908  1.2738
 4967TIP3   OH236535   2.172   2.106   0.067 -0.1229 -0.1405 -0.0860
 4967TIP3    H136536   2.191   2.081   0.157  0.3338  0.1728 -0.0959
 4967TIP3    H236537   2.082   2.075   0.052 -0.7098  1.0205  0.9096
 4968TIP3   OH236538   5.066   6.107   1.553 -0.2149  0.2046  0.1861
 4968TIP3    H136539   4.978   6.137   1.575 -0.8796 -1.9808  0.7600
 4968TIP3    H236540   5.097   6.063   1.632  1.3328  0.7484 -0.0767
 4969TIP3   OH236541   0.806   6.668   0.891  0.5671  0.2194 -0.1831
 4969TIP3    H136542   0.793   6.645   0.984  0.7956 -1.1537 -0.4624
 4969TIP3    H236543   0.884   6.618   0.865  1.8554  2.3245 -0.5566
 4970TIP3   OH236544   4.402   0.303   8.214 -0.1120 -1.0206 -0.1473
 4970TIP3    H136545   4.325   0.335   8.262 -1.0981 -2.4031 -0.7268
 4970TIP3    H236546   4.416   0.214   8.248  0.5050 -1.2171 -0.8843
 4971TIP3   OH236547   2.590   0.050   8.220  0.3538  0.3399 -0.6928
 4971TIP3    H136548   2.648  -0.014   8.179 -0.3812  0.8129 -2.5815
 4971TIP3    H236549   2.622   0.135   8.190 -0.6536  0.6665 -0.8948
 4972TIP3   OH236550   5.900   0.854   9.202  0.1069 -0.1041 -0.1366
 4972TIP3    H136551   5.832   0.900   9.250  0.2500  0.1207 -0.1481
 4972TIP3    H236552   5.858   0.830   9.119  0.3599  0.9931 -0.6026
 4973TIP3   OH236553   1.538   6.341   0.726  0.3964 -0.6835 -0.0597
 4973TIP3    H136554   1.602   6.409   0.708  0.6969 -0.6995  0.9093
 4973TIP3    H236555   1.583   6.259   0.705  0.1821 -0.6150 -0.8066
 4974TIP3   OH236556   2.945   2.012   8.417 -0.1500 -0.5344  0.1721
 4974TIP3    H136557   2.889   1.947   8.376  0.1854 -0.8793  0.2538
 4974TIP3    H236558   2.889   2.057   8.480 -0.3251 -0.8946  0.2724
 4975TIP3   OH236559   0.733   3.269   7.290  0.0202 -0.1682  0.1081
 4975TIP3    H136560   0.754   3.176   7.280 -0.4215 -0.2767  0.1894
 4975TIP3    H236561   0.668   3.272   7.360 -2.6089 -0.1631 -2.1643
 4976TIP3   OH236562   2.837   6.625   7.895 -0.4453 -0.3923  0.2725
 4976TIP3    H136563   2.753   6.619   7.849 -0.9606 -1.2329  1.2589
 4976TIP3    H236564   2.815   6.606   7.986  0.7412 -0.0578  0.6426
 4977TIP3   OH236565   1.198   0.675   8.628 -0.5642 -0.3320 -0.2534
 4977TIP3    H136566   1.135   0.701   8.560 -0.0955 -0.1911 -0.6369
 4977TIP3    H236567   1.143   0.646   8.700 -1.0799 -1.9842 -1.2538
 4978TIP3   OH236568   4.614   1.669   3.122 -0.3916 -0.1996  0.3235
 4978TIP3    H136569   4.543   1.733   3.122 -0.3854 -0.1872  0.7019
 4978TIP3    H236570   4.669   1.693   3.197 -0.8468 -1.1303  0.9872
 4979TIP3   OH236571   6.151   5.963   8.997 -0.0458  1.0025  0.1524
 4979TIP3    H136572   6.203   6.042   8.986  2.7571 -0.6857  0.2172
 4979TIP3    H236573   6.163   5.914   8.915  1.1098 -0.8080  1.3124
 4980TIP3   OH236574   5.779   3.829   1.314 -0.8280 -0.4579  0.2980
 4980TIP3    H136575   5.704   3.769   1.316  0.3792 -2.2045 -1.8899
 4980TIP3    H236576   5.855   3.773   1.325  0.2740  0.9776  0.3331
 4981TIP3   OH236577   4.256   1.419   0.790 -0.0610  0.4015  0.0203
 4981TIP3    H136578   4.239   1.325   0.799 -0.5683  0.5998  1.4594
 4981TIP3    H236579   4.253   1.452   0.880 -0.0459  1.8298 -0.4830
 4982TIP3   OH236580   6.405   1.663   2.950 -0.3337 -0.2414  0.6503
 4982TIP3    H136581   6.325   1.650   3.001 -0.6131 -0.3275  0.2039
 4982TIP3    H236582   6.391   1.745   2.904 -0.0884 -0.1683  0.7071
 4983TIP3   OH236583   2.427   1.532   2.891 -0.1035 -0.1924  0.0230
 4983TIP3    H136584   2.355   1.525   2.953  1.4489  0.8473  2.0269
 4983TIP3    H236585   2.497   1.480   2.930  0.5413 -0.4919 -1.4684
 4984TIP3   OH236586   3.378   4.800   8.193  0.2861 -0.0932 -0.2858
 4984TIP3    H136587   3.311   4.744   8.153 -1.1668  1.4272 -0.1303
 4984TIP3    H236588   3.392   4.763   8.280  1.6433 -1.9748 -1.2484
 4985TIP3   OH236589   0.418   4.257   0.179  0.5020  0.6777 -0.1058
 4985TIP3    H136590   0.397   4.285   0.268  2.1179  0.8714  0.2513
 4985TIP3    H236591   0.356   4.303   0.124 -0.2785  0.8553  0.8965
 4986TIP3   OH236592   0.512   1.125   7.737 -0.3856  0.0689  0.7718
 4986TIP3    H136593   0.417   1.124   7.724 -0.2724 -1.3648 -0.1774
 4986TIP3    H236594   0.538   1.033   7.727  1.5083  0.8198 -2.4324
 4987TIP3   OH236595   0.820   2.693   0.063  0.5509  0.5301 -0.2409
 4987TIP3    H136596   0.809   2.758   0.131  2.8503 -0.0303  0.7669
 4987TIP3    H236597   0.761   2.721  -0.007 -0.5746  2.0951  1.2623
 4988TIP3   OH236598   5.076   6.597   8.665 -0.0403  0.3336  0.5862
 4988TIP3    H136599   5.030   6.641   8.737 -0.7618  1.5797 -0.6125
 4988TIP3    H236600   5.161   6.641   8.661 -0.2421  0.6983  0.2723
 4989TIP3   OH236601   1.937   1.246   8.597  0.0616  0.1652  0.4628
 4989TIP3    H136602   1.992   1.297   8.656 -1.6648  0.4925  1.8558
 4989TIP3    H236603   1.999   1.210   8.533  1.8526  0.7125  1.7868
 4990TIP3   OH236604   4.661   5.821   1.763 -0.2371  0.2969 -0.0369
 4990TIP3    H136605   4.719   5.895   1.775  1.5095 -0.7456 -1.4769
 4990TIP3    H236606   4.719   5.749   1.738 -2.0399 -1.0849 -0.4699
 4991TIP3   OH236607   2.901   1.331   8.274  0.4050 -0.2249 -0.9205
 4991TIP3    H136608   2.848   1.406   8.300  0.2509 -0.3620 -0.8395
 4991TIP3    H236609   2.857   1.296   8.197  0.6379 -0.0593 -1.1312
 4992TIP3   OH236610   3.815   5.698   1.264  0.3955 -0.3927  0.3638
 4992TIP3    H136611   3.838   5.719   1.174  0.7907 -0.7832  0.3657
 4992TIP3    H236612   3.766   5.616   1.258  2.4180 -1.7058  0.6630
 4993TIP3   OH236613   2.797   5.482   7.931 -0.8455  0.0500 -0.0398
 4993TIP3    H136614   2.789   5.576   7.914  0.8212  0.4466  1.1207
 4993TIP3    H236615   2.849   5.448   7.859  0.2762  0.4283  0.5630
 4994TIP3   OH236616   1.864   4.357   8.404  0.0175 -0.5144  0.1925
 4994TIP3    H136617   1.954   4.371   8.433 -0.3361  2.1693  0.2509
 4994TIP3    H236618   1.867   4.370   8.309 -0.5194  1.0513  0.3722
 4995TIP3   OH236619   1.118   0.160   1.554 -0.3634 -0.3830 -0.6316
 4995TIP3    H136620   1.160   0.114   1.481 -1.9074 -1.5812 -0.8267
 4995TIP3    H236621   1.186   0.166   1.621  0.7465 -0.2817 -1.7217
 4996TIP3   OH236622   3.448   2.864   1.457 -0.3939  0.3864 -0.1255
 4996TIP3    H136623   3.366   2.908   1.480  0.1236  1.3159  0.0251
 4996TIP3    H236624   3.516   2.928   1.479  0.4645 -0.8313  0.9094
 4997TIP3   OH236625   4.233   5.183   0.526 -0.1407 -0.1116  0.0716
 4997TIP3    H136626   4.308   5.241   0.525  0.1717 -0.5012 -1.0733
 4997TIP3    H236627   4.159   5.239   0.502 -0.3218  0.3744  1.6757
 4998TIP3   OH236628   6.407   4.132   2.258 -0.4474 -0.1717  0.0722
 4998TIP3    H136629   6.399   4.131   2.353  2.6284 -0.0557  0.4454
 4998TIP3    H236630   6.399   4.040   2.233 -1.1037 -0.2224  0.4529
 4999TIP3   OH236631   3.633   3.573   2.419  0.2085  0.1805 -0.9820
 4999TIP3    H136632   3.591   3.486   2.423  0.3844  0.1070 -0.6367
 4999TIP3    H236633   3.597   3.619   2.495  0.3845  0.2846 -0.9625
 5000TIP3   OH236634   3.398   0.632   8.736  0.4679 -0.1639 -0.1958
 5000TIP3    H136635   3.373   0.695   8.669 -3.6741 -0.2865  0.9469
 5000TIP3    H236636   3.462   0.679   8.790  1.8846  0.8518 -2.5762
 5001TIP3   OH236637   3.697   4.067   8.621  0.3442 -0.9489 -0.2511
 5001TIP3    H136638   3.740   4.064   8.706 -1.2594 -1.5010  0.5622
 5001TIP3    H236639   3.613   4.109   8.637  0.4628 -0.0631 -1.7754
 5002TIP3   OH236640   1.951   2.754   7.261 -0.1529  0.5620  0.4492
 5002TIP3    H136641   1.865   2.772   7.223  0.3407  1.2818 -0.3724
 5002TIP3    H236642   2.012   2.765   7.188  0.7691  1.3137  1.3065
 5003TIP3   OH236643   2.675   3.535   2.484  0.4576  0.1152  0.2612
 5003TIP3    H136644   2.676   3.551   2.389 -0.0788 -1.3088  0.0002
 5003TIP3    H236645   2.582   3.532   2.507  0.5489 -1.1433  0.5304
 5004TIP3   OH236646   1.671   1.557   0.721  0.3795 -0.7399 -0.8154
 5004TIP3    H136647   1.630   1.605   0.793  1.2714  1.3179 -1.5970
 5004TIP3    H236648   1.719   1.624   0.672  2.6039 -2.6079 -1.3710
 5005TIP3   OH236649   3.945   6.170   7.762 -0.2161  0.0879  0.4145
 5005TIP3    H136650   3.892   6.193   7.685  1.0626 -0.5840 -0.7044
 5005TIP3    H236651   4.027   6.138   7.726  0.7290  0.5067  2.1096
 5006TIP3   OH236652   1.690   5.139   2.492  0.3503  0.5275  0.0405
 5006TIP3    H136653   1.657   5.102   2.410 -1.3205  2.3047 -0.1558
 5006TIP3    H236654   1.634   5.101   2.559 -0.2596  1.3481  0.0128
 5007TIP3   OH236655   5.530   1.352   0.437 -0.0293  0.1188 -0.2396
 5007TIP3    H136656   5.456   1.298   0.410  0.0738 -1.1614  1.8402
 5007TIP3    H236657   5.592   1.345   0.364 -0.6022 -1.5093 -0.6121
 5008TIP3   OH236658   3.329   3.708   8.702 -0.6889 -0.6002  0.1929
 5008TIP3    H136659   3.272   3.642   8.663 -1.5321 -0.2845  0.8563
 5008TIP3    H236660   3.317   3.697   8.797  1.5056 -1.5222  0.4191
 5009TIP3   OH236661   1.429   1.921   2.658 -0.1416  0.0523  0.4714
 5009TIP3    H136662   1.431   1.965   2.743  1.1426  1.0328 -0.0371
 5009TIP3    H236663   1.521   1.907   2.636 -0.3899  1.0666 -1.3723
 5010TIP3   OH236664   2.453   5.510   0.109  0.5147 -0.3651  0.6090
 5010TIP3    H136665   2.450   5.421   0.074 -1.8067 -1.0409  2.2705
 5010TIP3    H236666   2.381   5.555   0.064  2.0396  0.8942 -0.6508
 5011TIP3   OH236667   0.764   3.651   7.771  0.1635  0.2861  0.3332
 5011TIP3    H136668   0.803   3.683   7.690  0.6553  0.5407  0.6711
 5011TIP3    H236669   0.802   3.564   7.784 -0.3950 -0.0204 -0.0395
 5012TIP3   OH236670   6.086   5.282   3.214  0.3150  0.0854 -0.1704
 5012TIP3    H136671   6.136   5.280   3.296  1.1220 -1.4136 -0.6601
 5012TIP3    H236672   6.069   5.189   3.195 -1.0338  0.4817 -1.0059
 5013TIP3   OH236673   6.130   3.976   1.462  0.1017 -0.1297  0.5552
 5013TIP3    H136674   6.079   4.057   1.463  1.5927  0.9653 -2.1605
 5013TIP3    H236675   6.221   4.005   1.459  0.6874 -1.9008  0.0262
 5014TIP3   OH236676   4.050   4.380   8.575 -0.0587  0.1666  0.3304
 5014TIP3    H136677   3.992   4.423   8.511  1.0910  0.7630 -0.3301
 5014TIP3    H236678   3.990   4.328   8.629 -1.2026  0.6484 -0.4222
 5015TIP3   OH236679   2.114   2.919   7.901 -0.1487 -0.0928  0.0514
 5015TIP3    H136680   2.194   2.893   7.855 -0.9008 -1.9554 -0.2708
 5015TIP3    H236681   2.043   2.879   7.851 -1.0936 -0.8242  1.8948
 5016TIP3   OH236682   3.785   3.985   7.839  0.3837 -0.9839 -0.2083
 5016TIP3    H136683   3.845   3.961   7.909 -0.3776  0.7892  1.1248
 5016TIP3    H236684   3.835   4.045   7.783  0.2086 -0.3357  0.3146
 5017TIP3   OH236685   1.322   3.514   8.771  0.0838 -0.6092 -0.0656
 5017TIP3    H136686   1.267   3.439   8.749  0.7178 -1.0129 -0.3056
 5017TIP3    H236687   1.269   3.566   8.832 -0.0058 -1.7391  0.8551
 5018TIP3   OH236688   1.639   6.562   8.829  0.6187 -0.3327  0.0034
 5018TIP3    H136689   1.634   6.588   8.737  0.1241  1.0626  0.4075
 5018TIP3    H236690   1.727   6.526   8.839  1.3780  1.2584 -0.5923
 5019TIP3   OH236691   2.063   6.566   0.342 -0.1141  0.3739  0.0459
 5019TIP3    H136692   2.071   6.473   0.321  1.0868 -0.0574  2.1384
 5019TIP3    H236693   2.151   6.601   0.334 -0.8932  1.9757 -3.0420
 5020TIP3   OH236694   3.582   5.070   8.291 -0.3852  0.1805 -0.2620
 5020TIP3    H136695   3.539   5.121   8.222  0.5383  2.3610  0.6986
 5020TIP3    H236696   3.638   5.133   8.336  0.1311 -1.5114  1.5822
 5021TIP3   OH236697   6.135   6.203   0.269  0.3017  0.1331 -0.2558
 5021TIP3    H136698   6.076   6.143   0.313  1.2139 -1.8885 -1.6475
 5021TIP3    H236699   6.095   6.217   0.183  1.3206 -0.5025 -0.8572
 5022TIP3   OH236700   1.304   4.788   8.805  0.2028 -0.2238  0.0291
 5022TIP3    H136701   1.335   4.755   8.890 -0.7137  0.5035  0.6614
 5022TIP3    H236702   1.220   4.829   8.825 -0.7436 -1.3334 -1.4792
 5023TIP3   OH236703   0.867   2.552   3.128  0.1604  0.2369  0.0126
 5023TIP3    H136704   0.809   2.614   3.086 -3.5740 -2.0049  1.3227
 5023TIP3    H236705   0.889   2.488   3.060  1.3127  1.1750 -0.5245
 5024TIP3   OH236706   2.848   1.357   1.120  0.2637  0.1074  0.4044
 5024TIP3    H136707   2.881   1.443   1.147 -0.4837  0.6831 -0.4607
 5024TIP3    H236708   2.908   1.330   1.050  0.4261 -0.0299  0.5941
 5025TIP3   OH236709   0.471   2.761   1.763  0.1851 -0.5927  0.4128
 5025TIP3    H136710   0.566   2.771   1.759  0.5205 -2.2604  2.2113
 5025TIP3    H236711   0.439   2.794   1.679  2.1981  1.3143  0.3126
 5026TIP3   OH236712   4.262   3.975   2.286 -0.4817  0.5680 -0.0146
 5026TIP3    H136713   4.344   3.987   2.238  0.0900  1.1813  1.0912
 5026TIP3    H236714   4.265   3.885   2.317  1.6904  1.6274  3.3790
 5027TIP3   OH236715   3.698   4.685   2.439  0.3105 -0.1825  0.3277
 5027TIP3    H136716   3.701   4.780   2.442  1.2060 -0.1918  0.1129
 5027TIP3    H236717   3.720   4.663   2.348  3.5323 -0.6531  1.0874
 5028TIP3   OH236718   0.060   1.239   2.322 -1.1100 -0.6622  0.7848
 5028TIP3    H136719   0.133   1.280   2.368 -1.2851  0.2631  0.2579
 5028TIP3    H236720   0.054   1.151   2.361 -1.5364  0.2223  2.8833
 5029TIP3   OH236721   5.042   3.680   0.096 -0.4146  0.0410 -0.0671
 5029TIP3    H136722   5.109   3.740   0.129 -0.3186  0.0373 -0.2571
 5029TIP3    H236723   5.079   3.643   0.016 -0.0974 -0.9433  0.5063
 5030TIP3   OH236724   1.933   5.421   7.487  0.0519 -0.4404 -0.3139
 5030TIP3    H136725   1.844   5.454   7.499 -0.1300 -0.7733 -0.7416
 5030TIP3    H236726   1.925   5.326   7.497  0.2630 -0.5239 -0.9213
 5031TIP3   OH236727   1.102   1.461   1.415  0.0723  0.4051  0.1506
 5031TIP3    H136728   1.092   1.379   1.463 -2.0394 -0.4090 -1.4979
 5031TIP3    H236729   1.100   1.529   1.482 -0.2182 -0.7891  1.4004
 5032TIP3   OH236730   2.983   0.824   2.443 -0.2662  0.2435  0.7408
 5032TIP3    H136731   3.052   0.761   2.461 -0.0451  0.1073 -0.5270
 5032TIP3    H236732   2.902   0.776   2.460 -0.1159 -0.6006 -0.8297
 5033TIP3   OH236733   3.673   6.159   0.456 -0.1579  0.2542 -0.2437
 5033TIP3    H136734   3.655   6.127   0.368 -0.4564 -0.9773  0.2446
 5033TIP3    H236735   3.587   6.163   0.499 -0.0593  1.1744 -0.1025
 5034TIP3   OH236736   6.368   5.284   2.909  0.5453 -0.3047  0.0787
 5034TIP3    H136737   6.373   5.298   3.003 -0.6753  0.9986 -0.0117
 5034TIP3    H236738   6.299   5.219   2.898 -0.5450  0.8431  0.0112
 5035TIP3   OH236739   0.855   3.900   1.218  0.0839  0.4807 -0.2998
 5035TIP3    H136740   0.889   3.915   1.129 -0.8644 -0.4372 -0.8317
 5035TIP3    H236741   0.767   3.936   1.216 -0.9686 -1.9425 -0.5769
 5036TIP3   OH236742   2.463   0.315   2.907 -0.1786 -0.4232  0.3980
 5036TIP3    H136743   2.494   0.224   2.906  0.8909 -0.0728  0.5189
 5036TIP3    H236744   2.420   0.325   2.991 -1.1845 -1.1001 -0.0248
 5037TIP3   OH236745   0.055   1.478   1.204  0.1704 -0.0740 -0.2530
 5037TIP3    H136746   0.055   1.465   1.299 -1.7448  0.5788 -0.1072
 5037TIP3    H236747  -0.026   1.436   1.174  0.5819  0.0136 -1.5575
 5038TIP3   OH236748   1.874   6.550   9.170 -0.1127  0.1665  0.3388
 5038TIP3    H136749   1.966   6.527   9.177  0.3153 -1.6857 -5.6696
 5038TIP3    H236750   1.874   6.642   9.143  0.4993 -0.7133 -3.1215
 5039TIP3   OH236751   6.039   5.026   1.425 -0.0311  0.0565  0.0813
 5039TIP3    H136752   6.057   5.071   1.507 -0.5686  0.2347  0.1047
 5039TIP3    H236753   6.102   4.954   1.423 -0.5871 -0.4714  1.0593
 5040TIP3   OH236754   3.916   1.571   7.741  0.7775  0.8456 -1.6289
 5040TIP3    H136755   3.988   1.611   7.789  0.9143 -0.0715 -1.0417
 5040TIP3    H236756   3.925   1.477   7.757 -1.5286  0.8058 -0.1062
 5041TIP3   OH236757   1.654   4.917   7.361  0.0824  0.9046 -0.0847
 5041TIP3    H136758   1.719   4.936   7.293  0.3828  1.7799  0.4304
 5041TIP3    H236759   1.585   4.981   7.347 -0.0637  0.8057  0.1686
 5042TIP3   OH236760   5.275   4.949   0.279  0.1332  0.2990  0.1675
 5042TIP3    H136761   5.370   4.959   0.284 -0.0688  2.0709  1.5570
 5042TIP3    H236762   5.259   4.860   0.309  1.3419 -0.0245 -0.0694
 5043TIP3   OH236763   1.509   2.230   9.149 -0.2287 -0.3731 -0.2093
 5043TIP3    H136764   1.519   2.321   9.120 -0.0754 -0.4978 -0.5409
 5043TIP3    H236765   1.430   2.199   9.106  0.6755 -0.9546 -1.5038
 5044TIP3   OH236766   0.850   4.896   8.510  0.1272 -0.2332 -0.0017
 5044TIP3    H136767   0.782   4.839   8.545 -0.9488  0.7530 -0.4063
 5044TIP3    H236768   0.907   4.838   8.459  1.0055 -1.4746  2.2795
 5045TIP3   OH236769   0.506   5.366   1.602  0.1654  0.0220  0.0396
 5045TIP3    H136770   0.566   5.300   1.637 -1.9351 -1.0126  1.9556
 5045TIP3    H236771   0.459   5.320   1.532  1.2705  0.7342 -1.2329
 5046TIP3   OH236772   3.004   6.091   2.057  0.4017 -0.1001  0.0055
 5046TIP3    H136773   3.096   6.120   2.058  1.0676 -1.9456 -1.3108
 5046TIP3    H236774   2.992   6.046   2.140  1.2468 -1.2767 -0.4715
 5047TIP3   OH236775   4.796   2.535   8.432 -0.3572  0.3777 -0.4935
 5047TIP3    H136776   4.851   2.499   8.363  0.7690  2.4486 -0.7602
 5047TIP3    H236777   4.760   2.615   8.395 -0.1222  1.2750  1.1271
 5048TIP3   OH236778   3.194   3.280   9.206 -0.1905 -0.1637  0.3395
 5048TIP3    H136779   3.211   3.191   9.177 -1.9970 -0.0983 -1.1628
 5048TIP3    H236780   3.126   3.271   9.273  0.6671  0.0049  1.2459
 5049TIP3   OH236781   5.901   0.672   1.193 -0.0631  0.1333 -0.8980
 5049TIP3    H136782   5.979   0.675   1.137 -0.1948  2.6169 -1.0446
 5049TIP3    H236783   5.928   0.618   1.267  1.6772  0.5756 -1.1618
 5050TIP3   OH236784   3.680   2.803   2.251 -0.3464  0.0139 -0.2372
 5050TIP3    H136785   3.761   2.791   2.302 -0.0411  0.9167 -0.4744
 5050TIP3    H236786   3.673   2.725   2.197 -0.5749 -0.8813  1.0527
 5051TIP3   OH236787   2.147   1.479   1.595 -0.0277 -0.8983 -0.5729
 5051TIP3    H136788   2.102   1.438   1.521 -0.4327 -0.8568 -0.3498
 5051TIP3    H236789   2.094   1.457   1.672 -0.0452 -0.2867 -0.3971
 5052TIP3   OH236790   1.398   2.805   9.055 -0.1621  0.0946  0.1903
 5052TIP3    H136791   1.426   2.753   8.980  1.0805  0.5416  0.3128
 5052TIP3    H236792   1.415   2.749   9.131  0.6255  0.4377  0.2790
 5053TIP3   OH236793   2.028   3.236   0.354  0.2426 -0.2410 -0.0655
 5053TIP3    H136794   2.013   3.184   0.275  0.2365  0.1121 -0.3005
 5053TIP3    H236795   1.940   3.255   0.387  0.2395 -0.2052 -0.0947
 5054TIP3   OH236796   1.233   6.087   0.139  0.0458 -0.0483 -0.4351
 5054TIP3    H136797   1.254   6.019   0.203  0.7578 -0.7697 -1.4035
 5054TIP3    H236798   1.181   6.151   0.188 -0.6318 -1.2722  0.5142
 5055TIP3   OH236799   2.723   4.848   2.148 -0.0322 -0.3472  0.2853
 5055TIP3    H136800   2.708   4.839   2.054  0.0177 -0.7921  0.3165
 5055TIP3    H236801   2.638   4.828   2.188  0.1383 -0.9209  0.3692
 5056TIP3   OH236802   5.907   0.250   2.370  0.3388  0.3207  0.4596
 5056TIP3    H136803   5.853   0.257   2.291  0.3094  0.3523  0.4826
 5056TIP3    H236804   5.949   0.335   2.378  2.4297 -0.4981 -1.0246
 5057TIP3   OH236805   3.095   2.228   7.968 -0.7707 -0.3078  0.3028
 5057TIP3    H136806   3.116   2.274   7.886  0.2474  0.6372  1.0659
 5057TIP3    H236807   3.048   2.150   7.940  0.5509 -0.5903 -1.2701
 5058TIP3   OH236808   3.540   0.487   1.082  0.1203  0.0011  0.5813
 5058TIP3    H136809   3.452   0.451   1.095 -0.5241  0.9192 -0.9722
 5058TIP3    H236810   3.593   0.411   1.057 -0.5290 -0.3628  0.2648
 5059TIP3   OH236811   1.047   1.613   1.641  0.7669 -0.3254  0.5532
 5059TIP3    H136812   1.074   1.636   1.730  0.3163 -0.7189  0.7933
 5059TIP3    H236813   1.080   1.685   1.587  0.6421  0.1461  1.0981
 5060TIP3   OH236814   3.704   6.698   7.918 -0.6244  0.5711  0.5653
 5060TIP3    H136815   3.654   6.698   7.837 -0.0537 -1.1998  0.1679
 5060TIP3    H236816   3.790   6.731   7.893 -1.0686  2.1263  0.9387
 5061TIP3   OH236817   2.523   4.052   2.856 -0.4408 -0.4942 -0.0801
 5061TIP3    H136818   2.580   4.064   2.932  0.3323 -0.1252 -0.7163
 5061TIP3    H236819   2.512   3.957   2.849 -1.4065 -0.5098  1.1278
 5062TIP3   OH236820   5.045   3.426   7.747  0.1279  0.5543  0.1444
 5062TIP3    H136821   5.133   3.389   7.747 -0.6286 -1.4005  1.7389
 5062TIP3    H236822   5.010   3.407   7.660 -0.3900 -3.1285  0.9962
 5063TIP3   OH236823   3.441   4.366   3.287 -0.0487  0.2314 -1.0281
 5063TIP3    H136824   3.410   4.312   3.359 -1.5343  0.1503 -1.6823
 5063TIP3    H236825   3.472   4.303   3.222  0.8608  0.2859 -0.6494
 5064TIP3   OH236826   3.978   4.199   1.100  0.2739  0.3946 -0.0023
 5064TIP3    H136827   3.911   4.139   1.132  1.5741 -0.8898  0.4579
 5064TIP3    H236828   4.060   4.163   1.134  1.1702  2.1229 -0.2131
 5065TIP3   OH236829   1.925   5.378   8.750 -0.1003 -0.1371 -0.1787
 5065TIP3    H136830   1.907   5.433   8.674  3.2342  0.5646 -0.6068
 5065TIP3    H236831   1.990   5.315   8.719 -0.1235 -1.1125  1.6229
 5066TIP3   OH236832   0.277   0.376   2.583  0.1160 -0.3696  0.9352
 5066TIP3    H136833   0.331   0.305   2.616  0.9259 -0.6037 -0.7674
 5066TIP3    H236834   0.329   0.455   2.599 -0.0665 -0.3298  1.3537
 5067TIP3   OH236835   1.030   0.978   1.112  0.1090  0.0028 -0.2039
 5067TIP3    H136836   0.946   0.956   1.072 -0.0518 -1.1707  0.7138
 5067TIP3    H236837   1.076   0.893   1.119  0.2098  0.1913  1.8587
 5068TIP3   OH236838   3.660   0.301   0.236 -0.1755 -0.2965  0.1891
 5068TIP3    H136839   3.645   0.219   0.189 -0.5598 -0.3181  0.3473
 5068TIP3    H236840   3.755   0.314   0.231 -0.1040 -0.7813  0.2178
 5069TIP3   OH236841   4.994   0.077   1.988 -0.4454 -0.0379 -0.6740
 5069TIP3    H136842   5.052   0.136   1.940  0.8395 -0.9169 -0.2545
 5069TIP3    H236843   4.952   0.024   1.920 -0.7307  0.5807 -0.9838
 5070TIP3   OH236844   6.534   4.749   7.764 -0.3143 -0.5963 -0.1918
 5070TIP3    H136845   6.483   4.781   7.690 -0.4295 -2.6582 -1.0620
 5070TIP3    H236846   6.592   4.682   7.727 -0.0977 -1.4110  1.5119
 5071TIP3   OH236847   0.402   0.012   1.875  0.3180  0.6056 -0.3247
 5071TIP3    H136848   0.337   0.076   1.848 -0.8524  0.8446  2.7225
 5071TIP3    H236849   0.458   0.059   1.937  1.3592 -0.5046 -0.3813
 5072TIP3   OH236850   0.655   0.982   8.702  0.7420 -0.5029 -0.4005
 5072TIP3    H136851   0.646   0.995   8.608 -2.3293  0.2659 -0.0966
 5072TIP3    H236852   0.652   0.887   8.714 -0.2629 -0.5537 -0.9869
 5073TIP3   OH236853   3.251   4.936   0.671  0.3446  0.0883 -0.1706
 5073TIP3    H136854   3.301   4.897   0.743 -2.0733 -0.2985  1.4063
 5073TIP3    H236855   3.196   4.865   0.639  1.2870  0.2882 -2.3977
 5074TIP3   OH236856   1.964   5.115   0.863 -0.0537 -0.1283 -0.3388
 5074TIP3    H136857   1.984   5.036   0.913 -1.3010 -0.4388 -0.3069
 5074TIP3    H236858   1.919   5.083   0.785  2.2558  0.2943 -1.9590
 5075TIP3   OH236859   6.106   2.627   0.726 -0.0046  0.4305  0.2973
 5075TIP3    H136860   6.133   2.717   0.742  0.3329  0.0771  1.8342
 5075TIP3    H236861   6.040   2.609   0.793 -0.0290 -0.4885  0.0401
 5076TIP3   OH236862   4.545   4.671   0.316 -0.3564 -0.1882 -0.0994
 5076TIP3    H136863   4.544   4.623   0.399 -3.8417 -1.2331 -0.5906
 5076TIP3    H236864   4.532   4.762   0.341 -0.4513 -0.3744  0.5375
 5077TIP3   OH236865   0.843   0.265   8.070  1.1208 -0.7464  0.9158
 5077TIP3    H136866   0.797   0.221   7.999  0.0935 -0.7721  1.5886
 5077TIP3    H236867   0.933   0.275   8.037  0.3642  0.4249 -0.9145
 5078TIP3   OH236868   3.358   0.983   1.800  0.2943 -0.2436 -0.0486
 5078TIP3    H136869   3.269   1.004   1.826 -0.1046 -2.7971  0.9088
 5078TIP3    H236870   3.412   1.011   1.874 -0.2864 -2.8540  1.4708
 5079TIP3   OH236871   0.861   1.854   1.352  0.1865 -0.2565  0.8211
 5079TIP3    H136872   0.882   1.905   1.430 -1.3692  3.0877 -0.7241
 5079TIP3    H236873   0.800   1.787   1.383 -0.9310  1.4111  2.4322
 5080TIP3   OH236874   6.549   2.025   0.532 -0.3602 -0.1237 -0.7558
 5080TIP3    H136875   6.480   1.959   0.530 -0.5324 -0.0416  1.2254
 5080TIP3    H236876   6.504   2.106   0.557  0.2040  0.2827 -1.0231
 5081TIP3   OH236877   2.833   6.140   7.852  0.5440  0.7998  0.3749
 5081TIP3    H136878   2.762   6.142   7.916  0.8565 -0.2630  0.7657
 5081TIP3    H236879   2.886   6.217   7.874 -0.5190  1.6702  0.0075
 5082TIP3   OH236880   2.558   1.777   2.903 -0.6629  0.1340  0.3618
 5082TIP3    H136881   2.507   1.699   2.880  1.0049 -0.3415 -2.0144
 5082TIP3    H236882   2.649   1.752   2.889 -0.0505  2.4053 -0.1304
 5083TIP3   OH236883   2.101   0.584   2.208 -0.1263  0.0240 -0.1067
 5083TIP3    H136884   2.165   0.569   2.138  0.6571 -2.3575  1.0211
 5083TIP3    H236885   2.154   0.616   2.281 -0.1855 -1.8287  0.7888
 5084TIP3   OH236886   6.575   2.136   0.892 -0.1228  0.2449 -0.1108
 5084TIP3    H136887   6.593   2.047   0.921 -0.8609  0.4519  1.0625
 5084TIP3    H236888   6.482   2.135   0.867 -0.4127  0.9023  0.8739
 5085TIP3   OH236889   1.591   0.857   2.643  0.1240  0.3312 -0.1000
 5085TIP3    H136890   1.526   0.819   2.702  0.3322  0.1559  0.0173
 5085TIP3    H236891   1.550   0.937   2.611 -1.3977 -1.2115 -2.3485
 5086TIP3   OH236892   5.961   0.891   7.955  0.2781  0.4610  0.1404
 5086TIP3    H136893   5.874   0.864   7.986  0.3001 -0.8135 -0.8523
 5086TIP3    H236894   5.944   0.967   7.900 -0.2134  0.1916 -0.0849
 5087TIP3   OH236895   4.953   0.940   9.204  0.0205 -0.4608  0.2167
 5087TIP3    H136896   4.887   0.883   9.242  1.6380 -1.9557  0.9637
 5087TIP3    H236897   4.984   0.993   9.277  2.1723 -2.3849  0.8401
 5088TIP3   OH236898   3.241   6.215   1.409  0.2854 -0.0912  0.2028
 5088TIP3    H136899   3.268   6.301   1.442  0.2942 -0.0336  0.0459
 5088TIP3    H236900   3.150   6.226   1.382  0.4124 -0.0159 -0.2123
 5089TIP3   OH236901   4.141   0.290   9.088  0.1755  0.0633  0.1636
 5089TIP3    H136902   4.106   0.374   9.118 -0.2646  0.0255 -0.2293
 5089TIP3    H236903   4.236   0.300   9.091  0.1235  0.6141 -0.0049
 5090TIP3   OH236904   1.151   3.936   9.070  0.0823 -0.3699 -0.3966
 5090TIP3    H136905   1.232   3.978   9.097 -0.7899  0.8260  0.5114
 5090TIP3    H236906   1.122   3.887   9.147 -0.0351 -0.8270 -0.7253
 5091TIP3   OH236907   0.476   0.176   8.928  0.1895 -0.1543 -0.0472
 5091TIP3    H136908   0.546   0.112   8.926  0.9942  0.7013 -0.0148
 5091TIP3    H236909   0.471   0.204   9.019  0.2709  0.2777 -0.1707
 5092TIP3   OH236910   3.181   3.694   9.161 -0.2968  0.8787  0.2612
 5092TIP3    H136911   3.253   3.635   9.183  1.0270  2.7856  1.3016
 5092TIP3    H236912   3.154   3.667   9.073  1.3555 -0.1973  0.0418
 5093TIP3   OH236913   2.746   4.806   0.225 -0.1699  0.3390  0.0052
 5093TIP3    H136914   2.761   4.714   0.201 -1.3470  0.0514  0.2868
 5093TIP3    H236915   2.786   4.856   0.154 -1.4081 -0.4426 -1.2890
 5094TIP3   OH236916   5.774   1.926   1.013 -0.9832  0.0787 -0.3035
 5094TIP3    H136917   5.739   1.863   1.077 -1.5821  1.0267  0.3262
 5094TIP3    H236918   5.842   1.877   0.966  0.7790 -0.1915  2.2774
 5095TIP3   OH236919   4.413   0.220   2.015  0.5830  0.9566  0.6546
 5095TIP3    H136920   4.347   0.289   2.021 -1.1480 -0.4806 -0.6789
 5095TIP3    H236921   4.410   0.192   1.923  0.0265 -1.9775  1.4650
 5096TIP3   OH236922   6.517   2.162   8.551 -0.1441 -0.0403 -0.5857
 5096TIP3    H136923   6.440   2.131   8.599  0.8586  0.3048  1.3506
 5096TIP3    H236924   6.589   2.106   8.583  0.4608 -0.2034 -2.1677
 5097TIP3   OH236925   2.795   5.467   7.205 -0.0301  0.9577  0.5166
 5097TIP3    H136926   2.725   5.426   7.154  0.0285  0.0315  1.1617
 5097TIP3    H236927   2.751   5.535   7.256 -0.4211  0.5554  0.7210
 5098TIP3   OH236928   2.264   4.516   0.128  0.1354 -0.5910  0.2387
 5098TIP3    H136929   2.184   4.566   0.148  0.8884  0.4440  0.7420
 5098TIP3    H236930   2.262   4.505   0.033  0.1600  0.7894  0.0619
 5099TIP3   OH236931   4.766   0.645   8.966  0.1798 -0.1466  0.2019
 5099TIP3    H136932   4.845   0.636   9.020  0.0444 -0.1461  0.4004
 5099TIP3    H236933   4.799   0.658   8.877  0.4727  1.9830  0.5511
 5100TIP3   OH236934   2.616   6.047   0.644 -0.1972  0.2270  0.0081
 5100TIP3    H136935   2.692   6.104   0.635  0.0821 -0.3065 -1.1927
 5100TIP3    H236936   2.586   6.032   0.554 -0.8262 -0.7495  0.3627
 5101TIP3   OH236937   0.668   3.648   0.897 -0.0592  0.4068 -0.0372
 5101TIP3    H136938   0.623   3.710   0.840 -1.3517  1.4088  1.9357
 5101TIP3    H236939   0.761   3.661   0.880 -0.3904  1.3133 -1.2284
 5102TIP3   OH236940   2.763   2.704   2.335 -0.4838 -0.1600 -0.6994
 5102TIP3    H136941   2.699   2.718   2.405  1.6254  1.5967  1.0152
 5102TIP3    H236942   2.822   2.636   2.368 -1.3314 -1.7331 -2.2396
 5103TIP3   OH236943   6.207   5.144   7.733  0.2289 -0.3215  0.0798
 5103TIP3    H136944   6.264   5.208   7.691 -0.0593 -0.6331 -0.7929
 5103TIP3    H236945   6.125   5.148   7.685 -0.5864  0.2606  1.4569
 5104TIP3   OH236946   0.672   4.477   0.412 -1.1878  0.4028 -0.0432
 5104TIP3    H136947   0.609   4.525   0.358  0.1973  1.8183 -0.4973
 5104TIP3    H236948   0.739   4.542   0.433  2.1931 -1.8038 -2.8139
 5105TIP3   OH236949   5.529   2.517   8.793  0.0639 -0.5611  0.0384
 5105TIP3    H136950   5.570   2.455   8.853  0.2164 -2.7544 -2.1731
 5105TIP3    H236951   5.446   2.476   8.769 -1.4485  1.7191  0.9859
 5106TIP3   OH236952   4.164   4.300   2.950  0.0838 -0.1613  0.7128
 5106TIP3    H136953   4.236   4.353   2.916 -0.4630 -0.3850 -0.8559
 5106TIP3    H236954   4.085   4.350   2.928 -0.6742 -2.5966 -3.0392
 5107TIP3   OH236955   5.985   5.052   3.079  0.3209  0.2096 -0.2515
 5107TIP3    H136956   5.901   5.013   3.055  0.2612  0.7115 -0.8854
 5107TIP3    H236957   6.018   4.997   3.151 -0.5065 -0.0340 -0.0527
 5108TIP3   OH236958   3.814   4.010   0.857  0.8913 -0.2213 -0.4719
 5108TIP3    H136959   3.894   4.017   0.909  0.9310 -1.2319 -0.3883
 5108TIP3    H236960   3.843   4.023   0.767  1.0226  0.1940 -0.3755
 5109TIP3   OH236961   6.098   5.639   1.863 -0.2851 -0.7228  0.0870
 5109TIP3    H136962   6.072   5.715   1.810  1.5473  1.3301  1.9383
 5109TIP3    H236963   6.047   5.567   1.827 -1.2028  1.0966 -2.6026
 5110TIP3   OH236964   2.114   0.881   1.866 -0.0322 -0.1406  0.4525
 5110TIP3    H136965   2.046   0.864   1.801 -0.1993  1.6356  0.1111
 5110TIP3    H236966   2.070   0.866   1.950 -0.5562 -0.0150  0.2104
 5111TIP3   OH236967   3.471   0.284   8.760 -0.5970 -0.0657  0.0319
 5111TIP3    H136968   3.429   0.333   8.830 -1.1858 -2.4002  1.4502
 5111TIP3    H236969   3.399   0.262   8.700 -1.0279 -1.8255  1.0964
 5112TIP3   OH236970   6.393   6.562   7.354 -0.1376  0.3211 -0.2860
 5112TIP3    H136971   6.358   6.640   7.312  0.1423  0.3952 -0.3884
 5112TIP3    H236972   6.323   6.531   7.411 -0.1422  0.8158 -0.0216
 5113TIP3   OH236973   3.116   4.771   8.714 -0.1433  0.1859  1.0651
 5113TIP3    H136974   3.110   4.776   8.810  0.6320  1.6894  1.0563
 5113TIP3    H236975   3.132   4.861   8.686  2.3921 -0.5959 -0.2683
 5114TIP3   OH236976   2.434   0.979   1.618  0.0878  0.0628 -0.1948
 5114TIP3    H136977   2.372   1.051   1.626  1.6065  1.3023  1.3761
 5114TIP3    H236978   2.448   0.950   1.708  1.4795 -0.4337 -0.5453
 5115TIP3   OH236979   6.492   2.402   0.228  0.0830  0.3489 -0.0329
 5115TIP3    H136980   6.471   2.312   0.200 -2.3521  0.9923 -0.4670
 5115TIP3    H236981   6.408   2.441   0.249  1.3297  1.6653  3.0652
 5116TIP3   OH236982   0.006   6.348   9.021 -0.7988 -0.2488  0.4326
 5116TIP3    H136983   0.023   6.341   8.927 -0.8981  0.6822  0.3345
 5116TIP3    H236984  -0.014   6.258   9.049  0.2794 -0.7065 -0.2199
 5117TIP3   OH236985   5.944   5.592   2.590 -0.1000 -0.4595  0.0079
 5117TIP3    H136986   5.955   5.659   2.658  0.1135 -1.2360  0.7522
 5117TIP3    H236987   5.875   5.535   2.623  0.8136 -1.5178  0.1344
 5118TIP3   OH236988   4.733   3.997   7.306 -1.2870  0.4614  0.0309
 5118TIP3    H136989   4.707   3.919   7.356  0.0567 -0.5354 -0.7289
 5118TIP3    H236990   4.720   4.070   7.366 -1.9551 -0.4315  0.9996
 5119TIP3   OH236991   4.588   4.954   0.416  0.0731 -0.0411 -0.2914
 5119TIP3    H136992   4.554   4.967   0.328 -1.3131 -1.7495 -0.0585
 5119TIP3    H236993   4.620   5.040   0.443  2.0582  0.2121 -3.0460
 5120TIP3   OH236994   2.205   5.488   7.392 -0.2718  0.5957  0.6651
 5120TIP3    H136995   2.218   5.565   7.337 -0.7589 -0.2077 -0.6224
 5120TIP3    H236996   2.112   5.489   7.414 -0.8957 -0.9360 -1.5068
 5121TIP3   OH236997   6.562   0.840   8.748 -0.0527  1.1227 -0.2196
 5121TIP3    H136998   6.624   0.819   8.817 -0.6709  0.2947  0.1072
 5121TIP3    H236999   6.612   0.893   8.686  0.2586  2.7489  1.3258
 5122TIP3   OH237000   1.324   6.363   9.071  0.0762  0.5929 -0.6782
 5122TIP3    H137001   1.241   6.403   9.098 -1.0541 -1.8084 -0.3208
 5122TIP3    H237002   1.343   6.299   9.140  1.3877 -0.0010 -1.5499
 5123TIP3   OH237003   2.093   6.555   8.025 -0.1184  0.1239 -0.2401
 5123TIP3    H137004   2.153   6.501   7.975 -0.3538 -0.9102  0.5564
 5123TIP3    H237005   2.069   6.501   8.100 -0.4239  1.3057  0.5452
 5124TIP3   OH237006   0.865   1.517   7.828 -0.4614 -0.4604 -0.0150
 5124TIP3    H137007   0.819   1.451   7.778 -2.4919  0.5227  0.4386
 5124TIP3    H237008   0.932   1.469   7.877  0.7970 -1.5859 -2.6834
 5125TIP3   OH237009   3.686   2.852   8.939 -0.2612 -0.1863 -0.0791
 5125TIP3    H137010   3.721   2.889   9.020 -0.8747 -1.2207  0.6816
 5125TIP3    H237011   3.729   2.902   8.870 -0.3634  1.3160  0.8786
 5126TIP3   OH237012   6.191   3.389   1.685  0.0267  0.1214 -0.2159
 5126TIP3    H137013   6.159   3.442   1.759 -0.3366  0.1420 -0.3855
 5126TIP3    H237014   6.267   3.437   1.653 -1.5134  1.7069 -1.7035
 5127TIP3   OH237015   5.747   4.567   8.971  0.1303 -0.3427  0.1598
 5127TIP3    H137016   5.686   4.557   9.044  0.3861 -0.6346  0.3376
 5127TIP3    H237017   5.699   4.620   8.906 -0.0887 -0.0622  0.5451
 5128TIP3   OH237018   4.788   0.116   0.733  0.0480 -0.3157 -0.3421
 5128TIP3    H137019   4.804   0.065   0.812 -0.9447  1.3108  0.9687
 5128TIP3    H237020   4.866   0.102   0.679  1.6549  0.0470  1.7570
 5129TIP3   OH237021   1.329   0.029   2.419 -0.3483 -0.1433 -0.2168
 5129TIP3    H137022   1.400   0.059   2.476  0.2912  0.8771 -1.4870
 5129TIP3    H237023   1.270   0.104   2.413  1.0633  0.9057 -3.1211
 5130TIP3   OH237024   4.192   5.726   8.753  0.5885  0.0110  0.0719
 5130TIP3    H137025   4.220   5.684   8.834  0.8313  0.4835  0.2391
 5130TIP3    H237026   4.266   5.780   8.727 -0.1001  1.1817  0.4526
 5131TIP3   OH237027   2.535   5.361   7.985  0.6155  0.0783  0.2198
 5131TIP3    H137028   2.612   5.418   7.981  1.3017 -0.6791  1.6232
 5131TIP3    H237029   2.525   5.328   7.896  1.5752  0.6337 -0.1190
 5132TIP3   OH237030   4.432   3.361   8.688  0.5458  0.7098 -0.9400
 5132TIP3    H137031   4.488   3.298   8.642 -0.1828 -0.9821  0.3735
 5132TIP3    H237032   4.462   3.358   8.779 -0.4129  1.2064 -0.5961
 5133TIP3   OH237033   4.925   4.120   2.305 -0.0476  0.0653  0.6020
 5133TIP3    H137034   4.914   4.060   2.380 -1.4268  1.7688  1.8523
 5133TIP3    H237035   4.855   4.097   2.245 -0.0198 -0.1565  0.6537
 5134TIP3   OH237036   5.157   4.239   7.152  0.2768  0.1158  0.1504
 5134TIP3    H137037   5.228   4.273   7.206  1.0103 -0.8272 -0.2016
 5134TIP3    H237038   5.188   4.246   7.062 -0.7685  1.2733 -0.1483
 5135TIP3   OH237039   2.054   3.723   9.102  0.0782 -0.1860 -0.3610
 5135TIP3    H137040   2.002   3.732   9.022 -1.0972 -1.2538  0.2479
 5135TIP3    H237041   2.077   3.813   9.126 -1.4666  0.3280 -0.6784
 5136TIP3   OH237042   0.136   3.597   1.654  0.0439 -0.2190  0.2789
 5136TIP3    H137043   0.102   3.683   1.627  1.1799  0.2150  0.1743
 5136TIP3    H237044   0.088   3.576   1.733  0.6980  1.1613  1.0832
 5137TIP3   OH237045   1.778   4.804   0.123 -0.1371 -0.1358  0.2995
 5137TIP3    H137046   1.727   4.723   0.114  0.4988 -0.7583  2.0216
 5137TIP3    H237047   1.863   4.782   0.084 -1.0834  0.9501 -2.7179
 5138TIP3   OH237048   4.443   4.100   9.130 -0.2227 -0.6101  0.2256
 5138TIP3    H137049   4.367   4.087   9.074 -0.7372 -1.0807  1.0143
 5138TIP3    H237050   4.407   4.111   9.218  0.5453  0.4356  0.4357
 5139TIP3   OH237051   0.649   3.605   0.127  0.2000  0.1306 -0.1077
 5139TIP3    H137052   0.614   3.668   0.064  1.0045 -0.3063 -1.0172
 5139TIP3    H237053   0.694   3.659   0.192 -0.4848  0.5723  0.0097
 5140TIP3   OH237054   6.401   3.927   1.002 -0.2163  0.1246  0.1793
 5140TIP3    H137055   6.445   3.968   0.927 -0.9232 -1.8538 -1.3860
 5140TIP3    H237056   6.378   4.001   1.058  0.8811  1.6305 -1.2374
 5141TIP3   OH237057   2.584   4.575   8.584 -0.1998  0.3712 -0.1709
 5141TIP3    H137058   2.594   4.656   8.533  0.4065 -0.0073 -0.6629
 5141TIP3    H237059   2.554   4.510   8.520 -1.1252  0.3010  0.3120
 5142TIP3   OH237060   2.050   3.761   1.314  0.2938  0.2186 -0.0764
 5142TIP3    H137061   2.142   3.783   1.327  0.7014 -0.5449 -1.5057
 5142TIP3    H237062   2.004   3.845   1.318  1.1731  0.7146 -0.3251
 5143TIP3   OH237063   5.628   3.266   8.697  0.5704  0.3964  0.4845
 5143TIP3    H137064   5.545   3.217   8.694  0.4898  0.3566  2.2017
 5143TIP3    H237065   5.693   3.206   8.661  0.1261 -0.1944  0.6531
 5144TIP3   OH237066   4.488   4.835   1.837 -0.3899  0.4364 -0.6425
 5144TIP3    H137067   4.404   4.870   1.865  1.5147  2.7410  3.0637
 5144TIP3    H237068   4.523   4.902   1.777 -0.5391  0.2555 -0.9331
 5145TIP3   OH237069   0.957   3.985   8.026  0.1348  0.1759  0.0333
 5145TIP3    H137070   0.863   3.970   8.034 -0.0218  1.4340  0.8147
 5145TIP3    H237071   0.988   3.913   7.970 -1.0957 -0.9081  0.6815
 5146TIP3   OH237072   5.924   5.634   1.047 -0.1592 -0.1710  0.7480
 5146TIP3    H137073   5.874   5.711   1.021  0.1920 -0.5356 -1.2245
 5146TIP3    H237074   5.872   5.560   1.015  1.2303 -0.5779 -0.7731
 5147TIP3   OH237075   3.495   4.852   1.585  0.1805 -0.3846  0.2381
 5147TIP3    H137076   3.478   4.893   1.670  0.0141 -1.3337  0.6711
 5147TIP3    H237077   3.493   4.758   1.602 -0.2423 -0.6010 -0.8899
 5148TIP3   OH237078   0.407   6.407   0.280 -0.1482 -0.2027  0.3634
 5148TIP3    H137079   0.385   6.352   0.355 -0.1125 -1.2428 -0.3716
 5148TIP3    H237080   0.382   6.496   0.307  0.5162 -0.4431  1.8578
 5149TIP3   OH237081   2.497   6.062   9.159 -0.0996  0.2309 -0.2924
 5149TIP3    H137082   2.530   5.989   9.212  0.0317 -0.8609 -1.8181
 5149TIP3    H237083   2.575   6.097   9.115 -0.3884  0.3238 -0.7307
 5150TIP3   OH237084   4.858   2.966   1.966  0.5412  0.3464  0.5631
 5150TIP3    H137085   4.937   2.956   1.914  0.4354 -2.4614  0.7537
 5150TIP3    H237086   4.821   3.050   1.938  2.0538  0.3666 -1.6501
 5151TIP3   OH237087   3.513   2.591   7.541 -0.7989  0.4864  0.0232
 5151TIP3    H137088   3.526   2.595   7.446  1.1609 -2.8980 -0.0085
 5151TIP3    H237089   3.446   2.524   7.554  0.1780 -0.3442  1.0176
 5152TIP3   OH237090   6.302   2.594   0.284  0.4026 -0.1899  0.2127
 5152TIP3    H137091   6.381   2.641   0.258  1.5375 -3.3701 -3.1148
 5152TIP3    H237092   6.238   2.613   0.215  0.2078 -1.7452 -0.0918
 5153TIP3   OH237093   1.989   4.099   8.913  0.6656 -1.0091  0.3825
 5153TIP3    H137094   2.010   4.075   8.822 -1.0860  1.2535 -0.7187
 5153TIP3    H237095   2.070   4.139   8.946  0.4292  1.0558 -1.3199
 5154TIP3   OH237096   2.286   5.424   8.945 -0.1998  0.6541  0.7078
 5154TIP3    H137097   2.277   5.333   8.919  0.1169  0.4346  1.3448
 5154TIP3    H237098   2.201   5.463   8.927 -0.1323  0.4008 -0.1977
 5155TIP3   OH237099   5.006   4.693   7.680  0.0714  0.4068 -0.2452
 5155TIP3    H137100   4.993   4.600   7.661  0.7447  0.4188 -0.8046
 5155TIP3    H237101   5.067   4.723   7.612  0.2404  1.1423  0.2227
 5156TIP3   OH237102   5.101   3.789   0.606  0.1621 -0.0758  0.0665
 5156TIP3    H137103   5.058   3.703   0.602  2.1020 -1.1961  1.4582
 5156TIP3    H237104   5.042   3.843   0.658 -0.0786 -1.2301  1.0293
 5157TIP3   OH237105   4.830   3.112   0.264 -0.2320  0.0992 -0.1375
 5157TIP3    H137106   4.808   3.182   0.326  1.5013  0.4155  0.1680
 5157TIP3    H237107   4.877   3.048   0.316 -0.0070 -0.3139 -0.8385
 5158TIP3   OH237108   6.604   5.226   0.462  0.6240  0.7149 -0.1470
 5158TIP3    H137109   6.639   5.234   0.374 -1.6094  0.6980 -1.1212
 5158TIP3    H237110   6.645   5.147   0.498  3.7848  2.2836  0.0316
 5159TIP3   OH237111   0.785   4.079   1.674 -0.3703 -0.5336 -0.2431
 5159TIP3    H137112   0.697   4.100   1.706 -0.3401  0.2673 -0.6495
 5159TIP3    H237113   0.795   3.985   1.688 -2.3113 -1.1800 -2.6085
 5160TIP3   OH237114   5.074   3.477   8.123 -0.2015 -0.0344  0.1594
 5160TIP3    H137115   5.162   3.442   8.112 -0.3909 -0.2010 -1.0689
 5160TIP3    H237116   5.016   3.404   8.103 -0.5984  0.4928 -0.7269
 5161TIP3   OH237117   3.597   0.995   8.237 -0.5005  0.1472 -0.2925
 5161TIP3    H137118   3.524   1.011   8.298  0.9868 -0.1702  1.6436
 5161TIP3    H237119   3.554   0.978   8.154 -2.6096  1.2440  0.4836
 5162TIP3   OH237120   2.322   3.851   8.956  0.0445  0.0780 -0.5850
 5162TIP3    H137121   2.291   3.897   9.034 -1.2786  1.1276 -1.6720
 5162TIP3    H237122   2.265   3.774   8.950  0.9610 -0.6973  0.1235
 5163TIP3   OH237123   2.138   6.121   8.326 -0.2211  0.3510 -0.8515
 5163TIP3    H137124   2.194   6.067   8.270 -1.5006 -0.3665 -1.4904
 5163TIP3    H237125   2.174   6.209   8.318  0.4857 -0.0035 -1.6826
 5164TIP3   OH237126   4.058   0.555   8.182  0.1478 -0.5442  0.2589
 5164TIP3    H137127   4.125   0.515   8.237  0.9948 -0.6076 -0.8033
 5164TIP3    H237128   4.081   0.647   8.179  0.0921 -0.5389  0.0179
 5165TIP3   OH237129   6.581   0.043   2.702  0.1859 -0.3215 -0.4620
 5165TIP3    H137130   6.629   0.006   2.776 -1.4725 -0.1277  0.7479
 5165TIP3    H237131   6.508  -0.017   2.687  0.2649 -0.1437 -1.6993
 5166TIP3   OH237132   2.612   2.461   0.304  0.2842 -0.4725  0.0600
 5166TIP3    H137133   2.548   2.463   0.376 -0.6462 -1.1902 -0.7233
 5166TIP3    H237134   2.666   2.385   0.323 -0.5808 -1.2400 -0.5064
 5167TIP3   OH237135   1.205   5.597   2.495  0.0035  0.0784  0.1720
 5167TIP3    H137136   1.130   5.654   2.475  0.6565  0.4525 -1.3363
 5167TIP3    H237137   1.268   5.616   2.426  1.3008 -0.5996  1.1393
 5168TIP3   OH237138   1.428   0.140   0.807 -0.2088  0.4888 -0.7242
 5168TIP3    H137139   1.490   0.138   0.880  0.5882  1.6161 -1.3352
 5168TIP3    H237140   1.467   0.083   0.741  0.0048  0.9006 -0.9611
 5169TIP3   OH237141   4.270   0.759   0.428 -0.2392 -0.5794 -0.0727
 5169TIP3    H137142   4.195   0.734   0.482 -0.9184 -1.0726 -1.2292
 5169TIP3    H237143   4.284   0.851   0.450 -0.9336 -0.5829  0.4449
 5170TIP3   OH237144   1.060   2.845   1.288  0.0561  0.0193 -0.1166
 5170TIP3    H137145   1.119   2.821   1.218 -1.4473 -1.2090 -1.0472
 5170TIP3    H237146   1.055   2.940   1.285  0.5386  0.0217 -1.2323
 5171TIP3   OH237147   6.575   6.603   1.221  0.3636  0.9637 -0.2310
 5171TIP3    H137148   6.490   6.563   1.239 -0.6794  2.4542 -1.5818
 5171TIP3    H237149   6.639   6.540   1.255 -1.2154 -1.3104 -1.2352
 5172TIP3   OH237150   3.556   5.483   3.064  0.1562  0.2023  0.3372
 5172TIP3    H137151   3.602   5.480   2.980 -1.5789  0.5118 -0.6792
 5172TIP3    H237152   3.464   5.472   3.041 -0.5180  1.7101  2.0738
 5173TIP3   OH237153   2.772   3.028   1.121  0.2881 -0.5701 -0.2719
 5173TIP3    H137154   2.696   3.070   1.081  0.4030  1.5403  1.5097
 5173TIP3    H237155   2.772   2.939   1.086 -0.5520  0.5629 -3.5804
 5174TIP3   OH237156   3.181   0.322   1.795  0.2521  0.7894 -0.4089
 5174TIP3    H137157   3.258   0.303   1.741 -0.7644 -0.0812 -1.6250
 5174TIP3    H237158   3.117   0.358   1.733  0.2233  3.2076  0.8704
 5175TIP3   OH237159   5.606   2.764   1.345 -0.4041 -0.5286 -0.0566
 5175TIP3    H137160   5.535   2.802   1.294  0.2138 -0.8910 -1.2141
 5175TIP3    H237161   5.615   2.675   1.312  0.1165 -0.7150  0.5669
 5176TIP3   OH237162   4.619   6.574   1.246 -0.5527  0.1789  0.5004
 5176TIP3    H137163   4.552   6.598   1.310 -1.5313 -1.0206 -0.0498
 5176TIP3    H237164   4.676   6.513   1.292 -0.8940 -0.2035  0.4144
 5177TIP3   OH237165   2.364   1.725   3.121  0.1122  0.3890 -0.0011
 5177TIP3    H137166   2.310   1.649   3.142 -0.6642  1.2355  1.1559
 5177TIP3    H237167   2.432   1.691   3.063  0.4463 -1.4350  1.3758
 5178TIP3   OH237168   3.381   3.956   8.556 -0.0579  0.1015 -0.0854
 5178TIP3    H137169   3.438   3.932   8.482 -0.3501 -0.1256 -0.2385
 5178TIP3    H237170   3.387   3.881   8.615 -0.1594  0.0981 -0.0788
 5179TIP3   OH237171   5.850   4.439   1.232 -0.0615  0.2500 -0.4635
 5179TIP3    H137172   5.938   4.405   1.247 -0.8233 -1.1011  1.3517
 5179TIP3    H237173   5.793   4.380   1.281 -1.9870  1.1427 -1.5051
 5180TIP3   OH237174   6.606   5.988   8.312 -0.2242  0.3396  0.5391
 5180TIP3    H137175   6.539   6.044   8.352 -0.4104 -0.0001  0.7094
 5180TIP3    H237176   6.688   6.035   8.325 -0.4752  0.9315  0.0067
 5181TIP3   OH237177   5.272   1.289   0.401  0.2673  0.0329  0.0458
 5181TIP3    H137178   5.203   1.276   0.336  2.2712 -0.8122 -2.0174
 5181TIP3    H237179   5.281   1.204   0.444 -0.5563  0.3942  0.9737
 5182TIP3   OH237180   2.137   1.553   0.168  0.0059 -0.8055  0.9089
 5182TIP3    H137181   2.158   1.483   0.230 -0.2485 -0.9560  0.8251
 5182TIP3    H237182   2.201   1.622   0.188  0.6298 -1.2841  0.6093
 5183TIP3   OH237183   3.300   4.384   7.725 -0.1293 -0.0190 -0.3814
 5183TIP3    H137184   3.231   4.342   7.674 -0.5117  0.6946 -0.4636
 5183TIP3    H237185   3.344   4.442   7.663 -1.8081  2.3040  0.4676
 5184TIP3   OH237186   3.792   1.053   0.105 -0.2765  0.5171  0.0492
 5184TIP3    H137187   3.881   1.086   0.120 -0.1949  0.3866 -0.1375
 5184TIP3    H237188   3.737   1.105   0.162 -0.0780  0.6013  0.1642
 5185TIP3   OH237189   1.273   2.092   8.752  0.6662  0.1588  0.0529
 5185TIP3    H137190   1.247   2.026   8.817  0.3889  0.2386  0.0221
 5185TIP3    H237191   1.213   2.165   8.766  0.1452 -0.1025 -0.7619
 5186TIP3   OH237192   1.908   2.114   1.785 -0.3420 -0.4696  0.2983
 5186TIP3    H137193   1.942   2.168   1.714 -1.2201  2.8570  2.1970
 5186TIP3    H237194   1.848   2.053   1.743 -0.1661  0.7832 -1.8945
 5187TIP3   OH237195   5.821   2.739   1.089  0.2501 -0.7369 -0.3253
 5187TIP3    H137196   5.840   2.648   1.113 -0.3537 -0.9742 -0.7325
 5187TIP3    H237197   5.889   2.790   1.134  0.5965 -1.3855 -0.0956
 5188TIP3   OH237198   2.983   4.622   9.210 -0.1446  0.0387 -0.0815
 5188TIP3    H137199   3.001   4.678   9.285  2.4393  0.4867 -0.9322
 5188TIP3    H237200   3.013   4.535   9.237 -2.9005 -0.7541  0.7517
 5189TIP3   OH237201   3.281   4.745   8.492  0.9687 -0.1030  0.2518
 5189TIP3    H137202   3.215   4.724   8.557  1.4606 -0.4623  0.6472
 5189TIP3    H237203   3.293   4.840   8.499 -2.1302  0.6678 -2.3698
 5190TIP3   OH237204   5.049   3.689   8.289 -0.3305 -0.2214 -0.0794
 5190TIP3    H137205   5.083   3.623   8.228  0.6065  0.4098 -0.2664
 5190TIP3    H237206   5.063   3.650   8.376  2.5803  0.6911 -0.0219
 5191TIP3   OH237207   4.311   4.971   8.709  0.2877 -0.2802 -0.9628
 5191TIP3    H137208   4.398   4.995   8.741 -0.2420  0.2629  0.1189
 5191TIP3    H237209   4.251   5.027   8.759 -0.6182  0.2394 -2.5661
 5192TIP3   OH237210   4.474   4.248   8.611  0.1011 -0.1381 -0.8970
 5192TIP3    H137211   4.514   4.316   8.557  0.5417 -0.0901 -0.5207
 5192TIP3    H237212   4.529   4.245   8.689 -1.0531  0.4370 -0.0342
 5193TIP3   OH237213   0.116   1.851   8.332  0.3875 -0.2569 -0.0438
 5193TIP3    H137214   0.091   1.765   8.367 -2.0929  0.9901  1.6201
 5193TIP3    H237215   0.176   1.886   8.398  1.7553 -0.8210 -0.9440
 5194TIP3   OH237216   3.453   4.150   1.678  0.2951  0.2762  0.1769
 5194TIP3    H137217   3.500   4.078   1.721 -0.2854  0.2015  0.6915
 5194TIP3    H237218   3.492   4.229   1.714  0.8794  0.2335 -0.3304
 5195TIP3   OH237219   3.757   4.211   1.864  0.3903  0.0450 -0.2939
 5195TIP3    H137220   3.773   4.178   1.952  0.7308 -0.1516 -0.4298
 5195TIP3    H237221   3.700   4.146   1.824 -0.3075  0.4609 -0.0030
 5196TIP3   OH237222   6.263   4.614   7.942  0.2228 -0.4389  0.0657
 5196TIP3    H137223   6.192   4.572   7.991 -0.3160  0.5368  0.1454
 5196TIP3    H237224   6.259   4.575   7.855  0.9174 -1.8851  0.6568
 5197TIP3   OH237225   1.792   1.242   1.474 -0.2061 -0.2136  0.0837
 5197TIP3    H137226   1.784   1.203   1.387  1.8570 -0.6945  0.0723
 5197TIP3    H237227   1.773   1.170   1.535 -0.0551 -0.2841  0.0464
 5198TIP3   OH237228   5.344   1.921   0.569  0.0184  0.5500  0.0414
 5198TIP3    H137229   5.313   1.863   0.638  1.9612  0.3889  0.8152
 5198TIP3    H237230   5.439   1.919   0.575  0.1933  2.3335 -1.1481
 5199TIP3   OH237231   0.558   4.679   1.283 -0.2514 -0.1077 -0.2876
 5199TIP3    H137232   0.601   4.714   1.205 -1.3294  0.8125 -0.4991
 5199TIP3    H237233   0.588   4.734   1.355  2.1721 -2.0656  0.3332
 5200TIP3   OH237234   1.795   0.028   8.363  0.0999 -0.3654 -0.1641
 5200TIP3    H137235   1.835  -0.006   8.283 -0.3143 -1.5204  0.1137
 5200TIP3    H237236   1.866   0.031   8.426  0.2064 -0.3899 -0.2822
 5201TIP3   OH237237   0.827   3.004   7.190  0.5823 -0.2648 -0.5249
 5201TIP3    H137238   0.758   2.941   7.171 -0.9532  0.8130  1.1672
 5201TIP3    H237239   0.908   2.954   7.180 -0.5236 -2.2381 -0.2257
 5202TIP3   OH237240   3.256   2.019   2.030 -0.6026 -0.0500 -0.0137
 5202TIP3    H137241   3.216   2.074   2.097 -0.3990 -1.1950  1.0980
 5202TIP3    H237242   3.182   1.975   1.987 -0.7432  0.8035 -0.6762
 5203TIP3   OH237243   2.622   5.555   0.914  0.3692 -0.2313  0.4851
 5203TIP3    H137244   2.709   5.591   0.928 -0.5366  2.1185  0.5587
 5203TIP3    H237245   2.633   5.494   0.841  2.6585 -2.6833  2.6484
 5204TIP3   OH237246   1.127   4.979   8.851  0.0598  0.4335  0.1713
 5204TIP3    H137247   1.217   5.008   8.834  0.4397 -2.0574 -3.1814
 5204TIP3    H237248   1.074   5.058   8.842  1.6484  1.4507 -0.9451
 5205TIP3   OH237249   3.031   5.969   2.292 -0.0312  0.3572  0.1608
 5205TIP3    H137250   3.113   5.918   2.297  0.1989  0.7546  0.4662
 5205TIP3    H237251   3.041   6.036   2.359 -0.2188  0.9800 -0.4225
 5206TIP3   OH237252   3.839   1.891   1.326  0.2146  0.1406  0.4291
 5206TIP3    H137253   3.836   1.985   1.313 -2.1772  0.4547  2.5107
 5206TIP3    H237254   3.785   1.875   1.403 -0.5599 -3.0738 -0.6064
 5207TIP3   OH237255   6.489   2.602   7.864  0.0397  0.3415 -0.0307
 5207TIP3    H137256   6.514   2.605   7.772 -1.2763  1.3622 -0.3934
 5207TIP3    H237257   6.460   2.512   7.878  0.4321  0.1270 -0.5634
 5208TIP3   OH237258   2.660   6.458   0.649  0.4476  0.6260  0.2563
 5208TIP3    H137259   2.750   6.476   0.676  0.9185 -1.5680  0.2998
 5208TIP3    H237260   2.661   6.469   0.554  1.7129 -2.7260 -0.2267
 5209TIP3   OH237261   4.648   1.552   2.874  0.0534  0.2801 -0.0339
 5209TIP3    H137262   4.717   1.489   2.856 -0.1416 -0.1112  0.5652
 5209TIP3    H237263   4.661   1.577   2.965 -3.4545 -3.5308  1.8505
 5210TIP3   OH237264   6.640   1.560   1.793  0.5301 -0.2290  0.0893
 5210TIP3    H137265   6.729   1.536   1.768  0.6715  1.0999 -0.7915
 5210TIP3    H237266   6.626   1.646   1.752 -1.5144 -0.8720 -0.6976
 5211TIP3   OH237267   2.669   5.159   8.102 -0.5309 -0.1024 -0.6256
 5211TIP3    H137268   2.622   5.235   8.069 -0.2161  0.4012  0.0346
 5211TIP3    H237269   2.641   5.086   8.047 -1.5905  0.3033 -0.6340
 5212TIP3   OH237270   2.912   2.553   0.428  0.4471  0.1890  0.4547
 5212TIP3    H137271   2.886   2.474   0.380 -0.9048  0.0460  1.3713
 5212TIP3    H237272   2.925   2.619   0.360 -0.7545 -0.1917 -0.1603
 5213TIP3   OH237273   3.078   3.982   1.332 -0.1300  0.1569 -0.0143
 5213TIP3    H137274   3.146   3.992   1.399 -1.5050  0.1262  1.4395
 5213TIP3    H237275   3.109   4.036   1.259 -0.2200  3.0886  1.9469
 5214TIP3   OH237276   3.199   2.990   1.487  0.3769 -0.1530  0.1183
 5214TIP3    H137277   3.126   2.954   1.436 -0.0607  0.2384  0.4629
 5214TIP3    H237278   3.205   3.081   1.458 -1.0378  0.6048  2.0230
 5215TIP3   OH237279   4.412   1.209   7.989  0.2317  0.1104  0.5355
 5215TIP3    H137280   4.431   1.242   7.902 -0.4096  2.0586  1.0922
 5215TIP3    H237281   4.492   1.225   8.039  0.6320 -1.0885  0.3058
 5216TIP3   OH237282   1.441   4.571   8.013  0.5897  0.0074 -0.3692
 5216TIP3    H137283   1.495   4.510   8.063  0.2098 -0.8728 -0.9985
 5216TIP3    H237284   1.491   4.586   7.932  0.4706  0.1643 -0.4152
 5217TIP3   OH237285   3.811   3.016   2.590 -0.7852  0.3502 -0.6633
 5217TIP3    H137286   3.854   3.009   2.675  1.5679  2.3348 -1.5687
 5217TIP3    H237287   3.784   2.927   2.569  1.1736 -0.6720  0.8855
 5218TIP3   OH237288   6.444   1.878   8.657 -0.0669  0.1307 -0.3607
 5218TIP3    H137289   6.367   1.902   8.709 -0.5490 -2.0611  0.0298
 5218TIP3    H237290   6.518   1.892   8.715 -0.2260  1.5030 -0.4681
 5219TIP3   OH237291   3.058   1.189   0.604  0.6288 -0.6783 -0.1640
 5219TIP3    H137292   2.999   1.252   0.562  0.3481 -0.6943  0.2067
 5219TIP3    H237293   3.000   1.125   0.644  0.9217 -2.2575 -2.1290
 5220TIP3   OH237294   0.464   6.224   2.781  0.6376  0.0020  0.1631
 5220TIP3    H137295   0.397   6.200   2.717  2.1997 -1.4567 -1.0266
 5220TIP3    H237296   0.536   6.259   2.727  1.8779 -0.9868  1.1216
 5221TIP3   OH237297   6.683   3.118   0.324  0.2091  0.7980  0.2532
 5221TIP3    H137298   6.719   3.030   0.335 -0.2383  0.4232 -1.0332
 5221TIP3    H237299   6.636   3.135   0.405 -0.3308 -0.4767  0.2414
 5222TIP3   OH237300   5.518   2.169   0.310  0.8053  0.0909 -0.0851
 5222TIP3    H137301   5.485   2.080   0.317  0.0168  0.4047  0.2559
 5222TIP3    H237302   5.533   2.197   0.400 -1.3651  1.1761  0.0049
 5223TIP3   OH237303   4.918   3.553   7.241 -0.0728 -0.3182  0.3417
 5223TIP3    H137304   4.895   3.479   7.185 -1.5087 -0.1990  0.7375
 5223TIP3    H237305   4.896   3.630   7.189  0.7324 -0.1726  0.2099
 5224TIP3   OH237306   1.307   6.386   1.288  0.5916  0.9029 -0.2638
 5224TIP3    H137307   1.312   6.359   1.196  3.1571 -0.6960  0.2436
 5224TIP3    H237308   1.233   6.337   1.323  0.5151  0.3602 -1.1478
 5225TIP3   OH237309   4.962   1.348   2.448  0.0174 -0.0197 -0.0239
 5225TIP3    H137310   4.942   1.438   2.473  0.4191  0.8186 -2.4629
 5225TIP3    H237311   4.884   1.298   2.476 -0.7343  1.2756  0.2850
 5226TIP3   OH237312   4.717   4.984   0.906  0.2331 -0.3046 -0.2106
 5226TIP3    H137313   4.797   4.969   0.957 -0.3198 -0.7440  0.5604
 5226TIP3    H237314   4.651   4.930   0.950 -0.7982  1.0342 -0.0479
 5227TIP3   OH237315   4.088   5.220   2.118 -0.1165 -0.6248 -0.5495
 5227TIP3    H137316   4.152   5.289   2.102 -0.2149 -0.2010  0.7750
 5227TIP3    H237317   4.135   5.155   2.171 -0.7599 -0.3053  0.4442
 5228TIP3   OH237318   2.776   2.185   8.573  0.4817  0.2454 -0.4888
 5228TIP3    H137319   2.781   2.273   8.535  1.5333  1.6075  2.5201
 5228TIP3    H237320   2.702   2.189   8.633  0.5463 -0.9379 -0.3036
 5229TIP3   OH237321   3.072   1.001   8.627 -0.0188  0.1342  0.7988
 5229TIP3    H137322   2.981   0.990   8.655 -1.0468  0.8297 -2.0045
 5229TIP3    H237323   3.096   1.089   8.657 -1.0245  0.8012 -0.2889
 5230TIP3   OH237324   2.897   0.961   0.678  0.0526 -0.4124  0.2640
 5230TIP3    H137325   2.811   0.983   0.641 -2.0229 -3.1280  2.9451
 5230TIP3    H237326   2.946   0.926   0.604 -0.9886  1.3947 -1.3890
 5231TIP3   OH237327   5.909   1.911   0.569 -0.6102 -0.1016  0.3671
 5231TIP3    H137328   5.979   1.972   0.546 -0.9087 -0.1812 -0.8025
 5231TIP3    H237329   5.852   1.909   0.492 -1.0318 -1.2544  0.6872
 5232TIP3   OH237330   3.348   2.935   1.922  0.2290  0.1258 -0.6559
 5232TIP3    H137331   3.268   2.882   1.922  0.1866  0.1881 -0.7489
 5232TIP3    H237332   3.347   2.980   2.006  1.2551 -1.4812  0.2514
 5233TIP3   OH237333   3.656   3.298   8.611 -0.4508 -0.4622  0.7360
 5233TIP3    H137334   3.714   3.273   8.539 -0.1686  1.7017  0.1494
 5233TIP3    H237335   3.568   3.283   8.578 -0.3031 -0.1782  0.2103
 5234TIP3   OH237336   1.321   5.520   8.420 -0.1727  0.1719  0.0360
 5234TIP3    H137337   1.334   5.508   8.514  0.3805 -0.1060 -0.0707
 5234TIP3    H237338   1.336   5.433   8.383  2.6103  0.8356 -0.6226
 5235TIP3   OH237339   6.041   1.003   8.470  0.4787  0.2347 -0.0366
 5235TIP3    H137340   6.124   0.963   8.494  0.4333 -1.1439 -1.9184
 5235TIP3    H237341   5.979   0.930   8.464 -0.4155  0.9921 -0.4288
 5236TIP3   OH237342   3.699   4.822   9.022  0.0148  0.3253 -0.0572
 5236TIP3    H137343   3.710   4.861   8.935  2.4100  2.3317  1.0099
 5236TIP3    H237344   3.689   4.898   9.080  1.2086 -0.8219  1.7258
 5237TIP3   OH237345   5.353   3.811   0.756  0.6824  0.5861 -0.7350
 5237TIP3    H137346   5.427   3.756   0.729  2.0717  2.6662 -1.3846
 5237TIP3    H237347   5.301   3.754   0.813  1.9165 -1.4478 -1.5144
 5238TIP3   OH237348   4.405   0.871   2.046 -0.1989 -0.2984  0.2834
 5238TIP3    H137349   4.401   0.915   2.131  1.0174  1.0389 -0.3129
 5238TIP3    H237350   4.366   0.934   1.985  0.9526 -0.3155 -0.4824
 5239TIP3   OH237351   5.685   0.589   8.520  0.2136 -0.3480  0.7249
 5239TIP3    H137352   5.619   0.580   8.590  0.3196 -0.6600  0.7852
 5239TIP3    H237353   5.640   0.639   8.452  0.7017  1.6638  1.7965
 5240TIP3   OH237354   2.499   3.276   7.533  0.2583  0.1252  0.1017
 5240TIP3    H137355   2.572   3.218   7.511  0.9387  0.7121  0.7358
 5240TIP3    H237356   2.484   3.327   7.453 -0.2546 -0.8049 -0.4138
 5241TIP3   OH237357   0.498   3.954   1.492 -0.0971  0.4750 -0.4462
 5241TIP3    H137358   0.498   4.005   1.573 -0.8360 -0.2403  0.0223
 5241TIP3    H237359   0.574   3.896   1.499 -1.0466 -0.7113  0.4945
 5242TIP3   OH237360   5.439   0.037   1.450  0.3839  0.2049 -0.4106
 5242TIP3    H137361   5.451  -0.055   1.474  3.0310  0.4553 -0.4886
 5242TIP3    H237362   5.355   0.039   1.403 -0.1275 -1.9897  0.2986
 5243TIP3   OH237363   1.665   0.261   0.324  0.1835  0.4676  0.1429
 5243TIP3    H137364   1.747   0.263   0.276  0.6030  0.2336  0.8357
 5243TIP3    H237365   1.676   0.323   0.395  0.1557 -0.3153  0.8510
 5244TIP3   OH237366   2.388   2.426   1.918 -0.0382 -0.1908 -0.4256
 5244TIP3    H137367   2.422   2.345   1.878  0.7061  0.1881 -0.5897
 5244TIP3    H237368   2.461   2.458   1.971 -0.0778  0.7415 -0.9212
 5245TIP3   OH237369   3.814   2.738   7.959 -0.0362 -1.1215 -0.1061
 5245TIP3    H137370   3.897   2.701   7.929  0.2704  0.2539 -1.0620
 5245TIP3    H237371   3.772   2.771   7.880 -0.8315 -0.4988  0.5490
 5246TIP3   OH237372   5.419   1.006   0.112  0.4108  0.5367  0.1497
 5246TIP3    H137373   5.507   1.034   0.086  0.2348  0.7046 -0.2761
 5246TIP3    H237374   5.360   1.056   0.055  0.0666 -0.2332 -0.1787
 5247TIP3   OH237375   3.226   2.689   8.966 -0.7575 -0.0286 -0.5082
 5247TIP3    H137376   3.214   2.751   8.895  0.3511  1.1697  0.3021
 5247TIP3    H237377   3.216   2.603   8.925 -2.9864  0.6523 -1.5248
 5248TIP3   OH237378   4.640   3.501   7.527  0.3410  0.1301  0.1399
 5248TIP3    H137379   4.633   3.593   7.555 -1.3210  0.5840 -1.5528
 5248TIP3    H237380   4.592   3.452   7.593 -2.2324  0.9954 -0.9737
 5249TIP3   OH237381   6.135   6.375   3.031  0.2460  0.3250 -0.5530
 5249TIP3    H137382   6.091   6.456   3.005  2.3246  1.3079 -1.2719
 5249TIP3    H237383   6.229   6.395   3.022  0.8317 -2.3342 -1.3427
 5250TIP3   OH237384   2.163   4.751   8.268  0.1069 -0.0995  0.2964
 5250TIP3    H137385   2.193   4.688   8.203 -0.6620  1.3683 -1.6013
 5250TIP3    H237386   2.080   4.784   8.232 -1.3810 -0.6142  3.0199
 5251TIP3   OH237387   4.431   4.214   1.396  0.3200  0.1687  0.0534
 5251TIP3    H137388   4.511   4.172   1.426  1.2654  0.6093 -1.7638
 5251TIP3    H237389   4.440   4.306   1.422 -0.4896 -0.1353  1.5302
 5252TIP3   OH237390   5.403   4.271   1.454  0.3787 -0.6112 -0.0423
 5252TIP3    H137391   5.417   4.360   1.486  0.1720 -0.4556 -0.3762
 5252TIP3    H237392   5.327   4.239   1.503  0.1229 -0.4086 -0.3011
 5253TIP3   OH237393   3.883   2.493   0.955  0.5125 -0.1697  0.1198
 5253TIP3    H137394   3.902   2.575   0.909  0.9747 -0.2525  0.1623
 5253TIP3    H237395   3.968   2.453   0.970  0.4411  0.2060  1.6827
 5254TIP3   OH237396   2.095   2.411   8.277 -0.5942  0.0287  0.5344
 5254TIP3    H137397   2.181   2.370   8.282 -0.2069  0.7022 -0.4897
 5254TIP3    H237398   2.035   2.342   8.307  0.3103 -0.3223  1.6383
 5255TIP3   OH237399   2.446   3.964   1.204  0.7814  0.0943 -0.1795
 5255TIP3    H137400   2.351   3.967   1.190  0.3108  0.9995  2.5245
 5255TIP3    H237401   2.475   3.887   1.157 -0.8396  1.1850 -3.2106
 5256TIP3   OH237402   4.341   4.451   1.591  0.3784 -0.4015 -0.1089
 5256TIP3    H137403   4.329   4.373   1.645 -1.5495  0.2496  0.4828
 5256TIP3    H237404   4.399   4.507   1.642 -0.5184 -0.2750  0.8065
 5257TIP3   OH237405   4.758   5.459   1.987  0.3039  0.0980 -0.4652
 5257TIP3    H137406   4.697   5.386   1.999  0.3716  0.2277  0.7442
 5257TIP3    H237407   4.704   5.529   1.951 -0.3155  0.2711  0.7595
 5258TIP3   OH237408   0.094   0.386   8.783  0.3099  0.0138  0.3220
 5258TIP3    H137409   0.160   0.449   8.810  0.3409  0.6408 -1.1813
 5258TIP3    H237410   0.142   0.304   8.772  0.8631  0.4734 -0.7969
 5259TIP3   OH237411   2.812   5.830   8.334 -0.9113 -0.5028 -0.4686
 5259TIP3    H137412   2.900   5.797   8.317 -0.8847 -1.2028  0.8841
 5259TIP3    H237413   2.825   5.920   8.363 -0.7218 -0.3217 -1.1038
 5260TIP3   OH237414   5.702   3.939   3.149 -0.0987  0.1940 -0.4707
 5260TIP3    H137415   5.634   3.972   3.208 -0.7537 -0.9789 -0.5267
 5260TIP3    H237416   5.784   3.949   3.198 -0.4979  0.2594  0.2040
 5261TIP3   OH237417   1.866   0.691   1.173  0.2528  0.4838 -0.4052
 5261TIP3    H137418   1.795   0.753   1.188 -1.0487 -0.6096 -1.6905
 5261TIP3    H237419   1.838   0.612   1.219 -0.2136 -0.4933 -2.2713
 5262TIP3   OH237420   6.441   0.495   2.140  0.1989 -0.6379  0.4456
 5262TIP3    H137421   6.424   0.546   2.060 -0.9644 -2.0975 -0.2911
 5262TIP3    H237422   6.482   0.557   2.200 -2.2119  1.4986  0.0423
 5263TIP3   OH237423   2.951   4.147   7.410 -0.0092  0.4014 -0.2116
 5263TIP3    H137424   3.005   4.133   7.332 -0.1719  0.4515 -0.3352
 5263TIP3    H237425   2.881   4.205   7.380  1.5860  2.9587  0.6904
 5264TIP3   OH237426   1.695   3.845   8.751  0.0956  0.1274  0.1285
 5264TIP3    H137427   1.755   3.917   8.766  0.1375 -0.1484  1.4915
 5264TIP3    H237428   1.608   3.882   8.770  0.1031 -0.1299  0.6855
 5265TIP3   OH237429   4.504   5.514   8.385  0.0915 -0.9402  0.0107
 5265TIP3    H137430   4.537   5.555   8.464  0.4698 -2.1627  0.5108
 5265TIP3    H237431   4.582   5.479   8.342  0.0941  0.9583 -1.6958
 5266TIP3   OH237432   1.197   3.024   2.856 -0.1414  0.3971  0.0225
 5266TIP3    H137433   1.217   2.973   2.934 -0.1355  2.5105  1.5044
 5266TIP3    H237434   1.278   3.024   2.805 -0.4104 -1.7367 -0.4714
 5267TIP3   OH237435   6.644   1.005   0.680  0.0957  0.6406 -0.7306
 5267TIP3    H137436   6.558   1.029   0.646 -0.3440 -0.6390 -0.5795
 5267TIP3    H237437   6.705   1.068   0.641 -0.8403  1.2391 -1.2378
 5268TIP3   OH237438   0.003   0.579   1.027 -0.6029 -0.6218  0.2972
 5268TIP3    H137439  -0.053   0.605   0.954 -2.1239  0.0820  1.6529
 5268TIP3    H237440   0.089   0.565   0.988 -1.3809 -0.2781 -1.6162
 5269TIP3   OH237441   5.724   2.236   0.083  0.2467  0.8722 -0.3326
 5269TIP3    H137442   5.649   2.177   0.081  1.4750 -0.7373 -0.8950
 5269TIP3    H237443   5.686   2.323   0.096 -1.7069  0.1290 -0.7668
 5270TIP3   OH237444   2.699   4.131   7.993 -0.2101 -0.0388  0.4647
 5270TIP3    H137445   2.733   4.145   8.082  0.0119  2.8791  0.0065
 5270TIP3    H237446   2.765   4.170   7.936 -1.4986  0.3187 -0.8344
 5271TIP3   OH237447   5.895   5.243   2.339  0.6406 -0.6435 -0.1267
 5271TIP3    H137448   5.948   5.282   2.409  0.2946  0.3598 -0.4156
 5271TIP3    H237449   5.956   5.186   2.292  0.7326 -1.8659  1.3796
 5272TIP3   OH237450   5.059   5.104   0.599  0.0913 -0.0219  0.1842
 5272TIP3    H137451   5.105   5.184   0.576  0.1106 -0.6122 -2.0299
 5272TIP3    H237452   5.034   5.117   0.690  0.2978  2.3850 -0.0276
 5273TIP3   OH237453   5.946   5.129   0.843  0.3595  0.6707  0.8579
 5273TIP3    H137454   5.927   5.039   0.816  0.9379  1.1785 -1.4777
 5273TIP3    H237455   5.881   5.182   0.797 -0.1322  1.4769  2.4074
 5274TIP3   OH237456   1.450   4.401   2.254 -0.2747  0.9331  0.4454
 5274TIP3    H137457   1.535   4.363   2.278  0.0534  1.8878  0.8400
 5274TIP3    H237458   1.393   4.382   2.329 -0.1439  1.1197  0.5930
 5275TIP3   OH237459   5.968   2.848   3.289 -0.2498 -0.1764 -0.5249
 5275TIP3    H137460   5.910   2.812   3.357  1.0722  0.0307  0.7518
 5275TIP3    H237461   5.981   2.775   3.228  0.2661 -1.0711  0.6089
 5276TIP3   OH237462   2.309   3.400   2.624 -0.6664  0.0601 -0.0061
 5276TIP3    H137463   2.363   3.434   2.695 -0.5835  0.4323 -0.2443
 5276TIP3    H237464   2.223   3.386   2.664 -0.1725 -1.4617  0.6280
 5277TIP3   OH237465   6.267   0.786   2.794 -0.9790 -0.0010 -0.1882
 5277TIP3    H137466   6.321   0.848   2.744 -0.3480 -0.9291 -0.6995
 5277TIP3    H237467   6.249   0.830   2.876 -1.9655  1.5509 -1.1853
 5278TIP3   OH237468   2.737   4.937   7.276  0.1675 -0.2873  0.1598
 5278TIP3    H137469   2.775   5.001   7.216  0.5848 -0.8094 -0.1389
 5278TIP3    H237470   2.807   4.918   7.338 -0.8324  1.6867  2.0328
 5279TIP3   OH237471   0.257   3.920   7.751  0.1506 -0.1226  0.8373
 5279TIP3    H137472   0.242   3.896   7.843 -1.2728 -0.8048  0.4648
 5279TIP3    H237473   0.221   3.847   7.701 -2.2302  1.6563 -0.3145
 5280TIP3   OH237474   1.381   2.317   2.773  0.6029 -0.2002  0.0428
 5280TIP3    H137475   1.445   2.376   2.812  0.6219 -1.1242  1.4665
 5280TIP3    H237476   1.378   2.242   2.832 -2.2704  0.0745  0.4134
 5281TIP3   OH237477   6.582   6.008   7.409 -0.0383 -0.7040 -0.7004
 5281TIP3    H137478   6.511   5.995   7.346  0.2855 -2.3115 -0.7663
 5281TIP3    H237479   6.645   6.063   7.363 -0.1752 -1.2025 -1.5014
 5282TIP3   OH237480   3.692   0.105   7.430 -0.5233  0.3723  0.2783
 5282TIP3    H137481   3.724   0.121   7.341 -0.2708  1.3290  0.5276
 5282TIP3    H237482   3.674   0.192   7.465 -1.0596 -0.0198  1.0094
 5283TIP3   OH237483   0.483   1.527   3.520 -0.2272  0.0902  0.1769
 5283TIP3    H137484   0.547   1.473   3.472  1.4697 -1.3525  3.6816
 5283TIP3    H237485   0.409   1.468   3.535 -0.0382 -0.0032  0.7361
 5284TIP3   OH237486   0.257   2.084   1.970  0.0887  0.0673  0.2241
 5284TIP3    H137487   0.255   2.176   1.946  0.3123  0.1558  0.5468
 5284TIP3    H237488   0.350   2.061   1.970 -0.0362 -0.5368 -1.2949
 5285TIP3   OH237489   1.775   4.128   8.534 -0.3068 -0.4108 -0.6276
 5285TIP3    H137490   1.786   4.216   8.498  1.3662 -0.8393 -1.2784
 5285TIP3    H237491   1.699   4.093   8.488 -0.6305  0.4863 -0.7917
 5286TIP3   OH237492   1.758   5.443   8.130  0.2021 -0.0969 -0.0316
 5286TIP3    H137493   1.820   5.412   8.064 -0.4783 -0.7865 -0.3606
 5286TIP3    H237494   1.679   5.463   8.081 -0.0023  0.2899  0.4543
 5287TIP3   OH237495   2.330   0.352   8.279  0.2791  0.0648  0.8098
 5287TIP3    H137496   2.390   0.371   8.351  2.6212 -0.0647 -0.9694
 5287TIP3    H237497   2.331   0.432   8.226 -0.1588 -0.3910  0.1063
 5288TIP3   OH237498   0.103   0.602   1.672  0.2239  0.2211 -0.5335
 5288TIP3    H137499   0.118   0.513   1.702 -0.6136 -1.0114 -3.4003
 5288TIP3    H237500   0.032   0.635   1.727  2.0871  0.1083  2.1472
 5289TIP3   OH237501   1.661   5.868   0.976 -0.0600  0.5343 -0.2230
 5289TIP3    H137502   1.584   5.815   0.993 -1.1976  1.6157 -1.6772
 5289TIP3    H237503   1.672   5.922   1.054 -1.2058  0.8301 -0.2527
 5290TIP3   OH237504   3.119   1.746   7.663  0.4926 -0.1435 -0.3120
 5290TIP3    H137505   3.161   1.813   7.608  0.1171 -0.7010 -1.3004
 5290TIP3    H237506   3.123   1.783   7.752 -1.4134  2.0882 -1.0459
 5291TIP3   OH237507   1.260   4.317   2.050 -0.5771  0.0568 -0.9569
 5291TIP3    H137508   1.212   4.269   2.118 -0.6866  0.4187 -0.7767
 5291TIP3    H237509   1.350   4.320   2.082 -0.3908 -0.7703 -1.3755
 5292TIP3   OH237510   4.707   3.596   8.495 -0.2130  0.3272 -0.4244
 5292TIP3    H137511   4.686   3.524   8.435  0.5673 -1.2132  1.0728
 5292TIP3    H237512   4.769   3.650   8.446 -0.6874 -0.0686 -1.5211
 5293TIP3   OH237513   2.301   3.499   1.666  0.0241  0.1911  0.3317
 5293TIP3    H137514   2.208   3.475   1.669 -0.5659  2.0572 -1.1009
 5293TIP3    H237515   2.317   3.543   1.749 -0.6237  0.6364  0.2276
 5294TIP3   OH237516   5.855   0.568   1.759  0.4651 -0.0536 -0.8253
 5294TIP3    H137517   5.840   0.490   1.813 -2.4631  1.4398  0.7707
 5294TIP3    H237518   5.835   0.539   1.670 -0.4799 -1.2041 -0.2779
 5295TIP3   OH237519   3.320   4.119   3.149  0.4123  0.0549  0.5454
 5295TIP3    H137520   3.377   4.148   3.078  0.9364  0.2589  1.0391
 5295TIP3    H237521   3.317   4.024   3.141  1.5664 -0.0431  1.0532
 5296TIP3   OH237522   5.771   2.925   1.759  0.6861 -0.5612  0.3581
 5296TIP3    H137523   5.707   2.984   1.719  0.5257 -0.2560  1.0497
 5296TIP3    H237524   5.856   2.962   1.736  0.5929 -0.3612  0.3328
 5297TIP3   OH237525   5.067   6.542   2.439 -0.0658 -0.1631  0.1535
 5297TIP3    H137526   5.102   6.583   2.360 -0.5712 -0.9568 -0.4968
 5297TIP3    H237527   4.972   6.552   2.431 -0.0913  0.4225  1.0419
 5298TIP3   OH237528   3.567   0.741   8.936 -0.2814 -0.0049  0.0824
 5298TIP3    H137529   3.621   0.721   9.012  0.1128  0.1042 -0.1680
 5298TIP3    H237530   3.538   0.831   8.950 -0.6268 -0.1556  0.3500
 5299TIP3   OH237531   6.583   5.900   0.244 -0.0250  0.2642  0.0597
 5299TIP3    H137532   6.575   5.846   0.166 -1.2175  0.3892  0.0763
 5299TIP3    H237533   6.598   5.838   0.315 -0.4509  0.0291 -0.0553
 5300TIP3   OH237534   4.245   0.110   8.408  0.1105 -0.0095  0.0415
 5300TIP3    H137535   4.284   0.186   8.451 -0.3768  0.9208 -1.1279
 5300TIP3    H237536   4.297   0.036   8.440  0.2853  0.7257  1.5812
 5301TIP3   OH237537   4.567   3.134   0.457 -0.6592  0.0257 -0.0696
 5301TIP3    H137538   4.499   3.113   0.394  0.3592  0.7002 -1.4492
 5301TIP3    H237539   4.604   3.049   0.481 -0.2907 -0.1756 -1.2887
 5302TIP3   OH237540   5.341   6.082   1.231  0.2800 -0.0461  0.0584
 5302TIP3    H137541   5.407   6.052   1.293 -0.8758 -0.9044  0.9254
 5302TIP3    H237542   5.347   6.020   1.158  0.1138 -0.4178  0.3565
 5303TIP3   OH237543   4.459   1.181   1.730  0.4768 -0.1737  0.1800
 5303TIP3    H137544   4.428   1.195   1.820 -3.1516  3.8645 -1.3397
 5303TIP3    H237545   4.394   1.121   1.692  1.7437 -1.5028  0.0055
 5304TIP3   OH237546   5.061   1.483   1.394  0.1270 -0.2560  0.8535
 5304TIP3    H137547   5.091   1.393   1.385  0.5290 -0.0058 -0.5869
 5304TIP3    H237548   5.141   1.535   1.387 -0.4266  0.4219 -2.8657
 5305TIP3   OH237549   2.805   2.915   0.467 -0.5847 -0.8063 -0.1918
 5305TIP3    H137550   2.771   2.999   0.498  2.7837  0.4229  0.6694
 5305TIP3    H237551   2.729   2.858   0.462 -2.5525  1.3374  2.4505
 5306TIP3   OH237552   1.650   5.400   1.167  0.1129  0.0376  0.5942
 5306TIP3    H137553   1.712   5.328   1.173  0.7265  0.5848  1.0943
 5306TIP3    H237554   1.703   5.474   1.137 -0.1580  0.6470  1.5583
 5307TIP3   OH237555   1.657   1.207   7.324 -0.1673 -0.0311 -0.4296
 5307TIP3    H137556   1.595   1.243   7.261  1.5348  2.6174 -0.7151
 5307TIP3    H237557   1.735   1.262   7.317  1.5793 -2.0746  1.2196
 5308TIP3   OH237558   5.530   1.458   1.403  0.5413 -0.0144 -0.0574
 5308TIP3    H137559   5.494   1.404   1.473  0.7245  0.7671  0.6532
 5308TIP3    H237560   5.624   1.442   1.407  0.4649 -0.6576 -0.7201
 5309TIP3   OH237561   0.845   5.588   7.375  0.2700 -0.0978  0.6876
 5309TIP3    H137562   0.820   5.496   7.385 -0.9536  0.3204  1.8045
 5309TIP3    H237563   0.768   5.637   7.403  1.4909  1.2658  1.8368
 5310TIP3   OH237564   6.670   1.239   1.109  0.0794  0.3491 -0.3331
 5310TIP3    H137565   6.698   1.215   1.021 -0.0125  3.8741 -1.4443
 5310TIP3    H237566   6.743   1.211   1.165  0.5533 -1.0969 -1.5830
 5311TIP3   OH237567   0.125   2.845   8.897 -0.0687 -0.6496  0.2037
 5311TIP3    H137568   0.148   2.806   8.982  0.1781 -1.3969 -0.1975
 5311TIP3    H237569   0.210   2.864   8.856 -0.1786  0.6315  0.5243
 5312TIP3   OH237570   2.494   6.256   0.792  0.2579  0.6301  0.2540
 5312TIP3    H137571   2.541   6.177   0.767 -0.4324  0.8080 -1.8097
 5312TIP3    H237572   2.536   6.326   0.741  0.1593  1.4236  1.2276
 5313TIP3   OH237573   2.671   6.339   2.991 -0.1334  0.3351 -0.7709
 5313TIP3    H137574   2.698   6.391   3.067  0.4880 -0.6554 -0.2966
 5313TIP3    H237575   2.602   6.282   3.025 -0.5372  0.5679 -1.1928
 5314TIP3   OH237576   5.396   5.074   2.500  0.0784 -0.5434  0.1110
 5314TIP3    H137577   5.450   5.122   2.564  1.5851 -1.3831 -0.4748
 5314TIP3    H237578   5.372   4.994   2.546 -0.4963 -0.2801  0.2831
 5315TIP3   OH237579   3.903   3.386   8.049 -0.0877  0.0757 -0.0877
 5315TIP3    H137580   3.927   3.478   8.041  0.4419 -0.1490 -1.2225
 5315TIP3    H237581   3.935   3.345   7.969  0.4860 -1.2744  0.7879
 5316TIP3   OH237582   1.262   5.856   8.148 -0.3061  0.0215 -0.4916
 5316TIP3    H137583   1.238   5.837   8.057  0.8676 -0.3306 -0.7449
 5316TIP3    H237584   1.312   5.937   8.144  1.0071 -0.7613 -0.3641
 5317TIP3   OH237585   2.125   4.142   2.723 -0.2856 -0.6176  0.0909
 5317TIP3    H137586   2.106   4.139   2.629  2.5570 -0.5213 -0.5795
 5317TIP3    H237587   2.065   4.208   2.757 -0.3232  0.4949 -1.9670
 5318TIP3   OH237588   4.207   2.395   2.271  0.0058 -0.3195 -0.0653
 5318TIP3    H137589   4.292   2.439   2.278 -0.3968  0.4266  0.2607
 5318TIP3    H237590   4.200   2.370   2.179 -0.1983  1.2283 -0.5022
 5319TIP3   OH237591   1.015   3.062   0.678 -0.5212  0.3670 -0.0702
 5319TIP3    H137592   1.040   3.133   0.619  0.7254  0.6853  0.8203
 5319TIP3    H237593   1.041   3.092   0.765 -1.3695 -0.5457  0.5202
 5320TIP3   OH237594   5.096   4.995   2.735 -0.2889  0.0964 -0.1331
 5320TIP3    H137595   5.006   4.978   2.762 -0.1843  0.2671  0.3262
 5320TIP3    H237596   5.116   4.925   2.673 -1.1651  0.7758 -1.2402
 5321TIP3   OH237597   6.183   4.419   7.084 -0.1317 -0.1127  0.0175
 5321TIP3    H137598   6.209   4.350   7.023  0.1074 -0.1229  0.1308
 5321TIP3    H237599   6.254   4.484   7.078 -0.4490  0.2182 -0.2381
 5322TIP3   OH237600   6.203   0.261   2.091  0.5743  0.3736 -0.2026
 5322TIP3    H137601   6.165   0.346   2.112 -0.3086  0.5181 -2.1502
 5322TIP3    H237602   6.212   0.217   2.176 -0.7049  1.6891  0.6606
 5323TIP3   OH237603   3.539   1.158   0.853 -0.1018 -0.0180  0.3005
 5323TIP3    H137604   3.452   1.126   0.828 -0.2721  0.7271 -0.0776
 5323TIP3    H237605   3.600   1.108   0.798 -0.2725 -0.6453  0.6697
 5324TIP3   OH237606   2.368   2.011   3.125 -0.2422 -0.4197  0.1856
 5324TIP3    H137607   2.372   1.916   3.130  2.6188 -0.3535  3.7893
 5324TIP3    H237608   2.292   2.030   3.070 -0.8548 -4.7196 -0.7512
 5325TIP3   OH237609   1.881   1.572   8.470  0.5688  0.1777  0.1751
 5325TIP3    H137610   1.948   1.557   8.403  0.2207  0.0456 -0.1480
 5325TIP3    H237611   1.862   1.484   8.505  0.0841  0.1278 -0.2050
 5326TIP3   OH237612   6.098   0.032   7.973  0.3194  0.7278 -0.0076
 5326TIP3    H137613   6.090  -0.011   7.888 -0.4733 -1.3746  1.0700
 5326TIP3    H237614   6.117  -0.039   8.035  0.4102  2.1314  1.6626
 5327TIP3   OH237615   1.481   3.490   2.281 -0.3043  0.5030 -0.1118
 5327TIP3    H137616   1.446   3.549   2.214  0.1209  1.2756  0.3238
 5327TIP3    H237617   1.544   3.435   2.234 -0.7597  0.3511 -0.5405
 5328TIP3   OH237618   5.087   4.383   8.704 -0.3700 -0.5472  0.0028
 5328TIP3    H137619   5.052   4.350   8.787 -0.8242 -1.3805 -0.5170
 5328TIP3    H237620   5.023   4.448   8.675 -0.5736 -0.7781 -0.0605
 5329TIP3   OH237621   4.473   3.196   0.048  0.1001 -0.4059 -0.6187
 5329TIP3    H137622   4.540   3.142   0.006  1.2410  0.4564  0.0175
 5329TIP3    H237623   4.428   3.137   0.109  1.1977 -0.7068 -0.0718
 5330TIP3   OH237624   3.417   6.061   0.863  0.0470  0.4608  0.0466
 5330TIP3    H137625   3.413   6.061   0.959 -0.0565  0.1966  0.0430
 5330TIP3    H237626   3.332   6.095   0.836  0.9486  2.9591  0.0704
 5331TIP3   OH237627   6.416   3.007   1.596  0.1364 -0.2153 -0.3225
 5331TIP3    H137628   6.475   3.072   1.635  0.0588  0.0780 -0.6923
 5331TIP3    H237629   6.446   2.924   1.632  0.1781  0.0325  0.2274
 5332TIP3   OH237630   4.669   2.834   8.523  0.2830 -0.0001  0.1633
 5332TIP3    H137631   4.639   2.810   8.611 -0.0699  0.1619  0.0898
 5332TIP3    H237632   4.592   2.822   8.468  0.5674 -0.3280 -0.1665
 5333TIP3   OH237633   3.811   3.669   7.427  0.6048  0.0386 -0.0995
 5333TIP3    H137634   3.873   3.708   7.488  1.3419 -1.5664  0.2271
 5333TIP3    H237635   3.739   3.639   7.482  0.2814  0.4717 -0.2834
 5334TIP3   OH237636   2.803   2.296   1.508 -0.1899  0.0814 -0.4182
 5334TIP3    H137637   2.885   2.333   1.540  0.7894 -2.0558 -0.2446
 5334TIP3    H237638   2.828   2.246   1.431 -1.1609 -1.2689  0.0982
 5335TIP3   OH237639   0.835   5.936   1.946 -0.0446  0.0637 -0.7336
 5335TIP3    H137640   0.794   5.867   1.894  0.8643 -1.7945  0.9096
 5335TIP3    H237641   0.921   5.950   1.904  0.2943 -0.7412 -0.3205
 5336TIP3   OH237642   5.429   3.740   1.081 -0.5279 -0.1058 -0.1044
 5336TIP3    H137643   5.381   3.700   1.008  0.1774  0.8284 -1.0898
 5336TIP3    H237644   5.496   3.794   1.040  0.1826  0.0818  1.2465
 5337TIP3   OH237645   3.282   0.724   8.221  0.3540 -0.2435 -0.2161
 5337TIP3    H137646   3.255   0.730   8.313  0.9571 -0.5266 -0.0138
 5337TIP3    H237647   3.377   0.718   8.225  0.3185 -1.6449 -0.7712
 5338TIP3   OH237648   0.168   4.440   8.664  0.7312 -0.0215  0.0407
 5338TIP3    H137649   0.182   4.371   8.599  1.7198 -1.2874  1.5119
 5338TIP3    H237650   0.248   4.441   8.716 -0.5202 -0.0371  2.0846
 5339TIP3   OH237651   3.923   3.381   2.466 -0.5394 -0.0634  0.9390
 5339TIP3    H137652   3.900   3.296   2.429  2.2593 -0.4478 -0.1657
 5339TIP3    H237653   3.839   3.422   2.487 -2.0045 -2.5279  0.2578
 5340TIP3   OH237654   6.088   5.183   1.653 -0.1348 -0.0659 -0.2832
 5340TIP3    H137655   6.126   5.202   1.739 -0.2724 -0.9471 -0.0196
 5340TIP3    H237656   6.057   5.268   1.622 -0.4168  0.2073  0.6999
 5341TIP3   OH237657   1.129   3.037   8.593  0.0937 -0.1270 -0.6438
 5341TIP3    H137658   1.054   3.060   8.648  2.9080  3.0630  2.4166
 5341TIP3    H237659   1.167   2.960   8.634 -0.4938 -0.6639 -1.1026
 5342TIP3   OH237660   2.010   1.662   9.174  0.0716  0.5236 -0.2133
 5342TIP3    H137661   1.985   1.575   9.144  0.9063 -0.0695  0.7662
 5342TIP3    H237662   2.033   1.650   9.266  2.5201  1.2904 -0.6614
 5343TIP3   OH237663   0.231   2.661   7.740  0.0037  0.5951  0.1149
 5343TIP3    H137664   0.248   2.567   7.731  0.3278  0.6953 -0.3511
 5343TIP3    H237665   0.153   2.676   7.686 -0.1725  0.5590  0.3568
 5344TIP3   OH237666   4.570   5.684   9.154  0.1855 -0.7664  0.2924
 5344TIP3    H137667   4.553   5.628   9.079 -2.0878  1.0780 -0.7033
 5344TIP3    H237668   4.644   5.739   9.127 -0.7321  0.0101 -0.7391
 5345TIP3   OH237669   4.906   3.435   7.477 -0.1476 -0.4599  0.1982
 5345TIP3    H137670   4.814   3.458   7.491 -0.6466 -0.0411 -2.9575
 5345TIP3    H237671   4.927   3.474   7.392  1.7906 -3.7136 -0.9846
 5346TIP3   OH237672   2.931   0.484   9.207  0.5443  0.0357  0.0660
 5346TIP3    H137673   3.014   0.463   9.250 -0.0076  1.7039  2.1294
 5346TIP3    H237674   2.868   0.425   9.248  0.6879 -1.4445 -1.7148
 5347TIP3   OH237675   2.198   3.976   2.107 -0.2711 -0.1041  0.4245
 5347TIP3    H137676   2.184   3.911   2.175 -0.4016  0.7173  1.2027
 5347TIP3    H237677   2.120   4.032   2.111 -0.6401 -0.4935 -0.9180
 5348TIP3   OH237678   0.180   4.627   0.673 -0.1864 -0.1802  0.1896
 5348TIP3    H137679   0.244   4.694   0.647  1.1624 -1.2322  0.6482
 5348TIP3    H237680   0.229   4.545   0.668 -1.2564 -0.9311  1.4616
 5349TIP3   OH237681   4.545   1.523   0.980 -0.3732  0.2420 -0.2402
 5349TIP3    H137682   4.595   1.588   1.029  0.5057  1.0279 -2.0517
 5349TIP3    H237683   4.487   1.574   0.923 -1.8236 -0.6357  0.3813
 5350TIP3   OH237684   2.654   5.184   2.435  0.2741  0.0056 -0.6268
 5350TIP3    H137685   2.590   5.244   2.473  0.9015  0.2416  0.0643
 5350TIP3    H237686   2.684   5.130   2.508 -0.3973 -1.2922 -1.2573
 5351TIP3   OH237687   3.642   0.338   8.263  0.3290  0.2518 -0.3765
 5351TIP3    H137688   3.696   0.355   8.340 -0.4102  0.3745  0.1332
 5351TIP3    H237689   3.671   0.402   8.198  0.3713  0.7366  0.1084
 5352TIP3   OH237690   0.211   5.893   9.037  0.2174  0.6612  0.1736
 5352TIP3    H137691   0.220   5.970   8.980 -0.4684  1.7846  1.5217
 5352TIP3    H237692   0.140   5.842   8.997 -0.0773  1.3007 -0.1370
 5353TIP3   OH237693   2.951   5.266   0.206  0.1564  0.4698  0.0170
 5353TIP3    H137694   2.938   5.304   0.293  0.4124  0.2822  0.1397
 5353TIP3    H237695   3.046   5.269   0.193  0.1719 -0.0599  0.0002
 5354TIP3   OH237696   6.347   5.361   7.648  0.0827 -0.1409 -0.2716
 5354TIP3    H137697   6.385   5.394   7.730 -2.1030 -0.4553  0.9482
 5354TIP3    H237698   6.383   5.418   7.581  2.2085 -0.0710  0.8284
 5355TIP3   OH237699   4.247   6.413   1.593  0.0945  0.4618 -0.1308
 5355TIP3    H137700   4.220   6.327   1.563 -0.8627  1.1434 -1.3010
 5355TIP3    H237701   4.169   6.451   1.633  0.8070  0.3757  1.4495
 5356TIP3   OH237702   6.079   1.954   2.050  0.5576  0.1647 -0.3613
 5356TIP3    H137703   6.019   1.880   2.037 -0.8196  0.8941  1.4542
 5356TIP3    H237704   6.129   1.930   2.128  3.1012 -0.6583 -2.1285
 5357TIP3   OH237705   2.976   2.053   0.997  0.5361 -0.6245  0.0695
 5357TIP3    H137706   3.064   2.090   1.003 -0.2151  1.4833 -0.7639
 5357TIP3    H237707   2.956   2.055   0.904  0.3092 -2.9532  0.0287
 5358TIP3   OH237708   3.414   6.463   9.196  0.1560 -0.1250  0.3104
 5358TIP3    H137709   3.321   6.471   9.178  0.2105 -0.5093 -0.1767
 5358TIP3    H237710   3.419   6.418   9.280 -0.0996 -0.3543  0.2051
 5359TIP3   OH237711   3.024   6.189   8.088  0.0442 -0.8196 -0.1540
 5359TIP3    H137712   3.099   6.177   8.147  2.5719 -0.8584 -3.1623
 5359TIP3    H237713   3.061   6.227   8.009 -3.7685  2.7895 -0.5313
 5360TIP3   OH237714   1.402   3.837   0.520 -0.4411 -0.0318 -0.1293
 5360TIP3    H137715   1.391   3.919   0.566 -0.9849 -0.3606  0.3287
 5360TIP3    H237716   1.348   3.846   0.441 -1.1365 -0.2491  0.3144
 5361TIP3   OH237717   6.149   4.836   2.330 -0.0100  0.0559  0.2431
 5361TIP3    H137718   6.199   4.899   2.381 -0.4171  0.7629 -0.2189
 5361TIP3    H237719   6.152   4.755   2.382  0.1471  0.5717  1.0527
 5362TIP3   OH237720   4.164   1.412   7.935  0.4894  0.6345  0.2145
 5362TIP3    H137721   4.104   1.403   8.009  0.9170 -0.6176  0.4394
 5362TIP3    H237722   4.169   1.323   7.898  1.5286  0.9026 -0.3233
 5363TIP3   OH237723   3.828   2.166   1.044 -0.2201 -0.7315 -0.1020
 5363TIP3    H137724   3.762   2.231   1.067 -0.2308  0.0327 -2.0467
 5363TIP3    H237725   3.819   2.098   1.110 -0.3694  1.1004  1.8875
 5364TIP3   OH237726   3.893   3.821   3.156  0.1360  0.6827 -0.3394
 5364TIP3    H137727   3.928   3.872   3.228  2.4382 -0.1225 -0.8114
 5364TIP3    H237728   3.965   3.763   3.130 -1.0302  0.0784 -2.4623
 5365TIP3   OH237729   5.690   0.684   1.009  0.5012 -0.1273 -0.0707
 5365TIP3    H137730   5.602   0.664   1.041  0.9869 -0.3001  1.2084
 5365TIP3    H237731   5.743   0.694   1.088  1.9198 -1.3000 -0.8310
 5366TIP3   OH237732   5.658   5.127   1.039 -0.4543 -0.8985 -0.5479
 5366TIP3    H137733   5.715   5.066   1.087 -1.1765 -0.7805  0.4870
 5366TIP3    H237734   5.695   5.130   0.951  1.2388 -0.7266  0.1234
 5367TIP3   OH237735   4.478   3.981   0.722  0.5371  0.0690 -0.1698
 5367TIP3    H137736   4.554   4.037   0.731  0.9838 -0.5535  0.0109
 5367TIP3    H237737   4.509   3.893   0.745 -0.4087 -0.0722  0.6596
 5368TIP3   OH237738   5.405   4.163   0.333 -0.0252 -0.1248  0.0609
 5368TIP3    H137739   5.334   4.227   0.339  1.0204  0.8892  4.0029
 5368TIP3    H237740   5.477   4.211   0.291  0.2666  0.8955  1.6457
 5369TIP3   OH237741   6.247   3.128   1.842 -0.2304 -0.0060  0.1967
 5369TIP3    H137742   6.178   3.176   1.795  1.2422  1.0709 -0.9875
 5369TIP3    H237743   6.265   3.052   1.787  1.1167  0.9726 -0.8170
 5370TIP3   OH237744   3.181   5.513   9.085 -0.1604  0.2106 -0.4259
 5370TIP3    H137745   3.230   5.570   9.027  0.2616  0.5306  0.2287
 5370TIP3    H237746   3.151   5.570   9.156 -0.8910 -0.1173 -0.4596
 5371TIP3   OH237747   0.720   1.189   7.939 -0.3245  0.2700  0.4688
 5371TIP3    H137748   0.671   1.188   7.856 -1.9424 -2.3183  1.3233
 5371TIP3    H237749   0.684   1.264   7.987 -1.3313  0.1815 -0.1184
 5372TIP3   OH237750   5.743   6.638   1.478 -0.5971 -0.1473  0.5058
 5372TIP3    H137751   5.660   6.595   1.501 -0.4341 -0.7471  0.0148
 5372TIP3    H237752   5.809   6.589   1.528 -0.4392 -0.2991  0.1509
 5373TIP3   OH237753   1.952   2.134   8.287  0.0326  0.0265 -0.1564
 5373TIP3    H137754   1.979   2.065   8.226 -0.7760 -0.1463 -0.3266
 5373TIP3    H237755   2.024   2.139   8.350 -0.5668 -2.0644  0.7872
 5374TIP3   OH237756   0.729   5.222   1.669 -0.0275  0.4100 -0.3702
 5374TIP3    H137757   0.753   5.213   1.577 -0.1305  0.3195 -0.3897
 5374TIP3    H237758   0.803   5.265   1.710  1.2156 -1.9110  0.0235
 5375TIP3   OH237759   0.864   5.156   1.969 -0.5548 -0.3591  0.3943
 5375TIP3    H137760   0.858   5.151   2.065  0.1953 -0.5658  0.4387
 5375TIP3    H237761   0.957   5.174   1.952 -0.7272 -0.1130 -0.2880
 5376TIP3   OH237762   0.566   0.178   2.074 -0.0946 -0.1666  0.0064
 5376TIP3    H137763   0.573   0.257   2.128 -1.7106  0.6203 -0.8655
 5376TIP3    H237764   0.551   0.107   2.136  0.0776  0.4046  0.7100
 5377TIP3   OH237765   3.938   3.604   8.328 -0.2873 -0.7209 -0.0679
 5377TIP3    H137766   3.981   3.524   8.296 -1.3220 -1.4525  0.3193
 5377TIP3    H237767   3.950   3.600   8.423 -2.2924 -1.6329  0.2034
 5378TIP3   OH237768   1.924   5.989   8.356  0.1588 -0.3986  0.2250
 5378TIP3    H137769   1.975   5.912   8.381  0.7370  0.4569  1.7396
 5378TIP3    H237770   1.988   6.052   8.325 -0.4622 -1.1465 -2.9307
 5379TIP3   OH237771   3.268   2.717   0.597 -0.0150  0.2783  0.8593
 5379TIP3    H137772   3.196   2.727   0.660  0.5063  1.5081  1.2770
 5379TIP3    H237773   3.276   2.802   0.555  3.2127  1.2460  3.0511
 5380TIP3   OH237774   1.860   1.862   2.839 -0.1112 -0.1330  0.3350
 5380TIP3    H137775   1.905   1.787   2.877 -1.1314 -1.2181 -0.5358
 5380TIP3    H237776   1.909   1.938   2.870  0.3618 -1.0917  2.0376
 5381TIP3   OH237777   4.146   4.150   1.674  0.0504  0.2456 -0.1895
 5381TIP3    H137778   4.196   4.071   1.653 -1.4854 -0.6153 -0.6779
 5381TIP3    H237779   4.111   4.180   1.590 -0.7126  0.5126  0.2154
 5382TIP3   OH237780   0.519   0.510   1.476 -0.0146  0.4372  0.6375
 5382TIP3    H137781   0.568   0.517   1.558 -0.7597  1.7620  0.9894
 5382TIP3    H237782   0.506   0.416   1.465 -0.8438  0.2665  2.6269
 5383TIP3   OH237783   5.793   4.049   0.109  0.1270  0.3810  0.5652
 5383TIP3    H137784   5.858   4.092   0.164 -0.1261  1.6711 -0.1205
 5383TIP3    H237785   5.827   4.057   0.020 -1.3211  1.8197  0.0857
 5384TIP3   OH237786   1.858   6.674   3.194  0.1761  0.2500 -0.3961
 5384TIP3    H137787   1.864   6.768   3.212  0.2378  0.1342  0.2163
 5384TIP3    H237788   1.938   6.637   3.232 -0.3422 -0.1827  0.3052
 5385TIP3   OH237789   2.888   1.971   7.629  0.6464 -0.0568  0.4410
 5385TIP3    H137790   2.892   1.964   7.534 -2.7955 -0.7997  0.2301
 5385TIP3    H237791   2.849   2.056   7.645  2.2925  0.5772  1.3041
 5386TIP3   OH237792   6.291   4.225   8.764  0.7474 -0.1220  0.2266
 5386TIP3    H137793   6.212   4.221   8.818  0.1768 -0.6724 -0.6244
 5386TIP3    H237794   6.278   4.301   8.708  2.5705  2.1566  2.6645
 5387TIP3   OH237795   1.095   0.927   8.849 -0.7430  0.1231  0.1661
 5387TIP3    H137796   1.047   0.941   8.767  0.5868  0.3711 -0.5977
 5387TIP3    H237797   1.060   0.993   8.909 -1.3045  0.3377 -0.3920
 5388TIP3   OH237798   4.082   5.297   7.422  0.0714  0.3537 -0.2178
 5388TIP3    H137799   4.033   5.354   7.363 -0.6292 -0.6943 -0.6651
 5388TIP3    H237800   4.169   5.290   7.381  0.3245  1.4523  0.0880
 5389TIP3   OH237801   1.478   0.936   0.977 -0.0327 -0.0801  0.0387
 5389TIP3    H137802   1.475   0.877   0.902 -2.0901  0.1787 -0.1448
 5389TIP3    H237803   1.508   1.020   0.941  1.0024 -0.4720 -0.0614
 5390TIP3   OH237804   5.100   5.158   0.288 -0.3744  0.2795 -0.1460
 5390TIP3    H137805   5.161   5.087   0.268  0.1610  0.8401 -0.5816
 5390TIP3    H237806   5.029   5.117   0.337  0.2782 -0.4213  0.2316
 5391TIP3   OH237807   2.820   4.585   2.608  0.7451  0.6367 -0.7691
 5391TIP3    H137808   2.762   4.617   2.677 -1.2987  0.0954 -2.1185
 5391TIP3    H237809   2.821   4.656   2.543  1.3743  0.5315 -0.8738
 5392TIP3   OH237810   0.077   1.067   1.762  0.9157  0.0311  0.0839
 5392TIP3    H137811   0.040   1.154   1.772 -0.0431 -0.4058  0.4940
 5392TIP3    H237812   0.014   1.009   1.806  0.9696 -0.9861 -1.1110
 5393TIP3   OH237813   0.485   4.376   7.569 -0.4067 -0.6948  0.5592
 5393TIP3    H137814   0.459   4.429   7.493 -1.1330 -0.4536  0.9650
 5393TIP3    H237815   0.580   4.382   7.571 -0.4454  0.1337  0.2633
 5394TIP3   OH237816   5.838   2.602   0.151  0.1717  0.2016 -0.2291
 5394TIP3    H137817   5.801   2.574   0.068 -0.0424 -0.0714 -0.0459
 5394TIP3    H237818   5.771   2.579   0.216  1.5799 -2.5642  0.4169
 5395TIP3   OH237819   5.064   5.960   0.646 -0.5533  0.2072 -0.0161
 5395TIP3    H137820   4.974   5.940   0.620 -0.8811  1.2479  0.2824
 5395TIP3    H237821   5.069   5.933   0.738 -0.1747 -1.0148 -0.3768
 5396TIP3   OH237822   1.110   2.775   8.628 -0.6446 -0.2666  0.7302
 5396TIP3    H137823   1.045   2.795   8.695 -0.9630 -1.5897  0.8488
 5396TIP3    H237824   1.164   2.705   8.667 -0.6177 -0.8052 -0.2410
 5397TIP3   OH237825   5.275   6.005   7.230  0.4482  0.4257 -0.5459
 5397TIP3    H137826   5.258   5.921   7.272 -1.0781  0.6591 -0.6287
 5397TIP3    H237827   5.370   6.008   7.219  0.5789 -1.0261 -0.0211
 5398TIP3   OH237828   0.980   2.334   7.766 -0.1029  0.2558 -0.0447
 5398TIP3    H137829   0.911   2.281   7.726  0.0711  0.2884 -0.3966
 5398TIP3    H237830   1.022   2.276   7.829  1.4895 -0.7664 -1.9211
 5399TIP3   OH237831   2.731   5.694   7.345 -0.2486 -0.2197  0.3536
 5399TIP3    H137832   2.648   5.727   7.312 -1.6046 -0.9698  2.7276
 5399TIP3    H237833   2.792   5.766   7.332 -1.7533  1.1141  0.2960
 5400TIP3   OH237834   5.033   0.211   1.493  0.3564 -0.2749  0.1912
 5400TIP3    H137835   5.013   0.117   1.496  0.8973 -0.4083 -0.2517
 5400TIP3    H237836   5.103   0.219   1.429  0.2659  0.4480  0.1733
 5401TIP3   OH237837   2.736   3.223   8.608 -0.0925  0.3681 -0.0701
 5401TIP3    H137838   2.726   3.179   8.523 -1.4627 -1.9427  1.1989
 5401TIP3    H237839   2.830   3.242   8.614  0.4949 -1.9090 -0.9773
 5402TIP3   OH237840   0.578   3.324   1.410 -0.2807  0.1104 -0.2348
 5402TIP3    H137841   0.669   3.297   1.403 -0.3563 -0.4189  0.7018
 5402TIP3    H237842   0.529   3.242   1.412 -0.7756  0.3897 -0.6094
 5403TIP3   OH237843   2.050   4.264   0.828 -0.1373 -0.0317  0.4374
 5403TIP3    H137844   1.962   4.284   0.797  0.5117  0.4403 -1.1759
 5403TIP3    H237845   2.057   4.169   0.820 -0.0769  0.0583 -0.5994
 5404TIP3   OH237846   6.037   2.168   8.295 -0.7048  0.1031  0.1721
 5404TIP3    H137847   6.020   2.252   8.252 -0.0343 -0.5483 -1.4618
 5404TIP3    H237848   5.955   2.120   8.287 -0.4538 -0.1872 -0.8633
 5405TIP3   OH237849   1.250   5.848   1.655  0.3502  0.2469  0.2882
 5405TIP3    H137850   1.301   5.795   1.717  1.1918 -2.0151 -2.1552
 5405TIP3    H237851   1.179   5.790   1.629 -2.5488  2.6544  2.1506
 5406TIP3   OH237852   4.757   0.545   0.992 -0.3626 -0.5571  0.3230
 5406TIP3    H137853   4.682   0.599   0.965  0.0677 -0.5996 -1.0337
 5406TIP3    H237854   4.786   0.583   1.075 -0.9161  0.4456  0.0664
 5407TIP3   OH237855   6.599   0.125   7.802  0.4931 -0.4044  0.4507
 5407TIP3    H137856   6.678   0.104   7.751  0.6372 -2.3361  1.3671
 5407TIP3    H237857   6.534   0.062   7.771  0.0775 -0.4702  1.4409
 5408TIP3   OH237858   4.610   4.686   7.518  0.4800 -0.0226 -0.0740
 5408TIP3    H137859   4.559   4.763   7.493  0.1530 -0.6150 -1.3022
 5408TIP3    H237860   4.697   4.721   7.538  0.3216  0.6854 -0.5621
 5409TIP3   OH237861   5.311   4.183   0.650  0.6293  0.0481  1.3565
 5409TIP3    H137862   5.386   4.240   0.633 -0.3558  1.3441  1.2935
 5409TIP3    H237863   5.240   4.242   0.675 -0.8471 -0.9939 -0.1307
 5410TIP3   OH237864   4.693   6.010   1.337 -0.1734 -0.3284  0.0232
 5410TIP3    H137865   4.632   6.052   1.397 -0.5520 -0.2551 -0.4063
 5410TIP3    H237866   4.657   6.028   1.250  0.1235 -0.8184 -0.2043
 5411TIP3   OH237867   4.891   6.020   8.144 -0.1021 -0.4692  0.3698
 5411TIP3    H137868   4.850   6.088   8.090  0.8078 -0.1869  0.0265
 5411TIP3    H237869   4.984   6.039   8.139  0.1109 -1.4090  0.7398
 5412TIP3   OH237870   6.380   3.002   8.992  0.8889  0.0659 -0.2938
 5412TIP3    H137871   6.446   3.066   8.966  2.3020 -0.4416  1.8114
 5412TIP3    H237872   6.364   3.019   9.085 -0.0166 -1.5060 -0.1089
 5413TIP3   OH237873   0.548   4.119   9.194  0.6033  0.4543 -0.2938
 5413TIP3    H137874   0.510   4.031   9.196  1.0438  0.2613 -0.4010
 5413TIP3    H237875   0.507   4.165   9.268  1.0739 -0.1331  0.3448
 5414TIP3   OH237876   3.872   1.616   1.223 -0.0060  0.1516  0.4164
 5414TIP3    H137877   3.834   1.698   1.254 -0.2278 -0.3715  1.6170
 5414TIP3    H237878   3.823   1.548   1.271 -1.5047 -0.8438 -2.2862
 5415TIP3   OH237879   5.300   1.601   1.387 -0.5781  0.1284 -0.2950
 5415TIP3    H137880   5.365   1.535   1.409 -0.1107  0.4229 -0.7532
 5415TIP3    H237881   5.344   1.685   1.401 -1.3171  0.3742  0.7532
 5416TIP3   OH237882   3.316   4.444   1.722  0.1601 -0.1335  0.2286
 5416TIP3    H137883   3.347   4.430   1.812  0.0308 -4.5701 -0.2054
 5416TIP3    H237884   3.385   4.496   1.681  2.7068 -2.1046  1.7098
 5417TIP3   OH237885   2.751   5.233   0.954  0.3788  0.1864  0.2617
 5417TIP3    H137886   2.758   5.148   0.911 -2.2084  0.2925 -0.5483
 5417TIP3    H237887   2.670   5.228   1.005  1.0874  1.5828  1.6222
 5418TIP3   OH237888   5.788   2.442   1.457  0.0570  0.3909  0.1406
 5418TIP3    H137889   5.819   2.354   1.437 -2.0161 -0.5345  0.7359
 5418TIP3    H237890   5.821   2.460   1.546 -1.1538 -0.6212  0.8143
 5419TIP3   OH237891   2.616   1.281   7.809  0.5956 -0.0260 -0.0220
 5419TIP3    H137892   2.640   1.311   7.896  0.7526  2.5228 -0.8779
 5419TIP3    H237893   2.535   1.232   7.822  0.2582  0.8733  1.4604
 5420TIP3   OH237894   4.915   2.232   2.303  0.2116 -0.8813 -0.0654
 5420TIP3    H137895   4.844   2.270   2.251 -0.8008 -0.9265  1.2238
 5420TIP3    H237896   4.988   2.294   2.293 -0.1966 -0.5181 -0.9177
 5421TIP3   OH237897   3.195   6.449   0.294  0.0415 -0.2709 -0.1978
 5421TIP3    H137898   3.136   6.385   0.335 -1.1743 -0.6405 -2.3758
 5421TIP3    H237899   3.275   6.401   0.277 -0.2403 -0.7261 -0.2551
 5422TIP3   OH237900   6.225   0.533   0.087 -0.1097 -0.7178  0.0638
 5422TIP3    H137901   6.162   0.501   0.022 -1.1472  2.3765 -0.6275
 5422TIP3    H237902   6.309   0.530   0.042 -0.6246  0.1919 -0.9919
 5423TIP3   OH237903   5.145   3.239   2.468  0.4823  0.0124 -0.8859
 5423TIP3    H137904   5.055   3.207   2.474  0.5254 -0.1055 -0.8723
 5423TIP3    H237905   5.198   3.160   2.461  0.5714  0.0880 -1.0720
 5424TIP3   OH237906   6.103   2.915   0.610  0.2809  0.5418 -0.3511
 5424TIP3    H137907   6.031   2.897   0.671  0.3255 -0.2225 -0.5174
 5424TIP3    H237908   6.095   3.009   0.591 -0.2500  0.6077  0.1655
 5425TIP3   OH237909   5.370   1.977   1.728 -0.3880  0.3558 -0.6511
 5425TIP3    H137910   5.299   1.979   1.665 -1.9572  0.5597  1.0483
 5425TIP3    H237911   5.328   1.960   1.812  1.7043 -0.6363  0.2641
 5426TIP3   OH237912   1.359   3.249   3.106  0.4725  0.2327 -0.2351
 5426TIP3    H137913   1.426   3.260   3.174  1.1039  1.3974 -1.0205
 5426TIP3    H237914   1.342   3.154   3.105  1.7389 -0.0238  0.3346
 5427TIP3   OH237915   0.854   6.013   0.951  1.0353  0.2526 -0.1131
 5427TIP3    H137916   0.862   6.019   1.046 -0.0079 -0.5578  0.0410
 5427TIP3    H237917   0.823   6.099   0.924 -0.9249 -0.1875  0.5654
 5428TIP3   OH237918   2.868   5.483   1.649 -0.2393 -0.2491 -0.0909
 5428TIP3    H137919   2.908   5.396   1.648 -2.1433 -1.1913 -0.8304
 5428TIP3    H237920   2.775   5.466   1.633 -0.6262  1.9548 -0.4970
 5429TIP3   OH237921   3.336   0.700   0.747 -0.0472 -0.3455 -0.1984
 5429TIP3    H137922   3.286   0.758   0.688 -0.3893  0.0390  0.4614
 5429TIP3    H237923   3.415   0.749   0.767 -0.2588 -0.1760  0.2257
 5430TIP3   OH237924   6.174   4.931   7.325  0.0405  0.1751  0.0510
 5430TIP3    H137925   6.164   4.965   7.236 -1.5302 -0.1029  0.0848
 5430TIP3    H237926   6.084   4.921   7.357  0.5707  0.3463  1.7073
 5431TIP3   OH237927   2.483   5.491   7.336 -0.1895 -0.0818 -0.3419
 5431TIP3    H137928   2.563   5.542   7.353 -1.0369  0.3749  2.7706
 5431TIP3    H237929   2.412   5.546   7.367 -1.6447 -1.1231 -1.6459
 5432TIP3   OH237930   4.872   6.676   1.349 -0.2302  0.3887  0.1507
 5432TIP3    H137931   4.810   6.676   1.276  1.7623 -1.3497 -1.6703
 5432TIP3    H237932   4.883   6.583   1.371 -0.6190  0.8582  2.5919
 5433TIP3   OH237933   0.879   5.300   2.593  0.5949  0.1145  0.3083
 5433TIP3    H137934   0.879   5.369   2.526  0.1138 -0.4844 -0.3163
 5433TIP3    H237935   0.942   5.331   2.659  0.4382  1.1188  0.0081
 5434TIP3   OH237936   5.128   5.730   2.821  0.2789 -0.3093  0.7642
 5434TIP3    H137937   5.160   5.789   2.890  2.4357 -0.8747  0.3322
 5434TIP3    H237938   5.204   5.716   2.764 -0.7029 -1.9830 -0.2335
 5435TIP3   OH237939   3.888   2.533   2.182 -0.0223  0.1678 -0.4986
 5435TIP3    H137940   3.792   2.530   2.174  0.1509 -1.4001 -2.8924
 5435TIP3    H237941   3.913   2.443   2.205  0.9510  0.2453 -1.1970
 5436TIP3   OH237942   1.501   5.196   8.059 -0.2030 -0.3134  0.4539
 5436TIP3    H137943   1.493   5.106   8.028 -0.1036 -0.1293 -0.1095
 5436TIP3    H237944   1.465   5.250   7.988 -0.3741  0.0864  0.8357
 5437TIP3   OH237945   0.069   4.597   7.253  0.0547  0.2875 -0.7280
 5437TIP3    H137946   0.078   4.669   7.191  0.0315 -0.7072 -1.9525
 5437TIP3    H237947   0.142   4.607   7.314  0.6677  0.7516 -1.5164
 5438TIP3   OH237948   1.265   1.130   2.563  0.0918  0.1120 -0.2841
 5438TIP3    H137949   1.350   1.175   2.555  1.3661 -2.0958  0.0877
 5438TIP3    H237950   1.208   1.177   2.503  1.4240  1.9915 -0.1846
 5439TIP3   OH237951   2.262   5.983   2.333 -0.1032  0.4649  0.6185
 5439TIP3    H137952   2.328   5.919   2.307  1.3654  1.9150  0.6438
 5439TIP3    H237953   2.230   6.019   2.250  0.1755  0.7545  0.6320
 5440TIP3   OH237954   5.419   4.269   7.561 -0.4070 -0.0973 -0.2050
 5440TIP3    H137955   5.396   4.201   7.624 -1.3850 -0.1742 -0.6267
 5440TIP3    H237956   5.497   4.236   7.516  0.1582 -0.1473  0.7789
 5441TIP3   OH237957   5.290   1.191   8.139 -0.1233 -0.0633 -0.2199
 5441TIP3    H137958   5.271   1.198   8.045 -0.1026 -1.2401 -0.3163
 5441TIP3    H237959   5.327   1.104   8.150 -0.2215  0.0255  0.9068
 5442TIP3   OH237960   1.541   4.172   1.976  0.4243 -0.5217  0.1738
 5442TIP3    H137961   1.466   4.178   1.918 -0.7877  1.0612  1.7848
 5442TIP3    H237962   1.523   4.095   2.031 -1.1388  0.9827  1.9077
 5443TIP3   OH237963   3.725   1.291   2.152  0.0451  0.0141  0.0774
 5443TIP3    H137964   3.635   1.276   2.179  0.0809  2.0452  1.5951
 5443TIP3    H237965   3.777   1.267   2.229  0.5687  1.1894  0.1087
 5444TIP3   OH237966   3.431   1.219   2.221 -0.6976 -0.0734 -0.1180
 5444TIP3    H137967   3.371   1.274   2.171 -0.8046 -0.4477 -0.4033
 5444TIP3    H237968   3.378   1.182   2.291 -0.2125  1.6805  1.2514
 5445TIP3   OH237969   2.878   5.914   0.061  0.4790  0.4015  0.0533
 5445TIP3    H137970   2.916   5.945   0.143 -2.5545 -1.2844  2.3280
 5445TIP3    H237971   2.943   5.852   0.027  0.9154 -0.6037  2.4725
 5446TIP3   OH237972   0.415   2.575   8.794 -0.2460 -1.0725  0.4141
 5446TIP3    H137973   0.407   2.668   8.818  2.3981 -1.3083  2.7517
 5446TIP3    H237974   0.505   2.566   8.765 -0.7980 -2.7430 -0.8924
 5447TIP3   OH237975   6.347   6.516   8.053 -0.2969 -0.0691 -0.0717
 5447TIP3    H137976   6.296   6.493   7.975 -0.9836 -1.2207  0.6774
 5447TIP3    H237977   6.314   6.456   8.121  0.4768  0.7171  1.0240
 5448TIP3   OH237978   1.540   1.258   1.900 -0.3174  0.4204 -0.3689
 5448TIP3    H137979   1.595   1.252   1.979 -1.7771  2.0999  0.8601
 5448TIP3    H237980   1.452   1.275   1.934 -1.9217 -3.0608 -2.2144
 5449TIP3   OH237981   4.504   4.818   0.969 -0.5889  0.7396  0.1908
 5449TIP3    H137982   4.483   4.782   0.883 -1.7426  2.3406 -0.2415
 5449TIP3    H237983   4.437   4.783   1.027  0.0802 -0.1895  0.4373
 5450TIP3   OH237984   3.531   5.624   1.985  0.0344  1.0575  0.4257
 5450TIP3    H137985   3.526   5.539   1.943  1.6018  0.9071  0.5018
 5450TIP3    H237986   3.448   5.666   1.964 -0.3698 -0.1170 -0.4020
 5451TIP3   OH237987   6.644   6.414   8.433  0.0892 -0.0792  0.6073
 5451TIP3    H137988   6.557   6.382   8.457  0.7175 -1.8789  0.6351
 5451TIP3    H237989   6.686   6.338   8.392  2.0289  0.4091  1.6104
 5452TIP3   OH237990   1.695   1.874   2.614  0.6239  0.1009 -0.6299
 5452TIP3    H137991   1.722   1.818   2.541  0.1687 -1.2439  0.1933
 5452TIP3    H237992   1.767   1.869   2.676 -0.0684 -0.8787  0.1344
 5453TIP3   OH237993   2.949   0.747   7.542 -0.1177  0.7019  0.1881
 5453TIP3    H137994   2.975   0.672   7.489 -0.4461  0.1135  0.8379
 5453TIP3    H237995   2.853   0.745   7.541 -0.1341  1.2147  0.0858
 5454TIP3   OH237996   2.177   0.737   8.280 -0.0102 -0.0248 -0.0093
 5454TIP3    H137997   2.133   0.766   8.360 -0.4969 -1.8387  0.4423
 5454TIP3    H237998   2.112   0.681   8.236  0.6468  0.0481 -1.0963
 5455TIP3   OH237999   1.899   3.027   9.049 -0.5757  0.2636 -0.4353
 5455TIP3    H138000   1.964   2.980   9.101  0.7302  0.6348 -1.6856
 5455TIP3    H238001   1.910   2.993   8.960 -0.2842  2.1819 -1.1743
 5456TIP3   OH238002   4.735   5.178   2.200  0.1868 -0.6166 -0.0317
 5456TIP3    H138003   4.790   5.137   2.267  2.2835  1.1330 -0.5635
 5456TIP3    H238004   4.728   5.269   2.229  3.0241  0.7953 -3.1655
 5457TIP3   OH238005   5.583   4.494   7.783  0.0670 -0.2550  0.2104
 5457TIP3    H138006   5.604   4.401   7.783  2.6560  0.2473  1.3723
 5457TIP3    H238007   5.548   4.511   7.695  2.2340 -1.7903 -1.0442
 5458TIP3   OH238008   6.064   5.352   2.525  0.0122  0.4313 -0.0193
 5458TIP3    H138009   6.139   5.354   2.466 -1.5210  0.5076 -2.0471
 5458TIP3    H238010   6.042   5.444   2.539 -2.2197  0.4592 -2.8967
 5459TIP3   OH238011   2.643   4.594   8.251  0.1428  0.4795  0.8498
 5459TIP3    H138012   2.735   4.568   8.255 -0.0957 -0.7113 -0.4482
 5459TIP3    H238013   2.610   4.552   8.171 -1.6165  0.5551  1.4908
 5460TIP3   OH238014   6.039   2.307   3.078 -1.1211  0.2659 -0.2424
 5460TIP3    H138015   6.099   2.233   3.086 -1.6677 -0.3439 -1.4922
 5460TIP3    H238016   5.956   2.274   3.111 -0.6743  1.3293  2.1799
 5461TIP3   OH238017   2.592   2.380   2.165 -0.5525 -0.0264  0.1934
 5461TIP3    H138018   2.505   2.391   2.202 -0.9581 -0.8381 -0.4841
 5461TIP3    H238019   2.624   2.469   2.152 -1.8945  0.3281 -0.9439
 5462TIP3   OH238020   0.336   1.014   8.362  0.1885  0.4316  0.2823
 5462TIP3    H138021   0.273   1.061   8.308 -0.5524  0.3190  1.0346
 5462TIP3    H238022   0.296   0.929   8.377  0.8610  0.0879  0.1515
 5463TIP3   OH238023   0.523   4.714   8.915  0.2656  0.1526 -0.5386
 5463TIP3    H138024   0.458   4.784   8.908 -0.8692 -0.8184 -0.0836
 5463TIP3    H238025   0.532   4.699   9.010 -0.6292 -1.3022 -0.6539
 5464TIP3   OH238026   5.535   4.538   8.729  0.6098  0.5550  0.3289
 5464TIP3    H138027   5.439   4.536   8.726  0.6387 -0.2048 -0.3423
 5464TIP3    H238028   5.556   4.618   8.778 -0.3572  0.9909  0.0520
 5465TIP3   OH238029   1.354   6.485   0.318 -0.0014 -0.1411  0.9936
 5465TIP3    H138030   1.423   6.423   0.294  0.2762  0.9129 -1.1484
 5465TIP3    H238031   1.400   6.569   0.327 -0.7402  0.2231  1.4396
 5466TIP3   OH238032   0.396   5.952   7.613 -0.1365  0.1463 -0.6262
 5466TIP3    H138033   0.357   6.020   7.669 -0.8631 -1.6805  1.2031
 5466TIP3    H238034   0.321   5.913   7.567  0.2333  0.3464 -1.4029
 5467TIP3   OH238035   1.669   2.247   2.701 -0.2013 -0.1092 -0.0495
 5467TIP3    H138036   1.695   2.243   2.793 -1.2985  0.9082  0.3242
 5467TIP3    H238037   1.617   2.168   2.687  2.1076 -1.6354 -0.5358
 5468TIP3   OH238038   1.879   0.982   9.104 -0.0371 -0.0556  0.1904
 5468TIP3    H138039   1.851   1.058   9.155  0.4088 -0.4788  1.0761
 5468TIP3    H238040   1.851   0.906   9.155 -0.5583 -0.4987 -0.7266
 5469TIP3   OH238041   1.257   4.772   2.959  0.0295  0.0759  0.2411
 5469TIP3    H138042   1.291   4.853   2.996 -0.5416 -0.1063  1.1931
 5469TIP3    H238043   1.335   4.720   2.938  0.4041  0.8910 -0.4681
 5470TIP3   OH238044   0.621   2.165   1.567  0.2104 -0.1130 -0.0360
 5470TIP3    H138045   0.673   2.151   1.646  0.3901 -1.9094 -0.4290
 5470TIP3    H238046   0.537   2.123   1.586 -0.9644  2.2058  0.3547
 5471TIP3   OH238047   1.275   6.359   1.960  1.6620 -0.3066 -0.3653
 5471TIP3    H138048   1.190   6.404   1.968  1.6644 -0.4412  0.4655
 5471TIP3    H238049   1.332   6.424   1.919  2.0553  1.0048  2.0909
 5472TIP3   OH238050   4.199   1.477   1.053  0.3871 -0.3853  0.2251
 5472TIP3    H138051   4.118   1.514   1.088 -0.2330 -0.6788 -0.8552
 5472TIP3    H238052   4.269   1.530   1.092 -0.2351 -0.7647  1.9762
 5473TIP3   OH238053   1.647   6.582   1.349 -0.0356 -0.1730 -0.0938
 5473TIP3    H138054   1.629   6.540   1.433  0.6028 -1.1574 -0.4297
 5473TIP3    H238055   1.575   6.556   1.292 -0.5202  0.5751  0.1683
 5474TIP3   OH238056   5.957   6.191   8.244  0.1412  0.2469  0.4959
 5474TIP3    H138057   5.948   6.110   8.294  0.9701 -0.2084 -0.0719
 5474TIP3    H238058   5.868   6.212   8.216 -0.3521  0.5069  2.1128
 5475TIP3   OH238059   5.661   5.512   2.643  0.4004  0.4180  0.4940
 5475TIP3    H138060   5.655   5.594   2.593  1.5348 -0.8254 -1.7959
 5475TIP3    H238061   5.592   5.521   2.709 -3.5588  0.8889 -3.2437
 5476TIP3   OH238062   4.385   2.699   2.163 -0.0580  0.3553 -0.3181
 5476TIP3    H138063   4.329   2.711   2.240  1.1665 -0.2149  0.6996
 5476TIP3    H238064   4.463   2.750   2.182  0.6773 -0.5881 -0.7283
 5477TIP3   OH238065   2.805   6.311   8.205 -0.3908 -0.1083 -0.2818
 5477TIP3    H138066   2.875   6.266   8.158 -0.6111  0.2262 -0.9416
 5477TIP3    H238067   2.737   6.244   8.217 -0.3661 -0.1741 -0.5058
 5478TIP3   OH238068   5.339   0.825   1.119  0.5490 -0.2207  0.1875
 5478TIP3    H138069   5.306   0.823   1.029  0.4823  0.9344  0.1806
 5478TIP3    H238070   5.378   0.911   1.129 -0.3669  0.0638  1.5990
 5479TIP3   OH238071   6.549   5.587   0.089 -0.1044  0.2137  0.5720
 5479TIP3    H138072   6.456   5.601   0.107 -0.1729 -0.4437  0.7540
 5479TIP3    H238073   6.582   5.542   0.167  0.6414  1.5175  1.0239
 5480TIP3   OH238074   0.280   2.905   2.209 -0.4823 -0.2183  0.0234
 5480TIP3    H138075   0.283   2.928   2.116 -1.8764  2.7330  0.6225
 5480TIP3    H238076   0.372   2.890   2.232  0.2387  1.9065 -1.2017
 5481TIP3   OH238077   4.306   0.655   9.142  0.4590 -0.4731  0.1203
 5481TIP3    H138078   4.287   0.747   9.124  0.5750 -0.3316  0.7168
 5481TIP3    H238079   4.224   0.609   9.124 -0.5230  0.1307  2.6998
 5482TIP3   OH238080   2.650   5.810   1.596  0.1869 -0.1681 -0.1902
 5482TIP3    H138081   2.607   5.733   1.558  0.3186 -1.1573  1.5354
 5482TIP3    H238082   2.605   5.824   1.679  1.3590  0.4943  0.3581
 5483TIP3   OH238083   5.336   2.957   0.713 -0.4316 -0.1863  0.1327
 5483TIP3    H138084   5.421   2.931   0.751 -0.9803  0.0826  1.6256
 5483TIP3    H238085   5.279   2.882   0.729 -0.5458 -0.2822 -0.6825
 5484TIP3   OH238086   1.634   3.525   0.393 -0.3107  0.5127 -0.5885
 5484TIP3    H138087   1.595   3.573   0.466  1.2441 -0.4904  0.9904
 5484TIP3    H238088   1.688   3.590   0.348 -0.9315  1.0346 -0.5993
 5485TIP3   OH238089   5.385   1.115   8.575 -0.3735  0.5243  0.5831
 5485TIP3    H138090   5.366   1.136   8.667  0.9277  2.3161  0.5019
 5485TIP3    H238091   5.480   1.115   8.570 -0.4273 -0.2116 -0.6420
 5486TIP3   OH238092   2.868   3.863   2.508  0.4380  0.1240 -0.0984
 5486TIP3    H138093   2.933   3.796   2.525  0.4963  0.2877  0.3303
 5486TIP3    H238094   2.810   3.825   2.442 -0.1149 -0.7241  0.8651
 5487TIP3   OH238095   3.115   1.284   2.628 -0.1998  0.3485  0.4533
 5487TIP3    H138096   3.199   1.298   2.584 -0.1074  0.0212  0.5244
 5487TIP3    H238097   3.065   1.229   2.568 -0.4967  0.8273  0.2559
 5488TIP3   OH238098   1.912   0.138   9.094 -0.0152  0.3533 -0.0593
 5488TIP3    H138099   1.938   0.101   9.009  0.8405  1.7365 -0.4443
 5488TIP3    H238100   1.881   0.226   9.072  1.8935  1.4026  1.2291
 5489TIP3   OH238101   5.334   2.914   8.769  0.0280  0.7001 -0.4046
 5489TIP3    H138102   5.312   2.924   8.676  1.3367  1.6494 -0.6435
 5489TIP3    H238103   5.325   2.820   8.786  1.2799  0.2643 -1.9195
 5490TIP3   OH238104   5.229   5.391   2.279  0.1536  0.4260 -0.2851
 5490TIP3    H138105   5.134   5.399   2.270 -0.0933  1.2974  2.3382
 5490TIP3    H238106   5.244   5.296   2.281 -0.7615  0.2698  0.0432
 5491TIP3   OH238107   5.501   5.934   0.629  0.1277 -0.3065 -0.4071
 5491TIP3    H138108   5.436   5.890   0.684  0.8983  0.4229  1.1742
 5491TIP3    H238109   5.563   5.865   0.607  1.2845 -0.1598  1.9888
 5492TIP3   OH238110   2.322   3.624   7.884  0.0251  0.2324  0.4472
 5492TIP3    H138111   2.396   3.630   7.945 -0.8256 -0.2162  1.5623
 5492TIP3    H238112   2.281   3.540   7.904  1.6401 -1.6066 -3.0625
 5493TIP3   OH238113   2.264   1.711   1.519 -0.2001  0.0664 -0.4267
 5493TIP3    H138114   2.353   1.696   1.489 -0.5529 -0.4675 -1.2189
 5493TIP3    H238115   2.234   1.627   1.553 -0.6408  0.0764 -0.7844
 5494TIP3   OH238116   3.533   2.205   7.863  0.1736  0.3724 -0.2367
 5494TIP3    H138117   3.445   2.169   7.862  1.1183 -2.1266 -0.5935
 5494TIP3    H238118   3.529   2.281   7.806 -1.4898 -0.3640 -1.1550
 5495TIP3   OH238119   4.680   2.548   7.798  0.2672  0.0376  0.2041
 5495TIP3    H138120   4.657   2.612   7.731  1.1060 -1.2900 -1.4224
 5495TIP3    H238121   4.660   2.463   7.759  1.9047 -0.8426  1.1399
 5496TIP3   OH238122   1.977   5.629   0.200  0.0846 -0.1500 -0.5985
 5496TIP3    H138123   2.032   5.597   0.128  0.0326  0.8492 -1.0948
 5496TIP3    H238124   2.000   5.573   0.274 -0.8107 -2.0931 -1.7143
 5497TIP3   OH238125   3.419   3.478   8.925  0.3396 -0.2430  0.3283
 5497TIP3    H138126   3.345   3.436   8.880  1.1088 -0.1013 -1.1274
 5497TIP3    H238127   3.485   3.409   8.932  0.4514 -0.0998  0.7314
 5498TIP3   OH238128   0.431   4.223   8.655  0.2619  0.5039  0.5178
 5498TIP3    H138129   0.476   4.259   8.731  0.4385  0.8472  0.2563
 5498TIP3    H238130   0.501   4.197   8.595  0.1303 -0.0252  0.5861
 5499TIP3   OH238131   1.132   2.995   0.033  0.9148  0.0468 -0.3243
 5499TIP3    H138132   1.062   3.060   0.023 -0.7135 -1.3998  1.1170
 5499TIP3    H238133   1.212   3.043   0.010 -0.5501  1.6165 -2.5294
 5500TIP3   OH238134   3.378   5.350   7.807 -0.0890 -0.1226  0.9427
 5500TIP3    H138135   3.448   5.330   7.745  0.2242  1.7477  0.6420
 5500TIP3    H238136   3.314   5.280   7.794  0.9542 -0.9459  0.0440
 5501TIP3   OH238137   4.009   0.938   2.264 -0.2896  0.9705  0.1909
 5501TIP3    H138138   4.047   0.861   2.306 -0.6112  1.6022  1.6978
 5501TIP3    H238139   4.021   1.008   2.328  0.7112  2.3849 -1.4481
 5502TIP3   OH238140   0.448   6.465   1.600 -0.1774 -0.2637  0.4661
 5502TIP3    H138141   0.522   6.497   1.652  0.9146 -1.0294 -0.5560
 5502TIP3    H238142   0.395   6.415   1.663  1.5062 -1.8104  0.7549
 5503TIP3   OH238143   1.986   4.215   2.035 -0.1368 -0.3699  0.2984
 5503TIP3    H138144   1.926   4.184   1.968  0.1112  0.2414 -0.2119
 5503TIP3    H238145   1.929   4.244   2.106 -0.4879  0.9758 -0.5153
 5504TIP3   OH238146   4.517   4.672   8.992 -0.0895 -0.4007  0.7217
 5504TIP3    H138147   4.567   4.597   9.025 -1.9326 -1.5911  0.9557
 5504TIP3    H238148   4.443   4.680   9.051 -1.8725 -0.6998 -1.3358
 5505TIP3   OH238149   0.735   1.462   2.614 -0.2432  0.0872  0.0990
 5505TIP3    H138150   0.717   1.390   2.554  0.1234  0.5221 -0.5454
 5505TIP3    H238151   0.824   1.445   2.646 -0.7594 -0.6050  1.1869
 5506TIP3   OH238152   4.178   5.595   1.260  0.4087 -0.8651 -0.1837
 5506TIP3    H138153   4.167   5.509   1.299  1.3849 -0.6152  0.7188
 5506TIP3    H238154   4.146   5.656   1.327 -1.2369 -0.5328 -1.2078
 5507TIP3   OH238155   6.505   3.202   0.754  0.3291 -0.9751 -0.0710
 5507TIP3    H138156   6.431   3.151   0.719 -0.0158 -0.5370  0.0070
 5507TIP3    H238157   6.517   3.166   0.843  0.3680 -1.2109 -0.1701
 5508TIP3   OH238158   1.221   0.424   0.842  0.5988  0.0046 -0.2288
 5508TIP3    H138159   1.279   0.363   0.797 -1.1077 -1.6932 -0.2828
 5508TIP3    H238160   1.157   0.451   0.776 -0.3475 -0.4349  0.4707
 5509TIP3   OH238161   6.034   2.034   0.795  0.0892  0.0763 -0.1330
 5509TIP3    H138162   6.002   1.984   0.720  1.8063 -0.1553 -0.7538
 5509TIP3    H238163   6.005   2.124   0.779 -4.4575 -0.7631  1.7839
 5510TIP3   OH238164   4.009   3.560   2.647  0.0381 -0.6119  0.2911
 5510TIP3    H138165   3.980   3.501   2.577 -0.7056 -1.3945  1.2376
 5510TIP3    H238166   3.990   3.513   2.728 -0.0363  0.6923  1.0606
 5511TIP3   OH238167   3.787   3.282   1.940  0.1038  0.6967  0.4226
 5511TIP3    H138168   3.710   3.229   1.960  1.6182 -1.3457  1.1798
 5511TIP3    H238169   3.822   3.244   1.859  1.6409 -0.0335  1.3790
 5512TIP3   OH238170   2.833   0.363   2.112 -0.1265 -0.2219  0.4169
 5512TIP3    H138171   2.920   0.330   2.092  0.0826  1.1912 -1.1790
 5512TIP3    H238172   2.782   0.345   2.033 -0.9988 -0.0466  0.9262
 5513TIP3   OH238173   4.745   1.292   1.129 -0.4691 -0.1935 -0.0876
 5513TIP3    H138174   4.763   1.385   1.145 -2.5089  0.6302 -1.9890
 5513TIP3    H238175   4.669   1.292   1.070 -1.0561 -3.0989  0.4957
 5514TIP3   OH238176   4.066   1.101   0.243 -0.0735  0.4733  0.4917
 5514TIP3    H138177   4.008   1.057   0.306  0.9447 -2.1036 -0.2528
 5514TIP3    H238178   4.112   1.166   0.296 -0.9905  0.0475  1.8886
 5515TIP3   OH238179   2.990   1.087   2.482  0.2869  0.2109  0.5571
 5515TIP3    H138180   2.908   1.114   2.442  1.3656  1.9430 -0.5886
 5515TIP3    H238181   2.984   0.991   2.486 -1.9974  0.3203  1.0602
 5516TIP3   OH238182   6.179   1.491   8.828  0.4239 -0.5425  0.0427
 5516TIP3    H138183   6.244   1.525   8.766  1.7427 -1.1152  1.0941
 5516TIP3    H238184   6.137   1.419   8.781  0.0707  0.2330 -0.8786
 5517TIP3   OH238185   3.350   3.020   3.204  0.3813 -0.7147  0.1326
 5517TIP3    H138186   3.370   2.955   3.272  0.3655 -0.2015  0.6362
 5517TIP3    H238187   3.436   3.051   3.175  0.4112 -1.5157 -0.6613
 5518TIP3   OH238188   0.972   2.121   0.576  0.0715  0.1062 -0.6130
 5518TIP3    H138189   0.885   2.154   0.598  1.4825  2.7100  1.5633
 5518TIP3    H238190   1.012   2.191   0.524  1.1457 -0.7268 -0.9522
 5519TIP3   OH238191   0.873   1.040   2.355  0.6459 -0.2017 -0.0704
 5519TIP3    H138192   0.945   0.978   2.363  0.1913 -1.0025 -1.6396
 5519TIP3    H238193   0.851   1.039   2.261 -1.6829 -0.3590  0.3971
 5520TIP3   OH238194   4.902   3.225   2.288  0.1848  0.4050  0.2520
 5520TIP3    H138195   4.830   3.178   2.247  0.2608  0.1436  0.4114
 5520TIP3    H238196   4.864   3.265   2.367 -0.4011  2.4107 -0.9659
 5521TIP3   OH238197   3.755   2.416   1.340  0.3729 -0.2692  0.9125
 5521TIP3    H138198   3.680   2.429   1.397  0.1986  1.0331  0.4319
 5521TIP3    H238199   3.801   2.500   1.341 -0.2635  0.2234 -1.7091
 5522TIP3   OH238200   3.183   4.383   7.360  0.2560 -0.0926  0.4889
 5522TIP3    H138201   3.149   4.384   7.450 -0.9707  0.2334  0.0348
 5522TIP3    H238202   3.134   4.451   7.315  0.7455 -0.3650 -0.4743
 5523TIP3   OH238203   4.039   0.916   0.932 -0.1317  0.3561  0.3209
 5523TIP3    H138204   3.978   0.845   0.910 -0.4507  0.0405  2.1330
 5523TIP3    H238205   4.017   0.941   1.021  1.6222  1.0705  0.6002
 5524TIP3   OH238206   2.009   5.068   0.112  0.1498 -0.0805  0.0712
 5524TIP3    H138207   1.990   5.148   0.063  0.2311  0.4763  0.9275
 5524TIP3    H238208   1.929   5.050   0.161  0.7687  0.5888  1.3823
 5525TIP3   OH238209   0.352   0.447   0.706 -0.1990 -0.4388  0.4058
 5525TIP3    H138210   0.284   0.495   0.659  1.8195  1.4981 -0.6844
 5525TIP3    H238211   0.413   0.418   0.638  1.3939  0.0891  1.5650
 5526TIP3   OH238212   1.931   4.470   2.217  0.5857 -0.4732  0.0316
 5526TIP3    H138213   1.865   4.404   2.236  0.0825 -0.0739 -0.3143
 5526TIP3    H238214   1.945   4.515   2.301 -0.7253  0.4633 -0.2155
 5527TIP3   OH238215   6.059   4.523   8.102 -0.1592  0.4976  0.3895
 5527TIP3    H138216   6.074   4.431   8.082  0.0805 -0.0235  2.6748
 5527TIP3    H238217   5.993   4.551   8.038 -1.0070 -1.5433  0.2968
 5528TIP3   OH238218   2.576   6.234   8.358 -0.2266  0.8661 -0.1743
 5528TIP3    H138219   2.639   6.290   8.404  0.3392  0.5103 -0.5055
 5528TIP3    H238220   2.491   6.259   8.394  0.0956  1.4064  0.2256
 5529TIP3   OH238221   1.855   3.017   6.957 -0.0042  0.1138  0.0219
 5529TIP3    H138222   1.792   2.951   6.988  1.9212 -0.8520  2.1715
 5529TIP3    H238223   1.814   3.101   6.979 -1.9519 -0.3030 -1.6451
 5530TIP3   OH238224   0.499   3.386   0.693 -0.2485 -0.4951 -0.2992
 5530TIP3    H138225   0.537   3.330   0.760 -0.0924  0.2803  0.2761
 5530TIP3    H238226   0.410   3.405   0.724 -0.8103 -1.5547 -1.1881
 5531TIP3   OH238227   6.015   4.599   2.286  0.0798 -0.1905  0.3757
 5531TIP3    H138228   6.058   4.679   2.254  1.6466 -0.8826  0.6561
 5531TIP3    H238229   6.086   4.536   2.297 -1.1657 -1.7598 -0.1788
 5532TIP3   OH238230   6.431   3.588   2.343  0.3939  0.3592 -0.0883
 5532TIP3    H138231   6.405   3.545   2.424 -0.1107  1.4394  0.3374
 5532TIP3    H238232   6.378   3.668   2.340  1.5216  1.1114 -0.6971
 5533TIP3   OH238233   3.816   6.531   8.790  0.3136 -0.3690 -0.1409
 5533TIP3    H138234   3.779   6.537   8.879 -1.6511  1.0164 -0.9829
 5533TIP3    H238235   3.791   6.613   8.748  0.2163 -1.4543 -2.3403
 5534TIP3   OH238236   5.450   5.069   1.438  0.2400  0.1199 -0.4359
 5534TIP3    H138237   5.464   5.031   1.351  0.9517  0.0571 -0.2914
 5534TIP3    H238238   5.483   5.159   1.431 -0.6281  0.4516 -0.5163
 5535TIP3   OH238239   1.629   2.942   2.531  0.1047 -0.4230 -0.3900
 5535TIP3    H138240   1.614   2.916   2.622  0.0214 -2.7977 -1.0135
 5535TIP3    H238241   1.607   3.035   2.528  1.3069  0.0239  2.2699
 5536TIP3   OH238242   5.471   3.022   1.200 -0.6286  0.5744  0.0277
 5536TIP3    H138243   5.532   3.053   1.133  0.4379 -0.1787  0.6260
 5536TIP3    H238244   5.410   2.966   1.152  0.3412 -0.2440 -0.2779
 5537TIP3   OH238245   4.750   0.063   1.720 -0.4518 -0.4836 -0.2471
 5537TIP3    H138246   4.842   0.039   1.706 -0.3221 -0.1523  0.0153
 5537TIP3    H238247   4.754   0.147   1.767 -0.8763 -0.9568  0.6748
 5538TIP3   OH238248   1.294   5.458   0.065  0.3569 -0.8836 -0.1008
 5538TIP3    H138249   1.304   5.550   0.041  1.5379 -0.8440  0.4417
 5538TIP3    H238250   1.250   5.417  -0.009  1.3578 -0.2106 -1.0842
 5539TIP3   OH238251   3.152   5.259   9.206  0.0863 -0.2372  0.3536
 5539TIP3    H138252   3.214   5.262   9.280 -0.6127 -0.9386  0.9795
 5539TIP3    H238253   3.134   5.351   9.187 -2.1332  0.0354  3.1312
 5540TIP3   OH238254   4.036   3.178   0.954 -0.2165  0.0780 -0.0410
 5540TIP3    H138255   4.003   3.266   0.934 -0.0189  0.4425  1.1670
 5540TIP3    H238256   4.123   3.177   0.914 -1.0627 -0.3762 -1.9746
 5541TIP3   OH238257   0.592   0.922   0.051 -0.5074  0.8102  0.3765
 5541TIP3    H138258   0.643   0.906  -0.028 -1.0968  2.4664 -0.3799
 5541TIP3    H238259   0.650   0.898   0.123  0.3300  0.0741 -0.5213
 5542TIP3   OH238260   0.937   4.975   0.154 -0.2999 -0.4471  0.4653
 5542TIP3    H138261   0.919   5.045   0.217 -1.8117 -2.5971  2.6172
 5542TIP3    H238262   0.856   4.966   0.103  0.3801  0.2520 -0.7846
 5543TIP3   OH238263   0.593   0.191   0.872 -0.3961 -0.4905  0.8685
 5543TIP3    H138264   0.649   0.114   0.873  1.0848  0.3162 -2.9059
 5543TIP3    H238265   0.653   0.265   0.880 -1.0447  0.3332 -1.1252
 5544TIP3   OH238266   5.084   3.004   8.242  0.0248 -0.3555  0.4622
 5544TIP3    H138267   5.142   3.027   8.169  1.3715 -1.1587  1.2521
 5544TIP3    H238268   5.006   3.059   8.228  1.2189  1.2460 -0.2447
 5545TIP3   OH238269   2.959   1.366   2.362  0.1249 -0.1243 -0.4531
 5545TIP3    H138270   2.900   1.375   2.437  0.2939 -0.6954 -0.2418
 5545TIP3    H238271   2.937   1.281   2.324 -0.4891  0.5019 -1.5324
 5546TIP3   OH238272   1.710   2.523   7.874 -0.2438  0.1912  0.5434
 5546TIP3    H138273   1.663   2.459   7.820 -0.2671  0.8864 -0.2824
 5546TIP3    H238274   1.690   2.607   7.833  1.0789  0.5811  0.6535
 5547TIP3   OH238275   1.050   2.798   0.717  0.2424 -0.0429  0.1862
 5547TIP3    H138276   1.037   2.893   0.712 -0.3770 -0.0731  1.0052
 5547TIP3    H238277   1.090   2.784   0.804  0.4185 -0.5229  0.0329
 5548TIP3   OH238278   3.917   2.445   9.151 -0.5778  0.4587  0.8074
 5548TIP3    H138279   3.968   2.463   9.072  1.1891  0.2956  1.8396
 5548TIP3    H238280   3.881   2.357   9.137  0.0738  0.2561  0.3431
 5549TIP3   OH238281   5.331   6.024   2.134 -0.2763  0.5129  0.1429
 5549TIP3    H138282   5.345   6.065   2.219  0.3660  0.6850 -0.0431
 5549TIP3    H238283   5.251   5.972   2.146  0.7629 -0.8944  1.3786
 5550TIP3   OH238284   3.402   0.287   0.476 -0.1675  0.5449 -0.6996
 5550TIP3    H138285   3.390   0.297   0.382 -0.3467 -0.1165 -0.7481
 5550TIP3    H238286   3.422   0.195   0.488 -0.2702  0.6024 -0.0729
 5551TIP3   OH238287   2.187   4.259   2.315  0.5125 -0.5450 -0.5200
 5551TIP3    H138288   2.275   4.244   2.349  0.5860 -0.7023 -0.7727
 5551TIP3    H238289   2.198   4.331   2.253  0.4546 -0.5350 -0.5180
 5552TIP3   OH238290   0.445   0.095   1.352  0.7197  0.0083 -0.3411
 5552TIP3    H138291   0.414   0.081   1.442  2.5214  1.4811  0.5949
 5552TIP3    H238292   0.512   0.028   1.339  0.2451 -0.3974 -0.7096
 5553TIP3   OH238293   3.875   6.326   0.130 -0.2518 -0.2740 -0.3250
 5553TIP3    H138294   3.852   6.234   0.139  1.3860 -1.1761 -3.7630
 5553TIP3    H238295   3.795   6.368   0.097 -0.7140 -0.6444  0.3112
 5554TIP3   OH238296   6.660   0.060   8.072  0.2715  0.0185  0.2058
 5554TIP3    H138297   6.584   0.081   8.017  1.2311  1.3795 -0.6588
 5554TIP3    H238298   6.717   0.008   8.015 -1.1054 -3.3487  1.6580
 5555TIP3   OH238299   1.006   6.474   2.010 -0.0167  0.7631 -0.5758
 5555TIP3    H138300   0.975   6.384   1.998  0.4824  0.3078  1.2353
 5555TIP3    H238301   0.947   6.526   1.957 -0.4155 -0.6185 -1.5483
 5556TIP3   OH238302   1.270   5.974   7.100 -0.7108  0.0684 -0.4902
 5556TIP3    H138303   1.347   6.002   7.149  0.3626 -0.1766 -1.9443
 5556TIP3    H238304   1.245   6.050   7.048  0.2990 -0.6535 -2.1096
 5557TIP3   OH238305   1.802   3.980   7.870 -0.1391 -0.0695 -0.1862
 5557TIP3    H138306   1.749   3.984   7.791  1.4402  0.5280 -1.2590
 5557TIP3    H238307   1.738   3.974   7.941 -1.6093 -0.0218 -1.4478
 5558TIP3   OH238308   6.196   4.265   1.682  0.3630  0.0508 -0.6544
 5558TIP3    H138309   6.266   4.224   1.733 -0.8657 -0.8625  0.3732
 5558TIP3    H238310   6.239   4.334   1.633  2.2716 -1.4685 -1.2518
 5559TIP3   OH238311   4.779   2.965   0.052 -0.4622 -0.0213  0.0439
 5559TIP3    H138312   4.871   2.985   0.033 -0.8703  1.5632 -0.4339
 5559TIP3    H238313   4.764   3.001   0.139 -0.6456 -0.2328  0.1002
 5560TIP3   OH238314   4.904   4.366   8.970 -0.5694  0.6431 -0.4574
 5560TIP3    H138315   4.946   4.366   9.056 -1.0506 -0.0629 -0.2075
 5560TIP3    H238316   4.923   4.280   8.934 -3.1813 -0.4282  0.4061
 5561TIP3   OH238317   2.723   5.175   8.531  0.2637 -0.0374 -0.3283
 5561TIP3    H138318   2.774   5.251   8.558  0.6389  0.3189 -1.9462
 5561TIP3    H238319   2.637   5.210   8.508  0.4149 -0.0927 -1.0090
 5562TIP3   OH238320   0.836   3.337   8.953 -0.5736 -0.6417  0.1846
 5562TIP3    H138321   0.869   3.426   8.943  1.0076 -1.3845 -2.2480
 5562TIP3    H238322   0.857   3.314   9.044  0.7828  0.8118  0.2915
 5563TIP3   OH238323   5.472   0.009   9.074 -0.1828 -0.0828 -0.1717
 5563TIP3    H138324   5.464  -0.083   9.050 -1.1743 -0.0154 -0.1404
 5563TIP3    H238325   5.477   0.008   9.170 -1.5882 -0.0286 -0.0859
 5564TIP3   OH238326   5.251   1.059   9.128 -0.0931  0.0579  0.0512
 5564TIP3    H138327   5.197   0.980   9.129 -1.6736  1.0991  1.0280
 5564TIP3    H238328   5.314   1.044   9.057 -0.2630 -2.0999  0.2752
 5565TIP3   OH238329   5.094   3.362   2.030 -0.5258  0.0859  0.2428
 5565TIP3    H138330   5.149   3.314   1.968  1.3022 -0.5252  2.2213
 5565TIP3    H238331   5.005   3.333   2.010  0.2377 -1.9130 -0.5641
 5566TIP3   OH238332   5.511   0.843   2.509  0.1112 -0.5568  0.6340
 5566TIP3    H138333   5.454   0.811   2.579 -1.2871 -1.1182 -0.6955
 5566TIP3    H238334   5.452   0.856   2.434  1.7108 -1.1159 -0.7915
 5567TIP3   OH238335   4.864   4.961   2.384 -0.1452  0.3155  0.3168
 5567TIP3    H138336   4.779   4.917   2.382  0.2331 -0.4091 -0.1098
 5567TIP3    H238337   4.925   4.897   2.350  0.3071  1.4456 -1.1192
 5568TIP3   OH238338   4.375   4.060   8.448  0.0595 -0.4442 -0.2190
 5568TIP3    H138339   4.435   4.001   8.493  0.3659  0.3166  0.4049
 5568TIP3    H238340   4.390   4.145   8.489 -0.4668  0.0428 -1.0020
 5569TIP3   OH238341   6.631   3.031   1.243  0.1703 -0.2764  0.2951
 5569TIP3    H138342   6.639   2.936   1.245  0.5375 -0.2449  0.2699
 5569TIP3    H238343   6.696   3.063   1.305  0.0250 -0.0419  0.3289
 5570TIP3   OH238344   5.612   6.393   0.516 -0.2104 -0.0600 -0.2508
 5570TIP3    H138345   5.663   6.343   0.451  1.3436 -0.6950  1.3728
 5570TIP3    H238346   5.673   6.459   0.548 -1.2725  0.8710 -0.0875
 5571TIP3   OH238347   5.474   0.414   1.752 -0.1488  0.1575  0.0469
 5571TIP3    H138348   5.391   0.458   1.733  0.3639  0.8045 -0.7931
 5571TIP3    H238349   5.464   0.326   1.717  0.6383  1.2050 -3.1227
 5572TIP3   OH238350   3.632   2.389   1.675  1.0076  0.3754  0.1705
 5572TIP3    H138351   3.671   2.392   1.762 -0.7750  0.3604  1.0040
 5572TIP3    H238352   3.560   2.326   1.683  0.1732  1.1374 -1.0325
 5573TIP3   OH238353   4.249   5.840   9.137 -0.2170 -0.2099 -0.4852
 5573TIP3    H138354   4.337   5.813   9.108 -0.0112 -0.1937  0.1140
 5573TIP3    H238355   4.220   5.900   9.068  0.0203 -0.6207 -0.9582
 5574TIP3   OH238356   1.726   3.849   7.389  0.1631  0.6276 -0.0232
 5574TIP3    H138357   1.777   3.892   7.320  0.9625  0.4971  0.4758
 5574TIP3    H238358   1.770   3.765   7.402 -2.2134 -1.0977 -2.0152
 5575TIP3   OH238359   2.658   2.701   8.308  0.2145  0.3850  0.3997
 5575TIP3    H138360   2.731   2.663   8.258 -0.0461  0.3307  0.0542
 5575TIP3    H238361   2.700   2.746   8.381  0.8555  2.8572 -1.3430
 5576TIP3   OH238362   4.774   6.703   7.366 -0.2054 -0.0273  0.3936
 5576TIP3    H138363   4.780   6.779   7.423  0.3066 -0.2526  0.6432
 5576TIP3    H238364   4.683   6.703   7.336 -0.8261 -0.5601  2.1365
 5577TIP3   OH238365   0.491   5.585   1.800 -0.6169 -0.1843  0.0383
 5577TIP3    H138366   0.572   5.563   1.846  0.4535 -0.7401 -2.0069
 5577TIP3    H238367   0.466   5.504   1.755 -0.9616  0.6298 -1.2812
 5578TIP3   OH238368   3.152   3.439   0.928  0.6190  0.0814  0.6400
 5578TIP3    H138369   3.211   3.486   0.871  0.1650 -0.9468 -0.7327
 5578TIP3    H238370   3.093   3.392   0.869  2.1797 -3.7144  1.7671
 5579TIP3   OH238371   5.301   0.619   1.590  0.2125 -0.1289 -0.5870
 5579TIP3    H138372   5.223   0.565   1.597  0.0683  0.2363  0.7923
 5579TIP3    H238373   5.268   0.703   1.557 -0.4405  0.8871  2.3817
 5580TIP3   OH238374   4.391   3.710   8.126 -0.1399  0.5056  0.8353
 5580TIP3    H138375   4.379   3.632   8.073  1.3964 -0.1872  1.4380
 5580TIP3    H238376   4.469   3.752   8.090  0.2155  0.6655  1.7663
 5581TIP3   OH238377   3.452   3.966   1.195 -0.2409 -0.3169  0.2502
 5581TIP3    H138378   3.534   3.934   1.157 -0.0295  0.0265  0.4067
 5581TIP3    H238379   3.410   3.888   1.231  0.6645 -0.3254  1.3707
 5582TIP3   OH238380   5.704   6.662   0.865  0.1465 -0.0673 -0.3998
 5582TIP3    H138381   5.706   6.568   0.846  1.0773 -0.1865  0.2022
 5582TIP3    H238382   5.753   6.702   0.793  0.7929 -0.1804 -0.0358
 5583TIP3   OH238383   5.558   4.772   1.913  0.2520  0.4279  0.2138
 5583TIP3    H138384   5.628   4.722   1.871  0.7182  1.1120  0.1535
 5583TIP3    H238385   5.488   4.774   1.847  0.4208  0.2674  0.0281
 5584TIP3   OH238386   4.359   5.049   9.135  0.0262 -0.0676  0.0948
 5584TIP3    H138387   4.276   5.004   9.151 -1.1201  2.1241  0.6621
 5584TIP3    H238388   4.334   5.139   9.117  2.3259  0.7120  0.5189
 5585TIP3   OH238389   5.345   3.712   2.929 -0.0652  0.1892  0.3004
 5585TIP3    H138390   5.438   3.717   2.951  0.4942 -2.5348 -0.9813
 5585TIP3    H238391   5.343   3.726   2.834 -0.9771  0.3044  0.3325
 5586TIP3   OH238392   2.402   2.366   8.565  0.6670 -0.9546  0.0572
 5586TIP3    H138393   2.483   2.335   8.606  1.0576 -0.9765 -0.7143
 5586TIP3    H238394   2.417   2.458   8.546 -0.2102 -0.4494  1.6385
 5587TIP3   OH238395   0.505   6.182   1.168  0.2755  0.3948 -0.4526
 5587TIP3    H138396   0.569   6.135   1.222 -0.0850  1.9079  1.3785
 5587TIP3    H238397   0.420   6.155   1.202 -0.0753 -0.5062 -1.9429
 5588TIP3   OH238398   0.193   3.067   7.510  0.2947  0.1834 -0.2221
 5588TIP3    H138399   0.223   3.110   7.430  0.4329 -0.7767 -0.6989
 5588TIP3    H238400   0.225   3.123   7.581 -0.6033  1.5256 -0.8417
 5589TIP3   OH238401   6.631   5.245   0.128 -0.1812 -0.3548 -0.1217
 5589TIP3    H138402   6.548   5.268   0.172  0.4429 -1.7023  1.9055
 5589TIP3    H238403   6.693   5.310   0.161  0.0117 -0.5770 -0.0511
 5590TIP3   OH238404   2.437   1.428   1.487 -0.5856 -0.1949 -0.0544
 5590TIP3    H138405   2.386   1.437   1.567 -2.4854  0.9628 -1.3350
 5590TIP3    H238406   2.483   1.512   1.478  0.0227 -0.5102  0.0768
 5591TIP3   OH238407   5.832   6.630   7.756 -0.2467 -0.0521  0.5450
 5591TIP3    H138408   5.922   6.618   7.726 -0.1560 -1.3388  1.2408
 5591TIP3    H238409   5.778   6.611   7.679  0.0236 -1.9140  0.7680
 5592TIP3   OH238410   4.204   1.797   8.888 -0.3529 -0.6677  0.6299
 5592TIP3    H138411   4.160   1.829   8.967 -1.3719 -1.5184  0.4279
 5592TIP3    H238412   4.240   1.876   8.847 -3.1553  0.3711 -0.0829
 5593TIP3   OH238413   2.988   6.710   8.850  0.6690 -0.6540 -0.1655
 5593TIP3    H138414   3.083   6.706   8.842  0.8057 -3.1097  1.3060
 5593TIP3    H238415   2.972   6.780   8.914  1.2525  1.3674 -2.1411
 5594TIP3   OH238416   0.975   6.674   8.683  0.0670 -0.1642 -0.6285
 5594TIP3    H138417   0.927   6.599   8.720  0.6787 -0.9498 -1.3867
 5594TIP3    H238418   0.949   6.748   8.737  0.5849 -1.1869  1.0971
 5595TIP3   OH238419   0.600   3.528   8.491 -0.2393  0.2904  0.3436
 5595TIP3    H138420   0.616   3.540   8.397 -1.8041  1.0817  0.1271
 5595TIP3    H238421   0.607   3.433   8.505  2.0833  0.3462 -0.1110
 5596TIP3   OH238422   6.145   6.084   1.688 -0.1832  0.0360  0.4152
 5596TIP3    H138423   6.218   6.135   1.721 -0.6678  0.3632  1.0037
 5596TIP3    H238424   6.070   6.144   1.690 -1.1057 -1.0836  2.5711
 5597TIP3   OH238425   2.211   6.339   7.867  0.8966 -0.1401  0.3139
 5597TIP3    H138426   2.255   6.371   7.789  0.9143  0.0856  0.4182
 5597TIP3    H238427   2.163   6.261   7.837  0.3660  0.3298 -0.0703
 5598TIP3   OH238428   6.669   3.481   0.848  0.4954  0.1531  0.0364
 5598TIP3    H138429   6.611   3.545   0.890  1.4153 -0.6356  2.6737
 5598TIP3    H238430   6.610   3.425   0.798 -0.7896  0.5935  0.9970
 5599TIP3   OH238431   3.563   0.021   2.172  0.0763  0.0071  0.5202
 5599TIP3    H138432   3.507  -0.016   2.241 -0.1601  0.8069  0.7657
 5599TIP3    H238433   3.652  -0.004   2.196 -0.1237 -0.8088  0.4232
 5600TIP3   OH238434   5.072   5.786   8.060  0.0269 -0.1409  0.1342
 5600TIP3    H138435   5.075   5.847   8.134 -1.7196  1.3846 -0.9451
 5600TIP3    H238436   5.005   5.823   8.002 -0.0361 -2.3264 -1.2938
 5601TIP3   OH238437   5.747   5.209   1.586 -0.0557  0.0381 -0.1642
 5601TIP3    H138438   5.705   5.229   1.503 -0.0754 -1.4555 -0.5354
 5601TIP3    H238439   5.823   5.156   1.562 -0.0820 -0.4370  0.7720
 5602TIP3   OH238440   0.090   6.576   7.941 -0.1756  0.4831  0.2486
 5602TIP3    H138441   0.141   6.496   7.951  0.3980  0.4357 -2.4545
 5602TIP3    H238442   0.033   6.559   7.866  0.1851  2.6877 -0.5969
 5603TIP3   OH238443   4.145   5.742   2.702  0.0117 -0.2914 -0.3027
 5603TIP3    H138444   4.063   5.786   2.679 -0.6458 -1.6107 -0.6151
 5603TIP3    H238445   4.130   5.707   2.790  0.5599  0.2025 -0.0132
 5604TIP3   OH238446   0.580   3.272   8.909  0.2761 -0.5650 -0.5913
 5604TIP3    H138447   0.569   3.184   8.945 -0.8944  0.0185  0.5561
 5604TIP3    H238448   0.670   3.296   8.931 -0.0590 -0.6710  0.9897
 5605TIP3   OH238449   1.456   3.246   0.866  0.4332 -0.1439 -0.2590
 5605TIP3    H138450   1.528   3.308   0.853 -0.1108  0.3816 -0.8538
 5605TIP3    H238451   1.422   3.230   0.778 -0.8275  0.4176  0.0961
 5606TIP3   OH238452   2.865   2.301   0.984 -0.6930 -0.1081 -0.8915
 5606TIP3    H138453   2.832   2.358   1.054 -3.1687 -0.1281 -1.9208
 5606TIP3    H238454   2.864   2.214   1.023 -1.5659 -0.0579 -0.7742
 5607TIP3   OH238455   3.482   4.542   2.122 -0.1156 -0.5110 -0.5394
 5607TIP3    H138456   3.574   4.518   2.119 -0.4128 -1.7448 -0.2289
 5607TIP3    H238457   3.482   4.638   2.114  1.1675 -0.5110 -0.7499
 5608TIP3   OH238458   3.349   4.910   2.284  0.1719 -0.2088  0.0981
 5608TIP3    H138459   3.420   4.909   2.220  0.3243  1.5992  0.1948
 5608TIP3    H238460   3.280   4.856   2.245  0.9232 -0.5373 -0.7891
 5609TIP3   OH238461   2.105   0.834   2.945 -0.0492  0.8980  0.0637
 5609TIP3    H138462   2.097   0.739   2.945  3.0725  0.5054 -0.6895
 5609TIP3    H238463   2.113   0.858   2.852  3.4912  1.2498  0.3187
 5610TIP3   OH238464   2.183   3.185   2.093 -0.7056  0.3435 -0.0163
 5610TIP3    H138465   2.142   3.173   2.179  0.0547 -0.2051  0.2834
 5610TIP3    H238466   2.169   3.102   2.048  1.5084 -0.4964  0.7307
 5611TIP3   OH238467   5.795   5.632   1.589  0.4562 -0.6769  0.0948
 5611TIP3    H138468   5.817   5.649   1.497  1.2250 -1.4451  0.1205
 5611TIP3    H238469   5.867   5.673   1.638 -0.2295  0.2052  0.3991
 5612TIP3   OH238470   3.371   0.282   7.156  0.0977  0.8442 -0.4480
 5612TIP3    H138471   3.463   0.290   7.179  0.2099 -0.6212 -0.3070
 5612TIP3    H238472   3.334   0.368   7.176  1.0789  0.9401  1.1373
 5613TIP3   OH238473   4.755   3.837   1.444  0.0029 -0.0101  0.0745
 5613TIP3    H138474   4.690   3.892   1.399 -0.5636 -2.6131 -2.5573
 5613TIP3    H238475   4.728   3.748   1.425  0.4494 -1.4368  4.7298
 5614TIP3   OH238476   5.154   6.255   1.362  0.6215  0.0347  0.3871
 5614TIP3    H138477   5.206   6.199   1.304 -0.2505 -0.1947 -0.1924
 5614TIP3    H238478   5.114   6.193   1.424  0.0692  0.0671  0.0672
 5615TIP3   OH238479   4.618   3.479   1.001  0.2175  0.1661  0.0696
 5615TIP3    H138480   4.712   3.494   1.012  0.8822  0.3758 -4.1565
 5615TIP3    H238481   4.607   3.385   1.015  1.2230 -0.0048 -0.2043
 5616TIP3   OH238482   4.953   2.405   8.260  0.8889 -0.0822  0.1988
 5616TIP3    H138483   5.008   2.434   8.186  0.2477 -1.6083 -0.9230
 5616TIP3    H238484   4.985   2.317   8.281 -0.7483 -0.7772 -0.1250
 5617TIP3   OH238485   4.859   0.285   9.109  0.4964  0.5517  0.7983
 5617TIP3    H138486   4.924   0.245   9.052  0.0647 -0.1965  0.8129
 5617TIP3    H238487   4.902   0.362   9.145  0.4814  1.5990 -1.2628
 5618TIP3   OH238488   5.097   0.027   9.209 -0.0266 -0.0024  0.3796
 5618TIP3    H138489   5.088   0.085   9.284 -0.4090 -0.7007  0.8907
 5618TIP3    H238490   5.014  -0.022   9.207 -0.1741  0.2826 -0.7302
 5619TIP3   OH238491   6.650   4.627   8.766  0.0344 -0.0067 -0.6969
 5619TIP3    H138492   6.726   4.680   8.743  0.2711  0.4948  1.1101
 5619TIP3    H238493   6.582   4.690   8.789 -0.1908 -0.4545 -0.0814
 5620TIP3   OH238494   5.903   5.989   8.413  0.0208 -0.5373 -0.0267
 5620TIP3    H138495   5.958   5.916   8.385  1.4197  0.0524  1.0404
 5620TIP3    H238496   5.861   5.958   8.494  0.7497 -0.1217  0.5213
 5621TIP3   OH238497   2.992   2.008   7.183 -0.4250  0.0323 -0.0169
 5621TIP3    H138498   3.070   1.955   7.199 -0.5652 -0.2134 -0.1526
 5621TIP3    H238499   3.002   2.039   7.092 -1.2670 -1.3195 -0.5984
 5622TIP3   OH238500   5.723   2.539   0.394  0.2986  0.3433 -0.8329
 5622TIP3    H138501   5.796   2.601   0.397  1.4243 -0.9386 -0.7608
 5622TIP3    H238502   5.683   2.545   0.480  1.3100 -0.0660 -0.3150
 5623TIP3   OH238503   0.871   0.251   2.240 -0.4289  0.5686 -0.4873
 5623TIP3    H138504   0.859   0.166   2.283  0.7897  0.5803 -0.0862
 5623TIP3    H238505   0.808   0.309   2.283  0.2598  0.3992  0.8114
 5624TIP3   OH238506   2.350   2.245   1.684  0.2640  0.0369 -0.2561
 5624TIP3    H138507   2.319   2.198   1.761  1.0206 -0.5411 -0.2969
 5624TIP3    H238508   2.442   2.222   1.677  0.2526  0.2332 -1.2276
 5625TIP3   OH238509   4.509   0.818   2.765  0.1759 -0.3378 -0.1694
 5625TIP3    H138510   4.496   0.912   2.763  0.9559 -0.2084  0.3951
 5625TIP3    H238511   4.601   0.806   2.743  0.5560 -0.8399  1.5488
 5626TIP3   OH238512   4.474   6.545   1.469 -0.7975  0.3656 -0.1279
 5626TIP3    H138513   4.501   6.544   1.560  0.5623 -0.9476 -0.5162
 5626TIP3    H238514   4.410   6.474   1.461 -0.1142 -0.2295 -0.4082
 5627TIP3   OH238515   5.273   6.529   1.284 -0.0703 -0.1257 -0.1332
 5627TIP3    H138516   5.356   6.493   1.254  0.3413  0.8088 -0.1613
 5627TIP3    H238517   5.243   6.469   1.352  1.7540  0.7005  1.4921
 5628TIP3   OH238518   6.587   4.847   1.987  0.0352 -0.1438 -0.3458
 5628TIP3    H138519   6.574   4.782   1.918  1.5560 -2.5888  1.5262
 5628TIP3    H238520   6.535   4.814   2.061  0.5268  0.9874  0.5320
 5629TIP3   OH238521   1.187   0.247   0.103  0.0107 -0.7062 -0.3799
 5629TIP3    H138522   1.279   0.272   0.110  0.4086 -1.5873 -2.0340
 5629TIP3    H238523   1.188   0.152   0.108 -0.8885 -0.7011  0.1142
 5630TIP3   OH238524   1.852   6.451   2.547  0.8257  0.0985  0.0960
 5630TIP3    H138525   1.843   6.436   2.642 -1.6201  0.2259 -0.0541
 5630TIP3    H238526   1.817   6.371   2.507 -2.0536  1.5824 -0.6441
 5631TIP3   OH238527   5.681   0.514   2.301  0.1362  0.8226  0.0417
 5631TIP3    H138528   5.694   0.433   2.251  1.4278  0.6557  0.6112
 5631TIP3    H238529   5.628   0.569   2.244  0.0965 -0.0407 -0.7781
 5632TIP3   OH238530   2.718   5.789   0.772 -0.4849  0.0758 -0.2051
 5632TIP3    H138531   2.678   5.858   0.719 -1.9259  0.0820  0.8272
 5632TIP3    H238532   2.644   5.749   0.818  0.6860 -0.2137  1.4803
 5633TIP3   OH238533   6.530   2.472   2.156  0.7623  0.3368  0.7876
 5633TIP3    H138534   6.555   2.498   2.244  1.2098 -0.1132  0.7961
 5633TIP3    H238535   6.455   2.414   2.168  1.5831 -0.7127  0.9605
 5634TIP3   OH238536   1.769   1.216   9.168  0.4738 -0.1749  0.0438
 5634TIP3    H138537   1.783   1.288   9.107 -1.8802  0.3080 -0.0174
 5634TIP3    H238538   1.801   1.249   9.252  2.7346 -0.4528 -0.6304
 5635TIP3   OH238539   2.387   1.075   2.895 -0.0542  0.2080 -0.3979
 5635TIP3    H138540   2.347   1.150   2.939 -1.2605 -0.2780 -0.6371
 5635TIP3    H238541   2.465   1.111   2.853  0.6576  0.8606  1.3763
 5636TIP3   OH238542   4.136   2.774   1.756 -0.1463  0.2343 -0.0240
 5636TIP3    H138543   4.105   2.862   1.778  1.1647  1.1244 -1.4618
 5636TIP3    H238544   4.113   2.763   1.664 -0.9022 -1.2270  0.3211
 5637TIP3   OH238545   4.196   3.833   7.679  0.0189 -0.7774 -0.3815
 5637TIP3    H138546   4.156   3.773   7.743 -0.6286  0.0409 -0.0061
 5637TIP3    H238547   4.123   3.861   7.624 -0.2530  1.7859  1.1366
 5638TIP3   OH238548   2.692   3.610   7.815 -0.6473  0.4092  0.1817
 5638TIP3    H138549   2.707   3.559   7.736 -0.7661  0.1344  0.3344
 5638TIP3    H238550   2.678   3.699   7.784 -1.9103  0.0896 -0.2077
 5639TIP3   OH238551   3.616   5.381   0.974  0.2222 -0.0067  0.3309
 5639TIP3    H138552   3.548   5.446   0.964  0.1401 -0.0241  0.7682
 5639TIP3    H238553   3.697   5.431   0.984 -0.1393  0.1384  3.2673
 5640TIP3   OH238554   6.280   3.385   2.515 -0.3764  0.1797  0.1156
 5640TIP3    H138555   6.263   3.469   2.557 -1.3479 -0.0256  0.1535
 5640TIP3    H238556   6.322   3.332   2.583 -1.1244  0.1469  0.5641
 5641TIP3   OH238557   3.748   3.454   8.796 -0.2761  0.6694 -0.0902
 5641TIP3    H138558   3.722   3.379   8.743  2.3034  0.3808 -1.0986
 5641TIP3    H238559   3.713   3.530   8.750 -1.1421  0.2129 -0.1955
 5642TIP3   OH238560   4.888   0.185   2.225  0.3135  0.2792 -0.0731
 5642TIP3    H138561   4.895   0.138   2.142  1.0731 -1.1223  0.7436
 5642TIP3    H238562   4.979   0.205   2.249  0.1680  0.0068  0.7552
 5643TIP3   OH238563   4.893   2.503   3.196  0.3520  0.3873 -0.1196
 5643TIP3    H138564   4.880   2.408   3.196 -0.8619  0.5070 -1.9396
 5643TIP3    H238565   4.945   2.520   3.118  0.5553  1.2310  0.1896
 5644TIP3   OH238566   2.601   4.989   8.702 -0.5218  0.5014  0.4595
 5644TIP3    H138567   2.662   4.932   8.748 -0.9583  0.7973  1.4226
 5644TIP3    H238568   2.657   5.048   8.652  0.0114  1.0297  1.6386
 5645TIP3   OH238569   1.661   4.192   7.484 -0.3006  0.3224 -0.3897
 5645TIP3    H138570   1.571   4.205   7.454  0.3221  1.9945 -1.6984
 5645TIP3    H238571   1.715   4.217   7.409  1.2879  0.2526  0.6808
 5646TIP3   OH238572   2.717   3.517   2.223  0.0070 -0.2767  0.0626
 5646TIP3    H138573   2.761   3.443   2.263 -3.5235 -2.4901  0.3299
 5646TIP3    H238574   2.688   3.486   2.138 -3.2199 -0.0557  0.9394
 5647TIP3   OH238575   1.079   2.690   9.205 -0.1464  0.0947  1.0166
 5647TIP3    H138576   1.101   2.780   9.227 -1.7648  0.2521  2.1811
 5647TIP3    H238577   0.989   2.678   9.237 -0.4488 -1.5408 -0.2582
 5648TIP3   OH238578   5.037   3.561   2.273  0.2741 -0.2067  0.2625
 5648TIP3    H138579   4.942   3.569   2.284  0.0125 -1.4999 -0.8967
 5648TIP3    H238580   5.067   3.652   2.263 -1.0151  0.1454 -0.7113
 5649TIP3   OH238581   4.172   4.202   1.372  0.8027  0.1208 -0.3306
 5649TIP3    H138582   4.184   4.159   1.287  1.4414  0.5076 -0.4411
 5649TIP3    H238583   4.260   4.206   1.410  0.6024  0.4447  0.1119
 5650TIP3   OH238584   5.107   0.400   1.660  0.4071  0.1918 -0.0445
 5650TIP3    H138585   5.077   0.326   1.607  0.1826  0.0264  0.3133
 5650TIP3    H238586   5.155   0.360   1.733  1.7988  0.4553 -0.7687
 5651TIP3   OH238587   0.809   0.186   1.920  0.3237 -0.7078  0.2915
 5651TIP3    H138588   0.880   0.153   1.975 -0.2930 -0.5996  1.1789
 5651TIP3    H238589   0.734   0.194   1.980 -0.6662 -1.5867 -0.7712
 5652TIP3   OH238590   4.827   4.875   1.858 -0.2902  0.3297 -0.0905
 5652TIP3    H138591   4.833   4.831   1.773 -2.0125  0.4766 -0.3100
 5652TIP3    H238592   4.841   4.806   1.922  0.1115  0.0540 -0.4680
 5653TIP3   OH238593   0.060   2.312   0.109  0.2566  0.2756 -0.6689
 5653TIP3    H138594   0.126   2.245   0.088 -0.5446 -0.6064 -0.4129
 5653TIP3    H238595   0.018   2.332   0.026 -0.9001 -1.0644 -0.4456
 5654TIP3   OH238596   3.615   3.113   3.119 -0.2718 -0.6381 -0.2595
 5654TIP3    H138597   3.650   3.172   3.052  1.4784  0.2462  1.3433
 5654TIP3    H238598   3.683   3.047   3.131 -1.0977 -1.4973 -0.2087
 5655TIP3   OH238599   5.758   5.995   0.757 -0.1733  0.2091  0.3357
 5655TIP3    H138600   5.674   6.007   0.713  0.5529  1.0751 -0.8881
 5655TIP3    H238601   5.806   6.076   0.740  1.3971 -0.7668 -0.1369
 5656TIP3   OH238602   1.955   3.039   8.217 -0.8447  0.4272  0.0102
 5656TIP3    H138603   2.018   3.098   8.175 -1.2114  1.1163  0.4145
 5656TIP3    H238604   1.998   2.954   8.215  0.5917  1.0661  1.2400
 5657TIP3   OH238605   0.706   6.352   1.800 -0.1354  0.0419 -0.0975
 5657TIP3    H138606   0.716   6.276   1.744 -0.2798 -0.8117  1.0048
 5657TIP3    H238607   0.648   6.323   1.871  0.5473  0.8763  0.8404
 5658TIP3   OH238608   3.289   6.077   1.154  1.0930  0.3597  0.2199
 5658TIP3    H138609   3.263   6.142   1.089 -0.0582  0.1219  0.4098
 5658TIP3    H238610   3.286   6.124   1.237 -1.1147 -0.2008  0.5455
 5659TIP3   OH238611   5.482   2.936   0.300  0.2905 -0.2681 -0.5178
 5659TIP3    H138612   5.461   2.867   0.237  1.7008  0.0994 -1.4344
 5659TIP3    H238613   5.543   2.896   0.361  0.4340 -0.0794 -0.5365
 5660TIP3   OH238614   4.593   3.405   0.123  0.3530 -0.5590 -0.3418
 5660TIP3    H138615   4.684   3.379   0.141 -0.2406 -1.5105  1.5138
 5660TIP3    H238616   4.550   3.324   0.094  0.1412 -0.0357 -1.5641
 5661TIP3   OH238617   6.394   5.288   1.700 -0.2689  0.3347  0.1585
 5661TIP3    H138618   6.462   5.330   1.752 -0.7884  1.9001 -0.3610
 5661TIP3    H238619   6.361   5.218   1.755  1.9757 -0.6920  0.2901
 5662TIP3   OH238620   4.192   6.641   1.967  0.1248  0.3093 -0.1338
 5662TIP3    H138621   4.150   6.721   2.000  1.1357  0.7644  0.0900
 5662TIP3    H238622   4.132   6.571   1.991  0.1233  0.7922  1.3590
 5663TIP3   OH238623   6.640   0.681   2.150 -0.2793 -0.0826 -0.2611
 5663TIP3    H138624   6.728   0.644   2.148 -0.1991  0.1341 -0.9807
 5663TIP3    H238625   6.629   0.724   2.065 -0.2679  1.7448  0.5945
 5664TIP3   OH238626   3.952   2.915   2.087 -0.0258  0.1826  0.0703
 5664TIP3    H138627   3.913   2.828   2.079 -0.2898  0.2226  0.8151
 5664TIP3    H238628   3.891   2.963   2.144 -0.7095  1.3477 -1.5434
 5665TIP3   OH238629   5.752   0.283   2.154 -0.4580  0.6539 -0.1515
 5665TIP3    H138630   5.795   0.290   2.069  0.3545  0.9000  0.2659
 5665TIP3    H238631   5.693   0.208   2.146  1.7215 -1.1752 -0.0609
 5666TIP3   OH238632   5.875   5.666   8.085  0.9583 -0.2468 -0.8593
 5666TIP3    H138633   5.818   5.657   8.008  0.2777 -1.9913 -0.2099
 5666TIP3    H238634   5.859   5.755   8.116 -0.4646 -0.2636 -1.4480
 5667TIP3   OH238635   5.697   1.744   1.687 -0.0044 -0.7397 -0.0982
 5667TIP3    H138636   5.791   1.746   1.710  0.1720  0.4080 -0.8503
 5667TIP3    H238637   5.655   1.709   1.765  0.7835  1.2701  1.3253
 5668TIP3   OH238638   3.880   3.607   1.498  0.2827 -0.5201  0.4321
 5668TIP3    H138639   3.862   3.598   1.591  0.2857 -2.3468  0.2943
 5668TIP3    H238640   3.887   3.517   1.466 -1.0510  0.0199 -1.5943
 5669TIP3   OH238641   3.151   6.441   1.765  0.2013 -0.1834 -0.0492
 5669TIP3    H138642   3.205   6.454   1.687  0.5813 -1.1147  0.0478
 5669TIP3    H238643   3.178   6.356   1.799  1.1986  0.8785  2.0306
 5670TIP3   OH238644   6.567   4.827   0.380 -0.0659  0.4441  0.2593
 5670TIP3    H138645   6.544   4.752   0.434 -2.1523 -0.1367 -1.2650
 5670TIP3    H238646   6.661   4.838   0.391  0.2936 -2.3542  0.5894
 5671TIP3   OH238647   2.731   0.993   0.444 -0.6444 -0.1849 -0.5208
 5671TIP3    H138648   2.824   0.973   0.434 -0.8876 -3.3311  1.9112
 5671TIP3    H238649   2.693   0.970   0.359  0.6500  0.3357 -1.2797
 5672TIP3   OH238650   2.767   4.844   7.815 -0.6001  0.0886 -1.0127
 5672TIP3    H138651   2.856   4.837   7.849 -0.7319 -1.0193 -0.8450
 5672TIP3    H238652   2.777   4.838   7.720 -0.4298  0.8843 -1.0533
 5673TIP3   OH238653   0.792   3.664   2.398 -0.4215 -0.4135  0.3177
 5673TIP3    H138654   0.703   3.695   2.377 -0.4074 -0.6043 -0.0303
 5673TIP3    H238655   0.835   3.655   2.313 -0.0200 -0.1827  0.4949
 5674TIP3   OH238656   4.744   2.306   2.122  0.5436 -0.7529  0.0513
 5674TIP3    H138657   4.684   2.241   2.085  0.9394 -1.2518  0.2802
 5674TIP3    H238658   4.692   2.387   2.124 -0.2515 -1.2567  0.5776
 5675TIP3   OH238659   2.503   3.064   8.160  0.1088  0.3330  0.1459
 5675TIP3    H138660   2.591   3.089   8.190  1.5708 -1.0298 -2.6710
 5675TIP3    H238661   2.457   3.148   8.152  1.3880  1.1551  0.9040
 5676TIP3   OH238662   3.352   3.408   1.120  0.3820 -0.2002  0.3141
 5676TIP3    H138663   3.269   3.440   1.086  0.6799  0.9808  0.6725
 5676TIP3    H238664   3.413   3.413   1.046  0.1501 -1.0706  0.0500
 5677TIP3   OH238665   2.203   5.815   0.229 -0.7097 -0.1861 -0.0239
 5677TIP3    H138666   2.139   5.766   0.281  1.2273 -2.5147  0.3598
 5677TIP3    H238667   2.200   5.775   0.142  0.8758 -1.0843  0.2829
 5678TIP3   OH238668   4.174   4.911   0.195  0.0522 -0.2725  0.5141
 5678TIP3    H138669   4.150   4.981   0.135  1.3097 -0.8617 -0.7393
 5678TIP3    H238670   4.127   4.834   0.162 -0.2510 -0.3307  1.0679
 5679TIP3   OH238671   0.177   5.073   0.355  0.3570 -0.1511  0.1509
 5679TIP3    H138672   0.261   5.052   0.312  1.1443 -0.6692  1.8713
 5679TIP3    H238673   0.199   5.143   0.417 -0.6281  0.1470  0.1792
 5680TIP3   OH238674   0.491   2.532   0.297 -0.5653  0.1137  0.1033
 5680TIP3    H138675   0.444   2.478   0.360  0.2589 -0.9085 -0.1311
 5680TIP3    H238676   0.574   2.552   0.339 -0.5423  0.5393 -0.1352
 5681TIP3   OH238677   3.326   6.519   1.979 -0.6065 -0.8150 -0.1742
 5681TIP3    H138678   3.357   6.609   1.973 -2.0259 -0.3832 -2.6669
 5681TIP3    H238679   3.264   6.510   1.906  1.4440 -4.5826 -1.7560
 5682TIP3   OH238680   4.840   4.980   8.133 -0.2942  0.6792  0.2049
 5682TIP3    H138681   4.886   5.006   8.212 -0.0464  0.3169  0.1844
 5682TIP3    H238682   4.900   4.918   8.090 -1.2619 -0.6789  0.7413
 5683TIP3   OH238683   4.067   1.611   1.641 -0.3274  0.4179  0.0773
 5683TIP3    H138684   3.997   1.675   1.654  0.2666  0.7431  1.8554
 5683TIP3    H238685   4.055   1.547   1.711  0.2855 -0.3327 -0.4874
 5684TIP3   OH238686   3.794   0.799   8.168  0.2333 -0.4222 -0.0284
 5684TIP3    H138687   3.729   0.840   8.225  1.5244 -1.2730  2.1923
 5684TIP3    H238688   3.870   0.784   8.225  0.6442 -3.7975 -1.2453
 5685TIP3   OH238689   3.634   1.063   1.611 -0.0425  0.1570 -0.1461
 5685TIP3    H138690   3.641   1.037   1.519 -2.2663  1.6569 -0.8171
 5685TIP3    H238691   3.540   1.072   1.626  0.3458  1.3632  1.8640
 5686TIP3   OH238692   0.933   4.101   0.442 -0.3578  0.3959  0.4683
 5686TIP3    H138693   0.961   4.010   0.443 -1.9773 -0.2186 -2.2049
 5686TIP3    H238694   0.837   4.097   0.437 -0.4618  2.2529  0.1910
 5687TIP3   OH238695   2.011   0.455   0.533 -0.0782  0.8660 -0.1367
 5687TIP3    H138696   1.925   0.496   0.530 -0.5565 -0.0384  0.5989
 5687TIP3    H238697   2.032   0.452   0.627  0.4813  0.5431 -0.2727
 5688TIP3   OH238698   2.488   2.832   3.016  0.5535  0.3247 -0.4598
 5688TIP3    H138699   2.496   2.830   3.111  1.2805  2.1849 -0.4335
 5688TIP3    H238700   2.395   2.848   2.999  0.3774 -0.2823 -0.0736
 5689TIP3   OH238701   3.423   3.227   8.483  0.1040 -0.3167 -0.4069
 5689TIP3    H138702   3.461   3.163   8.423 -0.8921 -0.1418 -1.2496
 5689TIP3    H238703   3.329   3.218   8.472 -0.0769  0.5501  0.2631
 5690TIP3   OH238704   4.554   2.061   8.177 -0.2904  0.5769  0.1073
 5690TIP3    H138705   4.567   2.066   8.083 -1.3168  0.1326 -0.0737
 5690TIP3    H238706   4.642   2.065   8.214  0.0462  2.6337 -0.7679
 5691TIP3   OH238707   5.947   2.774   2.821  0.2205 -0.2539  0.2730
 5691TIP3    H138708   5.906   2.858   2.800 -0.7934 -0.0898  2.5798
 5691TIP3    H238709   6.041   2.789   2.811  0.0259  1.0256  0.2364
 5692TIP3   OH238710   3.412   0.852   9.151  0.3203 -0.1735 -0.2063
 5692TIP3    H138711   3.437   0.925   9.207  0.8639 -0.5213  0.0172
 5692TIP3    H238712   3.319   0.864   9.136 -0.0043 -0.4484  1.3652
 5693TIP3   OH238713   5.458   0.428   0.200 -0.0870  0.2487 -0.2436
 5693TIP3    H138714   5.423   0.341   0.178 -0.0305  0.4502 -1.1648
 5693TIP3    H238715   5.468   0.472   0.116  0.5302  0.9116  0.1641
 5694TIP3   OH238716   0.119   4.654   0.075  0.1130 -0.2282 -0.0414
 5694TIP3    H138717   0.079   4.738   0.097 -2.5072 -1.6013  0.7514
 5694TIP3    H238718   0.083   4.631  -0.010  1.4527 -0.2307 -0.6436
 5695TIP3   OH238719   0.534   0.618   1.122  0.6968 -0.3616 -0.0335
 5695TIP3    H138720   0.620   0.635   1.085  1.1584 -1.2756  0.5976
 5695TIP3    H238721   0.534   0.662   1.206  1.3110 -2.0155  0.8790
 5696TIP3   OH238722   5.246   4.047   2.423 -0.5782  0.1392  0.3187
 5696TIP3    H138723   5.171   3.992   2.444  0.8783 -1.6130  1.2560
 5696TIP3    H238724   5.280   4.074   2.508 -0.1347  0.8867 -0.0912
 5697TIP3   OH238725   0.807   1.487   0.639 -0.5947 -0.1985 -0.8929
 5697TIP3    H138726   0.743   1.423   0.669 -0.7275  1.1865  2.2828
 5697TIP3    H238727   0.869   1.437   0.586 -1.5583 -2.5994  0.0946
 5698TIP3   OH238728   3.433   2.261   0.709  0.4809 -0.1397 -0.0483
 5698TIP3    H138729   3.387   2.294   0.787  0.8027 -0.2388  0.1851
 5698TIP3    H238730   3.524   2.286   0.723  0.4516  0.3035 -0.6447
 5699TIP3   OH238731   3.024   2.888   8.596 -0.5329  0.6973  0.1256
 5699TIP3    H138732   3.070   2.874   8.679 -0.1794  0.7598 -0.0599
 5699TIP3    H238733   2.947   2.940   8.621 -0.2563  0.9978  0.3686
 5700TIP3   OH238734   5.460   2.560   2.639 -0.4191 -0.4269 -0.4449
 5700TIP3    H138735   5.462   2.633   2.702 -0.5835 -0.3696 -0.5062
 5700TIP3    H238736   5.484   2.483   2.691  0.3152 -0.2401 -0.5006
 5701TIP3   OH238737   0.203   6.626   1.203 -0.7461  0.3429  0.7309
 5701TIP3    H138738   0.160   6.667   1.277  0.0865 -0.2296  1.5578
 5701TIP3    H238739   0.284   6.675   1.191 -0.8541  0.4070  0.2211
 5702TIP3   OH238740   3.332   1.592   0.595 -0.2138 -0.2692  0.7889
 5702TIP3    H138741   3.268   1.651   0.635 -1.5156 -0.8545 -0.3223
 5702TIP3    H238742   3.403   1.649   0.567  0.5693  0.1980  3.5084
 5703TIP3   OH238743   6.388   1.896   1.646  0.2144  0.7094 -0.3633
 5703TIP3    H138744   6.390   1.991   1.640 -0.1150  0.6669 -1.3359
 5703TIP3    H238745   6.361   1.867   1.559 -2.4678 -0.1427  0.6311
 5704TIP3   OH238746   6.494   4.458   2.654  0.2834  0.3887 -0.7164
 5704TIP3    H138747   6.462   4.369   2.639 -0.0410  0.2495  0.6770
 5704TIP3    H238748   6.582   4.446   2.690 -1.5155  0.2764  4.4107
 5705TIP3   OH238749   5.780   2.808   1.998 -0.6815  0.1938  0.4263
 5705TIP3    H138750   5.758   2.852   1.916  0.5360  1.1166  0.5657
 5705TIP3    H238751   5.751   2.869   2.066 -0.6528 -0.0631  0.6724
 5706TIP3   OH238752   3.237   5.020   8.843 -0.5708 -0.1186 -0.6721
 5706TIP3    H138753   3.300   4.955   8.873  0.3682  1.3196  0.5977
 5706TIP3    H238754   3.288   5.082   8.792 -1.2314  0.2459 -0.9066
 5707TIP3   OH238755   1.931   3.675   2.021 -0.8456 -0.0079 -0.1369
 5707TIP3    H138756   1.884   3.600   1.985 -1.2853 -0.7922  1.9671
 5707TIP3    H238757   1.865   3.725   2.069  0.2025 -0.6832  2.1639
 5708TIP3   OH238758   3.434   5.500   2.479 -0.2771  0.2699 -0.4475
 5708TIP3    H138759   3.515   5.449   2.484  0.4585  1.2614 -1.7252
 5708TIP3    H238760   3.416   5.525   2.569 -0.0742 -1.3226  0.0691
 5709TIP3   OH238761   3.566   6.402   1.123  0.3425  0.5533  0.1054
 5709TIP3    H138762   3.623   6.431   1.051  0.3502  2.8334  0.9426
 5709TIP3    H238763   3.573   6.471   1.188 -1.8456 -0.0857  1.1167
 5710TIP3   OH238764   4.611   1.902   9.214  0.5183  0.6942 -0.1201
 5710TIP3    H138765   4.519   1.878   9.208  0.6396  0.5274 -1.5451
 5710TIP3    H238766   4.658   1.832   9.168  1.3163  1.0386  0.1429
 5711TIP3   OH238767   3.442   1.277   1.374 -0.2336 -0.3996 -0.1665
 5711TIP3    H138768   3.419   1.197   1.421  1.5522 -0.9395 -0.1201
 5711TIP3    H238769   3.429   1.254   1.282  1.3537 -1.1848 -0.2358
 5712TIP3   OH238770   6.200   1.011   7.813  0.2209 -0.0104  0.6428
 5712TIP3    H138771   6.181   1.093   7.857 -3.0390  0.4041 -1.2146
 5712TIP3    H238772   6.188   1.029   7.720  0.0777 -2.4225  0.1077
 5713TIP3   OH238773   0.139   5.032   9.096  0.2269 -0.0362  0.0459
 5713TIP3    H138774   0.081   5.073   9.032  0.7804 -0.4135 -0.7138
 5713TIP3    H238775   0.180   5.106   9.143 -0.0051  0.2454 -0.1934
 5714TIP3   OH238776   6.505   5.053   9.173  0.4506  0.2665  0.3576
 5714TIP3    H138777   6.556   5.124   9.213  0.5801  0.3559  0.0389
 5714TIP3    H238778   6.439   5.031   9.238 -0.3756  1.5239 -0.0113
 5715TIP3   OH238779   0.982   0.353   7.585 -1.0164  0.2779 -0.2396
 5715TIP3    H138780   0.995   0.271   7.538  1.8357 -0.5142  1.6799
 5715TIP3    H238781   0.985   0.421   7.518  0.1702 -0.9595 -1.4873
 5716TIP3   OH238782   3.231   1.456   7.897  0.3683  0.2061 -0.2364
 5716TIP3    H138783   3.296   1.413   7.953  0.1403 -1.3752 -1.1467
 5716TIP3    H238784   3.266   1.447   7.809 -0.2938  0.8119 -0.5692
 5717TIP3   OH238785   3.205   5.341   0.914 -0.5001 -0.1289  0.3518
 5717TIP3    H138786   3.260   5.310   0.841 -1.1249 -1.7851  0.5353
 5717TIP3    H238787   3.222   5.278   0.984 -0.3760  1.0926  1.4444
 5718TIP3   OH238788   0.966   4.413   1.193  0.3290  0.2030  0.1968
 5718TIP3    H138789   0.943   4.369   1.276  0.4602  0.4658  0.3716
 5718TIP3    H238790   0.906   4.374   1.129  1.1582 -1.0225  0.1282
 5719TIP3   OH238791   3.126   6.645   8.248  0.1913  0.2136  0.5798
 5719TIP3    H138792   3.155   6.716   8.304  0.9314  0.5228 -0.1675
 5719TIP3    H238793   3.074   6.588   8.305  0.1872  0.9765  1.3493
 5720TIP3   OH238794   5.871   3.018   0.424 -0.0133  0.2179 -0.1157
 5720TIP3    H138795   5.854   3.006   0.518  2.0672  1.8099  0.5131
 5720TIP3    H238796   5.785   3.007   0.384 -0.8218 -1.4758  1.8324
 5721TIP3   OH238797   1.538   4.441   3.043 -0.4383  0.6034 -0.3078
 5721TIP3    H138798   1.475   4.374   3.018 -1.3910  1.6838 -0.9332
 5721TIP3    H238799   1.514   4.517   2.990  1.3436  1.0851 -0.4977
 5722TIP3   OH238800   6.050   2.905   1.252 -0.2551 -0.7885 -0.8623
 5722TIP3    H138801   6.106   2.956   1.311  1.9563 -1.2787 -2.3932
 5722TIP3    H238802   5.962   2.938   1.267  0.7787  1.8678 -0.1476
 5723TIP3   OH238803   6.117   2.616   0.097 -0.2403  0.1640  0.4747
 5723TIP3    H138804   6.023   2.622   0.114 -0.4816 -0.1041 -0.6530
 5723TIP3    H238805   6.126   2.645   0.007  0.6919 -0.3190  0.4078
 5724TIP3   OH238806   3.631   5.503   8.015 -0.2071  0.0329 -0.7921
 5724TIP3    H138807   3.582   5.512   7.933 -0.9922  0.9832 -0.2419
 5724TIP3    H238808   3.680   5.585   8.023  0.4907 -0.3860 -0.6979
 5725TIP3   OH238809   4.702   3.776   2.972 -0.3743 -0.5492 -0.0475
 5725TIP3    H138810   4.732   3.830   2.900 -0.3465 -2.7967 -1.8155
 5725TIP3    H238811   4.776   3.719   2.993 -0.7443 -0.6715  1.0447
 5726TIP3   OH238812   3.309   2.049   7.778  0.4972 -0.8135 -0.1452
 5726TIP3    H138813   3.216   2.041   7.801  0.9727 -1.1206  1.9153
 5726TIP3    H238814   3.309   2.085   7.690 -1.5715  0.9506  0.4819
 5727TIP3   OH238815   4.932   6.642   8.886  0.0468 -0.0885 -0.0327
 5727TIP3    H138816   4.837   6.650   8.877  0.3381  1.8926 -2.1381
 5727TIP3    H238817   4.961   6.728   8.915  1.2493 -0.5274  0.1072
 5728TIP3   OH238818   5.537   3.251   2.381 -0.4758 -0.0555  0.2710
 5728TIP3    H138819   5.613   3.291   2.424 -0.4691  0.5612 -0.2969
 5728TIP3    H238820   5.572   3.211   2.302 -0.7918  0.5489 -0.1819
 5729TIP3   OH238821   0.979   3.194   2.841  0.2358 -0.7422 -0.4565
 5729TIP3    H138822   1.043   3.124   2.830  0.9105  0.0067 -1.4740
 5729TIP3    H238823   1.017   3.249   2.910  0.3770 -0.6498 -0.6064
 5730TIP3   OH238824   3.951   5.472   8.821 -0.0524 -0.1776  0.3019
 5730TIP3    H138825   3.888   5.427   8.878  0.1689 -0.9698 -0.0666
 5730TIP3    H238826   3.940   5.565   8.842  0.5247 -0.4776  2.1949
 5731TIP3   OH238827   6.453   4.172   1.790  0.4926 -0.4230  0.6190
 5731TIP3    H138828   6.478   4.156   1.881  1.7685 -0.1709  0.3307
 5731TIP3    H238829   6.516   4.121   1.739  0.8794  0.8220 -0.1704
 5732TIP3   OH238830   2.744   4.241   0.814  0.0716 -0.2185  0.2836
 5732TIP3    H138831   2.814   4.259   0.876 -0.8161  0.9573  0.9947
 5732TIP3    H238832   2.664   4.264   0.862 -0.6603  0.3034 -1.1365
 5733TIP3   OH238833   3.579   5.827   1.778 -0.3236  0.1627  0.4341
 5733TIP3    H138834   3.595   5.763   1.847  0.7763 -0.9794 -0.8271
 5733TIP3    H238835   3.554   5.775   1.702 -0.0428  1.2690 -0.4482
 5734TIP3   OH238836   2.383   3.652   0.109  0.8587 -0.1297  0.5172
 5734TIP3    H138837   2.344   3.625   0.026 -0.4178  3.2525 -0.1425
 5734TIP3    H238838   2.330   3.609   0.175 -0.0297 -0.5019 -0.4132
 5735TIP3   OH238839   3.651   6.436   1.994  0.1421 -0.3519  0.1039
 5735TIP3    H138840   3.652   6.356   2.047 -0.1839 -0.5460 -0.1777
 5735TIP3    H238841   3.561   6.440   1.960 -0.8446  1.7983  2.6486
 5736TIP3   OH238842   1.812   5.780   8.585 -0.4804 -0.2890 -0.0207
 5736TIP3    H138843   1.825   5.826   8.667 -1.1401 -0.3294  0.1193
 5736TIP3    H238844   1.844   5.691   8.601  1.3109  0.2325 -0.4656
 5737TIP3   OH238845   5.049   0.162   8.957  0.1884 -0.4833 -0.4399
 5737TIP3    H138846   5.060   0.113   9.039 -0.9248 -0.1853 -0.0906
 5737TIP3    H238847   5.109   0.236   8.965  2.0127 -1.8471 -1.0482
 5738TIP3   OH238848   5.824   1.623   0.003 -0.0917 -0.3603  0.2711
 5738TIP3    H138849   5.734   1.597  -0.014 -0.9293  2.6689 -0.4745
 5738TIP3    H238850   5.874   1.582  -0.068 -0.9305 -1.5878  0.3586
 5739TIP3   OH238851   0.650   5.882   7.990 -0.6477 -0.2087 -0.5014
 5739TIP3    H138852   0.695   5.826   7.927  0.5825  0.4188 -0.2192
 5739TIP3    H238853   0.586   5.824   8.032  0.1015 -1.2173 -0.7049
 5740TIP3   OH238854   0.756   1.260   0.256 -0.4792 -0.2323 -0.1884
 5740TIP3    H138855   0.805   1.293   0.332 -0.9580  0.4774 -0.1778
 5740TIP3    H238856   0.671   1.233   0.293 -0.5382 -0.3364 -0.4004
 5741TIP3   OH238857   1.559   6.260   7.724 -0.0971  0.5928 -0.1404
 5741TIP3    H138858   1.575   6.236   7.633  1.3887  0.6448  0.0769
 5741TIP3    H238859   1.470   6.230   7.742  0.6929 -2.4241 -0.6598
 5742TIP3   OH238860   5.009   1.627   2.962 -0.0866  0.4470  0.2629
 5742TIP3    H138861   4.956   1.550   2.985  1.5057 -0.3001  1.6836
 5742TIP3    H238862   5.089   1.590   2.926 -0.8206  1.5680 -2.8260
 5743TIP3   OH238863   4.390   0.809   1.602  0.2587 -0.0673 -0.4275
 5743TIP3    H138864   4.327   0.765   1.659  0.1308  0.6957  0.0388
 5743TIP3    H238865   4.458   0.744   1.587 -1.1488 -1.2753 -1.8331
 5744TIP3   OH238866   6.300   2.785   0.922 -0.0242 -0.5695 -0.2604
 5744TIP3    H138867   6.268   2.839   0.994  1.3185 -1.5477  1.1399
 5744TIP3    H238868   6.264   2.698   0.939 -1.3483 -0.3949 -1.9367
 5745TIP3   OH238869   5.349   2.045   7.955 -0.4390 -0.3435  0.1533
 5745TIP3    H138870   5.325   2.120   7.901 -1.3052 -1.2793 -0.8025
 5745TIP3    H238871   5.439   2.063   7.983 -0.3330  0.6405 -0.7770
 5746TIP3   OH238872   1.228   0.948   0.248  0.4687 -0.3506 -0.2932
 5746TIP3    H138873   1.304   0.909   0.203  0.1309  0.3784 -1.5501
 5746TIP3    H238874   1.222   1.036   0.212 -2.0255 -0.9545 -1.5569
 5747TIP3   OH238875   4.986   2.607   0.241  0.2011  0.1363 -0.0243
 5747TIP3    H138876   5.072   2.649   0.250 -0.8661  2.4297  0.2276
 5747TIP3    H238877   4.940   2.630   0.321 -0.4083 -1.7781  0.2226
 5748TIP3   OH238878   4.339   5.445   0.776  0.0050 -0.2695 -0.0236
 5748TIP3    H138879   4.420   5.487   0.804 -0.9760  1.7653 -0.0341
 5748TIP3    H238880   4.349   5.433   0.681 -0.4127  1.8521 -0.4013
 5749TIP3   OH238881   6.321   0.804   8.312 -0.0507  0.3847  0.1386
 5749TIP3    H138882   6.251   0.802   8.246  0.6558 -1.7487 -0.6423
 5749TIP3    H238883   6.402   0.807   8.260  0.4882  1.2159  0.9998
 5750TIP3   OH238884   6.019   2.284   8.037 -0.1982  0.2362  1.0253
 5750TIP3    H138885   6.024   2.371   7.998 -1.1384 -0.2464 -0.2148
 5750TIP3    H238886   6.109   2.251   8.032  0.2203  1.2028  1.7212
 5751TIP3   OH238887   2.332   6.373   3.076 -0.1783  0.1546 -0.0266
 5751TIP3    H138888   2.333   6.306   3.007  0.2805 -0.3350  0.4527
 5751TIP3    H238889   2.359   6.453   3.031 -0.5899 -0.0017 -0.5739
 5752TIP3   OH238890   0.123   3.279   1.097 -0.2534  0.1140  0.3337
 5752TIP3    H138891   0.135   3.348   1.032 -0.3018 -0.3819 -0.2051
 5752TIP3    H238892   0.028   3.276   1.111 -0.2727 -0.0182  0.1698
 5753TIP3   OH238893   6.557   4.476   8.566  0.0248 -0.1415  0.0468
 5753TIP3    H138894   6.583   4.501   8.655  0.4457 -1.5271  0.3502
 5753TIP3    H238895   6.634   4.496   8.513  0.3571 -0.7608  0.2829
 5754TIP3   OH238896   5.037   3.087   0.669 -0.4196 -0.0345 -0.0360
 5754TIP3    H138897   5.074   3.054   0.587 -0.0420 -0.4800  0.3053
 5754TIP3    H238898   5.047   3.182   0.663  0.6024 -0.1253 -0.0507
 5755TIP3   OH238899   6.097   6.341   0.744  0.1436  0.8274  0.0178
 5755TIP3    H138900   6.030   6.316   0.680  0.0526  0.5959  0.2044
 5755TIP3    H238901   6.049   6.391   0.810  0.1183  0.5046  0.2481
 5756TIP3   OH238902   4.366   4.127   0.163 -0.0088 -0.6395 -0.2529
 5756TIP3    H138903   4.428   4.191   0.198  0.0127 -0.8170  0.0358
 5756TIP3    H238904   4.282   4.152   0.202 -0.3508  0.2961 -1.5244
 5757TIP3   OH238905   4.646   6.217   0.891 -0.2294 -0.7210  0.7151
 5757TIP3    H138906   4.657   6.172   0.974  0.3932 -0.0839  0.9891
 5757TIP3    H238907   4.569   6.274   0.904 -1.4818 -2.2098  0.1243
 5758TIP3   OH238908   4.744   0.752   0.155 -0.1276  0.5334  0.2863
 5758TIP3    H138909   4.672   0.728   0.096 -0.1749  0.6457  0.2992
 5758TIP3    H238910   4.723   0.709   0.237 -0.7248  1.4257  0.6138
 5759TIP3   OH238911   5.454   3.256   9.173 -0.2805 -0.3111  0.6439
 5759TIP3    H138912   5.506   3.295   9.103  1.5776  0.6109  2.4199
 5759TIP3    H238913   5.366   3.289   9.159 -0.0488 -0.4676 -1.4458
 5760TIP3   OH238914   0.551   0.396   1.836 -0.2984  0.3117  0.0042
 5760TIP3    H138915   0.464   0.401   1.794  0.0337 -1.7680 -1.0743
 5760TIP3    H238916   0.545   0.320   1.893  0.7836  0.2180  0.0008
 5761TIP3   OH238917   6.631   5.577   7.221 -0.3698 -0.2374  0.1443
 5761TIP3    H138918   6.607   5.521   7.147 -1.1002  1.2909 -0.8244
 5761TIP3    H238919   6.551   5.625   7.242  0.3415  0.7758  0.6390
 5762TIP3   OH238920   6.280   4.548   1.073  0.5454 -0.0853 -0.1678
 5762TIP3    H138921   6.358   4.499   1.044  1.1012 -0.6862  2.1710
 5762TIP3    H238922   6.232   4.486   1.128  0.5033  1.4922  1.6747
 5763TIP3   OH238923   3.084   0.034   1.931 -0.0619  0.1404  0.0932
 5763TIP3    H138924   3.123   0.064   1.849  0.0905 -0.5772 -0.1042
 5763TIP3    H238925   3.097   0.106   1.992  1.4129 -0.0115 -0.0121
 5764TIP3   OH238926   1.630   4.478   8.217  0.3050  0.3893 -0.0928
 5764TIP3    H138927   1.564   4.503   8.281 -0.2212  1.5974 -1.0539
 5764TIP3    H238928   1.659   4.391   8.244 -1.3143  0.0489  0.6466
 5765TIP3   OH238929   6.361   5.650   1.991  0.3563  0.0014  0.0561
 5765TIP3    H138930   6.283   5.658   1.936  0.5915  0.7966 -0.1825
 5765TIP3    H238931   6.327   5.636   2.079 -0.0703  0.6180 -0.0020
 5766TIP3   OH238932   2.116   4.624   0.628 -0.0044 -0.0255  0.1084
 5766TIP3    H138933   2.192   4.673   0.661  1.7459 -1.8234 -0.9827
 5766TIP3    H238934   2.052   4.628   0.699  1.3680  1.0036  1.3542
 5767TIP3   OH238935   5.209   4.067   7.991 -0.5100 -0.0482 -0.1476
 5767TIP3    H138936   5.139   4.047   7.929 -0.7413  0.1467  0.0488
 5767TIP3    H238937   5.198   4.003   8.061 -0.5733  0.0690 -0.0508
 5768TIP3   OH238938   3.739   6.528   2.700 -0.5716 -0.1006 -0.6038
 5768TIP3    H138939   3.657   6.482   2.716 -0.5682 -0.5654 -1.7798
 5768TIP3    H238940   3.785   6.473   2.636  2.3519 -1.8368  2.6663
 5769TIP3   OH238941   0.702   0.708   2.726  0.2546  0.3348 -0.6415
 5769TIP3    H138942   0.705   0.770   2.653 -0.3761  0.6433 -0.4120
 5769TIP3    H238943   0.794   0.686   2.742  0.4225  0.5068 -1.3162
 5770TIP3   OH238944   2.412   3.454   0.949  0.0345  0.5447 -0.0344
 5770TIP3    H138945   2.368   3.534   0.920 -3.2468 -0.7425  0.9246
 5770TIP3    H238946   2.478   3.484   1.011  0.2415  2.6004 -1.1568
 5771TIP3   OH238947   5.604   5.082   0.042 -0.0303  0.3728 -0.3594
 5771TIP3    H138948   5.552   5.034  -0.023 -1.0434  2.1093 -0.8972
 5771TIP3    H238949   5.643   5.154  -0.007  3.0100 -0.8653  0.0214
 5772TIP3   OH238950   5.666   4.432   1.026  0.1181 -0.6980  0.3447
 5772TIP3    H138951   5.587   4.474   1.062  0.3789 -0.8182  1.0837
 5772TIP3    H238952   5.733   4.449   1.092  1.3714  1.5471 -1.3650
 5773TIP3   OH238953   2.094   1.120   8.401  0.6199  0.6703 -0.5112
 5773TIP3    H138954   2.186   1.136   8.381  0.1783  2.7642 -1.1173
 5773TIP3    H238955   2.057   1.083   8.321  0.9977 -0.6728 -0.1000
 5774TIP3   OH238956   1.195   4.822   2.645  0.0749 -1.0075  0.3253
 5774TIP3    H138957   1.156   4.737   2.627  1.2203 -1.3262 -0.8152
 5774TIP3    H238958   1.287   4.802   2.667  0.1205 -0.1356  0.9977
 5775TIP3   OH238959   5.749   4.783   8.342  0.0541 -0.2380 -0.2944
 5775TIP3    H138960   5.825   4.771   8.399 -0.3631  0.4112  0.4101
 5775TIP3    H238961   5.732   4.695   8.307  0.7403 -0.5105  0.0293
 5776TIP3   OH238962   5.974   3.638   0.623  0.8801  0.4786 -0.5259
 5776TIP3    H138963   5.989   3.625   0.530  1.3014 -0.1981 -0.3728
 5776TIP3    H238964   5.944   3.553   0.655  2.5294  0.1554  0.2883
 5777TIP3   OH238965   4.877   6.235   1.987 -0.1567  0.1065 -0.5794
 5777TIP3    H138966   4.924   6.319   1.989  0.8223 -0.4146  2.3679
 5777TIP3    H238967   4.899   6.193   2.070 -1.1699 -2.8015 -1.6675
 5778TIP3   OH238968   4.505   4.020   3.121 -0.6264  0.0882 -0.1028
 5778TIP3    H138969   4.523   3.931   3.154  1.1746  0.4758  0.0741
 5778TIP3    H238970   4.548   4.077   3.185  0.8350  0.9558 -1.7856
 5779TIP3   OH238971   2.853   2.042   2.709 -0.2580  0.0276 -0.5332
 5779TIP3    H138972   2.881   2.024   2.799  0.0055 -0.5648 -0.7290
 5779TIP3    H238973   2.879   2.133   2.694  1.5369 -0.4653 -0.6842
 5780TIP3   OH238974   3.923   0.317   7.176  0.0609 -0.1258  0.3019
 5780TIP3    H138975   3.853   0.359   7.126  0.2957 -0.2822 -0.1578
 5780TIP3    H238976   4.000   0.370   7.157 -0.2023  0.9467  1.9598
 5781TIP3   OH238977   1.250   2.423   7.945 -0.8677  0.5003 -0.2634
 5781TIP3    H138978   1.341   2.399   7.960 -0.7294  1.5838  0.7503
 5781TIP3    H238979   1.202   2.340   7.957  0.0839 -0.4441 -2.4563
 5782TIP3   OH238980   5.154   0.423   2.126 -0.0499  0.4002  0.5214
 5782TIP3    H138981   5.168   0.508   2.083  0.4415  0.0096 -0.1154
 5782TIP3    H238982   5.195   0.433   2.212 -1.7499  1.4626  1.2651
 5783TIP3   OH238983   4.709   4.954   7.865  0.0445 -0.1266  0.0862
 5783TIP3    H138984   4.649   4.894   7.909 -0.7109  0.2151 -0.4664
 5783TIP3    H238985   4.657   5.033   7.848  0.7782  0.3529  0.0182
 5784TIP3   OH238986   4.146   2.641   1.207  0.0328 -0.5121 -0.1467
 5784TIP3    H138987   4.168   2.700   1.134 -1.1453 -2.1250 -1.9145
 5784TIP3    H238988   4.200   2.672   1.280  2.1666  0.4797 -2.0180
 5785TIP3   OH238989   2.838   5.863   2.028 -0.3395  0.1724 -0.1629
 5785TIP3    H138990   2.874   5.945   1.994 -2.1195  0.9180 -0.3475
 5785TIP3    H238991   2.813   5.814   1.950 -0.7606  0.1571 -0.0180
 5786TIP3   OH238992   3.893   3.622   0.067 -0.1789  0.2810  0.2557
 5786TIP3    H138993   3.980   3.635   0.028  0.0505 -0.2398  0.5859
 5786TIP3    H238994   3.855   3.550   0.017 -0.0846 -0.0528  0.6597
 5787TIP3   OH238995   3.069   4.411   8.881 -0.3244  0.2045  0.1807
 5787TIP3    H138996   3.130   4.470   8.925 -1.1048  0.4308  0.9735
 5787TIP3    H238997   3.004   4.469   8.842  0.8041  0.0788 -2.0551
 5788TIP3   OH238998   2.260   4.094   1.614 -0.0611 -0.4084 -0.7157
 5788TIP3    H138999   2.268   4.115   1.521 -1.0198 -0.9513 -0.9336
 5788TIP3    H239000   2.212   4.011   1.616 -0.7824  0.0131  0.2842
 5789TIP3   OH239001   1.878   4.849   2.200 -0.0799  0.0688  0.4678
 5789TIP3    H139002   1.915   4.843   2.287  0.2805 -0.1845  0.3001
 5789TIP3    H239003   1.938   4.800   2.144 -0.4258  0.0335  0.1154
 5790TIP3   OH239004   3.984   4.284   7.927  0.0918 -0.1348  0.4422
 5790TIP3    H139005   3.957   4.219   7.992  1.3630 -0.5735  0.5670
 5790TIP3    H239006   3.997   4.364   7.977 -2.4368  0.5469  0.1432
 5791TIP3   OH239007   1.770   3.173   8.379  0.4291 -0.2155  0.3500
 5791TIP3    H139008   1.854   3.138   8.351  2.0143  2.3161  1.6485
 5791TIP3    H239009   1.758   3.141   8.468  0.4555  0.1454  0.4848
 5792TIP3   OH239010   2.702   2.067   9.008 -0.2163 -0.0723  0.0691
 5792TIP3    H139011   2.796   2.076   8.990 -0.2185  0.1999  0.2029
 5792TIP3    H239012   2.676   1.989   8.957  0.0418 -0.0433 -0.1110
 5793TIP3   OH239013   1.120   6.404   3.379 -0.2219 -0.1794 -0.1550
 5793TIP3    H139014   1.150   6.468   3.315 -0.1409 -1.0327 -1.0037
 5793TIP3    H239015   1.157   6.433   3.462  1.2551 -0.0721 -0.8151
 5794TIP3   OH239016   3.368   5.345   8.941  0.3541  0.0979  0.1176
 5794TIP3    H139017   3.289   5.371   8.989 -0.1154 -1.6979  0.4197
 5794TIP3    H239018   3.438   5.347   9.006 -0.3068 -2.4736  1.0319
 5795TIP3   OH239019   4.219   4.923   0.476  0.3053 -0.3325  0.6152
 5795TIP3    H139020   4.189   4.912   0.386 -1.4625 -0.6298  1.2067
 5795TIP3    H239021   4.234   5.017   0.485 -2.0577  0.0879  0.7282
 5796TIP3   OH239022   3.480   1.845   2.091 -0.1287  0.0219 -0.2956
 5796TIP3    H139023   3.392   1.883   2.090  0.0077  0.3430 -0.2978
 5796TIP3    H239024   3.475   1.773   2.029 -0.5690 -0.3754  0.1941
 5797TIP3   OH239025   3.021   0.144   8.449 -0.1541  0.8937 -0.0717
 5797TIP3    H139026   2.979   0.209   8.392  0.0857 -0.6736 -2.1323
 5797TIP3    H239027   2.958   0.073   8.455  0.7548  0.0574 -0.2318
 5798TIP3   OH239028   3.419   0.723   2.302  0.1395 -0.4830 -0.1921
 5798TIP3    H139029   3.505   0.680   2.304 -0.4901 -1.7638  1.2325
 5798TIP3    H239030   3.404   0.750   2.392 -0.9295 -0.2333 -0.4304
 5799TIP3   OH239031   0.216   3.010   1.051  0.3283 -0.4073  0.2859
 5799TIP3    H139032   0.192   3.097   1.084  0.7817 -0.1040 -0.1701
 5799TIP3    H239033   0.230   3.023   0.957  0.5480 -0.9461  0.2387
 5800TIP3   OH239034   6.045   0.770   0.395 -0.1885  0.3112 -0.8404
 5800TIP3    H139035   6.098   0.838   0.355 -0.1417 -1.1670 -3.5497
 5800TIP3    H239036   6.095   0.743   0.472  0.9413  1.6918 -1.0467
 5801TIP3   OH239037   6.653   6.004   2.539  0.4124 -0.1759  0.1209
 5801TIP3    H139038   6.705   6.057   2.478  0.8538 -0.0103  0.6392
 5801TIP3    H239039   6.619   6.067   2.602 -1.6651 -0.0461 -1.0385
 5802TIP3   OH239040   4.617   3.837   7.486  0.3292  0.6344  0.0688
 5802TIP3    H139041   4.541   3.805   7.535 -0.3217  1.1306 -0.5904
 5802TIP3    H239042   4.671   3.880   7.551  0.3862 -0.3136  0.6678
 5803TIP3   OH239043   0.078   4.145   8.795 -0.2175  0.9497  0.1696
 5803TIP3    H139044   0.020   4.137   8.719 -0.6982 -0.5989  0.6710
 5803TIP3    H239045   0.152   4.197   8.764 -1.2110  1.7812 -0.8727
 5804TIP3   OH239046   0.573   1.311   0.066 -0.0924 -0.0639 -0.0644
 5804TIP3    H139047   0.589   1.402   0.039 -0.0929 -0.4563 -1.5147
 5804TIP3    H239048   0.633   1.296   0.138 -0.0742  1.0859  0.1736
 5805TIP3   OH239049   6.560   0.564   8.890  0.4953  0.3703 -0.4185
 5805TIP3    H139050   6.523   0.599   8.972  0.8785  1.8800 -0.8578
 5805TIP3    H239051   6.630   0.625   8.867  1.0769 -0.6063 -1.3494
 5806TIP3   OH239052   0.958   4.029   0.094 -0.2992 -0.7703 -0.1120
 5806TIP3    H139053   0.985   3.942   0.066 -0.6812 -0.8542 -0.2319
 5806TIP3    H239054   0.870   4.015   0.130 -0.1177 -0.5379  0.4241
 5807TIP3   OH239055   6.216   4.369   7.378 -0.3095 -0.1661  0.1696
 5807TIP3    H139056   6.289   4.311   7.357 -0.2106 -0.5560  1.4809
 5807TIP3    H239057   6.201   4.419   7.298  1.6505  0.2027 -0.0293
 5808TIP3   OH239058   5.761   5.117   0.445 -0.1398  0.0678 -0.0709
 5808TIP3    H139059   5.686   5.123   0.503 -1.5515  0.6292 -1.8690
 5808TIP3    H239060   5.822   5.058   0.489 -0.5513  1.4576  2.5619
 5809TIP3   OH239061   4.747   1.120   8.524 -0.1023 -0.3281 -0.4051
 5809TIP3    H139062   4.829   1.121   8.476  0.9241  1.8535  1.2283
 5809TIP3    H239063   4.761   1.057   8.594  0.1417 -0.0626 -0.2133
 5810TIP3   OH239064   1.771   1.613   7.336 -0.7521  0.1672 -0.0264
 5810TIP3    H139065   1.807   1.679   7.394 -1.5430 -0.0471  0.7333
 5810TIP3    H239066   1.835   1.541   7.339 -0.0559  0.7503 -0.5993
 5811TIP3   OH239067   1.815   5.796   1.415 -0.1045  0.7916 -0.3341
 5811TIP3    H139068   1.844   5.710   1.445 -1.4995  0.1549 -0.7709
 5811TIP3    H239069   1.886   5.855   1.441  0.6029 -0.3854  0.4896
 5812TIP3   OH239070   1.229   1.663   2.250  0.1859  0.4164  0.4501
 5812TIP3    H139071   1.316   1.695   2.227 -0.7340  2.4174 -0.5239
 5812TIP3    H239072   1.170   1.736   2.229 -1.8801 -1.3014 -0.1648
 5813TIP3   OH239073   4.432   0.169   0.134 -0.0403  0.4159 -0.1489
 5813TIP3    H139074   4.464   0.250   0.095  2.3127 -0.3548 -0.0131
 5813TIP3    H239075   4.500   0.145   0.197 -0.1295 -2.1734 -0.9142
 5814TIP3   OH239076   5.712   3.476   7.932  0.2684  0.6456  0.3717
 5814TIP3    H139077   5.765   3.506   7.858  0.4146 -0.5848 -0.0436
 5814TIP3    H239078   5.731   3.538   8.002  2.2973  0.2342  0.2364
 5815TIP3   OH239079   0.340   1.811   7.702  0.1839  0.3060 -0.7451
 5815TIP3    H139080   0.434   1.829   7.699  0.5449 -1.3998 -0.6643
 5815TIP3    H239081   0.307   1.843   7.618  0.8189  0.9465 -0.7592
 5816TIP3   OH239082   5.859   0.034   1.219 -0.1441 -0.5322  0.0951
 5816TIP3    H139083   5.930   0.006   1.277  0.1675 -2.2698 -1.0711
 5816TIP3    H239084   5.789  -0.030   1.234 -0.5284 -0.2693 -0.5567
 5817TIP3   OH239085   2.007   6.689   2.383 -0.5212  0.1641 -0.4819
 5817TIP3    H139086   2.085   6.682   2.328  0.4702 -0.3384  0.9346
 5817TIP3    H239087   1.942   6.634   2.339 -0.0102  0.4153 -1.5679
 5818TIP3   OH239088   2.430   3.282   2.134 -0.1823 -0.0971  0.2561
 5818TIP3    H139089   2.337   3.267   2.117 -0.3016 -1.0079  1.6025
 5818TIP3    H239090   2.475   3.226   2.071 -0.5050  0.8617 -0.8713
 5819TIP3   OH239091   5.691   4.201   0.448 -0.2227  0.6912 -0.2644
 5819TIP3    H139092   5.733   4.192   0.363  1.3663  0.1493  0.5419
 5819TIP3    H239093   5.763   4.224   0.508 -0.7358 -1.9103  1.4885
 5820TIP3   OH239094   0.517   0.520   2.383  0.0558  0.3297  0.2266
 5820TIP3    H139095   0.469   0.579   2.324 -1.3105  0.5481  1.4988
 5820TIP3    H239096   0.492   0.549   2.471 -0.0140 -1.6330  0.8914
 5821TIP3   OH239097   5.853   3.866   8.244 -0.1435  0.4060  0.4043
 5821TIP3    H139098   5.907   3.933   8.203  0.7761 -0.0221  0.8848
 5821TIP3    H239099   5.783   3.914   8.287  0.2414  1.0214  0.3549
 5822TIP3   OH239100   3.198   5.510   8.131 -0.1383  0.0478  0.5604
 5822TIP3    H139101   3.282   5.523   8.175 -0.4238 -1.3108  1.5679
 5822TIP3    H239102   3.217   5.449   8.060 -0.2429 -0.0555  0.6227
 5823TIP3   OH239103   4.176   3.053   1.230 -0.0985 -0.3189 -0.0492
 5823TIP3    H139104   4.236   3.124   1.205  0.9925 -0.7364  1.2635
 5823TIP3    H239105   4.128   3.033   1.150  0.8236  0.7040 -0.8872
 5824TIP3   OH239106   6.384   0.979   1.008  0.3850 -0.0905 -0.1607
 5824TIP3    H139107   6.459   0.923   0.989  1.5771  0.8305  1.5698
 5824TIP3    H239108   6.324   0.964   0.935  0.9268 -3.0527 -0.1356
 5825TIP3   OH239109   3.403   5.521   2.778  0.5019 -0.4281  0.1799
 5825TIP3    H139110   3.358   5.483   2.853 -2.7280 -0.8534 -1.7989
 5825TIP3    H239111   3.496   5.503   2.795 -0.2707 -2.7534  2.7926
 5826TIP3   OH239112   5.052   5.503   8.070  0.3177 -0.5409 -0.0277
 5826TIP3    H139113   4.956   5.499   8.079  0.4036  0.6993  1.7384
 5826TIP3    H239114   5.070   5.595   8.052  1.2548 -0.5511  0.7979
 5827TIP3   OH239115   5.930   2.568   7.749  0.3392  0.3663  0.5327
 5827TIP3    H139116   5.888   2.539   7.668  1.7510 -0.6579  0.1287
 5827TIP3    H239117   5.867   2.548   7.818 -0.0756 -0.5836 -0.1031
 5828TIP3   OH239118   5.915   1.572   8.409  0.3705 -0.3693 -0.2288
 5828TIP3    H139119   5.879   1.615   8.487  0.8783 -0.9098  0.3131
 5828TIP3    H239120   5.838   1.537   8.363  0.1313 -0.8531  0.5167
 5829TIP3   OH239121   4.396   4.563   8.476  0.5099  0.1127  0.3420
 5829TIP3    H139122   4.456   4.528   8.410  1.2007  1.3145  0.3127
 5829TIP3    H239123   4.407   4.658   8.470 -1.0539  0.3366  0.6596
 5830TIP3   OH239124   0.896   1.033   0.151 -0.3067 -0.2120  0.0358
 5830TIP3    H139125   0.851   1.109   0.188  1.1847  0.8315 -0.2135
 5830TIP3    H239126   0.916   0.978   0.227  1.4174  1.2040  0.6675
 5831TIP3   OH239127   4.460   5.997   0.714 -0.0460 -0.1200  0.5170
 5831TIP3    H139128   4.456   5.958   0.801  0.2149  2.2664  1.6968
 5831TIP3    H239129   4.383   6.054   0.711  1.8559  2.6533  0.7504
 5832TIP3   OH239130   5.239   1.899   1.965 -0.3175  0.7610 -0.5532
 5832TIP3    H139131   5.273   1.825   2.013 -0.6829  1.2666  0.5182
 5832TIP3    H239132   5.150   1.911   1.999 -0.1984  1.7945 -0.5768
 5833TIP3   OH239133   2.079   4.736   7.331  0.3324  0.4525 -0.7285
 5833TIP3    H139134   2.013   4.726   7.262  0.7823  1.1297 -1.2830
 5833TIP3    H239135   2.162   4.722   7.285  0.5499 -1.9387  0.2569
 5834TIP3   OH239136   4.463   0.883   2.452 -0.7053 -0.2946 -0.2176
 5834TIP3    H139137   4.464   0.788   2.465 -1.3935 -0.1952  0.6844
 5834TIP3    H239138   4.488   0.920   2.537  2.2433  0.3446 -1.2395
 5835TIP3   OH239139   6.553   0.464   8.568 -0.5584  0.5581  0.0985
 5835TIP3    H139140   6.623   0.525   8.593  0.2143 -0.3659  0.2564
 5835TIP3    H239141   6.506   0.509   8.498  1.8645  0.1503 -1.9196
 5836TIP3   OH239142   5.809   1.077   7.823  0.9006  0.4355 -0.0362
 5836TIP3    H139143   5.731   1.104   7.872  1.7343 -0.7157  2.0415
 5836TIP3    H239144   5.867   1.153   7.826 -0.1324  1.3829 -1.7888
 5837TIP3   OH239145   2.767   6.577   8.139 -0.9417  0.0131 -0.2592
 5837TIP3    H139146   2.754   6.482   8.132  0.3704 -0.0505 -3.3999
 5837TIP3    H239147   2.844   6.586   8.195 -0.6960 -0.8307 -0.4450
 5838TIP3   OH239148   5.434   5.958   8.253  0.3097  0.0624  0.3115
 5838TIP3    H139149   5.490   6.024   8.295 -0.3439  0.6038  0.3482
 5838TIP3    H239150   5.411   5.996   8.168 -1.4309  0.6604  0.9991
 5839TIP3   OH239151   5.841   0.192   1.017 -0.0410 -0.2027  0.0575
 5839TIP3    H139152   5.803   0.134   0.950  0.3966  0.0862 -0.4437
 5839TIP3    H239153   5.862   0.133   1.089 -1.7870 -0.3285  0.5098
 5840TIP3   OH239154   3.803   4.054   1.247  0.0752 -0.1021  0.0738
 5840TIP3    H139155   3.762   3.971   1.224 -0.7592  0.2516  0.2336
 5840TIP3    H239156   3.869   4.032   1.312  1.7612 -0.9882 -1.8125
 5841TIP3   OH239157   6.382   1.390   9.092  0.1220 -0.7329 -0.2896
 5841TIP3    H139158   6.320   1.363   9.159  0.4714 -2.9052 -0.7483
 5841TIP3    H239159   6.360   1.481   9.073 -0.1163 -0.1080  2.5790
 5842TIP3   OH239160   3.784   0.106   2.410 -0.2986 -0.3463 -0.3154
 5842TIP3    H139161   3.776   0.183   2.354  0.0444 -1.0833 -1.3842
 5842TIP3    H239162   3.824   0.140   2.490 -1.8204  0.9291 -0.0271
 5843TIP3   OH239163   2.238   1.342   0.322 -0.2642 -0.5441  0.2369
 5843TIP3    H139164   2.174   1.357   0.392  0.5284 -1.6720  1.2338
 5843TIP3    H239165   2.256   1.248   0.326  0.0551 -0.5696 -1.2693
 5844TIP3   OH239166   3.615   5.135   8.874  0.1712 -0.0188 -0.1526
 5844TIP3    H139167   3.666   5.062   8.839  0.6845  0.8643 -1.3101
 5844TIP3    H239168   3.538   5.140   8.818  1.4265  1.9659 -1.8465
 5845TIP3   OH239169   4.187   0.722   7.925  0.5438  0.0373 -0.1144
 5845TIP3    H139170   4.217   0.773   7.850  1.3398 -1.8986 -1.2008
 5845TIP3    H239171   4.264   0.715   7.982  1.1626 -1.8512 -1.1157
 5846TIP3   OH239172   3.579   5.972   8.436 -0.0278  0.6225  0.0492
 5846TIP3    H139173   3.501   5.920   8.414 -0.2043  1.2243 -0.8247
 5846TIP3    H239174   3.642   5.909   8.470 -0.0228 -0.2714 -1.5430
 5847TIP3   OH239175   2.722   5.477   8.399  0.0329 -0.2605 -0.1227
 5847TIP3    H139176   2.804   5.458   8.444  0.1758  1.1281  0.2584
 5847TIP3    H239177   2.747   5.492   8.308 -0.2071 -2.7078 -0.6350
 5848TIP3   OH239178   2.979   5.265   2.428 -0.3367  0.1967  0.0522
 5848TIP3    H139179   2.943   5.348   2.458  0.4151  0.3166  0.6718
 5848TIP3    H239180   2.973   5.207   2.504  3.5312  1.1129  1.3227
 5849TIP3   OH239181   3.780   3.413   9.111  0.1891 -0.6438  0.5172
 5849TIP3    H139182   3.718   3.453   9.050  1.9533  1.2554 -0.1564
 5849TIP3    H239183   3.728   3.393   9.189 -1.3856  0.2941 -0.2424
 5850TIP3   OH239184   6.407   5.295   8.030 -0.3509  0.2022  0.3398
 5850TIP3    H139185   6.466   5.316   8.103 -0.2150 -1.5396  0.7633
 5850TIP3    H239186   6.323   5.276   8.072 -0.0700 -1.6059  0.1578
 5851TIP3   OH239187   2.689   0.305   0.822  0.0830  0.1523 -0.1165
 5851TIP3    H139188   2.784   0.305   0.830  0.0651  1.5101  0.4632
 5851TIP3    H239189   2.657   0.266   0.904  0.1471 -1.1871 -0.7210
 5852TIP3   OH239190   4.036   2.243   7.637  0.3411 -0.1761 -0.1792
 5852TIP3    H139191   3.941   2.238   7.639  0.3053 -0.0383 -1.0773
 5852TIP3    H239192   4.056   2.314   7.576  1.0182 -0.9711 -0.9228
 5853TIP3   OH239193   6.253   0.275   1.038 -0.2333 -0.0439  0.0867
 5853TIP3    H139194   6.280   0.284   0.947  1.4071  0.1349  0.5486
 5853TIP3    H239195   6.169   0.321   1.044 -0.6791 -0.6145 -1.4503
 5854TIP3   OH239196   4.097   4.824   1.661  0.2187 -0.2623  0.3371
 5854TIP3    H139197   4.072   4.732   1.671  0.5262 -0.5013 -0.9315
 5854TIP3    H239198   4.147   4.826   1.579 -1.3670  1.3360 -0.6500
 5855TIP3   OH239199   3.192   2.721   7.930 -0.3348  0.0923  0.5776
 5855TIP3    H139200   3.272   2.679   7.901 -0.8879 -0.8959  0.4531
 5855TIP3    H239201   3.218   2.811   7.950  0.9790 -0.4602  1.4139
 5856TIP3   OH239202   2.155   2.845   0.386  0.0390  0.0911  0.1502
 5856TIP3    H139203   2.060   2.854   0.388  0.1867  2.1628  1.0911
 5856TIP3    H239204   2.174   2.807   0.300 -1.6177 -0.3296 -0.0644
 5857TIP3   OH239205   0.794   3.727   0.364 -0.6096  0.1230  0.1767
 5857TIP3    H139206   0.780   3.812   0.321 -1.0947  0.1787  0.4396
 5857TIP3    H239207   0.802   3.749   0.457 -0.1412 -0.0619  0.1864
 5858TIP3   OH239208   0.963   0.912   2.037 -0.1669  0.6906  0.6546
 5858TIP3    H139209   1.015   0.845   2.082 -2.2273  1.2591  4.1837
 5858TIP3    H239210   1.027   0.978   2.012  1.4899 -1.1027 -0.1570
 5859TIP3   OH239211   1.619   5.491   8.947  0.0582 -0.5317  0.5477
 5859TIP3    H139212   1.600   5.502   9.041 -0.4857 -0.1410  0.3966
 5859TIP3    H239213   1.700   5.442   8.945  0.8978  0.7669  1.2519
 5860TIP3   OH239214   2.706   2.481   2.622 -0.1685 -0.0358 -0.0637
 5860TIP3    H139215   2.773   2.547   2.603  0.4437 -0.6897 -0.2248
 5860TIP3    H239216   2.623   2.524   2.600  0.3760 -0.3393 -3.3040
 5861TIP3   OH239217   1.330   3.947   8.244 -0.0561  0.3015  0.2538
 5861TIP3    H139218   1.267   4.013   8.276 -1.3325 -0.6948 -0.1117
 5861TIP3    H239219   1.275   3.882   8.200  1.2442 -0.6866  0.0563
 5862TIP3   OH239220   0.245   0.674   0.303 -0.0511 -0.0798  0.0193
 5862TIP3    H139221   0.311   0.645   0.241 -0.5868 -0.7713 -0.2423
 5862TIP3    H239222   0.248   0.770   0.299  1.0724 -0.0997  0.1710
 5863TIP3   OH239223   0.121   4.141   7.087  0.8474  0.2314 -0.1129
 5863TIP3    H139224   0.042   4.095   7.117  0.0566  1.1700 -0.7058
 5863TIP3    H239225   0.190   4.075   7.093 -0.3107 -1.1746 -1.2301
 5864TIP3   OH239226   1.422   4.309   1.343  0.8376  0.3591 -0.3205
 5864TIP3    H139227   1.364   4.370   1.299 -0.2547  0.2266  0.8564
 5864TIP3    H239228   1.369   4.230   1.356  0.8223  0.6510  1.8413
 5865TIP3   OH239229   6.338   1.754   0.024  0.0789 -0.3507  1.0029
 5865TIP3    H139230   6.278   1.760  -0.050  0.1956 -0.3012  0.9126
 5865TIP3    H239231   6.419   1.718  -0.013  0.6170  0.9828  0.8234
 5866TIP3   OH239232   0.559   5.749   1.060 -0.5327  0.0918  0.3246
 5866TIP3    H139233   0.599   5.763   0.974  0.0463 -0.5306  0.4872
 5866TIP3    H239234   0.468   5.778   1.049 -0.3768  0.3275 -0.4004
 5867TIP3   OH239235   5.263   3.867   8.738 -0.3589 -0.2695 -0.1776
 5867TIP3    H139236   5.174   3.890   8.711  0.4029 -0.5268 -3.2236
 5867TIP3    H239237   5.293   3.943   8.787 -2.2703 -0.2417  1.0503
 5868TIP3   OH239238   3.760   2.255   7.673 -0.0535 -0.3949  0.4574
 5868TIP3    H139239   3.674   2.251   7.632 -0.0089 -0.7182  0.3849
 5868TIP3    H239240   3.742   2.250   7.767 -0.2242  1.5121  0.5573
 5869TIP3   OH239241   4.995   2.342   1.087 -0.3540 -0.5893  0.6146
 5869TIP3    H139242   5.078   2.310   1.121  0.6671  1.0983 -0.1509
 5869TIP3    H239243   4.988   2.303   0.999 -0.1126 -0.3136  0.4733
 5870TIP3   OH239244   0.746   5.332   7.390  0.1913 -0.0310  0.1626
 5870TIP3    H139245   0.819   5.286   7.432  0.7479 -0.7708 -1.5256
 5870TIP3    H239246   0.694   5.262   7.349 -0.8488  0.5837  0.3905
 5871TIP3   OH239247   2.065   5.832   8.923 -0.4046 -0.0857  0.4412
 5871TIP3    H139248   2.106   5.913   8.951 -1.4780  0.8407 -0.5457
 5871TIP3    H239249   2.123   5.797   8.856 -0.1951  0.1304  0.5110
 5872TIP3   OH239250   5.845   2.294   0.449 -0.1756 -0.3695  0.1702
 5872TIP3    H139251   5.816   2.378   0.415  1.3445 -0.7679 -2.4160
 5872TIP3    H239252   5.923   2.314   0.501 -0.7256 -0.0586  0.8915
 5873TIP3   OH239253   3.889   5.472   1.769 -0.5490  0.0463  0.2389
 5873TIP3    H139254   3.900   5.393   1.716  0.0852 -0.2221  0.7552
 5873TIP3    H239255   3.827   5.526   1.719  0.1921 -0.0993 -0.8844
 5874TIP3   OH239256   1.757   3.577   2.353  0.0589  0.0716 -0.2741
 5874TIP3    H139257   1.730   3.641   2.287 -2.6408 -0.7739 -0.0926
 5874TIP3    H239258   1.701   3.595   2.428  0.6168 -1.2585  0.4933
 5875TIP3   OH239259   6.274   3.131   0.942 -0.0587 -0.1830 -0.6853
 5875TIP3    H139260   6.347   3.074   0.963  0.6706  1.5742  2.0297
 5875TIP3    H239261   6.311   3.219   0.944 -1.9679  0.6683 -0.6177
 5876TIP3   OH239262   4.698   5.109   2.607  0.3509  0.0934  0.3212
 5876TIP3    H139263   4.618   5.057   2.617  0.7952 -0.2692  2.5815
 5876TIP3    H239264   4.761   5.047   2.569  0.4613 -0.6315  1.6246
 5877TIP3   OH239265   1.453   0.221   2.594 -0.4500 -0.2937  0.1333
 5877TIP3    H139266   1.534   0.199   2.548 -0.4318  0.2968 -0.1243
 5877TIP3    H239267   1.482   0.246   2.682 -0.2534  0.8008 -0.2292
 5878TIP3   OH239268   3.854   0.578   7.850 -0.8791 -0.5805  0.3278
 5878TIP3    H139269   3.939   0.562   7.809 -0.6884 -1.0539  0.8888
 5878TIP3    H239270   3.794   0.521   7.803 -0.4637 -1.9318  1.3851
 5879TIP3   OH239271   2.423   5.746   2.398  0.0800 -0.0310 -0.0091
 5879TIP3    H139272   2.462   5.732   2.484 -0.6837  0.4263  0.4135
 5879TIP3    H239273   2.456   5.673   2.345  0.3331 -0.4668  0.7378
 5880TIP3   OH239274   4.940   3.769   8.978  0.4527  0.0407  0.0728
 5880TIP3    H139275   4.892   3.696   8.938 -0.5667  0.2670  0.8472
 5880TIP3    H239276   4.872   3.821   9.022  1.4654  0.1176  1.5935
 5881TIP3   OH239277   6.120   5.400   1.106  0.6361 -0.2492 -0.0108
 5881TIP3    H139278   6.066   5.479   1.100 -0.2164 -0.8571 -0.6607
 5881TIP3    H239279   6.129   5.384   1.200  0.4539  0.3723  0.1198
 5882TIP3   OH239280   5.408   5.017   1.149  0.6763  0.0373  0.6692
 5882TIP3    H139281   5.337   5.081   1.148  1.7136  1.2360  1.2672
 5882TIP3    H239282   5.472   5.050   1.086  0.5200 -1.2897 -0.2296
 5883TIP3   OH239283   6.200   6.104   1.137  0.2125 -0.2313 -0.6619
 5883TIP3    H139284   6.192   6.024   1.189  0.9034 -1.1519 -1.8980
 5883TIP3    H239285   6.271   6.153   1.180 -0.0448 -0.3868 -0.0440
 5884TIP3   OH239286   5.957   6.552   1.583 -0.1460  0.4044 -0.4386
 5884TIP3    H139287   6.031   6.542   1.644 -1.4455  0.8376  1.3064
 5884TIP3    H239288   5.981   6.629   1.530  0.7304  0.4391 -0.0192
 5885TIP3   OH239289   2.485   2.050   8.532  0.1919 -0.1037  0.5252
 5885TIP3    H139290   2.410   2.086   8.580 -1.0144  0.9679 -1.9907
 5885TIP3    H239291   2.546   2.123   8.525  0.6676 -0.4513  0.9617
 5886TIP3   OH239292   5.799   0.151   0.654  0.4455  0.2146 -0.2922
 5886TIP3    H139293   5.886   0.172   0.687  1.0267  0.2624 -1.8076
 5886TIP3    H239294   5.766   0.233   0.618 -0.1446  0.1409  0.0605
 5887TIP3   OH239295   5.991   5.203   7.962 -0.1047  0.1867 -0.2988
 5887TIP3    H139296   6.020   5.289   7.993 -0.1957  0.2964 -0.5172
 5887TIP3    H239297   5.992   5.210   7.867 -1.2100  0.3125 -0.3057
 5888TIP3   OH239298   3.395   1.985   1.816 -0.6119  0.0180  0.3267
 5888TIP3    H139299   3.315   1.981   1.763 -0.7946  1.9489  0.3835
 5888TIP3    H239300   3.366   2.012   1.903  0.1430  1.7673  0.0879
 5889TIP3   OH239301   5.577   2.510   1.134 -0.4301  0.3798 -0.1973
 5889TIP3    H139302   5.519   2.446   1.093  0.4848  1.0230 -2.6607
 5889TIP3    H239303   5.642   2.458   1.179  1.1274 -0.6188 -3.3187
 5890TIP3   OH239304   5.030   5.472   0.974 -0.5075 -0.0030 -0.5562
 5890TIP3    H139305   4.971   5.547   0.983 -1.6146 -0.8472 -0.5056
 5890TIP3    H239306   5.112   5.500   1.015 -1.5954  0.4293  1.4750
 5891TIP3   OH239307   5.966   0.830   1.828 -0.0568 -0.3803 -0.0849
 5891TIP3    H139308   5.894   0.775   1.796 -0.6792  0.3184  0.0873
 5891TIP3    H239309   6.025   0.838   1.753 -1.5689  1.3603 -1.1722
 5892TIP3   OH239310   6.249   2.057   2.551  0.1644  0.1495 -0.3925
 5892TIP3    H139311   6.200   2.049   2.632 -0.0204 -1.5804 -0.6390
 5892TIP3    H239312   6.335   2.090   2.577 -0.4622  1.3252  0.2654
 5893TIP3   OH239313   6.425   3.588   7.800  0.7610 -0.0105  0.2930
 5893TIP3    H139314   6.461   3.560   7.717  0.5803  0.2923  0.1105
 5893TIP3    H239315   6.340   3.627   7.778  2.3853  3.8821  0.0251
 5894TIP3   OH239316   2.573   2.113   2.095 -0.3996  0.1944  0.4396
 5894TIP3    H139317   2.591   2.207   2.104 -0.9226  0.1847  1.8901
 5894TIP3    H239318   2.659   2.071   2.097 -0.1587  0.6356 -0.2895
 5895TIP3   OH239319   4.019   6.478   7.940 -0.3554  0.5245 -0.1266
 5895TIP3    H139320   4.059   6.392   7.925 -0.9110  0.0435  0.9841
 5895TIP3    H239321   3.929   6.468   7.909  0.0411  1.2575 -1.5861
 5896TIP3   OH239322   6.397   0.216   0.010  0.2064  0.5373 -0.1723
 5896TIP3    H139323   6.430   0.260  -0.068 -0.5979 -0.2501 -0.9697
 5896TIP3    H239324   6.302   0.221   0.002  0.0180 -2.4908 -0.9997
 5897TIP3   OH239325   5.661   4.806   8.815  0.5445  0.5378 -0.4699
 5897TIP3    H139326   5.725   4.845   8.756  0.3500  0.0001 -1.0406
 5897TIP3    H239327   5.589   4.868   8.818  0.4610  0.4627 -0.9654
 5898TIP3   OH239328   1.067   0.131   7.407  0.8443 -0.6474  0.1524
 5898TIP3    H139329   1.030   0.145   7.320 -1.2835  1.1660  1.2346
 5898TIP3    H239330   1.002   0.075   7.451  1.2891 -0.5380  0.9568
 5899TIP3   OH239331   3.288   4.162   3.401  0.3291 -0.0217  0.1196
 5899TIP3    H139332   3.215   4.112   3.438 -0.4810  0.1857 -1.1269
 5899TIP3    H239333   3.282   4.146   3.307  0.3876  1.9763 -0.2641
 5900TIP3   OH239334   2.567   0.903   2.419  0.6343 -0.0874 -0.4294
 5900TIP3    H139335   2.559   0.841   2.347 -0.9929 -0.4049 -0.0160
 5900TIP3    H239336   2.608   0.853   2.490  2.1947  0.2145 -1.0800
 5901TIP3   OH239337   0.016   0.952   8.527 -0.5560  0.3048  0.2191
 5901TIP3    H139338  -0.057   1.008   8.552  0.0387  1.6051 -0.8355
 5901TIP3    H239339   0.069   1.006   8.469  1.6892 -0.3127  1.5546
 5902TIP3   OH239340   0.766   6.568   1.162 -0.2005  0.2044  0.6018
 5902TIP3    H139341   0.768   6.653   1.205  3.3735 -0.0163  1.1582
 5902TIP3    H239342   0.737   6.507   1.230  0.7972  0.5230  1.3419
 5903TIP3   OH239343   3.047   4.619   1.384 -0.4877  0.3223 -0.6586
 5903TIP3    H139344   3.069   4.567   1.462  1.9168 -1.1002 -2.1368
 5903TIP3    H239345   3.073   4.708   1.406  1.0201 -0.2191 -0.0576
 5904TIP3   OH239346   6.491   4.749   2.593  0.1362 -0.6122 -0.2353
 5904TIP3    H139347   6.482   4.756   2.688 -2.6231 -1.0961 -0.3739
 5904TIP3    H239348   6.532   4.664   2.579  1.9333  0.0753  0.4978
 5905TIP3   OH239349   6.517   0.234   2.116  0.2444  0.4346  0.2043
 5905TIP3    H139350   6.480   0.322   2.125  1.3736  0.7350  2.3554
 5905TIP3    H239351   6.475   0.183   2.185 -0.7881 -0.9358 -1.3358
 5906TIP3   OH239352   1.073   0.604   8.869  0.7513  0.2609  0.0830
 5906TIP3    H139353   1.087   0.539   8.939 -1.1674 -1.0403 -0.6638
 5906TIP3    H239354   1.102   0.686   8.908  0.5304 -0.5530  2.1301
 5907TIP3   OH239355   2.547   2.581   8.869 -0.4495  0.1148  0.3876
 5907TIP3    H139356   2.607   2.556   8.939  1.0637 -2.4881 -1.6219
 5907TIP3    H239357   2.464   2.540   8.893  0.7686 -3.2616 -0.4924
 5908TIP3   OH239358   4.921   6.403   8.264 -0.4336 -0.1155 -0.1850
 5908TIP3    H139359   4.893   6.493   8.248 -1.3570 -0.3682 -0.0615
 5908TIP3    H239360   4.842   6.351   8.249 -0.2653 -0.7675  1.0829
 5909TIP3   OH239361   3.618   2.592   0.678  0.1289 -0.2731  0.6305
 5909TIP3    H139362   3.635   2.500   0.697 -0.2999 -0.4125  0.3600
 5909TIP3    H239363   3.626   2.636   0.763  0.4575 -0.5393  0.7378
 5910TIP3   OH239364   1.600   2.618   8.162 -0.3490  0.0419  0.1265
 5910TIP3    H139365   1.670   2.622   8.097  0.2066 -0.0501  0.7067
 5910TIP3    H239366   1.645   2.601   8.245 -1.3048 -3.2069  0.0909
 5911TIP3   OH239367   5.380   4.529   1.565 -0.3542  0.1062  0.1054
 5911TIP3    H139368   5.377   4.552   1.472  0.0990 -1.9423 -0.4878
 5911TIP3    H239369   5.363   4.611   1.611 -0.0663  1.2846 -1.7654
 5912TIP3   OH239370   3.864   6.347   0.453  0.1742  0.1838 -0.1466
 5912TIP3    H139371   3.820   6.267   0.423  0.0071  0.1809  0.0928
 5912TIP3    H239372   3.917   6.375   0.380 -0.4968  0.3761 -0.5726
 5913TIP3   OH239373   4.185   2.143   0.385 -0.1488 -0.6126 -0.3440
 5913TIP3    H139374   4.265   2.094   0.403  0.3127  0.2355 -0.0222
 5913TIP3    H239375   4.216   2.229   0.355 -0.9202  0.2508  1.2027
 5914TIP3   OH239376   1.158   0.931   2.322 -0.2287  0.0407 -0.3878
 5914TIP3    H139377   1.166   0.874   2.399 -0.4998  1.7999  1.0032
 5914TIP3    H239378   1.174   0.873   2.248 -0.2197 -1.7833  0.9660
 5915TIP3   OH239379   2.910   0.680   1.516  0.1859  0.4328  0.0739
 5915TIP3    H139380   2.841   0.745   1.531 -0.1994 -0.0154  0.2738
 5915TIP3    H239381   2.991   0.731   1.510 -0.0771  0.9071  0.4982
 5916TIP3   OH239382   4.681   2.241   1.516  0.2630 -0.1186 -0.1437
 5916TIP3    H139383   4.679   2.160   1.566 -1.2298  1.3874  2.4791
 5916TIP3    H239384   4.588   2.266   1.507  0.7113  1.8716  0.2213
 5917TIP3   OH239385   3.496   5.105   7.136 -0.3661 -0.1336 -0.1255
 5917TIP3    H139386   3.418   5.095   7.081 -0.3195 -0.0165 -0.2117
 5917TIP3    H239387   3.462   5.128   7.222 -0.5455 -1.8985  0.3285
 5918TIP3   OH239388   1.780   4.397   0.961  0.4339 -0.5771 -0.5244
 5918TIP3    H139389   1.794   4.324   1.021  0.9032  0.4481  0.6394
 5918TIP3    H239390   1.711   4.449   1.001  0.0520 -0.4041 -1.3798
 5919TIP3   OH239391   2.347   3.543   2.181 -0.0856  0.4972 -0.3046
 5919TIP3    H139392   2.383   3.460   2.152 -2.3743 -0.7129  0.0841
 5919TIP3    H239393   2.377   3.607   2.117 -0.2988 -1.0797 -2.0580
 5920TIP3   OH239394   4.092   5.005   0.805 -0.2857 -0.0315  0.1948
 5920TIP3    H139395   4.166   5.065   0.803 -0.9550  0.9247  2.1891
 5920TIP3    H239396   4.016   5.061   0.818 -0.9950 -1.2218  1.4181
 5921TIP3   OH239397   3.032   5.742   9.127 -0.2075 -0.5091 -0.4066
 5921TIP3    H139398   2.947   5.700   9.137 -0.9554  1.2470  1.3141
 5921TIP3    H239399   3.024   5.795   9.048 -1.7015  1.6286  1.0642
 5922TIP3   OH239400   4.642   4.794   2.409  0.8240  0.1941  0.4497
 5922TIP3    H139401   4.573   4.840   2.457 -1.1056 -2.4278  0.4142
 5922TIP3    H239402   4.692   4.748   2.477  0.9546  0.1093  0.2974
 5923TIP3   OH239403   3.765   2.369   1.928 -0.4360 -0.1328  0.0043
 5923TIP3    H139404   3.716   2.353   2.009 -1.2741  0.0209 -0.4532
 5923TIP3    H239405   3.808   2.453   1.942 -0.2762 -0.2836  0.4277
 5924TIP3   OH239406   3.406   1.560   9.040  0.0338 -0.5575 -0.0003
 5924TIP3    H139407   3.420   1.486   9.099  1.8268 -0.2803 -0.0382
 5924TIP3    H239408   3.329   1.534   8.988  0.2944 -2.1573  0.3456
 5925TIP3   OH239409   1.188   2.191   0.084  0.0540 -0.1503 -0.3437
 5925TIP3    H139410   1.102   2.231   0.075  1.0896  2.1005 -1.0661
 5925TIP3    H239411   1.204   2.149  -0.001 -1.2988 -2.9045  0.6212
 5926TIP3   OH239412   6.033   2.618   0.447 -0.1119  0.3279 -0.7021
 5926TIP3    H139413   6.067   2.648   0.531  2.0080 -0.7484 -1.0897
 5926TIP3    H239414   6.039   2.695   0.390  0.1695  0.5940 -0.3220
 5927TIP3   OH239415   5.723   3.375   2.529  0.2493 -0.3112  0.0274
 5927TIP3    H139416   5.745   3.461   2.493  2.1409 -1.0092 -0.6076
 5927TIP3    H239417   5.761   3.374   2.617  0.8438 -0.7128 -0.2220
 5928TIP3   OH239418   6.528   5.946   1.736  0.0845  0.3429 -0.1237
 5928TIP3    H139419   6.534   5.857   1.771  0.9980  1.2808  2.3219
 5928TIP3    H239420   6.537   6.002   1.813 -1.9361  2.5751 -1.3817
 5929TIP3   OH239421   1.286   4.747   0.547 -0.1115 -0.0709  0.1304
 5929TIP3    H139422   1.374   4.718   0.523  0.4899  2.0549 -0.4919
 5929TIP3    H239423   1.288   4.753   0.643  0.4861  0.1420  0.1051
 5930TIP3   OH239424   1.754   0.998   0.348 -0.4122 -0.5739  0.4155
 5930TIP3    H139425   1.728   0.952   0.428  0.7472 -0.8761  0.6436
 5930TIP3    H239426   1.676   1.046   0.321 -1.0993 -1.2155  1.2055
 5931TIP3   OH239427   5.284   4.572   8.778  0.1653 -0.1283 -0.2714
 5931TIP3    H139428   5.251   4.606   8.861  0.1981 -0.0413 -0.2947
 5931TIP3    H239429   5.220   4.505   8.753  0.1439 -0.1397 -0.1875
 5932TIP3   OH239430   0.377   1.413   1.817 -0.5096 -0.7161 -0.0180
 5932TIP3    H139431   0.403   1.323   1.803 -2.2559 -1.5270  1.5168
 5932TIP3    H239432   0.362   1.419   1.912  0.4693  1.4527  0.0665
 5933TIP3   OH239433   4.289   3.706   2.347  0.0095  0.0549  0.2701
 5933TIP3    H139434   4.381   3.679   2.349  0.2342  0.4541 -2.1774
 5933TIP3    H239435   4.240   3.624   2.336 -0.1878 -0.4054  3.4337
 5934TIP3   OH239436   2.833   5.318   9.060  0.7562 -0.4118 -0.0232
 5934TIP3    H139437   2.816   5.338   9.152 -0.8707 -1.7858  0.0218
 5934TIP3    H239438   2.900   5.250   9.063  4.2003  2.6733 -0.0956
 5935TIP3   OH239439   4.468   4.706   7.780  0.3379  0.1701  0.0343
 5935TIP3    H139440   4.532   4.664   7.723  0.6354 -0.3866  0.7634
 5935TIP3    H239441   4.518   4.729   7.859 -0.0517  0.9860  0.0493
 5936TIP3   OH239442   4.186   3.801   0.391  0.4288 -0.2811 -0.2094
 5936TIP3    H139443   4.242   3.753   0.451 -0.9699 -1.0418  0.5344
 5936TIP3    H239444   4.190   3.892   0.421 -2.6574 -1.0428  3.1686
 5937TIP3   OH239445   6.040   3.027   0.060  0.4078 -0.0577 -0.2380
 5937TIP3    H139446   6.107   3.025   0.129 -1.3205  1.7990  1.6577
 5937TIP3    H239447   5.972   2.969   0.092 -0.4249  0.8356 -0.3569
 5938TIP3   OH239448   6.545   0.131   8.757  0.0043 -0.1205  0.1832
 5938TIP3    H139449   6.576   0.052   8.714  0.1679  0.0637 -0.0389
 5938TIP3    H239450   6.494   0.099   8.832  1.6531 -0.4258  1.2330
 5939TIP3   OH239451   2.955   2.635   2.539 -0.0931  0.0219  1.1668
 5939TIP3    H139452   2.968   2.679   2.623  1.4043  0.4893  0.7233
 5939TIP3    H239453   3.034   2.655   2.489 -0.7590 -0.6217 -0.1962
 5940TIP3   OH239454   1.111   5.509   0.273  0.2112  0.7201  0.1866
 5940TIP3    H139455   1.180   5.496   0.208  0.2507 -0.5980  0.4622
 5940TIP3    H239456   1.079   5.598   0.256  0.1434  0.3810 -1.7053
 5941TIP3   OH239457   2.599   3.602   8.533  0.2001  0.0306 -0.2530
 5941TIP3    H139458   2.616   3.533   8.597 -0.7911  1.1564  1.2925
 5941TIP3    H239459   2.673   3.662   8.543  0.1007  0.1530 -0.2509
 5942TIP3   OH239460   4.092   1.337   2.236  0.0083  0.1358 -0.2896
 5942TIP3    H139461   4.023   1.349   2.301  0.7709 -1.0736  0.8062
 5942TIP3    H239462   4.168   1.380   2.275 -0.0025  1.1227 -1.3100
 5943TIP3   OH239463   6.445   6.617   8.479 -0.4500  0.3831  0.1926
 5943TIP3    H139464   6.458   6.697   8.428 -0.3021 -0.6029 -1.3416
 5943TIP3    H239465   6.532   6.580   8.489 -0.7075 -0.4026 -0.4528
 5944TIP3   OH239466   3.964   3.061   0.596  0.5719  0.2759 -0.1621
 5944TIP3    H139467   4.020   3.025   0.665  0.0668 -1.4050 -0.6028
 5944TIP3    H239468   3.996   3.151   0.585  1.9878 -0.0627  0.8492
 5945TIP3   OH239469   3.307   6.460   7.797 -0.5234  0.1241 -0.1791
 5945TIP3    H139470   3.252   6.538   7.801 -1.6681 -0.6197 -0.6545
 5945TIP3    H239471   3.372   6.480   7.731  0.6027  1.5013  1.2840
 5946TIP3   OH239472   3.718   0.168   9.049  0.1551  0.3922 -0.5421
 5946TIP3    H139473   3.735   0.083   9.090 -1.9411  0.7858  1.3563
 5946TIP3    H239474   3.629   0.160   9.014 -0.0950  1.8067 -0.2982
 5947TIP3   OH239475   1.561   3.602   0.007  0.8586  0.3293  0.5074
 5947TIP3    H139476   1.562   3.656  -0.072 -2.7003 -0.0195  0.0826
 5947TIP3    H239477   1.485   3.632   0.056  1.0359 -1.6900  2.1715
 5948TIP3   OH239478   6.662   3.857   8.379  0.1221 -0.0137  0.1865
 5948TIP3    H139479   6.746   3.879   8.420  1.5711 -0.3502 -2.3628
 5948TIP3    H239480   6.629   3.940   8.345 -0.0701 -0.0348  0.3227
 5949TIP3   OH239481   3.805   0.437   8.480 -0.5131  0.4734 -0.2586
 5949TIP3    H139482   3.805   0.520   8.528 -0.1244  0.5121 -0.3159
 5949TIP3    H239483   3.868   0.382   8.527  0.4260  0.7664 -1.1269
 5950TIP3   OH239484   3.564   2.157   2.549 -0.2698  0.2214 -0.4107
 5950TIP3    H139485   3.501   2.215   2.592 -1.5723 -2.3666  1.4472
 5950TIP3    H239486   3.649   2.195   2.570 -1.0792  1.6830  0.3904
 5951TIP3   OH239487   2.312   0.132   7.159 -0.9118 -0.2940  0.0107
 5951TIP3    H139488   2.378   0.195   7.130 -1.1058 -0.0973 -0.0064
 5951TIP3    H239489   2.319   0.132   7.255 -0.4742 -0.7233 -0.0187
 5952TIP3   OH239490   4.479   2.603   0.730  0.3305  0.9782 -0.4020
 5952TIP3    H139491   4.527   2.682   0.753  0.2914  0.3719  2.0211
 5952TIP3    H239492   4.402   2.604   0.787  1.7927 -2.1964  1.9461
 5953TIP3   OH239493   1.912   0.779   8.696 -0.0779 -0.3765 -0.1605
 5953TIP3    H139494   1.845   0.736   8.643 -0.7349 -1.7917  1.7229
 5953TIP3    H239495   1.873   0.862   8.722 -0.3822 -0.3921 -0.5596
 5954TIP3   OH239496   3.799   1.724   2.247  0.2159 -0.6739 -0.0210
 5954TIP3    H139497   3.865   1.743   2.314 -0.3803  2.1801 -0.0974
 5954TIP3    H239498   3.832   1.766   2.168 -0.6419 -1.1523 -0.6450
 5955TIP3   OH239499   4.910   4.452   6.932  0.2089  0.3521  0.0753
 5955TIP3    H139500   4.840   4.502   6.891  0.9052  2.6579  1.4567
 5955TIP3    H239501   4.869   4.370   6.960 -0.6751 -0.6033 -3.4922
 5956TIP3   OH239502   5.879   4.271   7.903 -0.0228 -0.2664  0.1951
 5956TIP3    H139503   5.788   4.277   7.872 -0.9208 -1.3949  2.3828
 5956TIP3    H239504   5.920   4.206   7.846 -0.6539  0.0337 -0.6237
 5957TIP3   OH239505   3.366   0.831   2.541  0.6253 -0.5619 -0.4763
 5957TIP3    H139506   3.395   0.844   2.631 -0.8377 -2.5444  0.3316
 5957TIP3    H239507   3.387   0.914   2.497 -0.2437  1.1248  2.0946
 5958TIP3   OH239508   5.142   0.188   2.385  0.3106 -0.0642 -0.0012
 5958TIP3    H139509   5.169   0.279   2.394  0.8190 -0.3150  1.1191
 5958TIP3    H239510   5.100   0.167   2.468  1.2791 -1.1941  0.2329
 5959TIP3   OH239511   4.881   2.267   2.901 -0.0443  0.4493  0.4803
 5959TIP3    H139512   4.938   2.195   2.873 -0.4226  0.7234 -1.1440
 5959TIP3    H239513   4.851   2.242   2.988  0.9271 -0.6856  0.5081
 5960TIP3   OH239514   6.571   4.626   0.594 -0.3104 -0.1561 -0.3968
 5960TIP3    H139515   6.660   4.660   0.591 -1.2312  2.4177 -1.1047
 5960TIP3    H239516   6.530   4.671   0.667 -1.2876 -0.6863 -0.5946
 5961TIP3   OH239517   0.229   6.593   0.815  0.6960  0.1698 -0.3204
 5961TIP3    H139518   0.257   6.683   0.830  2.1613 -0.3527  0.2294
 5961TIP3    H239519   0.306   6.550   0.776  0.6696 -1.3090  1.1609
 5962TIP3   OH239520   2.305   1.288   3.038  0.4127  0.1226 -0.3069
 5962TIP3    H139521   2.344   1.282   3.125 -0.6793 -1.9610  0.1063
 5962TIP3    H239522   2.276   1.379   3.030  0.2361  0.2613  1.6453
 5963TIP3   OH239523   4.608   6.640   0.587  0.0140 -0.2053  0.4723
 5963TIP3    H139524   4.622   6.560   0.638  0.4672 -1.3402 -1.3556
 5963TIP3    H239525   4.632   6.710   0.648 -1.6636 -1.3206  2.5721
 5964TIP3   OH239526   5.500   3.529   1.994 -0.3705  0.0943  0.1080
 5964TIP3    H139527   5.464   3.612   2.025  1.0436  0.1290  1.7704
 5964TIP3    H239528   5.442   3.462   2.031  0.0040  0.2459  0.9949
 5965TIP3   OH239529   2.471   2.809   1.480 -0.0763 -0.4326  0.3805
 5965TIP3    H139530   2.565   2.797   1.463 -0.0391  0.3853 -0.0418
 5965TIP3    H239531   2.442   2.724   1.513  0.5152 -1.1280 -0.8199
 5966TIP3   OH239532   0.211   1.580   9.041  0.6611 -0.0018  0.3091
 5966TIP3    H139533   0.283   1.520   9.020 -0.1143 -0.2717 -1.7839
 5966TIP3    H239534   0.245   1.633   9.113  2.1984 -1.4464  0.7187
 5967TIP3   OH239535   4.705   4.094   2.910  0.1115  0.4178  0.5135
 5967TIP3    H139536   4.685   4.183   2.883 -1.1405 -0.1372 -0.5438
 5967TIP3    H239537   4.638   4.074   2.976  0.8496  0.4950  1.3044
 5968TIP3   OH239538   2.151   1.082   1.109 -0.0645 -0.2695 -0.4716
 5968TIP3    H139539   2.114   1.065   1.022 -0.8634 -2.6034  0.2623
 5968TIP3    H239540   2.085   1.049   1.170  2.1275 -2.2933  0.9401
 5969TIP3   OH239541   0.198   5.701   1.519  0.1435  0.2346 -0.2687
 5969TIP3    H139542   0.273   5.657   1.478  0.0496  0.1171 -0.3166
 5969TIP3    H239543   0.125   5.640   1.507 -0.0987  0.6115 -0.7474
 5970TIP3   OH239544   2.671   0.274   1.919 -0.3133 -0.1369  0.0007
 5970TIP3    H139545   2.601   0.265   1.854 -2.2693  1.3469  1.7198
 5970TIP3    H239546   2.661   0.198   1.976  0.1456 -0.4452 -0.3273
 5971TIP3   OH239547   5.680   1.792   1.418  0.2750 -0.2719  0.3907
 5971TIP3    H139548   5.676   1.793   1.514 -0.2296  2.0148  0.4067
 5971TIP3    H239549   5.588   1.796   1.391  0.4734  0.7305 -0.1483
 5972TIP3   OH239550   2.715   2.600   0.868  0.1231  0.3034  0.7740
 5972TIP3    H139551   2.640   2.567   0.819 -0.6335 -0.9384  2.6756
 5972TIP3    H239552   2.790   2.586   0.809 -0.8903  0.0257 -0.4911
 5973TIP3   OH239553   6.144   0.554   2.771 -0.6385  0.3308  0.5285
 5973TIP3    H139554   6.203   0.511   2.834  1.1221 -0.3319 -1.4674
 5973TIP3    H239555   6.178   0.643   2.764  1.5842 -0.5892 -2.1301
 5974TIP3   OH239556   0.660   1.194   1.521  0.3425 -0.4417  0.3633
 5974TIP3    H139557   0.729   1.175   1.457  0.5936  2.4032 -0.3513
 5974TIP3    H239558   0.701   1.177   1.606  1.1456 -1.0369 -0.1348
 5975TIP3   OH239559   3.701   5.180   6.913  0.5342  0.0738 -0.1696
 5975TIP3    H139560   3.670   5.130   6.838  2.7498  0.2067 -1.2511
 5975TIP3    H239561   3.739   5.114   6.971  0.7862  0.1889 -0.2017
 5976TIP3   OH239562   0.189   4.252   8.485 -0.4566  0.0534 -0.4443
 5976TIP3    H139563   0.203   4.180   8.423 -0.3324  1.0359 -1.5850
 5976TIP3    H239564   0.271   4.259   8.533 -1.1668 -1.9526  1.2329
 5977TIP3   OH239565   2.042   2.280   2.237  0.1585  0.1654 -0.0965
 5977TIP3    H139566   1.980   2.215   2.271 -2.3999  3.0060  1.1184
 5977TIP3    H239567   2.120   2.229   2.216 -2.1174 -3.4829 -0.6222
 5978TIP3   OH239568   4.235   5.434   8.856  0.1697  0.3918 -0.1173
 5978TIP3    H139569   4.142   5.443   8.836 -0.1123 -0.3811  0.7383
 5978TIP3    H239570   4.272   5.389   8.781 -1.2305 -4.2670  1.6355
 5979TIP3   OH239571   3.278   0.024   0.095 -0.4865  0.0694 -0.6775
 5979TIP3    H139572   3.248  -0.044   0.156 -0.8561  0.4200 -0.4671
 5979TIP3    H239573   3.315  -0.025   0.022  1.4468 -0.3745  0.5315
 5980TIP3   OH239574   4.592   5.912   8.888  0.0835  0.3416 -0.3181
 5980TIP3    H139575   4.637   5.873   8.963 -0.2660 -0.2384 -0.4100
 5980TIP3    H239576   4.659   5.914   8.819  0.3921  0.8315 -0.0119
 5981TIP3   OH239577   4.917   4.583   8.571 -0.0670 -0.1098 -0.2205
 5981TIP3    H139578   4.925   4.672   8.605 -0.1775 -0.1565 -0.0719
 5981TIP3    H239579   4.983   4.578   8.502  0.3232 -0.0978  0.1511
 5982TIP3   OH239580   3.296   0.870   0.481 -0.0404 -0.2430  0.5596
 5982TIP3    H139581   3.327   0.917   0.403  0.6613  0.5311  1.2905
 5982TIP3    H239582   3.304   0.777   0.458  1.3956 -0.0417  0.1778
 5983TIP3   OH239583   5.597   6.650   1.206 -0.2184 -0.1721  0.2833
 5983TIP3    H139584   5.545   6.718   1.162  0.2221 -0.4816 -0.7375
 5983TIP3    H239585   5.609   6.684   1.295 -0.0006  1.0977 -0.2063
 5984TIP3   OH239586   3.569   3.712   1.784 -0.2094  0.7051 -0.0350
 5984TIP3    H139587   3.581   3.651   1.711  0.7086 -0.0181  0.7075
 5984TIP3    H239588   3.474   3.716   1.796 -0.4042  1.0696 -1.4451
 5985TIP3   OH239589   5.532   2.120   8.729  0.3236  0.2365 -1.0047
 5985TIP3    H139590   5.478   2.181   8.679  0.7123  1.4093 -0.0461
 5985TIP3    H239591   5.598   2.090   8.667 -0.6546 -0.2462 -1.8446
 5986TIP3   OH239592   3.812   6.336   1.506 -0.2582  0.2116  0.2509
 5986TIP3    H139593   3.719   6.334   1.527 -0.3889 -1.2772 -0.3616
 5986TIP3    H239594   3.838   6.244   1.502  0.5914  0.4848 -2.2741
 5987TIP3   OH239595   2.093   3.402   1.949 -0.3261 -0.7745 -0.5036
 5987TIP3    H139596   2.033   3.440   2.013  0.5878 -1.0006  0.5206
 5987TIP3    H239597   2.136   3.331   1.996  1.2110 -0.2156 -1.0105
 5988TIP3   OH239598   3.848   1.884   6.871 -0.5646  0.1886  0.0487
 5988TIP3    H139599   3.794   1.811   6.902 -0.7613  0.0968 -0.4929
 5988TIP3    H239600   3.927   1.842   6.836 -1.2428  0.1188 -1.4603
 5989TIP3   OH239601   2.496   3.981   7.397 -0.5542  0.4966 -0.1343
 5989TIP3    H139602   2.499   4.064   7.349 -0.1259  0.7244  0.2822
 5989TIP3    H239603   2.587   3.953   7.402 -0.6942  0.0191 -0.2372
 5990TIP3   OH239604   0.740   0.035   1.706 -0.1248  0.2442 -0.1370
 5990TIP3    H139605   0.717  -0.040   1.761 -1.9642  1.1233  0.3672
 5990TIP3    H239606   0.781   0.097   1.767  3.0133 -0.9375 -0.8608
 5991TIP3   OH239607   2.375   1.613   1.833  0.2961  0.0439  0.2480
 5991TIP3    H139608   2.381   1.525   1.869  0.3640  0.1657  0.5325
 5991TIP3    H239609   2.423   1.668   1.894 -2.0548  0.7377  1.5863
 5992TIP3   OH239610   5.301   4.911   2.138 -0.5591 -0.1809  0.6537
 5992TIP3    H139611   5.314   4.817   2.151 -0.4878 -0.0441  1.6012
 5992TIP3    H239612   5.303   4.922   2.042  3.5191 -0.5643  0.5226
 5993TIP3   OH239613   5.075   4.167   1.602 -0.1247 -0.4072 -0.3063
 5993TIP3    H139614   5.119   4.245   1.636  2.9981 -1.2068 -2.1651
 5993TIP3    H239615   5.099   4.098   1.664 -2.1024 -0.2138  0.7970
 5994TIP3   OH239616   4.814   3.985   8.128 -0.2469  0.3166 -0.5005
 5994TIP3    H139617   4.767   3.919   8.180 -0.0942 -0.1704 -0.9800
 5994TIP3    H239618   4.796   4.067   8.174  0.2496 -0.1617  0.5902
 5995TIP3   OH239619   4.831   5.458   1.196  0.0670 -0.2972  0.2517
 5995TIP3    H139620   4.859   5.547   1.175  2.0595 -1.2069 -1.2760
 5995TIP3    H239621   4.743   5.452   1.160  1.5276 -0.2297 -3.7979
 5996TIP3   OH239622   4.865   1.525   1.214 -0.3166 -0.7524 -0.2564
 5996TIP3    H139623   4.941   1.499   1.266  0.8348 -0.0796 -1.5222
 5996TIP3    H239624   4.813   1.580   1.273 -0.8002 -2.6772  1.1959
 5997TIP3   OH239625   3.533   3.882   1.477  0.0194  0.1200 -0.7898
 5997TIP3    H139626   3.588   3.890   1.555 -2.8198 -1.8045  1.6658
 5997TIP3    H239627   3.591   3.850   1.409  2.4905  1.1511  0.6953
 5998TIP3   OH239628   1.118   1.262   0.895 -0.5231 -0.2551  0.6194
 5998TIP3    H139629   1.176   1.327   0.935 -0.1318  0.2461 -0.6829
 5998TIP3    H239630   1.138   1.181   0.941  1.5510 -0.1838 -0.0406
 5999TIP3   OH239631   3.644   5.939   9.182 -0.3499  1.0203  0.0992
 5999TIP3    H139632   3.658   5.876   9.111  0.7193  2.2596 -0.8456
 5999TIP3    H239633   3.562   5.983   9.160 -0.1692  1.1977 -0.2357
 6000TIP3   OH239634   0.487   0.457   0.386  0.1235  0.5386 -0.4627
 6000TIP3    H139635   0.438   0.375   0.389  0.4430  0.3661  0.8317
 6000TIP3    H239636   0.458   0.500   0.306  1.2679 -1.6634 -2.1723
 6001TIP3   OH239637   4.072   3.431   7.357  0.9173  0.2656 -0.2545
 6001TIP3    H139638   4.059   3.440   7.263  0.1124  1.1182 -0.0705
 6001TIP3    H239639   4.024   3.350   7.380  3.1483 -1.3411 -0.9343
 6002TIP3   OH239640   5.870   1.525   1.508 -0.0854 -0.5732 -0.1321
 6002TIP3    H139641   5.814   1.485   1.576  1.6340 -1.5999  0.7567
 6002TIP3    H239642   5.900   1.607   1.547 -0.2123 -0.4842 -0.2219
 6003TIP3   OH239643   2.198   0.603   7.603  1.0043 -0.0709 -0.0919
 6003TIP3    H139644   2.293   0.614   7.602  0.9713  0.2522  0.0793
 6003TIP3    H239645   2.164   0.691   7.587  0.7342 -0.1496  0.0442
 6004TIP3   OH239646   5.258   6.170   1.915 -0.4280  0.2423  0.3327
 6004TIP3    H139647   5.316   6.109   1.960  0.3114 -0.0077 -0.9239
 6004TIP3    H239648   5.215   6.218   1.986 -0.4451 -1.1741  1.3388
 6005TIP3   OH239649   5.661   4.292   1.965  0.5939 -0.4883 -0.2451
 6005TIP3    H139650   5.695   4.218   2.016  0.2817  0.7135  1.7687
 6005TIP3    H239651   5.687   4.370   2.014  0.3186  0.7428 -1.9588
 6006TIP3   OH239652   0.399   5.901   8.412  0.9537 -0.1457  0.3774
 6006TIP3    H139653   0.483   5.939   8.389  0.1594  3.3208  2.5152
 6006TIP3    H239654   0.413   5.861   8.498  0.6793 -0.6344  0.1980
 6007TIP3   OH239655   6.319   0.619   8.752  0.6446  0.7832 -0.4130
 6007TIP3    H139656   6.388   0.642   8.815  0.7290 -1.4859  0.4029
 6007TIP3    H239657   6.246   0.589   8.807 -0.7325  2.3219 -1.2984
 6008TIP3   OH239658   3.574   2.998   7.931 -0.1992  0.5844 -0.1076
 6008TIP3    H139659   3.503   3.058   7.955  1.9347  2.8473  1.0333
 6008TIP3    H239660   3.646   3.056   7.904  2.0061 -1.4274  1.0460
 6009TIP3   OH239661   4.753   4.625   2.630  0.1674  0.6468 -1.0107
 6009TIP3    H139662   4.775   4.602   2.540  1.6240  0.0204 -0.5301
 6009TIP3    H239663   4.667   4.585   2.644  0.4241 -0.2218 -1.7760
 6010TIP3   OH239664   4.319   4.701   8.785  0.0182  0.1538 -0.1545
 6010TIP3    H139665   4.300   4.792   8.762 -0.5298 -0.0742 -0.6177
 6010TIP3    H239666   4.406   4.704   8.826  1.3619  0.5057 -2.8356
 6011TIP3   OH239667   5.929   3.736   9.101 -0.1106 -0.1783 -0.2479
 6011TIP3    H139668   5.980   3.661   9.132  0.0300 -0.4633 -1.1480
 6011TIP3    H239669   5.950   3.743   9.008  0.7262  1.6547  0.0359
 6012TIP3   OH239670   6.037   1.373   1.118  0.0650 -0.3240 -0.8709
 6012TIP3    H139671   6.126   1.339   1.118  0.2619  0.1506 -0.0554
 6012TIP3    H239672   6.021   1.398   1.027  1.1648  0.5696 -0.8510
 6013TIP3   OH239673   4.237   0.563   0.699  0.1215 -0.0522 -0.2154
 6013TIP3    H139674   4.278   0.648   0.714  1.8076 -0.6748 -0.9942
 6013TIP3    H239675   4.278   0.505   0.763 -1.8262 -0.0958  1.0647
 6014TIP3   OH239676   0.490   5.400   8.621  0.2567  0.1957  0.1246
 6014TIP3    H139677   0.562   5.441   8.574  0.8114 -0.7053  0.1543
 6014TIP3    H239678   0.415   5.409   8.563  1.1520 -1.8220 -1.4745
 6015TIP3   OH239679   2.052   4.863   2.855 -1.0883  0.6556 -0.4967
 6015TIP3    H139680   2.047   4.924   2.929  0.3795  1.1392 -0.7755
 6015TIP3    H239681   2.062   4.918   2.778 -0.3972  0.0844 -0.8262
 6016TIP3   OH239682   2.493   1.375   0.947 -0.2052  0.6353 -0.3317
 6016TIP3    H139683   2.568   1.316   0.937  0.7984  1.0332  3.4223
 6016TIP3    H239684   2.467   1.365   1.039 -0.3966  5.4482  0.3569
 6017TIP3   OH239685   5.034   2.652   2.121 -0.0762  0.1490  0.0633
 6017TIP3    H139686   5.125   2.668   2.096  0.9073 -0.7200  2.6948
 6017TIP3    H239687   5.011   2.571   2.076  1.6966 -1.5081  1.9268
 6018TIP3   OH239688   1.265   4.094   1.379 -0.3256 -0.1426  0.5253
 6018TIP3    H139689   1.201   4.026   1.403  0.6901 -1.0322  0.7930
 6018TIP3    H239690   1.317   4.054   1.310  0.4770  0.2439  0.8986
 6019TIP3   OH239691   6.041   2.050   8.916 -0.1339 -0.3378 -0.0527
 6019TIP3    H139692   6.054   2.061   9.010 -2.3363 -0.3334  0.3054
 6019TIP3    H239693   5.949   2.073   8.902 -0.3320 -1.9940 -1.9140
 6020TIP3   OH239694   6.236   5.218   2.332  0.5741 -0.0926 -0.1748
 6020TIP3    H139695   6.310   5.161   2.352 -0.0061 -0.6358  0.4645
 6020TIP3    H239696   6.187   5.171   2.264 -0.5619 -0.9531  1.1994
 6021TIP3   OH239697   0.741   5.803   0.847  0.2322  0.3915  0.8501
 6021TIP3    H139698   0.768   5.884   0.891 -2.3307  0.8090  1.8108
 6021TIP3    H239699   0.727   5.830   0.756  1.1033  0.5907  0.7628
 6022TIP3   OH239700   5.872   1.686   2.030  0.1669  0.0070 -0.2079
 6022TIP3    H139701   5.896   1.732   2.111  0.9849  1.7457 -1.3778
 6022TIP3    H239702   5.838   1.602   2.060  0.8607  0.4119  1.9185
 6023TIP3   OH239703   4.735   2.448   9.173  0.0932 -0.4830  0.1190
 6023TIP3    H139704   4.710   2.525   9.224 -0.0188 -0.0999 -0.4959
 6023TIP3    H239705   4.814   2.414   9.216  0.8753  0.7119 -0.3173
 6024TIP3   OH239706   6.614   6.277   0.979  0.0446  0.3876  0.3019
 6024TIP3    H139707   6.704   6.306   0.995 -0.2602  1.0894  0.8210
 6024TIP3    H239708   6.579   6.343   0.919 -0.7209  1.2617  1.6481
 6025TIP3   OH239709   0.950   5.175   7.519  0.8400 -0.7543 -0.1324
 6025TIP3    H139710   0.946   5.096   7.574  1.9464  0.1440  1.3334
 6025TIP3    H239711   1.044   5.195   7.514  0.5440  0.7841  0.0261
 6026TIP3   OH239712   0.845   0.502   8.772 -0.0225  0.4378 -0.1788
 6026TIP3    H139713   0.930   0.538   8.797 -0.0269  0.5009 -0.2546
 6026TIP3    H239714   0.831   0.430   8.833  0.2186  0.2366 -0.3609
 6027TIP3   OH239715   2.420   4.742   0.174 -0.4650  0.0867  0.2949
 6027TIP3    H139716   2.461   4.749   0.088  1.4110  0.9235  1.1985
 6027TIP3    H239717   2.414   4.647   0.191  2.1368 -0.1031  0.5349
 6028TIP3   OH239718   2.848   0.964   1.611 -0.3075  0.1912 -0.2261
 6028TIP3    H139719   2.796   0.953   1.691 -1.8764 -3.3440 -1.4854
 6028TIP3    H239720   2.925   1.013   1.639 -1.9962  1.3963  2.8380
 6029TIP3   OH239721   0.068   4.069   7.633 -0.0206 -0.1838  0.2025
 6029TIP3    H139722   0.068   3.999   7.567 -2.0222 -1.1393  1.1243
 6029TIP3    H239723   0.121   4.034   7.704  1.3716  0.4652 -0.4885
 6030TIP3   OH239724   4.735   6.318   0.456 -0.2289  0.0802  0.5493
 6030TIP3    H139725   4.696   6.234   0.480 -0.4248 -0.2307 -0.8003
 6030TIP3    H239726   4.761   6.357   0.540 -0.2051 -1.2809  1.1977
 6031TIP3   OH239727   3.736   4.909   0.758  0.0222 -0.3922 -0.1922
 6031TIP3    H139728   3.792   4.937   0.686  1.0133 -0.2458  0.6111
 6031TIP3    H239729   3.711   4.991   0.802  0.0058 -0.5265  0.0522
 6032TIP3   OH239730   6.322   1.579   0.239 -0.5227 -0.4251  0.1953
 6032TIP3    H139731   6.334   1.649   0.174  1.4498 -1.2694 -0.4278
 6032TIP3    H239732   6.250   1.527   0.204 -0.0876 -0.3452 -0.8723
 6033TIP3   OH239733   5.834   4.638   1.401  0.3661 -0.3017 -0.4075
 6033TIP3    H139734   5.808   4.719   1.358  0.5127 -0.2903 -0.4751
 6033TIP3    H239735   5.825   4.571   1.334  0.5586 -0.2901 -0.4437
 6034TIP3   OH239736   3.445   3.266   0.733  0.2700 -0.0030  0.4691
 6034TIP3    H139737   3.404   3.238   0.651 -0.9589  1.5966  0.5085
 6034TIP3    H239738   3.392   3.227   0.801 -0.5731  1.1900  0.5114
 6035TIP3   OH239739   5.042   3.736   7.969  0.1591  0.1331 -0.1586
 6035TIP3    H139740   5.061   3.653   8.013 -2.7554 -0.7871 -0.4527
 6035TIP3    H239741   5.015   3.794   8.040 -0.3942 -0.0196 -0.2405
 6036TIP3   OH239742   5.204   3.879   7.783 -0.4459 -0.4814  0.0483
 6036TIP3    H139743   5.160   3.836   7.856  1.0765 -0.8593  0.7934
 6036TIP3    H239744   5.256   3.809   7.742 -1.3645 -0.3095 -1.5084
 6037TIP3   OH239745   2.477   6.588   0.977 -0.0060  0.6446  0.0959
 6037TIP3    H139746   2.528   6.644   0.918 -0.6216  0.6538 -0.4334
 6037TIP3    H239747   2.543   6.544   1.031  0.5409  0.9494 -0.3127
 6038TIP3   OH239748   2.268   5.701   9.204 -0.0083  0.0983  0.3599
 6038TIP3    H139749   2.210   5.670   9.135 -1.8951  1.0924  1.4210
 6038TIP3    H239750   2.308   5.780   9.168 -0.0620 -0.0387 -0.0060
 6039TIP3   OH239751   5.755   0.737   8.049 -0.5881  0.3481  0.5932
 6039TIP3    H139752   5.807   0.663   8.016 -0.2769  1.3038 -1.2290
 6039TIP3    H239753   5.664   0.712   8.035 -0.5896 -0.5299  1.9790
 6040TIP3   OH239754   5.807   5.953   2.093  0.0891  0.2185  0.1036
 6040TIP3    H139755   5.900   5.952   2.071  0.1875  1.8412  0.2760
 6040TIP3    H239756   5.775   5.866   2.069  1.2065  0.3025 -1.9121
 6041TIP3   OH239757   0.470   1.010   1.356  0.2616 -0.5503 -0.1128
 6041TIP3    H139758   0.522   1.087   1.333 -1.7201  0.7054 -0.7025
 6041TIP3    H239759   0.420   1.038   1.433  0.2791 -1.6250  0.3041
 6042TIP3   OH239760   3.209   2.612   7.622 -0.6191  0.5472 -0.4352
 6042TIP3    H139761   3.200   2.576   7.534 -0.0171 -1.6794  0.3461
 6042TIP3    H239762   3.187   2.704   7.613 -2.3074  0.0004 -2.5755
 6043TIP3   OH239763   5.984   4.464   0.846 -0.3484  0.7064 -0.0732
 6043TIP3    H139764   6.039   4.408   0.900 -0.0396 -0.1108 -1.2096
 6043TIP3    H239765   6.044   4.530   0.811 -0.4124  0.8236  0.0401
 6044TIP3   OH239766   6.447   4.721   8.242 -0.1025  1.1147  0.3239
 6044TIP3    H139767   6.520   4.665   8.270  0.2424  1.8183  0.8612
 6044TIP3    H239768   6.391   4.729   8.319 -0.0345  1.6816  0.3199
 6045TIP3   OH239769   6.606   2.764   1.396 -0.0096  0.3627  0.2601
 6045TIP3    H139770   6.523   2.739   1.436 -0.1138  0.4380  0.0892
 6045TIP3    H239771   6.617   2.703   1.323 -0.3329  0.9035 -0.2480
 6046TIP3   OH239772   3.858   6.444   1.083 -1.1736  0.2712  0.4826
 6046TIP3    H139773   3.937   6.400   1.115  0.3419  1.0584 -1.9295
 6046TIP3    H239774   3.853   6.524   1.135  0.1485  0.6192  0.1287
 6047TIP3   OH239775   0.457   0.131   2.910  0.0754  0.6077  0.0542
 6047TIP3    H139776   0.411   0.186   2.974  0.5326  0.9159  0.1241
 6047TIP3    H239777   0.542   0.115   2.949  0.2496  0.5522 -0.3452
 6048TIP3   OH239778   6.470   4.083   0.768 -0.4416 -0.2056  0.8793
 6048TIP3    H139779   6.459   4.019   0.697 -2.2359  1.5095 -0.5090
 6048TIP3    H239780   6.562   4.110   0.761 -0.5050 -0.2615 -0.6788
 6049TIP3   OH239781   1.002   2.633   7.986 -0.0356  0.3173  0.2855
 6049TIP3    H139782   1.042   2.550   7.960  2.1545  1.9651 -2.0433
 6049TIP3    H239783   0.914   2.630   7.948  0.1293 -0.8029 -0.0468
 6050TIP3   OH239784   3.931   4.626   1.948 -0.1452 -0.3772  0.0067
 6050TIP3    H139785   3.975   4.663   1.872  1.7161 -0.5265  0.9557
 6050TIP3    H239786   3.992   4.560   1.982 -1.7520 -1.6689  0.5488
 6051TIP3   OH239787   6.345   6.429   1.221 -0.1828 -0.5132 -0.2096
 6051TIP3    H139788   6.387   6.346   1.246 -0.6611 -0.6817  0.0397
 6051TIP3    H239789   6.317   6.414   1.130 -0.5454 -0.7379 -0.0633
 6052TIP3   OH239790   0.209   4.872   8.177 -0.0029 -0.0639 -0.5684
 6052TIP3    H139791   0.303   4.887   8.174  0.3489 -2.1375 -2.1448
 6052TIP3    H239792   0.196   4.807   8.246 -0.4056  0.7924  0.1845
 6053TIP3   OH239793   1.043   0.050   8.425  0.5159 -0.8114  0.1786
 6053TIP3    H139794   1.014   0.010   8.507  0.0428 -0.3594  0.2437
 6053TIP3    H239795   0.966   0.100   8.395  1.9306  2.6131  1.6905
 6054TIP3   OH239796   5.950   6.454   2.527  0.2118  0.1500  0.0371
 6054TIP3    H139797   5.966   6.545   2.551 -1.5680  0.7932 -1.0258
 6054TIP3    H239798   5.870   6.430   2.572  0.0857 -0.5433 -0.5371
 6055TIP3   OH239799   0.219   2.785   9.173  0.4140  0.1797  0.3550
 6055TIP3    H139800   0.290   2.780   9.237  0.8448  1.8196  0.0691
 6055TIP3    H239801   0.139   2.792   9.225  0.5186 -0.9494  0.6816
 6056TIP3   OH239802   0.722   1.602   0.383 -0.0315  0.5588 -0.3042
 6056TIP3    H139803   0.796   1.572   0.331  1.0979  2.5804  0.0021
 6056TIP3    H239804   0.749   1.587   0.474 -0.2562  0.7297 -0.2074
 6057TIP3   OH239805   0.649   4.825   2.651  0.1465  0.1664  0.3500
 6057TIP3    H139806   0.713   4.849   2.718 -1.1732  2.1627  0.9833
 6057TIP3    H239807   0.606   4.747   2.686  1.2301 -0.3298  0.5943
 6058TIP3   OH239808   2.472   0.973   1.087  0.2448 -0.4663  0.1437
 6058TIP3    H139809   2.513   0.996   1.170  0.0846  1.6506 -0.3143
 6058TIP3    H239810   2.386   1.014   1.091  0.1322 -0.5712 -0.9603
 6059TIP3   OH239811   2.796   3.469   8.114 -1.0459 -0.3257 -0.4351
 6059TIP3    H139812   2.719   3.525   8.104 -0.0275  1.2235  0.0110
 6059TIP3    H239813   2.788   3.434   8.203 -0.8037  0.5218 -0.0753
 6060TIP3   OH239814   3.247   0.865   2.126 -0.7188 -0.3146  0.2393
 6060TIP3    H139815   3.226   0.945   2.176  1.9618  0.7964 -0.2725
 6060TIP3    H239816   3.305   0.816   2.183 -0.9274 -1.0563 -0.1813
 6061TIP3   OH239817   1.619   3.946   2.819 -0.1346 -0.1932 -0.3100
 6061TIP3    H139818   1.638   4.026   2.868  2.8438 -0.8643 -0.1688
 6061TIP3    H239819   1.523   3.941   2.817 -0.4837  0.7271  4.0581
 6062TIP3   OH239820   6.211   0.965   0.328 -0.0214 -0.2982  0.6534
 6062TIP3    H139821   6.241   1.050   0.361 -0.9786  0.7518 -1.0889
 6062TIP3    H239822   6.290   0.924   0.292  0.6333 -0.6108  2.3173
 6063TIP3   OH239823   4.958   0.560   9.183 -0.0820  0.6611 -0.4677
 6063TIP3    H139824   5.000   0.534   9.265  0.7512 -0.3196 -1.1909
 6063TIP3    H239825   5.012   0.521   9.115 -1.3744  0.5642 -1.4641
 6064TIP3   OH239826   0.249   5.440   8.500  0.4547 -0.0363 -0.0442
 6064TIP3    H139827   0.203   5.364   8.535 -0.0530  0.8444  1.2431
 6064TIP3    H239828   0.219   5.446   8.409  1.4567 -2.0901 -0.5814
 6065TIP3   OH239829   2.346   6.391   8.935  0.5146  0.0033 -0.7965
 6065TIP3    H139830   2.322   6.299   8.938  1.8982 -0.3565  0.2897
 6065TIP3    H239831   2.365   6.413   9.026  1.4301  1.0168 -1.2119
 6066TIP3   OH239832   1.655   1.261   2.596  0.1947  0.3417  0.0906
 6066TIP3    H139833   1.574   1.282   2.549 -0.0075  1.8368  1.0288
 6066TIP3    H239834   1.626   1.223   2.679  0.5377 -1.5907 -0.6258
 6067TIP3   OH239835   3.395   5.023   8.482  0.3669  0.3966  0.3388
 6067TIP3    H139836   3.471   5.042   8.428 -0.0448  2.0564  0.3029
 6067TIP3    H239837   3.425   5.035   8.572  0.7977 -1.4589  0.4961
 6068TIP3   OH239838   4.122   3.640   8.940  0.2384 -0.1632 -0.2770
 6068TIP3    H139839   4.169   3.682   8.867 -1.5117  0.0214 -1.3643
 6068TIP3    H239840   4.054   3.587   8.897  0.4788 -1.7407  1.1761
 6069TIP3   OH239841   4.806   6.150   8.869 -0.0502  0.0679 -0.2153
 6069TIP3    H139842   4.828   6.072   8.818 -2.4799 -0.4346 -0.6285
 6069TIP3    H239843   4.878   6.210   8.853  0.3156 -0.8791 -2.5674
 6070TIP3   OH239844   4.239   0.987   1.883 -0.3209 -0.7768  0.2570
 6070TIP3    H139845   4.171   1.017   1.944 -0.7319 -1.0015 -0.0812
 6070TIP3    H239846   4.190   0.962   1.805  0.3911  1.9371 -1.1781
 6071TIP3   OH239847   2.794   3.625   8.911 -0.3165 -0.2349 -0.1689
 6071TIP3    H139848   2.825   3.600   8.997  1.2481 -0.5862 -0.8018
 6071TIP3    H239849   2.698   3.626   8.919 -0.1984 -0.0748  1.5967
 6072TIP3   OH239850   3.466   2.992   7.183  0.5378  0.3052  0.0836
 6072TIP3    H139851   3.461   2.898   7.168 -0.1377  0.4699 -0.8112
 6072TIP3    H239852   3.560   3.011   7.182  0.6455 -0.1724 -1.0442
 6073TIP3   OH239853   5.694   1.410   1.717 -0.0232  0.0017 -0.5353
 6073TIP3    H139854   5.715   1.327   1.761  1.0814  0.1499 -0.7426
 6073TIP3    H239855   5.608   1.434   1.750 -0.0729 -0.8985  0.0259
 6074TIP3   OH239856   1.999   0.496   1.718  0.6353  0.2175  0.3020
 6074TIP3    H139857   1.916   0.450   1.725  0.1164  0.9877 -0.7041
 6074TIP3    H239858   2.038   0.488   1.806 -0.0441 -0.9717  0.5125
 6075TIP3   OH239859   0.065   2.501   8.640 -0.1390 -0.3466  0.2797
 6075TIP3    H139860   0.054   2.437   8.570 -1.1514  0.5276 -0.3928
 6075TIP3    H239861   0.000   2.475   8.706 -0.5993  0.0037 -0.0249
 6076TIP3   OH239862   1.105   3.175   1.429 -0.4603 -0.8699 -0.1655
 6076TIP3    H139863   1.180   3.225   1.460 -0.2414 -1.2408 -0.0894
 6076TIP3    H239864   1.121   3.163   1.336 -1.0526  0.1302 -0.4159
 6077TIP3   OH239865   2.577   2.245   8.772  0.2913  0.2010  0.1503
 6077TIP3    H139866   2.482   2.234   8.785 -0.2253  2.9039 -0.6800
 6077TIP3    H239867   2.613   2.236   8.860 -0.6418 -1.3039  0.4269
 6078TIP3   OH239868   3.104   6.144   8.865 -0.2879 -0.1265 -0.5858
 6078TIP3    H139869   3.059   6.228   8.864  0.7882  0.4562 -0.6900
 6078TIP3    H239870   3.195   6.164   8.846 -0.0044 -1.3137 -0.5864
 6079TIP3   OH239871   2.637   5.028   8.326 -0.4982 -0.0643 -0.0160
 6079TIP3    H139872   2.691   5.051   8.401 -1.5102 -1.0885  1.0574
 6079TIP3    H239873   2.653   5.098   8.263 -0.1074  1.1655  1.3908
 6080TIP3   OH239874   4.280   2.040   1.491 -0.8165  0.4107  0.1057
 6080TIP3    H139875   4.248   2.064   1.577 -0.6442  0.7493  0.0756
 6080TIP3    H239876   4.219   1.972   1.461  0.1387 -1.0102  1.2245
 6081TIP3   OH239877   1.321   3.261   7.541  0.1509  0.8613 -0.0629
 6081TIP3    H139878   1.228   3.245   7.560  0.3282  2.0196  2.1617
 6081TIP3    H239879   1.350   3.183   7.495 -1.4306 -0.5182  1.1562
 6082TIP3   OH239880   4.760   0.653   8.458  0.1170 -0.1090  0.1133
 6082TIP3    H139881   4.697   0.596   8.414  0.0285 -0.8683  1.1952
 6082TIP3    H239882   4.845   0.617   8.434  0.0657 -0.6050  0.6732
 6083TIP3   OH239883   5.393   6.669   2.074 -0.0424 -0.0938 -0.2986
 6083TIP3    H139884   5.320   6.645   2.131 -0.7992 -1.0418 -1.6087
 6083TIP3    H239885   5.451   6.722   2.129 -2.2043  1.5754  0.5212
 6084TIP3   OH239886   0.611   6.281   7.968  0.6713  0.2437  0.0578
 6084TIP3    H139887   0.547   6.311   7.904 -1.1131 -0.7699  1.2797
 6084TIP3    H239888   0.688   6.258   7.916 -1.1364 -1.7902 -1.9500
 6085TIP3   OH239889   4.589   3.792   7.977  0.4180 -0.5151 -0.0904
 6085TIP3    H139890   4.608   3.878   7.940 -1.0320  0.0081  0.2890
 6085TIP3    H239891   4.596   3.732   7.903 -0.6262  0.2440 -0.8307
 6086TIP3   OH239892   3.026   1.642   0.904  0.1482 -0.0863  0.5178
 6086TIP3    H139893   2.949   1.617   0.852 -0.3133  1.5581  0.3383
 6086TIP3    H239894   2.991   1.656   0.992  0.3266  0.2275  0.5393
 6087TIP3   OH239895   4.051   0.838   8.973  0.2500 -0.3504 -0.4594
 6087TIP3    H139896   4.001   0.759   8.995  1.0305 -0.8842 -0.5696
 6087TIP3    H239897   4.020   0.861   8.885 -2.6491  1.6154  0.9045
 6088TIP3   OH239898   5.694   5.346   8.027 -0.2476  0.3326 -0.1630
 6088TIP3    H139899   5.669   5.425   7.980 -0.0052  0.7384  0.3790
 6088TIP3    H239900   5.783   5.327   7.996 -0.0635  0.6361  0.1799
 6089TIP3   OH239901   1.425   5.470   0.866 -0.6128  0.3473 -0.3490
 6089TIP3    H139902   1.503   5.524   0.849  0.2370 -1.2205 -1.7644
 6089TIP3    H239903   1.411   5.476   0.960  0.5662  1.5401 -0.2232
 6090TIP3   OH239904   2.237   4.210   8.926 -0.8761  0.2080  0.1723
 6090TIP3    H139905   2.304   4.160   8.973  1.4574  0.0911 -2.8945
 6090TIP3    H239906   2.240   4.297   8.965 -0.2151 -0.2969  1.2888
 6091TIP3   OH239907   5.530   4.581   9.139 -0.1173 -0.6585 -0.3371
 6091TIP3    H139908   5.462   4.517   9.118 -1.2838  0.2547  0.4558
 6091TIP3    H239909   5.526   4.590   9.234 -2.2378  2.8399 -0.5722
 6092TIP3   OH239910   1.095   2.917   8.317  0.2435 -0.1138  0.2193
 6092TIP3    H139911   1.189   2.924   8.305  0.2373  0.6422  0.5398
 6092TIP3    H239912   1.079   2.954   8.404 -0.2537 -1.0150  0.5321
 6093TIP3   OH239913   6.357   4.536   7.681 -0.2420  0.0856  0.5954
 6093TIP3    H139914   6.452   4.523   7.682 -0.4975 -2.2744 -0.1473
 6093TIP3    H239915   6.345   4.622   7.639  1.5047 -0.6860 -1.6549
 6094TIP3   OH239916   3.840   2.220   2.853  0.6574 -0.3728 -0.1431
 6094TIP3    H139917   3.833   2.295   2.911 -2.8666 -0.9519  0.3777
 6094TIP3    H239918   3.833   2.256   2.765  1.3411  0.0881 -0.0128
 6095TIP3   OH239919   3.761   5.158   8.508  0.5097 -0.2059  0.3119
 6095TIP3    H139920   3.842   5.158   8.559  1.5734 -0.2091 -1.2956
 6095TIP3    H239921   3.717   5.239   8.532  2.1634  0.9838 -0.5101
 6096TIP3   OH239922   6.081   2.690   2.527 -0.5621  1.0650  0.1749
 6096TIP3    H139923   6.051   2.624   2.590  2.5206  0.9465  1.7005
 6096TIP3    H239924   6.032   2.669   2.447 -0.3288 -2.6319  0.7920
 6097TIP3   OH239925   4.693   2.876   0.475 -0.1011  0.0685 -0.0858
 6097TIP3    H139926   4.698   2.782   0.462  0.1571  0.3097 -1.9981
 6097TIP3    H239927   4.784   2.906   0.474 -0.1078  0.2342  1.6465
 6098TIP3   OH239928   4.146   2.695   3.120 -0.3879 -0.3824  0.5623
 6098TIP3    H139929   4.109   2.641   3.190  0.1780 -2.5077 -0.6884
 6098TIP3    H239930   4.239   2.704   3.143 -0.0319 -1.7317 -0.2495
 6099TIP3   OH239931   3.855   6.576   8.322  0.4513  0.2169 -0.4024
 6099TIP3    H139932   3.914   6.632   8.271 -1.0044  2.6527  0.3941
 6099TIP3    H239933   3.768   6.594   8.286 -0.2958  0.0573  1.2506
 6100TIP3   OH239934   4.026   4.242   8.987  0.2329 -0.3194  0.0764
 6100TIP3    H139935   3.974   4.190   8.926  0.8303 -0.4684 -0.3119
 6100TIP3    H239936   4.080   4.298   8.930 -1.2756  1.6308  0.4683
 6101TIP3   OH239937   1.544   4.800   0.456  0.0617 -0.0284 -0.9653
 6101TIP3    H139938   1.503   4.859   0.519  0.2475 -0.3965 -0.4920
 6101TIP3    H239939   1.599   4.856   0.402  1.3758  0.0569  0.3989
 6102TIP3   OH239940   1.091   6.017   2.165 -0.3558 -0.1471 -0.5122
 6102TIP3    H139941   1.122   6.098   2.207  0.3881 -1.0686  0.7864
 6102TIP3    H239942   1.165   5.989   2.111 -0.0078 -0.7757  0.2718
 6103TIP3   OH239943   1.407   3.518   7.444 -0.1729 -0.1322 -0.1743
 6103TIP3    H139944   1.375   3.429   7.463 -0.1713  0.3374  2.4098
 6103TIP3    H239945   1.502   3.509   7.446 -0.1521  0.0887  1.3291
 6104TIP3   OH239946   5.032   0.751   1.625  0.4094 -0.4473  0.1401
 6104TIP3    H139947   4.964   0.686   1.612 -0.1268  0.2177 -0.4654
 6104TIP3    H239948   5.058   0.777   1.537  1.7503 -0.9885  0.3521
 6105TIP3   OH239949   0.332   6.455   1.931 -0.0062 -0.9131  0.3741
 6105TIP3    H139950   0.293   6.411   1.855  0.2731  0.3152 -0.5181
 6105TIP3    H239951   0.345   6.545   1.902  1.4145 -0.7536  1.4068
 6106TIP3   OH239952   4.926   0.473   1.980  0.0477 -0.0722  0.6161
 6106TIP3    H139953   5.016   0.452   2.006  0.0951  0.9287  1.3138
 6106TIP3    H239954   4.927   0.568   1.966 -0.6844 -0.1861 -0.2917
 6107TIP3   OH239955   1.932   5.594   7.771 -0.0260 -0.2902 -0.8210
 6107TIP3    H139956   1.864   5.530   7.751  0.3637 -0.3873 -1.8866
 6107TIP3    H239957   1.992   5.547   7.830  0.3987 -1.0265 -1.7956
 6108TIP3   OH239958   6.538   3.069   2.858  0.5212  0.1694  0.1443
 6108TIP3    H139959   6.506   3.132   2.922 -1.1879 -0.3941 -0.0918
 6108TIP3    H239960   6.626   3.046   2.888  0.9668  2.2214  0.5274
 6109TIP3   OH239961   4.570   3.448   8.310  0.8314 -0.3648  0.3764
 6109TIP3    H139962   4.620   3.469   8.231  0.9028 -1.0707  0.2244
 6109TIP3    H239963   4.487   3.415   8.277  0.4228  0.4142  0.6236
 6110TIP3   OH239964   1.237   4.762   1.865  0.1231 -0.3414 -0.4502
 6110TIP3    H139965   1.290   4.783   1.942  0.5794  1.3225 -1.1790
 6110TIP3    H239966   1.225   4.667   1.870  1.9437 -0.5760  0.5264
 6111TIP3   OH239967   3.894   2.439   2.999  0.2706 -0.2654 -0.8500
 6111TIP3    H139968   3.819   2.461   3.055 -0.7669 -2.7735 -1.0863
 6111TIP3    H239969   3.938   2.522   2.984 -2.4283  1.3501 -0.6247
 6112TIP3   OH239970   2.834   6.215   1.872  0.7787  0.2768 -1.2545
 6112TIP3    H139971   2.889   6.207   1.950 -1.4682  0.3483  0.4482
 6112TIP3    H239972   2.858   6.140   1.818  4.3093  1.6588 -1.9005
 6113TIP3   OH239973   0.014   2.853   0.369 -0.3125 -0.1907 -0.6677
 6113TIP3    H139974   0.029   2.883   0.458  0.4255  0.4759 -1.0014
 6113TIP3    H239975  -0.002   2.759   0.378  0.1676 -0.2086  0.1330
 6114TIP3   OH239976   5.590   5.796   1.395  0.8412 -0.0327  0.0660
 6114TIP3    H139977   5.567   5.754   1.313  1.0190 -0.0820  0.0405
 6114TIP3    H239978   5.528   5.762   1.459 -1.3086  2.2563 -0.6325
 6115TIP3   OH239979   1.083   4.932   1.737  0.5182 -0.2074 -0.2361
 6115TIP3    H139980   1.146   4.878   1.783 -0.2651  1.3622  2.9455
 6115TIP3    H239981   0.997   4.897   1.762  0.0023 -0.9701 -2.7667
 6116TIP3   OH239982   2.747   2.273   0.454  0.1895 -0.5459 -0.0491
 6116TIP3    H139983   2.786   2.290   0.540  0.0474  0.0908 -0.1085
 6116TIP3    H239984   2.772   2.183   0.435  0.9649 -0.4104  0.2688
 6117TIP3   OH239985   0.194   0.900   1.987 -0.1866  0.1976  0.4864
 6117TIP3    H139986   0.109   0.863   1.963  0.1817  0.0934 -0.7293
 6117TIP3    H239987   0.173   0.985   2.027 -0.8435  0.3025 -0.0697
 6118TIP3   OH239988   0.410   3.168   2.619 -0.0752  0.0119  0.0181
 6118TIP3    H139989   0.329   3.180   2.668 -0.1948  0.3606 -0.2633
 6118TIP3    H239990   0.408   3.235   2.551  1.2640  1.1929  1.0686
 6119TIP3   OH239991   2.310   3.558   0.388  0.0836  0.5113  0.0754
 6119TIP3    H139992   2.253   3.508   0.330  0.4827  2.2391 -1.9282
 6119TIP3    H239993   2.251   3.613   0.439 -0.2485 -0.7647  1.1141
 6120TIP3   OH239994   5.017   1.421   0.526 -0.6343  0.2374 -0.9184
 6120TIP3    H139995   4.975   1.398   0.609 -2.1513 -1.5346 -2.0911
 6120TIP3    H239996   5.107   1.445   0.550 -0.9240 -0.5674  1.1752
 6121TIP3   OH239997   4.783   1.257   0.165 -0.1784 -0.3388  0.0498
 6121TIP3    H139998   4.760   1.262   0.073 -0.0721 -0.8511 -0.0080
 6121TIP3    H239999   4.819   1.343   0.186 -1.9407  0.4459  0.0890
 6122TIP3   OH240000   1.085   4.924   2.183 -0.0221  0.1804  0.2663
 6122TIP3    H140001   1.027   4.990   2.221 -0.6645  0.4706 -1.1486
 6122TIP3    H240002   1.027   4.870   2.129  0.9862  0.4301 -1.1332
 6123TIP3   OH240003   1.603   0.866   1.227 -0.1709  0.3201 -0.5895
 6123TIP3    H140004   1.551   0.898   1.153  0.8240 -0.1647 -1.5283
 6123TIP3    H240005   1.543   0.869   1.301 -0.6822  2.5335 -1.0178
 6124TIP3   OH240006   6.095   4.446   7.694  0.0442  0.0361 -0.8139
 6124TIP3    H140007   6.187   4.464   7.673 -0.1632  0.9384 -0.9672
 6124TIP3    H240008   6.085   4.352   7.676  1.0349 -0.1634 -0.4004
 6125TIP3   OH240009   3.978   0.092   8.957  0.1202  0.0940  0.5439
 6125TIP3    H140010   3.897   0.128   8.922  0.4540  1.2124  0.8776
 6125TIP3    H240011   4.010   0.159   9.018  1.8675  0.2045 -0.4167
 6126TIP3   OH240012   3.360   0.435   2.915 -0.0898 -0.0833  0.2552
 6126TIP3    H140013   3.385   0.356   2.964 -0.9999 -0.3160  0.3547
 6126TIP3    H240014   3.436   0.454   2.861  0.0089 -1.2410 -0.0380
 6127TIP3   OH240015   5.850   3.154   2.294 -0.1438 -0.4116  0.7350
 6127TIP3    H140016   5.933   3.152   2.246 -0.5888  2.4880 -0.3305
 6127TIP3    H240017   5.804   3.231   2.261 -3.8837 -2.5286  0.3666
 6128TIP3   OH240018   1.241   0.185   8.300 -0.2895 -0.3962  0.2178
 6128TIP3    H140019   1.167   0.160   8.355  0.6552 -2.3756  0.6748
 6128TIP3    H240020   1.215   0.159   8.212  0.0371 -1.6162  0.4577
 6129TIP3   OH240021   1.825   4.883   0.377  0.6098 -0.2430  0.6244
 6129TIP3    H140022   1.811   4.870   0.283  1.0017  0.5727  0.4427
 6129TIP3    H240023   1.905   4.835   0.396  1.6232  1.2002  0.1215
 6130TIP3   OH240024   2.529   2.046   0.443  0.8307  0.6635  0.2352
 6130TIP3    H140025   2.616   2.031   0.405  1.4922 -1.3800  2.3017
 6130TIP3    H240026   2.521   1.978   0.510 -2.1938  1.1171  0.4430
 6131TIP3   OH240027   6.047   6.076   7.372 -0.1652  0.3184 -0.1351
 6131TIP3    H140028   6.065   6.164   7.338  1.4033 -0.4920 -1.5815
 6131TIP3    H240029   6.117   6.022   7.335 -1.0492 -1.5302  0.7771
 6132TIP3   OH240030   3.976   0.534   0.752 -0.1814 -0.0465 -0.5359
 6132TIP3    H140031   4.066   0.557   0.727 -0.5870  1.7872 -0.4429
 6132TIP3    H240032   3.935   0.508   0.669 -0.0870  0.9719 -0.9106
 6133TIP3   OH240033   0.879   1.990   1.589 -0.2389 -0.7590 -0.1640
 6133TIP3    H140034   0.862   2.084   1.599 -0.6689 -0.6279 -1.8729
 6133TIP3    H240035   0.961   1.976   1.636 -0.0763  0.4957 -0.0226
 6134TIP3   OH240036   5.067   0.209   0.264 -0.0121  0.1607  0.1211
 6134TIP3    H140037   5.102   0.267   0.332 -0.2977 -0.3864  0.7331
 6134TIP3    H240038   4.984   0.250   0.238 -0.0569  0.1974  0.3225
 6135TIP3   OH240039   3.752   1.692   8.937  0.0359  0.4858 -0.3430
 6135TIP3    H140040   3.671   1.706   8.986  0.3887  0.8594  0.1446
 6135TIP3    H240041   3.779   1.603   8.961  1.7509  1.6461  2.5112
 6136TIP3   OH240042   4.577   0.864   8.513 -0.3828 -0.1076 -0.1092
 6136TIP3    H140043   4.627   0.792   8.476  0.5520  1.2525 -1.6190
 6136TIP3    H240044   4.600   0.940   8.460 -1.8072  1.1997  1.0193
 6137TIP3   OH240045   1.924   3.452   8.421 -0.8109 -0.1028  0.3236
 6137TIP3    H140046   1.933   3.404   8.503  1.2459 -0.4437 -0.0642
 6137TIP3    H240047   1.895   3.539   8.447 -1.5509 -0.6191  1.2781
 6138TIP3   OH240048   2.871   4.413   0.400  0.1630 -0.2349 -0.2534
 6138TIP3    H140049   2.781   4.382   0.390  0.5808 -1.2237 -1.2366
 6138TIP3    H240050   2.911   4.398   0.314  0.8117  1.7820 -0.3437
 6139TIP3   OH240051   2.113   5.773   8.348 -0.0497  0.0310 -0.2494
 6139TIP3    H140052   2.168   5.812   8.416 -1.5832  2.0511 -0.0698
 6139TIP3    H240053   2.151   5.803   8.266 -1.4100  2.3629 -0.1071
 6140TIP3   OH240054   1.090   0.434   2.486  0.1588 -0.6084  0.3154
 6140TIP3    H140055   1.141   0.510   2.460  0.8125 -1.6536 -1.6209
 6140TIP3    H240056   0.999   0.464   2.481  0.4398  0.4931  1.2238
 6141TIP3   OH240057   1.720   2.829   8.494  0.3567 -0.8014  0.3232
 6141TIP3    H140058   1.815   2.834   8.480  0.0957  1.0824 -1.1689
 6141TIP3    H240059   1.696   2.915   8.530 -1.1768  0.0309 -2.3992
 6142TIP3   OH240060   0.687   0.566   0.554 -0.3382  0.4975 -0.7121
 6142TIP3    H140061   0.748   0.500   0.587 -0.7373 -0.5201 -1.9082
 6142TIP3    H240062   0.639   0.521   0.484 -2.1995  1.3886 -0.0760
 6143TIP3   OH240063   0.754   6.262   9.064  0.1302  0.0391 -0.1284
 6143TIP3    H140064   0.710   6.190   9.019  0.4780  0.4148 -1.1074
 6143TIP3    H240065   0.692   6.289   9.133 -0.0723 -1.0614  0.1322
 6144TIP3   OH240066   5.233   4.974   7.518  0.5549 -0.5607  0.0413
 6144TIP3    H140067   5.195   4.894   7.483  1.6626 -1.4012  0.6850
 6144TIP3    H240068   5.325   4.970   7.492  0.1822  1.7553 -2.1100
 6145TIP3   OH240069   0.959   3.869   8.286 -0.0660  0.3470 -0.1305
 6145TIP3    H140070   0.945   3.928   8.213 -2.1814 -2.5367 -2.2813
 6145TIP3    H240071   1.025   3.807   8.255 -1.4554 -1.3106  0.0730
 6146TIP3   OH240072   1.220   1.177   1.164 -0.2556  0.2672  0.0370
 6146TIP3    H140073   1.183   1.231   1.234 -1.9679  0.7834 -1.1915
 6146TIP3    H240074   1.156   1.107   1.152  0.5460 -0.4101 -0.3018
 6147TIP3   OH240075   6.680   5.566   1.490 -0.3392  0.7086 -0.2433
 6147TIP3    H140076   6.654   5.474   1.485 -0.7813  0.8517 -0.6950
 6147TIP3    H240077   6.597   5.614   1.489 -0.0843  1.1417 -0.7413
 6148TIP3   OH240078   5.567   6.266   9.207 -0.9747 -0.5143  0.2963
 6148TIP3    H140079   5.475   6.272   9.180 -0.8847  0.9632  0.2349
 6148TIP3    H240080   5.604   6.351   9.183  0.4163 -1.0943  0.3117
 6149TIP3   OH240081   4.315   0.654   3.077 -0.0473 -0.0541  0.1056
 6149TIP3    H140082   4.251   0.583   3.084  1.9155 -1.8462  0.9907
 6149TIP3    H240083   4.400   0.610   3.088  1.2903  2.3398 -0.1559
 6150TIP3   OH240084   3.527   3.216   8.937  0.3342 -0.2975  0.6974
 6150TIP3    H140085   3.581   3.157   8.885 -0.7654  0.2993 -1.2652
 6150TIP3    H240086   3.537   3.186   9.027  0.0607 -3.2906 -0.1634
 6151TIP3   OH240087   0.560   6.536   7.717 -0.4232  0.9511 -0.1903
 6151TIP3    H140088   0.604   6.507   7.636  0.6399  0.8740  0.3948
 6151TIP3    H240089   0.479   6.485   7.719 -0.3757  0.8163 -1.1168
 6152TIP3   OH240090   3.123   1.873   0.553  0.7017  0.0025  0.2623
 6152TIP3    H140091   3.099   1.910   0.468  1.2145 -2.1781 -0.9134
 6152TIP3    H240092   3.209   1.832   0.538  0.4378 -1.1259  1.6040
 6153TIP3   OH240093   6.109   2.382   2.384 -0.2588  0.6174 -0.3035
 6153TIP3    H140094   6.105   2.377   2.479  0.8341  0.5059 -0.2464
 6153TIP3    H240095   6.027   2.425   2.358  0.2764  2.4145  0.8234
 6154TIP3   OH240096   3.532   2.458   7.795 -0.2418  0.2131 -0.0380
 6154TIP3    H140097   3.479   2.513   7.852  3.0607  2.8768  0.8119
 6154TIP3    H240098   3.567   2.517   7.729  2.2383 -1.1051 -0.0422
 6155TIP3   OH240099   6.142   3.819   0.062 -0.7735 -0.0124 -0.2472
 6155TIP3    H140100   6.147   3.868   0.144 -1.9287  1.2551 -0.9012
 6155TIP3    H240101   6.053   3.831   0.031 -0.2122  0.0386 -1.9868
 6156TIP3   OH240102   3.197   0.784   8.485 -0.0908  0.2029 -0.2596
 6156TIP3    H140103   3.281   0.830   8.489  0.0590 -0.1057  0.2147
 6156TIP3    H240104   3.136   0.843   8.529  0.1562 -0.1499  0.5899
 6157TIP3   OH240105   2.239   5.041   7.349  0.5643  0.4459  0.1062
 6157TIP3    H140106   2.187   4.993   7.413  1.4666 -1.1693 -0.3246
 6157TIP3    H240107   2.317   4.987   7.336  1.3558  1.7571 -0.8362
 6158TIP3   OH240108   0.203   5.259   9.210  0.4553 -0.3692 -0.2512
 6158TIP3    H140109   0.136   5.327   9.199 -1.4254 -2.2130 -0.9241
 6158TIP3    H240110   0.214   5.252   9.305 -0.3408 -0.0462 -0.1219
 6159TIP3   OH240111   2.216   5.491   1.035 -0.3900 -0.3621  0.6954
 6159TIP3    H140112   2.203   5.432   0.961 -1.7172 -1.4434  1.7351
 6159TIP3    H240113   2.292   5.455   1.081  0.6160  0.4765 -0.2430
 6160TIP3   OH240114   2.696   6.106   2.289 -0.4696 -0.4275 -0.0413
 6160TIP3    H140115   2.736   6.188   2.258 -2.4607  0.8824  0.7272
 6160TIP3    H240116   2.650   6.072   2.212 -1.9253  0.6526  0.3069
 6161TIP3   OH240117   4.307   0.553   2.745  0.4060 -0.2225 -0.3984
 6161TIP3    H140118   4.235   0.496   2.719  0.8746 -1.1300  0.2309
 6161TIP3    H240119   4.384   0.496   2.743  0.8508  0.3312  0.4308
 6162TIP3   OH240120   0.723   4.497   7.820  0.1333 -0.1293  0.1169
 6162TIP3    H140121   0.762   4.564   7.765 -0.3535 -0.5214 -0.7166
 6162TIP3    H240122   0.674   4.441   7.760  0.1198 -0.9398  0.8590
 6163TIP3   OH240123   4.913   6.140   0.329 -0.4608  0.4586 -0.7779
 6163TIP3    H140124   4.869   6.204   0.385 -0.0433 -0.1860  0.3132
 6163TIP3    H240125   4.982   6.191   0.286 -1.9646  1.3900 -2.2204
 6164TIP3   OH240126   5.201   3.584   8.831  0.4530 -0.3910 -0.0493
 6164TIP3    H140127   5.268   3.653   8.833  0.5086 -0.4566  0.5015
 6164TIP3    H240128   5.246   3.506   8.862  0.3651 -0.6534 -0.5887
 6165TIP3   OH240129   5.782   2.443   7.537  0.8369 -0.4255  0.1157
 6165TIP3    H140130   5.789   2.374   7.471 -0.5022  0.3972 -0.9107
 6165TIP3    H240131   5.743   2.399   7.613  0.9982 -1.0389 -0.1531
 6166TIP3   OH240132   6.319   0.761   0.185  0.0891 -0.2418  0.2672
 6166TIP3    H140133   6.387   0.694   0.188  0.5234  0.1361 -0.6477
 6166TIP3    H240134   6.246   0.719   0.139  0.6162  0.1052 -0.9321
 6167TIP3   OH240135   2.954   0.282   0.940 -0.3849 -0.0828  0.1157
 6167TIP3    H140136   2.984   0.201   0.899 -0.5221 -0.4067  0.6598
 6167TIP3    H240137   2.950   0.263   1.033 -1.0973  0.3324  0.1786
 6168TIP3   OH240138   3.499   1.477   0.845 -0.2854  0.4439 -0.2719
 6168TIP3    H140139   3.476   1.522   0.764 -0.1378 -0.5158 -0.8686
 6168TIP3    H240140   3.481   1.384   0.827 -0.3158  0.2267  0.8164
 6169TIP3   OH240141   1.805   5.217   2.121  0.1197 -0.3295  0.3204
 6169TIP3    H140142   1.741   5.165   2.073 -0.1393  0.0628  0.2320
 6169TIP3    H240143   1.889   5.172   2.108 -0.0909 -0.6877  0.2027
 6170TIP3   OH240144   5.370   3.500   0.193  0.2170 -0.3700 -0.5224
 6170TIP3    H140145   5.275   3.502   0.195  0.2262 -0.3577  0.5381
 6170TIP3    H240146   5.393   3.407   0.193  0.2012 -0.3975  0.8840
 6171TIP3   OH240147   1.603   4.327   9.145 -0.1108 -0.0410 -0.1633
 6171TIP3    H140148   1.668   4.371   9.200 -1.0312  1.8583 -0.4726
 6171TIP3    H240149   1.651   4.302   9.066  0.8451 -1.2824  0.7713
 6172TIP3   OH240150   1.229   6.452   2.310 -0.2176 -0.1036 -0.1312
 6172TIP3    H140151   1.204   6.444   2.218  0.3072  1.2847 -0.4018
 6172TIP3    H240152   1.259   6.542   2.320 -0.2191 -0.2435  1.3938
 6173TIP3   OH240153   0.815   2.893   8.538 -0.3640 -0.1957 -0.5695
 6173TIP3    H140154   0.883   2.833   8.507  1.0826  0.6948  0.7210
 6173TIP3    H240155   0.745   2.885   8.474  0.5076 -1.9451 -1.3794
 6174TIP3   OH240156   2.673   1.332   8.117  0.2079 -0.2786  0.3805
 6174TIP3    H140157   2.640   1.422   8.123  2.5763  0.6030  1.0186
 6174TIP3    H240158   2.638   1.289   8.195  1.4248  0.9570  1.6632
 6175TIP3   OH240159   1.462   2.888   1.002  0.4535 -0.0536 -0.3919
 6175TIP3    H140160   1.420   2.969   1.031  0.7847  0.3322 -0.9792
 6175TIP3    H240161   1.456   2.890   0.907  0.5087 -0.6980 -0.4122
 6176TIP3   OH240162   2.788   0.301   0.169 -0.1233 -0.2982 -0.5673
 6176TIP3    H140163   2.798   0.288   0.263  1.1462 -0.1056 -0.6557
 6176TIP3    H240164   2.857   0.246   0.130  0.1711  0.5760 -1.3098
 6177TIP3   OH240165   0.902   4.413   1.871  0.0412 -0.1847 -0.4399
 6177TIP3    H140166   0.883   4.324   1.901 -0.3124 -0.0744 -0.3388
 6177TIP3    H240167   0.906   4.407   1.776  1.8015 -0.6713 -0.3745
 6178TIP3   OH240168   6.634   4.325   0.922 -0.2990  0.0020 -0.2059
 6178TIP3    H140169   6.695   4.255   0.897 -0.3608 -0.6364  1.2972
 6178TIP3    H240170   6.647   4.393   0.856  0.1960 -1.1738 -1.3682
 6179TIP3   OH240171   0.889   2.808   8.783 -0.2819 -0.2099 -0.1080
 6179TIP3    H140172   0.874   2.877   8.849  0.0658 -0.4150  0.1882
 6179TIP3    H240173   0.817   2.818   8.721 -0.7986 -0.2200  0.4826
 6180TIP3   OH240174   4.956   2.004   1.293 -0.0593  0.7175  0.1432
 6180TIP3    H140175   4.943   1.934   1.357  1.2065 -1.9964 -2.3309
 6180TIP3    H240176   4.868   2.026   1.262 -0.4077 -0.6836  0.1105
 6181TIP3   OH240177   5.341   3.156   1.393  0.0301 -0.1157  0.3761
 6181TIP3    H140178   5.372   3.129   1.479  0.7834 -0.0514  0.1366
 6181TIP3    H240179   5.402   3.115   1.332  0.8737  1.6387 -0.0276
 6182TIP3   OH240180   0.271   2.708   8.546  0.1595 -0.1004  0.0036
 6182TIP3    H140181   0.277   2.700   8.451 -1.4048  0.2384 -0.1482
 6182TIP3    H240182   0.199   2.651   8.571 -0.1542  0.6428  0.8566
 6183TIP3   OH240183   1.906   5.285   0.448 -0.1370 -0.0990 -0.7259
 6183TIP3    H140184   1.995   5.322   0.444 -0.2519  0.3485  0.4024
 6183TIP3    H240185   1.855   5.351   0.495 -0.3566 -1.6724  1.3661
 6184TIP3   OH240186   6.157   1.857   8.749  0.1356  0.2839  0.1459
 6184TIP3    H140187   6.103   1.872   8.672  1.4841  1.1146 -0.6777
 6184TIP3    H240188   6.109   1.898   8.821 -0.1109  1.4150 -0.6488
 6185TIP3   OH240189   2.322   0.317   2.006 -0.0879 -0.1760 -0.0971
 6185TIP3    H140190   2.392   0.255   2.028  0.0122  0.1200  0.4261
 6185TIP3    H240191   2.255   0.302   2.072 -0.0892  0.2270 -0.0031
 6186TIP3   OH240192   4.222   2.599   1.968  0.4263 -0.2343 -0.2241
 6186TIP3    H140193   4.200   2.666   1.903  2.6451 -0.1245 -0.9626
 6186TIP3    H240194   4.265   2.648   2.039  2.1320 -0.8032 -0.8008
 6187TIP3   OH240195   3.426   4.330   1.938  0.1653  0.4987 -0.8880
 6187TIP3    H140196   3.488   4.400   1.961  0.1155  0.6351 -1.1740
 6187TIP3    H240197   3.399   4.294   2.023  2.3825 -1.0895 -0.7469
 6188TIP3   OH240198   2.082   6.303   0.342 -0.5054 -0.0495  0.8313
 6188TIP3    H140199   2.141   6.331   0.412  2.8773 -3.2675 -0.3837
 6188TIP3    H240200   2.033   6.229   0.379 -0.3861 -0.3014  0.4927
 6189TIP3   OH240201   5.656   3.078   9.210 -0.4965  0.4808  0.2646
 6189TIP3    H140202   5.664   2.991   9.171  0.5009  0.8582 -0.4106
 6189TIP3    H240203   5.571   3.110   9.180  0.1368  0.6553 -1.4172
 6190TIP3   OH240204   6.465   5.897   9.179 -0.3173 -0.6159  0.2896
 6190TIP3    H140205   6.379   5.922   9.213 -0.1728  0.2820  0.0203
 6190TIP3    H240206   6.446   5.835   9.109 -0.7024 -1.0346  0.7596
 6191TIP3   OH240207   4.493   0.338   7.963 -0.5424  0.3575  0.1657
 6191TIP3    H140208   4.534   0.252   7.968  1.0656  1.1427  1.8407
 6191TIP3    H240209   4.433   0.341   8.037  0.8315  1.3067  1.2972
 6192TIP3   OH240210   4.339   2.533   8.374  0.5306 -0.2784 -0.2715
 6192TIP3    H140211   4.250   2.564   8.361  0.5327 -0.7912 -1.7584
 6192TIP3    H240212   4.331   2.437   8.375  0.7073 -0.3446  2.7354
 6193TIP3   OH240213   2.684   4.996   9.029  0.0583  0.5975  0.1325
 6193TIP3    H140214   2.743   5.017   9.102  1.3289 -1.2938 -0.2591
 6193TIP3    H240215   2.740   4.995   8.952 -0.9544  0.9939 -0.6325
 6194TIP3   OH240216   6.485   2.744   9.043  0.2515 -0.5647  0.0881
 6194TIP3    H140217   6.520   2.721   8.957  1.8889 -1.3365  0.9192
 6194TIP3    H240218   6.438   2.826   9.029  1.4426 -0.0915 -1.3290
 6195TIP3   OH240219   0.316   6.112   0.438 -0.2341 -0.0572  0.0438
 6195TIP3    H140220   0.225   6.105   0.411 -0.0637  1.9489 -1.2671
 6195TIP3    H240221   0.366   6.079   0.364  0.1379 -0.5956  0.5226
 6196TIP3   OH240222   1.401   5.302   8.300 -0.1671 -0.3444 -0.0707
 6196TIP3    H140223   1.360   5.216   8.302 -0.3069 -0.2844 -0.3124
 6196TIP3    H240224   1.434   5.311   8.211  1.4718 -0.9037  0.4417
 6197TIP3   OH240225   3.486   3.553   8.131 -0.3716 -0.4519  0.3187
 6197TIP3    H140226   3.429   3.576   8.204  0.2497  0.1263  0.6408
 6197TIP3    H240227   3.529   3.472   8.159  1.1502  0.6537  1.3871
 6198TIP3   OH240228   5.944   6.155   1.468  0.2062 -0.0006  0.5008
 6198TIP3    H140229   5.976   6.239   1.435  1.0141 -0.0389  1.1547
 6198TIP3    H240230   5.910   6.175   1.555 -3.7637  0.5006 -0.9584
 6199TIP3   OH240231   3.099   2.426   7.434  0.6342 -0.0110  0.1271
 6199TIP3    H140232   3.070   2.461   7.351 -0.1944  0.0651  0.4444
 6199TIP3    H240233   3.194   2.415   7.423  0.8683  1.9029 -0.1247
 6200TIP3   OH240234   1.120   3.290   0.551  0.0901 -0.3891 -0.2960
 6200TIP3    H140235   1.054   3.355   0.573 -2.1019 -1.4143 -3.1856
 6200TIP3    H240236   1.133   3.300   0.456  3.3479 -0.9776 -0.0258
 6201TIP3   OH240237   0.195   1.589   1.703 -0.2415 -0.1698  0.1639
 6201TIP3    H140238   0.261   1.521   1.709 -2.0736 -2.0928 -0.2938
 6201TIP3    H240239   0.238   1.668   1.737  2.2455 -1.3022 -0.1886
 6202TIP3   OH240240   4.029   2.999   8.312 -0.0759  0.3015 -0.2956
 6202TIP3    H140241   4.033   2.913   8.271  0.5098  0.7416 -1.1935
 6202TIP3    H240242   4.113   3.009   8.356 -0.0692  0.4801 -0.3447
 6203TIP3   OH240243   6.478   0.184   8.441  0.6349  0.4737  0.3948
 6203TIP3    H140244   6.494   0.243   8.514  2.4882 -1.7326  1.9037
 6203TIP3    H240245   6.533   0.218   8.370  1.3542  0.8123  1.1023
 6204TIP3   OH240246   4.573   0.994   8.260  0.1760 -0.0512 -0.3485
 6204TIP3    H140247   4.548   1.084   8.280 -1.1599 -0.6869  1.0739
 6204TIP3    H240248   4.494   0.943   8.279  1.0354 -1.5729 -0.7293
 6205TIP3   OH240249   0.952   2.492   0.439  0.2685  1.3450  0.3316
 6205TIP3    H140250   0.963   2.510   0.532  0.6649  0.9915  0.3562
 6205TIP3    H240251   1.033   2.448   0.413  1.3447  3.7866 -0.7783
 6206TIP3   OH240252   3.348   3.149   7.959  0.4330  0.7212  0.1183
 6206TIP3    H140253   3.331   3.210   7.888  0.4580  0.4327 -0.1390
 6206TIP3    H240254   3.266   3.102   7.971  1.0790 -0.8634 -1.3092
 6207TIP3   OH240255   3.051   5.085   0.832 -0.3744 -0.4651  0.7182
 6207TIP3    H140256   3.060   5.181   0.836 -1.3134 -0.3652  0.6908
 6207TIP3    H240257   3.089   5.061   0.747 -0.3008 -0.1003  0.6462
 6208TIP3   OH240258   5.945   3.290   8.789  0.7621  0.9581 -0.0657
 6208TIP3    H140259   5.853   3.319   8.795  0.5495  0.4529 -0.7564
 6208TIP3    H240260   5.955   3.226   8.860  0.1778 -0.0098 -0.8282
 6209TIP3   OH240261   0.804   1.812   2.394 -0.3385  0.2656  0.0785
 6209TIP3    H140262   0.883   1.774   2.433  0.2690  2.2475  0.8647
 6209TIP3    H240263   0.750   1.736   2.373  1.6965 -1.1588 -0.3888
 6210TIP3   OH240264   4.197   1.278   1.623 -0.4231 -0.1998  0.1544
 6210TIP3    H140265   4.146   1.215   1.673 -1.3261  1.7336  1.8317
 6210TIP3    H240266   4.132   1.334   1.581  0.1610  2.3525  2.3780
 6211TIP3   OH240267   3.782   5.399   1.290  0.4021 -0.2754  0.5034
 6211TIP3    H140268   3.808   5.415   1.199 -0.3204  0.3610  0.4069
 6211TIP3    H240269   3.709   5.337   1.284 -0.8454  1.1385  0.5264
 6212TIP3   OH240270   0.745   6.111   1.669 -0.0060  0.0852 -0.1315
 6212TIP3    H140271   0.801   6.068   1.734 -0.7835 -0.9666 -0.1398
 6212TIP3    H240272   0.658   6.077   1.685 -0.3860  0.5466 -1.1080
 6213TIP3   OH240273   4.191   2.184   2.047 -0.3577 -0.2563  0.5682
 6213TIP3    H140274   4.283   2.190   2.020 -0.4481  0.8032  0.4413
 6213TIP3    H240275   4.187   2.106   2.102 -0.0655 -2.2140 -2.0171
 6214TIP3   OH240276   5.154   4.086   7.617  0.2442 -0.5181 -0.4397
 6214TIP3    H140277   5.173   4.034   7.695 -0.3041  2.2751  1.7225
 6214TIP3    H240278   5.059   4.082   7.607  0.0981  0.6047  0.2460
 6215TIP3   OH240279   2.564   3.420   0.518  0.0256  0.4306 -0.2218
 6215TIP3    H140280   2.475   3.447   0.496 -0.5354 -2.1937 -1.6122
 6215TIP3    H240281   2.606   3.500   0.549 -1.8259  2.5223 -2.6248
 6216TIP3   OH240282   4.267   5.435   2.024  0.6165  0.0440 -0.1013
 6216TIP3    H140283   4.339   5.493   2.001  0.7655  1.1019  2.5851
 6216TIP3    H240284   4.190   5.476   1.985  0.6009  2.6470  2.3425
 6217TIP3   OH240285   6.593   0.821   0.877 -0.2711  0.0941  0.1703
 6217TIP3    H140286   6.682   0.821   0.912 -0.6490 -0.0354  1.1541
 6217TIP3    H240287   6.597   0.880   0.802  0.7450 -0.2583 -0.0605
 6218TIP3   OH240288   2.931   6.597   2.920 -0.1190 -0.1320  0.2161
 6218TIP3    H140289   2.999   6.574   2.858 -0.4815 -0.8041  0.0665
 6218TIP3    H240290   2.972   6.585   3.006 -0.1239 -0.7815  0.1317
 6219TIP3   OH240291   3.935   5.629   8.088  0.0635  0.3577  0.3487
 6219TIP3    H140292   4.017   5.656   8.129  0.6279 -2.5132  1.2784
 6219TIP3    H240293   3.961   5.590   8.005 -0.2170 -1.2239  0.9683
 6220TIP3   OH240294   4.888   4.817   1.527  0.4921  0.0301 -0.1027
 6220TIP3    H140295   4.827   4.845   1.459  0.3958 -0.9057 -0.4214
 6220TIP3    H240296   4.917   4.898   1.569  0.1356  0.5795 -0.8999
 6221TIP3   OH240297   2.534   3.482   8.297  0.0904  0.4693  0.0234
 6221TIP3    H140298   2.562   3.512   8.384  0.8572 -1.0310  0.3247
 6221TIP3    H240299   2.547   3.559   8.241  1.7372  0.8305  0.8134
 6222TIP3   OH240300   2.675   0.490   2.822  0.0507  0.4844 -0.0419
 6222TIP3    H140301   2.604   0.451   2.873  2.2601 -1.5452  1.7296
 6222TIP3    H240302   2.690   0.575   2.864 -0.3134  0.2549  0.5703
 6223TIP3   OH240303   3.724   2.302   8.231  0.1800 -0.4288 -0.1085
 6223TIP3    H140304   3.704   2.354   8.309  1.1931 -0.2683  0.0690
 6223TIP3    H240305   3.813   2.269   8.247 -0.4235 -2.2172 -0.2145
 6224TIP3   OH240306   1.794   1.731   8.063 -0.0904 -0.8545 -0.1793
 6224TIP3    H140307   1.728   1.785   8.019  0.2019 -0.6807 -0.4150
 6224TIP3    H240308   1.875   1.782   8.055 -0.0783 -0.7153  0.7721
 6225TIP3   OH240309   0.121   5.811   1.760  0.0233  0.0684 -0.5977
 6225TIP3    H140310   0.049   5.764   1.803  0.1160 -0.2101 -0.7425
 6225TIP3    H240311   0.161   5.746   1.704  0.3407  0.2468 -0.5792
 6226TIP3   OH240312   1.087   1.459   2.127 -0.2548  0.0237  0.3063
 6226TIP3    H140313   1.095   1.381   2.183 -1.1505  1.4908  2.6090
 6226TIP3    H240314   1.128   1.529   2.178 -2.6423  1.8023 -0.0496
 6227TIP3   OH240315   0.613   4.025   2.653 -0.0202 -0.1094  0.6130
 6227TIP3    H140316   0.571   4.097   2.605  2.3931 -0.6224 -2.6375
 6227TIP3    H240317   0.654   4.067   2.729  0.2682  1.7577 -0.5038
 6228TIP3   OH240318   0.034   2.366   0.857  0.3785  0.5660  0.1427
 6228TIP3    H140319   0.057   2.335   0.944  1.4530 -0.4781 -0.4746
 6228TIP3    H240320  -0.013   2.293   0.817 -1.7093  1.6946  0.4341
 6229TIP3   OH240321   4.228   0.024   1.476 -0.3253  0.1689 -0.6718
 6229TIP3    H140322   4.223   0.049   1.568  1.8735 -0.4997 -0.3209
 6229TIP3    H240323   4.289  -0.050   1.474 -0.9308 -0.3568 -2.5893
 6230TIP3   OH240324   3.439   4.154   1.401 -0.3711  0.3468 -0.1432
 6230TIP3    H140325   3.477   4.086   1.346 -0.0108  2.1905 -2.3590
 6230TIP3    H240326   3.458   4.127   1.491  1.1041 -1.6580 -0.9904
 6231TIP3   OH240327   0.561   0.326   1.173  0.2441 -0.6272  0.0567
 6231TIP3    H140328   0.559   0.422   1.170 -0.8708 -0.5696  1.6367
 6231TIP3    H240329   0.628   0.302   1.109 -1.1025  1.0983 -2.1962
 6232TIP3   OH240330   4.710   2.387   0.564 -0.5641 -0.4847  0.4827
 6232TIP3    H140331   4.775   2.322   0.538 -1.7884 -1.3415 -0.5974
 6232TIP3    H240332   4.731   2.464   0.512 -0.5930 -0.8675 -0.1136
 6233TIP3   OH240333   1.836   4.060   2.651 -0.6203  0.3395 -0.2817
 6233TIP3    H140334   1.806   3.971   2.632  0.7018  0.1784 -1.9127
 6233TIP3    H240335   1.799   4.081   2.737  0.2623 -2.3706  0.8743
 6234TIP3   OH240336   5.967   3.211   1.160 -0.5136 -0.5848 -0.6493
 6234TIP3    H140337   5.953   3.152   1.233  0.2070  0.6312  0.5167
 6234TIP3    H240338   5.999   3.292   1.200 -2.6626  1.0655 -2.0453
 6235TIP3   OH240339   0.627   6.025   0.429 -0.3678 -0.1324  0.0075
 6235TIP3    H140340   0.705   6.041   0.376  0.8683 -0.0868  1.7348
 6235TIP3    H240341   0.560   5.997   0.367  0.6281  1.1166 -1.7001
 6236TIP3   OH240342   3.789   0.663   2.577  0.2042 -0.4021 -0.1549
 6236TIP3    H140343   3.872   0.667   2.530  0.7835 -0.8672  0.7796
 6236TIP3    H240344   3.770   0.753   2.602 -0.0255 -0.1777 -1.1075
 6237TIP3   OH240345   5.901   2.108   1.691 -0.5410  0.6859 -0.4938
 6237TIP3    H140346   5.919   2.014   1.696  0.6782  0.8232 -1.7343
 6237TIP3    H240347   5.853   2.127   1.772  1.5010 -0.5027  1.0923
 6238TIP3   OH240348   0.583   1.818   1.136  0.1371 -0.3250 -0.4147
 6238TIP3    H140349   0.562   1.725   1.145 -1.0509  0.0277  0.9002
 6238TIP3    H240350   0.677   1.820   1.119  0.2027 -1.7641 -0.3449
 6239TIP3   OH240351   3.324   4.462   2.338  0.6755 -0.4577 -0.8049
 6239TIP3    H140352   3.268   4.386   2.325 -0.8090  0.4723 -0.1156
 6239TIP3    H240353   3.364   4.477   2.253  0.5800 -1.6743 -1.0891
 6240TIP3   OH240354   1.166   6.067   0.876  0.2528 -0.1871 -0.0263
 6240TIP3    H140355   1.224   5.998   0.846  0.2299  0.0265 -0.5699
 6240TIP3    H240356   1.099   6.074   0.808  0.4963  0.6551 -0.1923
 6241TIP3   OH240357   0.874   4.136   8.578 -0.1564  0.2189  0.2668
 6241TIP3    H140358   0.862   4.060   8.636 -2.0765  1.0068  0.9867
 6241TIP3    H240359   0.883   4.210   8.638 -0.5453  0.8435 -0.4290
 6242TIP3   OH240360   5.563   4.009   8.803  0.0979 -0.8691 -0.5186
 6242TIP3    H140361   5.607   3.945   8.859  1.9155  0.8501  0.1322
 6242TIP3    H240362   5.579   3.977   8.714 -0.2787 -2.0597 -0.1765
 6243TIP3   OH240363   0.892   4.281   8.812  0.0613 -0.3845  0.3509
 6243TIP3    H140364   0.953   4.355   8.806  0.5278 -0.9021 -3.0709
 6243TIP3    H240365   0.933   4.222   8.875  2.3300  0.0521 -0.6148
 6244TIP3   OH240366   4.817   3.292   3.021 -0.0924 -0.4829 -0.0269
 6244TIP3    H140367   4.910   3.287   2.999 -0.0982  0.5217 -0.3609
 6244TIP3    H240368   4.807   3.235   3.097  1.0020  0.1697  0.6339
 6245TIP3   OH240369   0.994   5.116   0.768 -0.8282  0.4407  0.7945
 6245TIP3    H140370   1.030   5.166   0.695 -1.1421  2.2269  1.7949
 6245TIP3    H240371   0.936   5.051   0.727 -0.4955  0.9634 -0.5541
 6246TIP3   OH240372   0.196   3.129   8.404 -0.7152  0.1212 -0.2963
 6246TIP3    H140373   0.260   3.077   8.453  2.1454  1.5491 -2.2096
 6246TIP3    H240374   0.142   3.170   8.471  2.9199  1.9132  1.8247
 6247TIP3   OH240375   3.814   1.979   8.391  0.3197 -0.1625 -0.5921
 6247TIP3    H140376   3.725   2.013   8.393  0.9210  1.6077 -1.4833
 6247TIP3    H240377   3.853   2.009   8.473 -0.0664 -1.5262  0.1223
 6248TIP3   OH240378   2.769   1.388   7.174  0.1567 -0.0441 -0.2786
 6248TIP3    H140379   2.756   1.483   7.177  0.2698 -0.0219 -0.4697
 6248TIP3    H240380   2.755   1.358   7.264  1.8723  0.3705  0.1480
 6249TIP3   OH240381   3.270   1.903   7.509  0.8578 -0.8543  0.9781
 6249TIP3    H140382   3.256   1.913   7.414 -1.4347 -0.6580  1.2701
 6249TIP3    H240383   3.313   1.984   7.536 -4.5628  2.4712  1.0471
 6250TIP3   OH240384   0.613   6.091   8.168 -0.2345 -0.1135  0.4030
 6250TIP3    H140385   0.623   6.015   8.112  0.7953  0.1647  0.1830
 6250TIP3    H240386   0.599   6.164   8.108 -1.3851 -0.1395  0.6180
 6251TIP3   OH240387   0.002   4.968   0.930  0.1759  0.1074 -0.4293
 6251TIP3    H140388   0.017   4.892   0.988  0.7614  1.4089  1.2132
 6251TIP3    H240389  -0.018   5.040   0.990 -1.5527  1.0304 -2.0043
 6252TIP3   OH240390   0.442   5.622   1.362  0.5852  0.0655 -0.7450
 6252TIP3    H140391   0.479   5.535   1.372 -0.2318 -0.1020  1.5012
 6252TIP3    H240392   0.375   5.613   1.295 -0.1637 -1.2842  0.1550
 6253TIP3   OH240393   0.984   5.318   2.862  0.5149 -0.6365  0.1877
 6253TIP3    H140394   0.895   5.345   2.883  0.8287  0.4389  0.1842
 6253TIP3    H240395   0.975   5.228   2.830 -0.1867 -1.7176  3.1566
 6254TIP3   OH240396   4.240   1.816   1.832 -0.3556 -0.5276  0.1726
 6254TIP3    H140397   4.176   1.853   1.893 -0.5970  0.1521 -0.4717
 6254TIP3    H240398   4.188   1.762   1.772 -0.5551  1.0876 -1.1770
 6255TIP3   OH240399   0.347   2.985   8.566 -0.4495  0.5083  0.5808
 6255TIP3    H140400   0.313   2.895   8.564  0.5134  0.0762 -2.7921
 6255TIP3    H240401   0.436   2.976   8.601 -1.0529  0.5097  2.1911
 6256TIP3   OH240402   2.453   0.336   1.304 -0.2706  0.0953  0.4932
 6256TIP3    H140403   2.511   0.411   1.312 -1.2916  1.0476 -0.6883
 6256TIP3    H240404   2.365   0.372   1.313 -0.7653 -1.0671  0.5657
 6257TIP3   OH240405   6.657   2.642   0.138  0.2151  0.6107 -0.5532
 6257TIP3    H140406   6.569   2.681   0.143  0.3118  1.0881 -2.0381
 6257TIP3    H240407   6.663   2.609   0.049  1.8243  1.2958 -0.7314
 6258TIP3   OH240408   2.502   0.583   2.008  0.0170  0.2023 -0.3896
 6258TIP3    H140409   2.417   0.538   2.005 -0.4749  1.1350 -2.1336
 6258TIP3    H240410   2.557   0.532   1.948  0.3215  0.2835 -0.1773
 6259TIP3   OH240411   4.432   5.823   8.672  0.1343 -0.1012 -0.3000
 6259TIP3    H140412   4.509   5.793   8.623  0.5507  1.2547 -0.5239
 6259TIP3    H240413   4.467   5.866   8.750 -0.3532  0.7756 -0.5391
 6260TIP3   OH240414   1.178   4.763   1.255  0.1627 -1.2486 -0.0723
 6260TIP3    H140415   1.089   4.768   1.220 -0.2894  1.4088  1.2172
 6260TIP3    H240416   1.232   4.810   1.191  0.5645 -2.2790 -0.5171
 6261TIP3   OH240417   3.398   1.557   8.342 -0.2279 -0.9766 -0.1635
 6261TIP3    H140418   3.305   1.578   8.339 -0.1829 -0.9115 -2.1916
 6261TIP3    H240419   3.438   1.611   8.274  1.7650  0.9596  2.3158
 6262TIP3   OH240420   0.653   0.214   0.256  0.4147  0.1171 -0.0416
 6262TIP3    H140421   0.570   0.246   0.291  0.8163 -0.7628  1.8345
 6262TIP3    H240422   0.657   0.122   0.282  1.3375 -0.2496 -1.3595
 6263TIP3   OH240423   3.563   1.050   0.494  0.7528 -0.0308 -0.3600
 6263TIP3    H140424   3.543   1.143   0.481 -1.7430 -0.1227  1.9522
 6263TIP3    H240425   3.549   1.010   0.408 -1.3775  1.2706 -0.6830
 6264TIP3   OH240426   1.193   6.697   0.137 -0.0762 -0.0635  0.4976
 6264TIP3    H140427   1.251   6.651   0.077 -0.5744 -2.9772  2.0714
 6264TIP3    H240428   1.229   6.680   0.224 -1.1800  1.2825  1.2607
 6265TIP3   OH240429   2.112   0.897   7.638  0.3383 -0.6609 -0.4835
 6265TIP3    H140430   2.128   0.978   7.686  1.2370 -1.5656  0.8273
 6265TIP3    H240431   2.066   0.924   7.558  2.8372  1.4222 -1.3308
 6266TIP3   OH240432   3.044   2.447   8.550 -0.0489 -0.0055  0.8862
 6266TIP3    H140433   2.997   2.425   8.469 -0.1508 -0.2360  1.0096
 6266TIP3    H240434   2.999   2.525   8.582 -0.3790 -0.2528  1.0293
 6267TIP3   OH240435   3.201   6.412   8.105  0.5207  0.8058  0.3992
 6267TIP3    H140436   3.226   6.441   8.017  0.2112  0.7950  0.3080
 6267TIP3    H240437   3.167   6.490   8.147 -1.4549  0.3591 -0.2491
 6268TIP3   OH240438   4.659   5.254   0.873  0.0377 -0.6869  0.2989
 6268TIP3    H140439   4.611   5.295   0.946 -3.3355 -0.4553 -1.8367
 6268TIP3    H240440   4.658   5.161   0.894 -2.5101 -0.8343 -0.1892
 6269TIP3   OH240441   4.436   5.394   0.494  0.2546  0.2312  0.2486
 6269TIP3    H140442   4.493   5.471   0.502  0.1657  0.3592 -0.3238
 6269TIP3    H240443   4.414   5.390   0.401  0.6847 -0.8004  0.1768
 6270TIP3   OH240444   2.398   2.032   2.583 -0.3904  0.0236 -0.3206
 6270TIP3    H140445   2.436   2.031   2.495 -1.0979  3.4147 -0.7692
 6270TIP3    H240446   2.473   2.042   2.641 -0.1408  0.6891 -0.7526
 6271TIP3   OH240447   2.787   3.560   7.322  0.1359 -0.0836  0.0989
 6271TIP3    H140448   2.706   3.509   7.328  0.4826 -0.6505  0.0541
 6271TIP3    H240449   2.798   3.575   7.228  0.4036 -0.5375  0.0555
 6272TIP3   OH240450   0.241   3.108   1.712 -0.1041 -0.0972 -0.0335
 6272TIP3    H140451   0.337   3.103   1.718 -0.1755 -1.8790  0.1036
 6272TIP3    H240452   0.214   3.019   1.689 -1.7623  0.3081  0.2371
 6273TIP3   OH240453   2.272   2.870   7.692 -0.1743 -0.5457  0.2149
 6273TIP3    H140454   2.210   2.900   7.625  0.8138 -1.2169 -1.0301
 6273TIP3    H240455   2.307   2.788   7.657  1.9089  0.1494  0.5748
 6274TIP3   OH240456   6.124   5.928   0.927  0.3794  0.1419 -0.5347
 6274TIP3    H140457   6.159   5.994   0.987  0.6752 -0.8536  0.4136
 6274TIP3    H240458   6.122   5.972   0.842  2.4507  0.7504 -0.3255
 6275TIP3   OH240459   0.779   2.445   8.392 -0.3773 -0.3034  0.4618
 6275TIP3    H140460   0.753   2.448   8.300 -0.1723 -0.1340  0.4088
 6275TIP3    H240461   0.858   2.499   8.397 -0.2221 -0.5466  0.6832
 6276TIP3   OH240462   4.533   5.540   2.565  0.5366 -0.5275 -0.3550
 6276TIP3    H140463   4.615   5.549   2.612  0.8671 -0.9557 -0.8330
 6276TIP3    H240464   4.487   5.622   2.579  1.6878  0.3103 -1.3107
 6277TIP3   OH240465   1.956   1.606   0.468  0.1157  0.6922 -0.5898
 6277TIP3    H140466   1.876   1.651   0.495  1.7506  2.3276  1.8955
 6277TIP3    H240467   2.022   1.676   0.460  1.3756 -0.5869 -2.5618
 6278TIP3   OH240468   3.762   0.352   2.261 -0.3911  0.3655  0.6319
 6278TIP3    H140469   3.709   0.431   2.258  0.8651  1.1965 -0.9200
 6278TIP3    H240470   3.848   0.379   2.230 -0.0308 -1.6799 -0.3234
 6279TIP3   OH240471   4.138   5.331   1.745  0.1388  0.5073 -0.2429
 6279TIP3    H140472   4.077   5.266   1.778  0.5507  1.2517  2.1909
 6279TIP3    H240473   4.090   5.414   1.747 -0.3467  0.4251 -3.2030
 6280TIP3   OH240474   2.684   3.646   0.633 -0.3438  0.1486 -0.3502
 6280TIP3    H140475   2.755   3.691   0.589 -0.5512  1.0978  0.2660
 6280TIP3    H240476   2.722   3.614   0.715 -0.6391  0.7639  0.0380
 6281TIP3   OH240477   4.785   4.354   0.915  0.2854 -0.6728  0.2499
 6281TIP3    H140478   4.825   4.343   0.829 -1.6319 -1.8956 -0.5646
 6281TIP3    H240479   4.782   4.449   0.928  1.2099 -0.4902 -0.7302
 6282TIP3   OH240480   5.818   3.880   0.418 -0.6787  0.2781  0.9886
 6282TIP3    H140481   5.804   3.955   0.360 -0.6316 -0.7978 -0.4750
 6282TIP3    H240482   5.857   3.917   0.497  2.4086  1.4317 -0.9260
 6283TIP3   OH240483   3.925   6.072   1.378  0.0474 -0.3660 -0.0062
 6283TIP3    H140484   3.834   6.051   1.398  0.2638 -0.5075  0.8454
 6283TIP3    H240485   3.927   6.076   1.282 -1.5624  2.7744 -0.0761
 6284TIP3   OH240486   0.751   3.645   8.224  0.1811 -0.1218  0.0700
 6284TIP3    H140487   0.786   3.724   8.183  0.2532 -0.2183 -0.0588
 6284TIP3    H240488   0.828   3.602   8.262 -0.0645  0.6648  1.5346
 6285TIP3   OH240489   1.607   6.479   1.712  0.0388  0.1763 -0.2268
 6285TIP3    H140490   1.592   6.445   1.625 -0.1187  1.4559 -0.7243
 6285TIP3    H240491   1.645   6.406   1.761  0.9903 -0.3008 -1.6206
 6286TIP3   OH240492   2.830   4.800   3.210  0.0979  0.4205  0.4356
 6286TIP3    H140493   2.839   4.895   3.221 -3.2950  0.7999  1.2818
 6286TIP3    H240494   2.754   4.790   3.153 -0.8538 -1.7293  1.9334
 6287TIP3   OH240495   2.373   4.529   2.481  0.0380  0.1690 -0.6516
 6287TIP3    H140496   2.381   4.621   2.508 -0.4167  0.4974 -1.5691
 6287TIP3    H240497   2.292   4.527   2.429 -0.3665 -0.9122 -0.0123
 6288TIP3   OH240498   2.049   2.696   0.856 -0.1716  0.6418 -0.4255
 6288TIP3    H140499   2.096   2.640   0.917  0.5433  1.3787 -0.2849
 6288TIP3    H240500   2.051   2.783   0.896  0.2497  1.1258 -1.4544
 6289TIP3   OH240501   2.947   5.854   1.511 -0.2051 -0.1346  0.3240
 6289TIP3    H140502   3.002   5.893   1.443 -1.9144  1.3741 -0.2692
 6289TIP3    H240503   2.858   5.859   1.476 -0.9404 -0.8703  1.9731
 6290TIP3   OH240504   5.387   6.439   2.534 -0.1215 -0.2537  0.1305
 6290TIP3    H140505   5.397   6.427   2.440  2.1696 -0.2122  0.3153
 6290TIP3    H240506   5.349   6.527   2.543  0.1834 -0.0296 -0.7283
 6291TIP3   OH240507   1.957   3.332   9.002  0.5967  0.3351  0.5138
 6291TIP3    H140508   1.900   3.268   9.045  1.3487 -0.6324  0.1302
 6291TIP3    H240509   1.898   3.389   8.953 -0.1365  0.3410  1.3846
 6292TIP3   OH240510   6.174   3.438   7.547  0.2968  0.1528  0.3419
 6292TIP3    H140511   6.251   3.477   7.505 -0.5254  1.4943  0.0155
 6292TIP3    H240512   6.110   3.509   7.550 -1.0373 -1.0072  0.3573
 6293TIP3   OH240513   5.114   5.936   0.918 -0.6488  0.0130 -0.0862
 6293TIP3    H140514   5.094   5.875   0.990 -0.0948  0.6245  0.6000
 6293TIP3    H240515   5.209   5.946   0.921 -0.6498  0.2476 -0.7418
 6294TIP3   OH240516   2.910   3.564   9.144 -0.2767 -0.0704 -0.3995
 6294TIP3    H140517   2.986   3.616   9.168 -0.6408  0.6607 -0.8044
 6294TIP3    H240518   2.859   3.556   9.225  0.6423 -1.3048  0.0879
 6295TIP3   OH240519   4.195   1.053   8.107 -0.7215 -0.5216  0.3362
 6295TIP3    H140520   4.284   1.076   8.081 -0.9265  0.3428  0.3757
 6295TIP3    H240521   4.149   1.136   8.112 -1.6093 -0.9843  0.0525
 6296TIP3   OH240522   3.746   3.707   0.293  0.1770  0.0600  0.0364
 6296TIP3    H140523   3.792   3.681   0.213 -2.8947  1.3500 -2.3651
 6296TIP3    H240524   3.753   3.631   0.351  3.4301 -0.5266 -0.9067
 6297TIP3   OH240525   3.031   2.227   8.714  0.2289 -0.0946  0.3243
 6297TIP3    H140526   3.029   2.322   8.727  1.3839  0.0921 -0.6854
 6297TIP3    H240527   2.948   2.207   8.670 -0.2128  0.3711  0.9209
 6298TIP3   OH240528   1.725   6.210   2.421 -0.2092 -0.8304 -0.4475
 6298TIP3    H140529   1.802   6.156   2.403  0.2166 -0.4678  0.2256
 6298TIP3    H240530   1.695   6.182   2.507  1.4527  1.5545  1.0528
 6299TIP3   OH240531   0.709   4.875   8.252 -0.3995  0.0672 -0.2147
 6299TIP3    H140532   0.777   4.911   8.308 -0.2159  0.0467 -0.4245
 6299TIP3    H240533   0.742   4.887   8.163 -0.3621 -0.5594 -0.2911
 6300TIP3   OH240534   6.014   2.947   1.577  0.4038  0.6996 -0.2031
 6300TIP3    H140535   6.080   3.007   1.542  0.6714  0.7208  0.3342
 6300TIP3    H240536   6.058   2.900   1.647  0.4080 -0.6467 -1.0669
 6301TIP3   OH240537   6.224   3.575   1.893 -0.5887  0.6612  0.0082
 6301TIP3    H140538   6.306   3.534   1.922 -0.9625 -0.0700  0.0586
 6301TIP3    H240539   6.199   3.631   1.966 -1.0977 -0.5470  0.7977
 6302TIP3   OH240540   5.450   3.431   1.000 -0.6827  0.7623  0.0611
 6302TIP3    H140541   5.476   3.371   0.930  0.2799  0.6949  0.4655
 6302TIP3    H240542   5.530   3.445   1.051 -1.5930  0.0178  1.7681
 6303TIP3   OH240543   2.256   5.013   1.036 -0.1161  0.5203  0.1298
 6303TIP3    H140544   2.265   4.975   1.123  0.9197  2.1648  0.7815
 6303TIP3    H240545   2.183   4.965   0.997  0.4815 -1.4174  1.2390
 6304TIP3   OH240546   1.373   6.122   8.087  0.3011 -0.0272  0.0000
 6304TIP3    H140547   1.365   6.169   8.004 -1.5372  0.8988  0.6310
 6304TIP3    H240548   1.302   6.158   8.141 -0.2967 -2.5652  1.0257
 6305TIP3   OH240549   1.717   5.171   8.235 -0.4964 -0.0443  0.6858
 6305TIP3    H140550   1.735   5.224   8.312  2.1000 -0.1189  0.2122
 6305TIP3    H240551   1.650   5.219   8.187  1.5203  2.7378  0.4186
 6306TIP3   OH240552   0.896   1.618   8.548  0.1531  0.4319 -0.7679
 6306TIP3    H140553   0.990   1.600   8.543  0.0709 -0.1346 -0.2716
 6306TIP3    H240554   0.862   1.585   8.465  0.2372 -0.2966 -0.5160
 6307TIP3   OH240555   4.830   3.280   2.559  0.0976 -0.8796 -0.0298
 6307TIP3    H140556   4.768   3.208   2.575 -0.2706 -0.7787 -0.9399
 6307TIP3    H240557   4.785   3.358   2.592  0.5022 -1.0447  0.9693
 6308TIP3   OH240558   2.444   5.250   0.001  0.9186 -1.1370 -0.4811
 6308TIP3    H140559   2.534   5.262   0.033  0.7474 -0.8955 -0.0876
 6308TIP3    H240560   2.454   5.241  -0.094  1.2480  0.0750 -0.5719
 6309TIP3   OH240561   4.673   3.611   7.805  0.4359  0.6199  0.0734
 6309TIP3    H140562   4.756   3.633   7.761  0.7889  1.4010  1.0782
 6309TIP3    H240563   4.660   3.518   7.787  1.2095  0.6376 -0.6321
 6310TIP3   OH240564   0.547   6.379   2.533 -0.3789  0.1802 -0.6198
 6310TIP3    H140565   0.480   6.312   2.522 -2.1492  1.4950  1.4215
 6310TIP3    H240566   0.628   6.336   2.508 -1.7229 -2.0376 -1.4325
 6311TIP3   OH240567   0.372   1.405   0.202 -0.0031  0.0280  0.0437
 6311TIP3    H140568   0.394   1.486   0.155  0.3149 -0.1446 -0.1089
 6311TIP3    H240569   0.393   1.335   0.141  0.3355 -0.1966  0.4081
 6312TIP3   OH240570   2.310   5.386   2.269 -0.0893 -0.1571 -0.1091
 6312TIP3    H140571   2.356   5.467   2.248  2.1526 -0.5989  2.4123
 6312TIP3    H240572   2.262   5.406   2.349 -0.2445 -1.0475  0.0361
 6313TIP3   OH240573   5.860   0.943   1.244  0.0720 -0.1789 -0.3812
 6313TIP3    H140574   5.815   0.970   1.163  1.4132  0.5676 -0.8979
 6313TIP3    H240575   5.881   0.850   1.230  2.0884  0.4261 -1.7925
 6314TIP3   OH240576   1.806   5.332   7.869  0.0847  0.1315  0.5905
 6314TIP3    H140577   1.719   5.310   7.834 -0.1203  1.3815  0.2669
 6314TIP3    H240578   1.867   5.288   7.810 -0.3121  0.3308  0.0179
 6315TIP3   OH240579   6.339   4.930   0.958  0.9645 -0.0307 -0.1882
 6315TIP3    H140580   6.389   4.960   1.034 -0.6854  1.1617  0.4654
 6315TIP3    H240581   6.287   5.006   0.932 -1.6412 -1.6297  0.0895
 6316TIP3   OH240582   4.071   6.637   0.819  0.0728  0.0200  0.5908
 6316TIP3    H140583   3.993   6.614   0.770 -1.0132 -0.9705  2.6658
 6316TIP3    H240584   4.140   6.644   0.753 -1.7820  1.1904 -1.3283
 6317TIP3   OH240585   5.513   2.493   1.556 -0.3921 -0.4606 -0.6150
 6317TIP3    H140586   5.596   2.484   1.508 -1.5487  1.2058 -3.1537
 6317TIP3    H240587   5.528   2.564   1.618 -0.3681  1.0593 -2.2921
 6318TIP3   OH240588   0.054   4.219   7.948  0.3199 -0.1668 -0.0764
 6318TIP3    H140589   0.043   4.124   7.950  1.9428 -0.3969 -0.1251
 6318TIP3    H240590  -0.010   4.252   8.011 -0.2748 -1.2863 -0.0650
 6319TIP3   OH240591   6.643   3.813   2.089  0.1638  0.0127  0.6317
 6319TIP3    H140592   6.693   3.779   2.164 -0.8865  2.1256  2.4122
 6319TIP3    H240593   6.710   3.831   2.023  1.1875 -1.5219  1.1897
 6320TIP3   OH240594   2.632   2.693   0.512 -0.6316  0.2877 -0.2570
 6320TIP3    H140595   2.600   2.625   0.572  0.7394  0.4203  0.6718
 6320TIP3    H240596   2.700   2.650   0.461 -2.9284 -0.3252 -3.0450
 6321TIP3   OH240597   5.583   6.220   8.355  0.2770 -0.4136  0.2845
 6321TIP3    H140598   5.657   6.246   8.409 -0.1487 -0.2593  0.8067
 6321TIP3    H240599   5.585   6.280   8.281  0.4213 -0.1315  0.5138
 6322TIP3   OH240600   3.716   1.642   7.410  0.2919 -0.0736  0.7852
 6322TIP3    H140601   3.712   1.596   7.326 -1.1534  1.4535 -0.0376
 6322TIP3    H240602   3.640   1.608   7.459  0.7615 -0.4865  1.2422
 6323TIP3   OH240603   5.261   5.723   2.477 -0.0480 -0.8492  0.0869
 6323TIP3    H140604   5.323   5.729   2.550  0.3214  0.2713 -0.3022
 6323TIP3    H240605   5.311   5.686   2.405  0.5699  1.2154 -0.6106
 6324TIP3   OH240606   3.162   3.142   8.491  0.0788  0.1204  0.0345
 6324TIP3    H140607   3.126   3.055   8.505  2.1916 -1.1121 -1.5952
 6324TIP3    H240608   3.103   3.183   8.427 -1.0498  0.0271  0.9801
 6325TIP3   OH240609   4.510   3.078   8.590 -0.2371 -0.5744 -0.5644
 6325TIP3    H140610   4.513   2.982   8.599  0.3244 -0.4918  0.3051
 6325TIP3    H240611   4.576   3.109   8.652 -1.2574  0.4357  0.0484
 6326TIP3   OH240612   5.769   6.139   2.292 -0.0827  0.4765 -0.0313
 6326TIP3    H140613   5.684   6.174   2.264  1.2004  1.5238 -3.0272
 6326TIP3    H240614   5.793   6.076   2.225  0.8959 -0.9293  1.5564
 6327TIP3   OH240615   0.841   2.130   8.791  0.3167 -0.2568 -0.2819
 6327TIP3    H140616   0.899   2.182   8.735  0.6003  0.3422  0.5484
 6327TIP3    H240617   0.890   2.119   8.873  0.2819 -1.8853 -0.4551
 6328TIP3   OH240618   3.258   2.550   8.383 -0.6862 -0.2483 -0.5480
 6328TIP3    H140619   3.212   2.495   8.446 -1.6681  0.6871 -0.4223
 6328TIP3    H240620   3.245   2.507   8.299 -1.8836  0.0375 -0.5273
 6329TIP3   OH240621   5.115   3.632   1.898  0.5463  0.6258 -0.0557
 6329TIP3    H140622   5.069   3.716   1.903 -1.4404 -0.4539  1.4383
 6329TIP3    H240623   5.091   3.587   1.979  1.4715 -1.4285 -0.8500
 6330TIP3   OH240624   3.154   0.207   3.056  0.4402  0.2138  0.2505
 6330TIP3    H140625   3.105   0.140   3.103 -1.3638  0.6396 -0.9221
 6330TIP3    H240626   3.246   0.187   3.073 -0.0752  0.3290  3.8793
 6331TIP3   OH240627   1.171   4.781   0.833 -0.5234  0.9102  0.3309
 6331TIP3    H140628   1.124   4.860   0.807 -1.5320 -0.0311 -0.8403
 6331TIP3    H240629   1.110   4.709   0.815  0.6567 -0.2055  0.6000
 6332TIP3   OH240630   0.261   1.337   1.007 -0.3767 -0.2549 -0.0222
 6332TIP3    H140631   0.229   1.390   1.080 -0.1452  0.0521 -0.1423
 6332TIP3    H240632   0.193   1.271   0.995  0.2632 -1.2377  1.4337
 6333TIP3   OH240633   2.179   5.644   8.082 -0.1056 -0.4452  0.1817
 6333TIP3    H140634   2.191   5.563   8.132  1.4799 -0.2133  0.2333
 6333TIP3    H240635   2.230   5.630   8.003  1.1251  0.9084  0.6992
 6334TIP3   OH240636   6.267   6.613   2.787  0.5434 -0.1240 -0.4102
 6334TIP3    H140637   6.330   6.561   2.738  0.7201 -0.4688  0.1704
 6334TIP3    H240638   6.289   6.597   2.879 -0.5938 -0.5179 -0.1893
 6335TIP3   OH240639   4.233   5.914   8.241  0.0421 -0.0994  0.0904
 6335TIP3    H140640   4.188   5.982   8.291  1.3854  1.0359 -0.1851
 6335TIP3    H240641   4.319   5.951   8.221 -0.4176 -0.5215 -3.0778
 6336TIP3   OH240642   5.213   2.219   1.979 -0.1911 -0.8318 -0.5341
 6336TIP3    H140643   5.200   2.147   1.917  0.6950 -0.5824 -1.0307
 6336TIP3    H240644   5.274   2.184   2.044 -1.9647 -1.4758  0.8937
 6337TIP3   OH240645   5.134   3.197   1.676 -0.1662 -0.0926 -0.2872
 6337TIP3    H140646   5.049   3.211   1.636  0.2975 -0.0831 -1.2895
 6337TIP3    H240647   5.164   3.285   1.699 -1.3926 -0.2414  2.1795
 6338TIP3   OH240648   6.368   4.026   9.178 -0.3478  0.0944 -0.7837
 6338TIP3    H140649   6.311   4.075   9.238 -0.9120 -0.7977 -0.5804
 6338TIP3    H240650   6.400   3.952   9.229 -2.4191 -1.8249 -2.0992
 6339TIP3   OH240651   0.204   3.462   0.144  0.2767  0.3421 -0.1889
 6339TIP3    H140652   0.236   3.372   0.138 -0.8446  0.0464 -3.0579
 6339TIP3    H240653   0.114   3.452   0.177 -0.3272  0.2203 -1.7735
 6340TIP3   OH240654   4.681   4.323   7.197  0.4281 -0.5365  0.3389
 6340TIP3    H140655   4.592   4.298   7.222  0.3885 -1.6940 -0.8203
 6340TIP3    H240656   4.683   4.313   7.102  1.3323  1.0993  0.1546
 6341TIP3   OH240657   6.395   1.564   1.001 -0.2293  0.3069 -0.2264
 6341TIP3    H140658   6.476   1.612   0.981  2.4856 -3.1042  1.4564
 6341TIP3    H240659   6.386   1.572   1.096 -2.9274  1.9150 -0.5263
 6342TIP3   OH240660   4.030   2.155   8.006 -0.3037  0.2263 -0.3040
 6342TIP3    H140661   4.108   2.180   7.958 -0.0684 -0.5847 -0.3539
 6342TIP3    H240662   3.963   2.218   7.978  0.5695  1.5523  0.4870
 6343TIP3   OH240663   2.988   3.328   0.721 -0.3432  0.5879 -0.5062
 6343TIP3    H140664   2.908   3.377   0.741  0.1055  1.1486 -0.0239
 6343TIP3    H240665   2.965   3.236   0.738 -0.9323  0.7263 -0.5426
 6344TIP3   OH240666   6.126   2.926   8.900  0.1598 -0.0828  0.2138
 6344TIP3    H140667   6.050   2.983   8.895 -0.1906 -0.5338  0.3191
 6344TIP3    H240668   6.196   2.982   8.935 -0.3983  0.0613  1.1503
 6345TIP3   OH240669   3.932   0.798   8.706  0.7276  0.0558 -0.8207
 6345TIP3    H140670   4.000   0.755   8.654  0.6566  1.3983 -2.0879
 6345TIP3    H240671   3.887   0.855   8.644  0.7637  1.8821  0.7316
 6346TIP3   OH240672   4.757   5.589   2.725 -0.5116  0.3203  0.4262
 6346TIP3    H140673   4.737   5.646   2.799 -1.0256 -0.3582  0.8144
 6346TIP3    H240674   4.790   5.508   2.764  1.0335  0.6341 -0.1422
 6347TIP3   OH240675   4.692   4.828   8.868 -0.1600  0.9560 -0.4698
 6347TIP3    H140676   4.756   4.832   8.939  3.2342 -0.7625 -3.0955
 6347TIP3    H240677   4.622   4.772   8.901  1.0611  0.5738  1.6405
 6348TIP3   OH240678   0.158   4.808   8.750 -0.1660 -0.4651  0.1063
 6348TIP3    H140679   0.137   4.896   8.782  0.2074  0.0951 -1.1149
 6348TIP3    H240680   0.239   4.785   8.796 -0.1140 -0.0497  0.2300
 6349TIP3   OH240681   0.750   3.651   8.706 -0.1248 -0.1455 -0.0774
 6349TIP3    H140682   0.717   3.679   8.621 -0.0611 -0.6070 -0.2573
 6349TIP3    H240683   0.839   3.620   8.688  0.2496  0.6861  0.3292
 6350TIP3   OH240684   0.073   4.967   1.415  0.7866 -0.0373 -0.7296
 6350TIP3    H140685   0.051   4.896   1.477  1.7761 -0.5429 -0.9433
 6350TIP3    H240686   0.090   5.042   1.471 -0.8495  0.2274 -0.5206
 6351TIP3   OH240687   3.514   4.931   7.986  0.2670  0.5861  0.3574
 6351TIP3    H140688   3.481   4.903   8.071 -0.3166  3.3136  1.1389
 6351TIP3    H240689   3.440   4.977   7.946  1.2026  1.2301 -0.6793
 6352TIP3   OH240690   2.623   1.225   8.377  0.0133  0.2856 -0.1008
 6352TIP3    H140691   2.701   1.179   8.409 -1.1210 -2.2993 -0.7708
 6352TIP3    H240692   2.614   1.299   8.436  1.0996 -1.2113  2.1230
 6353TIP3   OH240693   1.969   0.876   7.388  0.7039 -0.0993  0.1128
 6353TIP3    H140694   2.050   0.830   7.364  0.5411 -0.3798  0.1035
 6353TIP3    H240695   1.899   0.821   7.355  0.5224  1.2791 -2.0260
 6354TIP3   OH240696   0.008   0.794   1.208 -0.2347  0.1205 -0.2097
 6354TIP3    H140697   0.099   0.822   1.202 -0.1579  0.4522  1.7316
 6354TIP3    H240698   0.001   0.719   1.150  1.4192 -0.2408  0.0277
 6355TIP3   OH240699   4.177   1.685   2.191 -0.5921  0.0593  0.5552
 6355TIP3    H140700   4.206   1.621   2.256  1.9024  1.2618  0.7312
 6355TIP3    H240701   4.163   1.633   2.112 -2.8962 -1.2971  1.7283
 6356TIP3   OH240702   0.929   6.539   2.874  0.3400 -0.7607 -0.5096
 6356TIP3    H140703   0.975   6.498   2.947  0.8700  1.2281  0.3117
 6356TIP3    H240704   0.927   6.470   2.806  2.6808 -1.6067  0.1718
 6357TIP3   OH240705   3.652   3.569   8.400 -0.3525  0.3501  0.0307
 6357TIP3    H140706   3.615   3.482   8.384  0.3596 -0.1410  0.9056
 6357TIP3    H240707   3.737   3.568   8.356  0.4883 -0.1003  1.5902
 6358TIP3   OH240708   1.249   0.652   8.248 -0.3058  0.3045 -0.0908
 6358TIP3    H140709   1.327   0.639   8.303 -0.5753  0.7695  0.4152
 6358TIP3    H240710   1.280   0.708   8.177  0.2357 -0.9424 -0.8717
 6359TIP3   OH240711   4.482   6.084   8.177 -0.1791 -0.3524  0.0711
 6359TIP3    H140712   4.444   6.145   8.241 -0.4406 -1.2042  0.7517
 6359TIP3    H240713   4.448   6.113   8.093  0.3087  0.9009  0.2847
 6360TIP3   OH240714   6.609   5.368   2.226  0.1946 -0.9660  0.2060
 6360TIP3    H140715   6.630   5.280   2.258  0.6241 -0.5600  1.0446
 6360TIP3    H240716   6.676   5.424   2.264 -1.6066  0.1529  1.9253
 6361TIP3   OH240717   3.949   1.975   7.743  0.0326 -0.0737  0.3348
 6361TIP3    H140718   3.914   2.064   7.744  0.7933  0.2643 -0.7303
 6361TIP3    H240719   3.880   1.922   7.705 -0.4964  0.0165  1.1442
 6362TIP3   OH240720   5.565   3.427   1.498  0.4998  0.0860  0.9692
 6362TIP3    H140721   5.535   3.341   1.529 -1.9324  0.4747 -0.0329
 6362TIP3    H240722   5.636   3.407   1.437 -0.6361 -1.3381  0.0266
 6363TIP3   OH240723   5.094   2.181   1.446  0.3625  0.2364  0.0896
 6363TIP3    H140724   5.106   2.197   1.353  1.1479 -0.4392  0.0593
 6363TIP3    H240725   5.024   2.116   1.451 -1.5071  2.1305  0.1255
 6364TIP3   OH240726   2.601   4.339   0.336 -0.2707  0.1742  0.3110
 6364TIP3    H140727   2.514   4.379   0.336 -0.2873  0.1420  0.7247
 6364TIP3    H240728   2.586   4.248   0.362 -0.1772  0.0111 -0.1859
 6365TIP3   OH240729   2.719   0.483   1.253  0.3959 -0.2524 -0.3865
 6365TIP3    H140730   2.809   0.516   1.250  0.3255 -0.1293 -2.2715
 6365TIP3    H240731   2.666   0.553   1.215 -0.2393 -1.0193 -0.9559
 6366TIP3   OH240732   1.281   3.619   0.128 -0.4735 -0.3273 -0.2845
 6366TIP3    H140733   1.222   3.582   0.193 -2.2010 -0.3527 -1.7815
 6366TIP3    H240734   1.320   3.543   0.085 -1.6206 -0.3952 -1.2482
 6367TIP3   OH240735   3.927   5.038   8.305 -0.0114 -0.0397 -0.4818
 6367TIP3    H140736   3.859   5.081   8.357 -0.4420  0.7863 -1.6870
 6367TIP3    H240737   3.988   5.004   8.370 -0.3219  1.2963  0.5625
 6368TIP3   OH240738   2.282   1.828   2.175 -0.6312 -0.2381  0.4668
 6368TIP3    H140739   2.249   1.740   2.193  0.8894 -1.0745 -0.5762
 6368TIP3    H240740   2.335   1.818   2.095 -0.1007  1.5414  0.5493
 6369TIP3   OH240741   4.967   4.419   7.639  0.4078 -0.5865 -0.6254
 6369TIP3    H140742   5.061   4.409   7.627  0.0959 -2.1140 -2.2448
 6369TIP3    H240743   4.947   4.370   7.719  1.1638  1.0890  0.6385
 6370TIP3   OH240744   2.407   2.827   8.264 -0.4306  0.1126 -0.2931
 6370TIP3    H140745   2.417   2.911   8.220  1.4204 -0.5881 -1.3238
 6370TIP3    H240746   2.494   2.787   8.260 -0.8021 -1.0513  1.8772
 6371TIP3   OH240747   0.343   0.260   3.126 -0.4809 -0.1552  0.2300
 6371TIP3    H140748   0.354   0.355   3.136 -0.3992 -0.1243 -0.1700
 6371TIP3    H240749   0.290   0.235   3.202  0.7361 -0.0281  1.1547
 6372TIP3   OH240750   4.348   6.544   8.427  0.0302 -0.6171  0.1412
 6372TIP3    H140751   4.257   6.555   8.456 -0.0011  0.8189 -0.4390
 6372TIP3    H240752   4.386   6.483   8.491 -0.8490  0.1512  1.4388
 6373TIP3   OH240753   1.410   2.008   0.718  0.7578 -0.3816 -0.7312
 6373TIP3    H140754   1.340   2.073   0.727 -0.5689 -1.5516 -1.9446
 6373TIP3    H240755   1.376   1.930   0.762  0.8415 -1.2773 -2.1922
 6374TIP3   OH240756   5.226   2.800   1.176 -0.0626 -0.9037 -0.0617
 6374TIP3    H140757   5.194   2.865   1.238 -1.2381 -2.4119  0.9725
 6374TIP3    H240758   5.268   2.733   1.231 -1.9152 -2.7204 -0.7453
 6375TIP3   OH240759   5.140   3.909   2.876 -0.6027  0.4284  0.2680
 6375TIP3    H140760   5.193   3.866   2.944 -0.2016  1.6633  0.7724
 6375TIP3    H240761   5.187   3.990   2.858 -2.0128  1.2656  0.2667
 6376TIP3   OH240762   3.079   1.543   8.287  0.1018 -0.2875  0.6606
 6376TIP3    H140763   3.025   1.467   8.265  0.4120 -0.6069  0.9971
 6376TIP3    H240764   3.016   1.614   8.301 -0.3869 -1.1009  2.9567
 6377TIP3   OH240765   3.410   2.193   2.311 -0.3615  0.4192 -0.1564
 6377TIP3    H140766   3.455   2.194   2.226 -0.7985 -1.4477 -0.4529
 6377TIP3    H240767   3.480   2.190   2.376  0.0114  2.8392 -0.3452
 6378TIP3   OH240768   6.580   3.816   9.043 -0.3949  0.5702 -0.0013
 6378TIP3    H140769   6.512   3.796   9.108 -0.5535  0.3792 -0.2268
 6378TIP3    H240770   6.623   3.894   9.077  0.3694 -0.2561  0.9963
 6379TIP3   OH240771   1.001   1.399   9.166  0.2389 -0.2450 -0.2976
 6379TIP3    H140772   0.958   1.456   9.104 -0.5396  0.8488  1.1835
 6379TIP3    H240773   0.935   1.334   9.189 -0.3223  0.7911  1.1592
 6380TIP3   OH240774   3.810   0.309   1.500 -0.3616 -0.1695 -0.2078
 6380TIP3    H140775   3.879   0.348   1.446  0.5247 -1.0185  0.2964
 6380TIP3    H240776   3.851   0.234   1.542 -1.6807 -0.8796 -0.1359
 6381TIP3   OH240777   1.977   3.500   1.341 -0.2953 -0.1542 -0.1023
 6381TIP3    H140778   1.985   3.592   1.365 -2.6423  0.3234 -0.9020
 6381TIP3    H240779   2.064   3.475   1.311  0.1134  2.1363 -1.0024
 6382TIP3   OH240780   0.065   1.383   8.888 -0.1263 -0.2309 -0.4065
 6382TIP3    H140781   0.030   1.312   8.941  0.0751  0.4040  0.6240
 6382TIP3    H240782   0.139   1.416   8.939  1.2728 -0.7984 -1.9909
 6383TIP3   OH240783   0.832   0.323   8.994 -0.1540  0.1063 -0.2712
 6383TIP3    H140784   0.905   0.344   9.053  0.0537  0.9805 -0.8225
 6383TIP3    H240785   0.767   0.281   9.051  0.8597 -0.8997  0.1857
 6384TIP3   OH240786   2.372   2.191   3.303  0.2571 -0.6088 -0.0416
 6384TIP3    H140787   2.278   2.174   3.314  0.0529 -0.3555 -1.2365
 6384TIP3    H240788   2.398   2.133   3.231  0.6693  0.4162 -0.7444
 6385TIP3   OH240789   0.019   6.038   1.195 -1.1664 -0.6704 -0.6361
 6385TIP3    H140790   0.059   6.006   1.114 -1.2198 -0.4650 -0.7456
 6385TIP3    H240791  -0.008   5.959   1.241  2.0826 -1.0489  0.8735
 6386TIP3   OH240792   3.465   4.186   8.755 -0.2597  0.3285 -0.0929
 6386TIP3    H140793   3.419   4.126   8.814  0.3752  0.9029  1.0342
 6386TIP3    H240794   3.495   4.257   8.813  0.5419  0.8225 -1.0872
 6387TIP3   OH240795   3.934   4.019   7.010  0.1258  0.0602 -0.0620
 6387TIP3    H140796   3.847   4.043   6.977 -1.2984 -0.9496  2.6872
 6387TIP3    H240797   3.980   4.103   7.017 -0.9504  0.7352 -0.6842
 6388TIP3   OH240798   6.112   0.515   8.930  0.2223 -0.4864 -0.4280
 6388TIP3    H140799   6.018   0.509   8.948  0.1227 -1.9833 -1.2622
 6388TIP3    H240800   6.152   0.454   8.991  0.6199 -0.1429 -0.3409
 6389TIP3   OH240801   5.486   6.302   7.845  0.0333  0.1968  0.2648
 6389TIP3    H140802   5.573   6.263   7.854  0.4654  0.9674 -0.3803
 6389TIP3    H240803   5.494   6.386   7.891  0.1758  1.0545 -1.2785
 6390TIP3   OH240804   1.234   1.491   0.685 -0.7004  0.1454  0.4145
 6390TIP3    H140805   1.200   1.418   0.738 -1.4354 -0.3534 -0.7136
 6390TIP3    H240806   1.159   1.551   0.677 -0.0349  1.1590  1.5295
 6391TIP3   OH240807   0.724   6.347   8.242 -0.3583 -0.2086  0.1095
 6391TIP3    H140808   0.782   6.314   8.173  1.7278 -0.4523  1.8820
 6391TIP3    H240809   0.659   6.278   8.253 -0.4244 -0.3923 -1.2302
 6392TIP3   OH240810   6.613   1.148   0.182  0.5390 -0.0132  0.1040
 6392TIP3    H140811   6.607   1.077   0.246  0.9582 -0.0525  0.1001
 6392TIP3    H240812   6.685   1.203   0.213  0.0764  0.5304  0.2233
 6393TIP3   OH240813   2.452   2.468   1.153  0.2936 -0.0404 -0.2220
 6393TIP3    H140814   2.546   2.459   1.137  0.5205  1.0093  0.4658
 6393TIP3    H240815   2.428   2.550   1.112 -0.9393 -1.5750 -2.8503
 6394TIP3   OH240816   5.402   4.136   8.242  0.0971 -0.4320 -0.1612
 6394TIP3    H140817   5.352   4.072   8.192  0.9175  0.4476 -2.2350
 6394TIP3    H240818   5.398   4.216   8.189  0.1878  0.8712  1.6929
 6395TIP3   OH240819   6.442   5.691   1.423 -0.6025 -0.8983 -0.1192
 6395TIP3    H140820   6.378   5.620   1.413 -0.5421 -0.8085 -1.3573
 6395TIP3    H240821   6.392   5.761   1.464 -0.9606 -1.2753  0.1062
 6396TIP3   OH240822   2.819   2.835   9.003 -0.0111  0.1621 -0.0048
 6396TIP3    H140823   2.778   2.750   9.021  0.1109  0.2376  0.6842
 6396TIP3    H240824   2.793   2.856   8.914 -2.1099  0.5453  0.6355
 6397TIP3   OH240825   4.351   0.374   7.117  0.3279  0.2098  0.4973
 6397TIP3    H140826   4.442   0.399   7.129  0.8962 -0.6799 -1.4297
 6397TIP3    H240827   4.347   0.283   7.146  0.0610  0.2567  0.6073
 6398TIP3   OH240828   3.394   4.624   3.204 -0.7487  0.0199  0.8423
 6398TIP3    H140829   3.385   4.681   3.281 -2.0868 -0.2030  0.8633
 6398TIP3    H240830   3.437   4.545   3.238 -1.0078  0.0684  1.2978
 6399TIP3   OH240831   4.577   0.420   0.110 -0.5580 -0.5083 -0.1822
 6399TIP3    H140832   4.627   0.477   0.052 -0.2148 -1.0265 -0.3972
 6399TIP3    H240833   4.542   0.480   0.176 -1.5057  0.1819 -1.2805
 6400TIP3   OH240834   5.060   1.777   2.609 -0.1728  0.4164  0.4511
 6400TIP3    H140835   5.102   1.796   2.693  1.2463 -0.7695  0.0488
 6400TIP3    H240836   5.016   1.693   2.623  0.5851 -0.0906 -0.1503
 6401TIP3   OH240837   4.461   4.424   0.748  0.1977  0.1213  0.1777
 6401TIP3    H140838   4.473   4.385   0.835  2.3537  0.4575  0.0975
 6401TIP3    H240839   4.379   4.387   0.716  0.3256 -1.5088  1.5803
 6402TIP3   OH240840   5.866   6.504   1.887  0.4970  0.2123 -0.1973
 6402TIP3    H140841   5.932   6.558   1.843  1.1241 -1.3743 -1.3361
 6402TIP3    H240842   5.913   6.424   1.911 -0.8090 -0.5971 -0.2230
 6403TIP3   OH240843   6.338   1.505   8.393 -0.3748 -0.4180 -0.4200
 6403TIP3    H140844   6.341   1.579   8.332 -0.6905  0.8889  1.0846
 6403TIP3    H240845   6.260   1.456   8.368  0.4967 -0.9827 -2.2132
 6404TIP3   OH240846   6.150   6.559   1.766 -0.1869  0.0475 -0.1601
 6404TIP3    H140847   6.227   6.588   1.717  0.0877 -1.6276 -0.7810
 6404TIP3    H240848   6.141   6.623   1.837  0.9257  1.0699 -0.9096
 6405TIP3   OH240849   1.588   6.593   2.518  0.0772 -0.2645 -0.6476
 6405TIP3    H140850   1.509   6.541   2.502  0.3130 -1.6806  2.1771
 6405TIP3    H240851   1.658   6.528   2.525  0.7162  0.5827  1.1230
 6406TIP3   OH240852   0.623   0.979   8.439 -0.4775 -0.1669 -0.4816
 6406TIP3    H140853   0.661   0.901   8.399 -1.6495 -1.8834  1.5071
 6406TIP3    H240854   0.528   0.967   8.430 -0.7627 -0.1852  1.8020
 6407TIP3   OH240855   2.766   2.471   1.162 -0.0733  0.0236 -0.0582
 6407TIP3    H140856   2.834   2.485   1.227 -1.3767  0.0283  1.3495
 6407TIP3    H240857   2.742   2.559   1.132  2.5846 -0.0141 -2.8977
 6408TIP3   OH240858   1.281   6.219   7.840  0.1486  0.3931 -0.3817
 6408TIP3    H140859   1.191   6.248   7.828 -0.4535  0.0737  2.5307
 6408TIP3    H240860   1.279   6.124   7.823 -0.0218  0.4285 -0.5514
 6409TIP3   OH240861   1.055   5.964   2.497 -0.7623  0.4506  0.2755
 6409TIP3    H140862   1.108   5.943   2.573  0.7192 -0.2606 -0.8899
 6409TIP3    H240863   1.105   6.032   2.451 -1.3044  0.4068 -0.4001
 6410TIP3   OH240864   5.321   5.078   0.826  1.0186 -0.0304  0.3702
 6410TIP3    H140865   5.236   5.048   0.857  0.8821  0.4846  0.4907
 6410TIP3    H240866   5.316   5.173   0.828  1.4267  0.0041 -0.0943
 6411TIP3   OH240867   3.708   0.325   0.632  0.4058 -0.0665 -0.2262
 6411TIP3    H140868   3.623   0.346   0.671  0.1264  0.2767 -0.9959
 6411TIP3    H240869   3.730   0.402   0.579  0.5155 -0.7317 -1.1712
 6412TIP3   OH240870   1.247   2.954   8.889  0.1640 -0.0955 -0.2254
 6412TIP3    H140871   1.256   2.871   8.936 -0.5371  0.4021  0.8226
 6412TIP3    H240872   1.308   2.946   8.815  0.1016 -1.5384 -0.1564
 6413TIP3   OH240873   2.453   2.315   0.497  0.1227  0.3342 -1.3144
 6413TIP3    H140874   2.400   2.243   0.531  0.1870  0.4777 -0.9052
 6413TIP3    H240875   2.535   2.273   0.469  0.4887  0.3580 -0.3070
 6414TIP3   OH240876   3.945   2.604   1.913  0.0554 -0.4759 -0.3669
 6414TIP3    H140877   3.968   2.603   1.821 -0.7316  2.0309 -0.6772
 6414TIP3    H240878   4.029   2.605   1.959  0.5225  0.8714 -1.1854
 6415TIP3   OH240879   0.063   3.844   8.758 -0.4531 -0.1542  0.0756
 6415TIP3    H140880   0.109   3.927   8.768  1.3906 -1.1865  0.5318
 6415TIP3    H240881   0.126   3.778   8.787 -2.3041 -1.6318  0.9283
 6416TIP3   OH240882   2.112   0.283   2.193  0.1791  0.2657 -0.0854
 6416TIP3    H140883   2.092   0.375   2.213 -0.8427  0.3319 -1.2988
 6416TIP3    H240884   2.170   0.255   2.264 -0.8848  1.3499  1.2731
 6417TIP3   OH240885   1.023   4.227   1.410 -0.1937 -0.6440 -0.3250
 6417TIP3    H140886   1.070   4.258   1.486 -0.9773 -1.4654  0.5265
 6417TIP3    H240887   1.091   4.198   1.349  0.5029  1.3689 -0.5904
 6418TIP3   OH240888   1.173   1.908   2.542  0.6085  0.5928  0.0091
 6418TIP3    H140889   1.129   1.980   2.587  0.1708  1.4480 -1.6801
 6418TIP3    H240890   1.259   1.902   2.583  0.2654  1.3837  0.8761
 6419TIP3   OH240891   3.284   1.959   8.071  0.2591 -0.3535 -0.2439
 6419TIP3    H140892   3.229   2.000   8.137 -0.1124  0.0937 -0.8206
 6419TIP3    H240893   3.227   1.949   7.995  0.4510 -1.6193 -0.2333
 6420TIP3   OH240894   3.497   6.112   9.018 -0.0848  0.0478  0.8753
 6420TIP3    H140895   3.415   6.157   9.000  1.1143  1.2234 -2.4499
 6420TIP3    H240896   3.547   6.175   9.071 -0.3421  0.4634  0.6348
 6421TIP3   OH240897   1.296   3.717   7.286 -0.4374 -0.8207  0.1190
 6421TIP3    H140898   1.204   3.743   7.295  0.2299  1.4770  0.9242
 6421TIP3    H240899   1.307   3.647   7.350 -1.5082 -0.8091  0.3340
 6422TIP3   OH240900   2.940   0.472   8.934 -0.7803 -0.4329  0.4120
 6422TIP3    H140901   2.916   0.380   8.932  0.7145 -0.8564  1.0550
 6422TIP3    H240902   2.934   0.496   9.027  0.0517 -0.2206  0.4119
 6423TIP3   OH240903   0.819   2.923   0.218  0.6384 -0.0872  0.2492
 6423TIP3    H140904   0.762   2.983   0.266 -0.0190  0.1250 -0.7712
 6423TIP3    H240905   0.844   2.971   0.139 -1.4176 -1.7667 -1.5566
 6424TIP3   OH240906   1.343   3.123   1.083  0.0820 -0.3828 -0.1334
 6424TIP3    H140907   1.254   3.119   1.050 -0.1880  0.4552  0.4592
 6424TIP3    H240908   1.394   3.164   1.013  0.2681 -1.9723 -0.9673
 6425TIP3   OH240909   5.834   4.998   2.026  0.0925 -0.0162 -0.3423
 6425TIP3    H140910   5.773   5.062   1.988  0.9203  2.3496  1.9945
 6425TIP3    H240911   5.880   4.961   1.950 -1.8304  0.6390 -1.9233
 6426TIP3   OH240912   5.192   0.309   0.875 -0.3339  0.1473 -0.0829
 6426TIP3    H140913   5.285   0.286   0.876  0.0712  1.6915  0.1942
 6426TIP3    H240914   5.191   0.404   0.890 -2.0034  0.0160  0.7590
 6427TIP3   OH240915   1.844   0.014   8.095 -0.1330 -0.0105 -0.4749
 6427TIP3    H140916   1.833   0.027   8.000  1.0268 -2.1685 -0.9700
 6427TIP3    H240917   1.926  -0.035   8.103 -0.7538 -0.7930  1.5747
 6428TIP3   OH240918   5.116   4.137   8.478 -0.0813 -0.5271 -0.2846
 6428TIP3    H140919   5.067   4.190   8.415  1.3954  1.3453  0.0504
 6428TIP3    H240920   5.094   4.173   8.564  0.1998 -1.1082  0.0454
 6429TIP3   OH240921   3.324   5.833   8.401  0.3864  0.4066  0.0669
 6429TIP3    H140922   3.232   5.839   8.426  0.3807 -1.1254  0.5129
 6429TIP3    H240923   3.326   5.856   8.308 -0.3674  0.9165  0.1734
 6430TIP3   OH240924   2.362   0.586   8.164 -1.1571 -0.4734 -0.1889
 6430TIP3    H140925   2.316   0.593   8.080 -1.5668 -0.3035  0.0470
 6430TIP3    H240926   2.310   0.639   8.224  0.2558  1.1158 -0.2903
 6431TIP3   OH240927   6.456   0.789   1.322 -0.2996 -0.2076  0.5241
 6431TIP3    H140928   6.542   0.801   1.281 -0.6277 -0.5859 -0.2822
 6431TIP3    H240929   6.470   0.817   1.413  0.7580 -0.5570  0.4899
 6432TIP3   OH240930   4.604   3.205   2.822  0.0874 -0.3510 -0.1465
 6432TIP3    H140931   4.525   3.237   2.866 -0.3197 -0.1840 -0.9854
 6432TIP3    H240932   4.676   3.237   2.876 -0.3769  0.5011 -0.0236
 6433TIP3   OH240933   2.640   5.371   7.012 -0.0639 -1.0622 -0.2253
 6433TIP3    H140934   2.628   5.277   7.025 -2.3623 -0.7630  0.2971
 6433TIP3    H240935   2.657   5.380   6.918  0.2078 -1.9912 -0.2797
 6434TIP3   OH240936   4.366   1.790   9.176  0.7902  0.1276 -0.2741
 6434TIP3    H140937   4.325   1.874   9.153  1.1574 -0.1517 -2.1523
 6434TIP3    H240938   4.309   1.724   9.135  1.1070 -0.4717  0.2427
 6435TIP3   OH240939   3.135   5.268   1.836 -0.5896 -0.3928  0.0120
 6435TIP3    H140940   3.062   5.229   1.884 -1.0651 -0.0997 -0.4637
 6435TIP3    H240941   3.104   5.277   1.746 -0.3882  0.7871  0.0405
 6436TIP3   OH240942   2.739   2.585   9.096 -0.6332  0.3031 -0.1078
 6436TIP3    H140943   2.684   2.623   9.164  1.0832  0.4357  1.2522
 6436TIP3    H240944   2.749   2.493   9.121  2.1891  0.9131  1.4357
 6437TIP3   OH240945   4.902   2.069   7.623  0.0546 -0.5216  0.1720
 6437TIP3    H140946   4.820   2.114   7.601  0.0598 -1.0927 -1.0663
 6437TIP3    H240947   4.889   1.979   7.595  1.2391 -0.5438 -0.3652
 6438TIP3   OH240948   3.736   1.583   0.056  0.0301  0.4139 -0.8874
 6438TIP3    H140949   3.743   1.492   0.026 -1.1521  0.2079 -0.5653
 6438TIP3    H240950   3.826   1.615   0.052  0.2248 -0.2019 -2.7471
 6439TIP3   OH240951   2.371   6.531   3.299  0.2194 -0.1519  0.1602
 6439TIP3    H140952   2.448   6.557   3.247  0.1076 -0.5178 -0.1965
 6439TIP3    H240953   2.363   6.437   3.284  0.4101 -0.3384  1.1556
 6440TIP3   OH240954   6.145   4.305   2.457 -0.3022 -0.2935 -0.1968
 6440TIP3    H140955   6.051   4.321   2.467 -0.5156 -0.9234 -1.1358
 6440TIP3    H240956   6.168   4.251   2.533 -0.9821 -1.2651 -0.6593
 6441TIP3   OH240957   6.512   6.034   2.022 -0.3484  0.2118  0.2171
 6441TIP3    H140958   6.531   5.973   2.093 -1.0445  0.2240  0.4213
 6441TIP3    H240959   6.465   6.106   2.064 -2.3551 -0.5899 -0.5020
 6442TIP3   OH240960   4.721   5.368   2.491 -0.0495 -0.2069  0.4459
 6442TIP3    H140961   4.723   5.285   2.540 -0.9197 -0.6735 -0.2735
 6442TIP3    H240962   4.651   5.418   2.534  1.7458  0.9898  2.1284
 6443TIP3   OH240963   0.851   2.163   0.942  0.3131 -0.1131  0.7851
 6443TIP3    H140964   0.885   2.123   1.022  1.6411 -0.3271  0.1483
 6443TIP3    H240965   0.805   2.093   0.897 -1.1272  0.2039  1.7074
 6444TIP3   OH240966   4.626   6.526   7.942 -0.1382 -0.7086 -0.1436
 6444TIP3    H140967   4.718   6.522   7.914 -0.2388 -0.8309 -0.4631
 6444TIP3    H240968   4.580   6.471   7.879 -0.4756 -0.3974 -0.1713
 6445TIP3   OH240969   2.132   2.111   8.488 -0.2283  0.1744 -0.7381
 6445TIP3    H140970   2.103   2.049   8.554  0.2935  0.5709 -0.1248
 6445TIP3    H240971   2.173   2.058   8.419  0.8048 -0.1286  0.0862
 6446TIP3   OH240972   4.764   0.275   8.620  0.0717 -0.1613 -0.4705
 6446TIP3    H140973   4.763   0.292   8.525 -0.0439  0.2730 -0.3935
 6446TIP3    H240974   4.740   0.183   8.628 -0.9026  0.0479 -0.8125
 6447TIP3   OH240975   6.381   4.990   1.692 -0.2560 -0.2574  0.4311
 6447TIP3    H140976   6.320   5.032   1.753  1.2936  2.2213  0.3949
 6447TIP3    H240977   6.450   4.955   1.748  0.0147  0.0103  0.2698
 6448TIP3   OH240978   0.462   4.150   1.319  0.8574  1.0421  0.2872
 6448TIP3    H140979   0.463   4.069   1.370  0.7503  0.7622 -0.1579
 6448TIP3    H240980   0.518   4.210   1.369  1.1632  0.6067  0.4708
 6449TIP3   OH240981   2.555   0.687   1.130 -0.1834  0.4176  0.2614
 6449TIP3    H140982   2.466   0.689   1.167 -0.9079 -2.0218 -1.0929
 6449TIP3    H240983   2.572   0.778   1.106 -1.8310  1.1563  1.6313
 6450TIP3   OH240984   6.500   5.762   7.582  0.2316  0.1968  0.5399
 6450TIP3    H140985   6.568   5.813   7.538  1.4656 -1.8198  0.0036
 6450TIP3    H240986   6.461   5.709   7.512  0.4606 -1.1797  1.4187
 6451TIP3   OH240987   1.555   5.267   7.778  0.0011 -0.5111 -0.1953
 6451TIP3    H140988   1.541   5.266   7.683 -1.0568 -0.9851 -0.0463
 6451TIP3    H240989   1.500   5.338   7.810  1.2741  0.4438 -0.0436
 6452TIP3   OH240990   4.756   3.329   0.415  0.0313  0.0008 -0.3276
 6452TIP3    H140991   4.729   3.421   0.420 -0.6404 -0.2121  0.0801
 6452TIP3    H240992   4.674   3.280   0.415  0.4133 -0.6758  1.1395
 6453TIP3   OH240993   5.647   4.230   7.742  0.4881 -0.5951 -0.1235
 6453TIP3    H140994   5.658   4.198   7.652  0.3789  0.8790 -0.6942
 6453TIP3    H240995   5.560   4.201   7.768 -0.6097  1.2556 -1.5294
 6454TIP3   OH240996   2.121   5.105   7.641  0.0938  0.0832  0.5526
 6454TIP3    H140997   2.131   5.014   7.613 -0.1992  0.4757 -0.9086
 6454TIP3    H240998   2.157   5.107   7.729 -1.8925 -1.9337  1.5220
 6455TIP3   OH240999   6.227   6.492   9.079 -0.5515  0.2628  0.2115
 6455TIP3    H141000   6.158   6.425   9.080 -0.4596  0.0227 -2.3043
 6455TIP3    H241001   6.271   6.483   9.163  0.1386 -3.6401 -0.3902
 6456TIP3   OH241002   0.363   6.390   8.096  0.1566  0.3667  0.2854
 6456TIP3    H141003   0.338   6.401   8.004  0.0087  1.4906  0.4483
 6456TIP3    H241004   0.457   6.375   8.094 -0.0402 -1.0118 -0.1304
 6457TIP3   OH241005   2.290   1.237   8.722 -0.4639  0.4137  0.1393
 6457TIP3    H141006   2.222   1.299   8.696 -0.1142  0.9478  0.5058
 6457TIP3    H241007   2.367   1.264   8.673 -0.5523 -0.3066 -0.4198
 6458TIP3   OH241008   4.989   6.474   2.012 -0.4613 -0.3415 -0.0902
 6458TIP3    H141009   4.902   6.509   2.034  0.0033  1.1501 -0.5234
 6458TIP3    H241010   5.020   6.530   1.942  1.2787 -0.2202  0.7288
 6459TIP3   OH241011   4.682   0.885   0.921  0.2455  0.4643  0.4207
 6459TIP3    H141012   4.767   0.860   0.883  0.6995  0.1427  1.5931
 6459TIP3    H241013   4.705   0.921   1.007 -0.8659 -0.4132  1.1075
 6460TIP3   OH241014   4.089   1.194   0.505  0.3301 -0.0642  0.1025
 6460TIP3    H141015   4.105   1.284   0.533 -0.8143 -0.0139  0.6588
 6460TIP3    H241016   4.016   1.164   0.561  0.5403 -1.2493 -0.2339
 6461TIP3   OH241017   2.971   3.541   3.212 -0.1725 -0.5575  0.0548
 6461TIP3    H141018   2.933   3.625   3.184  0.0827 -1.5959 -4.0591
 6461TIP3    H241019   3.055   3.565   3.250  0.3268  1.1052 -1.8990
 6462TIP3   OH241020   4.089   4.775   2.241  0.0557  0.4978 -1.0535
 6462TIP3    H141021   4.134   4.794   2.159  1.1713  1.4723 -0.2608
 6462TIP3    H241022   4.067   4.861   2.277 -1.5669  0.0657 -0.9161
 6463TIP3   OH241023   0.951   5.712   2.485 -0.2304  0.2560  0.6993
 6463TIP3    H141024   0.994   5.797   2.496  0.1049 -0.0178  1.5233
 6463TIP3    H241025   0.858   5.733   2.480 -0.1688  0.6438  1.1651
 6464TIP3   OH241026   3.079   5.418   7.825  0.0271 -0.0775  0.2262
 6464TIP3    H141027   3.056   5.350   7.889 -1.4107 -0.1580 -0.3237
 6464TIP3    H241028   3.174   5.419   7.824  0.1647 -2.9115 -0.5610
 6465TIP3   OH241029   5.209   0.500   7.538  0.1860 -0.8188  0.1400
 6465TIP3    H141030   5.285   0.527   7.488 -1.2649 -0.5286 -2.0182
 6465TIP3    H241031   5.199   0.568   7.605 -0.0729  1.0055 -1.6391
 6466TIP3   OH241032   5.164   6.229   0.713  0.0933  0.2913 -0.1460
 6466TIP3    H141033   5.170   6.134   0.699 -0.0431  0.5132 -1.9213
 6466TIP3    H241034   5.070   6.247   0.715  0.0998  0.5941 -1.5889
 6467TIP3   OH241035   3.557   0.679   0.109 -0.0620  0.0184  0.8153
 6467TIP3    H141036   3.503   0.734   0.052 -0.5283 -2.4758 -1.3361
 6467TIP3    H241037   3.502   0.661   0.185 -0.6161  0.9419  0.6425
 6468TIP3   OH241038   0.944   6.263   0.149  0.0340 -0.4800  0.4748
 6468TIP3    H141039   0.950   6.211   0.229  1.6581  1.5318  1.7861
 6468TIP3    H241040   0.856   6.300   0.150  0.0142 -0.5350  1.3056
 6469TIP3   OH241041   4.498   4.321   1.923 -0.8094 -0.5392 -0.3844
 6469TIP3    H141042   4.549   4.257   1.874  1.0060  0.0972  0.5540
 6469TIP3    H241043   4.520   4.405   1.882 -0.8571 -0.2213  0.2321
 6470TIP3   OH241044   5.285   1.770   0.336  0.6703  0.5242  0.1074
 6470TIP3    H141045   5.230   1.841   0.303 -1.7136 -1.3471 -0.1914
 6470TIP3    H241046   5.283   1.781   0.431 -1.2551 -0.1856  0.1807
 6471TIP3   OH241047   1.928   0.208   8.649 -0.3031 -0.4949 -0.1889
 6471TIP3    H141048   1.841   0.246   8.642  0.0318  0.2653 -0.3310
 6471TIP3    H241049   1.966   0.220   8.562  0.4184  0.3585  0.2395
 6472TIP3   OH241050   1.300   4.342   8.510 -0.0846 -0.2510 -0.2358
 6472TIP3    H141051   1.231   4.276   8.511 -1.1436  0.8079 -0.7721
 6472TIP3    H241052   1.269   4.410   8.570  1.6284 -0.8244  1.3939
 6473TIP3   OH241053   2.224   6.150   8.979 -0.4866  0.1297 -0.2528
 6473TIP3    H141054   2.297   6.109   9.026 -1.2696 -3.7139 -2.0165
 6473TIP3    H241055   2.158   6.167   9.047  0.7446  0.5488  0.8650
 6474TIP3   OH241056   1.200   2.190   0.745 -0.2063  0.5911 -0.3098
 6474TIP3    H141057   1.118   2.224   0.781 -0.8121  0.4705 -1.5134
 6474TIP3    H241058   1.228   2.257   0.682  0.8448  0.8164  0.3654
 6475TIP3   OH241059   1.008   5.521   8.478  0.3636  0.1576 -0.5232
 6475TIP3    H141060   0.944   5.552   8.415  0.5683  0.5123 -0.5588
 6475TIP3    H241061   1.074   5.589   8.481 -0.4037  0.8842  1.2165
 6476TIP3   OH241062   3.693   2.504   8.435 -0.1330 -0.7038 -0.1511
 6476TIP3    H141063   3.746   2.584   8.430  1.2429 -1.6459 -2.0525
 6476TIP3    H241064   3.604   2.534   8.452  0.6522  1.0832  1.0683
 6477TIP3   OH241065   4.339   5.578   0.096 -0.0277  0.3509  0.8243
 6477TIP3    H141066   4.425   5.556   0.132 -0.3238 -3.8016 -0.4699
 6477TIP3    H241067   4.359   5.634   0.021  1.5598 -0.2566  0.7402
 6478TIP3   OH241068   1.613   6.033   8.229 -0.2449 -0.1827 -0.1284
 6478TIP3    H141069   1.662   6.033   8.147  1.4172  0.6973  0.8158
 6478TIP3    H241070   1.522   6.043   8.202  0.3243  0.8017 -1.8471
 6479TIP3   OH241071   4.078   4.322   0.869  0.7067  0.3174  0.1450
 6479TIP3    H141072   4.164   4.285   0.846  0.8379  1.0788 -0.6289
 6479TIP3    H241073   4.040   4.258   0.929  2.6078  0.8824  2.0412
 6480TIP3   OH241074   1.494   4.203   8.643 -0.2739 -0.0911 -0.7545
 6480TIP3    H141075   1.469   4.295   8.635 -0.5605  0.1248  1.7430
 6480TIP3    H241076   1.512   4.175   8.554 -0.6224  2.2557 -1.6314
 6481TIP3   OH241077   2.337   4.179   8.506  0.7402  0.7620  0.1230
 6481TIP3    H141078   2.345   4.102   8.563  1.4292  1.2532  0.7279
 6481TIP3    H241079   2.383   4.154   8.426  3.3244  1.3869  1.2773
 6482TIP3   OH241080   3.639   0.773   1.985 -0.1650 -0.4618  0.0802
 6482TIP3    H141081   3.676   0.840   1.927  0.7436 -0.6115  0.4817
 6482TIP3    H241082   3.682   0.787   2.069 -0.8698 -0.7760  0.5040
 6483TIP3   OH241083   0.213   2.954   2.828  0.1459  0.3257  0.2649
 6483TIP3    H141084   0.308   2.957   2.841  0.1899  0.7562 -0.1464
 6483TIP3    H241085   0.178   3.007   2.900  0.1513 -0.7076  1.0414
 6484TIP3   OH241086   1.217   1.388   1.807 -0.0262 -1.0747 -0.4728
 6484TIP3    H141087   1.151   1.430   1.752 -0.0399 -0.5537 -0.0704
 6484TIP3    H241088   1.199   1.421   1.895 -0.0934 -2.0065 -0.1230
 6485TIP3   OH241089   0.679   0.611   1.709 -0.2168 -0.0547  0.0223
 6485TIP3    H141090   0.744   0.651   1.767  0.7115  0.1012 -1.1003
 6485TIP3    H241091   0.656   0.529   1.753  1.0396 -0.3058  0.2767
 6486TIP3   OH241092   3.439   3.761   2.213  0.5290  0.0601  0.2938
 6486TIP3    H141093   3.344   3.765   2.226  0.1877  0.5722 -1.9810
 6486TIP3    H241094   3.460   3.668   2.219  0.0582  0.0226  1.7069
 6487TIP3   OH241095   2.125   0.435   0.786  0.0187 -0.1313  0.0244
 6487TIP3    H141096   2.221   0.435   0.782  0.1266 -0.5986  1.7440
 6487TIP3    H241097   2.105   0.477   0.870 -1.3664  1.7056 -1.1467
 6488TIP3   OH241098   3.189   1.429   1.234 -0.6666  0.3853 -0.2884
 6488TIP3    H141099   3.281   1.403   1.246 -0.7046 -0.9288 -2.3400
 6488TIP3    H241100   3.163   1.388   1.152 -3.1316  0.7043  0.2531
 6489TIP3   OH241101   5.147   5.004   1.878  0.7993 -0.1717 -0.0003
 6489TIP3    H141102   5.058   5.006   1.843  0.5252  1.4704  0.6825
 6489TIP3    H241103   5.196   5.066   1.823  1.5162 -0.9646 -0.2917
 6490TIP3   OH241104   2.975   1.298   1.652  0.1848 -0.2787  0.4923
 6490TIP3    H141105   3.011   1.262   1.571 -0.4677 -0.4307  0.2620
 6490TIP3    H241106   2.893   1.339   1.625  1.2669  2.0774  0.6075
 6491TIP3   OH241107   0.195   5.382   1.722  0.2319  0.2361 -0.2350
 6491TIP3    H141108   0.289   5.380   1.738  0.0347  0.2354  1.0126
 6491TIP3    H241109   0.177   5.301   1.675  0.2822 -1.9156  3.1466
 6492TIP3   OH241110   2.704   0.133   3.108  0.5855 -0.8763 -0.5800
 6492TIP3    H141111   2.727   0.198   3.175 -1.2143 -1.2810  0.4983
 6492TIP3    H241112   2.754   0.160   3.031 -1.9105  3.3713 -1.0438
 6493TIP3   OH241113   0.965   0.038   9.000  0.1331 -0.1873  0.0290
 6493TIP3    H141114   1.030   0.106   8.980 -0.3325 -0.3866 -2.4158
 6493TIP3    H241115   1.010  -0.044   8.981 -0.2658 -0.4270  0.1226
 6494TIP3   OH241116   6.682   2.786   8.572  0.3453 -0.2182 -0.7555
 6494TIP3    H141117   6.671   2.706   8.520 -0.6368 -2.0356  1.9782
 6494TIP3    H241118   6.774   2.808   8.563  0.5805 -1.5198 -1.8169
 6495TIP3   OH241119   6.516   2.443   1.489 -0.6173 -0.0278  0.1494
 6495TIP3    H141120   6.568   2.382   1.542 -1.0000 -0.4458  0.0507
 6495TIP3    H241121   6.481   2.506   1.553 -0.9676 -0.4520  0.3848
 6496TIP3   OH241122   2.345   4.253   0.131 -0.0548  0.2338 -0.4799
 6496TIP3    H141123   2.312   4.343   0.133 -1.2046 -0.1078 -2.0452
 6496TIP3    H241124   2.277   4.201   0.173  0.5344  0.0535  0.2748
 6497TIP3   OH241125   5.647   5.339   2.404  0.3138 -0.4376  0.4900
 6497TIP3    H141126   5.727   5.304   2.364  0.1698 -0.1206 -0.0958
 6497TIP3    H241127   5.677   5.384   2.483  0.5320 -1.6566  1.1239
 6498TIP3   OH241128   5.884   2.439   3.375 -0.0886  0.0709 -0.2505
 6498TIP3    H141129   5.854   2.402   3.458  1.2646  0.1490  0.3038
 6498TIP3    H241130   5.857   2.375   3.309  0.6532 -1.0468  0.4958
 6499TIP3   OH241131   6.181   2.602   1.077 -0.2410 -0.1098  0.5278
 6499TIP3    H141132   6.194   2.509   1.095 -2.9346 -0.5784  0.4850
 6499TIP3    H241133   6.152   2.639   1.160 -1.4244  0.1693  0.0134
 6500TIP3   OH241134   2.355   2.911   9.173  0.3410 -0.0290 -0.2005
 6500TIP3    H141135   2.377   2.831   9.221  1.2970 -1.1892 -2.4403
 6500TIP3    H241136   2.437   2.959   9.167 -0.2401  1.2275  1.1934
 6501TIP3   OH241137   2.333   5.379   8.192  0.1345 -0.1506  0.0131
 6501TIP3    H141138   2.270   5.313   8.163  0.0389 -0.7238  1.4483
 6501TIP3    H241139   2.398   5.382   8.122  1.0499 -3.0369  0.6076
 6502TIP3   OH241140   0.889   6.294   1.534 -0.3807  0.1374  0.0206
 6502TIP3    H141141   0.891   6.380   1.577  0.6007 -0.8351  2.0817
 6502TIP3    H241142   0.810   6.252   1.569 -0.0333 -0.3491  0.2422
 6503TIP3   OH241143   0.672   4.350   9.174  0.5229  0.2325 -0.0481
 6503TIP3    H141144   0.638   4.261   9.179 -0.8435  0.7365 -0.1692
 6503TIP3    H241145   0.764   4.342   9.201  0.7075 -1.3598 -1.0535
 6504TIP3   OH241146   1.070   0.492   2.135  0.5112 -0.0674 -0.6122
 6504TIP3    H141147   1.047   0.481   2.043 -2.5942  1.6532 -0.1695
 6504TIP3    H241148   0.994   0.535   2.174  2.0824  0.0985  2.5904
 6505TIP3   OH241149   6.499   4.881   8.815 -0.1825 -0.0251 -0.0509
 6505TIP3    H141150   6.443   4.865   8.890 -0.2147  3.5212  0.8563
 6505TIP3    H241151   6.525   4.972   8.823  2.5114 -0.4012 -2.6132
 6506TIP3   OH241152   4.417   3.442   0.336 -0.6033  0.4020  0.1203
 6506TIP3    H141153   4.451   3.484   0.415 -1.0114 -1.2201  1.2101
 6506TIP3    H241154   4.490   3.444   0.275 -0.4476  2.1605  0.3174
 6507TIP3   OH241155   0.094   1.610   0.641  0.5651  0.0756 -0.6008
 6507TIP3    H141156   0.186   1.586   0.632  0.1502 -1.5203 -1.0784
 6507TIP3    H241157   0.059   1.606   0.552  0.1397  1.1701 -0.4965
 6508TIP3   OH241158   0.990   1.723   8.088  0.0829  0.5473 -0.5802
 6508TIP3    H141159   1.047   1.755   8.158 -0.2803 -0.7532  0.3522
 6508TIP3    H241160   0.972   1.800   8.035  2.7056  1.0061 -0.9196
 6509TIP3   OH241161   2.627   0.257   1.115  0.7189  0.5042 -0.0651
 6509TIP3    H141162   2.690   0.302   1.171  0.5127  0.1650  0.4498
 6509TIP3    H241163   2.554   0.236   1.174  0.7484 -0.3636 -0.3212
 6510TIP3   OH241164   1.306   4.742   7.744  0.1579 -0.3286  0.1915
 6510TIP3    H141165   1.224   4.703   7.712 -0.1725 -1.5317  2.3085
 6510TIP3    H241166   1.369   4.670   7.741  0.2596 -0.3249  1.5928
 6511TIP3   OH241167   5.265   3.824   0.136  0.2201 -0.2312  0.0080
 6511TIP3    H141168   5.344   3.871   0.164 -0.2079 -0.0599  0.9497
 6511TIP3    H241169   5.263   3.836   0.041  0.6393  0.8454  0.1167
 6512TIP3   OH241170   6.370   2.865   0.616  0.1432 -0.3058  0.7513
 6512TIP3    H141171   6.275   2.876   0.612  0.0429 -0.8422  1.4141
 6512TIP3    H241172   6.386   2.831   0.704  1.1106  1.4328  1.3104
 6513TIP3   OH241173   0.089   5.576   8.736 -0.7710 -0.6612  0.8689
 6513TIP3    H141174   0.165   5.565   8.679 -0.8545 -1.2584  0.8607
 6513TIP3    H241175   0.036   5.644   8.695 -1.6356 -2.1876 -0.6534
 6514TIP3   OH241176   2.392   5.716   0.831  0.5460 -0.1476 -0.1223
 6514TIP3    H141177   2.431   5.679   0.910  0.8101  0.8753  0.2445
 6514TIP3    H241178   2.346   5.794   0.861  2.0111  1.1883 -1.1866
 6515TIP3   OH241179   2.944   4.539   3.228  0.6415  0.0931 -0.5226
 6515TIP3    H141180   3.021   4.503   3.273 -0.6701 -1.5165  0.5226
 6515TIP3    H241181   2.887   4.570   3.298  0.8136  2.4481 -1.3259
 6516TIP3   OH241182   2.968   4.813   2.741  0.4529 -0.0987  0.8657
 6516TIP3    H141183   2.937   4.731   2.703  0.3325  1.0303 -1.6136
 6516TIP3    H241184   2.895   4.842   2.796  0.2032 -1.2522  1.1741
 6517TIP3   OH241185   2.623   4.117   8.617 -0.2300  0.3605  0.6395
 6517TIP3    H141186   2.570   4.070   8.552  1.4319 -0.7650  0.0051
 6517TIP3    H241187   2.580   4.202   8.627 -1.1862  0.1305 -1.0795
 6518TIP3   OH241188   1.520   5.046   0.289  0.0152  0.4803 -0.2911
 6518TIP3    H141189   1.468   5.060   0.368  0.5600  0.6520  0.0397
 6518TIP3    H241190   1.455   5.032   0.220 -0.4853  1.3704 -0.0168
 6519TIP3   OH241191   4.263   4.993   7.224 -0.9305 -0.0764 -0.1985
 6519TIP3    H141192   4.278   5.079   7.184 -0.3093  0.1816  0.5581
 6519TIP3    H241193   4.236   4.937   7.152 -2.6052  1.0635 -0.5079
 6520TIP3   OH241194   6.077   5.750   2.392  0.3038  0.2338  0.0100
 6520TIP3    H141195   6.018   5.708   2.456  0.5877 -0.9496 -0.4839
 6520TIP3    H241196   6.057   5.843   2.400 -1.7999 -0.1318 -0.2763
 6521TIP3   OH241197   0.374   4.110   7.522  1.1534  0.3668  0.3175
 6521TIP3    H141198   0.365   4.205   7.530  1.2310  0.7764 -2.9863
 6521TIP3    H241199   0.308   4.074   7.581 -0.8980  2.5999 -0.4502
 6522TIP3   OH241200   3.085   5.683   1.668 -0.3907  0.2390  0.0225
 6522TIP3    H141201   3.024   5.714   1.601 -0.2883 -0.6721 -0.5046
 6522TIP3    H241202   3.045   5.603   1.701  0.4266 -0.2660 -0.2001
 6523TIP3   OH241203   4.126   5.196   7.909  1.2160 -0.4441 -0.5202
 6523TIP3    H141204   4.087   5.212   7.823 -3.2527  3.6712  1.7638
 6523TIP3    H241205   4.179   5.274   7.925  0.3138 -0.1166  1.1024
 6524TIP3   OH241206   4.507   2.748   1.268 -0.3869  0.3979  0.1297
 6524TIP3    H141207   4.468   2.819   1.217 -2.4957 -1.4548 -1.0373
 6524TIP3    H241208   4.571   2.708   1.209  0.7057  1.2207  0.7377
 6525TIP3   OH241209   0.842   1.279   1.031  0.0184  0.2732  0.0043
 6525TIP3    H141210   0.933   1.283   1.003  0.3613 -0.0952  1.0325
 6525TIP3    H241211   0.829   1.358   1.084  0.0407 -0.1732  0.6928
 6526TIP3   OH241212   1.704   3.332   9.157  0.0617 -0.3439 -0.1319
 6526TIP3    H141213   1.619   3.376   9.165  0.1716 -0.4744  2.6592
 6526TIP3    H241214   1.768   3.396   9.188  1.1279 -0.1031 -2.5792
 6527TIP3   OH241215   0.116   1.838   7.505  0.1582 -0.2707 -0.1593
 6527TIP3    H141216   0.121   1.895   7.429  1.1186  0.3585  0.3556
 6527TIP3    H241217   0.082   1.755   7.471  0.5584  0.0099 -1.2658
 6528TIP3   OH241218   4.209   2.001   9.109 -0.3178 -0.2750 -0.0990
 6528TIP3    H141219   4.260   2.065   9.059 -0.7471  0.9510  0.9807
 6528TIP3    H241220   4.137   2.051   9.146 -0.0949 -1.1650  1.6307
 6529TIP3   OH241221   6.303   0.333   0.777  0.4344  0.0182  0.1843
 6529TIP3    H141222   6.360   0.269   0.736 -0.5591 -0.8282  0.0609
 6529TIP3    H241223   6.358   0.410   0.793  2.1223 -1.4703  1.9380
 6530TIP3   OH241224   6.308   0.305   8.825 -0.3508  0.2724  0.1820
 6530TIP3    H141225   6.220   0.341   8.809 -0.6021 -0.3372  0.1878
 6530TIP3    H241226   6.310   0.222   8.778  0.4727  0.6081 -0.3919
 6531TIP3   OH241227   4.431   4.028   7.771 -0.1267  0.3171  0.2431
 6531TIP3    H141228   4.388   3.991   7.694  1.4823  0.1635 -0.6209
 6531TIP3    H241229   4.359   4.044   7.833 -1.1371 -2.4624 -0.0667
 6532TIP3   OH241230   2.222   6.544   1.402 -0.2691 -0.1164  0.3571
 6532TIP3    H141231   2.278   6.554   1.480  1.7030 -1.2559 -0.8196
 6532TIP3    H241232   2.237   6.624   1.352  0.0795 -0.2903  0.1827
 6533TIP3   OH241233   0.841   1.814   3.115  0.3896 -0.4445  0.2469
 6533TIP3    H141234   0.790   1.826   3.195  1.8009 -3.7103  1.7838
 6533TIP3    H241235   0.929   1.796   3.145  1.4534  0.2449 -2.1857
 6534TIP3   OH241236   3.314   3.957   2.425  0.0316 -0.5430  0.0576
 6534TIP3    H141237   3.349   3.870   2.446  0.8984 -0.2348 -0.0917
 6534TIP3    H241238   3.242   3.939   2.364 -0.8456 -1.2593  1.2657
 6535TIP3   OH241239   4.574   3.925   2.346  0.2413 -0.3494  0.1807
 6535TIP3    H141240   4.626   3.982   2.402  0.6612  0.4706 -1.0045
 6535TIP3    H241241   4.556   3.977   2.268 -2.6997 -0.4691  0.6702
 6536TIP3   OH241242   4.897   2.269   2.585  0.1833 -0.0541  0.8466
 6536TIP3    H141243   4.856   2.355   2.596  1.2698  0.5761  0.0966
 6536TIP3    H241244   4.907   2.259   2.490  3.9369  0.9070  0.9941
 6537TIP3   OH241245   2.040   0.731   3.265  0.0310 -0.2554 -0.1308
 6537TIP3    H141246   2.059   0.644   3.230  0.9449 -0.2311  0.2663
 6537TIP3    H241247   1.964   0.718   3.321 -1.3729 -0.3271 -1.9393
 6538TIP3   OH241248   4.763   6.474   3.074 -0.4759 -0.0244 -0.8771
 6538TIP3    H141249   4.776   6.536   3.146 -0.0985  0.3578 -1.2664
 6538TIP3    H241250   4.676   6.495   3.039 -1.8024 -1.9062  1.0791
 6539TIP3   OH241251   3.041   0.672   0.261 -0.2217  0.1629 -0.1008
 6539TIP3    H141252   2.980   0.665   0.187 -0.4555 -0.2701  0.1246
 6539TIP3    H241253   3.103   0.601   0.246 -2.3469 -2.3432  1.9812
 6540TIP3   OH241254   2.712   3.530   0.100  0.0156  0.2096 -0.5375
 6540TIP3    H141255   2.641   3.486   0.053 -0.4042 -0.2030  0.4577
 6540TIP3    H241256   2.679   3.618   0.117 -0.4727 -0.1316  0.3505
 6541TIP3   OH241257   4.304   4.178   0.851  0.0622 -0.0064  0.1758
 6541TIP3    H141258   4.253   4.099   0.835  0.4163 -0.0878 -0.5828
 6541TIP3    H241259   4.390   4.160   0.813  0.2069  0.6709  0.1639
 6542TIP3   OH241260   3.848   1.575   2.619  1.4393  0.1751 -0.0467
 6542TIP3    H141261   3.895   1.562   2.701  0.7580  0.3243  0.3664
 6542TIP3    H241262   3.764   1.531   2.632  1.9045 -1.1489 -1.2120
 6543TIP3   OH241263   2.762   1.166   7.611  0.3814 -0.0995  0.1647
 6543TIP3    H141264   2.703   1.210   7.672 -1.8690 -1.0547 -1.2070
 6543TIP3    H241265   2.777   1.231   7.542  1.5152  0.3568  0.8005
 6544TIP3   OH241266   3.876   2.962   0.952 -0.1943  0.6010 -0.3000
 6544TIP3    H141267   3.803   3.004   0.907  0.9276  2.5843 -0.3658
 6544TIP3    H241268   3.943   3.030   0.959  1.0943 -0.7232  1.0826
 6545TIP3   OH241269   3.898   6.186   1.903  0.5545  0.3110 -0.2353
 6545TIP3    H141270   3.834   6.179   1.832  1.9760 -1.3589 -1.4470
 6545TIP3    H241271   3.981   6.161   1.863  2.0284  2.4751  1.2547
 6546TIP3   OH241272   1.438   0.843   2.182 -0.3823 -0.2479  0.1367
 6546TIP3    H141273   1.522   0.864   2.141 -0.5919  1.0813  0.3214
 6546TIP3    H241274   1.379   0.824   2.110  0.2865 -2.1884  0.0369
 6547TIP3   OH241275   1.608   2.617   2.178 -0.1735 -0.1793 -0.1481
 6547TIP3    H141276   1.622   2.635   2.271 -0.7206 -1.8212  0.2889
 6547TIP3    H241277   1.539   2.679   2.152  0.4365  0.7421  0.3450
 6548TIP3   OH241278   0.639   4.317   8.825 -0.4752  0.6269  0.2745
 6548TIP3    H141279   0.628   4.388   8.888  1.4793  1.8634 -0.6806
 6548TIP3    H241280   0.730   4.288   8.836  0.1009  1.2270 -2.2473
 6549TIP3   OH241281   4.023   0.132   1.000 -0.0802 -0.8936  0.3211
 6549TIP3    H141282   4.062   0.049   0.973  1.2216 -0.4233  0.6407
 6549TIP3    H241283   3.978   0.165   0.922  1.3327 -0.8326 -0.5161
 6550TIP3   OH241284   4.557   2.713   2.858 -0.3142  0.4690 -0.1879
 6550TIP3    H141285   4.476   2.663   2.866 -0.1230  0.3260  1.0204
 6550TIP3    H241286   4.626   2.652   2.885  0.1599  0.6972 -0.8708
 6551TIP3   OH241287   0.713   3.971   3.025 -0.2885  0.2596  0.3706
 6551TIP3    H141288   0.787   3.990   3.083  0.3209 -1.3030  0.1667
 6551TIP3    H241289   0.724   4.032   2.952 -0.1238  1.1242  1.1028
 6552TIP3   OH241290   4.926   5.163   1.903  0.0806 -0.2934  0.0920
 6552TIP3    H141291   4.996   5.208   1.951  0.3139 -0.2413 -0.2896
 6552TIP3    H241292   4.854   5.158   1.965 -0.0182  0.7762  0.0812
 6553TIP3   OH241293   3.993   6.537   0.271 -0.5951  0.3524 -0.1193
 6553TIP3    H141294   3.947   6.471   0.219 -0.3535 -1.5850  1.9783
 6553TIP3    H241295   4.081   6.539   0.235 -0.2677 -1.3857  0.4869
 6554TIP3   OH241296   3.419   2.047   0.447  0.3126  0.8616 -0.2077
 6554TIP3    H141297   3.505   2.028   0.483 -1.2272 -0.6920  3.1355
 6554TIP3    H241298   3.401   1.975   0.388  1.6910  1.8343 -1.9103
 6555TIP3   OH241299   3.400   6.378   7.559 -0.5052 -0.4011 -0.2234
 6555TIP3    H141300   3.343   6.400   7.486  0.9857  0.3277 -1.2014
 6555TIP3    H241301   3.487   6.374   7.522  0.2320 -0.5554  1.4184
 6556TIP3   OH241302   6.227   2.815   2.808  0.1749 -0.6844 -0.3561
 6556TIP3    H141303   6.240   2.752   2.879 -0.0735  0.7878  1.0634
 6556TIP3    H241304   6.253   2.899   2.845 -0.2856  0.1996 -1.9146
 6557TIP3   OH241305   5.694   2.384   0.818  0.4452 -0.5648  0.5979
 6557TIP3    H141306   5.764   2.403   0.882  0.2984 -2.4169  1.3665
 6557TIP3    H241307   5.670   2.293   0.835  0.1516 -1.0188 -1.8997
 6558TIP3   OH241308   5.219   6.703   0.295  0.2940  0.1120 -0.4797
 6558TIP3    H141309   5.302   6.742   0.323  0.0681  0.3186 -0.0897
 6558TIP3    H241310   5.159   6.777   0.285 -0.0614 -0.1064  0.0017
 6559TIP3   OH241311   6.037   2.326   0.728 -0.4929 -0.0877  1.0431
 6559TIP3    H141312   5.948   2.358   0.738  0.3112  1.7604  2.9180
 6559TIP3    H241313   6.072   2.373   0.653 -0.8323 -0.2287  0.7946
 6560TIP3   OH241314   2.672   0.768   2.645 -0.0026 -0.0131 -0.1578
 6560TIP3    H141315   2.740   0.813   2.696 -0.8546 -0.0263  1.0083
 6560TIP3    H241316   2.639   0.699   2.703  0.4154 -1.3776 -1.4713
 6561TIP3   OH241317   1.587   5.280   8.556  0.6270  0.4148  0.1624
 6561TIP3    H141318   1.657   5.312   8.500  0.5957  1.0109  0.4561
 6561TIP3    H241319   1.516   5.258   8.496  0.5091  1.2626 -0.0199
 6562TIP3   OH241320   0.782   1.880   1.891 -0.0099  0.2184  0.4404
 6562TIP3    H141321   0.867   1.923   1.882  0.6679 -1.3462 -1.3825
 6562TIP3    H241322   0.794   1.818   1.963  0.9228 -1.0042 -0.7011
 6563TIP3   OH241323   4.589   3.861   8.498  0.4085  0.6152 -0.2365
 6563TIP3    H141324   4.663   3.888   8.552  1.9567 -0.1479 -1.8688
 6563TIP3    H241325   4.622   3.789   8.445 -0.4169  2.3330 -3.3837
 6564TIP3   OH241326   5.800   3.649   0.195 -0.0682 -0.0613  0.1118
 6564TIP3    H141327   5.718   3.659   0.147 -0.2039 -1.0929  0.1226
 6564TIP3    H241328   5.799   3.721   0.259 -0.9508 -0.0616  0.1031
 6565TIP3   OH241329   0.921   0.048   7.764  0.2392  0.2179  0.7293
 6565TIP3    H141330   0.937   0.045   7.669 -1.3087 -0.1431  0.4483
 6565TIP3    H241331   0.942  -0.040   7.795 -0.1523  0.0545  0.5440
 6566TIP3   OH241332   4.087   4.469   2.629 -0.5035  0.3726  0.6571
 6566TIP3    H141333   4.119   4.382   2.652 -1.1175 -0.0530 -0.0426
 6566TIP3    H241334   4.086   4.470   2.534  2.2338  2.1962  0.5440
 6567TIP3   OH241335   4.735   5.393   8.312 -0.6367 -0.3442 -1.4305
 6567TIP3    H141336   4.760   5.427   8.226 -0.1199  0.4908 -0.9659
 6567TIP3    H241337   4.817   5.359   8.349 -0.3567  1.4591 -0.3159
 6568TIP3   OH241338   5.613   0.270   8.476  0.1318  1.1477  0.4456
 6568TIP3    H141339   5.630   0.193   8.529  2.3535  1.4064  0.2171
 6568TIP3    H241340   5.555   0.324   8.530 -0.6477 -0.2095  1.0157
 6569TIP3   OH241341   1.371   5.550   3.182  0.3652 -0.6196  0.3939
 6569TIP3    H141342   1.299   5.503   3.224 -1.5196  1.2162 -0.6085
 6569TIP3    H241343   1.337   5.639   3.168  2.4609  0.0262 -1.0820
 6570TIP3   OH241344   5.497   2.888   8.407 -0.4661 -0.0698  0.1581
 6570TIP3    H141345   5.585   2.883   8.372 -0.5140 -0.4816  0.0903
 6570TIP3    H241346   5.497   2.827   8.481 -0.8206 -0.4240 -0.1297
 6571TIP3   OH241347   5.735   5.238   3.082  0.3661  0.0598  0.0739
 6571TIP3    H141348   5.665   5.295   3.048  1.2028  1.8544  1.2230
 6571TIP3    H241349   5.815   5.272   3.044  0.7532 -1.4194 -0.5142
 6572TIP3   OH241350   4.725   6.695   2.734  0.4544 -0.0420  0.7663
 6572TIP3    H141351   4.728   6.779   2.688  1.0748  0.7768  2.2484
 6572TIP3    H241352   4.816   6.664   2.730  0.4258 -0.1615  1.0714
 6573TIP3   OH241353   0.395   1.732   8.536  0.0496 -1.0910  0.0301
 6573TIP3    H141354   0.354   1.762   8.618  0.1931 -0.1076 -0.2431
 6573TIP3    H241355   0.416   1.640   8.552  1.7187 -0.4795  1.7832
 6574TIP3   OH241356   4.402   3.790   9.091 -0.3885  0.5383  0.4625
 6574TIP3    H141357   4.390   3.870   9.040  0.6378  0.4757  0.1021
 6574TIP3    H241358   4.403   3.820   9.182  0.3674  0.9863  0.3102
 6575TIP3   OH241359   1.646   5.428   0.239  0.1216  0.4180  0.5030
 6575TIP3    H141360   1.614   5.361   0.178 -1.2203  0.4555  1.1324
 6575TIP3    H241361   1.730   5.393   0.271 -0.3651 -0.7866  0.5301
 6576TIP3   OH241362   0.778   0.462   3.386 -0.2634 -0.0830 -0.0694
 6576TIP3    H141363   0.745   0.403   3.318 -2.8170 -0.3479  1.3026
 6576TIP3    H241364   0.727   0.542   3.375 -0.6986 -0.1204  1.4643
 6577TIP3   OH241365   3.061   2.959   0.331 -0.2758  0.2030  0.2447
 6577TIP3    H141366   3.011   2.917   0.401  1.1589  0.5107  1.4971
 6577TIP3    H241367   3.134   3.001   0.376  2.2343 -1.8237 -1.6168
 6578TIP3   OH241368   1.867   5.175   7.610 -0.1076  0.2596 -0.3681
 6578TIP3    H141369   1.957   5.145   7.617  0.1421  0.6606 -1.7276
 6578TIP3    H241370   1.817   5.111   7.661  1.0745  0.8033  1.5728
 6579TIP3   OH241371   5.846   2.599   8.118  0.1124  0.2477  0.7563
 6579TIP3    H141372   5.931   2.573   8.155 -0.0790  0.9430  1.7238
 6579TIP3    H241373   5.861   2.688   8.085  0.3444 -0.4305 -1.1205
 6580TIP3   OH241374   0.221   1.757   3.076  0.4042 -0.1130 -0.3411
 6580TIP3    H141375   0.255   1.733   3.162  0.5852  1.0021 -0.0849
 6580TIP3    H241376   0.231   1.852   3.072 -0.9758  0.0316 -0.9952
 6581TIP3   OH241377   6.549   3.721   0.912  0.2796  0.2026  0.5042
 6581TIP3    H141378   6.621   3.784   0.911 -0.7762  1.5026  1.7271
 6581TIP3    H241379   6.471   3.774   0.929 -0.7591 -1.3556  0.8287
 6582TIP3   OH241380   1.735   0.798   8.978 -0.0830  0.1243 -0.0131
 6582TIP3    H141381   1.819   0.762   9.006 -0.8291 -0.6695  1.2910
 6582TIP3    H241382   1.757   0.882   8.937  1.1628  1.1474  2.5249
 6583TIP3   OH241383   5.382   5.960   0.009 -0.3123  0.2930 -0.9675
 6583TIP3    H141384   5.437   5.972   0.087 -0.4846  1.8615 -1.0505
 6583TIP3    H241385   5.361   6.049  -0.019  0.2974 -0.2138 -3.2055
 6584TIP3   OH241386   3.823   0.361   8.896 -0.0963  0.0158  0.0341
 6584TIP3    H141387   3.765   0.375   8.822 -1.8610 -1.6680  0.9739
 6584TIP3    H241388   3.776   0.297   8.951  1.1541  1.0855  2.5343
 6585TIP3   OH241389   6.355   4.093   7.931 -0.9755 -0.1909  0.7554
 6585TIP3    H141390   6.351   4.038   8.010  0.9868 -0.2483  0.8661
 6585TIP3    H241391   6.410   4.043   7.870 -2.3966 -0.1032 -0.6568
 6586TIP3   OH241392   5.135   1.998   1.077 -0.3574  0.1443 -0.5179
 6586TIP3    H141393   5.073   1.983   1.148  1.0929  0.7088  0.9315
 6586TIP3    H241394   5.087   1.975   0.998 -2.0682 -0.3980  0.6247
 6587TIP3   OH241395   2.891   0.613   2.191  0.2237  0.0731 -0.6362
 6587TIP3    H141396   2.854   0.536   2.150 -0.1849 -1.2441  1.9903
 6587TIP3    H241397   2.845   0.620   2.275  0.5040  2.9813 -0.6232
 6588TIP3   OH241398   1.003   0.316   3.346 -0.0594  0.2276 -0.3234
 6588TIP3    H141399   0.967   0.250   3.287  1.6199 -0.3350 -0.7858
 6588TIP3    H241400   0.926   0.361   3.383 -1.1816 -0.7511 -1.3958
 6589TIP3   OH241401   2.624   5.466   1.320  0.1719  0.9460 -0.0259
 6589TIP3    H141402   2.716   5.442   1.311 -0.1751 -0.1391 -0.8259
 6589TIP3    H241403   2.612   5.479   1.414  0.9117  0.1518  0.1899
 6590TIP3   OH241404   6.575   6.505   7.774  0.0438  0.3131 -0.0197
 6590TIP3    H141405   6.573   6.420   7.730  0.0804  1.0567 -1.5003
 6590TIP3    H241406   6.497   6.550   7.743  1.2315  1.7058 -1.0959
 6591TIP3   OH241407   2.549   1.667   1.442  0.0081 -0.1840 -0.5460
 6591TIP3    H141408   2.639   1.691   1.463  0.4731 -0.7703 -1.7396
 6591TIP3    H241409   2.546   1.668   1.346 -0.9816 -1.0999 -0.5473
 6592TIP3   OH241410   1.866   1.301   2.405  0.2806 -0.4017  0.0635
 6592TIP3    H141411   1.783   1.276   2.446  0.0424 -0.0979 -0.2310
 6592TIP3    H241412   1.865   1.396   2.403  1.1595 -0.3441  1.1158
 6593TIP3   OH241413   1.103   5.871   0.399  0.5291  0.5777 -0.0416
 6593TIP3    H141414   1.102   5.817   0.319 -1.4102  0.7292 -0.1778
 6593TIP3    H241415   1.195   5.881   0.420  1.0086 -1.9247 -0.6106
 6594TIP3   OH241416   1.674   2.663   8.745 -0.2173 -0.0769 -0.2566
 6594TIP3    H141417   1.735   2.640   8.675 -1.4838 -1.1445 -1.0525
 6594TIP3    H241418   1.729   2.673   8.823  1.2296  1.2481 -1.3973
 6595TIP3   OH241419   1.429   5.251   2.383  0.1734  0.1337 -0.0944
 6595TIP3    H141420   1.407   5.166   2.344  0.6152  0.8627 -2.0319
 6595TIP3    H241421   1.359   5.266   2.448 -0.5055 -1.2036 -0.4795
 6596TIP3   OH241422   5.632   2.133   1.723  0.1629  0.5050  0.3176
 6596TIP3    H141423   5.565   2.065   1.734 -0.6176  1.4181  1.3972
 6596TIP3    H241424   5.586   2.206   1.684  0.6410  0.9600  0.5972
 6597TIP3   OH241425   4.808   1.969   2.281 -0.4449  0.0339  0.5376
 6597TIP3    H141426   4.854   2.050   2.305 -0.4517  0.0797  0.3973
 6597TIP3    H241427   4.719   1.982   2.316  0.4230 -1.3386  3.5742
 6598TIP3   OH241428   3.786   4.654   8.156  0.3342 -0.1901  0.1545
 6598TIP3    H141429   3.698   4.639   8.122  0.0438 -0.6466  1.0690
 6598TIP3    H241430   3.815   4.734   8.113 -1.3545  1.1634  1.4132
 6599TIP3   OH241431   3.199   6.359   2.182  0.0320  0.3057 -0.0992
 6599TIP3    H141432   3.247   6.396   2.107 -0.9792  1.4540 -0.2085
 6599TIP3    H241433   3.110   6.391   2.171 -0.4503 -0.6616  0.8579
 6600TIP3   OH241434   1.093   0.739   1.205 -0.3144  0.6320  0.0298
 6600TIP3    H141435   1.186   0.718   1.204 -0.1857  1.1833 -0.2554
 6600TIP3    H241436   1.049   0.655   1.194  0.1118  0.2204  1.3193
 6601TIP3   OH241437   6.255   2.810   3.306  0.6782  0.2152  0.3723
 6601TIP3    H141438   6.253   2.729   3.358 -0.7320 -1.7055 -2.3980
 6601TIP3    H241439   6.168   2.848   3.318  1.2354  1.2299  1.4180
 6602TIP3   OH241440   3.506   5.631   8.716  0.5217  0.6579  0.2536
 6602TIP3    H141441   3.476   5.721   8.704  1.0830  0.9900  1.2296
 6602TIP3    H241442   3.601   5.636   8.709  0.4696 -0.2601 -2.0413
 6603TIP3   OH241443   3.905   1.554   8.072  0.5004 -0.3629 -0.0081
 6603TIP3    H141444   3.860   1.553   7.987  0.0426  1.0147  0.1888
 6603TIP3    H241445   3.858   1.621   8.122  2.4168  0.7119  0.4168
 6604TIP3   OH241446   2.520   2.315   7.768 -0.4082 -0.1269 -0.1958
 6604TIP3    H141447   2.498   2.345   7.680  1.7847 -0.8397 -1.0493
 6604TIP3    H241448   2.541   2.395   7.816  0.3740  0.1178 -0.9278
 6605TIP3   OH241449   2.300   1.517   0.674 -0.0282  0.1936  0.3484
 6605TIP3    H141450   2.229   1.464   0.637  1.4199 -1.5057 -0.1090
 6605TIP3    H241451   2.357   1.454   0.717  1.8816  1.3468 -0.3861
 6606TIP3   OH241452   2.305   3.014   1.086  0.4173  0.3701 -0.1682
 6606TIP3    H141453   2.277   3.078   1.151  0.4021  1.7312 -1.4547
 6606TIP3    H241454   2.224   2.975   1.054  0.3785  0.1979  0.1404
 6607TIP3   OH241455   5.546   1.489   8.026 -0.4585  0.2994 -0.5059
 6607TIP3    H141456   5.583   1.511   7.940 -0.4110 -0.1260 -0.5957
 6607TIP3    H241457   5.607   1.529   8.089  0.1460 -0.3677 -0.6518
 6608TIP3   OH241458   1.942   4.470   1.477  0.1188  0.0445 -0.5122
 6608TIP3    H141459   1.992   4.422   1.542  1.0858  0.9600 -0.5575
 6608TIP3    H241460   1.981   4.446   1.393  0.0656  0.2734 -0.6042
 6609TIP3   OH241461   4.040   0.291   1.838 -0.0739 -0.5924  0.2140
 6609TIP3    H141462   3.952   0.305   1.875  0.1985 -0.0587  0.6793
 6609TIP3    H241463   4.035   0.205   1.797 -0.8366 -0.5432  0.1831
 6610TIP3   OH241464   0.763   6.569   1.939  0.1443 -0.0669  0.4040
 6610TIP3    H141465   0.754   6.503   1.870  1.7547  0.6654 -0.5602
 6610TIP3    H241466   0.715   6.532   2.014  0.5467 -2.0724 -0.2662
 6611TIP3   OH241467   5.276   4.581   2.362  0.8433 -0.0801 -0.3416
 6611TIP3    H141468   5.281   4.485   2.363  1.4573 -0.0789  1.6800
 6611TIP3    H241469   5.365   4.609   2.383  0.7811  0.9666 -1.3848
 6612TIP3   OH241470   0.073   1.904   7.775  0.5235 -0.2420 -0.3711
 6612TIP3    H141471   0.166   1.908   7.796  0.4926  0.5070 -0.3391
 6612TIP3    H241472   0.069   1.861   7.689  0.8816 -0.4458 -0.2863
 6613TIP3   OH241473   2.846   2.942   2.242 -0.0097 -0.4280  0.4042
 6613TIP3    H141474   2.825   2.858   2.283 -0.6164  0.7365  2.6572
 6613TIP3    H241475   2.762   2.986   2.233 -0.1288 -1.0756 -3.4904
 6614TIP3   OH241476   5.046   4.760   2.289  0.1971  0.0484 -0.4891
 6614TIP3    H141477   5.097   4.690   2.330 -0.0117  0.7407  1.0292
 6614TIP3    H241478   5.110   4.807   2.235  1.3582  1.1368  1.6786
 6615TIP3   OH241479   5.874   1.596   0.278 -0.2973 -0.1730 -0.1711
 6615TIP3    H141480   5.858   1.628   0.189  0.5312  0.3493 -0.1517
 6615TIP3    H241481   5.789   1.605   0.323 -0.6978 -0.3672 -0.8804
 6616TIP3   OH241482   5.151   1.234   8.373 -0.1633  0.4824 -0.1282
 6616TIP3    H141483   5.213   1.230   8.301  0.6635  1.8194  0.4790
 6616TIP3    H241484   5.188   1.176   8.440  0.6536  1.5489  0.3728
 6617TIP3   OH241485   3.489   4.151   7.533 -0.1012  0.0869 -0.5789
 6617TIP3    H141486   3.486   4.232   7.482 -0.5132 -0.5182 -1.5620
 6617TIP3    H241487   3.539   4.173   7.611  0.3481  1.1133 -1.1364
 6618TIP3   OH241488   1.093   5.548   0.890 -0.1820 -0.4883 -0.0684
 6618TIP3    H141489   1.102   5.618   0.954 -0.2841 -1.3269  0.8755
 6618TIP3    H241490   1.104   5.467   0.940  0.5851 -1.1467 -1.2430
 6619TIP3   OH241491   4.799   6.038   1.810 -0.1378  0.7508  0.3247
 6619TIP3    H141492   4.789   6.121   1.857  0.6218  1.4303 -0.6748
 6619TIP3    H241493   4.891   6.015   1.823  0.1413  1.0682 -1.0072
 6620TIP3   OH241494   2.808   4.676   1.678  0.5578  0.6372 -0.6440
 6620TIP3    H141495   2.790   4.736   1.606  0.9874  0.6319 -0.7602
 6620TIP3    H241496   2.833   4.594   1.635 -2.4221 -0.4556 -0.5400
 6621TIP3   OH241497   5.283   0.376   8.404 -0.1263 -0.4079 -0.0641
 6621TIP3    H141498   5.193   0.350   8.424 -0.9789  1.5446 -1.0457
 6621TIP3    H241499   5.324   0.389   8.490 -1.2205  0.0240  0.4079
 6622TIP3   OH241500   0.682   4.876   0.342 -0.3954  0.0643  0.6028
 6622TIP3    H141501   0.711   4.865   0.252  2.8761 -1.5326  1.6695
 6622TIP3    H241502   0.708   4.965   0.365  1.0794 -0.3489  0.6393
 6623TIP3   OH241503   1.766   1.032   8.748 -0.4638  0.1904  0.0755
 6623TIP3    H141504   1.827   1.106   8.743  0.1429 -0.3055 -0.0037
 6623TIP3    H241505   1.681   1.069   8.724 -0.0834  0.7681 -0.4157
 6624TIP3   OH241506   3.785   3.000   0.385  0.3672  0.4412 -0.6931
 6624TIP3    H141507   3.862   3.014   0.441  1.2187  2.0006 -2.1682
 6624TIP3    H241508   3.731   2.939   0.435  1.3318  1.3158  1.5899
 6625TIP3   OH241509   5.678   3.593   2.860 -0.4617 -0.0444 -0.1202
 6625TIP3    H141510   5.715   3.674   2.826 -1.3876  0.6819  0.5468
 6625TIP3    H241511   5.750   3.530   2.857  0.1541  0.6833 -1.0371
 6626TIP3   OH241512   1.386   2.935   2.384  0.4545  0.2942 -0.8783
 6626TIP3    H141513   1.482   2.932   2.380  0.5189 -0.9725  0.6578
 6626TIP3    H241514   1.363   3.021   2.347  2.4204  2.2802  2.0544
 6627TIP3   OH241515   5.698   4.731   0.380  0.2468 -0.5236  0.1410
 6627TIP3    H141516   5.676   4.741   0.473 -0.1443  0.5362 -0.0481
 6627TIP3    H241517   5.784   4.689   0.380 -0.4848 -2.1026  0.9492
 6628TIP3   OH241518   2.929   5.024   0.486  0.0415  0.2756  0.1943
 6628TIP3    H141519   2.958   4.963   0.554  3.7084  0.3124 -1.1035
 6628TIP3    H241520   2.911   4.968   0.410  1.3806  0.5708 -0.3754
 6629TIP3   OH241521   3.671   3.850   1.006 -0.0546 -0.4318 -0.1752
 6629TIP3    H141522   3.715   3.910   0.946 -0.0862 -0.6523 -0.4186
 6629TIP3    H241523   3.742   3.816   1.061 -0.2965  1.4566  1.4147
 6630TIP3   OH241524   6.153   0.590   1.823 -0.4523 -0.0989  0.5505
 6630TIP3    H141525   6.059   0.604   1.828 -0.7071 -2.0221  2.5468
 6630TIP3    H241526   6.188   0.635   1.900  0.6775  2.7513 -1.4570
 6631TIP3   OH241527   0.698   4.973   1.186  0.2019  0.7653 -0.9589
 6631TIP3    H141528   0.673   4.895   1.136 -0.9573  1.5790 -1.6791
 6631TIP3    H241529   0.628   5.036   1.169  0.0987  1.3073  1.1786
 6632TIP3   OH241530   2.855   0.893   2.192 -0.6983 -0.3855  1.1765
 6632TIP3    H141531   2.904   0.841   2.257 -0.3216 -1.0646  0.3649
 6632TIP3    H241532   2.814   0.828   2.136  0.6731  0.1530 -0.5464
 6633TIP3   OH241533   4.692   3.761   7.038  0.0429 -0.4139 -0.2748
 6633TIP3    H141534   4.652   3.761   7.125  1.1191 -2.3469  0.2741
 6633TIP3    H241535   4.618   3.762   6.977 -0.7893 -1.5591  0.6791
 6634TIP3   OH241536   0.405   1.803   0.026 -0.0866 -0.0447 -0.0071
 6634TIP3    H141537   0.325   1.826   0.073 -0.1720 -2.4638  1.1814
 6634TIP3    H241538   0.396   1.848  -0.058 -3.6038 -1.6058 -0.6693
 6635TIP3   OH241539   2.561   1.819   0.601 -0.8855  0.3258  0.1802
 6635TIP3    H141540   2.619   1.778   0.536 -0.9899 -0.3097  0.4868
 6635TIP3    H241541   2.575   1.769   0.681 -1.4220  0.5441  0.4158
 6636TIP3   OH241542   2.634   5.842   8.890  0.0706  0.0581 -0.2176
 6636TIP3    H141543   2.697   5.786   8.844 -1.0747  0.5001 -2.4974
 6636TIP3    H241544   2.614   5.795   8.971  1.1154 -1.5177 -0.8307
 6637TIP3   OH241545   6.697   2.685   7.551  0.6383  0.2660  0.3030
 6637TIP3    H141546   6.613   2.640   7.564  1.9901 -2.4201  0.3700
 6637TIP3    H241547   6.679   2.776   7.575 -2.4646 -0.0042 -0.5611
 6638TIP3   OH241548   3.405   5.199   8.712 -0.0779  0.8520 -0.0446
 6638TIP3    H141549   3.463   5.247   8.652  0.9264  0.4008  0.5397
 6638TIP3    H241550   3.402   5.253   8.791 -0.0594  0.6274  0.1103
 6639TIP3   OH241551   2.060   2.879   9.206  0.3586  0.6398  0.4384
 6639TIP3    H141552   2.148   2.907   9.181  0.8663  0.9002  2.2954
 6639TIP3    H241553   2.055   2.787   9.180  0.4602  1.1030 -1.3529
 6640TIP3   OH241554   0.699   4.427   1.563 -0.6133 -0.4636 -0.1369
 6640TIP3    H141555   0.729   4.339   1.539 -0.7606 -0.5514 -0.0015
 6640TIP3    H241556   0.779   4.477   1.575 -0.5172  0.0882 -2.6081
 6641TIP3   OH241557   1.390   3.228   0.592  0.0078 -0.6449  0.4864
 6641TIP3    H141558   1.296   3.235   0.606 -0.0064  2.0710 -0.3110
 6641TIP3    H241559   1.400   3.210   0.499  0.2866 -1.9608  0.7586
 6642TIP3   OH241560   4.265   5.857   1.703 -0.5652  0.3202 -0.1722
 6642TIP3    H141561   4.252   5.781   1.760 -1.0390  1.3690  1.1648
 6642TIP3    H241562   4.329   5.827   1.638  1.2138 -0.4773  1.8247
 6643TIP3   OH241563   2.548   3.655   8.035 -0.7349 -0.3460 -0.0325
 6643TIP3    H141564   2.595   3.723   8.084 -0.1108 -1.4549  0.9718
 6643TIP3    H241565   2.608   3.632   7.964 -0.8976  0.0760 -0.3070
 6644TIP3   OH241566   4.470   5.542   8.946  0.0299 -0.5673 -0.4679
 6644TIP3    H141567   4.387   5.494   8.938 -0.2588 -0.1762  0.0523
 6644TIP3    H241568   4.528   5.501   8.883 -0.9390 -0.0551 -1.7512
 6645TIP3   OH241569   2.355   6.287   9.204 -0.7868 -0.8012  0.1817
 6645TIP3    H141570   2.395   6.203   9.227 -1.1842 -0.9097  0.4949
 6645TIP3    H241571   2.412   6.353   9.244  1.0348 -0.7735 -2.2849
 6646TIP3   OH241572   6.140   2.472   7.866  0.3532  0.8615  0.1587
 6646TIP3    H141573   6.077   2.502   7.800 -1.1180 -1.8376  0.1874
 6646TIP3    H241574   6.211   2.432   7.816 -0.6781 -1.0243  0.0901
 6647TIP3   OH241575   3.822   0.775   0.109  0.2456  0.4136 -0.5604
 6647TIP3    H141576   3.755   0.715   0.076  0.6637  0.0372 -0.7420
 6647TIP3    H241577   3.794   0.861   0.077 -1.1712  0.5668  0.9810
 6648TIP3   OH241578   5.746   4.449   2.180 -0.3265  0.2692  0.0745
 6648TIP3    H141579   5.660   4.466   2.218 -0.5715 -1.3543  0.3587
 6648TIP3    H241580   5.802   4.517   2.216 -1.1917  0.5048  1.0441
 6649TIP3   OH241581   6.428   3.520   1.615  0.5185 -0.4074 -0.2001
 6649TIP3    H141582   6.432   3.478   1.529 -0.9083  1.8415 -1.4526
 6649TIP3    H241583   6.515   3.556   1.629  0.3378  0.5404 -1.4381
 6650TIP3   OH241584   0.348   1.133   1.794 -0.0602  0.3174  0.8520
 6650TIP3    H141585   0.393   1.072   1.853  0.5713  0.8902  0.9754
 6650TIP3    H241586   0.259   1.099   1.787  0.8399 -1.9332 -0.8823
 6651TIP3   OH241587   0.082   2.206   1.060 -0.0829 -0.5327 -0.0943
 6651TIP3    H141588   0.014   2.154   1.016 -2.2678  0.2278  2.1529
 6651TIP3    H241589   0.092   2.164   1.146 -0.5442  1.6084  1.0671
 6652TIP3   OH241590   0.345   4.419   0.687  0.0662  0.4409  0.7726
 6652TIP3    H141591   0.317   4.374   0.766 -0.3265  0.5017  0.6743
 6652TIP3    H241592   0.439   4.402   0.680 -0.2616 -1.3130  0.1332
 6653TIP3   OH241593   6.019   0.144   2.830  0.5501 -0.2014 -0.5997
 6653TIP3    H141594   6.080   0.180   2.895 -0.6624  0.6188  0.1247
 6653TIP3    H241595   6.069   0.142   2.749  1.4569  0.7115 -0.0900
 6654TIP3   OH241596   0.801   1.393   3.357 -0.0301  0.1840  0.4943
 6654TIP3    H141597   0.752   1.322   3.399 -0.0313 -1.2203 -1.6996
 6654TIP3    H241598   0.885   1.353   3.335 -0.1689  0.7235 -1.0981
 6655TIP3   OH241599   2.123   4.390   8.454 -0.4101  0.1935 -0.4286
 6655TIP3    H141600   2.194   4.339   8.493 -0.2326  0.0724 -0.9049
 6655TIP3    H241601   2.161   4.477   8.439 -0.4316  0.1981 -0.4591
 6656TIP3   OH241602   0.298   0.179   8.067 -0.6437 -0.2300 -0.2330
 6656TIP3    H141603   0.265   0.268   8.058 -0.2947 -0.0262  0.4524
 6656TIP3    H241604   0.276   0.137   7.984 -2.7218 -0.1517  0.2472
 6657TIP3   OH241605   3.813   4.083   2.121 -0.4378  0.6226 -0.0443
 6657TIP3    H141606   3.739   4.048   2.171  0.5139 -1.2378  0.1590
 6657TIP3    H241607   3.871   4.008   2.109 -0.1089  1.2399 -3.0610
 6658TIP3   OH241608   3.891   4.039   2.582 -0.3294  0.6062 -0.3890
 6658TIP3    H141609   3.946   4.079   2.514  0.2220  1.0329  0.3001
 6658TIP3    H241610   3.863   3.956   2.543 -1.5422  1.6466 -1.8755
 6659TIP3   OH241611   3.217   0.622   1.754  0.3455  0.4560 -0.4530
 6659TIP3    H141612   3.233   0.534   1.788 -0.5647 -0.1872 -1.5801
 6659TIP3    H241613   3.168   0.666   1.823 -0.8879 -0.5954 -0.6074
 6660TIP3   OH241614   5.469   2.804   8.047 -0.0268 -0.0888 -0.3858
 6660TIP3    H141615   5.544   2.837   7.998 -0.0752  0.7012  0.0641
 6660TIP3    H241616   5.490   2.823   8.138 -0.2468 -0.9346 -0.1441
 6661TIP3   OH241617   0.260   4.680   1.056  0.0446 -0.0588  0.0283
 6661TIP3    H141618   0.348   4.642   1.058  1.3213  2.7230  1.2404
 6661TIP3    H241619   0.216   4.645   1.133  0.1564 -1.1736 -0.3868
 6662TIP3   OH241620   2.807   4.982   0.865 -0.4674 -0.0868  0.5234
 6662TIP3    H141621   2.887   5.022   0.831 -0.9543  0.0006 -0.5603
 6662TIP3    H241622   2.828   4.889   0.871 -0.8675 -0.3527 -1.5949
 6663TIP3   OH241623   0.539   1.924   3.232 -0.2692  0.4996  0.6286
 6663TIP3    H141624   0.451   1.900   3.261  0.0650  0.2805  1.4830
 6663TIP3    H241625   0.596   1.903   3.306  0.6622 -0.3895 -0.2857
 6664TIP3   OH241626   5.615   0.860   1.398  0.5335  0.1241  0.1353
 6664TIP3    H141627   5.668   0.896   1.327  1.6047  1.4211  1.5152
 6664TIP3    H241628   5.676   0.851   1.471 -0.8714  0.4217  1.3926
 6665TIP3   OH241629   0.916   6.393   0.834 -0.4617 -0.3346 -0.0548
 6665TIP3    H141630   0.996   6.443   0.852 -1.4303  0.7728  1.3732
 6665TIP3    H241631   0.886   6.363   0.920 -1.1204 -1.5249 -0.6628
 6666TIP3   OH241632   0.868   3.600   9.041  0.2869 -0.1681 -0.7313
 6666TIP3    H141633   0.926   3.657   8.991 -0.0087  2.4514  1.6426
 6666TIP3    H241634   0.780   3.625   9.013  0.1596  0.4459  0.1735
 6667TIP3   OH241635   0.487   4.506   1.000 -0.1796  0.1555  0.1164
 6667TIP3    H141636   0.514   4.431   1.052 -0.5944 -1.3904 -1.7894
 6667TIP3    H241637   0.424   4.471   0.937 -1.8014  2.4544  0.3193
 6668TIP3   OH241638   6.351   1.874   2.785 -0.4099  0.2139 -0.9148
 6668TIP3    H141639   6.414   1.944   2.764 -0.8642  0.7251 -0.6053
 6668TIP3    H241640   6.268   1.920   2.798 -0.8984 -0.4907 -1.5500
 6669TIP3   OH241641   0.634   5.153   8.109  0.1155  0.2585 -0.3691
 6669TIP3    H141642   0.662   5.074   8.063  1.0188 -0.3079  1.0661
 6669TIP3    H241643   0.709   5.175   8.164 -0.3816  1.7457 -0.2613
 6670TIP3   OH241644   1.165   1.743   1.850 -0.3362 -0.1857 -0.1088
 6670TIP3    H141645   1.120   1.815   1.805  0.6801  1.6242  1.6505
 6670TIP3    H241646   1.258   1.766   1.846 -0.0721 -0.9014  1.2924
 6671TIP3   OH241647   0.454   2.707   0.103  0.1145  0.5276 -0.1510
 6671TIP3    H141648   0.487   2.635   0.157  0.2777  0.7453  0.0474
 6671TIP3    H241649   0.433   2.776   0.167 -0.0639  0.6435 -0.3351
 6672TIP3   OH241650   3.531   2.738   1.235  0.2249  0.2485 -0.5527
 6672TIP3    H141651   3.504   2.776   1.319  2.1857 -0.6461  0.5506
 6672TIP3    H241652   3.600   2.797   1.204  0.5450 -0.2510 -0.7871
 6673TIP3   OH241653   1.495   4.907   0.004 -1.1216 -0.8854  0.4066
 6673TIP3    H141654   1.573   4.961  -0.002 -1.1262 -1.0275 -1.2091
 6673TIP3    H241655   1.527   4.818   0.016 -1.0948 -0.7485  1.5168
 6674TIP3   OH241656   5.481   0.673   8.718 -0.2022  0.3193 -0.0436
 6674TIP3    H141657   5.434   0.741   8.670  0.6288  1.5779  0.8536
 6674TIP3    H241658   5.483   0.705   8.808 -0.6467 -1.3901  0.5973
 6675TIP3   OH241659   0.758   6.625   1.444  0.5553 -0.1147 -0.2879
 6675TIP3    H141660   0.741   6.708   1.398 -0.0960 -0.8737 -1.4610
 6675TIP3    H241661   0.784   6.652   1.532  3.8111  1.4895 -1.5936
 6676TIP3   OH241662   0.063   2.963   0.640  0.5161  0.2796 -0.1763
 6676TIP3    H141663   0.005   2.968   0.716  2.6853  0.1349  1.5847
 6676TIP3    H241664   0.137   3.018   0.663  1.2476  0.2382 -2.2336
 6677TIP3   OH241665   2.979   2.866   0.684  0.1893 -0.4035  0.4398
 6677TIP3    H141666   2.951   2.779   0.712 -0.0855 -1.4105 -2.5348
 6677TIP3    H241667   2.920   2.887   0.611  2.1400  0.9235 -0.8441
 6678TIP3   OH241668   5.752   3.026   2.542 -0.2199 -0.2086 -0.8984
 6678TIP3    H141669   5.802   3.069   2.473  0.6424 -1.0851 -0.8487
 6678TIP3    H241670   5.814   3.018   2.615 -0.3781 -1.4313 -0.8743
 6679TIP3   OH241671   6.487   6.212   1.243  0.0375 -0.1024  0.2762
 6679TIP3    H141672   6.526   6.130   1.276  0.8524 -0.1552 -0.7395
 6679TIP3    H241673   6.542   6.235   1.168 -0.0465  1.5107  0.6828
 6680TIP3   OH241674   0.665   0.260   1.597  0.9117  0.1481 -0.0682
 6680TIP3    H141675   0.664   0.166   1.613 -2.8491 -0.0405 -0.5612
 6680TIP3    H241676   0.702   0.298   1.677  0.9248 -1.6593  0.8269
 6681TIP3   OH241677   3.265   5.742   0.025  0.3792 -0.3507  0.2032
 6681TIP3    H141678   3.179   5.748  -0.017 -0.1324  0.4580  1.2929
 6681TIP3    H241679   3.324   5.713  -0.044 -0.7195 -0.6564 -0.6392
 6682TIP3   OH241680   0.345   5.996   2.171 -0.3784  0.4853 -0.1992
 6682TIP3    H141681   0.285   6.070   2.179 -0.0743  0.5556  2.2524
 6682TIP3    H241682   0.404   6.004   2.246  1.0910 -1.0153 -1.1085
 6683TIP3   OH241683   1.115   5.247   0.556  0.1101 -0.4403 -0.0148
 6683TIP3    H141684   1.184   5.313   0.561  0.6197 -0.9113 -0.6157
 6683TIP3    H241685   1.041   5.293   0.517  0.5314 -0.2637 -0.6338
 6684TIP3   OH241686   1.531   5.484   7.976 -0.1966  0.0983  0.2117
 6684TIP3    H141687   1.507   5.547   7.908 -0.4503  0.1481  0.3472
 6684TIP3    H241688   1.466   5.497   8.045  0.9237  1.0703  1.1172
 6685TIP3   OH241689   3.376   1.249   0.515  0.1051 -0.0382  0.2469
 6685TIP3    H141690   3.351   1.163   0.549  0.9764 -0.4631 -0.1591
 6685TIP3    H241691   3.324   1.311   0.566  1.3509 -0.6402  2.3806
 6686TIP3   OH241692   0.053   0.220   1.362  0.1163  0.0418  0.0723
 6686TIP3    H141693   0.111   0.215   1.286  1.1805  2.4979  0.6206
 6686TIP3    H241694   0.023   0.311   1.363 -0.5791 -0.1644  2.0690
 6687TIP3   OH241695   5.012   6.659   2.686 -0.3678  0.0408 -0.2839
 6687TIP3    H141696   5.042   6.624   2.602 -0.1396 -0.0999 -0.1450
 6687TIP3    H241697   5.026   6.753   2.679  0.6439 -0.0762 -0.0119
 6688TIP3   OH241698   2.028   5.426   9.205 -0.2367  0.0746 -0.3040
 6688TIP3    H141699   2.057   5.466   9.123  1.2796 -2.5840 -1.1830
 6688TIP3    H241700   1.961   5.363   9.178 -0.3065 -0.2488  0.6136
 6689TIP3   OH241701   0.541   1.099   2.707  0.2211 -0.1759 -0.2453
 6689TIP3    H141702   0.520   1.016   2.751 -0.7415  0.9280  1.4897
 6689TIP3    H241703   0.631   1.118   2.733  0.5215 -0.7480 -0.8213
 6690TIP3   OH241704   1.896   2.031   0.235  0.2029  0.0350  0.1909
 6690TIP3    H141705   1.811   2.040   0.194  0.6974 -0.1259 -0.9094
 6690TIP3    H241706   1.878   2.029   0.329 -1.0514 -0.5740 -0.0505
 6691TIP3   OH241707   0.113   2.215   8.868 -0.3528 -0.2044 -0.4368
 6691TIP3    H141708   0.110   2.127   8.831  0.1885 -0.7844  0.8215
 6691TIP3    H241709   0.021   2.242   8.873 -0.5957 -1.0407 -0.1072
 6692TIP3   OH241710   3.673   4.390   7.578  0.3028  0.0772  0.6072
 6692TIP3    H141711   3.620   4.416   7.503  0.2481  1.0044  0.9532
 6692TIP3    H241712   3.750   4.446   7.574  1.1772 -1.1099  0.2312
 6693TIP3   OH241713   3.130   2.798   0.902 -0.0730  0.0942 -0.0649
 6693TIP3    H141714   3.080   2.790   0.821 -1.1465  0.9145  0.4907
 6693TIP3    H241715   3.101   2.881   0.940 -0.0143 -0.5324  1.4363
 6694TIP3   OH241716   6.030   2.594   3.189 -0.0146 -0.0594  0.1509
 6694TIP3    H141717   6.026   2.508   3.147 -0.4904 -0.5750  1.2172
 6694TIP3    H241718   6.066   2.577   3.276 -1.6604  0.5587  1.0003
 6695TIP3   OH241719   0.497   3.166   0.271 -0.4051  0.3728 -0.1063
 6695TIP3    H141720   0.550   3.232   0.228 -2.3344  0.1987 -3.0217
 6695TIP3    H241721   0.415   3.210   0.292 -1.2274 -0.7087 -0.9092
 6696TIP3   OH241722   6.113   4.587   8.384  0.1655 -0.0352  0.6042
 6696TIP3    H141723   6.099   4.541   8.301  1.2973  2.0842 -0.8799
 6696TIP3    H241724   6.143   4.519   8.444 -1.7158 -1.8434 -0.3583
 6697TIP3   OH241725   1.370   0.732   7.534 -0.3728  0.0270  0.4509
 6697TIP3    H141726   1.351   0.700   7.446  1.6292  1.9537 -0.7774
 6697TIP3    H241727   1.465   0.736   7.539 -0.4192  3.1794  1.3912
 6698TIP3   OH241728   1.276   6.567   3.245 -0.3318  0.5405 -0.5224
 6698TIP3    H141729   1.323   6.648   3.221  2.2655 -1.1020 -1.3936
 6698TIP3    H241730   1.285   6.511   3.168 -1.4328 -0.8771  0.3438
 6699TIP3   OH241731   1.985   0.817   2.114  0.4629 -0.2802 -0.2933
 6699TIP3    H141732   2.033   0.735   2.124  1.3823 -0.1049 -2.6586
 6699TIP3    H241733   2.018   0.874   2.184  1.6030 -1.1288 -0.1242
 6700TIP3   OH241734   3.588   0.902   1.026 -0.5475 -0.4434  0.2540
 6700TIP3    H141735   3.518   0.967   1.024  0.3933  0.6214  0.8767
 6700TIP3    H241736   3.664   0.949   1.060  0.3770 -1.6700 -0.0303
 6701TIP3   OH241737   1.511   6.685   0.594  0.0478  0.4411 -0.5722
 6701TIP3    H141738   1.586   6.626   0.606  0.9875  1.5390 -0.9204
 6701TIP3    H241739   1.503   6.693   0.499 -0.5143  0.3267 -0.5332
 6702TIP3   OH241740   1.139   2.941   0.315  0.1956 -0.1522  0.0297
 6702TIP3    H141741   1.044   2.948   0.301  0.5041  1.2053 -1.6677
 6702TIP3    H241742   1.177   2.949   0.228  1.9085 -0.3961  0.7148
 6703TIP3   OH241743   5.320   0.026   8.009 -0.5800 -0.1577  0.0528
 6703TIP3    H141744   5.253  -0.006   8.070  0.0530  1.0334  1.4381
 6703TIP3    H241745   5.389  -0.040   8.012 -0.4158  0.0451  0.8935
 6704TIP3   OH241746   4.208   3.204   2.239 -0.1508 -0.8799 -0.2597
 6704TIP3    H141747   4.135   3.204   2.177 -0.9830 -0.9374  0.6912
 6704TIP3    H241748   4.187   3.134   2.301 -0.3401  0.4063  1.1976
 6705TIP3   OH241749   2.278   2.047   0.331 -0.5743 -0.3669  0.2603
 6705TIP3    H141750   2.358   2.085   0.368 -1.0376 -0.9877  2.0092
 6705TIP3    H241751   2.304   1.959   0.304 -0.0754  0.3040 -1.6173
 6706TIP3   OH241752   2.154   5.162   8.148  0.7116  0.0368 -0.3286
 6706TIP3    H141753   2.213   5.117   8.088 -0.0329 -1.1238 -0.2112
 6706TIP3    H241754   2.071   5.169   8.100  0.3107 -0.3016  0.2983
 6707TIP3   OH241755   1.615   2.752   1.367 -0.2860  0.5647 -0.2919
 6707TIP3    H141756   1.537   2.731   1.419  0.1884  2.6303  1.3790
 6707TIP3    H241757   1.678   2.683   1.390 -1.6750 -1.4396 -2.0617
 6708TIP3   OH241758   5.225   2.240   1.196  0.4535  0.3939  0.0330
 6708TIP3    H141759   5.276   2.275   1.122  0.7956 -0.1275  0.0167
 6708TIP3    H241760   5.214   2.147   1.176  0.9581  0.1441  0.8568
 6709TIP3   OH241761   1.524   4.820   8.390  0.1672  0.1531 -0.1202
 6709TIP3    H141762   1.451   4.800   8.448 -0.6987  1.3488 -0.7477
 6709TIP3    H241763   1.601   4.786   8.436 -0.7600 -1.1284  0.5608
 6710TIP3   OH241764   2.503   5.298   8.393  0.1997 -0.4304 -0.2864
 6710TIP3    H141765   2.430   5.316   8.334  0.0759 -0.2123 -0.0667
 6710TIP3    H241766   2.570   5.362   8.368  0.0836 -0.2274 -0.0784
 6711TIP3   OH241767   1.123   5.780   0.133 -0.1307  0.5753  0.7369
 6711TIP3    H141768   1.208   5.762   0.094 -1.1199  0.4518 -1.4962
 6711TIP3    H241769   1.089   5.856   0.085 -2.2078 -0.7296 -0.0143
 6712TIP3   OH241770   1.534   4.477   8.698 -0.1592 -0.0110 -0.3209
 6712TIP3    H141771   1.584   4.557   8.711  0.9261 -1.0541  3.1702
 6712TIP3    H241772   1.448   4.495   8.737  0.4079 -0.7377  1.3723
 6713TIP3   OH241773   5.199   6.697   0.813  0.1410 -0.4586 -0.8208
 6713TIP3    H141774   5.246   6.661   0.738 -1.2235 -1.6187 -1.1589
 6713TIP3    H241775   5.112   6.718   0.780  0.5520  2.2613 -0.3702
 6714TIP3   OH241776   0.559   1.351   0.662 -0.0193  0.0470 -0.4777
 6714TIP3    H141777   0.537   1.286   0.728 -4.0858  1.1706 -0.4842
 6714TIP3    H241778   0.536   1.310   0.579 -1.3893  0.9421 -0.5741
 6715TIP3   OH241779   3.512   1.395   3.078  0.2071  0.2981  0.5028
 6715TIP3    H141780   3.531   1.332   3.009  1.6864  0.5361  0.6640
 6715TIP3    H241781   3.483   1.342   3.152 -1.1406  0.0278 -0.1906
 6716TIP3   OH241782   6.007   5.578   8.568 -0.2189 -0.2832 -0.1122
 6716TIP3    H141783   6.094   5.604   8.598  0.3066  0.0644 -1.8165
 6716TIP3    H241784   6.023   5.519   8.494 -1.3832  1.3305 -1.7512
 6717TIP3   OH241785   2.710   6.683   0.417 -0.6338  0.3289 -0.2071
 6717TIP3    H141786   2.774   6.716   0.353  0.1601  1.3687  1.0702
 6717TIP3    H241787   2.693   6.758   0.475 -2.6043 -0.0945 -0.1703
 6718TIP3   OH241788   2.292   1.821   2.687  0.1962  0.1132  0.1707
 6718TIP3    H141789   2.279   1.847   2.778 -2.6272 -0.5794  0.0469
 6718TIP3    H241790   2.347   1.890   2.650  0.0632  1.2580  1.9808
 6719TIP3   OH241791   6.638   2.386   8.438  0.0458 -1.0031  0.4533
 6719TIP3    H141792   6.591   2.466   8.413  1.8762  0.8342  2.5273
 6719TIP3    H241793   6.570   2.330   8.476 -1.1311 -0.0793 -0.2131
 6720TIP3   OH241794   5.927   3.130   9.050 -0.1190 -0.0588 -0.7149
 6720TIP3    H141795   5.898   3.216   9.082  0.6416  0.4633 -1.4000
 6720TIP3    H241796   5.997   3.105   9.110 -0.0256  0.0156 -0.7927
 6721TIP3   OH241797   2.354   4.187   1.364  0.1102  0.3121  0.7752
 6721TIP3    H141798   2.428   4.245   1.345  1.1236 -1.5545 -1.4851
 6721TIP3    H241799   2.375   4.106   1.317 -2.3740 -1.0476  1.8505
 6722TIP3   OH241800   0.000   0.849   0.255  0.2702 -0.9495  0.7824
 6722TIP3    H141801   0.069   0.875   0.316  1.0835 -1.2678  0.0238
 6722TIP3    H241802  -0.065   0.806   0.309 -0.3883  1.2201  1.8555
 6723TIP3   OH241803   5.043   6.556   1.528  0.1759  0.0285  0.5649
 6723TIP3    H141804   5.024   6.572   1.435 -1.9804  1.1571  1.1444
 6723TIP3    H241805   5.131   6.517   1.528  0.3815  0.3390 -1.9091
 6724TIP3   OH241806   1.941   5.757   2.285  0.1634  0.3446  0.5029
 6724TIP3    H141807   1.930   5.688   2.220 -0.2141  0.2020  0.7148
 6724TIP3    H241808   1.852   5.781   2.310  0.2752 -1.1943  2.6297
 6725TIP3   OH241809   3.147   2.756   2.427 -0.1104  0.3666  0.1802
 6725TIP3    H141810   3.135   2.850   2.442  0.7827  0.3827  0.8589
 6725TIP3    H241811   3.227   2.751   2.374  1.2350 -0.1204  2.1771
 6726TIP3   OH241812   2.089   0.972   0.423 -0.6037  0.6481  0.5327
 6726TIP3    H141813   2.131   0.992   0.339  1.7097 -1.1901  1.1556
 6726TIP3    H241814   2.057   0.883   0.413 -2.3326  1.1942  0.9032
 6727TIP3   OH241815   1.137   4.675   1.507  0.2455  0.0086  0.8555
 6727TIP3    H141816   1.158   4.659   1.415 -0.7244 -1.3208  0.8198
 6727TIP3    H241817   1.210   4.636   1.556  0.1958 -0.3425  0.6566
 6728TIP3   OH241818   3.751   5.383   8.995 -0.1728 -0.1527 -0.3638
 6728TIP3    H141819   3.726   5.372   9.086 -0.1020 -1.0803 -0.4517
 6728TIP3    H241820   3.701   5.316   8.948 -0.8129  0.8107 -1.1203
 6729TIP3   OH241821   5.698   3.020   0.991 -0.0037  0.0678 -0.0143
 6729TIP3    H141822   5.747   3.010   1.073 -0.2757  0.9987  0.2842
 6729TIP3    H241823   5.728   3.104   0.956  0.8104 -0.7725 -1.3714
 6730TIP3   OH241824   4.963   5.482   1.434  0.2743  0.3161  0.5092
 6730TIP3    H141825   4.976   5.407   1.491 -1.0658 -0.9443 -0.7603
 6730TIP3    H241826   4.924   5.446   1.354  2.4055  1.9221 -1.4112
 6731TIP3   OH241827   3.722   4.621   0.687  0.0670  0.2335 -0.0414
 6731TIP3    H141828   3.634   4.636   0.722  1.1412  0.7472  2.7462
 6731TIP3    H241829   3.774   4.694   0.721  1.9912 -1.1260  0.0998
 6732TIP3   OH241830   4.165   5.247   2.423  0.2326  0.4935 -0.1016
 6732TIP3    H141831   4.134   5.157   2.410  1.6335 -0.2297  1.1836
 6732TIP3    H241832   4.086   5.301   2.418 -0.6438 -0.8067 -0.8238
 6733TIP3   OH241833   4.776   0.334   1.814 -0.5835  0.2677 -0.0152
 6733TIP3    H141834   4.835   0.395   1.859 -0.5759  0.5124 -0.3563
 6733TIP3    H241835   4.703   0.389   1.785 -0.1297  0.2855 -1.1437
 6734TIP3   OH241836   0.396   3.991   1.098 -0.0297 -0.3606 -0.0912
 6734TIP3    H141837   0.467   3.927   1.106 -0.7288 -1.1768 -0.2676
 6734TIP3    H241838   0.409   4.050   1.172 -0.0266 -1.3883  0.7564
 6735TIP3   OH241839   3.377   5.854   8.703  0.0478  0.1271  0.5620
 6735TIP3    H141840   3.414   5.943   8.706 -3.1046  1.5328  1.5678
 6735TIP3    H241841   3.339   5.848   8.616 -0.0740 -0.0983  0.6317
 6736TIP3   OH241842   2.307   2.757   2.262  0.2452 -0.2231 -0.2821
 6736TIP3    H141843   2.213   2.752   2.247  0.2054 -0.6037  0.0708
 6736TIP3    H241844   2.318   2.830   2.322 -0.1545 -2.0146  2.1267
 6737TIP3   OH241845   4.844   5.378   8.761 -0.1022  0.4323  0.2878
 6737TIP3    H141846   4.893   5.311   8.713 -1.4314  0.4438 -1.2032
 6737TIP3    H241847   4.850   5.456   8.705 -0.1153  1.0137  1.0836
 6738TIP3   OH241848   2.081   4.371   0.432  0.2726 -0.0749 -0.2967
 6738TIP3    H141849   2.058   4.449   0.483  2.7897  1.2650 -1.0518
 6738TIP3    H241850   2.003   4.352   0.381 -1.0217  0.8345  1.2520
 6739TIP3   OH241851   5.006   4.303   7.896  0.2552  0.4608  0.1079
 6739TIP3    H141852   4.973   4.213   7.893 -0.2909  0.6825 -2.0708
 6739TIP3    H241853   5.049   4.310   7.982 -0.6911 -1.4991  0.7983
 6740TIP3   OH241854   2.250   4.509   8.154  0.3995  0.0339 -0.0363
 6740TIP3    H141855   2.345   4.497   8.146  0.9110  2.2862  1.5053
 6740TIP3    H241856   2.222   4.535   8.066  1.4429  0.4656 -0.2665
 6741TIP3   OH241857   3.796   1.912   7.995  0.1848 -0.1954 -0.0562
 6741TIP3    H141858   3.795   1.846   8.065  0.6968 -1.8923 -1.5847
 6741TIP3    H241859   3.708   1.909   7.958 -0.7946  2.2406  1.7909
 6742TIP3   OH241860   6.120   6.617   1.333  0.4773  0.3569 -0.4899
 6742TIP3    H141861   6.140   6.680   1.402  2.2537 -1.1731  0.4568
 6742TIP3    H241862   6.202   6.572   1.316  0.0355  0.4608 -3.4321
 6743TIP3   OH241863   1.429   0.833   0.079 -0.2800  0.1516  0.2594
 6743TIP3    H141864   1.501   0.775   0.103  0.1722  0.6981  0.2274
 6743TIP3    H241865   1.371   0.778   0.026  1.2494  0.3102 -1.6814
 6744TIP3   OH241866   6.573   2.667   8.788  0.0476  0.0552 -0.5913
 6744TIP3    H141867   6.514   2.644   8.717  0.6849  0.7242 -1.3614
 6744TIP3    H241868   6.654   2.695   8.745  0.3214  0.8567  0.3693
 6745TIP3   OH241869   3.898   6.401   2.523 -0.2826 -0.3558  0.3628
 6745TIP3    H141870   3.947   6.480   2.500 -0.9386  0.9065  2.8883
 6745TIP3    H241871   3.900   6.348   2.444  1.0604  1.7293 -1.1267
 6746TIP3   OH241872   1.699   1.744   8.344 -0.8639 -0.1027  0.6437
 6746TIP3    H141873   1.754   1.691   8.402  1.1677  1.7553  0.5300
 6746TIP3    H241874   1.749   1.749   8.262 -0.0287  3.4094  1.2126
 6747TIP3   OH241875   0.370   4.671   0.071 -0.0006  0.3780  0.3926
 6747TIP3    H141876   0.276   4.673   0.055  0.2369  0.1149 -1.1946
 6747TIP3    H241877   0.381   4.717   0.154 -1.6597 -0.8883  1.3706
 6748TIP3   OH241878   6.629   2.085   1.396  0.2991  0.1536  0.6026
 6748TIP3    H141879   6.566   2.113   1.463  0.4325  2.8716 -0.3027
 6748TIP3    H241880   6.689   2.027   1.443 -1.8479 -1.2058  1.8717
 6749TIP3   OH241881   0.742   2.260   1.305  0.2849  0.6060 -0.4071
 6749TIP3    H141882   0.692   2.223   1.378 -0.0028 -0.2523 -1.0281
 6749TIP3    H241883   0.778   2.341   1.340  0.4293  0.0445  0.7940
 6750TIP3   OH241884   5.695   0.447   1.580  0.3484  0.4495 -0.1959
 6750TIP3    H141885   5.626   0.488   1.527  1.0765 -0.2342 -1.7345
 6750TIP3    H241886   5.660   0.448   1.669 -0.6199  2.3176 -0.5331
 6751TIP3   OH241887   2.698   6.673   2.752 -0.7192 -0.5187 -0.5339
 6751TIP3    H141888   2.645   6.610   2.802  0.3076 -0.4158  0.7272
 6751TIP3    H241889   2.763   6.705   2.814 -0.0704  0.4365 -1.6594
 6752TIP3   OH241890   1.889   2.777   0.385  0.5178  0.1199 -0.0710
 6752TIP3    H141891   1.806   2.744   0.351 -1.6321  2.4467  2.4862
 6752TIP3    H241892   1.932   2.700   0.422 -0.5423 -1.1057 -1.2587
 6753TIP3   OH241893   1.450   5.129   9.032  0.0593  0.1681 -0.2103
 6753TIP3    H141894   1.451   5.036   9.054  0.5970  0.2001 -0.0842
 6753TIP3    H241895   1.527   5.141   8.977  0.0315  0.5562 -0.1661
 6754TIP3   OH241896   0.068   2.734   8.104  0.3071 -0.8447 -0.0721
 6754TIP3    H141897   0.068   2.744   8.009 -0.1606 -0.3010 -0.0211
 6754TIP3    H241898   0.001   2.795   8.134  0.6696 -0.7911  0.6336
 6755TIP3   OH241899   5.894   5.694   7.786  0.4275  0.4742 -0.6336
 6755TIP3    H141900   5.818   5.640   7.808  2.1226 -1.5144  0.6512
 6755TIP3    H241901   5.856   5.777   7.757 -2.2690 -0.9810 -1.6419
 6756TIP3   OH241902   4.547   5.468   8.073 -0.0714  0.3757 -0.1145
 6756TIP3    H141903   4.491   5.464   8.150  0.7724 -1.8363  0.4691
 6756TIP3    H241904   4.511   5.402   8.013 -0.3750  1.6658 -1.3950
 6757TIP3   OH241905   0.605   4.128   0.965 -0.4425 -0.1393  0.0592
 6757TIP3    H141906   0.649   4.044   0.968  1.5245  0.8522  2.3402
 6757TIP3    H241907   0.512   4.107   0.968  0.0124 -2.2031  1.0735
 6758TIP3   OH241908   2.618   4.354   8.405 -0.3209 -0.0238 -0.2033
 6758TIP3    H141909   2.555   4.400   8.350  1.0583  1.5911 -0.5205
 6758TIP3    H241910   2.672   4.305   8.343 -0.4450 -0.3580 -0.0474
 6759TIP3   OH241911   0.229   6.051   1.821 -0.3487 -0.1359 -0.3604
 6759TIP3    H141912   0.222   6.028   1.914  1.0572  0.2270 -0.1459
 6759TIP3    H241913   0.191   5.975   1.775 -2.7643  0.4518  0.5091
 6760TIP3   OH241914   5.832   0.699   0.775  0.1711  0.1584 -0.4034
 6760TIP3    H141915   5.780   0.688   0.854  0.2096 -1.8315 -0.6015
 6760TIP3    H241916   5.880   0.780   0.788 -1.5982  1.1027  0.5633
 6761TIP3   OH241917   5.671   0.024   8.177 -0.1637  0.3327 -0.0873
 6761TIP3    H141918   5.731  -0.021   8.236  0.3364  2.7946  1.4321
 6761TIP3    H241919   5.728   0.062   8.110 -0.4160 -0.0232 -0.5090
 6762TIP3   OH241920   1.395   0.080   3.167  0.4891 -0.0092 -0.0324
 6762TIP3    H141921   1.468   0.069   3.105  1.9761  0.8418  1.4727
 6762TIP3    H241922   1.398   0.173   3.191 -0.5111 -0.1649  0.7607
 6763TIP3   OH241923   2.285   3.685   0.877  0.5011 -0.3723  0.0503
 6763TIP3    H141924   2.251   3.755   0.821  1.4608 -0.2831 -0.4393
 6763TIP3    H241925   2.366   3.720   0.913  1.0928 -1.2861 -0.3471
 6764TIP3   OH241926   5.151   2.430   8.770 -0.3969  0.4522  0.3783
 6764TIP3    H141927   5.100   2.487   8.713 -0.4086  0.5440  0.4794
 6764TIP3    H241928   5.138   2.466   8.858 -1.1328 -0.2440  0.5641
 6765TIP3   OH241929   4.257   2.057   7.613  0.1846 -0.6712  0.0016
 6765TIP3    H141930   4.237   1.963   7.614 -0.2172 -0.5884  0.2212
 6765TIP3    H241931   4.171   2.099   7.604  0.1486 -0.2723  1.8654
 6766TIP3   OH241932   3.676   5.467   2.822 -0.1142  0.2261  0.1744
 6766TIP3    H141933   3.743   5.399   2.816  0.3867  0.7764 -0.6322
 6766TIP3    H241934   3.714   5.542   2.777 -1.3003  0.5386 -0.3344
 6767TIP3   OH241935   1.840   2.275   7.808 -0.4862 -0.0606 -0.2567
 6767TIP3    H141936   1.885   2.288   7.725  0.1873  1.2948  0.2972
 6767TIP3    H241937   1.747   2.269   7.784 -0.3635  0.9548 -1.0565
 6768TIP3   OH241938   4.902   0.810   1.950 -0.1060 -0.0632 -0.2542
 6768TIP3    H141939   4.901   0.881   2.015 -1.0167 -0.1123 -0.2097
 6768TIP3    H241940   4.811   0.782   1.942 -0.2164  0.7264 -2.4332
 6769TIP3   OH241941   1.904   1.276   0.201 -0.0476 -0.0505 -0.0886
 6769TIP3    H141942   1.906   1.234   0.287  0.5994 -0.2910 -0.2151
 6769TIP3    H241943   1.996   1.295   0.182 -0.0915 -0.8299 -1.1344
 6770TIP3   OH241944   6.656   1.778   2.434  0.0106 -0.4598 -0.2564
 6770TIP3    H141945   6.561   1.766   2.427 -0.3061  0.6596  1.6158
 6770TIP3    H241946   6.677   1.843   2.367 -0.0996 -2.4140 -2.3250
 6771TIP3   OH241947   5.708   6.160   8.099  0.5179  0.8064  0.7148
 6771TIP3    H141948   5.721   6.154   8.004 -1.3760 -0.4986  0.4745
 6771TIP3    H241949   5.673   6.248   8.112 -3.7673 -0.4544 -0.5735
 6772TIP3   OH241950   5.293   1.720   9.115  0.0200  1.3121  0.3802
 6772TIP3    H141951   5.242   1.798   9.134 -0.7978  0.6071  1.1703
 6772TIP3    H241952   5.257   1.652   9.173  1.7187  0.7314  0.8325
 6773TIP3   OH241953   5.610   3.299   8.256  0.7330 -0.8672  0.1916
 6773TIP3    H141954   5.694   3.254   8.243  1.7714  0.7340  1.0711
 6773TIP3    H241955   5.611   3.370   8.192 -0.2511 -1.1988 -0.2127
 6774TIP3   OH241956   3.078   1.595   1.419 -0.3859  0.2687  0.0041
 6774TIP3    H141957   3.102   1.559   1.333 -0.2711 -0.7613  0.4517
 6774TIP3    H241958   3.129   1.544   1.482 -1.9507 -0.3834  0.8168
 6775TIP3   OH241959   1.614   5.985   9.154  0.2199 -0.1980  0.5208
 6775TIP3    H141960   1.563   5.950   9.081  1.3854 -1.3403  0.2022
 6775TIP3    H241961   1.573   6.069   9.175 -1.9292 -1.1947  0.4885
 6776TIP3   OH241962   1.591   0.783   8.271  0.3923 -0.3045 -0.6168
 6776TIP3    H141963   1.599   0.688   8.273  1.8898 -0.1859  0.8696
 6776TIP3    H241964   1.503   0.799   8.237 -0.2149 -2.2282 -0.0443
 6777TIP3   OH241965   4.385   2.926   2.803  0.2978  0.3585 -0.7841
 6777TIP3    H141966   4.426   2.998   2.756  1.6599  1.8334  2.3332
 6777TIP3    H241967   4.453   2.859   2.809 -0.0937 -0.1023 -1.4849
 6778TIP3   OH241968   2.753   4.808   2.439  0.7392 -0.1901  0.1918
 6778TIP3    H141969   2.659   4.811   2.455  0.7065 -0.4093  0.0488
 6778TIP3    H241970   2.761   4.793   2.345  0.9043 -1.2221  0.3591
 6779TIP3   OH241971   0.149   5.175   2.034  0.6114  0.0132  0.3655
 6779TIP3    H141972   0.065   5.178   1.987  1.7391  0.1923 -1.7949
 6779TIP3    H241973   0.126   5.147   2.122 -1.4909 -2.2222 -0.7473
 6780TIP3   OH241974   5.267   6.266   0.370  0.0930 -0.7150  0.5346
 6780TIP3    H141975   5.225   6.246   0.286 -1.7921 -0.6128  1.3893
 6780TIP3    H241976   5.281   6.180   0.410 -0.3569 -0.7065  0.7175
 6781TIP3   OH241977   6.076   4.662   1.776  0.3149  0.1738 -0.4601
 6781TIP3    H141978   6.093   4.648   1.683 -2.1582 -0.4151 -0.8917
 6781TIP3    H241979   6.052   4.575   1.809 -0.6166  0.6977  0.2814
 6782TIP3   OH241980   3.528   3.550   1.316  0.6833 -0.1282 -0.2744
 6782TIP3    H141981   3.470   3.513   1.250  0.0519 -2.0115  1.2833
 6782TIP3    H241982   3.615   3.543   1.277  0.2796 -0.7950 -1.0846
 6783TIP3   OH241983   5.093   4.357   0.718 -0.3760 -0.4892  0.0702
 6783TIP3    H141984   5.132   4.441   0.742 -0.1081 -0.8650  1.0444
 6783TIP3    H241985   5.002   4.377   0.698 -0.7966 -0.1903  2.0541
 6784TIP3   OH241986   4.153   4.828   8.306 -0.1613  0.1102  0.4713
 6784TIP3    H141987   4.208   4.787   8.239 -0.3772  1.1835 -0.3906
 6784TIP3    H241988   4.182   4.919   8.308 -1.5818  0.5875  0.3366
 6785TIP3   OH241989   3.705   1.431   7.203 -0.2357 -0.2724  0.4407
 6785TIP3    H141990   3.716   1.338   7.188  1.5234 -0.1564  0.8454
 6785TIP3    H241991   3.736   1.473   7.123 -2.3885 -0.0185 -0.3497
 6786TIP3   OH241992   0.343   6.479   3.279 -0.4793 -0.0563  0.1289
 6786TIP3    H141993   0.369   6.571   3.274 -0.1114 -0.1682 -0.0136
 6786TIP3    H241994   0.391   6.443   3.353  1.2248 -0.7213 -1.2414
 6787TIP3   OH241995   2.157   1.573   2.186  0.4376  0.4620  0.1053
 6787TIP3    H141996   2.165   1.481   2.162 -1.1214  1.0333 -3.0822
 6787TIP3    H241997   2.065   1.595   2.171  1.0220  2.8231 -0.4841
 6788TIP3   OH241998   4.891   4.655   0.791  0.0628  0.6100 -0.1922
 6788TIP3    H141999   4.872   4.720   0.723  0.3381  0.2222 -0.6482
 6788TIP3    H242000   4.824   4.669   0.858  0.5819  1.8773  0.0804
 6789TIP3   OH242001   5.249   3.838   7.022 -0.1385  0.1485  0.0744
 6789TIP3    H142002   5.300   3.838   6.941 -0.0293 -0.3371  0.1375
 6789TIP3    H242003   5.158   3.838   6.993 -0.1003 -0.1324 -0.0535
 6790TIP3   OH242004   5.809   3.065   8.591 -0.6878 -0.0453 -0.1314
 6790TIP3    H142005   5.783   2.973   8.586 -0.4790 -0.0836 -0.5304
 6790TIP3    H242006   5.881   3.074   8.529  0.7195 -0.0884  1.4395
 6791TIP3   OH242007   4.580   3.671   0.153 -0.6866 -0.4921 -0.3504
 6791TIP3    H142008   4.562   3.582   0.122 -0.9568  0.1109 -2.0483
 6791TIP3    H242009   4.494   3.714   0.152 -0.6663 -0.3615  1.0787
 6792TIP3   OH242010   2.535   2.500   0.702 -0.4958  0.5891 -0.0974
 6792TIP3    H142011   2.450   2.531   0.732  0.1357 -0.1330  2.8256
 6792TIP3    H242012   2.517   2.419   0.655 -1.3963 -0.0514  1.2886
 6793TIP3   OH242013   4.071   2.492   8.926 -0.1142  0.3975  0.4046
 6793TIP3    H142014   4.154   2.502   8.880 -0.3314  1.5448  0.2462
 6793TIP3    H242015   4.037   2.581   8.935 -0.9707  0.0112  1.1314
 6794TIP3   OH242016   0.358   0.904   2.574 -0.0062 -0.6600  0.0498
 6794TIP3    H142017   0.368   0.998   2.586 -0.3848 -0.3955 -1.4247
 6794TIP3    H242018   0.321   0.872   2.656  1.0740  0.3089  0.9295
 6795TIP3   OH242019   2.601   3.135   3.152  0.1851  0.9651 -0.1798
 6795TIP3    H142020   2.565   3.046   3.160 -0.3809  1.2386  0.3789
 6795TIP3    H242021   2.678   3.135   3.209 -0.7796  1.3193  1.1581
 6796TIP3   OH242022   0.441   2.680   0.688  0.7949  0.4864 -0.1961
 6796TIP3    H142023   0.497   2.609   0.657 -0.0131 -0.2382 -0.0427
 6796TIP3    H242024   0.410   2.650   0.774 -1.5577 -0.1589 -1.1886
 6797TIP3   OH242025   4.527   2.418   1.024  0.0783  0.2154 -0.2497
 6797TIP3    H142026   4.609   2.444   1.068 -0.4055 -0.1733  0.9156
 6797TIP3    H242027   4.556   2.370   0.947  1.0136 -2.1997  1.4803
 6798TIP3   OH242028   2.597   5.435   1.617 -0.1211 -0.4530 -0.6746
 6798TIP3    H142029   2.573   5.462   1.706  0.3134 -1.1719 -0.3359
 6798TIP3    H242030   2.548   5.354   1.602  0.8142 -1.0509 -0.5884
 6799TIP3   OH242031   2.250   6.470   0.852  0.4412 -0.5876 -0.5992
 6799TIP3    H142032   2.328   6.518   0.881  0.2116 -0.4409 -0.2318
 6799TIP3    H242033   2.260   6.383   0.890  0.9047 -0.8681 -1.3428
 6800TIP3   OH242034   3.544   3.511   1.606 -0.3954 -0.3567 -0.3331
 6800TIP3    H142035   3.492   3.430   1.605  2.0076 -2.0248 -1.0245
 6800TIP3    H242036   3.540   3.543   1.516  1.0622 -1.4814 -0.8559
 6801TIP3   OH242037   5.055   2.640   8.919 -0.0694 -0.5085 -0.2511
 6801TIP3    H142038   5.106   2.703   8.970  0.5183 -1.0778 -0.1199
 6801TIP3    H242039   4.965   2.649   8.952 -0.1194  0.6920 -0.6721
 6802TIP3   OH242040   4.015   2.977   7.562  0.0180 -0.0160  0.5269
 6802TIP3    H142041   3.932   3.023   7.547  0.2605 -0.1071 -1.3470
 6802TIP3    H242042   3.993   2.907   7.624 -1.3471 -0.1429 -0.0734
 6803TIP3   OH242043   1.178   0.190   8.918  0.3998  0.4065 -0.3443
 6803TIP3    H142044   1.177   0.171   8.824 -0.5801 -0.2975 -0.2030
 6803TIP3    H242045   1.269   0.213   8.936  0.5913  0.5952 -1.4734
 6804TIP3   OH242046   1.055   2.531   1.702  0.3953  0.3333 -0.0153
 6804TIP3    H142047   1.126   2.522   1.766  0.3382 -0.6402 -0.0786
 6804TIP3    H242048   1.088   2.593   1.638  0.8887  0.4691  0.3663
 6805TIP3   OH242049   4.846   6.444   8.620  0.3877 -0.2088  0.0167
 6805TIP3    H142050   4.927   6.493   8.630 -0.4153  1.3428 -0.7871
 6805TIP3    H242051   4.810   6.438   8.709  1.3087 -0.8201  0.3586
 6806TIP3   OH242052   6.309   4.507   2.371 -0.1271 -0.5027 -0.1601
 6806TIP3    H142053   6.391   4.508   2.420  0.7554 -0.8307 -1.5698
 6806TIP3    H242054   6.275   4.419   2.381 -0.1158 -0.4740  0.1265
 6807TIP3   OH242055   1.483   1.118   8.669 -0.2322 -0.6350 -0.1420
 6807TIP3    H142056   1.468   1.204   8.630  0.0780 -0.2870  0.4872
 6807TIP3    H242057   1.476   1.132   8.763  2.2605 -0.7718  0.1290
 6808TIP3   OH242058   3.173   3.501   8.699 -0.0120  0.8964  0.5353
 6808TIP3    H142059   3.161   3.459   8.785  0.6531 -0.1355  0.1562
 6808TIP3    H242060   3.100   3.470   8.647  0.4537  0.2241  0.2687
 6809TIP3   OH242061   3.201   3.115   2.981  0.5079  0.1581  0.1920
 6809TIP3    H142062   3.214   3.074   3.066  1.7683 -2.9799 -1.3534
 6809TIP3    H242063   3.156   3.049   2.928  1.4104  1.2732 -2.1279
 6810TIP3   OH242064   4.763   3.289   9.090 -0.1838 -0.3440 -0.1613
 6810TIP3    H142065   4.790   3.199   9.073 -2.6350 -1.3060  0.6176
 6810TIP3    H242066   4.796   3.308   9.178 -0.8973 -1.0272  0.2633
 6811TIP3   OH242067   0.355   2.907   0.267 -0.0736 -0.0601 -0.5709
 6811TIP3    H142068   0.380   2.999   0.270  1.4565 -0.4702  0.4690
 6811TIP3    H242069   0.305   2.893   0.348 -1.8272  0.2093 -1.5423
 6812TIP3   OH242070   2.789   2.036   0.318  0.1373  0.1002 -0.5446
 6812TIP3    H142071   2.881   2.009   0.322 -0.1003 -0.7848 -0.8354
 6812TIP3    H242072   2.784   2.095   0.243  0.1178 -1.3279 -1.7180
 6813TIP3   OH242073   3.285   1.037   0.693  0.0350  0.5927  0.1694
 6813TIP3    H142074   3.202   1.067   0.658 -1.6806 -2.7490  0.9492
 6813TIP3    H242075   3.322   0.982   0.624 -0.3368 -1.0006  1.1744
 6814TIP3   OH242076   0.514   0.231   2.371 -0.3781 -0.4214  0.0622
 6814TIP3    H142077   0.513   0.327   2.366  0.9839 -0.3942 -0.1379
 6814TIP3    H242078   0.477   0.212   2.457  0.3337  0.3495  0.5643
 6815TIP3   OH242079   0.430   2.413   1.339  0.1666 -0.0701  0.0649
 6815TIP3    H142080   0.393   2.399   1.426 -0.2110  1.7734  0.2485
 6815TIP3    H242081   0.423   2.328   1.296 -1.1635 -0.6119  1.2601
 6816TIP3   OH242082   1.686   1.024   2.979 -0.0436 -0.6603  0.3235
 6816TIP3    H142083   1.721   1.065   3.059 -0.3110  0.7238 -0.2367
 6816TIP3    H242084   1.691   0.930   2.996  2.2521 -0.4808  0.9850
 6817TIP3   OH242085   2.076   4.929   1.766 -0.1691 -0.3259 -0.4597
 6817TIP3    H142086   2.098   4.836   1.766  0.3196 -0.2326 -1.6640
 6817TIP3    H242087   2.025   4.942   1.685 -1.3000  0.2285  0.3075
 6818TIP3   OH242088   2.401   3.045   0.748  0.0205  0.0867  0.3710
 6818TIP3    H142089   2.329   3.109   0.741  1.0331  1.2852  0.5175
 6818TIP3    H242090   2.382   2.980   0.681 -0.8580  0.7421 -0.0417
 6819TIP3   OH242091   1.080   6.135   2.835 -0.7237 -0.2670  0.0331
 6819TIP3    H142092   1.152   6.165   2.781 -0.3846 -3.4186 -1.5116
 6819TIP3    H242093   1.122   6.089   2.908 -1.2124  2.0482  1.8789
 6820TIP3   OH242094   1.143   0.617   0.132 -0.1391  0.5856  0.2077
 6820TIP3    H142095   1.216   0.608   0.071 -0.9122 -0.1528 -0.6392
 6820TIP3    H242096   1.099   0.698   0.105  0.3550  1.0458  0.7356
 6821TIP3   OH242097   6.185   4.865   2.756 -0.2069 -0.2726  0.0652
 6821TIP3    H142098   6.153   4.786   2.713  0.0623 -0.0774 -0.4958
 6821TIP3    H242099   6.276   4.845   2.778 -0.8736 -1.1467  2.4070
 6822TIP3   OH242100   5.677   3.801   2.062 -0.5767 -0.1033  0.1040
 6822TIP3    H142101   5.643   3.759   2.142 -0.2771  0.3370  0.4705
 6822TIP3    H242102   5.749   3.856   2.093  0.0577 -0.5311 -0.5806
 6823TIP3   OH242103   4.403   5.070   0.848 -0.5587 -0.2960  0.3842
 6823TIP3    H142104   4.445   4.988   0.821 -0.4600  0.5889 -2.4684
 6823TIP3    H242105   4.450   5.138   0.800 -0.2960  1.5534  3.0869
 6824TIP3   OH242106   5.341   3.830   2.682  0.1251 -0.5195  0.1137
 6824TIP3    H142107   5.324   3.923   2.669  0.9894 -0.5984 -1.8226
 6824TIP3    H242108   5.290   3.786   2.614  0.8256 -1.3701  0.1220
 6825TIP3   OH242109   3.059   5.022   8.597  0.4636 -0.6134 -0.4220
 6825TIP3    H142110   3.050   5.075   8.676  2.2183 -2.2102  0.9494
 6825TIP3    H242111   3.082   5.084   8.528 -0.9924  0.7969  0.2974
 6826TIP3   OH242112   0.092   3.873   8.080 -0.0451  0.7926 -0.2752
 6826TIP3    H142113   0.063   3.913   8.162  0.3388 -1.0233  0.7962
 6826TIP3    H242114   0.187   3.886   8.080 -0.0351  0.7177 -0.3928
 6827TIP3   OH242115   5.765   2.222   2.541 -0.2146 -0.5524 -0.1749
 6827TIP3    H142116   5.771   2.284   2.469 -1.8771  1.0341  0.9402
 6827TIP3    H242117   5.717   2.148   2.505  1.7638 -1.2544 -1.5218
 6828TIP3   OH242118   0.115   3.249   1.898  0.2796  0.5346  0.0119
 6828TIP3    H142119   0.180   3.319   1.905  0.7728 -0.0592  2.0603
 6828TIP3    H242120   0.161   3.178   1.852  0.8765  0.3868  0.8098
 6829TIP3   OH242121   1.070   5.547   2.022  0.7217  0.1271 -0.0678
 6829TIP3    H142122   1.109   5.474   2.071 -2.6074 -1.6079  0.2814
 6829TIP3    H242123   1.063   5.617   2.087  1.0248 -0.3519  0.4985
 6830TIP3   OH242124   6.555   3.629   2.702 -0.1256  0.3901 -0.1140
 6830TIP3    H142125   6.626   3.596   2.646  0.1672  0.4580  0.2169
 6830TIP3    H242126   6.475   3.607   2.654  0.1525  2.0627 -1.4701
 6831TIP3   OH242127   5.211   5.593   1.356 -0.4140 -0.2731 -0.3077
 6831TIP3    H142128   5.139   5.544   1.395  0.2852 -0.1885  1.1764
 6831TIP3    H242129   5.200   5.682   1.389  0.8368 -0.4514  0.7029
 6832TIP3   OH242130   1.130   1.838   1.489 -0.1052 -0.0565 -0.3856
 6832TIP3    H142131   1.183   1.917   1.476 -1.1326  1.1489  2.1073
 6832TIP3    H242132   1.114   1.805   1.401 -0.5736  3.1513 -1.6361
 6833TIP3   OH242133   3.434   1.306   8.807 -0.0207  0.3158  0.3785
 6833TIP3    H142134   3.513   1.253   8.799  0.1059  0.5555 -0.0066
 6833TIP3    H242135   3.467   1.395   8.821 -0.2277  0.3310  0.7883
 6834TIP3   OH242136   0.338   3.372   8.351  0.3225 -0.3315 -0.3376
 6834TIP3    H142137   0.360   3.280   8.360  2.1469  0.1644  0.8969
 6834TIP3    H242138   0.417   3.412   8.313 -0.8671  0.5641 -2.0062
 6835TIP3   OH242139   5.876   5.685   1.328 -0.2294  0.4982 -0.0409
 6835TIP3    H142140   5.835   5.770   1.314  2.4626  1.7506 -0.9427
 6835TIP3    H242141   5.902   5.656   1.240 -1.1310 -1.3270  0.2338
 6836TIP3   OH242142   0.093   4.093   1.900 -0.0321 -0.0926 -0.4180
 6836TIP3    H142143   0.146   4.172   1.912 -1.0930  0.5899 -0.1640
 6836TIP3    H242144   0.018   4.105   1.958 -1.2102 -0.3850 -1.8384
 6837TIP3   OH242145   2.015   5.835   7.902  0.8411 -0.0193 -0.1963
 6837TIP3    H142146   2.011   5.749   7.861 -1.1371 -0.9050  1.6655
 6837TIP3    H242147   2.082   5.827   7.970  1.2181  0.1846 -0.5366
 6838TIP3   OH242148   5.686   0.767   8.301  0.4966 -0.2814 -0.2728
 6838TIP3    H142149   5.633   0.845   8.316  0.8739 -0.4122  2.2059
 6838TIP3    H242150   5.712   0.773   8.209 -0.5780  1.7981 -0.5097
 6839TIP3   OH242151   3.558   1.789   9.111  0.4988 -0.4901 -0.2912
 6839TIP3    H142152   3.503   1.711   9.104  3.9485 -3.0114 -2.3172
 6839TIP3    H242153   3.512   1.855   9.060 -2.4577 -1.0964  1.3296
 6840TIP3   OH242154   4.006   4.320   1.807  0.4147  0.2739  0.4267
 6840TIP3    H142155   4.049   4.254   1.753 -0.6512  0.5550 -0.8418
 6840TIP3    H242156   3.924   4.279   1.835  0.2021  0.7059  0.4537
 6841TIP3   OH242157   4.109   4.428   2.038  0.1895 -0.5379 -0.0184
 6841TIP3    H142158   4.066   4.369   2.100  1.2670 -1.1485  0.1764
 6841TIP3    H242159   4.114   4.378   1.957  1.4108 -0.8800  0.2416
 6842TIP3   OH242160   3.059   4.471   1.623  0.0664 -0.7274  0.0918
 6842TIP3    H142161   3.042   4.444   1.714 -0.0943 -1.2183 -0.0826
 6842TIP3    H242162   3.154   4.462   1.613 -0.1857 -3.4451 -0.6389
 6843TIP3   OH242163   4.112   5.241   6.655 -0.1953 -0.9047  0.1780
 6843TIP3    H142164   4.023   5.208   6.644 -0.1470 -1.0218  0.1366
 6843TIP3    H242165   4.148   5.190   6.727  0.5573 -2.3765 -1.1710
 6844TIP3   OH242166   0.501   6.176   8.764 -1.0035 -0.1688 -0.4528
 6844TIP3    H142167   0.438   6.156   8.696 -2.7810 -0.5916  1.2430
 6844TIP3    H242168   0.522   6.269   8.752 -1.4345 -0.1939 -1.4221
 6845TIP3   OH242169   0.600   2.404   1.031 -0.1649  0.1464 -0.0119
 6845TIP3    H142170   0.675   2.358   1.071 -1.0236 -1.2569  0.0465
 6845TIP3    H242171   0.529   2.393   1.095 -0.7765  0.3387 -0.6499
 6846TIP3   OH242172   1.173   2.354   2.146 -0.0028  0.8347  0.3096
 6846TIP3    H142173   1.112   2.406   2.199  0.0295  1.6263 -0.4152
 6846TIP3    H242174   1.250   2.410   2.135  0.1296  0.5453 -0.2801
 6847TIP3   OH242175   0.042   2.306   0.447  0.2853 -0.2641  0.0417
 6847TIP3    H142176   0.133   2.287   0.427  0.2913 -0.9598  0.6855
 6847TIP3    H242177   0.040   2.319   0.542 -0.1451  0.5908 -0.0668
 6848TIP3   OH242178   0.440   6.086   9.178  0.4295 -0.0607 -0.0594
 6848TIP3    H142179   0.467   6.061   9.090  0.2022  1.3414 -0.5417
 6848TIP3    H242180   0.423   6.180   9.173  2.4487  0.5094  1.9729
 6849TIP3   OH242181   3.674   0.612   2.322  0.2458  0.7023  0.2528
 6849TIP3    H142182   3.704   0.636   2.410 -1.1662  2.3423  0.3499
 6849TIP3    H242183   3.688   0.690   2.269  1.9094 -0.5356 -1.2798
 6850TIP3   OH242184   1.125   4.129   8.430 -0.3692 -0.2818 -0.6268
 6850TIP3    H142185   1.089   4.147   8.343 -1.3787 -1.2409 -0.4398
 6850TIP3    H242186   1.048   4.107   8.483  0.2076  0.5208  0.5763
 6851TIP3   OH242187   1.485   1.100   1.684 -0.3462 -0.4313 -0.4527
 6851TIP3    H142188   1.556   1.039   1.667 -0.7415 -0.8208 -0.7360
 6851TIP3    H242189   1.515   1.153   1.758  0.2699 -0.5295 -0.6313
 6852TIP3   OH242190   2.777   3.836   0.989  0.6959  0.1078 -0.0868
 6852TIP3    H142191   2.812   3.907   1.043 -0.4626  1.3525 -0.9007
 6852TIP3    H242192   2.817   3.757   1.025  0.8428  1.0004  1.8562
 6853TIP3   OH242193   1.325   2.120   3.486 -0.5677 -0.2315 -0.2115
 6853TIP3    H142194   1.276   2.061   3.430 -1.0419  0.1497 -0.1999
 6853TIP3    H242195   1.415   2.087   3.482 -0.4634  0.1725 -1.7031
 6854TIP3   OH242196   4.840   3.860   0.071 -0.1870 -0.5700 -0.2639
 6854TIP3    H142197   4.918   3.806   0.082  0.1425 -0.3567 -1.3919
 6854TIP3    H242198   4.768   3.798   0.063 -0.1198 -0.7738  0.5679
 6855TIP3   OH242199   0.071   3.763   0.091 -0.0743  0.5845 -0.1186
 6855TIP3    H142200   0.074   3.697   0.022 -4.0455  0.3310 -0.2524
 6855TIP3    H242201   0.093   3.845   0.047 -0.7521  0.1519 -1.3031
 6856TIP3   OH242202   2.621   1.512   0.565 -0.3199 -0.2889  0.1898
 6856TIP3    H142203   2.601   1.514   0.471  1.2797 -0.8604 -0.1912
 6856TIP3    H242204   2.604   1.422   0.591 -0.0048 -0.3306  0.2580
 6857TIP3   OH242205   3.379   4.493   0.032  0.1142  0.9144 -0.0711
 6857TIP3    H142206   3.324   4.497  -0.047 -0.4395 -0.8044  0.1849
 6857TIP3    H242207   3.398   4.400   0.043 -0.7858  0.9615  2.4792
 6858TIP3   OH242208   1.941   5.907   0.644 -0.0512  0.3677  0.1263
 6858TIP3    H142209   1.957   5.813   0.653 -1.4124  0.0677 -0.4129
 6858TIP3    H242210   2.029   5.945   0.641  0.5438 -0.9804 -0.6380
 6859TIP3   OH242211   6.490   6.518   2.162 -0.6699  0.5603 -0.2580
 6859TIP3    H142212   6.477   6.539   2.255  1.0431  4.1522 -0.6322
 6859TIP3    H242213   6.433   6.579   2.116 -1.7506 -1.4083 -1.6341
 6860TIP3   OH242214   1.812   5.297   1.469  0.5062 -0.1088 -0.2855
 6860TIP3    H142215   1.811   5.262   1.380  0.9723  0.1615 -0.4017
 6860TIP3    H242216   1.813   5.220   1.525  0.0125 -0.2817 -0.5103
 6861TIP3   OH242217   0.100   4.728   8.498 -0.4752  0.5358  0.4872
 6861TIP3    H142218   0.126   4.734   8.590  0.2344  0.8301  0.2726
 6861TIP3    H242219   0.004   4.738   8.500 -0.5341 -0.0262  1.2408
 6862TIP3   OH242220   3.308   4.477   0.409 -0.0850 -0.2881 -0.1021
 6862TIP3    H142221   3.294   4.446   0.498 -2.3002  2.4351  0.6536
 6862TIP3    H242222   3.396   4.516   0.411 -0.6156  0.9256  1.3481
 6863TIP3   OH242223   2.222   2.985   3.488  0.6256  0.1345  0.6021
 6863TIP3    H142224   2.156   3.028   3.433 -2.0030 -2.9136  1.0982
 6863TIP3    H242225   2.223   3.037   3.568 -1.9526 -0.1922  0.9319
 6864TIP3   OH242226   2.279   5.054   8.415 -0.4843  0.8682  0.8208
 6864TIP3    H142227   2.215   5.083   8.350 -1.8793 -1.4401  1.0514
 6864TIP3    H242228   2.361   5.097   8.390 -1.1473  0.6427 -2.0154
 6865TIP3   OH242229   2.083   2.140   1.527 -0.5259  0.1307 -0.3781
 6865TIP3    H142230   2.027   2.115   1.453 -0.0676 -0.5467 -0.5115
 6865TIP3    H242231   2.099   2.058   1.573  0.6815  0.2335 -0.5786
 6866TIP3   OH242232   5.254   6.502   0.616  0.5153  0.2484  0.0925
 6866TIP3    H142233   5.204   6.502   0.535  1.6171  0.3896 -0.6050
 6866TIP3    H242234   5.222   6.426   0.664 -1.1832  0.9781  0.2029
 6867TIP3   OH242235   6.549   3.312   8.356 -0.1107  0.0415 -0.8485
 6867TIP3    H142236   6.558   3.251   8.282 -0.7018 -0.4884 -0.4941
 6867TIP3    H242237   6.544   3.398   8.315 -0.4602 -0.2512 -1.4348
 6868TIP3   OH242238   3.254   4.455   8.004  1.0051  0.3958  0.1212
 6868TIP3    H142239   3.283   4.441   7.914  1.6860 -0.3386  0.4418
 6868TIP3    H242240   3.160   4.440   8.001  1.1327 -0.3835 -0.3305
 6869TIP3   OH242241   4.269   2.511   0.945 -0.0055 -0.4485 -0.4326
 6869TIP3    H142242   4.356   2.501   0.985 -0.0332  0.5605 -0.1052
 6869TIP3    H242243   4.215   2.446   0.990  0.9921 -2.4603 -1.9629
 6870TIP3   OH242244   0.297   1.239   8.545  0.4707  0.3087 -0.1638
 6870TIP3    H142245   0.347   1.173   8.498 -0.9965 -0.4946 -0.6683
 6870TIP3    H242246   0.257   1.192   8.618 -0.6187  0.5962 -0.5483
 6871TIP3   OH242247   0.037   2.438   1.992 -0.0566  0.0011  0.5626
 6871TIP3    H142248  -0.034   2.487   2.034 -0.5630  1.0363 -1.3558
 6871TIP3    H242249   0.108   2.438   2.056 -1.1493  0.5382  1.8150
 6872TIP3   OH242250   4.449   0.763   1.222  0.0033  0.1217  0.1895
 6872TIP3    H142251   4.507   0.825   1.266 -0.3193  1.2692 -0.9453
 6872TIP3    H242252   4.367   0.810   1.209  0.6105  0.5039 -3.1303
 6873TIP3   OH242253   0.352   3.871   8.028  0.5429 -0.1425 -0.3956
 6873TIP3    H142254   0.402   3.910   8.100 -1.1889  0.0988  0.7364
 6873TIP3    H242255   0.409   3.803   7.993  2.1486  0.9335  0.0163
 6874TIP3   OH242256   6.373   3.192   8.625 -0.3054 -0.2236  0.1825
 6874TIP3    H142257   6.408   3.104   8.612  0.9022  0.4397 -1.4064
 6874TIP3    H242258   6.412   3.244   8.555 -0.7496  1.6568  1.2554
 6875TIP3   OH242259   1.098   3.557   6.967 -0.5340 -0.0003  0.0026
 6875TIP3    H142260   1.101   3.652   6.979  1.6886 -0.0045  0.0150
 6875TIP3    H242261   1.027   3.542   6.905 -0.0110  1.8260 -1.0970
 6876TIP3   OH242262   0.205   6.570   0.483  0.3277  0.4806 -0.1783
 6876TIP3    H142263   0.200   6.491   0.537 -0.5155  0.1883 -0.6643
 6876TIP3    H242264   0.244   6.636   0.540 -0.0806  0.0426  0.6202
 6877TIP3   OH242265   4.566   1.665   2.398 -0.2367 -1.1705 -0.0120
 6877TIP3    H142266   4.548   1.619   2.317 -0.6152 -0.8112 -0.1306
 6877TIP3    H242267   4.481   1.695   2.429  0.1749  1.2800 -1.0224
 6878TIP3   OH242268   3.622   6.669   7.659 -0.4430 -0.4649 -0.4109
 6878TIP3    H142269   3.674   6.589   7.648  0.5440  0.3570 -2.0101
 6878TIP3    H242270   3.645   6.723   7.584 -1.4103  1.1619  0.4174
 6879TIP3   OH242271   4.976   2.610   1.116  0.0458 -0.0470 -0.0062
 6879TIP3    H142272   4.983   2.515   1.108  1.0361  0.1477 -2.1648
 6879TIP3    H242273   5.061   2.638   1.149 -0.4743  0.0750  1.3022
 6880TIP3   OH242274   5.775   0.770   8.959  0.0794 -0.0198  0.1431
 6880TIP3    H142275   5.827   0.777   8.879  0.1518 -0.4919  0.1414
 6880TIP3    H242276   5.773   0.676   8.977 -2.6078 -0.2696 -1.0683
 6881TIP3   OH242277   1.315   3.307   2.791 -0.4280  0.1665  0.5123
 6881TIP3    H142278   1.408   3.327   2.798  0.0201 -1.6062  0.0251
 6881TIP3    H242279   1.281   3.315   2.880 -0.0767  1.8961  0.5239
 6882TIP3   OH242280   0.830   1.750   8.782  0.0568 -0.1132 -0.2097
 6882TIP3    H142281   0.843   1.700   8.702 -1.4353 -0.9203  0.0228
 6882TIP3    H242282   0.754   1.805   8.764  0.2919  0.3996  0.3284
 6883TIP3   OH242283   3.743   1.821   2.604 -0.0237  0.1132  0.0163
 6883TIP3    H142284   3.784   1.735   2.593  1.6886  1.0445 -1.3589
 6883TIP3    H242285   3.786   1.859   2.681 -1.9424 -0.8354  1.6432
 6884TIP3   OH242286   3.185   2.353   7.730  0.4361 -0.9442  0.2194
 6884TIP3    H142287   3.212   2.443   7.715 -0.4572 -0.7722 -0.4405
 6884TIP3    H242288   3.168   2.317   7.643 -0.1566 -1.4404  0.5211
 6885TIP3   OH242289   0.126   0.303   2.809  0.3812  0.3440 -0.0889
 6885TIP3    H142290   0.153   0.350   2.730 -0.2566  0.9861  0.0658
 6885TIP3    H242291   0.149   0.362   2.880 -0.2018  0.3180  0.1233
 6886TIP3   OH242292   6.136   0.980   3.161  0.2841 -0.0564  0.2008
 6886TIP3    H142293   6.228   0.958   3.142  0.0679 -0.1009 -0.8304
 6886TIP3    H242294   6.112   0.921   3.232  1.1390  0.1458  0.6761
 6887TIP3   OH242295   0.651   6.032   8.963  0.1899  0.0720  0.1690
 6887TIP3    H142296   0.586   6.064   8.899 -0.0373 -0.3393  0.1884
 6887TIP3    H242297   0.615   5.949   8.993  0.3698  0.1984  0.7320
 6888TIP3   OH242298   1.852   1.695   2.469 -0.2395  0.1472  0.5530
 6888TIP3    H142299   1.921   1.743   2.423 -1.0118 -0.3008 -1.1886
 6888TIP3    H242300   1.896   1.652   2.542  0.8269  1.9005  1.0076
 6889TIP3   OH242301   5.475   6.668   0.119 -0.3797  0.1604  0.0119
 6889TIP3    H142302   5.459   6.601   0.184 -2.0118  0.0276 -0.4909
 6889TIP3    H242303   5.495   6.747   0.169 -1.2262 -0.0330  0.6654
 6890TIP3   OH242304   6.201   2.705   2.169 -0.3326 -0.5101 -0.1220
 6890TIP3    H142305   6.163   2.628   2.213 -1.2137  0.4664  0.8695
 6890TIP3    H242306   6.175   2.695   2.078 -1.1760 -0.9596  0.1570
 6891TIP3   OH242307   3.308   1.892   2.402 -0.0449  0.7988  0.4568
 6891TIP3    H142308   3.265   1.816   2.362  1.3900  0.1396  0.0971
 6891TIP3    H242309   3.256   1.967   2.372 -0.7884  0.0652 -0.1683
 6892TIP3   OH242310   4.051   1.105   8.418  1.1278  0.5782  0.1582
 6892TIP3    H142311   4.055   1.065   8.331  1.0611  1.1745 -0.1268
 6892TIP3    H242312   4.138   1.142   8.432  1.1587  0.4272  0.3737
 6893TIP3   OH242313   3.914   3.881   8.275 -0.4233 -0.7346  0.1204
 6893TIP3    H142314   3.846   3.843   8.220 -0.3099 -0.5577 -0.1466
 6893TIP3    H242315   3.972   3.808   8.296  0.9409 -0.3689 -2.0768
 6894TIP3   OH242316   0.132   5.084   8.766  0.5972 -0.9294  0.1592
 6894TIP3    H142317   0.093   5.098   8.680  1.9142 -1.0653 -0.4840
 6894TIP3    H242318   0.059   5.091   8.827 -0.1780  0.3343 -0.8657
 6895TIP3   OH242319   6.559   4.158   6.955  0.0521 -0.3572 -0.6013
 6895TIP3    H142320   6.568   4.063   6.960 -2.9474 -0.6787  2.5547
 6895TIP3    H242321   6.621   4.191   7.020  1.8147  0.0422 -2.3854
 6896TIP3   OH242322   4.779   3.317   2.008 -0.7004  0.1462  0.1806
 6896TIP3    H142323   4.686   3.294   2.006 -0.8222  0.5384  1.1261
 6896TIP3    H242324   4.780   3.411   2.028 -0.1711  0.8150 -2.5643
 6897TIP3   OH242325   1.966   2.564   2.813  0.1173  0.5002 -0.2009
 6897TIP3    H142326   1.982   2.496   2.877 -0.2667  0.1580 -0.4631
 6897TIP3    H242327   1.934   2.639   2.864 -0.9450 -0.0297 -0.0751
 6898TIP3   OH242328   0.091   0.611   2.589  0.1064 -0.2001 -0.4687
 6898TIP3    H142329   0.051   0.654   2.665  0.3991 -1.1076  0.2202
 6898TIP3    H242330   0.182   0.596   2.616 -0.0632 -1.4824 -0.5841
 6899TIP3   OH242331   3.362   2.702   7.163 -0.3688  0.4346 -0.4606
 6899TIP3    H142332   3.316   2.705   7.247  2.2157 -3.1776  1.3745
 6899TIP3    H242333   3.308   2.647   7.108 -0.6866  0.4135 -0.1352
 6900TIP3   OH242334   1.788   1.475   9.041 -0.4602 -0.6064 -0.5750
 6900TIP3    H142335   1.726   1.546   9.056 -0.4991 -0.9045  0.8719
 6900TIP3    H242336   1.759   1.434   8.960 -2.3880 -0.9790  0.2643
 6901TIP3   OH242337   3.650   6.018   0.711 -0.6429 -0.1433 -0.0989
 6901TIP3    H142338   3.597   5.986   0.638  0.1840 -0.0651 -0.7513
 6901TIP3    H242339   3.592   6.080   0.757 -1.1984 -0.2452 -0.6396
 6902TIP3   OH242340   2.114   1.895   1.634 -0.3925  0.0641  0.3922
 6902TIP3    H142341   2.028   1.855   1.643 -0.5706  0.6377  1.4845
 6902TIP3    H242342   2.159   1.842   1.570 -1.8914  0.3030 -0.9274
 6903TIP3   OH242343   4.413   1.458   1.645  0.7484 -0.2010 -0.0752
 6903TIP3    H142344   4.406   1.449   1.550  1.0322  0.1441 -0.1317
 6903TIP3    H242345   4.367   1.382   1.680 -2.2777  1.2891 -0.4496
 6904TIP3   OH242346   1.466   3.530   1.252  0.0340  0.0076  0.3392
 6904TIP3    H142347   1.448   3.440   1.280  0.2359  0.3188  1.5267
 6904TIP3    H242348   1.555   3.547   1.283  0.3513  0.3172 -0.7016
 6905TIP3   OH242349   3.582   3.055   1.592 -0.0504 -0.4920 -1.0276
 6905TIP3    H142350   3.522   3.130   1.585  2.5863  1.7133 -1.3248
 6905TIP3    H242351   3.604   3.051   1.685  1.4649  0.5199 -1.3210
 6906TIP3   OH242352   2.509   0.516   7.896  0.1080 -0.1656  0.0845
 6906TIP3    H142353   2.506   0.568   7.815 -0.1078 -1.4703 -0.7830
 6906TIP3    H242354   2.430   0.542   7.944 -0.0115  0.2899 -0.3491
 6907TIP3   OH242355   5.839   4.710   0.059  1.2164 -0.1797 -0.3135
 6907TIP3    H142356   5.831   4.790   0.006  1.8518 -0.7285 -1.2476
 6907TIP3    H242357   5.868   4.742   0.145 -1.9058  0.9627  0.4699
 6908TIP3   OH242358   6.677   0.717   2.834  0.6800 -0.2340  0.0200
 6908TIP3    H142359   6.662   0.805   2.869 -1.5450  0.0273 -1.3967
 6908TIP3    H242360   6.654   0.659   2.907 -1.0584  0.3449 -0.0107
 6909TIP3   OH242361   2.278   0.756   0.944 -0.0322 -0.1294 -0.6724
 6909TIP3    H142362   2.358   0.730   0.897  2.0042 -0.4272  2.6132
 6909TIP3    H242363   2.230   0.675   0.957  2.5151 -1.3318  2.8803
 6910TIP3   OH242364   2.800   3.135   0.804  0.3919  0.5307 -0.9909
 6910TIP3    H142365   2.788   3.057   0.750  0.6483 -0.0593 -0.1986
 6910TIP3    H242366   2.711   3.168   0.817  0.1334 -0.4959 -0.0565
 6911TIP3   OH242367   0.232   6.238   2.111 -0.0388 -0.1127 -0.6295
 6911TIP3    H142368   0.297   6.292   2.067  0.2517  0.0137 -0.0640
 6911TIP3    H242369   0.148   6.262   2.071  0.1377  0.4851 -0.6474
 6912TIP3   OH242370   0.715   5.538   1.505 -0.0964  0.4102  0.1805
 6912TIP3    H142371   0.650   5.469   1.492  2.2005 -1.6075 -1.6673
 6912TIP3    H242372   0.794   5.491   1.535  1.3030  2.3294 -0.3207
 6913TIP3   OH242373   5.682   0.227   2.876  0.0165 -0.1055  0.3955
 6913TIP3    H142374   5.664   0.134   2.861  0.1871 -0.0049 -0.4550
 6913TIP3    H242375   5.596   0.268   2.877  0.0318  0.0595 -1.5561
 6914TIP3   OH242376   3.618   3.791   7.844 -0.0172 -0.1868  0.0388
 6914TIP3    H142377   3.661   3.722   7.793 -0.1628  0.4628 -0.9795
 6914TIP3    H242378   3.678   3.865   7.842 -0.2841  0.0436  0.3203
 6915TIP3   OH242379   6.250   3.528   9.073  0.6506  0.4632 -0.0408
 6915TIP3    H142380   6.293   3.613   9.069  1.3759  0.1315  0.3980
 6915TIP3    H242381   6.178   3.540   9.135  2.2343  0.1507  1.9318
 6916TIP3   OH242382   4.428   2.398   1.483  0.2988  0.6848 -0.4640
 6916TIP3    H142383   4.457   2.479   1.524  1.9683  1.0830 -2.2709
 6916TIP3    H242384   4.357   2.425   1.425  0.6090  0.7915 -0.7940
 6917TIP3   OH242385   5.718   2.901   8.224 -0.0844  0.0806 -0.3806
 6917TIP3    H142386   5.752   2.980   8.265  1.9221 -0.3763 -1.0764
 6917TIP3    H242387   5.782   2.879   8.157 -2.3237 -0.2084 -2.6008
 6918TIP3   OH242388   5.127   3.069   7.926  0.4444 -0.4034 -0.3423
 6918TIP3    H142389   5.149   3.141   7.985 -1.9502  0.1666 -0.0012
 6918TIP3    H242390   5.167   3.092   7.842  1.1422  0.4490  0.2113
 6919TIP3   OH242391   0.805   2.920   2.471 -0.9908  0.0864  0.1039
 6919TIP3    H142392   0.728   2.945   2.422 -0.8640  2.6441  1.0392
 6919TIP3    H242393   0.852   3.002   2.485  1.8442 -1.3469 -0.2911
 6920TIP3   OH242394   2.933   6.054   2.770  0.7009 -0.0681  0.2942
 6920TIP3    H142395   2.927   5.959   2.779 -0.9029 -0.0935 -0.6302
 6920TIP3    H242396   3.000   6.080   2.833  0.3067 -1.6854  1.4427
 6921TIP3   OH242397   5.404   5.304   9.039 -0.0596 -0.0952  0.1337
 6921TIP3    H142398   5.482   5.308   8.984 -0.3960  0.1528 -0.3341
 6921TIP3    H242399   5.386   5.395   9.062 -0.5630 -0.0887 -0.2668
 6922TIP3   OH242400   5.214   4.362   1.745 -0.1084 -0.0150 -0.3150
 6922TIP3    H142401   5.238   4.377   1.836  0.5892  1.9556 -0.7859
 6922TIP3    H242402   5.291   4.389   1.694 -1.3674  1.3543 -1.5912
 6923TIP3   OH242403   3.536   4.553   1.628 -0.2628  0.2100 -0.6019
 6923TIP3    H142404   3.575   4.581   1.710 -0.6276 -0.2952 -0.2491
 6923TIP3    H242405   3.611   4.528   1.574 -0.0732 -0.6171  0.0190
 6924TIP3   OH242406   5.966   4.914   0.255 -0.0867 -0.2724 -0.1780
 6924TIP3    H142407   5.933   5.000   0.227  1.0096  0.6272  1.1424
 6924TIP3    H242408   5.915   4.894   0.334  1.4305  0.4323  1.0210
 6925TIP3   OH242409   6.609   4.117   8.297 -0.1981 -0.3504 -0.3013
 6925TIP3    H142410   6.579   4.135   8.386  1.9443 -0.4803  0.4839
 6925TIP3    H242411   6.704   4.117   8.302 -0.0153 -1.8508 -2.2988
 6926TIP3   OH242412   6.350   4.830   7.555  0.1822  0.5775  0.2222
 6926TIP3    H142413   6.267   4.865   7.588  1.1586  1.5949  1.7115
 6926TIP3    H242414   6.349   4.850   7.461 -1.3324  0.3773  0.1768
 6927TIP3   OH242415   3.908   4.687   1.347 -0.0043  0.2316  0.2157
 6927TIP3    H142416   3.973   4.739   1.395  0.4053 -0.5119  0.4804
 6927TIP3    H242417   3.942   4.598   1.351 -1.1591 -0.2048  0.5350
 6928TIP3   OH242418   5.824   5.102   3.313 -0.2255 -0.9683 -0.4279
 6928TIP3    H142419   5.913   5.105   3.348 -0.4497 -0.8605  0.1381
 6928TIP3    H242420   5.826   5.165   3.240  0.3271 -1.4321 -0.8227
 6929TIP3   OH242421   3.212   0.760   7.681 -0.0833 -0.1657 -0.7106
 6929TIP3    H142422   3.127   0.763   7.637  0.1008  0.5375 -1.0221
 6929TIP3    H242423   3.200   0.816   7.758 -0.0181 -0.3835 -0.5411
 6930TIP3   OH242424   4.361   2.473   8.859  0.4613 -0.3614  0.3714
 6930TIP3    H142425   4.380   2.487   8.951  2.0467 -1.1034  0.1985
 6930TIP3    H242426   4.442   2.435   8.823 -0.3245 -0.6699 -1.1834
 6931TIP3   OH242427   0.205   0.285   2.300 -0.3291 -0.1350 -0.1288
 6931TIP3    H142428   0.168   0.372   2.316  1.7356  0.5414  1.4587
 6931TIP3    H242429   0.290   0.287   2.343  0.0009 -2.8043 -0.4773
 6932TIP3   OH242430   5.681   1.160   0.295  0.4330  0.0412 -0.3826
 6932TIP3    H142431   5.661   1.170   0.202  0.1212 -0.8879 -0.4176
 6932TIP3    H242432   5.629   1.085   0.324  0.3235  0.4754  0.6044
 6933TIP3   OH242433   2.755   2.592   7.423 -0.5115 -0.0741  0.1674
 6933TIP3    H142434   2.753   2.570   7.516 -1.9284  0.0405  0.1899
 6933TIP3    H242435   2.688   2.660   7.413  0.9607  1.3206 -0.6165
 6934TIP3   OH242436   1.098   2.319   8.821 -0.0211  0.1726 -0.1705
 6934TIP3    H142437   1.039   2.360   8.884 -0.3771 -0.8603  0.1996
 6934TIP3    H242438   1.055   2.331   8.736  0.5617  1.7503 -0.2757
 6935TIP3   OH242439   0.280   0.746   8.328 -0.1955 -0.1084  0.5390
 6935TIP3    H142440   0.297   0.660   8.366  0.4542 -0.1029  0.2685
 6935TIP3    H242441   0.279   0.731   8.233  0.2885  0.2483  0.4781
 6936TIP3   OH242442   5.447   3.432   7.955  0.4790 -0.2564 -0.1984
 6936TIP3    H142443   5.420   3.448   7.865  0.3795  1.3437  0.0840
 6936TIP3    H242444   5.541   3.448   7.955  0.0125  3.6930  0.6594
 6937TIP3   OH242445   5.198   3.647   0.924  0.2052 -0.6737  0.0440
 6937TIP3    H142446   5.180   3.657   1.017 -0.8820 -0.1979 -0.2025
 6937TIP3    H242447   5.173   3.557   0.904 -2.7324  0.1159 -0.4078
 6938TIP3   OH242448   2.122   3.869   1.669 -0.1126 -0.1299  0.4523
 6938TIP3    H142449   2.164   3.823   1.742 -0.6123 -1.6691 -0.2021
 6938TIP3    H242450   2.029   3.863   1.688 -0.6349 -4.1146 -2.1644
 6939TIP3   OH242451   2.271   4.757   7.151  0.2890 -0.0083  0.1570
 6939TIP3    H142452   2.318   4.710   7.082  0.6173 -2.2779  1.7964
 6939TIP3    H242453   2.314   4.843   7.156  1.5669 -0.5375 -1.1029
 6940TIP3   OH242454   3.295   3.840   1.584  0.6270  0.4371  0.3436
 6940TIP3    H142455   3.386   3.851   1.558  0.8534 -0.0052  0.9185
 6940TIP3    H242456   3.276   3.748   1.567  0.3909  0.4535  0.5174
 6941TIP3   OH242457   6.351   4.482   1.574  0.5212  0.0812 -0.6686
 6941TIP3    H142458   6.287   4.550   1.552  0.1925 -0.2848 -0.8553
 6941TIP3    H242459   6.403   4.520   1.645 -0.6653 -0.0689  0.3128
 6942TIP3   OH242460   1.965   6.479   1.419  0.3580  0.1466 -0.1214
 6942TIP3    H142461   2.057   6.506   1.425  0.2051  0.6326  0.0806
 6942TIP3    H242462   1.928   6.502   1.505 -0.2603  1.1230 -0.6365
 6943TIP3   OH242463   6.042   0.188   1.856 -0.4874 -0.3884 -0.0053
 6943TIP3    H142464   6.105   0.233   1.912  0.2596 -1.8614  0.3992
 6943TIP3    H242465   6.001   0.123   1.913 -1.7320 -0.0639 -0.4999
 6944TIP3   OH242466   3.724   0.759   0.837  0.1754 -0.0842 -0.3070
 6944TIP3    H142467   3.666   0.791   0.906  1.8506 -0.0903  1.1471
 6944TIP3    H242468   3.672   0.770   0.756 -0.9141  2.2735  0.6136
 6945TIP3   OH242469   5.539   3.114   2.159 -0.5138  0.1431 -0.2834
 6945TIP3    H142470   5.604   3.047   2.178 -1.0137 -0.6940 -1.4400
 6945TIP3    H242471   5.488   3.079   2.086 -1.7934  1.0987  0.1124
 6946TIP3   OH242472   3.049   4.970   2.460  0.1052  0.1043  0.3156
 6946TIP3    H142473   2.958   4.951   2.484  0.4030 -1.3534  0.3840
 6946TIP3    H242474   3.071   4.904   2.394  1.3189 -0.0047  0.8031
 6947TIP3   OH242475   2.990   5.094   1.989 -0.2245  0.0511  0.2705
 6947TIP3    H142476   2.971   5.086   2.083 -0.2943 -1.5385  0.1577
 6947TIP3    H242477   2.907   5.121   1.950 -0.3952  0.0054  0.5918
 6948TIP3   OH242478   4.610   1.573   0.080  0.1502 -0.1671  0.1284
 6948TIP3    H142479   4.525   1.589   0.120 -0.1287 -0.8496 -0.1863
 6948TIP3    H242480   4.668   1.555   0.154  0.2501  1.2309  0.4200
 6949TIP3   OH242481   4.882   4.285   8.424 -0.1161  0.1063 -0.3304
 6949TIP3    H142482   4.825   4.263   8.350 -0.6503 -0.6611  0.2861
 6949TIP3    H242483   4.822   4.303   8.496  0.3952  1.0556 -0.1268
 6950TIP3   OH242484   4.413   1.581   8.869  0.4756  0.5188  0.3063
 6950TIP3    H142485   4.355   1.657   8.868  1.4934  1.3589  1.4420
 6950TIP3    H242486   4.408   1.546   8.780 -2.4299 -0.0146  0.5803
 6951TIP3   OH242487   2.964   1.102   2.025  0.5254 -0.5282 -0.1822
 6951TIP3    H142488   2.923   1.187   2.043  0.4882 -0.3190 -1.2018
 6951TIP3    H242489   2.932   1.045   2.095 -1.9056 -0.5000 -1.1604
 6952TIP3   OH242490   4.342   4.025   0.464  0.6843 -0.1918 -0.4495
 6952TIP3    H142491   4.371   4.012   0.554 -0.0588  0.1447 -0.1538
 6952TIP3    H242492   4.411   3.986   0.410 -0.3735 -3.4487  0.3216
 6953TIP3   OH242493   1.144   1.110   1.982  0.4373 -0.4584 -0.0739
 6953TIP3    H142494   1.113   1.160   1.907 -0.1948 -2.1371 -0.9921
 6953TIP3    H242495   1.224   1.066   1.950  1.1585  0.1832  0.8047
 6954TIP3   OH242496   1.391   3.538   8.221  0.1093 -0.2466 -0.3242
 6954TIP3    H142497   1.441   3.601   8.168 -0.5953 -1.2989 -2.3788
 6954TIP3    H242498   1.452   3.467   8.239  0.5295  0.3927  0.8707
 6955TIP3   OH242499   1.942   2.390   1.211  0.1632 -0.1630  0.3404
 6955TIP3    H142500   1.850   2.394   1.235  0.2343  0.5508  0.5189
 6955TIP3    H242501   1.948   2.314   1.153 -0.6445  0.1120 -0.1273
 6956TIP3   OH242502   4.599   5.199   7.852  0.3112 -0.2641  0.1272
 6956TIP3    H142503   4.532   5.241   7.798  0.5285  2.6083  1.9181
 6956TIP3    H242504   4.672   5.261   7.852  1.0311 -1.0471  2.1767
 6957TIP3   OH242505   6.532   3.036   0.980  0.2174 -0.1747  0.5741
 6957TIP3    H142506   6.587   3.040   1.058 -0.5867  1.6442  1.1210
 6957TIP3    H242507   6.569   2.966   0.928  1.3751 -0.8039  2.1530
 6958TIP3   OH242508   2.258   4.903   0.336  0.4327  0.4040  0.0264
 6958TIP3    H142509   2.287   4.994   0.335 -1.0350  0.9227 -1.7805
 6958TIP3    H242510   2.325   4.855   0.287 -0.0122  0.9967 -1.2159
 6959TIP3   OH242511   1.780   0.969   1.605 -0.0499 -0.4547  0.5970
 6959TIP3    H142512   1.741   0.930   1.684 -0.3338 -1.3375  0.0339
 6959TIP3    H242513   1.859   0.918   1.590  0.8216  0.6882  1.1545
 6960TIP3   OH242514   1.382   5.920   0.356  0.4181 -0.0816 -0.0262
 6960TIP3    H142515   1.378   5.825   0.365  1.6795 -0.1824 -0.2740
 6960TIP3    H242516   1.473   5.937   0.329  0.4644  1.2497  0.8748
 6961TIP3   OH242517   4.840   3.053   8.562  0.2243  0.4525  0.0550
 6961TIP3    H142518   4.915   3.053   8.621  1.0516  0.7407 -0.9673
 6961TIP3    H242519   4.801   2.966   8.572  1.1921 -0.0001 -0.0130
 6962TIP3   OH242520   0.218   2.463   8.963 -0.7584  0.6094 -0.4059
 6962TIP3    H142521   0.272   2.498   8.893  0.1544 -0.9031 -0.5053
 6962TIP3    H242522   0.183   2.381   8.927 -1.3836  0.5005  0.4269
 6963TIP3   OH242523   2.847   3.868   0.132  0.3658 -0.3019  0.2156
 6963TIP3    H142524   2.766   3.841   0.088 -0.2533 -1.7030  2.0812
 6963TIP3    H242525   2.817   3.917   0.208  1.3812  1.0900 -0.2399
 6964TIP3   OH242526   4.627   4.022   1.781 -0.4473  0.0533 -0.1095
 6964TIP3    H142527   4.695   4.076   1.742 -1.9192  0.9751 -1.5506
 6964TIP3    H242528   4.644   3.934   1.748  0.3149  0.1829 -0.0738
 6965TIP3   OH242529   5.638   6.063   1.376  0.0983 -0.2432 -0.4641
 6965TIP3    H142530   5.700   6.081   1.306  1.1615 -0.1673  0.4799
 6965TIP3    H242531   5.615   5.970   1.365  1.6177 -0.7097  0.1302
 6966TIP3   OH242532   4.730   5.689   7.568  0.0476  0.3334  0.2147
 6966TIP3    H142533   4.812   5.643   7.586 -0.1994 -0.5401 -0.7764
 6966TIP3    H242534   4.757   5.769   7.523  0.4177  0.5895  0.8857
 6967TIP3   OH242535   5.749   0.356   1.241  0.2444 -0.5098  0.3780
 6967TIP3    H142536   5.794   0.377   1.323  1.5586  0.7609 -0.6263
 6967TIP3    H242537   5.817   0.317   1.186 -0.5867 -1.1804 -0.1973
 6968TIP3   OH242538   4.425   0.194   0.512 -0.2630  0.2990 -0.4163
 6968TIP3    H142539   4.460   0.279   0.489 -0.2787  0.5469  0.4585
 6968TIP3    H242540   4.499   0.133   0.502 -0.0119  0.5607 -0.1704
 6969TIP3   OH242541   6.479   5.364   8.546  0.0358 -0.6159  0.1265
 6969TIP3    H142542   6.399   5.323   8.579 -0.7975  1.1300  0.3978
 6969TIP3    H242543   6.476   5.454   8.579  2.5775 -0.7233  0.8955
 6970TIP3   OH242544   2.078   3.119   2.893 -0.3724 -0.6319  0.0783
 6970TIP3    H142545   2.098   3.204   2.854 -2.5199 -0.0818  0.0478
 6970TIP3    H242546   2.159   3.092   2.936  1.3776 -0.1330 -2.6828
 6971TIP3   OH242547   5.106   2.490   3.009  0.1782  0.1400  0.4468
 6971TIP3    H142548   5.121   2.427   2.939  0.9311 -0.7037  1.3467
 6971TIP3    H242549   5.150   2.570   2.979 -1.9837  0.7729 -1.3562
 6972TIP3   OH242550   2.089   3.726   8.792  0.5195 -0.4694  0.2591
 6972TIP3    H142551   2.175   3.718   8.752  0.5915  1.6517 -0.1277
 6972TIP3    H242552   2.027   3.720   8.719  0.3770 -1.0520  0.4200
 6973TIP3   OH242553   1.253   3.510   2.483  0.0277  0.0241 -0.7156
 6973TIP3    H142554   1.318   3.507   2.414 -0.1174  3.0783 -1.1225
 6973TIP3    H242555   1.252   3.601   2.511 -1.9604 -0.5386  1.3542
 6974TIP3   OH242556   5.638   1.071   1.044 -0.1300 -0.6443  0.6084
 6974TIP3    H142557   5.543   1.074   1.048 -0.1294 -1.0815  1.0511
 6974TIP3    H242558   5.658   1.079   0.950 -0.6452 -1.4772  0.4173
 6975TIP3   OH242559   2.889   2.415   7.648  0.4489  1.0498  0.1164
 6975TIP3    H142560   2.939   2.474   7.704  0.9280  1.3123 -0.5757
 6975TIP3    H242561   2.952   2.384   7.583  0.6831 -1.6396  1.4925
 6976TIP3   OH242562   5.634   2.865   0.491  0.4469 -0.2692  0.6774
 6976TIP3    H142563   5.642   2.918   0.570  1.9252 -0.1493  0.4656
 6976TIP3    H242564   5.665   2.778   0.517  0.1074 -0.4590  0.4545
 6977TIP3   OH242565   2.076   0.005   0.913 -0.8031 -0.5047 -0.0999
 6977TIP3    H142566   2.145  -0.060   0.929 -2.0775 -1.3891  2.2745
 6977TIP3    H242567   1.995  -0.044   0.922 -1.7862  1.1679  0.4507
 6978TIP3   OH242568   0.208   3.857   8.476  0.4413  0.7759 -0.5876
 6978TIP3    H142569   0.206   3.762   8.469  0.4619  0.8253 -1.3685
 6978TIP3    H242570   0.261   3.874   8.554 -2.6242  0.1062  1.8369
 6979TIP3   OH242571   5.451   1.396   9.008 -0.6509  0.2108  0.1006
 6979TIP3    H142572   5.377   1.449   8.976  0.4292  1.3807 -0.5765
 6979TIP3    H242573   5.465   1.426   9.098 -1.6572 -0.7841  0.6078
 6980TIP3   OH242574   0.601   1.594   1.846  0.2040  0.2686  0.2222
 6980TIP3    H142575   0.674   1.583   1.785  1.0384 -0.5957  1.3297
 6980TIP3    H242576   0.536   1.530   1.818  0.0805  0.6712 -0.4430
 6981TIP3   OH242577   1.742   4.024   9.000 -0.2072  0.0603  0.1104
 6981TIP3    H142578   1.834   4.037   8.979  0.1681  1.8263  2.5797
 6981TIP3    H242579   1.696   4.090   8.948 -0.0264 -0.2193 -0.4196
 6982TIP3   OH242580   4.330   2.932   0.643 -0.2072  0.0914  0.1832
 6982TIP3    H142581   4.402   2.870   0.651  1.0670  1.6261  1.4383
 6982TIP3    H242582   4.292   2.914   0.557  2.1002 -0.3750 -0.8227
 6983TIP3   OH242583   1.569   1.673   9.122  0.6053  0.2481  0.5122
 6983TIP3    H142584   1.584   1.740   9.056 -2.3471 -0.4378 -1.0210
 6983TIP3    H242585   1.515   1.716   9.189 -0.7650 -0.3567 -0.1626
 6984TIP3   OH242586   5.015   2.221   0.841 -0.6833  0.5659 -0.3734
 6984TIP3    H142587   5.076   2.261   0.780 -0.2289  0.0656 -0.2545
 6984TIP3    H242588   5.020   2.127   0.823  0.0246  0.3281  0.9322
 6985TIP3   OH242589   0.481   5.402   8.154 -0.2164  0.8376  0.2101
 6985TIP3    H142590   0.509   5.310   8.153  0.0510  0.9062 -1.4092
 6985TIP3    H242591   0.386   5.398   8.149 -0.1982  0.6480  0.0002
 6986TIP3   OH242592   2.346   2.422   2.295  0.1205  0.2338  1.0174
 6986TIP3    H142593   2.269   2.469   2.327 -0.6214 -0.1737 -0.0789
 6986TIP3    H242594   2.311   2.363   2.227  1.3059 -0.4487  0.9742
 6987TIP3   OH242595   0.021   2.856   2.665  0.3700 -0.0367  0.0155
 6987TIP3    H142596   0.062   2.812   2.591 -1.2530 -1.0265 -0.3468
 6987TIP3    H242597   0.093   2.875   2.725  1.1679 -4.0070  0.5970
 6988TIP3   OH242598   4.017   0.320   8.608 -0.1505 -0.4114  0.2345
 6988TIP3    H142599   4.014   0.225   8.609  3.1882 -0.6627 -0.3737
 6988TIP3    H242600   4.033   0.345   8.700 -0.7129 -0.4340  0.3428
 6989TIP3   OH242601   4.500   1.716   1.723  0.2486 -0.3652  0.2042
 6989TIP3    H142602   4.449   1.641   1.693 -1.9324  1.3712 -0.6449
 6989TIP3    H242603   4.439   1.769   1.774  0.9005  2.1472 -1.4260
 6990TIP3   OH242604   3.774   6.559   1.330  0.7618 -0.1005 -0.3500
 6990TIP3    H142605   3.847   6.620   1.344  0.8712 -0.2950 -0.0690
 6990TIP3    H242606   3.810   6.474   1.352 -0.2200  0.0593  2.1153
 6991TIP3   OH242607   2.578   2.115   0.962  0.3009  0.1061 -0.4530
 6991TIP3    H142608   2.517   2.087   0.894 -0.8119 -0.3179  0.6832
 6991TIP3    H242609   2.567   2.210   0.968  0.0482  0.0803 -0.5226
 6992TIP3   OH242610   2.525   1.384   8.693 -0.4239  0.2968 -0.3246
 6992TIP3    H142611   2.469   1.458   8.716 -1.5386  0.1231 -2.2081
 6992TIP3    H242612   2.604   1.424   8.655  1.1284  0.5591  2.8812
 6993TIP3   OH242613   1.178   0.382   1.096  0.2356 -0.3434 -0.7584
 6993TIP3    H142614   1.118   0.448   1.133  1.3238 -0.2336  0.8769
 6993TIP3    H242615   1.185   0.406   1.004 -1.2709  0.3751 -0.7199
 6994TIP3   OH242616   6.671   3.596   8.268 -0.3725  0.0372  0.0500
 6994TIP3    H142617   6.679   3.681   8.310  0.4460 -0.2479  0.5063
 6994TIP3    H242618   6.587   3.598   8.224 -0.0879  1.3006 -0.4599
 6995TIP3   OH242619   4.617   4.592   0.569  0.3435 -0.3371 -0.3454
 6995TIP3    H142620   4.570   4.533   0.629 -0.9569 -0.4777 -1.4638
 6995TIP3    H242621   4.630   4.672   0.619  0.1842 -0.7980  0.4528
 6996TIP3   OH242622   0.783   0.664   0.957 -0.7751  0.1804  0.5299
 6996TIP3    H142623   0.835   0.679   0.877  0.0023 -0.5104  0.8812
 6996TIP3    H242624   0.848   0.660   1.027 -1.4938  1.2413  1.2820
 6997TIP3   OH242625   1.151   3.822   0.964 -0.4168  0.0818  0.1551
 6997TIP3    H142626   1.240   3.798   0.991 -0.1468  2.7227  2.0362
 6997TIP3    H242627   1.163   3.884   0.893 -0.7696  0.4227  0.3917
 6998TIP3   OH242628   4.667   5.671   8.589 -0.3703  0.0300  0.1121
 6998TIP3    H142629   4.716   5.733   8.643  1.7123  0.1169 -1.7376
 6998TIP3    H242630   4.730   5.601   8.571 -1.8943 -1.3724  0.0553
 6999TIP3   OH242631   5.106   5.794   0.326 -0.6988 -0.7590  0.1874
 6999TIP3    H142632   5.194   5.761   0.340 -0.6745  0.3356  3.2097
 6999TIP3    H242633   5.105   5.881   0.365 -3.3109 -1.0596  1.0311
 7000TIP3   OH242634   6.696   1.157   1.458 -0.0453 -0.0158  0.4484
 7000TIP3    H142635   6.747   1.161   1.377  0.4980 -0.5267  0.7588
 7000TIP3    H242636   6.749   1.103   1.517 -0.4305  0.3599  1.1481
 7001TIP3   OH242637   1.697   6.558   0.861 -0.8220 -0.2539 -0.3410
 7001TIP3    H142638   1.738   6.556   0.774  0.8998  0.0550  0.4321
 7001TIP3    H242639   1.768   6.536   0.922 -1.6920  0.7518  1.0915
 7002TIP3   OH242640   0.149   0.261   1.637 -0.6301 -0.0109 -0.1025
 7002TIP3    H142641   0.166   0.219   1.553  0.9410  0.0998  0.1310
 7002TIP3    H242642   0.055   0.253   1.649 -0.7154 -1.1066 -1.2957
 7003TIP3   OH242643   2.866   0.943   8.945 -0.0218 -0.3324  0.2407
 7003TIP3    H142644   2.798   0.906   9.000  0.4855 -1.4626  0.1369
 7003TIP3    H242645   2.896   0.870   8.891 -0.0699  0.5921 -1.1004
 7004TIP3   OH242646   3.882   4.041   8.861  0.0569 -0.1032 -0.0949
 7004TIP3    H142647   3.833   3.999   8.931 -0.4750 -1.1156 -1.0356
 7004TIP3    H242648   3.909   3.969   8.804  0.8713  0.6447 -0.6929
 7005TIP3   OH242649   6.410   5.949   1.018 -0.4708 -0.0312  0.5447
 7005TIP3    H142650   6.352   6.018   0.986 -0.1822 -0.7233 -1.6592
 7005TIP3    H242651   6.354   5.894   1.072 -1.4246  0.3513 -0.0222
 7006TIP3   OH242652   3.408   1.261   1.097  0.4184 -0.7170  0.4042
 7006TIP3    H142653   3.329   1.229   1.054  0.8613 -1.3860  0.0866
 7006TIP3    H242654   3.480   1.224   1.047  0.9815  1.4435 -0.5209
 7007TIP3   OH242655   4.417   4.814   0.706 -0.2333  0.5907  0.0670
 7007TIP3    H142656   4.329   4.779   0.719 -0.2150  0.1840 -0.7788
 7007TIP3    H242657   4.422   4.831   0.612  0.9552 -0.4318 -0.0867
 7008TIP3   OH242658   1.282   3.972   7.936 -0.6112 -0.0147  0.1890
 7008TIP3    H142659   1.210   3.963   7.873  1.0589  0.2167 -1.8787
 7008TIP3    H242660   1.287   4.066   7.953 -1.4988 -0.1408  1.2713
 7009TIP3   OH242661   2.980   2.897   0.007  0.1969 -0.2138  0.4365
 7009TIP3    H142662   2.927   2.883  -0.071  1.1896 -0.6617 -0.1730
 7009TIP3    H242663   3.014   2.811   0.029  1.3934  0.1922  0.2732
 7010TIP3   OH242664   4.818   4.372   0.613  0.5447 -0.4670  0.3010
 7010TIP3    H142665   4.796   4.463   0.594  0.1958 -0.5617  0.2519
 7010TIP3    H242666   4.835   4.333   0.527  2.5742  0.0195  0.4252
 7011TIP3   OH242667   6.328   6.072   2.540 -0.2568  0.8104 -0.6548
 7011TIP3    H142668   6.374   6.122   2.606 -1.0155  0.5942  0.0532
 7011TIP3    H242669   6.377   5.990   2.534  0.4221  1.2404 -1.1247
 7012TIP3   OH242670   4.437   0.183   8.805  0.0583 -0.0393 -0.0587
 7012TIP3    H142671   4.515   0.237   8.823  0.4365 -0.5820 -0.0552
 7012TIP3    H242672   4.440   0.114   8.871  0.1308 -0.6509 -0.7014
 7013TIP3   OH242673   0.788   4.850   2.893  0.3054 -0.4349 -0.4026
 7013TIP3    H142674   0.728   4.776   2.900  0.3088 -0.4309 -0.3316
 7013TIP3    H242675   0.874   4.814   2.913  0.2665 -0.3521 -0.0813
 7014TIP3   OH242676   5.387   5.752   2.713 -0.7366  0.1475 -1.0431
 7014TIP3    H142677   5.424   5.670   2.746 -0.1734 -0.2845 -2.6443
 7014TIP3    H242678   5.456   5.817   2.730  0.0082 -0.2815 -2.2670
 7015TIP3   OH242679   5.084   1.695   1.745 -0.2411 -0.2571  0.5610
 7015TIP3    H142680   5.040   1.618   1.709 -0.7875 -0.2110  1.1194
 7015TIP3    H242681   5.040   1.711   1.828 -0.2903  0.7977  0.3426
 7016TIP3   OH242682   0.376   4.985   7.342 -0.5142  0.0030  0.0875
 7016TIP3    H142683   0.342   5.052   7.401 -1.2977 -0.7385  0.4928
 7016TIP3    H242684   0.336   5.005   7.257 -1.3077 -0.3463  0.3662
 7017TIP3   OH242685   1.829   0.838   0.138 -0.0607 -0.3316 -0.2888
 7017TIP3    H142686   1.924   0.833   0.124 -0.1698  0.5393 -1.5615
 7017TIP3    H242687   1.819   0.901   0.209  0.3479 -1.6190  0.9714
 7018TIP3   OH242688   2.778   5.868   2.398  0.9264  0.2764  0.7188
 7018TIP3    H142689   2.713   5.854   2.467 -3.2978 -0.2326 -2.8957
 7018TIP3    H242690   2.763   5.958   2.369 -1.0460 -0.9327 -2.5598
 7019TIP3   OH242691   6.603   6.381   1.624  0.2856  0.2432 -0.2390
 7019TIP3    H142692   6.631   6.294   1.595 -0.4059  0.1427 -0.6240
 7019TIP3    H242693   6.535   6.364   1.689  0.1646  0.4929 -0.2986
 7020TIP3   OH242694   3.371   4.192   1.020 -0.0764  0.0956 -0.3382
 7020TIP3    H142695   3.389   4.117   1.077  0.3841 -0.2855 -0.9724
 7020TIP3    H242696   3.453   4.206   0.971 -0.5773  0.1781 -1.1709
 7021TIP3   OH242697   1.806   4.479   0.091  0.0884  0.4099  0.5808
 7021TIP3    H142698   1.780   4.511   0.178  2.1897 -0.4993  1.6169
 7021TIP3    H242699   1.869   4.544   0.060  0.0385  0.2521  0.1436
 7022TIP3   OH242700   4.276   3.187   0.753  0.0630 -0.4887 -0.2557
 7022TIP3    H142701   4.303   3.101   0.722 -0.3917 -1.2839  1.4157
 7022TIP3    H242702   4.201   3.211   0.699  2.2868  0.5425 -3.1544
 7023TIP3   OH242703   1.833   2.622   1.487 -0.3200 -0.5167  0.0626
 7023TIP3    H142704   1.860   2.548   1.542  0.5072  0.2891  0.7576
 7023TIP3    H242705   1.849   2.699   1.540 -3.7517  0.1089  0.4464
 7024TIP3   OH242706   2.625   2.348   7.363  0.0855  0.3099 -0.8898
 7024TIP3    H142707   2.554   2.360   7.427  1.5598 -1.3659  1.2262
 7024TIP3    H242708   2.673   2.430   7.365 -0.3345  0.5546 -0.4025
 7025TIP3   OH242709   4.217   0.891   2.606 -0.3268  0.1616 -0.6630
 7025TIP3    H142710   4.273   0.833   2.554  0.3966  0.4980 -0.2649
 7025TIP3    H242711   4.236   0.979   2.573 -1.7605  0.1658 -1.5826
 7026TIP3   OH242712   4.825   3.853   0.409  0.4759 -0.4978  0.0360
 7026TIP3    H142713   4.880   3.774   0.405  0.1587 -0.6820 -2.0528
 7026TIP3    H242714   4.881   3.919   0.450  1.7425 -1.0798 -0.6820
 7027TIP3   OH242715   0.899   1.565   8.957 -0.4476  0.1376  0.2443
 7027TIP3    H142716   0.893   1.647   8.910 -1.6439 -0.1715 -0.1776
 7027TIP3    H242717   0.947   1.506   8.898  1.8292  0.9365  1.1871
 7028TIP3   OH242718   1.667   2.679   2.454  0.5386 -0.2230 -0.5653
 7028TIP3    H142719   1.665   2.762   2.502  1.7654  0.4127 -1.5681
 7028TIP3    H242720   1.685   2.613   2.522 -0.8579  0.2518  0.3041
 7029TIP3   OH242721   0.633   0.913   0.333 -0.1302  0.7162  0.5449
 7029TIP3    H142722   0.723   0.917   0.364  0.9842  0.3045 -2.3429
 7029TIP3    H242723   0.581   0.904   0.413  2.3222  1.2492  2.3290
 7030TIP3   OH242724   1.269   2.196   9.016  0.2986 -0.3349 -0.0194
 7030TIP3    H142725   1.234   2.246   8.942 -0.7903 -0.3325  0.4661
 7030TIP3    H242726   1.242   2.106   8.998  1.3928 -0.5942 -0.3982
 7031TIP3   OH242727   4.860   3.519   8.871  0.1982  0.3129  0.1479
 7031TIP3    H142728   4.785   3.546   8.818  0.7152 -0.1443 -0.8526
 7031TIP3    H242729   4.822   3.492   8.955 -0.7848 -0.1363 -0.4204
 7032TIP3   OH242730   6.409   3.188   1.266 -0.4029 -0.0911 -0.3983
 7032TIP3    H142731   6.390   3.222   1.178 -0.6186 -1.3395 -0.8592
 7032TIP3    H242732   6.489   3.137   1.255 -0.8287 -0.8544 -0.0324
 7033TIP3   OH242733   1.601   5.662   0.110  0.2991  0.5381  0.2860
 7033TIP3    H142734   1.684   5.701   0.081  1.6039 -1.8363  0.6158
 7033TIP3    H242735   1.627   5.583   0.157 -2.1689 -0.0818  0.7235
 7034TIP3   OH242736   5.016   5.945   2.488  0.4819 -0.0925  0.1690
 7034TIP3    H142737   4.969   5.932   2.570  0.2483 -1.4698 -0.1645
 7034TIP3    H242738   5.108   5.955   2.515  0.2413  0.8394  0.6840
 7035TIP3   OH242739   5.504   2.423   0.529  0.0101  0.6857 -0.2230
 7035TIP3    H142740   5.500   2.481   0.604 -0.5810 -1.2101  1.2894
 7035TIP3    H242741   5.532   2.339   0.565 -0.7763 -0.4228 -2.0378
 7036TIP3   OH242742   0.870   4.125   7.820  0.0574 -0.0389  0.5041
 7036TIP3    H142743   0.878   4.220   7.830 -2.1215  0.2203  0.3813
 7036TIP3    H242744   0.912   4.089   7.898  1.5534  0.9639  0.2047
 7037TIP3   OH242745   5.928   5.500   0.686 -0.4290  0.1190 -0.5675
 7037TIP3    H142746   6.005   5.479   0.738  0.1836  1.8384 -0.6886
 7037TIP3    H242747   5.913   5.593   0.703 -1.1444  0.3492 -2.2458
 7038TIP3   OH242748   3.528   1.884   7.884  0.5325  0.3748 -0.4701
 7038TIP3    H142749   3.486   1.970   7.879 -1.6409 -0.5990 -0.1708
 7038TIP3    H242750   3.534   1.855   7.793  1.6872  0.9834 -0.6127
 7039TIP3   OH242751   2.619   3.311   2.943  0.1739  0.8922 -0.6615
 7039TIP3    H142752   2.624   3.260   3.025  0.0634  0.1630 -1.0977
 7039TIP3    H242753   2.527   3.335   2.936  0.2049  1.0564 -0.5094
 7040TIP3   OH242754   1.587   0.523   1.030  0.4319  0.1756 -0.3316
 7040TIP3    H142755   1.649   0.526   1.103  0.2610 -0.6729 -0.1466
 7040TIP3    H242756   1.524   0.592   1.051  0.2384 -0.2218  0.4662
 7041TIP3   OH242757   6.596   2.608   0.448  0.0029 -0.0482  0.2645
 7041TIP3    H142758   6.512   2.653   0.438  0.3362  0.9873  1.6634
 7041TIP3    H242759   6.599   2.582   0.540  2.1633  2.0707  0.9107
 7042TIP3   OH242760   3.363   1.259   0.140 -0.1168  0.9652  0.5888
 7042TIP3    H142761   3.328   1.245   0.052  0.9997  1.0505  0.1179
 7042TIP3    H242762   3.334   1.348   0.163  0.9255  1.5782 -0.3588
 7043TIP3   OH242763   4.133   1.237   1.293  0.1053 -0.6730  0.3220
 7043TIP3    H142764   4.148   1.160   1.347  0.1824 -2.5614 -2.1667
 7043TIP3    H242765   4.058   1.281   1.333  0.2701 -1.8318  2.0134
 7044TIP3   OH242766   3.075   5.627   2.133 -0.2482 -0.3788  0.1222
 7044TIP3    H142767   3.155   5.606   2.182  0.7421  0.1906 -1.1982
 7044TIP3    H242768   3.041   5.542   2.107  0.2475 -0.6084  0.2010
 7045TIP3   OH242769   5.637   5.942   8.689 -0.3948 -0.1595  0.0847
 7045TIP3    H142770   5.567   5.942   8.623 -1.2991 -1.7160  0.9859
 7045TIP3    H242771   5.611   5.873   8.751  1.4819 -0.1422  0.9411
 7046TIP3   OH242772   3.153   4.784   1.624 -0.6752 -0.0041 -0.0035
 7046TIP3    H142773   3.142   4.821   1.712 -1.3928 -2.4104  0.9844
 7046TIP3    H242774   3.203   4.704   1.637 -1.2580 -0.6962 -1.7344
 7047TIP3   OH242775   2.882   1.638   1.995 -0.2228  0.2536 -0.1758
 7047TIP3    H142776   2.914   1.605   1.911  2.9782 -0.3553  1.1144
 7047TIP3    H242777   2.795   1.673   1.976 -0.2507 -1.2048 -3.3907
 7048TIP3   OH242778   6.566   2.115   0.252 -0.0546  0.7242 -0.0856
 7048TIP3    H142779   6.658   2.122   0.226 -0.0223 -0.3629 -0.3485
 7048TIP3    H242780   6.566   2.128   0.346  1.1313 -3.9323  0.8327
 7049TIP3   OH242781   2.013   1.384   1.837  0.2363  0.6609  0.7038
 7049TIP3    H142782   1.985   1.393   1.928  0.8231 -0.4561  1.0104
 7049TIP3    H242783   2.049   1.295   1.831 -0.5469  0.3956 -0.8188
 7050TIP3   OH242784   3.691   3.235   7.830 -0.1514 -0.0309 -0.0120
 7050TIP3    H142785   3.769   3.249   7.776  0.6721 -0.2148  1.1077
 7050TIP3    H242786   3.653   3.322   7.840 -0.4105 -0.0094 -0.9969
 7051TIP3   OH242787   1.786   3.717   0.254 -0.1463  0.3328 -0.4160
 7051TIP3    H142788   1.878   3.739   0.237 -0.2047  0.7006 -0.2559
 7051TIP3    H242789   1.760   3.665   0.178  0.2605  0.0302 -0.3551
 7052TIP3   OH242790   3.604   6.195   7.927 -0.1780 -0.3805 -0.5307
 7052TIP3    H142791   3.672   6.261   7.915  0.3219 -0.3788  1.8741
 7052TIP3    H242792   3.648   6.123   7.971 -1.9417  0.1975  2.4311
 7053TIP3   OH242793   1.789   5.244   9.178 -0.1812 -0.1055 -0.1360
 7053TIP3    H142794   1.773   5.200   9.262  1.7500  1.6465  1.2298
 7053TIP3    H242795   1.720   5.310   9.173  0.2733  0.4399  0.5811
 7054TIP3   OH242796   1.725   0.851   0.618  0.7597 -0.4547 -0.9085
 7054TIP3    H142797   1.774   0.769   0.626 -1.6449 -1.8612  1.0828
 7054TIP3    H242798   1.653   0.841   0.680 -0.3842  2.6703 -1.5685
 7055TIP3   OH242799   1.148   3.329   9.071  0.6531  0.3537  0.1493
 7055TIP3    H142800   1.076   3.305   9.130 -0.6674 -1.1529 -1.9277
 7055TIP3    H242801   1.225   3.334   9.128 -0.9036  1.2264  2.3371
 7056TIP3   OH242802   1.517   5.044   2.675 -0.1160  0.5312  0.8891
 7056TIP3    H142803   1.439   5.066   2.726 -0.6678 -0.5962  0.5587
 7056TIP3    H242804   1.507   4.951   2.654  1.3615  0.3473  0.9031
 7057TIP3   OH242805   5.732   5.934   1.718 -0.1128 -0.1987 -0.2752
 7057TIP3    H142806   5.654   5.913   1.769  0.2384  1.0496  0.8475
 7057TIP3    H242807   5.698   5.962   1.633 -0.7638 -1.3693 -0.4241
 7058TIP3   OH242808   3.380   5.012   1.844  0.4323 -0.0145 -0.0155
 7058TIP3    H142809   3.288   4.987   1.851  0.2286  0.5948 -0.4738
 7058TIP3    H242810   3.428   4.931   1.862 -0.2101 -0.8398 -1.8399
 7059TIP3   OH242811   6.074   1.174   2.686  0.6110 -0.0862  0.1824
 7059TIP3    H142812   6.065   1.109   2.755  0.6007  0.1585  0.4150
 7059TIP3    H242813   6.040   1.255   2.725 -0.4689 -0.1925 -0.4840
 7060TIP3   OH242814   2.016   5.643   0.692 -0.3970 -0.1521 -0.3734
 7060TIP3    H142815   1.931   5.599   0.683 -0.3922 -0.5399  1.1847
 7060TIP3    H242816   2.033   5.642   0.786  1.0002  0.5796 -0.6010
 7061TIP3   OH242817   2.582   2.784   2.527  0.5753 -0.2151 -0.6752
 7061TIP3    H142818   2.573   2.752   2.617  1.2238 -2.6636 -1.4009
 7061TIP3    H242819   2.493   2.800   2.498  0.2700 -0.5825  0.0311
 7062TIP3   OH242820   4.866   3.905   2.792 -0.0377  0.0219  0.6011
 7062TIP3    H142821   4.950   3.905   2.840  0.0091 -3.1388  0.7041
 7062TIP3    H242822   4.818   3.979   2.829  2.1021  0.9931  1.6350
 7063TIP3   OH242823   1.011   4.718   2.858 -0.6086 -0.7112 -0.9561
 7063TIP3    H142824   1.105   4.731   2.873 -0.8411  1.7428 -1.1337
 7063TIP3    H242825   1.005   4.692   2.766 -0.1219  0.2077 -1.2687
 7064TIP3   OH242826   1.677   5.551   0.888  0.5551  0.5271  0.1136
 7064TIP3    H142827   1.702   5.624   0.945  0.7808  1.3946 -1.0613
 7064TIP3    H242828   1.739   5.482   0.910  1.1096  1.1035  0.4178
 7065TIP3   OH242829   5.270   2.622   2.435  0.7098  0.7351  0.6189
 7065TIP3    H142830   5.318   2.608   2.517  1.2311  0.7818  0.3246
 7065TIP3    H242831   5.338   2.646   2.372  0.1461  2.1549  0.5125
 7066TIP3   OH242832   6.197   3.383   8.686  0.4214 -0.6440  0.0780
 7066TIP3    H142833   6.136   3.357   8.755 -0.7324 -2.1975 -1.4255
 7066TIP3    H242834   6.249   3.304   8.669  1.4258  0.0360 -0.1053
 7067TIP3   OH242835   4.006   4.203   7.416 -0.2496  0.4531 -0.8227
 7067TIP3    H142836   3.925   4.201   7.366  0.1904  0.6044 -1.5432
 7067TIP3    H242837   4.072   4.233   7.355  0.5010 -0.3925 -0.4577
 7068TIP3   OH242838   1.067   2.228   1.620 -0.0919 -0.1243  0.3595
 7068TIP3    H142839   1.141   2.252   1.675 -0.9683  0.0976  1.4829
 7068TIP3    H242840   1.020   2.311   1.607 -0.2542 -0.2972 -0.1967
 7069TIP3   OH242841   0.884   6.529   2.546 -0.3160  0.0967 -0.2902
 7069TIP3    H142842   0.906   6.453   2.600 -0.9556  0.9378  1.2276
 7069TIP3    H242843   0.857   6.492   2.462 -1.3384 -1.4341  0.6568
 7070TIP3   OH242844   5.511   1.996   2.335  0.4455 -0.6507  0.0721
 7070TIP3    H142845   5.575   1.977   2.403  0.4111 -1.6483 -0.1619
 7070TIP3    H242846   5.431   1.954   2.365  0.3245 -0.7614 -0.3959
 7071TIP3   OH242847   3.300   2.987   2.187 -0.1370  0.8492 -0.3030
 7071TIP3    H142848   3.329   2.903   2.221 -0.3211  0.3211 -1.4014
 7071TIP3    H242849   3.343   3.052   2.242 -1.5114  0.0575  1.8291
 7072TIP3   OH242850   4.554   0.485   1.764  0.2352 -0.3647 -0.2790
 7072TIP3    H142851   4.572   0.534   1.684  2.8819 -1.9065 -0.7468
 7072TIP3    H242852   4.493   0.417   1.738 -0.2715  0.1913 -0.5599
 7073TIP3   OH242853   4.171   5.200   1.176 -0.0399  0.1459  0.5665
 7073TIP3    H142854   4.239   5.134   1.186 -0.5268 -0.4974 -0.2768
 7073TIP3    H242855   4.172   5.249   1.258 -0.9147 -2.0822  1.9883
 7074TIP3   OH242856   3.554   1.251   6.943 -0.7598  0.3662  0.7479
 7074TIP3    H142857   3.558   1.162   6.979 -0.6433 -0.2464 -0.6869
 7074TIP3    H242858   3.464   1.280   6.961 -0.8262 -0.0764  1.1510
 7075TIP3   OH242859   2.220   6.200   7.626  0.5619  0.3439 -0.0900
 7075TIP3    H142860   2.128   6.202   7.603  0.9148 -0.2154 -1.6528
 7075TIP3    H242861   2.258   6.278   7.587  0.8400  0.3337  0.1472
 7076TIP3   OH242862   3.937   4.010   1.483 -0.3308 -0.2263 -0.0665
 7076TIP3    H142863   3.935   4.025   1.577  1.1480  0.8235 -0.1789
 7076TIP3    H242864   4.029   4.019   1.458 -0.1314 -3.5288 -1.1626
 7077TIP3   OH242865   1.411   3.948   1.167  0.7209 -0.3332 -0.3762
 7077TIP3    H142866   1.404   3.891   1.090  1.5105  1.5299 -1.9107
 7077TIP3    H242867   1.502   3.938   1.196  0.8574  0.1049 -0.6397
 7078TIP3   OH242868   2.580   3.506   1.150 -0.1791  0.2463 -0.0223
 7078TIP3    H142869   2.599   3.417   1.182  0.0427  0.4539  0.4361
 7078TIP3    H242870   2.600   3.562   1.225 -0.8083  0.6392 -0.1477
 7079TIP3   OH242871   3.652   2.937   8.450 -0.6343 -0.3438  0.2917
 7079TIP3    H142872   3.557   2.931   8.455 -0.7576 -1.3754 -1.9427
 7079TIP3    H242873   3.672   2.923   8.357  1.6220  1.2089  0.4582
 7080TIP3   OH242874   4.564   5.311   8.809  0.3011 -0.4892 -0.4789
 7080TIP3    H142875   4.571   5.306   8.713  1.2746  0.0893 -0.4487
 7080TIP3    H242876   4.525   5.227   8.834  1.4417 -1.2940 -1.2657
 7081TIP3   OH242877   4.058   0.486   0.043 -0.0983  0.6560  0.2003
 7081TIP3    H142878   4.011   0.418   0.092 -1.4556  1.2766 -0.1980
 7081TIP3    H242879   4.123   0.519   0.105  0.3596 -0.7550  0.5111
 7082TIP3   OH242880   4.652   5.334   1.423  0.0378 -0.1863 -0.1677
 7082TIP3    H142881   4.558   5.338   1.407 -0.1007  1.3087  0.8093
 7082TIP3    H242882   4.684   5.421   1.400  1.1983 -0.6729 -0.4867
 7083TIP3   OH242883   1.377   0.820   8.076  0.2103 -0.5613 -0.0433
 7083TIP3    H142884   1.409   0.804   7.987  1.4569  0.2979  0.2245
 7083TIP3    H242885   1.416   0.904   8.100  0.3489 -1.0498  1.5220
 7084TIP3   OH242886   6.488   5.382   0.649  0.0096  0.1320  0.3425
 7084TIP3    H142887   6.552   5.370   0.719  0.4787  0.3212 -0.0440
 7084TIP3    H242888   6.514   5.319   0.582 -0.8302 -0.5032  0.6071
 7085TIP3   OH242889   3.899   4.215   0.017  0.0548 -0.0025  0.1822
 7085TIP3    H142890   3.933   4.206  -0.072 -0.8726  0.0013 -0.1719
 7085TIP3    H242891   3.939   4.142   0.065 -3.7630 -3.6233 -1.5740
 7086TIP3   OH242892   2.326   4.774   2.761  0.6872  0.4775 -0.6746
 7086TIP3    H142893   2.277   4.827   2.823 -0.4327  0.3437 -1.4053
 7086TIP3    H242894   2.272   4.775   2.681 -0.6246 -3.5486 -0.1013
 7087TIP3   OH242895   0.324   5.293   0.754  0.0779 -0.1410  0.5856
 7087TIP3    H142896   0.339   5.377   0.709  1.7783 -1.7698 -2.2364
 7087TIP3    H242897   0.382   5.295   0.830  0.4429  1.0551  0.2910
 7088TIP3   OH242898   1.826   0.295   1.809 -0.0076 -0.3453  0.5907
 7088TIP3    H142899   1.741   0.256   1.830 -0.7914 -0.2137 -1.9474
 7088TIP3    H242900   1.886   0.221   1.803 -0.4247 -0.6676  0.3754
 7089TIP3   OH242901   0.266   0.228   1.195  0.1410  0.0480 -0.0973
 7089TIP3    H142902   0.336   0.179   1.237  1.0211 -0.7526 -2.3096
 7089TIP3    H242903   0.305   0.313   1.174 -0.1388  0.2653  0.2473
 7090TIP3   OH242904   1.183   6.191   2.394 -0.1752 -0.0669  0.2513
 7090TIP3    H142905   1.238   6.213   2.318 -1.2769  0.8787 -0.2959
 7090TIP3    H242906   1.138   6.273   2.415 -0.5211 -0.5435  1.3993
 7091TIP3   OH242907   5.323   0.023   8.669  0.0590  0.0473  0.0103
 7091TIP3    H142908   5.342   0.117   8.675  2.5635 -0.4193  0.6045
 7091TIP3    H242909   5.355  -0.003   8.582 -2.9534  0.1166 -1.2507
 7092TIP3   OH242910   4.387   5.292   0.212  0.0785  0.0114  0.5445
 7092TIP3    H142911   4.349   5.332   0.134  0.1309 -0.5295  0.2386
 7092TIP3    H242912   4.322   5.229   0.241  0.1906 -0.0038  0.7698
 7093TIP3   OH242913   2.698   2.493   3.055 -0.0337 -0.3190 -0.4113
 7093TIP3    H142914   2.745   2.439   3.118  1.3969 -2.7763 -3.3337
 7093TIP3    H242915   2.756   2.498   2.979 -1.3511  3.0659 -1.3750
 7094TIP3   OH242916   3.525   5.763   2.424  0.5040 -0.1457  0.5139
 7094TIP3    H142917   3.573   5.733   2.501 -0.2881 -1.3157  0.5739
 7094TIP3    H242918   3.555   5.708   2.352  1.2897  0.9850 -0.0617
 7095TIP3   OH242919   0.521   3.812   9.172 -0.9606 -0.4786  0.5100
 7095TIP3    H142920   0.466   3.734   9.180  0.8646 -1.9826 -0.6606
 7095TIP3    H242921   0.552   3.809   9.082  0.5460  0.6294  0.9649
 7096TIP3   OH242922   5.336   1.499   0.613  0.4378 -0.4177  0.5560
 7096TIP3    H142923   5.403   1.457   0.559  0.2990  1.0247 -0.8318
 7096TIP3    H242924   5.377   1.509   0.699  1.6060 -0.5149  0.0224
 7097TIP3   OH242925   2.980   6.484   2.008 -0.9397  0.7103 -0.4815
 7097TIP3    H142926   2.996   6.432   1.929 -1.7546  0.7160 -0.6633
 7097TIP3    H242927   3.024   6.567   1.992 -1.1672  0.7390 -0.9631
 7098TIP3   OH242928   1.679   4.750   1.239 -0.1633  0.1555  0.4822
 7098TIP3    H142929   1.636   4.832   1.263 -0.6793 -0.1453  0.5939
 7098TIP3    H242930   1.616   4.705   1.182  0.0845 -0.1977  0.4830
 7099TIP3   OH242931   0.388   4.527   1.451 -0.3277  0.0002  0.1234
 7099TIP3    H142932   0.308   4.526   1.399  0.1574  1.2205 -0.6749
 7099TIP3    H242933   0.453   4.572   1.397  0.0040  1.9914  1.9969
 7100TIP3   OH242934   2.890   2.563   1.773  0.3107 -0.1456  0.2265
 7100TIP3    H142935   2.839   2.644   1.783 -1.3128 -0.9235 -1.2119
 7100TIP3    H242936   2.948   2.562   1.849 -0.6309  1.6514  1.0422
 7101TIP3   OH242937   6.536   3.287   8.840 -0.3441  0.2336  0.1146
 7101TIP3    H142938   6.604   3.351   8.818 -1.0554  1.3632  1.0984
 7101TIP3    H242939   6.501   3.259   8.755 -0.5546  1.7680 -0.3332
 7102TIP3   OH242940   0.448   4.737   0.341 -0.0653 -0.1317  0.7056
 7102TIP3    H142941   0.392   4.747   0.418  1.3036  0.1387  1.7257
 7102TIP3    H242942   0.523   4.794   0.359 -0.6435  1.6124 -1.8097
 7103TIP3   OH242943   1.707   5.515   1.948 -0.2187  0.0519 -0.0298
 7103TIP3    H142944   1.729   5.553   1.863 -1.5562  0.7804 -0.0703
 7103TIP3    H242945   1.733   5.423   1.940  0.1873  0.2397 -1.0263
 7104TIP3   OH242946   3.679   3.774   8.144  0.3576 -0.2169 -0.2977
 7104TIP3    H142947   3.655   3.798   8.055  0.6232 -1.1909 -0.6481
 7104TIP3    H242948   3.638   3.689   8.158  0.8475 -0.3662  0.2810
 7105TIP3   OH242949   3.959   1.537   2.879  0.0771 -0.3673 -0.5277
 7105TIP3    H142950   4.040   1.574   2.914 -0.9376  2.0225 -0.5209
 7105TIP3    H242951   3.984   1.451   2.846  2.1171 -0.6223  1.5060
 7106TIP3   OH242952   0.491   5.320   9.047 -0.1562 -0.5435  0.0188
 7106TIP3    H142953   0.405   5.333   9.007 -0.2642  0.6876  0.6188
 7106TIP3    H242954   0.540   5.400   9.028 -0.2009  0.0978  2.2477
 7107TIP3   OH242955   5.311   3.464   8.321 -0.2842  0.5081 -0.0267
 7107TIP3    H142956   5.303   3.517   8.401 -1.1734  0.7155 -0.2394
 7107TIP3    H242957   5.344   3.525   8.255  0.6105  0.2969  0.2119
 7108TIP3   OH242958   0.968   2.294   9.187 -0.4871  0.0808  0.5677
 7108TIP3    H142959   1.000   2.361   9.126  0.1903 -0.4808  0.2946
 7108TIP3    H242960   0.890   2.333   9.226 -0.3461  0.8611  0.0986
 7109TIP3   OH242961   5.217   0.278   1.880  0.5473  0.3908  0.2600
 7109TIP3    H142962   5.211   0.332   1.959 -0.2726 -0.1005  0.5521
 7109TIP3    H242963   5.306   0.244   1.880  0.2482 -0.4878  1.5891
 7110TIP3   OH242964   4.677   1.750   2.107 -0.0560  0.4157 -0.6899
 7110TIP3    H142965   4.713   1.838   2.093 -0.6385  0.5781 -1.2303
 7110TIP3    H242966   4.583   1.764   2.113 -0.0192  0.1179  1.6287
 7111TIP3   OH242967   5.048   4.308   2.473  0.1948  0.9398  0.2110
 7111TIP3    H142968   5.019   4.282   2.560  2.6120 -0.8949  0.5679
 7111TIP3    H242969   4.994   4.257   2.413 -0.6213  1.2785  0.6376
 7112TIP3   OH242970   3.508   0.732   1.721 -0.2083 -0.1083 -0.0771
 7112TIP3    H142971   3.457   0.809   1.745 -0.6495 -0.4309  0.0238
 7112TIP3    H242972   3.526   0.688   1.804 -1.1017 -0.8236 -0.2432
 7113TIP3   OH242973   1.680   3.875   1.182  0.0482  0.3157 -0.4696
 7113TIP3    H142974   1.685   3.845   1.091  2.0538  0.0508 -0.3094
 7113TIP3    H242975   1.692   3.795   1.234 -1.9517  0.3168  0.0966
 7114TIP3   OH242976   1.898   4.819   8.963 -0.1572 -0.6405  0.0415
 7114TIP3    H142977   1.909   4.913   8.977 -1.5005 -0.4092 -0.2755
 7114TIP3    H242978   1.908   4.780   9.050 -1.2812  0.0036  0.4870
 7115TIP3   OH242979   3.654   3.325   0.105 -0.1332 -0.0917  0.1751
 7115TIP3    H142980   3.597   3.378   0.162  0.0155  0.4536 -0.1777
 7115TIP3    H242981   3.599   3.252   0.079  0.0466 -0.8041  1.6830
 7116TIP3   OH242982   2.167   5.300   0.837  0.0563  0.1914  0.6209
 7116TIP3    H142983   2.105   5.231   0.858 -1.3888  1.3421  0.2994
 7116TIP3    H242984   2.250   5.255   0.821 -1.1761 -1.6157 -1.0786
 7117TIP3   OH242985   1.127   0.491   1.683  0.0803  0.7213  0.0162
 7117TIP3    H142986   1.050   0.455   1.727  0.6398  0.7621  1.0701
 7117TIP3    H242987   1.200   0.439   1.716  0.4266  0.0846 -1.6592
 7118TIP3   OH242988   5.727   0.114   8.957 -0.7527  0.1603 -0.0992
 7118TIP3    H142989   5.755   0.101   9.048 -0.8285 -2.6625 -0.3901
 7118TIP3    H242990   5.633   0.131   8.963 -0.8824 -0.6486  0.3461
 7119TIP3   OH242991   5.431   5.765   2.073  0.5764  0.9651 -0.4271
 7119TIP3    H142992   5.424   5.704   2.146 -0.4523 -0.6007 -1.7494
 7119TIP3    H242993   5.487   5.720   2.009  2.4367  2.7957 -0.1981
 7120TIP3   OH242994   0.818   5.996   0.193  0.5071  0.0788  0.1895
 7120TIP3    H142995   0.748   5.961   0.137  0.2845 -0.7091  0.9273
 7120TIP3    H242996   0.886   6.023   0.132  0.7525 -1.7945 -0.4503
 7121TIP3   OH242997   2.033   3.655   0.165 -0.0479 -0.3009  0.3484
 7121TIP3    H142998   2.078   3.572   0.180  0.6988 -0.1299 -0.8676
 7121TIP3    H242999   2.053   3.677   0.074 -2.7727 -0.3195 -0.3319
 7122TIP3   OH243000   3.326   1.227   9.077  0.1889  0.5822 -0.2807
 7122TIP3    H143001   3.318   1.294   9.010  0.8213  0.2437 -0.7129
 7122TIP3    H243002   3.420   1.206   9.078  0.2310  0.7504  0.8744
 7123TIP3   OH243003   1.353   3.222   2.350  0.2894  0.5381  0.2436
 7123TIP3    H143004   1.295   3.189   2.418  0.5150  0.1558  0.2504
 7123TIP3    H243005   1.338   3.317   2.351  2.3180  0.9389  2.7591
 7124TIP3   OH243006   1.164   2.683   2.624  0.3138 -0.1761  0.9569
 7124TIP3    H143007   1.074   2.659   2.602  0.4463 -1.6079  1.7948
 7124TIP3    H243008   1.195   2.610   2.679  2.0360  0.1999  0.5485
 7125TIP3   OH243009   5.761   5.692   2.044 -0.3837  0.2080 -0.1635
 7125TIP3    H143010   5.775   5.603   2.078 -2.3111 -0.1535 -0.1971
 7125TIP3    H243011   5.753   5.681   1.950  1.9204  0.8121 -0.4911
 7126TIP3   OH243012   2.145   3.118   7.675 -0.0668  0.4621 -0.0071
 7126TIP3    H143013   2.220   3.071   7.710 -0.6124 -1.1849 -0.9469
 7126TIP3    H243014   2.086   3.050   7.641 -1.0715  1.7859 -1.0936
 7127TIP3   OH243015   1.240   5.563   0.650 -0.3046  0.4915  0.4344
 7127TIP3    H143016   1.293   5.536   0.725  2.2263  0.1309 -1.3591
 7127TIP3    H243017   1.150   5.565   0.683  0.3996 -2.0144  2.8206
 7128TIP3   OH243018   0.646   6.615   0.015  0.5184  0.0397  0.0319
 7128TIP3    H143019   0.741   6.613   0.005  0.5361  1.2049 -0.1855
 7128TIP3    H243020   0.632   6.671   0.092  0.0107 -0.1987  0.1159
 7129TIP3   OH243021   1.284   5.011   2.007  0.8962 -0.5165  0.2161
 7129TIP3    H143022   1.216   4.977   2.064  0.3462  0.5808  0.2367
 7129TIP3    H243023   1.237   5.059   1.939  1.6258  0.0968  0.1278
 7130TIP3   OH243024   3.911   1.692   0.604  0.4631  0.1128 -0.1114
 7130TIP3    H143025   3.818   1.695   0.627  0.0316 -1.3048 -1.4903
 7130TIP3    H243026   3.926   1.771   0.552  0.0494  0.3715  0.1573
 7131TIP3   OH243027   2.172   1.315   1.280 -0.1992 -0.2329  0.2705
 7131TIP3    H143028   2.147   1.278   1.196  0.1167  2.9302 -1.3844
 7131TIP3    H243029   2.099   1.372   1.304  0.0712 -0.4660  1.7765
 7132TIP3   OH243030   5.744   1.305   0.654  0.6396  0.1896  0.0154
 7132TIP3    H143031   5.684   1.314   0.580  0.0545  1.5271  0.6188
 7132TIP3    H243032   5.823   1.350   0.626  0.3300  0.9100  0.2876
 7133TIP3   OH243033   4.887   1.149   7.620 -0.0021 -0.6498  0.0911
 7133TIP3    H143034   4.968   1.100   7.637  0.2347  0.0491  1.1003
 7133TIP3    H243035   4.909   1.206   7.546  0.6319 -0.0436  0.7292
 7134TIP3   OH243036   0.773   1.072   2.103 -0.3412  0.6907 -0.1364
 7134TIP3    H143037   0.776   1.163   2.075 -0.0876  0.8270  0.3376
 7134TIP3    H243038   0.825   1.025   2.037 -0.1875  0.9359 -0.1917
 7135TIP3   OH243039   2.024   5.555   8.955  0.0710  0.6378  0.0630
 7135TIP3    H143040   1.983   5.510   8.881 -0.1524  0.1890  0.4579
 7135TIP3    H243041   2.030   5.646   8.926 -1.4794  0.7838  0.0926
 7136TIP3   OH243042   0.872   3.924   8.746  0.1755 -0.1881 -0.2691
 7136TIP3    H143043   0.928   3.873   8.804  0.4663  1.0524  0.5787
 7136TIP3    H243044   0.854   3.865   8.672  0.3339 -1.5766  0.7425
 7137TIP3   OH243045   4.000   5.273   8.198 -0.0271  0.2756  0.2657
 7137TIP3    H143046   3.987   5.194   8.251 -4.0751  0.7824  0.3190
 7137TIP3    H243047   3.992   5.242   8.108 -2.0798  0.5777  0.2959
 7138TIP3   OH243048   3.683   4.769   8.389 -0.3178  0.1271 -0.5967
 7138TIP3    H143049   3.648   4.851   8.355 -0.6965  0.6722  1.0272
 7138TIP3    H243050   3.741   4.737   8.320  0.7934  2.3681 -0.7780
 7139TIP3   OH243051   2.172   2.740   8.447 -0.3090 -0.7888 -0.6703
 7139TIP3    H143052   2.265   2.718   8.438 -0.2101  0.0954 -2.0304
 7139TIP3    H243053   2.141   2.681   8.516  1.4496 -0.4999  0.4482
 7140TIP3   OH243054   3.157   2.105   2.299 -0.1861 -0.4862 -0.5610
 7140TIP3    H143055   3.244   2.144   2.306  0.9140 -2.5151 -1.9055
 7140TIP3    H243056   3.106   2.148   2.367  1.3984  1.9332 -0.7762
 7141TIP3   OH243057   0.619   5.997   2.641 -0.0448  0.7871  0.3330
 7141TIP3    H143058   0.527   6.001   2.612 -0.0400 -1.2696 -0.1722
 7141TIP3    H243059   0.656   5.924   2.590  1.0513 -0.3752  2.6619
 7142TIP3   OH243060   5.561   3.644   0.059  0.3588 -0.6974 -0.2037
 7142TIP3    H143061   5.511   3.654  -0.022 -0.6375 -1.8508  0.2236
 7142TIP3    H243062   5.509   3.582   0.110  0.6012  0.5357  1.6140
 7143TIP3   OH243063   4.824   5.701   1.043  0.0764  0.5956 -0.5770
 7143TIP3    H143064   4.803   5.737   0.956 -2.6676 -2.1146 -1.2042
 7143TIP3    H243065   4.810   5.774   1.103  2.0034  2.5410 -2.3122
 7144TIP3   OH243066   5.971   6.577   2.243 -0.0030  0.3529 -0.1523
 7144TIP3    H143067   5.876   6.575   2.256  0.1652 -0.1670  1.1259
 7144TIP3    H243068   5.998   6.485   2.246  0.5780  0.5202 -0.1729
 7145TIP3   OH243069   0.615   3.043   8.646  0.2665  0.2622  0.2429
 7145TIP3    H143070   0.635   3.130   8.679  0.5158  0.0126  0.7602
 7145TIP3    H243071   0.698   3.011   8.611 -0.0154  0.5635 -0.7307
 7146TIP3   OH243072   2.958   6.112   7.606  0.4756 -0.1338 -0.1167
 7146TIP3    H143073   2.887   6.107   7.670 -1.9195  2.5337 -2.3193
 7146TIP3    H243074   2.968   6.206   7.588  2.0514 -0.6769 -2.5691
 7147TIP3   OH243075   4.145   0.498   2.428  0.4887  0.7608  0.1288
 7147TIP3    H143076   4.214   0.564   2.439  1.6358 -0.3782  0.1408
 7147TIP3    H243077   4.126   0.467   2.517  0.5880  0.4806  0.0560
 7148TIP3   OH243078   1.127   0.058   8.084  0.1159  0.1633  0.0387
 7148TIP3    H143079   1.062  -0.012   8.079 -0.4746  0.7032  0.0913
 7148TIP3    H243080   1.156   0.070   7.994  1.3988 -1.2312  0.2274
 7149TIP3   OH243081   1.252   1.339   0.036 -0.0049 -0.1062  0.0506
 7149TIP3    H143082   1.162   1.364   0.017 -0.3534 -1.0699  0.3391
 7149TIP3    H243083   1.281   1.401   0.102 -0.1885  0.6893 -0.6021
 7150TIP3   OH243084   2.474   5.237   3.310  0.3569 -0.1845  0.6336
 7150TIP3    H143085   2.402   5.294   3.338 -0.1804  0.3317 -1.6544
 7150TIP3    H243086   2.441   5.191   3.234  2.1480 -0.6078  0.0593
 7151TIP3   OH243087   0.251   3.254   0.313 -0.0078 -0.3862 -0.3239
 7151TIP3    H143088   0.196   3.193   0.265  0.2358 -0.7945 -0.0861
 7151TIP3    H243089   0.214   3.255   0.401 -0.5958  0.5335 -0.5601
 7152TIP3   OH243090   2.488   3.916   1.474  0.5396 -0.1106  0.1356
 7152TIP3    H143091   2.448   3.938   1.389 -0.3075 -1.7859  0.0557
 7152TIP3    H243092   2.556   3.982   1.486 -1.5140  2.2300 -0.2485
 7153TIP3   OH243093   2.011   4.591   0.894  0.3778  0.0710 -0.4660
 7153TIP3    H143094   2.048   4.553   0.973  0.5604  1.2831  0.0472
 7153TIP3    H243095   1.945   4.528   0.865 -0.5023  0.1412  1.2871
 7154TIP3   OH243096   2.334   2.607   1.672  0.3142  0.1715  0.6959
 7154TIP3    H143097   2.268   2.538   1.668 -0.4826  0.9799 -2.3636
 7154TIP3    H243098   2.417   2.562   1.660  0.2192 -0.6333  2.6786
 7155TIP3   OH243099   0.941   6.154   0.666  0.0342 -0.1100  0.0483
 7155TIP3    H143100   0.895   6.093   0.724  1.9672  0.5753  2.4449
 7155TIP3    H243101   0.936   6.238   0.711  1.0572  0.6063 -1.1188
 7156TIP3   OH243102   4.341   5.066   8.345 -0.4563  0.3450 -0.4337
 7156TIP3    H143103   4.372   4.996   8.403 -0.9817  0.9214  0.5664
 7156TIP3    H243104   4.416   5.085   8.288  0.2417  0.1135  0.3950
 7157TIP3   OH243105   3.339   2.624   0.966  0.1797 -0.2266 -0.6988
 7157TIP3    H143106   3.419   2.668   0.940  0.7953  0.5682  2.2077
 7157TIP3    H243107   3.269   2.681   0.935  0.8627  0.7078 -0.5713
 7158TIP3   OH243108   3.080   5.770   8.277 -0.2933 -0.1184  0.2758
 7158TIP3    H143109   3.130   5.694   8.246  2.1813  2.0481 -1.4027
 7158TIP3    H243110   3.055   5.816   8.197 -0.7069  1.4659  1.2852
 7159TIP3   OH243111   1.080   2.575   2.286  0.2204 -0.5467 -0.2452
 7159TIP3    H143112   1.084   2.661   2.245  2.5605  0.5315  1.9689
 7159TIP3    H243113   1.021   2.586   2.361  0.6533 -0.7893  0.1403
 7160TIP3   OH243114   2.191   5.052   2.699 -0.1917 -0.0532  0.2516
 7160TIP3    H143115   2.137   5.058   2.621 -0.9696  0.2107  0.7989
 7160TIP3    H243116   2.176   5.134   2.746  1.6605  0.5791 -0.1937
 7161TIP3   OH243117   0.783   5.831   8.639 -0.0237  0.7615  0.4835
 7161TIP3    H143118   0.751   5.827   8.549  0.1218  2.7747  0.2902
 7161TIP3    H243119   0.871   5.867   8.632  0.7403 -0.8486  1.3189
 7162TIP3   OH243120   2.508   0.362   0.619 -0.0937  0.6554 -0.3860
 7162TIP3    H143121   2.575   0.363   0.687 -2.0688  0.0845  1.6976
 7162TIP3    H243122   2.463   0.278   0.632 -1.4038  1.1665 -1.4831
 7163TIP3   OH243123   5.420   0.562   1.154  0.1936  0.1662  0.3180
 7163TIP3    H143124   5.366   0.628   1.111 -0.2541 -0.6863 -0.4768
 7163TIP3    H243125   5.422   0.588   1.246 -0.2563  1.0889  0.0747
 7164TIP3   OH243126   5.251   6.528   9.067  0.1762  0.6047  0.3505
 7164TIP3    H143127   5.250   6.543   8.973 -1.5262 -0.5635  0.1555
 7164TIP3    H243128   5.226   6.613   9.104 -0.3875  0.7354 -0.3074
 7165TIP3   OH243129   3.451   4.868   0.846  0.8533 -1.0538  0.2359
 7165TIP3    H143130   3.544   4.888   0.848  0.6952 -0.3272  0.6791
 7165TIP3    H243131   3.445   4.774   0.866  1.3990 -0.8026  1.6424
 7166TIP3   OH243132   1.780   1.032   7.527 -0.3124 -0.2196 -0.2632
 7166TIP3    H143133   1.805   0.968   7.594  1.3152 -0.5078 -1.0834
 7166TIP3    H243134   1.839   1.014   7.454 -0.5347  1.5440 -0.9251
 7167TIP3   OH243135   0.099   3.466   9.062 -0.2181 -0.3563 -0.1784
 7167TIP3    H143136   0.102   3.420   9.146 -1.2778 -0.7324 -0.3354
 7167TIP3    H243137   0.172   3.429   9.012 -0.7091 -1.4833 -0.0997
 7168TIP3   OH243138   3.559   6.333   8.223  0.2640 -0.1641 -0.3808
 7168TIP3    H143139   3.557   6.326   8.127 -1.3909 -0.6853 -0.3393
 7168TIP3    H243140   3.521   6.418   8.242 -1.2739 -0.8768 -0.1470
 7169TIP3   OH243141   3.183   5.630   1.189 -0.6205 -0.1006  0.6809
 7169TIP3    H143142   3.158   5.699   1.251 -0.3760  0.1900  0.4568
 7169TIP3    H243143   3.190   5.674   1.105 -1.9600 -0.6821  0.2326
 7170TIP3   OH243144   5.460   2.334   2.392 -0.1117  0.0284 -0.1908
 7170TIP3    H143145   5.451   2.389   2.470  2.5095 -2.3046  1.9806
 7170TIP3    H243146   5.540   2.366   2.350  0.2073 -0.7083 -0.1532
 7171LIG     C143147   5.529   3.011   7.153 -0.2197 -0.6163 -0.8832
 7171LIG     N143148   5.525   3.052   7.297 -0.0149  0.4095  0.5068
 7171LIG     C243149   5.413   3.050   7.376  0.0165  0.4473  0.0725
 7171LIG     N243150   5.438   3.096   7.500 -0.2620 -0.0886  0.0396
 7171LIG     C343151   5.578   3.118   7.503  0.1256 -0.1805  0.3414
 7171LIG     C443152   5.632   3.090   7.373 -0.2339  0.0408  0.5273
 7171LIG     C543153   5.768   3.115   7.343  0.1215  0.2021  0.2323
 7171LIG     O143154   5.819   3.088   7.235 -0.1977 -0.2238 -0.4470
 7171LIG     N343155   5.841   3.169   7.451 -0.3205  0.4707 -0.1701
 7171LIG     C643156   5.792   3.202   7.580 -0.1672 -0.7092 -0.6647
 7171LIG     O243157   5.866   3.257   7.666  0.1624 -0.3264  0.0167
 7171LIG     N443158   5.657   3.176   7.606  0.4386  0.1517 -0.0058
 7171LIG     C743159   5.618   3.219   7.740 -0.2540 -0.3704 -0.7381
 7171LIG     C843160   5.985   3.189   7.430 -0.9569 -0.4103  0.1877
 7171LIG     H143161   5.559   3.105   7.101  1.9947 -1.3306 -0.9958
 7171LIG     H243162   5.429   2.973   7.126 -0.1854 -1.7718  0.5417
 7171LIG     H343163   5.607   2.936   7.126 -0.4165 -0.7328 -1.1294
 7171LIG     H443164   5.316   3.018   7.338  0.2932  0.9054 -1.0677
 7171LIG     H543165   5.523   3.167   7.763  0.3341 -1.3297 -0.3943
 7171LIG     H643166   5.609   3.329   7.736 -1.5590 -0.2916  2.0049
 7171LIG     H743167   5.689   3.189   7.820 -1.8373 -0.1556  0.8136
 7171LIG     H843168   6.008   3.296   7.414  2.9001 -1.0273  0.6682
 7171LIG     H943169   6.020   3.139   7.337  1.2490  1.0518  0.1793
 7171LIG    H1043170   6.043   3.153   7.517 -1.0505 -1.5788 -0.2105
   6.71053   6.71053   9.21593
