Title
43188
    1CHL1    C3    1   2.063   5.822   6.149 -0.5716  0.1975 -0.4005
    1CHL1    H3    2   2.136   5.747   6.111  0.2481  0.7444  0.0607
    1CHL1    O3    3   2.064   5.822   6.291  0.2590  0.0334 -0.0055
    1CHL1   H3'    4   2.067   5.914   6.318  2.0608 -0.2442  0.8573
    1CHL1    C4    5   2.112   5.959   6.113  0.2846 -0.1549 -0.6555
    1CHL1   H4A    6   2.041   6.028   6.164 -0.7806 -1.0607 -0.8776
    1CHL1   H4B    7   2.218   5.975   6.144  0.5321 -1.2439 -0.9059
    1CHL1    C5    8   2.092   5.992   5.966  0.0394 -1.3620  0.4667
    1CHL1    C6    9   2.200   6.028   5.890  0.2164  0.8934 -0.1006
    1CHL1    H6   10   2.299   6.024   5.939  0.3477  1.6931 -0.2821
    1CHL1    C7   11   2.181   6.061   5.740 -0.1619  0.5063  0.2536
    1CHL1   H7A   12   2.220   6.159   5.705 -0.9103  0.7026 -0.0497
    1CHL1   H7B   13   2.247   5.998   5.676  1.7879  2.4927  0.1994
    1CHL1    C8   14   2.043   6.064   5.687  0.3570 -0.3012  0.4367
    1CHL1    H8   15   2.002   6.166   5.698  1.5599  0.5058 -1.7980
    1CHL1   C14   16   2.043   6.042   5.531  0.9752  0.2924  0.1977
    1CHL1   H14   17   2.087   5.941   5.516  2.7714  0.9515  0.7481
    1CHL1   C15   18   2.121   6.140   5.449 -0.2065 -0.2694  0.8913
    1CHL1  H15A   19   2.101   6.245   5.480  0.5777 -0.1103  0.8742
    1CHL1  H15B   20   2.229   6.114   5.454 -0.0718 -0.0114 -0.3093
    1CHL1   C16   21   2.065   6.133   5.305  0.0911 -0.5770  0.4974
    1CHL1  H16A   22   2.027   6.234   5.278  1.3282 -0.6407 -1.7323
    1CHL1  H16B   23   2.140   6.104   5.228  0.8658  1.1622  0.5587
    1CHL1   C17   24   1.937   6.030   5.316 -0.7700  0.6584 -0.3595
    1CHL1   H17   25   1.979   5.929   5.296  0.0217  0.6259  1.3109
    1CHL1   C13   26   1.903   6.039   5.464  0.2693 -0.2766 -0.2956
    1CHL1   C18   27   1.829   6.175   5.486  0.4313 -0.7390 -0.7190
    1CHL1  H18A   28   1.845   6.207   5.591 -0.2062  1.8761 -1.3443
    1CHL1  H18B   29   1.864   6.256   5.418  0.8957 -0.0968  0.2542
    1CHL1  H18C   30   1.723   6.151   5.464  0.8899 -3.2618 -0.4505
    1CHL1   C12   31   1.826   5.920   5.526 -0.7274  0.3661 -0.3828
    1CHL1  H12A   32   1.718   5.918   5.498 -1.6989 -2.3778  2.9645
    1CHL1  H12B   33   1.857   5.817   5.498  0.0060  0.6750 -0.7336
    1CHL1   C11   34   1.813   5.946   5.681 -0.6264 -0.3543  0.2403
    1CHL1  H11A   35   1.747   6.034   5.699 -0.7180 -0.7860  2.3303
    1CHL1  H11B   36   1.761   5.856   5.722 -3.9340  1.1091 -0.4310
    1CHL1    C9   37   1.955   5.957   5.750 -0.9107 -0.0185 -0.4759
    1CHL1    H9   38   2.008   5.862   5.729 -1.5125 -1.6454  4.1985
    1CHL1   C10   39   1.955   5.966   5.906  0.1274 -0.4430  0.0938
    1CHL1   C19   40   1.860   6.074   5.950  0.8239 -0.4379  0.5720
    1CHL1  H19A   41   1.756   6.047   5.921  0.8187  0.3508 -0.1741
    1CHL1  H19B   42   1.860   6.088   6.060  2.9339  0.3731  0.5075
    1CHL1  H19C   43   1.888   6.170   5.903 -1.8968 -0.5490 -1.5978
    1CHL1    C1   44   1.901   5.821   5.956 -0.3181 -0.5577 -0.0981
    1CHL1   H1A   45   1.796   5.815   5.920  0.2040  0.8009 -1.9977
    1CHL1   H1B   46   1.968   5.748   5.908 -0.7414 -1.6450  0.9186
    1CHL1    C2   47   1.915   5.793   6.109 -0.3502  0.0757 -0.3798
    1CHL1   H2A   48   1.892   5.691   6.147 -1.0247  0.6708  0.8731
    1CHL1   H2B   49   1.853   5.872   6.158 -0.8791  0.5479 -1.7606
    1CHL1   C20   50   1.833   6.051   5.201  0.0760  0.2978  0.0973
    1CHL1   H20   51   1.775   6.140   5.233 -0.9736 -0.0886 -0.6467
    1CHL1   C21   52   1.753   5.921   5.194 -0.7073  0.2985 -0.1474
    1CHL1  H21A   53   1.817   5.847   5.143  0.8185 -0.4902  2.6797
    1CHL1  H21B   54   1.671   5.928   5.119  0.1853  0.6303 -1.1096
    1CHL1  H21C   55   1.714   5.889   5.293 -1.7336 -0.3704 -0.7532
    1CHL1   C22   56   1.896   6.092   5.070 -0.5129  0.7526 -0.3458
    1CHL1  H22A   57   1.953   6.186   5.084  0.4019  0.0671  0.6938
    1CHL1  H22B   58   1.973   6.014   5.054 -0.2751  0.5492  1.5463
    1CHL1   C23   59   1.800   6.117   4.951 -0.2188  0.0437  0.2281
    1CHL1  H23A   60   1.870   6.159   4.876 -1.6351  0.7985 -0.7252
    1CHL1  H23B   61   1.766   6.014   4.929  0.8789 -0.1412 -0.6660
    1CHL1   C24   62   1.684   6.213   4.983 -0.3425 -0.3780 -0.4031
    1CHL1  H24A   63   1.634   6.162   5.068  0.4709 -0.3480  0.1020
    1CHL1  H24B   64   1.706   6.317   5.014  0.3478 -0.5285 -0.3711
    1CHL1   C25   65   1.591   6.228   4.861 -0.7852  0.2467  0.1299
    1CHL1   H25   66   1.547   6.129   4.837 -0.0623 -0.8424  2.9101
    1CHL1   C26   67   1.461   6.300   4.895  0.3464  0.2487  0.2337
    1CHL1  H26A   68   1.403   6.233   4.962 -0.1177 -0.9155 -1.2867
    1CHL1  H26B   69   1.481   6.401   4.936  1.3419  0.3258 -0.4123
    1CHL1  H26C   70   1.398   6.309   4.804  0.5576  1.4887  0.2013
    1CHL1   C27   71   1.657   6.284   4.733  0.0499 -0.2414 -0.1815
    1CHL1  H27A   72   1.673   6.394   4.742  0.8274 -0.1381 -2.2726
    1CHL1  H27B   73   1.759   6.243   4.718  0.7930  1.0823  0.9958
    1CHL1  H27C   74   1.586   6.266   4.650  0.6052  0.4525 -0.8242
    2CHL1    C3   75   5.879   6.267   5.744  0.6495  0.1000  0.0331
    2CHL1    H3   76   5.908   6.187   5.673 -2.2494 -0.2240 -0.9286
    2CHL1    O3   77   5.883   6.212   5.877  0.5304  0.4747  0.2447
    2CHL1   H3'   78   5.835   6.273   5.935 -0.2057 -0.2825  0.4509
    2CHL1    C4   79   5.991   6.370   5.719 -0.4514  0.3278 -0.2211
    2CHL1   H4A   80   5.984   6.439   5.805 -0.4008  0.1460 -0.0716
    2CHL1   H4B   81   6.079   6.307   5.741 -0.8114 -0.1645 -0.1862
    2CHL1    C5   82   5.980   6.438   5.581  0.4931 -0.1033  0.3001
    2CHL1    C6   83   6.086   6.437   5.500 -0.3255  0.6065  0.2662
    2CHL1    H6   84   6.179   6.389   5.535  0.4970  1.7813 -0.2602
    2CHL1    C7   85   6.082   6.494   5.362 -0.9083 -0.2212 -0.2291
    2CHL1   H7A   86   6.177   6.542   5.331 -1.6059 -0.4002 -2.9512
    2CHL1   H7B   87   6.073   6.402   5.300 -0.6710 -1.8664  2.0498
    2CHL1    C8   88   5.962   6.596   5.347  0.1242  0.0808  0.8989
    2CHL1    H8   89   5.983   6.672   5.425  1.8785 -0.9944  1.5383
    2CHL1   C14   90   5.954   6.648   5.211 -0.1650 -0.7021  0.0072
    2CHL1   H14   91   5.929   6.554   5.155 -2.0646  0.1006 -0.5789
    2CHL1   C15   92   6.082   6.695   5.134  0.6847  0.1960 -0.6206
    2CHL1  H15A   93   6.165   6.741   5.191 -0.4371  0.8166  0.5766
    2CHL1  H15B   94   6.130   6.602   5.096  4.5262  1.6523  0.2695
    2CHL1   C16   95   6.022   6.777   5.020  0.2796  0.1308  0.3433
    2CHL1  H16A   96   6.049   6.882   5.044 -0.8012 -0.0173  2.3924
    2CHL1  H16B   97   6.061   6.755   4.918  1.2589  0.1084  0.7090
    2CHL1   C17   98   5.864   6.766   5.033  0.0794 -0.2228 -0.4680
    2CHL1   H17   99   5.840   6.670   4.982 -1.0447 -0.4499  0.4388
    2CHL1   C13  100   5.845   6.747   5.182  0.3809 -0.6035  0.6637
    2CHL1   C18  101   5.870   6.881   5.261 -0.2207  0.7019  0.1292
    2CHL1  H18A  102   5.789   6.951   5.232 -1.7336 -0.7734  0.5954
    2CHL1  H18B  103   5.860   6.853   5.368 -1.6514 -1.6987 -0.5602
    2CHL1  H18C  104   5.969   6.928   5.248  0.2014 -0.3771 -0.7333
    2CHL1   C12  105   5.708   6.683   5.233 -0.6238 -0.3026  0.4113
    2CHL1  H12A  106   5.620   6.748   5.212 -0.2490  0.1830  0.3433
    2CHL1  H12B  107   5.694   6.596   5.165 -1.1056  0.3956 -0.4086
    2CHL1   C11  108   5.705   6.630   5.373 -0.9163  0.1766  0.0189
    2CHL1  H11A  109   5.706   6.719   5.440 -4.0569  0.7270 -0.4977
    2CHL1  H11B  110   5.614   6.568   5.382 -0.6062 -0.7547 -2.5548
    2CHL1    C9  111   5.828   6.533   5.399 -1.4038 -0.0111  0.3980
    2CHL1    H9  112   5.809   6.444   5.335 -0.3502 -0.5883  0.8558
    2CHL1   C10  113   5.840   6.493   5.545 -0.4107 -0.2912 -0.0964
    2CHL1   C19  114   5.816   6.609   5.631 -0.1914 -1.0499  0.3486
    2CHL1  H19A  115   5.875   6.702   5.616 -1.3295  0.1361  2.6633
    2CHL1  H19B  116   5.708   6.633   5.630  0.2460  1.1601  0.1011
    2CHL1  H19C  117   5.825   6.578   5.737 -1.1855 -2.9983 -0.0935
    2CHL1    C1  118   5.735   6.372   5.567 -0.3738 -0.1757  0.0416
    2CHL1   H1A  119   5.629   6.404   5.557 -0.6761 -1.4396 -1.0340
    2CHL1   H1B  120   5.762   6.295   5.492 -0.2888  1.3056 -1.5286
    2CHL1    C2  121   5.741   6.317   5.707  0.5586 -0.3849  0.3363
    2CHL1   H2A  122   5.671   6.232   5.698 -1.2843  1.2770 -2.2112
    2CHL1   H2B  123   5.705   6.389   5.783  0.1488 -0.1599 -0.0729
    2CHL1   C20  124   5.775   6.863   4.958 -0.6882 -0.4737 -0.1372
    2CHL1   H20  125   5.745   6.942   5.030 -0.2525  0.4156 -0.9010
    2CHL1   C21  126   5.653   6.789   4.907  0.0343 -0.0936 -0.1345
    2CHL1  H21A  127   5.574   6.860   4.874 -1.2241 -1.9296 -1.2283
    2CHL1  H21B  128   5.612   6.740   4.998 -0.2897 -0.1468 -0.3118
    2CHL1  H21C  129   5.665   6.720   4.821  0.5486 -1.1013  0.7245
    2CHL1   C22  130   5.831   6.949   4.832 -0.3913 -0.5944 -0.1508
    2CHL1  H22A  131   5.907   7.010   4.885 -2.3825  0.1673  2.0202
    2CHL1  H22B  132   5.884   6.875   4.768  2.4064  0.9157  0.2978
    2CHL1   C23  133   5.728   7.036   4.757  0.4092 -0.1585  0.1929
    2CHL1  H23A  134   5.786   7.097   4.685  0.9914 -2.6343 -1.5698
    2CHL1  H23B  135   5.667   6.960   4.703  1.1093 -0.5895  0.0042
    2CHL1   C24  136   5.641   7.133   4.847  0.3678 -0.0298  0.3591
    2CHL1  H24A  137   5.631   7.070   4.938  0.8534  1.9561  1.8695
    2CHL1  H24B  138   5.703   7.218   4.883  2.6605 -1.6631  0.5100
    2CHL1   C25  139   5.513   7.181   4.778 -0.1457  0.2270 -0.3425
    2CHL1   H25  140   5.444   7.097   4.757 -0.3349  0.7943 -2.1876
    2CHL1   C26  141   5.434   7.278   4.863  0.1375 -0.2665 -0.4241
    2CHL1  H26A  142   5.336   7.302   4.816 -0.4582  0.6906  1.2491
    2CHL1  H26B  143   5.426   7.234   4.964  1.2227 -0.5948 -0.4669
    2CHL1  H26C  144   5.489   7.373   4.877 -1.1303  0.1143  2.4703
    2CHL1   C27  145   5.535   7.256   4.643  0.0481  0.5933 -0.2998
    2CHL1  H27A  146   5.554   7.175   4.570 -2.4205 -1.2144  0.9106
    2CHL1  H27B  147   5.444   7.313   4.614 -0.1312  0.7661  0.5508
    2CHL1  H27C  148   5.615   7.333   4.656 -1.0071  1.3903  1.9892
    3CHL1    C3  149   4.794   1.314   6.515 -0.5867  0.3780 -0.2844
    3CHL1    H3  150   4.755   1.210   6.523  1.7917 -0.4223  3.3532
    3CHL1    O3  151   4.817   1.337   6.654  0.2185 -0.3513  0.7462
    3CHL1   H3'  152   4.848   1.427   6.660 -1.6731  0.3596  0.4854
    3CHL1    C4  153   4.926   1.312   6.445  0.5212  0.0081  0.1745
    3CHL1   H4A  154   4.978   1.408   6.468  2.1185 -0.7368 -0.1861
    3CHL1   H4B  155   4.981   1.224   6.483 -0.5864 -0.0100  1.8088
    3CHL1    C5  156   4.908   1.307   6.288 -0.4479  0.2271 -1.6521
    3CHL1    C6  157   4.968   1.214   6.210 -0.3705 -0.2554  1.1114
    3CHL1    H6  158   5.042   1.144   6.251  0.4426  0.6178  1.1783
    3CHL1    C7  159   4.941   1.199   6.065  0.5777  0.9297 -0.4045
    3CHL1   H7A  160   5.041   1.189   6.016  0.8534  2.6727 -0.2322
    3CHL1   H7B  161   4.872   1.112   6.055  0.7830  0.5344  1.3336
    3CHL1    C8  162   4.880   1.329   6.004  0.1687 -0.2257  0.1685
    3CHL1    H8  163   4.956   1.410   6.004 -0.6367  0.5699 -1.0597
    3CHL1   C14  164   4.832   1.296   5.857  0.2949 -0.2853 -0.6702
    3CHL1   H14  165   4.744   1.230   5.869 -2.1249  2.7192 -0.5033
    3CHL1   C15  166   4.937   1.234   5.764  0.4957  0.3532  0.3389
    3CHL1  H15A  167   5.031   1.291   5.781  1.3590 -0.4347 -1.5543
    3CHL1  H15B  168   4.961   1.127   5.784  0.4340 -0.0384 -1.5272
    3CHL1   C16  169   4.885   1.260   5.625 -0.4120  0.9558  0.1009
    3CHL1  H16A  170   4.966   1.324   5.584  0.3704 -0.0503  0.0416
    3CHL1  H16B  171   4.895   1.175   5.555  1.6151  2.7863 -2.0114
    3CHL1   C17  172   4.757   1.346   5.642 -0.2419  0.5566  0.3083
    3CHL1   H17  173   4.674   1.273   5.644  0.8195 -0.7905 -1.6024
    3CHL1   C13  174   4.780   1.414   5.784  0.6067  0.1692  0.2960
    3CHL1   C18  175   4.873   1.540   5.762  0.3148 -0.2549 -0.5705
    3CHL1  H18A  176   4.804   1.613   5.714 -0.6555 -1.7229 -1.4940
    3CHL1  H18B  177   4.897   1.573   5.865 -3.9781 -1.7281  1.1111
    3CHL1  H18C  178   4.964   1.523   5.700 -1.0076  1.2213 -3.1144
    3CHL1   C12  179   4.658   1.471   5.862  0.4913 -0.6362 -0.2779
    3CHL1  H12A  180   4.617   1.563   5.815  0.2445 -1.1534 -1.0969
    3CHL1  H12B  181   4.583   1.389   5.865 -0.5075  0.2975  1.1838
    3CHL1   C11  182   4.701   1.505   6.011 -0.4461 -0.3916  1.0439
    3CHL1  H11A  183   4.765   1.596   6.006 -0.3187 -0.5441 -0.6922
    3CHL1  H11B  184   4.612   1.532   6.071 -0.1902 -0.7229  1.5846
    3CHL1    C9  185   4.759   1.378   6.086 -0.6238  0.3246 -0.9627
    3CHL1    H9  186   4.681   1.299   6.086 -1.9649  1.6006  0.6437
    3CHL1   C10  187   4.803   1.407   6.229 -1.0094 -0.1026 -0.5093
    3CHL1   C19  188   4.857   1.552   6.230  0.1299 -0.6657  0.5934
    3CHL1  H19A  189   4.908   1.566   6.132  0.2249 -0.2511  0.7016
    3CHL1  H19B  190   4.772   1.623   6.234  0.4475 -0.1932 -0.4994
    3CHL1  H19C  191   4.911   1.582   6.322 -1.4940  1.0944  1.0188
    3CHL1    C1  192   4.676   1.397   6.311 -0.5746  0.7914 -0.5823
    3CHL1   H1A  193   4.592   1.463   6.282 -0.6086  0.3630 -1.4957
    3CHL1   H1B  194   4.647   1.291   6.292  0.1052 -0.0860  2.6430
    3CHL1    C2  195   4.688   1.401   6.465 -0.3910 -0.0560  0.2285
    3CHL1   H2A  196   4.589   1.393   6.514 -1.2887  1.8765 -1.1247
    3CHL1   H2B  197   4.713   1.506   6.490 -2.1009  0.2557  0.7139
    3CHL1   C20  198   4.732   1.430   5.520 -1.0059 -0.0942 -0.4365
    3CHL1   H20  199   4.817   1.502   5.513  0.5465 -1.8055 -0.0270
    3CHL1   C21  200   4.589   1.491   5.533  0.1314 -0.0110 -0.6346
    3CHL1  H21A  201   4.554   1.524   5.432  1.4450  1.1416 -0.7373
    3CHL1  H21B  202   4.580   1.575   5.605 -2.3922  0.3297 -1.2243
    3CHL1  H21C  203   4.524   1.408   5.568 -2.1334  1.8389 -0.1717
    3CHL1   C22  204   4.742   1.348   5.383 -0.6823 -0.1042 -0.4360
    3CHL1  H22A  205   4.833   1.284   5.384  0.5218  1.5397  0.4893
    3CHL1  H22B  206   4.649   1.288   5.380 -1.9562  1.6684  1.0481
    3CHL1   C23  207   4.755   1.433   5.255  0.3658  0.3241  0.4812
    3CHL1  H23A  208   4.648   1.449   5.232  0.3698  1.1207  0.9628
    3CHL1  H23B  209   4.813   1.528   5.265 -1.8377  1.7714  0.1010
    3CHL1   C24  210   4.830   1.359   5.143 -0.2747 -0.3728 -0.1792
    3CHL1  H24A  211   4.935   1.348   5.176 -0.7861 -0.5791  1.4440
    3CHL1  H24B  212   4.792   1.257   5.124 -0.7998  0.2006 -2.6686
    3CHL1   C25  213   4.843   1.433   5.008 -0.9864 -0.4282  0.2217
    3CHL1   H25  214   4.744   1.456   4.963 -0.8750  0.1724  0.2774
    3CHL1   C26  215   4.921   1.564   5.025  0.6016  0.3182 -0.3678
    3CHL1  H26A  216   4.872   1.635   5.096 -0.3328  0.3809 -1.0560
    3CHL1  H26B  217   5.019   1.544   5.073  0.0952  0.0912  0.5971
    3CHL1  H26C  218   4.934   1.607   4.924 -0.2873 -1.6450 -1.3688
    3CHL1   C27  219   4.928   1.353   4.906  0.4336  0.1724  0.0989
    3CHL1  H27A  220   5.036   1.367   4.932  0.7296  0.5352 -1.2459
    3CHL1  H27B  221   4.896   1.246   4.908  2.5207 -0.5030  0.3889
    3CHL1  H27C  222   4.919   1.384   4.800 -0.1619  0.0158  0.1020
    4CHL1    C3  223   4.155   1.299   6.368 -0.0392 -0.1604  0.2625
    4CHL1    H3  224   4.055   1.340   6.343  0.3997  1.8124  1.5348
    4CHL1    O3  225   4.154   1.291   6.508  0.1889 -0.0727 -0.6723
    4CHL1   H3'  226   4.161   1.381   6.542  2.8309 -0.3198 -0.3551
    4CHL1    C4  227   4.185   1.160   6.311 -0.6517 -0.2864  0.2085
    4CHL1   H4A  228   4.287   1.134   6.348 -0.0319 -0.5461 -1.5617
    4CHL1   H4B  229   4.116   1.084   6.352 -1.1870  0.6313  1.0579
    4CHL1    C5  230   4.170   1.165   6.163 -0.1325 -0.2274 -0.4074
    4CHL1    C6  231   4.087   1.081   6.101 -0.1740 -0.0421  0.4626
    4CHL1    H6  232   4.039   1.000   6.156  0.6310 -1.2205 -0.5223
    4CHL1    C7  233   4.068   1.086   5.956 -0.3858  1.1262 -0.1224
    4CHL1   H7A  234   4.060   0.982   5.917  2.6532  0.2044  1.3650
    4CHL1   H7B  235   3.971   1.138   5.945  0.1393  2.1209 -0.1493
    4CHL1    C8  236   4.176   1.165   5.878 -0.1600 -0.5297  0.4358
    4CHL1    H8  237   4.256   1.088   5.872 -0.6167 -0.9501 -0.4131
    4CHL1   C14  238   4.112   1.204   5.745  0.0713  0.0741 -0.0811
    4CHL1   H14  239   4.023   1.267   5.768  1.7482  3.5044 -2.1256
    4CHL1   C15  240   4.059   1.090   5.656 -0.6680  0.5601  0.0728
    4CHL1  H15A  241   4.131   1.005   5.658 -3.0750 -1.6068  0.5969
    4CHL1  H15B  242   3.959   1.052   5.687 -0.5349  1.1984  1.3464
    4CHL1   C16  243   4.041   1.154   5.517 -0.1198  0.3256 -0.0076
    4CHL1  H16A  244   4.099   1.085   5.452  0.0378 -0.1359  0.6125
    4CHL1  H16B  245   3.935   1.147   5.486  0.4308  0.6146 -2.0814
    4CHL1   C17  246   4.103   1.296   5.529 -0.3934  0.0677  0.7815
    4CHL1   H17  247   4.011   1.350   5.558 -1.4892 -2.0035  1.2942
    4CHL1   C13  248   4.196   1.286   5.651 -0.9801 -0.0118  0.1665
    4CHL1   C18  249   4.328   1.212   5.618  0.6385  0.2084 -0.3574
    4CHL1  H18A  250   4.410   1.225   5.692 -1.8307 -0.5944  2.8012
    4CHL1  H18B  251   4.322   1.102   5.611  1.1614  0.1289  0.4008
    4CHL1  H18C  252   4.361   1.241   5.517  0.0802  2.0666 -0.0552
    4CHL1   C12  253   4.233   1.413   5.728  0.2801  0.2069  0.4537
    4CHL1  H12A  254   4.300   1.474   5.664  2.4176 -1.4543  0.9887
    4CHL1  H12B  255   4.135   1.466   5.734 -0.0505 -0.2448 -0.7454
    4CHL1   C11  256   4.291   1.394   5.864 -0.6751  0.2406 -0.6455
    4CHL1  H11A  257   4.392   1.348   5.870 -1.4321 -1.2957  2.3165
    4CHL1  H11B  258   4.309   1.493   5.912  1.8907  0.3666 -1.7111
    4CHL1    C9  259   4.205   1.294   5.952 -0.3594  0.1545  0.3031
    4CHL1    H9  260   4.105   1.340   5.961 -1.2352 -1.6514  0.1669
    4CHL1   C10  261   4.261   1.269   6.097  0.1166  0.4870  0.6263
    4CHL1   C19  262   4.409   1.210   6.078  1.2529 -0.2255 -0.2131
    4CHL1  H19A  263   4.412   1.116   6.019 -0.5967 -2.1043  2.4584
    4CHL1  H19B  264   4.469   1.293   6.037 -1.2552  1.2865 -1.0914
    4CHL1  H19C  265   4.445   1.200   6.183  0.0341 -1.0954  0.1542
    4CHL1    C1  266   4.259   1.406   6.167  0.4518 -0.0954  0.3376
    4CHL1   H1A  267   4.346   1.469   6.137  0.2659  0.9218  1.8063
    4CHL1   H1B  268   4.172   1.463   6.127  1.4693  2.1489  1.1722
    4CHL1    C2  269   4.259   1.400   6.318 -0.1111  0.4792  0.9908
    4CHL1   H2A  270   4.226   1.495   6.365 -0.6429 -0.0455  1.7038
    4CHL1   H2B  271   4.358   1.366   6.355  1.3572  0.2103 -2.6807
    4CHL1   C20  272   4.159   1.346   5.401  0.3754 -0.5816  0.0109
    4CHL1   H20  273   4.232   1.272   5.360  1.6817  1.0870 -0.8071
    4CHL1   C21  274   4.244   1.472   5.415 -0.9244 -0.2287  0.0486
    4CHL1  H21A  275   4.336   1.461   5.475 -0.8421 -2.8043 -0.4445
    4CHL1  H21B  276   4.178   1.551   5.457 -0.5416  0.5973 -0.8408
    4CHL1  H21C  277   4.268   1.502   5.310 -0.2644  2.2044  0.8286
    4CHL1   C22  278   4.055   1.365   5.283  0.2206  0.9626  0.5518
    4CHL1  H22A  279   4.114   1.404   5.197  1.8062 -0.9086  0.7487
    4CHL1  H22B  280   4.015   1.265   5.257  0.3282  0.4234  2.3727
    4CHL1   C23  281   3.934   1.456   5.303 -0.2071 -0.5252 -0.2167
    4CHL1  H23A  282   3.894   1.424   5.402  0.3930 -3.1176 -0.7247
    4CHL1  H23B  283   3.958   1.564   5.309  0.7835 -0.6660 -1.2037
    4CHL1   C24  284   3.820   1.446   5.196 -0.2109  0.7516  0.3099
    4CHL1  H24A  285   3.764   1.352   5.212  2.2135 -1.4134 -2.6433
    4CHL1  H24B  286   3.748   1.529   5.212 -2.1404 -0.6459 -0.7490
    4CHL1   C25  287   3.858   1.451   5.046  0.0552  0.0380  0.0974
    4CHL1   H25  288   3.939   1.375   5.037  1.1139  1.2236 -0.9555
    4CHL1   C26  289   3.738   1.419   4.950 -0.7911 -0.7970 -0.0165
    4CHL1  H26A  290   3.760   1.450   4.846  0.2410  0.8185  0.6388
    4CHL1  H26B  291   3.702   1.314   4.958 -1.5742 -0.7737 -2.3874
    4CHL1  H26C  292   3.657   1.491   4.973  0.3497  0.0922  1.3710
    4CHL1   C27  293   3.929   1.577   5.009 -0.1128 -0.6131 -0.2058
    4CHL1  H27A  294   3.864   1.667   5.018 -0.0229 -0.6709  1.3841
    4CHL1  H27B  295   4.021   1.590   5.070  1.2438 -1.6905 -1.9288
    4CHL1  H27C  296   3.960   1.584   4.903  0.1171  1.5832 -0.0531
    5CHL1    C3  297   5.434   1.476   6.479 -0.1955 -0.4006  0.0123
    5CHL1    H3  298   5.514   1.403   6.453  1.2332  1.0339  0.2042
    5CHL1    O3  299   5.431   1.487   6.618  0.2482  0.2568  0.2050
    5CHL1   H3'  300   5.443   1.396   6.646  1.2832 -0.9924 -3.7076
    5CHL1    C4  301   5.466   1.611   6.413 -0.5440  0.2055  0.1580
    5CHL1   H4A  302   5.391   1.689   6.437 -1.0912  0.3865 -1.9210
    5CHL1   H4B  303   5.564   1.648   6.451 -0.4970  0.3359 -0.0831
    5CHL1    C5  304   5.476   1.600   6.261  0.4969 -0.5151  0.2108
    5CHL1    C6  305   5.590   1.612   6.201 -0.7916  0.1081 -0.2211
    5CHL1    H6  306   5.678   1.631   6.265 -0.5093 -0.0582 -0.5622
    5CHL1    C7  307   5.612   1.591   6.052 -0.2510  0.0667  0.2988
    5CHL1   H7A  308   5.699   1.654   6.024 -0.1526  0.9608  2.4906
    5CHL1   H7B  309   5.653   1.489   6.031  3.0822  0.2058  4.6983
    5CHL1    C8  310   5.483   1.601   5.976  0.7561 -0.6429 -0.5830
    5CHL1    H8  311   5.445   1.704   5.962  0.9577 -0.4710  0.1007
    5CHL1   C14  312   5.502   1.564   5.829 -0.1148  0.5328  0.6935
    5CHL1   H14  313   5.534   1.457   5.836  2.1432  1.0337 -0.9655
    5CHL1   C15  314   5.612   1.626   5.740 -0.1069  0.6220  0.4352
    5CHL1  H15A  315   5.596   1.736   5.735 -1.6165  0.3721 -1.1262
    5CHL1  H15B  316   5.711   1.607   5.787 -0.5083  1.0437  1.4674
    5CHL1   C16  317   5.584   1.563   5.601 -0.0724 -0.2648  0.5476
    5CHL1  H16A  318   5.619   1.639   5.528 -1.3033 -0.4023 -0.2117
    5CHL1  H16B  319   5.643   1.469   5.591  0.7766  0.2642  0.5113
    5CHL1   C17  320   5.433   1.525   5.608  0.0812 -0.0406  0.9883
    5CHL1   H17  321   5.434   1.414   5.608  1.0805 -0.0510 -0.0440
    5CHL1   C13  322   5.375   1.572   5.749  0.0940  0.1100  0.2196
    5CHL1   C18  323   5.318   1.714   5.746 -0.2258 -0.5695  0.1443
    5CHL1  H18A  324   5.223   1.714   5.689 -0.4937  2.5825  0.3917
    5CHL1  H18B  325   5.280   1.745   5.846 -1.6222  0.6870 -0.7342
    5CHL1  H18C  326   5.396   1.782   5.705  0.5953 -1.2820  0.4888
    5CHL1   C12  327   5.279   1.466   5.801 -0.2192  0.3346 -0.6152
    5CHL1  H12A  328   5.187   1.451   5.742 -0.4524 -0.6930 -0.0183
    5CHL1  H12B  329   5.327   1.366   5.793  0.0511  0.4739 -0.7362
    5CHL1   C11  330   5.250   1.494   5.952 -0.0568 -0.0226  0.3978
    5CHL1  H11A  331   5.187   1.585   5.956 -0.1615 -0.1430  2.4474
    5CHL1  H11B  332   5.185   1.412   5.990 -0.6098  0.6290  0.8757
    5CHL1    C9  333   5.379   1.509   6.042 -0.1822 -0.5750  0.2359
    5CHL1    H9  334   5.422   1.407   6.038 -1.9589 -1.3468 -3.2864
    5CHL1   C10  335   5.351   1.559   6.187  0.1178  0.2460 -0.4972
    5CHL1   C19  336   5.260   1.684   6.189 -0.4304 -0.9862  0.1914
    5CHL1  H19A  337   5.247   1.721   6.292 -1.4420 -2.9359  0.8282
    5CHL1  H19B  338   5.301   1.759   6.118 -2.7781  0.1530 -0.0819
    5CHL1  H19C  339   5.169   1.649   6.135  0.9548 -0.2829 -2.8333
    5CHL1    C1  340   5.294   1.433   6.265  0.6842 -0.0734 -0.5215
    5CHL1   H1A  341   5.194   1.411   6.222  1.9284 -0.7820 -3.3423
    5CHL1   H1B  342   5.362   1.347   6.247 -0.7685 -1.3653 -0.0514
    5CHL1    C2  343   5.294   1.447   6.422  0.2935  0.2949  0.4635
    5CHL1   H2A  344   5.251   1.357   6.469  1.2088 -0.7747 -0.6713
    5CHL1   H2B  345   5.225   1.526   6.459 -0.7447  0.9337 -2.5669
    5CHL1   C20  346   5.352   1.564   5.479  0.6468  0.0689  0.1136
    5CHL1   H20  347   5.343   1.674   5.476 -2.3814 -0.0622  0.9502
    5CHL1   C21  348   5.213   1.505   5.487  0.6108  0.0222  0.0702
    5CHL1  H21A  349   5.159   1.513   5.390 -2.1133  0.5603  1.5177
    5CHL1  H21B  350   5.144   1.566   5.548  2.0815  1.7570  0.0777
    5CHL1  H21C  351   5.217   1.403   5.532  1.0538  0.5982  1.3694
    5CHL1   C22  352   5.419   1.521   5.351  0.3761 -0.8077 -0.2497
    5CHL1  H22A  353   5.528   1.539   5.356  0.7450 -2.9738  3.6260
    5CHL1  H22B  354   5.405   1.411   5.344  0.6083 -0.8962  0.5344
    5CHL1   C23  355   5.355   1.581   5.219  0.0722 -0.2000 -0.2969
    5CHL1  H23A  356   5.265   1.517   5.206  0.2830 -0.2817 -1.4620
    5CHL1  H23B  357   5.326   1.686   5.240  1.2181  0.0196  0.2737
    5CHL1   C24  358   5.446   1.555   5.093 -0.2919  0.9240 -0.7843
    5CHL1  H24A  359   5.549   1.592   5.107  0.5640 -1.5583  0.0249
    5CHL1  H24B  360   5.452   1.444   5.083  0.6577  0.7748  1.0970
    5CHL1   C25  361   5.400   1.616   4.955 -0.6009 -0.1316 -0.7080
    5CHL1   H25  362   5.465   1.575   4.875  0.8601 -0.9417  0.8392
    5CHL1   C26  363   5.257   1.572   4.912 -0.7020  0.4407  0.5541
    5CHL1  H26A  364   5.241   1.462   4.917 -0.1915  0.3880  1.1242
    5CHL1  H26B  365   5.181   1.627   4.973 -2.5275 -0.1377 -1.1140
    5CHL1  H26C  366   5.229   1.611   4.812 -0.1012  1.0460  0.6122
    5CHL1   C27  367   5.391   1.767   4.966 -0.1247  0.2458  0.5630
    5CHL1  H27A  368   5.483   1.830   4.960 -0.4332  0.6354 -0.1971
    5CHL1  H27B  369   5.326   1.801   4.883  1.7184 -1.7416 -1.8664
    5CHL1  H27C  370   5.334   1.805   5.053  0.0640 -1.1061  1.3160
    6CHL1    C3  371   1.531   6.003   6.162 -0.1271  0.4780 -0.0692
    6CHL1    H3  372   1.611   5.937   6.121  0.5025  1.3260 -0.2138
    6CHL1    O3  373   1.554   5.995   6.303 -0.5604  0.3474 -0.2004
    6CHL1   H3'  374   1.646   6.019   6.317  0.0466 -0.9084 -1.7771
    6CHL1    C4  375   1.527   6.149   6.124  0.1259  0.2236 -0.1140
    6CHL1   H4A  376   1.452   6.198   6.189 -1.1391 -0.6491 -0.8780
    6CHL1   H4B  377   1.624   6.188   6.162 -0.2061 -0.6849  1.7901
    6CHL1    C5  378   1.498   6.178   5.980  0.4613 -0.9150 -0.4676
    6CHL1    C6  379   1.585   6.248   5.901 -0.0080  0.2329  0.2398
    6CHL1    H6  380   1.678   6.286   5.946 -0.3677 -0.6537  1.8132
    6CHL1    C7  381   1.556   6.279   5.754  0.2102  0.5243  0.0279
    6CHL1   H7A  382   1.559   6.388   5.733 -3.5118  1.0729  1.5155
    6CHL1   H7B  383   1.629   6.211   5.704 -0.9751  0.4685 -1.7547
    6CHL1    C8  384   1.415   6.237   5.708 -0.1734 -0.6041 -0.5363
    6CHL1    H8  385   1.344   6.319   5.733  2.5182  1.1033  2.3010
    6CHL1   C14  386   1.409   6.225   5.560 -0.0726 -0.1750  0.4304
    6CHL1   H14  387   1.494   6.154   5.547 -1.2709 -1.5181 -0.3021
    6CHL1   C15  388   1.434   6.346   5.467  0.0286 -0.2865 -0.1494
    6CHL1  H15A  389   1.386   6.432   5.519 -1.7876 -0.6053 -1.2066
    6CHL1  H15B  390   1.541   6.367   5.446  0.1889 -0.3703  0.5781
    6CHL1   C16  391   1.370   6.310   5.332  0.3350 -0.2504 -0.2865
    6CHL1  H16A  392   1.294   6.390   5.319 -0.6906 -1.0212  0.7562
    6CHL1  H16B  393   1.441   6.314   5.247 -2.1032 -0.6463 -2.4486
    6CHL1   C17  394   1.304   6.170   5.349 -0.0719 -0.5675 -0.6189
    6CHL1   H17  395   1.385   6.095   5.340  0.0033 -0.9250  2.2810
    6CHL1   C13  396   1.279   6.163   5.504 -0.4542  0.1369 -0.0501
    6CHL1   C18  397   1.159   6.257   5.534  0.2054 -0.3429  0.1356
    6CHL1  H18A  398   1.160   6.357   5.485  1.2979 -0.3147  0.1966
    6CHL1  H18B  399   1.064   6.207   5.505 -2.0004  3.9338 -0.9606
    6CHL1  H18C  400   1.157   6.270   5.645  0.6630 -2.2328  0.3867
    6CHL1   C12  401   1.255   6.020   5.551  0.5201  0.0736  0.2990
    6CHL1  H12A  402   1.162   5.995   5.496  0.9533  1.5789 -1.2109
    6CHL1  H12B  403   1.340   5.955   5.521  0.9353  1.1425 -0.9343
    6CHL1   C11  404   1.241   6.033   5.701  0.3446 -0.8933 -0.7965
    6CHL1  H11A  405   1.151   6.084   5.742 -0.6842 -2.5889 -0.8656
    6CHL1  H11B  406   1.239   5.929   5.742  1.9987 -0.8477 -0.5164
    6CHL1    C9  407   1.367   6.105   5.768  0.0240  0.9661 -0.0903
    6CHL1    H9  408   1.454   6.040   5.744 -1.8081 -1.2282 -1.0523
    6CHL1   C10  409   1.369   6.100   5.925 -0.1295 -0.2838  0.0875
    6CHL1   C19  410   1.243   6.174   5.967  0.1455 -1.1635 -0.0962
    6CHL1  H19A  411   1.243   6.281   5.935  3.0702 -0.4275  1.9561
    6CHL1  H19B  412   1.161   6.106   5.937 -1.4057 -0.7358  2.7621
    6CHL1  H19C  413   1.240   6.175   6.078 -0.3695 -0.9711 -0.1059
    6CHL1    C1  414   1.368   5.952   5.967  0.2079 -0.7631 -0.3628
    6CHL1   H1A  415   1.266   5.908   5.956  0.7698 -1.8644 -1.4392
    6CHL1   H1B  416   1.425   5.881   5.904 -1.5525 -1.4535 -1.2571
    6CHL1    C2  417   1.398   5.932   6.118 -0.0067 -0.5574  0.4946
    6CHL1   H2A  418   1.390   5.827   6.154 -0.7757 -0.5336  0.4066
    6CHL1   H2B  419   1.322   5.986   6.178 -0.3765 -0.8852  0.3179
    6CHL1   C20  420   1.194   6.135   5.252 -0.5317 -0.6302  0.1004
    6CHL1   H20  421   1.125   6.075   5.315 -0.4021 -0.5569  0.3148
    6CHL1   C21  422   1.260   6.063   5.135  0.5868  0.1499 -0.8331
    6CHL1  H21A  423   1.266   5.953   5.153 -0.3758 -0.0484 -1.6055
    6CHL1  H21B  424   1.361   6.107   5.121 -1.0760  5.4836  1.4078
    6CHL1  H21C  425   1.212   6.066   5.034  1.8893 -1.8310 -1.5740
    6CHL1   C22  426   1.109   6.252   5.194 -0.0089  0.5428  0.6946
    6CHL1  H22A  427   1.078   6.307   5.286  0.6001  0.0976  1.1779
    6CHL1  H22B  428   1.172   6.308   5.123 -1.8274  0.5193 -1.0073
    6CHL1   C23  429   0.978   6.192   5.126 -0.4748 -0.4958  0.2600
    6CHL1  H23A  430   1.008   6.118   5.049 -1.0845  0.1669 -0.6400
    6CHL1  H23B  431   0.928   6.122   5.195 -0.0883 -0.9728  0.0605
    6CHL1   C24  432   0.899   6.296   5.058 -0.0395  0.7903 -0.3238
    6CHL1  H24A  433   0.798   6.254   5.042  0.9383 -2.4670  1.0896
    6CHL1  H24B  434   0.888   6.377   5.134  1.1225 -0.3422  1.1179
    6CHL1   C25  435   0.972   6.355   4.934  0.2596 -0.0560 -0.3938
    6CHL1   H25  436   1.064   6.400   4.977 -0.7542 -0.0007  1.8286
    6CHL1   C26  437   1.008   6.265   4.814  0.3713 -0.0318 -0.4738
    6CHL1  H26A  438   0.956   6.295   4.721  2.0297 -0.1038 -1.4573
    6CHL1  H26B  439   1.116   6.287   4.807  0.7597 -1.4650  0.4628
    6CHL1  H26C  440   1.002   6.155   4.831  2.9834 -0.2054 -0.3879
    6CHL1   C27  441   0.881   6.469   4.878  0.7987 -0.4283  0.1343
    6CHL1  H27A  442   0.936   6.506   4.789 -0.8068 -0.2267 -0.8135
    6CHL1  H27B  443   0.787   6.428   4.836  1.3561 -0.0991 -1.4921
    6CHL1  H27C  444   0.873   6.551   4.953  2.0436 -0.4176  0.2756
    7CHL1    C3  445   4.715   0.621   6.309 -0.5210  0.2654  0.5400
    7CHL1    H3  446   4.611   0.583   6.306 -1.1975  2.0909 -0.1164
    7CHL1    O3  447   4.769   0.589   6.437  0.4372 -0.0698 -1.1025
    7CHL1   H3'  448   4.863   0.602   6.423  0.1198  1.1847 -2.2057
    7CHL1    C4  449   4.797   0.544   6.211  0.3541  0.2504 -0.0401
    7CHL1   H4A  450   4.906   0.563   6.217  0.5729  0.1872 -2.5192
    7CHL1   H4B  451   4.789   0.435   6.227  2.1280 -0.3764 -2.6895
    7CHL1    C5  452   4.746   0.571   6.069 -0.0082  0.3383  0.4082
    7CHL1    C6  453   4.690   0.479   5.989 -0.1198 -0.0171 -0.5509
    7CHL1    H6  454   4.672   0.380   6.034 -3.6288  1.4097  1.5823
    7CHL1    C7  455   4.657   0.506   5.846  0.5338  0.3599 -0.0071
    7CHL1   H7A  456   4.682   0.418   5.784 -2.3684 -1.2007  0.8378
    7CHL1   H7B  457   4.546   0.502   5.842  0.6071 -0.2486 -2.9719
    7CHL1    C8  458   4.724   0.631   5.791 -0.0283 -0.4554  0.0498
    7CHL1    H8  459   4.832   0.608   5.781  0.0382  0.0896 -0.6675
    7CHL1   C14  460   4.665   0.666   5.655 -0.5196 -0.1036  0.3772
    7CHL1   H14  461   4.560   0.693   5.680 -1.2333 -1.3693 -1.0823
    7CHL1   C15  462   4.663   0.560   5.543 -0.8875  0.3428 -0.5980
    7CHL1  H15A  463   4.767   0.522   5.539 -0.5185  0.4244  3.7657
    7CHL1  H15B  464   4.600   0.476   5.579 -1.9783  2.2987  2.4347
    7CHL1   C16  465   4.632   0.635   5.416  0.2205  0.2133  0.5291
    7CHL1  H16A  466   4.702   0.633   5.330 -1.0515  2.4987 -0.6368
    7CHL1  H16B  467   4.531   0.609   5.379  0.4234  0.9887 -0.6154
    7CHL1   C17  468   4.624   0.786   5.462  0.6240 -0.3641 -0.5644
    7CHL1   H17  469   4.515   0.798   5.484  0.3598 -1.1732 -1.3786
    7CHL1   C13  470   4.709   0.800   5.588  0.3932 -0.0123  0.0274
    7CHL1   C18  471   4.857   0.790   5.545 -0.4598  0.3069  0.1209
    7CHL1  H18A  472   4.895   0.882   5.497 -0.3253  1.2011  1.8880
    7CHL1  H18B  473   4.922   0.774   5.633  2.0023 -1.8762 -1.9495
    7CHL1  H18C  474   4.876   0.701   5.480  1.8751 -0.4313  1.6849
    7CHL1   C12  475   4.680   0.915   5.688  0.2233  0.1557 -0.2503
    7CHL1  H12A  476   4.728   1.004   5.643  1.5131 -0.1992  0.3778
    7CHL1  H12B  477   4.571   0.928   5.705  0.2249  1.1674 -0.8860
    7CHL1   C11  478   4.737   0.883   5.827 -0.6175 -0.9948 -0.4767
    7CHL1  H11A  479   4.847   0.890   5.810 -0.8337  2.1439 -1.0994
    7CHL1  H11B  480   4.710   0.963   5.899  2.9989 -0.2977  0.3252
    7CHL1    C9  481   4.703   0.745   5.891 -0.2142 -0.4030  1.2552
    7CHL1    H9  482   4.593   0.742   5.902 -0.2515  0.0094  1.0198
    7CHL1   C10  483   4.759   0.723   6.035 -0.6228  0.3277  0.2498
    7CHL1   C19  484   4.907   0.745   6.022  0.1648 -0.4059  0.1240
    7CHL1  H19A  485   4.968   0.704   6.105 -0.5187 -0.2119  0.7342
    7CHL1  H19B  486   4.940   0.702   5.925 -0.1082 -0.3815  0.0174
    7CHL1  H19C  487   4.926   0.854   6.011  1.3973 -0.5932  0.2801
    7CHL1    C1  488   4.698   0.825   6.145  0.6653  0.4932  0.3075
    7CHL1   H1A  489   4.744   0.922   6.117 -1.2430  1.0937 -1.0162
    7CHL1   H1B  490   4.590   0.845   6.126  0.5846  0.7738  0.9973
    7CHL1    C2  491   4.722   0.779   6.291  0.1782 -0.5574  0.1538
    7CHL1   H2A  492   4.637   0.817   6.351  0.3473  0.9508 -0.5179
    7CHL1   H2B  493   4.816   0.818   6.335 -0.8615 -1.4122  3.4482
    7CHL1   C20  494   4.651   0.894   5.356  0.0404  0.0764  0.2323
    7CHL1   H20  495   4.758   0.922   5.352 -0.3160  1.4097 -2.2088
    7CHL1   C21  496   4.563   1.015   5.389  0.3274 -0.1720  0.5794
    7CHL1  H21A  497   4.566   1.084   5.301  1.3775 -1.4278 -0.4165
    7CHL1  H21B  498   4.597   1.075   5.476 -2.3331  0.7332  1.0737
    7CHL1  H21C  499   4.458   0.987   5.410  0.6297  0.2667  2.8843
    7CHL1   C22  500   4.608   0.852   5.211 -0.0705  0.0259  0.4468
    7CHL1  H22A  501   4.661   0.758   5.185  2.6063  1.2910  0.9456
    7CHL1  H22B  502   4.501   0.826   5.208 -0.1806  0.5588 -1.4773
    7CHL1   C23  503   4.634   0.951   5.093  0.0703  0.4381 -0.2240
    7CHL1  H23A  504   4.557   1.031   5.094  0.6346  0.9941  0.5359
    7CHL1  H23B  505   4.736   0.991   5.116 -0.1040 -0.0183  1.5432
    7CHL1   C24  506   4.613   0.878   4.959 -0.4317  0.2756 -0.4886
    7CHL1  H24A  507   4.688   0.798   4.940 -0.6599  0.1422 -0.8420
    7CHL1  H24B  508   4.518   0.820   4.967 -0.6110  0.4210 -1.4393
    7CHL1   C25  509   4.612   0.986   4.845  0.3182 -0.0190  0.5454
    7CHL1   H25  510   4.542   1.063   4.885 -0.2181  0.3801 -1.0905
    7CHL1   C26  511   4.753   1.039   4.814 -0.4203 -0.1632  0.2838
    7CHL1  H26A  512   4.747   1.141   4.770  2.8940  0.2130  0.4224
    7CHL1  H26B  513   4.795   1.065   4.913 -0.5750  1.3702 -0.0247
    7CHL1  H26C  514   4.813   0.974   4.746  1.0295  0.3169  1.0548
    7CHL1   C27  515   4.555   0.937   4.714  0.0542 -0.1997  0.5197
    7CHL1  H27A  516   4.539   1.027   4.651 -0.1223 -0.3953  0.2818
    7CHL1  H27B  517   4.638   0.875   4.673  1.2751  1.2238  0.7847
    7CHL1  H27C  518   4.472   0.864   4.718  0.2905 -0.4778  0.4304
    8CHL1    C3  519   0.846   1.922   6.725 -0.1750 -0.3638  0.1503
    8CHL1    H3  520   0.742   1.887   6.707  0.3029 -1.1534 -1.2596
    8CHL1    O3  521   0.886   1.918   6.865 -0.0927  0.0749  0.2171
    8CHL1   H3'  522   0.981   1.927   6.864 -0.1304  0.8510 -2.0264
    8CHL1    C4  523   0.936   1.822   6.647  0.4524 -0.1561  1.0283
    8CHL1   H4A  524   1.041   1.817   6.682  0.6973 -1.6054  0.1521
    8CHL1   H4B  525   0.889   1.726   6.674  0.3004 -0.8980 -1.6041
    8CHL1    C5  526   0.929   1.829   6.497  0.5489 -0.4444  0.0083
    8CHL1    C6  527   0.899   1.719   6.421  0.8900  0.1303  0.2061
    8CHL1    H6  528   0.888   1.620   6.467 -0.5555  0.1962  0.0733
    8CHL1    C7  529   0.908   1.723   6.273  0.4104  0.5243  0.3283
    8CHL1   H7A  530   0.958   1.631   6.237 -2.4298 -0.7807 -0.5721
    8CHL1   H7B  531   0.803   1.717   6.236  0.1377  0.1559  1.1351
    8CHL1    C8  532   0.978   1.855   6.212 -0.2212 -0.3689  0.0058
    8CHL1    H8  533   1.088   1.841   6.218 -0.1324  0.2987  0.0049
    8CHL1   C14  534   0.936   1.872   6.065 -0.1660 -0.3542  0.8040
    8CHL1   H14  535   0.827   1.889   6.075 -0.7803 -2.2889 -1.5713
    8CHL1   C15  536   0.952   1.754   5.975 -0.2181  0.2990 -0.4703
    8CHL1  H15A  537   1.053   1.709   5.989  0.0017  0.4482 -1.4805
    8CHL1  H15B  538   0.877   1.675   5.994 -0.7839  0.8193 -0.5236
    8CHL1   C16  539   0.931   1.812   5.834 -0.6452 -0.0302 -0.1379
    8CHL1  H16A  540   1.015   1.785   5.766 -0.7835  1.3937 -0.9111
    8CHL1  H16B  541   0.833   1.777   5.793 -0.7070 -0.4302  0.3490
    8CHL1   C17  542   0.923   1.971   5.852 -0.0802  0.2698  0.7249
    8CHL1   H17  543   0.813   1.990   5.859  0.0363  1.3247 -0.0203
    8CHL1   C13  544   0.986   1.997   5.989  0.2844  0.4052 -0.3886
    8CHL1   C18  545   1.142   1.990   5.980  0.0114 -1.0035 -0.3277
    8CHL1  H18A  546   1.189   2.089   5.962  1.6874 -1.7214 -0.0774
    8CHL1  H18B  547   1.187   1.976   6.081 -0.6511  3.2983  0.7427
    8CHL1  H18C  548   1.189   1.921   5.907  0.9121 -1.5754  0.7568
    8CHL1   C12  549   0.932   2.119   6.073 -0.1421  0.4224  0.2339
    8CHL1  H12A  550   0.974   2.213   6.030 -2.6045  3.2303  3.3783
    8CHL1  H12B  551   0.821   2.123   6.075 -0.2061  0.0233 -1.1237
    8CHL1   C11  552   0.981   2.112   6.218  0.5015  0.3489 -0.5555
    8CHL1  H11A  553   1.092   2.108   6.213  0.4395 -1.0603 -1.4055
    8CHL1  H11B  554   0.954   2.191   6.291 -1.5922 -1.7435  1.1289
    8CHL1    C9  555   0.933   1.980   6.289  0.4245 -0.1565  0.4204
    8CHL1    H9  556   0.823   1.981   6.275  0.5495  0.5038 -0.5852
    8CHL1   C10  557   0.956   1.968   6.445 -0.6922 -0.4012 -1.1824
    8CHL1   C19  558   1.106   2.009   6.466  0.1211 -0.1749 -0.4215
    8CHL1  H19A  559   1.128   1.988   6.572 -0.5535  1.4061  0.0573
    8CHL1  H19B  560   1.173   1.953   6.398  0.5143 -1.3733  0.9277
    8CHL1  H19C  561   1.105   2.120   6.458 -0.8746 -0.2247 -1.1737
    8CHL1    C1  562   0.858   2.060   6.515  0.2100 -0.4004  0.8789
    8CHL1   H1A  563   0.886   2.162   6.480 -1.0512 -1.7830 -5.2058
    8CHL1   H1B  564   0.753   2.049   6.480  0.7740  0.2505 -1.1276
    8CHL1    C2  565   0.857   2.062   6.667 -0.0291 -0.0650 -0.7942
    8CHL1   H2A  566   0.788   2.130   6.721  0.0406 -0.8336  0.3084
    8CHL1   H2B  567   0.958   2.099   6.693  0.2630 -2.0133  1.1215
    8CHL1   C20  568   0.973   2.047   5.730 -0.2756 -0.4470  0.5953
    8CHL1   H20  569   1.071   2.005   5.697  1.7123  2.3769  2.4660
    8CHL1   C21  570   0.983   2.197   5.756  0.7638 -0.4328  0.4448
    8CHL1  H21A  571   1.041   2.214   5.849  0.1458 -0.5601  0.8541
    8CHL1  H21B  572   0.882   2.242   5.766  1.0631 -0.1360  2.4029
    8CHL1  H21C  573   1.048   2.246   5.679  1.3050 -1.4795  0.2167
    8CHL1   C22  574   0.860   2.016   5.623  0.5003  0.0786  0.1578
    8CHL1  H22A  575   0.839   1.907   5.616  1.8604 -0.1162 -1.5474
    8CHL1  H22B  576   0.770   2.077   5.646  1.1582  0.5536  1.5578
    8CHL1   C23  577   0.919   2.070   5.482  0.0291  0.2423  0.7181
    8CHL1  H23A  578   0.933   2.179   5.495 -1.1917  0.2860  1.8924
    8CHL1  H23B  579   1.012   2.014   5.458  0.5124  0.9216  0.9878
    8CHL1   C24  580   0.813   2.060   5.374  0.2131 -0.2816 -0.1887
    8CHL1  H24A  581   0.811   1.953   5.344 -1.9170 -0.3247 -0.0708
    8CHL1  H24B  582   0.713   2.093   5.410  0.0440 -0.8234 -0.1480
    8CHL1   C25  583   0.840   2.147   5.249 -0.1550  0.4165  0.2877
    8CHL1   H25  584   0.762   2.118   5.175 -0.5746 -0.8977  1.2225
    8CHL1   C26  585   0.826   2.292   5.275  0.0516 -0.1224 -0.4884
    8CHL1  H26A  586   0.731   2.319   5.326 -0.1687  1.7436 -1.7686
    8CHL1  H26B  587   0.913   2.339   5.326  0.3187 -0.8361 -0.2655
    8CHL1  H26C  588   0.823   2.347   5.178  1.6789  0.8713 -0.0074
    8CHL1   C27  589   0.980   2.118   5.187 -0.1886 -0.0836  0.3026
    8CHL1  H27A  590   1.063   2.159   5.248  2.0214  2.1068 -3.7709
    8CHL1  H27B  591   0.991   2.008   5.173  1.7744 -0.0207  1.0973
    8CHL1  H27C  592   1.002   2.169   5.091  0.1487 -0.2028  0.3164
    9CHL1    C3  593   3.954   0.654   6.374  0.4459 -0.2939  0.2767
    9CHL1    H3  594   4.020   0.736   6.338 -0.5032 -0.0851 -1.0801
    9CHL1    O3  595   3.966   0.615   6.507  0.1810  1.1970  0.5152
    9CHL1   H3'  596   3.963   0.699   6.554 -1.2083 -0.1547  3.0123
    9CHL1    C4  597   3.807   0.691   6.352 -0.0801 -0.7458  0.5648
    9CHL1   H4A  598   3.743   0.609   6.389 -1.4285  0.4988  1.0663
    9CHL1   H4B  599   3.783   0.780   6.414  0.8324 -0.0821 -0.0052
    9CHL1    C5  600   3.770   0.724   6.203  0.8484 -0.0538  0.5883
    9CHL1    C6  601   3.724   0.842   6.157  0.2974  0.0966  0.6083
    9CHL1    H6  602   3.697   0.923   6.225 -1.8288  1.9691 -2.2360
    9CHL1    C7  603   3.696   0.880   6.012 -0.2510  0.0765  0.5596
    9CHL1   H7A  604   3.590   0.912   5.998 -0.3244 -0.2160  0.4195
    9CHL1   H7B  605   3.770   0.961   5.994  0.9097 -1.1159 -0.2878
    9CHL1    C8  606   3.703   0.758   5.920 -0.2457  0.0934  0.0213
    9CHL1    H8  607   3.604   0.707   5.924 -0.3733  0.4233  2.0349
    9CHL1   C14  608   3.722   0.805   5.777 -0.6559  0.5347 -0.1272
    9CHL1   H14  609   3.823   0.851   5.769 -0.7372  0.6511 -0.5216
    9CHL1   C15  610   3.647   0.927   5.716 -0.5074  0.3389 -0.0817
    9CHL1  H15A  611   3.539   0.921   5.744 -0.1411  0.2110  1.3678
    9CHL1  H15B  612   3.686   1.027   5.746 -0.2470  0.3830 -0.5561
    9CHL1   C16  613   3.664   0.910   5.560 -0.0660  1.3906  0.5706
    9CHL1  H16A  614   3.560   0.898   5.521  1.0336 -0.5482 -2.0709
    9CHL1  H16B  615   3.702   1.003   5.514  0.4379 -0.0407 -2.0736
    9CHL1   C17  616   3.753   0.781   5.543  0.0168 -1.0190 -0.3819
    9CHL1   H17  617   3.853   0.827   5.554 -1.9118  3.3899  1.2640
    9CHL1   C13  618   3.730   0.694   5.672 -0.5187  1.4702  1.0407
    9CHL1   C18  619   3.593   0.623   5.658  0.3586 -0.7295 -0.2953
    9CHL1  H18A  620   3.564   0.584   5.758 -1.4122  0.0777 -0.4489
    9CHL1  H18B  621   3.500   0.678   5.631  0.3024 -0.8551 -0.3602
    9CHL1  H18C  622   3.604   0.534   5.593  3.5371  0.3373 -1.3928
    9CHL1   C12  623   3.845   0.595   5.712 -1.0982 -0.4021 -0.2586
    9CHL1  H12A  624   3.860   0.519   5.633  1.6407  0.4043 -0.5875
    9CHL1  H12B  625   3.937   0.656   5.714 -0.4075 -1.4061  1.3923
    9CHL1   C11  626   3.832   0.540   5.855 -0.3399  0.0916  0.1181
    9CHL1  H11A  627   3.748   0.468   5.865 -0.0831 -0.2750 -0.3761
    9CHL1  H11B  628   3.928   0.490   5.881 -0.4570  0.1203  0.6333
    9CHL1    C9  629   3.807   0.655   5.959  0.1203 -0.4035  0.5737
    9CHL1    H9  630   3.898   0.716   5.940 -0.3866  0.0133 -0.6177
    9CHL1   C10  631   3.821   0.616   6.106 -1.1453 -0.4223  0.0052
    9CHL1   C19  632   3.728   0.494   6.123 -0.1086  0.0480 -0.2230
    9CHL1  H19A  633   3.780   0.411   6.071  3.7888  0.6321  2.3086
    9CHL1  H19B  634   3.710   0.451   6.224  0.5448  0.3865  0.0465
    9CHL1  H19C  635   3.635   0.516   6.067  0.5455  1.6010 -0.7754
    9CHL1    C1  636   3.965   0.567   6.142  0.0736 -0.1676  0.2111
    9CHL1   H1A  637   3.995   0.476   6.087 -3.4695 -1.1765 -0.2914
    9CHL1   H1B  638   4.036   0.641   6.100 -1.3887  1.3292  0.2340
    9CHL1    C2  639   3.984   0.531   6.290 -0.2444 -0.1485  0.1936
    9CHL1   H2A  640   4.088   0.493   6.300 -0.9105 -1.8539  1.0228
    9CHL1   H2B  641   3.933   0.447   6.341 -0.9925  0.6585  0.7964
    9CHL1   C20  642   3.734   0.726   5.394 -0.0034 -0.9694  0.1974
    9CHL1   H20  643   3.634   0.677   5.393 -1.1550  1.0828  2.8064
    9CHL1   C21  644   3.844   0.625   5.364 -0.4695  0.7035  0.7734
    9CHL1  H21A  645   3.937   0.644   5.422  1.4745 -1.9799 -1.1961
    9CHL1  H21B  646   3.878   0.625   5.259 -0.2934 -2.5376  0.7201
    9CHL1  H21C  647   3.810   0.519   5.369  0.3703  0.2570 -1.5389
    9CHL1   C22  648   3.726   0.845   5.287  0.0976  0.1701 -0.4178
    9CHL1  H22A  649   3.636   0.901   5.318 -0.6825 -1.3786  0.1998
    9CHL1  H22B  650   3.812   0.915   5.278 -0.5473  0.9273 -0.7647
    9CHL1   C23  651   3.682   0.801   5.144  0.6123 -0.6376  0.8711
    9CHL1  H23A  652   3.757   0.730   5.102  0.2845 -1.2617  1.3147
    9CHL1  H23B  653   3.584   0.751   5.156  0.8504 -1.0888  0.9652
    9CHL1   C24  654   3.689   0.926   5.049  0.6962 -0.6564 -0.3705
    9CHL1  H24A  655   3.610   0.995   5.085 -2.4736 -3.2648 -1.7792
    9CHL1  H24B  656   3.792   0.966   5.060  0.3845 -0.3936  2.1998
    9CHL1   C25  657   3.653   0.888   4.904  0.4769  0.1624  0.3365
    9CHL1   H25  658   3.714   0.798   4.882  0.4426  0.5777 -1.6176
    9CHL1   C26  659   3.511   0.847   4.880  0.3019  0.1322 -0.2527
    9CHL1  H26A  660   3.512   0.786   4.787  0.1586  1.3041 -1.0369
    9CHL1  H26B  661   3.473   0.793   4.969 -1.0155  0.8905 -0.3284
    9CHL1  H26C  662   3.442   0.932   4.859 -1.1355 -0.6933  0.8927
    9CHL1   C27  663   3.702   0.992   4.805 -0.1332 -0.2757  0.2289
    9CHL1  H27A  664   3.799   1.041   4.827  0.4774 -1.1005 -0.5398
    9CHL1  H27B  665   3.707   0.938   4.707  0.7063 -0.4309  0.3496
    9CHL1  H27C  666   3.625   1.071   4.798  1.1535  1.4286  3.2457
   10CHL1    C3  667   5.271   6.588   5.931  1.4058  0.9527  0.3158
   10CHL1    H3  668   5.290   6.481   5.907 -0.5362  0.9481 -1.5238
   10CHL1    O3  669   5.314   6.613   6.058 -0.2437 -0.2890  0.0601
   10CHL1   H3'  670   5.333   6.707   6.050 -1.2190 -0.2310 -2.5977
   10CHL1    C4  671   5.353   6.664   5.833  0.0400  0.6530  0.6640
   10CHL1   H4A  672   5.350   6.771   5.865 -0.3696  0.1350  2.4647
   10CHL1   H4B  673   5.460   6.639   5.844 -0.1305 -0.0556  0.7839
   10CHL1    C5  674   5.313   6.643   5.687  0.0887 -0.2259  0.6228
   10CHL1    C6  675   5.402   6.608   5.596  0.6115  0.2787  0.7235
   10CHL1    H6  676   5.510   6.608   5.617  0.6552 -1.2930  0.6422
   10CHL1    C7  677   5.360   6.571   5.457 -0.3410 -0.2437 -0.0864
   10CHL1   H7A  678   5.423   6.610   5.375  2.3803 -1.5719  1.2068
   10CHL1   H7B  679   5.352   6.461   5.447  0.5547 -0.3211 -0.0079
   10CHL1    C8  680   5.212   6.618   5.425 -0.5788  0.3169 -0.4446
   10CHL1    H8  681   5.215   6.729   5.419 -0.4988  0.2448 -2.4634
   10CHL1   C14  682   5.163   6.559   5.295  0.3549  0.5750 -1.0408
   10CHL1   H14  683   5.152   6.450   5.313 -2.9792  1.0540  0.5450
   10CHL1   C15  684   5.266   6.572   5.172  0.0474  0.0773  0.2196
   10CHL1  H15A  685   5.296   6.678   5.153  2.6217 -0.6033  0.0382
   10CHL1  H15B  686   5.351   6.501   5.179  2.5511  2.9683  1.2157
   10CHL1   C16  687   5.169   6.529   5.060 -0.4479 -0.9214 -0.9356
   10CHL1  H16A  688   5.163   6.604   4.978 -0.7134 -0.3237 -0.3710
   10CHL1  H16B  689   5.196   6.427   5.024 -0.0020 -0.4662 -1.9061
   10CHL1   C17  690   5.019   6.529   5.112 -0.2909  0.5882  0.2078
   10CHL1   H17  691   5.006   6.424   5.145  1.0213 -0.0631 -1.2201
   10CHL1   C13  692   5.025   6.597   5.251  0.3113 -0.2131 -0.0740
   10CHL1   C18  693   5.006   6.750   5.234 -0.5678 -0.2258 -0.0748
   10CHL1  H18A  694   4.906   6.749   5.184 -0.9044 -0.6972  0.5960
   10CHL1  H18B  695   5.004   6.807   5.329 -0.5353  0.0469 -0.2370
   10CHL1  H18C  696   5.087   6.785   5.167  0.4373 -0.9098  0.7561
   10CHL1   C12  697   4.929   6.551   5.362 -0.0199 -0.4100 -0.6977
   10CHL1  H12A  698   4.829   6.594   5.338 -0.7194 -0.8504  1.2552
   10CHL1  H12B  699   4.926   6.440   5.360  2.0807 -0.5174 -0.1076
   10CHL1   C11  700   4.968   6.597   5.502  0.1417  0.1175  0.0317
   10CHL1  H11A  701   4.957   6.708   5.507 -0.6353  0.0197  0.7720
   10CHL1  H11B  702   4.913   6.534   5.575  0.7516  0.7946  1.0944
   10CHL1    C9  703   5.120   6.580   5.535  0.5043  0.0857 -0.2722
   10CHL1    H9  704   5.130   6.469   5.544  0.5945  0.0635 -0.6283
   10CHL1   C10  705   5.162   6.647   5.672 -0.7544 -0.2066 -0.5980
   10CHL1   C19  706   5.135   6.798   5.670 -0.0211 -0.5960 -0.8163
   10CHL1  H19A  707   5.201   6.848   5.744 -0.7741 -3.0234  1.6865
   10CHL1  H19B  708   5.139   6.843   5.568  0.8742  0.6554 -0.2515
   10CHL1  H19C  709   5.033   6.831   5.700  1.4351  1.3134  2.5831
   10CHL1    C1  710   5.074   6.586   5.786 -0.2189  0.0024  0.8881
   10CHL1   H1A  711   4.967   6.614   5.768  0.3404  1.3025 -0.6708
   10CHL1   H1B  712   5.082   6.475   5.778  0.5074  0.1238 -0.2438
   10CHL1    C2  713   5.119   6.618   5.924  0.1947  0.4305 -0.1921
   10CHL1   H2A  714   5.061   6.566   6.004 -0.0014 -1.9470 -1.7691
   10CHL1   H2B  715   5.109   6.726   5.945  1.9932  0.5625  0.1442
   10CHL1   C20  716   4.919   6.567   5.003  0.2931  0.1295  0.3563
   10CHL1   H20  717   4.925   6.676   4.979 -0.4086 -0.4516 -2.8473
   10CHL1   C21  718   4.777   6.551   5.054 -0.4531 -0.4733 -0.4364
   10CHL1  H21A  719   4.756   6.445   5.076  0.6983 -0.3523  1.4828
   10CHL1  H21B  720   4.706   6.597   4.982 -0.6850  1.6540  1.0581
   10CHL1  H21C  721   4.767   6.619   5.141 -0.6878  0.7054 -1.3556
   10CHL1   C22  722   4.939   6.481   4.873 -0.1586 -0.2270 -0.7191
   10CHL1  H22A  723   5.041   6.498   4.832  0.3697 -2.2348 -0.3565
   10CHL1  H22B  724   4.927   6.375   4.902 -1.2728 -0.4859 -2.0276
   10CHL1   C23  725   4.841   6.508   4.767  0.4788  0.1077  0.4730
   10CHL1  H23A  726   4.733   6.521   4.791  0.0551 -0.6097 -0.8786
   10CHL1  H23B  727   4.876   6.604   4.725  0.3369 -0.2836 -0.5920
   10CHL1   C24  728   4.841   6.401   4.655 -0.4427  0.0837 -0.2246
   10CHL1  H24A  729   4.944   6.379   4.622  0.1062  2.7795 -0.5269
   10CHL1  H24B  730   4.801   6.311   4.707  1.9082 -0.6892  0.3754
   10CHL1   C25  731   4.762   6.442   4.531  0.6029  0.2516  0.0929
   10CHL1   H25  732   4.805   6.535   4.488 -2.1196  1.5686  0.0127
   10CHL1   C26  733   4.763   6.338   4.416 -0.6750  0.1545  0.9337
   10CHL1  H26A  734   4.704   6.375   4.329  1.2724 -1.5469 -1.2663
   10CHL1  H26B  735   4.861   6.313   4.369 -0.4659  1.4517  0.6350
   10CHL1  H26C  736   4.726   6.237   4.441 -1.4273 -0.1474 -1.1844
   10CHL1   C27  737   4.612   6.473   4.569 -0.0563  0.2176  0.2410
   10CHL1  H27A  738   4.577   6.379   4.616 -1.9366 -0.9199 -3.0732
   10CHL1  H27B  739   4.613   6.562   4.634  0.2429 -0.9595  1.9015
   10CHL1  H27C  740   4.564   6.485   4.469 -0.0475 -1.7885 -0.0525
   11CHL1    C3  741   1.811   4.869   6.190  0.1127 -0.4189 -0.6614
   11CHL1    H3  742   1.773   4.765   6.201  1.1094 -0.6581  0.9684
   11CHL1    O3  743   1.853   4.909   6.317  0.1611  0.1204  0.5979
   11CHL1   H3'  744   1.852   5.005   6.320  0.9312  0.1330  0.7711
   11CHL1    C4  745   1.934   4.869   6.099  0.2390  0.0031  0.3650
   11CHL1   H4A  746   2.001   4.955   6.119  0.6579 -0.5976  1.6117
   11CHL1   H4B  747   1.998   4.782   6.124 -1.2052 -0.6012  2.1661
   11CHL1    C5  748   1.897   4.851   5.953 -0.4022  0.1112 -0.5054
   11CHL1    C6  749   1.956   4.756   5.879 -0.6567  0.5020  0.0220
   11CHL1    H6  750   2.025   4.682   5.923 -2.9191 -0.8627  1.5024
   11CHL1    C7  751   1.928   4.736   5.734  0.1686  0.0609 -0.0401
   11CHL1   H7A  752   2.020   4.724   5.674 -0.2654 -1.0398 -0.5079
   11CHL1   H7B  753   1.857   4.653   5.714  0.4340 -0.0085 -0.7069
   11CHL1    C8  754   1.863   4.862   5.668 -0.4407  0.5847  0.1134
   11CHL1    H8  755   1.939   4.944   5.663 -0.1894  0.7230  3.6006
   11CHL1   C14  756   1.793   4.834   5.537 -0.0714  0.4728  0.3445
   11CHL1   H14  757   1.704   4.771   5.556 -3.0871  3.6599 -1.9127
   11CHL1   C15  758   1.878   4.756   5.433 -0.2425 -0.6657  0.3833
   11CHL1  H15A  759   1.984   4.789   5.428  0.2582 -1.7387  2.6014
   11CHL1  H15B  760   1.874   4.650   5.466 -1.2878 -0.7833 -0.0949
   11CHL1   C16  761   1.814   4.793   5.295 -0.2895  0.3860  0.5468
   11CHL1  H16A  762   1.888   4.850   5.236  0.3847 -1.5374 -0.5624
   11CHL1  H16B  763   1.791   4.699   5.241  0.0231  1.1168 -0.8985
   11CHL1   C17  764   1.688   4.883   5.332 -0.2194  0.0269  0.3518
   11CHL1   H17  765   1.606   4.810   5.349  0.6456 -1.1674 -0.4309
   11CHL1   C13  766   1.722   4.951   5.466  0.2493  0.2882 -0.1291
   11CHL1   C18  767   1.821   5.073   5.448 -0.2532 -0.0957  0.2980
   11CHL1  H18A  768   1.856   5.109   5.547 -0.5004  0.3547  0.2235
   11CHL1  H18B  769   1.913   5.028   5.404  0.7808  0.1753  2.1025
   11CHL1  H18C  770   1.784   5.161   5.391 -1.9624  0.3979  2.0744
   11CHL1   C12  771   1.592   4.981   5.552 -0.3693 -0.2309 -0.5604
   11CHL1  H12A  772   1.513   5.053   5.523  0.0989  1.3950  1.9016
   11CHL1  H12B  773   1.527   4.892   5.545 -0.1516 -0.4641  0.2097
   11CHL1   C11  774   1.647   5.007   5.695 -0.7544 -0.1009  0.7425
   11CHL1  H11A  775   1.699   5.104   5.684  1.4522 -1.2342  0.6385
   11CHL1  H11B  776   1.558   5.036   5.756 -0.1574 -1.9030  2.6067
   11CHL1    C9  777   1.747   4.910   5.765 -0.1620 -0.3177  0.6756
   11CHL1    H9  778   1.690   4.816   5.784 -1.6175  0.2634 -0.6609
   11CHL1   C10  779   1.796   4.956   5.907 -0.0475  0.4805  0.3413
   11CHL1   C19  780   1.861   5.097   5.895  0.6583 -0.9778  0.5233
   11CHL1  H19A  781   1.879   5.151   5.991 -2.4406 -0.0473  0.6803
   11CHL1  H19B  782   1.948   5.092   5.826  0.1075  1.7321 -0.4557
   11CHL1  H19C  783   1.792   5.165   5.841  0.4343 -0.2013  1.7382
   11CHL1    C1  784   1.670   4.955   6.002  0.2390 -0.9585  0.4214
   11CHL1   H1A  785   1.603   5.036   5.966 -0.9328 -2.6255 -1.3803
   11CHL1   H1B  786   1.621   4.857   5.980 -0.3234 -0.5794 -0.0609
   11CHL1    C2  787   1.712   4.972   6.150  0.2906 -0.8303  0.2182
   11CHL1   H2A  788   1.624   4.982   6.217  0.3136  1.0673  0.0182
   11CHL1   H2B  789   1.761   5.071   6.157  0.3218 -0.7699 -0.8052
   11CHL1   C20  790   1.643   4.968   5.207 -0.1955 -0.2963  0.7910
   11CHL1   H20  791   1.726   5.037   5.182 -0.7644 -0.4163 -1.7285
   11CHL1   C21  792   1.521   5.047   5.243  0.6184 -0.5599 -0.8224
   11CHL1  H21A  793   1.455   4.984   5.307  0.6440  1.4809  1.3417
   11CHL1  H21B  794   1.457   5.085   5.161 -2.6831 -1.5226  1.1214
   11CHL1  H21C  795   1.559   5.126   5.311 -0.4638 -1.5756  1.0788
   11CHL1   C22  796   1.599   4.888   5.077  0.3593 -0.3095  0.4445
   11CHL1  H22A  797   1.677   4.811   5.061  1.3484  0.4466  1.4640
   11CHL1  H22B  798   1.502   4.839   5.099 -0.3916  1.6906  1.8981
   11CHL1   C23  799   1.571   4.962   4.949 -0.3788  0.3284  0.0928
   11CHL1  H23A  800   1.470   5.009   4.951 -0.6369 -0.1331 -1.0733
   11CHL1  H23B  801   1.648   5.041   4.943 -1.0880  1.2604  2.2716
   11CHL1   C24  802   1.589   4.873   4.828  0.4815 -0.8935  0.8069
   11CHL1  H24A  803   1.695   4.844   4.809  1.1595  0.2736  2.5322
   11CHL1  H24B  804   1.535   4.778   4.848 -1.9524  0.8351  3.1467
   11CHL1   C25  805   1.536   4.932   4.699  0.8912 -0.5221  0.6234
   11CHL1   H25  806   1.566   4.862   4.617 -1.9627 -0.2654 -0.7555
   11CHL1   C26  807   1.389   4.949   4.695 -0.0235 -0.1575  0.5729
   11CHL1  H26A  808   1.368   4.996   4.596 -1.4112 -0.7633  0.5567
   11CHL1  H26B  809   1.338   4.851   4.683  1.4213 -0.6214 -3.5893
   11CHL1  H26C  810   1.354   5.014   4.777  1.4810  2.7111 -0.9063
   11CHL1   C27  811   1.610   5.060   4.668  0.9046 -0.0957  0.1611
   11CHL1  H27A  812   1.579   5.138   4.741  0.5039 -1.5801  1.6258
   11CHL1  H27B  813   1.717   5.031   4.658  1.0958  0.5936  0.1725
   11CHL1  H27C  814   1.579   5.095   4.567 -0.7368 -1.8352  0.0153
   12CHL1    C3  815   1.542   5.415   6.217 -0.5928 -0.3855  0.5734
   12CHL1    H3  816   1.434   5.423   6.239 -1.0739 -2.9733 -0.5056
   12CHL1    O3  817   1.611   5.373   6.335  0.3812  0.2452  0.5823
   12CHL1   H3'  818   1.579   5.433   6.403 -0.6176 -0.0662  0.4019
   12CHL1    C4  819   1.548   5.299   6.117  0.2548  0.5333  0.0799
   12CHL1   H4A  820   1.656   5.272   6.110  0.5452  0.7440  2.7403
   12CHL1   H4B  821   1.498   5.215   6.170  0.5218  0.5400  0.3483
   12CHL1    C5  822   1.499   5.318   5.976 -0.2637 -0.4120 -0.1551
   12CHL1    C6  823   1.406   5.243   5.912  0.0262 -0.2793  0.6423
   12CHL1    H6  824   1.368   5.154   5.965  0.6076 -0.4387  0.8072
   12CHL1    C7  825   1.341   5.282   5.785 -0.4319 -0.2065  0.4770
   12CHL1   H7A  826   1.325   5.196   5.717  0.8210  1.7373 -2.4888
   12CHL1   H7B  827   1.239   5.324   5.801 -0.0193  1.2452 -0.4704
   12CHL1    C8  828   1.429   5.380   5.705 -0.2923 -0.6771  0.5759
   12CHL1    H8  829   1.517   5.333   5.656  0.8926  1.2661  0.7031
   12CHL1   C14  830   1.343   5.435   5.589  0.3543 -0.0523 -0.0323
   12CHL1   H14  831   1.264   5.499   5.633  0.1820 -3.0369  4.6007
   12CHL1   C15  832   1.286   5.334   5.481 -0.7555  0.6436 -0.4962
   12CHL1  H15A  833   1.357   5.250   5.467 -2.0027 -0.3114 -1.4099
   12CHL1  H15B  834   1.192   5.282   5.511  1.6658 -2.2725  2.8362
   12CHL1   C16  835   1.256   5.418   5.357  0.1127  0.6326 -0.3560
   12CHL1  H16A  836   1.299   5.366   5.268  0.6587 -1.2227  0.9128
   12CHL1  H16B  837   1.145   5.426   5.355  0.0466 -0.0518  0.0997
   12CHL1   C17  838   1.321   5.553   5.374 -0.2761 -0.0426 -0.0121
   12CHL1   H17  839   1.247   5.628   5.410 -0.4143  1.0455 -2.3429
   12CHL1   C13  840   1.425   5.527   5.490  0.0210  0.6133 -0.4891
   12CHL1   C18  841   1.550   5.459   5.426  1.0849 -0.6669 -0.4520
   12CHL1  H18A  842   1.522   5.375   5.359  2.6061 -0.8405 -0.9129
   12CHL1  H18B  843   1.593   5.535   5.357  0.3607 -0.3796 -0.5929
   12CHL1  H18C  844   1.636   5.433   5.492 -0.0414 -1.6335  0.6888
   12CHL1   C12  845   1.474   5.653   5.570 -0.0432  0.0918 -0.2080
   12CHL1  H12A  846   1.544   5.727   5.526  0.0259  0.9818  1.3163
   12CHL1  H12B  847   1.380   5.706   5.598 -0.6869  0.0892 -2.2298
   12CHL1   C11  848   1.546   5.610   5.696 -0.2733  0.1766  0.4541
   12CHL1  H11A  849   1.642   5.564   5.664 -0.1587  0.5726  0.2263
   12CHL1  H11B  850   1.572   5.701   5.754 -2.7106  0.2378  1.5311
   12CHL1    C9  851   1.475   5.504   5.790  0.1662 -0.8412  0.4122
   12CHL1    H9  852   1.379   5.554   5.814  0.3940 -0.7876  1.2652
   12CHL1   C10  853   1.547   5.458   5.917 -0.0115  0.6823  0.5534
   12CHL1   C19  854   1.702   5.434   5.868 -0.4186 -0.0407 -0.0996
   12CHL1  H19A  855   1.759   5.395   5.955 -1.9397 -0.4973  0.7403
   12CHL1  H19B  856   1.707   5.370   5.778  0.2613 -1.5036  0.9335
   12CHL1  H19C  857   1.756   5.528   5.845 -1.6856  1.1374  1.4812
   12CHL1    C1  858   1.544   5.570   6.023 -0.3852 -0.4186 -0.3526
   12CHL1   H1A  859   1.586   5.663   5.977  1.7425 -1.9503 -1.7060
   12CHL1   H1B  860   1.438   5.585   6.055  0.0660  0.4710  0.7611
   12CHL1    C2  861   1.612   5.539   6.158 -0.0767  0.3364 -0.0998
   12CHL1   H2A  862   1.594   5.613   6.240 -1.4129  1.2854 -1.2124
   12CHL1   H2B  863   1.721   5.517   6.149 -0.3212 -0.4690 -1.1937
   12CHL1   C20  864   1.364   5.615   5.241  0.5333  0.4982  0.1529
   12CHL1   H20  865   1.438   5.544   5.197  0.8691  1.8572 -1.5906
   12CHL1   C21  866   1.449   5.747   5.256 -0.2656 -0.4352  0.8799
   12CHL1  H21A  867   1.531   5.739   5.330  0.4100  0.2253  0.2241
   12CHL1  H21B  868   1.372   5.824   5.281  1.1199  0.8940  1.1904
   12CHL1  H21C  869   1.490   5.777   5.157 -3.2349  0.2832 -0.2570
   12CHL1   C22  870   1.245   5.638   5.148 -0.4055 -0.1531 -0.2787
   12CHL1  H22A  871   1.169   5.562   5.176  0.0273 -0.8641 -0.9605
   12CHL1  H22B  872   1.204   5.738   5.174  0.6203  0.6474 -1.6113
   12CHL1   C23  873   1.290   5.637   5.000 -0.0741 -0.0209 -0.3486
   12CHL1  H23A  874   1.352   5.728   4.981 -0.6380  0.1849 -1.2322
   12CHL1  H23B  875   1.363   5.555   4.985  1.8997  1.6995 -0.6608
   12CHL1   C24  876   1.193   5.624   4.890 -0.2849  0.1937 -0.2999
   12CHL1  H24A  877   1.100   5.675   4.922 -0.4988 -0.1381 -0.3943
   12CHL1  H24B  878   1.233   5.694   4.814  1.4812  3.3076  3.1388
   12CHL1   C25  879   1.150   5.476   4.856  0.5892 -0.0792  0.4858
   12CHL1   H25  880   1.237   5.407   4.861  1.0698  0.3256 -1.3674
   12CHL1   C26  881   1.049   5.417   4.951 -0.1609  0.3783 -0.9302
   12CHL1  H26A  882   0.996   5.327   4.914 -1.2115  1.7353 -2.9186
   12CHL1  H26B  883   1.090   5.410   5.054  0.0123 -1.2920 -1.0813
   12CHL1  H26C  884   0.968   5.493   4.943 -0.1047  0.4803 -0.5241
   12CHL1   C27  885   1.097   5.469   4.713 -0.5009  0.1556 -0.0609
   12CHL1  H27A  886   1.175   5.501   4.640 -0.1883 -2.5929 -1.0422
   12CHL1  H27B  887   1.072   5.363   4.695 -4.0186  0.2841  2.8979
   12CHL1  H27C  888   1.005   5.529   4.693 -1.0978 -0.2098  1.4824
   13CHL1    C3  889   3.283   6.267   6.173 -0.6825 -0.2190  0.2348
   13CHL1    H3  890   3.360   6.195   6.136 -1.0084  0.2508 -1.4512
   13CHL1    O3  891   3.298   6.280   6.312  0.3153 -0.4504 -0.2248
   13CHL1   H3'  892   3.220   6.330   6.337 -0.2039 -0.2227 -2.1354
   13CHL1    C4  893   3.304   6.407   6.108 -1.1835 -0.0085  0.5482
   13CHL1   H4A  894   3.229   6.479   6.145 -0.2488  1.2818  0.0091
   13CHL1   H4B  895   3.403   6.439   6.149 -0.6455  0.6339 -1.1697
   13CHL1    C5  896   3.298   6.400   5.959  0.3944  0.0535 -0.4839
   13CHL1    C6  897   3.394   6.453   5.877 -0.1299  0.4014  0.4512
   13CHL1    H6  898   3.478   6.506   5.926  1.0037 -2.0290  1.3192
   13CHL1    C7  899   3.403   6.447   5.732 -0.0961 -0.1674 -0.3804
   13CHL1   H7A  900   3.419   6.547   5.684 -0.2948  0.2078  0.3242
   13CHL1   H7B  901   3.488   6.381   5.705  0.0577  0.1318 -0.6349
   13CHL1    C8  902   3.259   6.403   5.675 -0.7364 -0.2146 -0.0352
   13CHL1    H8  903   3.204   6.499   5.677 -0.3442 -0.0041  1.0741
   13CHL1   C14  904   3.274   6.354   5.535  0.2838  0.7024  0.4609
   13CHL1   H14  905   3.340   6.264   5.541  3.2896  2.7891  0.8958
   13CHL1   C15  906   3.355   6.425   5.425 -0.6057  0.3049  0.5131
   13CHL1  H15A  907   3.312   6.526   5.412  0.9679  0.7706 -1.4985
   13CHL1  H15B  908   3.461   6.440   5.452 -0.3560 -1.5767  0.7312
   13CHL1   C16  909   3.328   6.357   5.294 -0.8158  0.0718 -0.3351
   13CHL1  H16A  910   3.290   6.434   5.223 -0.4349  0.4495 -0.1355
   13CHL1  H16B  911   3.413   6.301   5.247  0.7923  1.9647  0.1710
   13CHL1   C17  912   3.201   6.268   5.322  0.6390  0.8163  0.1375
   13CHL1   H17  913   3.241   6.165   5.326  1.9562  1.1813 -1.7828
   13CHL1   C13  914   3.144   6.317   5.459 -0.1348 -0.1494  0.5206
   13CHL1   C18  915   3.058   6.440   5.439  0.1805  0.2487 -0.0639
   13CHL1  H18A  916   3.022   6.468   5.540 -1.1858  2.7130 -1.1380
   13CHL1  H18B  917   3.102   6.532   5.395  1.5398  0.8153  2.3127
   13CHL1  H18C  918   2.963   6.414   5.388 -0.6920 -0.3383  1.8073
   13CHL1   C12  919   3.080   6.203   5.534  0.5337  0.8750  0.3800
   13CHL1  H12A  920   2.978   6.176   5.500  1.6366 -3.6548 -0.0160
   13CHL1  H12B  921   3.142   6.110   5.534 -2.5563 -1.5471  4.2638
   13CHL1   C11  922   3.067   6.234   5.685 -0.0937  0.4332  0.1898
   13CHL1  H11A  923   2.980   6.303   5.678 -0.2139  0.2818  0.1556
   13CHL1  H11B  924   3.034   6.138   5.730  0.6727  0.1405  0.1421
   13CHL1    C9  925   3.193   6.289   5.760 -0.0499  0.0334 -0.1984
   13CHL1    H9  926   3.260   6.201   5.760  0.0011  0.0116  1.7084
   13CHL1   C10  927   3.174   6.323   5.911 -0.5813 -1.3755 -0.0091
   13CHL1   C19  928   3.044   6.415   5.925 -0.3749 -0.4348  0.3154
   13CHL1  H19A  929   2.954   6.357   5.952 -0.4658 -1.2229 -1.5003
   13CHL1  H19B  930   3.060   6.493   6.003  1.5018 -0.1214 -0.3219
   13CHL1  H19C  931   3.029   6.468   5.828  3.7948  0.1645 -0.1873
   13CHL1    C1  932   3.142   6.192   5.988  0.3960  0.2258 -0.0366
   13CHL1   H1A  933   3.044   6.151   5.954  0.3611  0.1229  0.1859
   13CHL1   H1B  934   3.213   6.110   5.968 -1.1013 -1.1506  0.0665
   13CHL1    C2  935   3.147   6.214   6.137 -0.6182 -0.2611  0.0976
   13CHL1   H2A  936   3.138   6.119   6.194  2.5609 -0.5500  0.3028
   13CHL1   H2B  937   3.068   6.281   6.177 -0.6060 -0.3538  0.2775
   13CHL1   C20  938   3.105   6.264   5.205  0.0688 -0.1131  0.1108
   13CHL1   H20  939   3.067   6.366   5.180  2.2174  0.3547 -1.5305
   13CHL1   C21  940   2.978   6.175   5.224 -0.4064 -0.1693 -0.3323
   13CHL1  H21A  941   3.002   6.073   5.260 -3.1710 -1.2404 -1.2850
   13CHL1  H21B  942   2.914   6.170   5.133 -0.6911  1.4734 -0.2549
   13CHL1  H21C  943   2.915   6.226   5.300  0.7220  1.0711 -0.2029
   13CHL1   C22  944   3.180   6.220   5.074 -0.0699 -0.0423 -0.2434
   13CHL1  H22A  945   3.268   6.287   5.066  1.3210 -1.4471  2.2028
   13CHL1  H22B  946   3.232   6.123   5.089  3.3775  1.9376  2.1554
   13CHL1   C23  947   3.099   6.208   4.952  1.0889 -0.4327 -0.6552
   13CHL1  H23A  948   3.013   6.139   4.963  1.0774 -0.2354  0.7373
   13CHL1  H23B  949   3.056   6.308   4.927 -0.1898 -1.3786 -2.4066
   13CHL1   C24  950   3.187   6.154   4.828  0.1817  0.1455 -0.4995
   13CHL1  H24A  951   3.278   6.215   4.810  1.3873 -1.4136  0.0789
   13CHL1  H24B  952   3.212   6.051   4.861 -1.5836  0.2430  1.3136
   13CHL1   C25  953   3.115   6.136   4.694 -0.7593 -0.1318 -0.0676
   13CHL1   H25  954   3.183   6.095   4.617 -1.4451 -2.1029  0.3292
   13CHL1   C26  955   2.991   6.041   4.703 -0.0696 -0.7622 -0.2840
   13CHL1  H26A  956   2.909   6.091   4.759  1.6855  2.6348 -0.5224
   13CHL1  H26B  957   2.946   6.016   4.604 -1.1040 -1.2130  0.2827
   13CHL1  H26C  958   3.028   5.952   4.758  0.8664  0.3416  0.9151
   13CHL1   C27  959   3.066   6.269   4.629 -0.3090 -0.0475 -0.5726
   13CHL1  H27A  960   2.995   6.326   4.693 -2.2703 -0.2351 -2.4700
   13CHL1  H27B  961   3.155   6.335   4.620  0.1669 -0.2565  1.8962
   13CHL1  H27C  962   3.015   6.257   4.531 -1.8388  1.2349  0.0278
   14CHL1    C3  963   4.582   1.800   6.619  0.2099  0.5150 -0.3447
   14CHL1    H3  964   4.639   1.704   6.615  0.3762  0.5508  0.8609
   14CHL1    O3  965   4.580   1.819   6.762 -0.2226 -0.2005  0.1530
   14CHL1   H3'  966   4.658   1.864   6.796 -0.2300 -1.8988  2.6619
   14CHL1    C4  967   4.649   1.909   6.539  0.8586  0.3761  0.4598
   14CHL1   H4A  968   4.589   1.998   6.570  0.1569  0.5207 -1.2231
   14CHL1   H4B  969   4.750   1.933   6.579  0.6438 -0.7516  1.7460
   14CHL1    C5  970   4.627   1.897   6.388  0.0686  0.7404 -0.0062
   14CHL1    C6  971   4.728   1.904   6.301  0.0565  0.0748 -0.6698
   14CHL1    H6  972   4.833   1.924   6.329  0.1671  0.8727 -1.5885
   14CHL1    C7  973   4.707   1.912   6.155  0.0474 -0.3282  0.3674
   14CHL1   H7A  974   4.763   1.999   6.117 -0.1783  0.3177  1.4535
   14CHL1   H7B  975   4.743   1.826   6.095  0.6415 -0.9879  1.6309
   14CHL1    C8  976   4.556   1.925   6.109  0.3055 -0.3792 -0.0126
   14CHL1    H8  977   4.525   2.032   6.104  1.7403  0.2289  2.3574
   14CHL1   C14  978   4.546   1.874   5.958 -0.4579 -0.6165  0.0549
   14CHL1   H14  979   4.574   1.767   5.955 -3.2698 -1.4205 -0.3105
   14CHL1   C15  980   4.636   1.948   5.861 -0.4525 -0.0698  0.2195
   14CHL1  H15A  981   4.620   2.057   5.876 -0.6881  0.3060 -2.3674
   14CHL1  H15B  982   4.744   1.923   5.863 -0.4634 -0.5362 -2.1084
   14CHL1   C16  983   4.586   1.910   5.723  0.2122  0.0945 -0.0903
   14CHL1  H16A  984   4.564   2.003   5.667  2.8523 -0.8976 -3.0432
   14CHL1  H16B  985   4.650   1.835   5.670  1.6853 -0.5443  2.4100
   14CHL1   C17  986   4.445   1.835   5.746 -0.5332 -0.2288 -0.4838
   14CHL1   H17  987   4.460   1.726   5.759  0.0726  0.0712  1.9730
   14CHL1   C13  988   4.410   1.879   5.896 -0.1986 -0.0262 -0.5050
   14CHL1   C18  989   4.354   2.022   5.899 -0.5159 -0.1981 -0.5631
   14CHL1  H18A  990   4.406   2.086   5.824  0.7795  1.1940  1.4429
   14CHL1  H18B  991   4.249   2.028   5.862 -1.4835 -0.9219  1.8947
   14CHL1  H18C  992   4.347   2.075   5.996  2.1372 -0.8004  0.0302
   14CHL1   C12  993   4.324   1.789   5.980  0.0092  0.0472  0.1795
   14CHL1  H12A  994   4.228   1.806   5.927 -0.4180  0.3151  1.0208
   14CHL1  H12B  995   4.357   1.683   5.989  2.4372  0.6625 -0.8361
   14CHL1   C11  996   4.321   1.837   6.130 -0.7185  0.0381  0.2950
   14CHL1  H11A  997   4.278   1.934   6.162  0.2194 -0.1305  2.2321
   14CHL1  H11B  998   4.252   1.764   6.178 -1.0979 -0.1184 -0.4714
   14CHL1    C9  999   4.458   1.840   6.191  0.0049  0.0770  0.6061
   14CHL1    H9 1000   4.488   1.733   6.185  2.3038  0.6387  0.9235
   14CHL1   C10 1001   4.476   1.875   6.343  0.1213 -0.1168  0.3408
   14CHL1   C19 1002   4.402   2.014   6.369  0.6362  1.2103  0.2193
   14CHL1  H19A 1003   4.294   2.016   6.345  0.9430  0.5504 -1.2626
   14CHL1  H19B 1004   4.412   2.040   6.477 -1.5968  1.1119  0.4848
   14CHL1  H19C 1005   4.445   2.094   6.304  0.1292  0.1414 -1.4870
   14CHL1    C1 1006   4.409   1.765   6.421 -0.1784  0.1939  0.4197
   14CHL1   H1A 1007   4.299   1.771   6.406 -0.5390 -1.5070  2.0865
   14CHL1   H1B 1008   4.442   1.662   6.396 -2.8997 -0.6334 -0.0751
   14CHL1    C2 1009   4.430   1.775   6.577 -0.9933 -0.0865  0.3700
   14CHL1   H2A 1010   4.378   1.686   6.619 -1.2625 -0.7657 -1.3121
   14CHL1   H2B 1011   4.377   1.870   6.599  0.9758  1.9080 -2.7246
   14CHL1   C20 1012   4.343   1.867   5.628  0.1682 -0.4362 -0.0116
   14CHL1   H20 1013   4.317   1.974   5.642 -0.0105 -0.3804 -0.7694
   14CHL1   C21 1014   4.218   1.785   5.638 -0.0379 -0.1706 -0.7852
   14CHL1  H21A 1015   4.150   1.804   5.552  1.3239 -2.2515 -2.4402
   14CHL1  H21B 1016   4.165   1.804   5.734 -0.2122 -0.2731 -0.8617
   14CHL1  H21C 1017   4.233   1.676   5.647  1.2059  0.1281  1.8388
   14CHL1   C22 1018   4.414   1.853   5.491 -0.3424 -1.3324 -0.3714
   14CHL1  H22A 1019   4.518   1.893   5.490 -0.9620  0.3633 -1.5137
   14CHL1  H22B 1020   4.422   1.743   5.474 -2.3284 -1.6450  0.4874
   14CHL1   C23 1021   4.340   1.918   5.374 -0.1363 -0.2438 -0.3111
   14CHL1  H23A 1022   4.241   1.867   5.371  0.6103 -1.7359 -3.1719
   14CHL1  H23B 1023   4.336   2.026   5.401  0.7425 -0.7198  1.9439
   14CHL1   C24 1024   4.408   1.899   5.237 -0.0097  0.3685  0.5065
   14CHL1  H24A 1025   4.358   1.965   5.162 -1.8603 -1.9193 -0.4149
   14CHL1  H24B 1026   4.515   1.925   5.244  0.1264 -0.2086  0.6196
   14CHL1   C25 1027   4.413   1.761   5.173 -0.3171  0.3722  0.0306
   14CHL1   H25 1028   4.444   1.696   5.257  3.4070  0.5487 -1.0266
   14CHL1   C26 1029   4.270   1.717   5.120 -0.2971 -0.3174  0.2691
   14CHL1  H26A 1030   4.192   1.714   5.199 -0.4446  1.7292  0.2333
   14CHL1  H26B 1031   4.244   1.791   5.042  1.5489  0.7733  0.6419
   14CHL1  H26C 1032   4.280   1.612   5.085 -1.9640 -0.7360  0.9222
   14CHL1   C27 1033   4.520   1.760   5.062  0.5288  0.0862  0.0501
   14CHL1  H27A 1034   4.496   1.837   4.985  1.8092  0.0393 -0.4221
   14CHL1  H27B 1035   4.628   1.768   5.087  1.0552 -1.4756 -1.5235
   14CHL1  H27C 1036   4.512   1.659   5.017  3.9583 -0.4488  0.4102
   15CHL1    C3 1037   4.108   2.774   6.196 -0.1124 -0.2143 -0.2715
   15CHL1    H3 1038   4.081   2.668   6.174  3.0787 -1.4483  1.0876
   15CHL1    O3 1039   4.116   2.780   6.334  0.6260  0.0199 -0.1810
   15CHL1   H3' 1040   4.149   2.868   6.351 -0.2765  0.2300  0.5770
   15CHL1    C4 1041   4.253   2.804   6.144  0.0316  0.2221 -0.9428
   15CHL1   H4A 1042   4.297   2.896   6.189  0.0775  1.3317 -3.1478
   15CHL1   H4B 1043   4.311   2.716   6.180 -0.6002 -1.2950 -3.4142
   15CHL1    C5 1044   4.244   2.819   5.995  0.0803  1.3578  0.2043
   15CHL1    C6 1045   4.314   2.738   5.908 -0.1753  0.1623  0.2326
   15CHL1    H6 1046   4.386   2.667   5.953 -0.4838  0.5968  1.4644
   15CHL1    C7 1047   4.303   2.746   5.758  0.4948  0.0012 -0.0466
   15CHL1   H7A 1048   4.402   2.713   5.721  0.1745 -1.2097  0.1417
   15CHL1   H7B 1049   4.239   2.664   5.720  0.5146  0.5695 -1.3920
   15CHL1    C8 1050   4.241   2.882   5.711  0.1048  0.0585  0.4125
   15CHL1    H8 1051   4.314   2.959   5.742  2.5092 -0.7095 -2.8291
   15CHL1   C14 1052   4.215   2.892   5.559 -0.2247  0.7543 -0.5321
   15CHL1   H14 1053   4.142   2.811   5.542  0.6376 -0.1351 -0.1093
   15CHL1   C15 1054   4.339   2.853   5.465 -0.1538  0.1240  0.0793
   15CHL1  H15A 1055   4.428   2.908   5.504 -0.6421 -1.0957  3.1967
   15CHL1  H15B 1056   4.371   2.747   5.467 -0.0290  0.1683  0.7633
   15CHL1   C16 1057   4.281   2.897   5.336 -0.5034 -0.7300  0.9967
   15CHL1  H16A 1058   4.369   2.935   5.279 -0.5062 -3.3988 -0.9718
   15CHL1  H16B 1059   4.237   2.807   5.288 -1.6290 -0.6841  1.9030
   15CHL1   C17 1060   4.164   2.997   5.360 -0.1660  0.1515 -0.3861
   15CHL1   H17 1061   4.070   2.949   5.325 -0.3608 -0.6831  1.1733
   15CHL1   C13 1062   4.160   3.019   5.515 -0.0834 -0.0295  1.0491
   15CHL1   C18 1063   4.256   3.143   5.555 -0.2429 -0.2092  0.2128
   15CHL1  H18A 1064   4.296   3.145   5.659  1.1456  1.9403 -0.2941
   15CHL1  H18B 1065   4.340   3.146   5.482  0.9033 -2.5165  1.3162
   15CHL1  H18C 1066   4.198   3.236   5.544 -0.6035 -0.6247 -1.7497
   15CHL1   C12 1067   4.022   3.034   5.580  0.0849 -0.6405 -0.3733
   15CHL1  H12A 1068   3.981   3.123   5.529  2.4844 -1.0713 -3.3462
   15CHL1  H12B 1069   3.960   2.945   5.553  0.0627 -1.4791  2.1706
   15CHL1   C11 1070   4.030   3.035   5.729 -0.1869  0.1307 -0.8577
   15CHL1  H11A 1071   4.071   3.134   5.758 -0.2625 -0.1021  0.0531
   15CHL1  H11B 1072   3.936   3.046   5.787 -0.0914 -2.1328 -0.1815
   15CHL1    C9 1073   4.108   2.915   5.789 -0.8917 -0.1073  0.1814
   15CHL1    H9 1074   4.040   2.829   5.771  0.2352 -0.6577 -1.7526
   15CHL1   C10 1075   4.139   2.924   5.937  0.7881  0.0743  0.1551
   15CHL1   C19 1076   4.181   3.064   5.977 -0.3324 -0.3706 -0.3642
   15CHL1  H19A 1077   4.095   3.129   6.004 -1.0315 -1.1676 -0.6370
   15CHL1  H19B 1078   4.255   3.064   6.060  0.0719  2.4533 -0.6272
   15CHL1  H19C 1079   4.235   3.116   5.896 -0.1590  0.5688  0.3420
   15CHL1    C1 1080   4.000   2.897   6.000  0.0116  0.3360  0.4931
   15CHL1   H1A 1081   3.928   2.979   5.980 -0.3799  0.0731  0.7919
   15CHL1   H1B 1082   3.959   2.803   5.958  1.1162 -0.0653  0.2875
   15CHL1    C2 1083   4.004   2.876   6.152  0.3833  0.0349 -0.4418
   15CHL1   H2A 1084   3.906   2.859   6.202  0.4696  1.8388  0.4305
   15CHL1   H2B 1085   4.033   2.976   6.191  3.7792 -0.6285 -0.9809
   15CHL1   C20 1086   4.164   3.126   5.276 -0.2861  0.5147  0.3105
   15CHL1   H20 1087   4.244   3.197   5.307  0.9827 -0.1306 -1.3320
   15CHL1   C21 1088   4.021   3.185   5.269  0.2087  0.4943 -0.6241
   15CHL1  H21A 1089   4.023   3.269   5.196  1.0935  1.1825  0.1579
   15CHL1  H21B 1090   3.975   3.225   5.362 -0.2030  1.5606 -1.2756
   15CHL1  H21C 1091   3.947   3.110   5.235 -0.1956 -0.0537  1.3425
   15CHL1   C22 1092   4.205   3.092   5.126  0.3225  0.4786 -0.6128
   15CHL1  H22A 1093   4.284   3.014   5.119  0.6085  0.8775 -2.1905
   15CHL1  H22B 1094   4.120   3.049   5.069  1.1513 -0.8354 -0.9051
   15CHL1   C23 1095   4.256   3.218   5.046  0.5541  0.1036 -0.2551
   15CHL1  H23A 1096   4.171   3.289   5.038  0.0912 -0.4082  0.0311
   15CHL1  H23B 1097   4.337   3.270   5.101 -0.3869  0.7625  0.5312
   15CHL1   C24 1098   4.306   3.193   4.908 -0.0919  0.1778  0.6123
   15CHL1  H24A 1099   4.219   3.154   4.851  0.2385 -1.3206  1.1094
   15CHL1  H24B 1100   4.316   3.296   4.866  1.9710 -0.6851 -1.2120
   15CHL1   C25 1101   4.431   3.107   4.898 -0.3153  0.5516  0.1786
   15CHL1   H25 1102   4.412   3.003   4.935  0.6543 -0.0338 -0.8980
   15CHL1   C26 1103   4.473   3.091   4.752 -0.4507 -0.5790 -0.6315
   15CHL1  H26A 1104   4.391   3.041   4.697 -2.1952  1.4537 -0.0033
   15CHL1  H26B 1105   4.487   3.196   4.719  0.4570 -0.2703  0.6577
   15CHL1  H26C 1106   4.561   3.025   4.735 -0.1131 -0.6173  1.0755
   15CHL1   C27 1107   4.551   3.167   4.979 -0.8136 -0.2912 -0.1172
   15CHL1  H27A 1108   4.645   3.122   4.938 -0.4815  0.9257 -0.7383
   15CHL1  H27B 1109   4.558   3.277   4.962  0.8536 -0.0915  1.5709
   15CHL1  H27C 1110   4.539   3.143   5.086 -2.1844  1.5266  0.1890
   16CHL1    C3 1111   1.090   5.230   6.447 -0.6226 -0.6611  0.2342
   16CHL1    H3 1112   1.135   5.328   6.421 -0.6470 -0.6687  0.1608
   16CHL1    O3 1113   1.151   5.195   6.573 -0.5165 -0.0524  0.3331
   16CHL1   H3' 1114   1.133   5.262   6.639  2.6449 -0.6807  2.0168
   16CHL1    C4 1115   0.937   5.231   6.446 -0.2632 -0.2910 -0.3187
   16CHL1   H4A 1116   0.900   5.131   6.476 -2.1105  0.8911  1.5465
   16CHL1   H4B 1117   0.895   5.297   6.525  0.9770  2.1623 -1.5800
   16CHL1    C5 1118   0.882   5.264   6.308  0.0285 -0.4248  0.0867
   16CHL1    C6 1119   0.807   5.374   6.288  0.0099 -0.1856  0.2627
   16CHL1    H6 1120   0.770   5.432   6.374 -1.9478 -2.1591  0.8698
   16CHL1    C7 1121   0.757   5.417   6.159  0.1579  0.4004 -0.3834
   16CHL1   H7A 1122   0.647   5.436   6.160  0.1139  0.2089  1.6192
   16CHL1   H7B 1123   0.806   5.512   6.128 -1.1014  0.5531 -2.0519
   16CHL1    C8 1124   0.778   5.300   6.059  0.0163  0.3407  0.1734
   16CHL1    H8 1125   0.702   5.224   6.087 -0.0214  0.4151  0.2775
   16CHL1   C14 1126   0.745   5.362   5.925 -0.2815  1.2068  0.2893
   16CHL1   H14 1127   0.823   5.441   5.920 -0.3014  1.1707 -0.5957
   16CHL1   C15 1128   0.613   5.432   5.894 -0.2873 -0.2434  0.4907
   16CHL1  H15A 1129   0.539   5.360   5.934 -0.7031 -1.2487 -1.8808
   16CHL1  H15B 1130   0.606   5.525   5.954  1.2663  0.2052  0.0234
   16CHL1   C16 1131   0.599   5.434   5.743 -0.5680  0.7918 -0.0330
   16CHL1  H16A 1132   0.504   5.388   5.707  0.2738 -0.1311 -1.1572
   16CHL1  H16B 1133   0.623   5.534   5.701  2.1144  0.7514  1.2306
   16CHL1   C17 1134   0.721   5.348   5.684  0.9423  0.4946  0.0909
   16CHL1   H17 1135   0.804   5.420   5.667 -0.1832  1.7380 -0.2859
   16CHL1   C13 1136   0.763   5.261   5.805 -0.2932 -0.3264  0.1361
   16CHL1   C18 1137   0.664   5.145   5.823  0.0768  0.6658 -0.3678
   16CHL1  H18A 1138   0.677   5.096   5.922 -0.7169 -1.3943 -1.2135
   16CHL1  H18B 1139   0.561   5.186   5.821  1.1948  3.7303  0.1055
   16CHL1  H18C 1140   0.692   5.066   5.749  1.6188  0.1682  0.6969
   16CHL1   C12 1141   0.909   5.223   5.808  0.2985  0.5583 -0.3580
   16CHL1  H12A 1142   0.935   5.147   5.731  0.0375  1.5154 -1.3984
   16CHL1  H12B 1143   0.972   5.312   5.786 -0.1718  1.2144  0.8662
   16CHL1   C11 1144   0.953   5.155   5.939  0.4573 -0.4611 -1.0615
   16CHL1  H11A 1145   0.893   5.062   5.954  1.0918 -0.6363  0.6415
   16CHL1  H11B 1146   1.061   5.129   5.931  0.4061 -1.0408 -0.0833
   16CHL1    C9 1147   0.918   5.244   6.061  0.3256  0.3602 -0.0046
   16CHL1    H9 1148   0.988   5.328   6.040 -0.6471  0.8787 -1.3363
   16CHL1   C10 1149   0.949   5.182   6.196 -0.2287  0.2805 -0.2560
   16CHL1   C19 1150   0.879   5.043   6.198 -0.1432 -0.1362  0.2178
   16CHL1  H19A 1151   0.769   5.032   6.192 -0.5203  1.9196  1.8331
   16CHL1  H19B 1152   0.920   4.972   6.124  0.6720  1.8803 -1.3711
   16CHL1  H19C 1153   0.906   4.992   6.293  0.8743 -2.5082 -1.2707
   16CHL1    C1 1154   1.102   5.163   6.214  0.2800 -1.1301  0.5296
   16CHL1   H1A 1155   1.132   5.087   6.138 -2.4779 -0.5750 -1.2763
   16CHL1   H1B 1156   1.154   5.257   6.187 -2.9985  0.6536 -0.0950
   16CHL1    C2 1157   1.142   5.118   6.354 -0.0897 -0.0721  0.2646
   16CHL1   H2A 1158   1.252   5.104   6.359 -0.4846 -4.1864  0.6970
   16CHL1   H2B 1159   1.099   5.019   6.381 -1.2613 -0.0008 -1.2110
   16CHL1   C20 1160   0.691   5.277   5.551  0.0388 -0.0271  0.5149
   16CHL1   H20 1161   0.599   5.219   5.572  0.3407  0.0772  2.2536
   16CHL1   C21 1162   0.803   5.179   5.500  0.1035 -0.3190  0.3157
   16CHL1  H21A 1163   0.894   5.237   5.474 -1.2130  2.4379  1.4748
   16CHL1  H21B 1164   0.763   5.128   5.410  0.6057 -0.7456  0.3339
   16CHL1  H21C 1165   0.827   5.091   5.563  2.1303  0.6484  0.9742
   16CHL1   C22 1166   0.662   5.383   5.446  0.5715 -0.6236  0.0309
   16CHL1  H22A 1167   0.578   5.447   5.480 -0.4625 -2.0342  0.2365
   16CHL1  H22B 1168   0.754   5.444   5.432 -0.2713  0.3227 -1.6741
   16CHL1   C23 1169   0.612   5.330   5.309  0.0925  0.1423 -0.0072
   16CHL1  H23A 1170   0.702   5.285   5.262 -0.2855 -2.4301  1.6044
   16CHL1  H23B 1171   0.523   5.267   5.332  0.2817 -0.4616 -0.8682
   16CHL1   C24 1172   0.561   5.445   5.209 -0.0421  0.6272 -0.1070
   16CHL1  H24A 1173   0.458   5.469   5.243 -0.0514 -0.7670  0.9436
   16CHL1  H24B 1174   0.631   5.530   5.227  1.5332 -0.9110  1.3849
   16CHL1   C25 1175   0.547   5.401   5.066 -0.1128  0.5236  0.2468
   16CHL1   H25 1176   0.516   5.489   5.005  0.8361 -0.5130 -1.8274
   16CHL1   C26 1177   0.686   5.375   5.012 -0.0286  0.6461  0.2203
   16CHL1  H26A 1178   0.673   5.371   4.901 -2.8283 -0.2079  0.4978
   16CHL1  H26B 1179   0.762   5.451   5.040  0.1912  0.2984  0.5758
   16CHL1  H26C 1180   0.722   5.281   5.058  2.9223  1.5707 -0.0201
   16CHL1   C27 1181   0.441   5.285   5.057 -0.5127  0.1361 -0.7809
   16CHL1  H27A 1182   0.343   5.326   5.091  0.4069 -0.0219  2.4235
   16CHL1  H27B 1183   0.431   5.240   4.956 -0.6805 -2.5165  0.3303
   16CHL1  H27C 1184   0.462   5.201   5.127 -0.4692  0.7448 -0.0478
   17CHL1    C3 1185   1.858   3.589   6.531  0.1309 -0.8024  0.5850
   17CHL1    H3 1186   1.766   3.635   6.488 -0.5225 -2.4615  0.1514
   17CHL1    O3 1187   1.878   3.631   6.672 -0.1682 -0.1236 -0.0091
   17CHL1   H3' 1188   1.967   3.666   6.678  0.1426 -0.8387 -0.2503
   17CHL1    C4 1189   1.842   3.434   6.523  0.0339  0.1056 -0.6804
   17CHL1   H4A 1190   1.936   3.383   6.551 -0.0024  0.0368 -0.6844
   17CHL1   H4B 1191   1.759   3.411   6.592 -0.0958  2.5825  0.1127
   17CHL1    C5 1192   1.813   3.412   6.374 -0.3652  0.6637 -1.0769
   17CHL1    C6 1193   1.694   3.371   6.336  0.8248 -0.2074  0.8373
   17CHL1    H6 1194   1.621   3.347   6.415  2.5990  1.6282  3.1546
   17CHL1    C7 1195   1.665   3.324   6.197  0.7075  0.0546 -0.1896
   17CHL1   H7A 1196   1.627   3.220   6.209  0.0798  0.1726 -1.0415
   17CHL1   H7B 1197   1.591   3.398   6.160  0.7530  0.0241 -0.3424
   17CHL1    C8 1198   1.781   3.315   6.102 -0.1066 -0.4705 -0.4854
   17CHL1    H8 1199   1.836   3.224   6.135 -1.2223 -0.3553  1.8406
   17CHL1   C14 1200   1.732   3.312   5.961 -0.5256  0.6038  0.1772
   17CHL1   H14 1201   1.671   3.404   5.964  0.8864  1.6921 -1.9284
   17CHL1   C15 1202   1.630   3.204   5.920 -0.0493 -0.0216  0.0798
   17CHL1  H15A 1203   1.659   3.102   5.953 -0.4210 -0.4027 -0.7528
   17CHL1  H15B 1204   1.532   3.222   5.970 -0.2223  0.0397 -0.2827
   17CHL1   C16 1205   1.638   3.198   5.765  0.3752  0.3526  0.1151
   17CHL1  H16A 1206   1.658   3.093   5.735  0.9064  0.0102  1.5781
   17CHL1  H16B 1207   1.536   3.206   5.721 -1.3783 -3.0309  2.9944
   17CHL1   C17 1208   1.748   3.305   5.729  0.3431  0.3615  0.1272
   17CHL1   H17 1209   1.698   3.404   5.735 -2.3645 -0.8941  0.1331
   17CHL1   C13 1210   1.838   3.315   5.851  0.3351 -0.1545 -0.2261
   17CHL1   C18 1211   1.934   3.195   5.862  0.6712  0.8207 -0.4493
   17CHL1  H18A 1212   1.979   3.187   5.963  2.7532  1.4071 -1.2861
   17CHL1  H18B 1213   1.883   3.098   5.843 -1.7291  1.4196  2.2830
   17CHL1  H18C 1214   2.014   3.210   5.787  0.4367  3.0638 -0.3049
   17CHL1   C12 1215   1.922   3.450   5.865  0.2244  0.0056 -0.3278
   17CHL1  H12A 1216   2.008   3.439   5.795  0.4265 -1.9136  0.1760
   17CHL1  H12B 1217   1.877   3.552   5.858 -0.0069 -0.1015 -0.3898
   17CHL1   C11 1218   1.986   3.457   6.011  0.2858 -0.0669  0.0387
   17CHL1  H11A 1219   2.050   3.366   6.018 -0.8206 -1.0726 -2.0464
   17CHL1  H11B 1220   2.045   3.550   6.027 -1.1154  1.0155 -0.8898
   17CHL1    C9 1221   1.868   3.444   6.120  0.6925 -0.3260 -0.3193
   17CHL1    H9 1222   1.803   3.533   6.107  1.5206  0.1718 -1.1207
   17CHL1   C10 1223   1.915   3.455   6.274 -0.4060  0.0087 -0.2583
   17CHL1   C19 1224   2.039   3.358   6.293  0.3717 -0.6692 -0.4443
   17CHL1  H19A 1225   2.109   3.355   6.207  0.1303  1.7803 -0.7961
   17CHL1  H19B 1226   2.090   3.390   6.386 -0.6383  1.4629 -0.5690
   17CHL1  H19C 1227   2.011   3.252   6.310  0.5535 -0.2055  3.6470
   17CHL1    C1 1228   1.955   3.597   6.298 -0.7096 -0.8918  0.9355
   17CHL1   H1A 1229   2.041   3.623   6.233 -2.1821 -0.4667 -0.9351
   17CHL1   H1B 1230   1.874   3.667   6.268  1.4050  1.2109 -0.1848
   17CHL1    C2 1231   1.977   3.639   6.444  0.2744 -0.7414 -0.0376
   17CHL1   H2A 1232   2.005   3.747   6.448 -0.4675 -0.4544 -1.7877
   17CHL1   H2B 1233   2.066   3.583   6.479 -1.4583 -3.3048  0.5259
   17CHL1   C20 1234   1.819   3.303   5.592 -0.7539 -0.7406 -0.4136
   17CHL1   H20 1235   1.928   3.291   5.609 -0.9930  0.4878  2.5415
   17CHL1   C21 1236   1.797   3.431   5.524 -0.9058 -0.2721  0.1336
   17CHL1  H21A 1237   1.842   3.513   5.585  1.4290 -0.4299 -1.2647
   17CHL1  H21B 1238   1.687   3.440   5.519 -1.1699 -1.3845  2.4715
   17CHL1  H21C 1239   1.845   3.439   5.424  0.5309  1.1420  0.8745
   17CHL1   C22 1240   1.779   3.179   5.510 -0.0507 -0.2239  0.0968
   17CHL1  H22A 1241   1.808   3.100   5.583  2.0271  2.3400  2.2546
   17CHL1  H22B 1242   1.672   3.188   5.482 -0.3608  5.2215  1.9407
   17CHL1   C23 1243   1.855   3.156   5.381 -0.0885  0.1535 -0.4559
   17CHL1  H23A 1244   1.813   3.221   5.302  0.7988  0.0033 -1.0616
   17CHL1  H23B 1245   1.960   3.188   5.394 -0.5732  0.7977  2.7024
   17CHL1   C24 1246   1.840   3.008   5.339 -0.6587  0.5632  0.3331
   17CHL1  H24A 1247   1.902   2.980   5.251 -2.3616  0.1989 -0.7976
   17CHL1  H24B 1248   1.887   2.944   5.417  2.4631  1.4033 -0.6962
   17CHL1   C25 1249   1.700   2.955   5.307  0.0692  0.5870 -0.1029
   17CHL1   H25 1250   1.635   2.979   5.394  0.3071 -1.3829  0.6779
   17CHL1   C26 1251   1.657   3.016   5.176  0.0714  0.1202 -0.5277
   17CHL1  H26A 1252   1.561   2.981   5.132 -1.3303  2.8474  0.1271
   17CHL1  H26B 1253   1.643   3.125   5.191 -1.4146 -0.1923  0.6441
   17CHL1  H26C 1254   1.737   2.997   5.102  0.3449 -0.7135 -0.0290
   17CHL1   C27 1255   1.706   2.807   5.295 -0.1204  1.4210 -0.4601
   17CHL1  H27A 1256   1.612   2.758   5.263  0.4167 -2.1684  2.7160
   17CHL1  H27B 1257   1.791   2.774   5.231  0.0991  3.9960 -1.5986
   17CHL1  H27C 1258   1.729   2.773   5.399  0.1250  2.5756 -0.1246
   18CHL1    C3 1259   2.442   5.678   6.256  0.0646 -0.1803  0.2621
   18CHL1    H3 1260   2.336   5.707   6.271  0.0437 -0.4554  0.6459
   18CHL1    O3 1261   2.511   5.685   6.380 -0.5678 -0.0239  1.0806
   18CHL1   H3' 1262   2.584   5.623   6.373  0.0913  0.9201 -1.5543
   18CHL1    C4 1263   2.439   5.533   6.201 -0.2519 -0.6505  0.3518
   18CHL1   H4A 1264   2.545   5.505   6.181 -0.3171 -2.4855  2.3095
   18CHL1   H4B 1265   2.403   5.469   6.284  1.4431 -0.7437  1.0553
   18CHL1    C5 1266   2.363   5.529   6.069  0.1807  0.0303 -0.2077
   18CHL1    C6 1267   2.245   5.465   6.069  0.4430  0.8632  0.4537
   18CHL1    H6 1268   2.206   5.410   6.156 -1.7728 -0.9426 -1.5495
   18CHL1    C7 1269   2.151   5.449   5.949 -0.2124  0.5348 -0.0174
   18CHL1   H7A 1270   2.112   5.346   5.936 -1.6609  1.0639 -0.0183
   18CHL1   H7B 1271   2.059   5.510   5.963 -1.0848 -0.3529 -1.6190
   18CHL1    C8 1272   2.223   5.476   5.820 -0.2755  0.2314 -0.2227
   18CHL1    H8 1273   2.291   5.392   5.794 -1.7661 -1.5764  1.4190
   18CHL1   C14 1274   2.116   5.499   5.717  0.1442 -0.8361  0.2794
   18CHL1   H14 1275   2.059   5.584   5.762  3.8489  1.8306  0.4098
   18CHL1   C15 1276   2.015   5.386   5.695 -0.0411  0.5844  0.0881
   18CHL1  H15A 1277   2.075   5.295   5.675  1.4627  1.9231 -1.7993
   18CHL1  H15B 1278   1.944   5.367   5.779  0.4278 -1.7137  0.0149
   18CHL1   C16 1279   1.952   5.433   5.564  0.3463  0.1367 -0.5786
   18CHL1  H16A 1280   1.939   5.347   5.495  0.4648 -1.8395  1.7150
   18CHL1  H16B 1281   1.849   5.472   5.579  0.6520  0.7709 -0.1061
   18CHL1   C17 1282   2.032   5.559   5.504  0.0932  0.5115 -0.0143
   18CHL1   H17 1283   1.978   5.647   5.545 -0.0828  0.9608 -1.1652
   18CHL1   C13 1284   2.162   5.548   5.579  0.4261  0.0864  1.2037
   18CHL1   C18 1285   2.246   5.441   5.513 -0.1510  0.4022  0.4431
   18CHL1  H18A 1286   2.193   5.347   5.488 -0.2402  1.1153 -2.4028
   18CHL1  H18B 1287   2.288   5.481   5.418 -1.7618 -1.6647 -1.2324
   18CHL1  H18C 1288   2.336   5.424   5.577  2.0883  2.6985 -1.8742
   18CHL1   C12 1289   2.249   5.672   5.594 -0.2652  0.6076  0.2913
   18CHL1  H12A 1290   2.311   5.688   5.503  1.0824 -1.7077  0.7069
   18CHL1  H12B 1291   2.194   5.764   5.623  2.2732  1.8160  1.6817
   18CHL1   C11 1292   2.358   5.651   5.698  0.6542 -0.1748 -0.0660
   18CHL1  H11A 1293   2.435   5.583   5.655  0.5767 -1.4299  1.6566
   18CHL1  H11B 1294   2.408   5.743   5.735 -2.3003  0.5763  2.4752
   18CHL1    C9 1295   2.309   5.603   5.835 -0.1003 -1.0829 -0.5608
   18CHL1    H9 1296   2.246   5.687   5.872  0.8809 -1.4986  2.3725
   18CHL1   C10 1297   2.419   5.607   5.950  0.1948 -0.7153 -0.0030
   18CHL1   C19 1298   2.559   5.553   5.894  0.0346  0.2837 -0.0372
   18CHL1  H19A 1299   2.538   5.451   5.855 -1.2714  1.0020 -1.3227
   18CHL1  H19B 1300   2.610   5.623   5.824  1.9570  0.3083  1.3271
   18CHL1  H19C 1301   2.618   5.540   5.987 -2.6422 -2.0320  1.4994
   18CHL1    C1 1302   2.443   5.750   6.009  0.2258  0.8350 -0.4820
   18CHL1   H1A 1303   2.486   5.811   5.926  0.2754  0.1703 -0.9509
   18CHL1   H1B 1304   2.340   5.793   6.017  0.4412  1.4640 -0.9752
   18CHL1    C2 1305   2.514   5.763   6.147  0.0765  0.2343 -0.2577
   18CHL1   H2A 1306   2.521   5.871   6.171  3.2082  0.3426 -1.1683
   18CHL1   H2B 1307   2.624   5.743   6.146  0.5894  2.0520  3.7474
   18CHL1   C20 1308   2.027   5.549   5.352 -0.1145  0.1349 -0.6085
   18CHL1   H20 1309   2.065   5.448   5.325  0.2312 -0.6857  2.5773
   18CHL1   C21 1310   2.110   5.656   5.288  0.6784  0.6456  0.4402
   18CHL1  H21A 1311   2.111   5.648   5.177 -2.5252 -0.6932  0.4049
   18CHL1  H21B 1312   2.216   5.637   5.317  0.3743 -1.6108  0.2939
   18CHL1  H21C 1313   2.071   5.753   5.323  1.8685  1.3333 -0.0643
   18CHL1   C22 1314   1.875   5.555   5.305  0.1419 -0.2337  0.5810
   18CHL1  H22A 1315   1.812   5.475   5.349 -1.2314  0.4052 -0.1790
   18CHL1  H22B 1316   1.835   5.654   5.332 -2.6645 -1.2956  0.6179
   18CHL1   C23 1317   1.843   5.537   5.153  0.6603  0.2085  0.1449
   18CHL1  H23A 1318   1.733   5.548   5.139  0.8873  0.1551 -1.9951
   18CHL1  H23B 1319   1.882   5.620   5.090 -0.6785  0.9531  0.2559
   18CHL1   C24 1320   1.884   5.402   5.097  0.9298  0.1553 -0.3260
   18CHL1  H24A 1321   1.994   5.409   5.093  0.9532 -0.1174 -0.2249
   18CHL1  H24B 1322   1.846   5.330   5.172 -0.7181  1.0441 -0.2489
   18CHL1   C25 1323   1.820   5.364   4.960  0.4823  0.7076 -0.8574
   18CHL1   H25 1324   1.826   5.448   4.888  1.0441  0.7867 -0.7219
   18CHL1   C26 1325   1.880   5.243   4.882 -0.4266 -0.3481 -0.4261
   18CHL1  H26A 1326   1.863   5.154   4.946 -0.8498  0.1323  0.1448
   18CHL1  H26B 1327   1.835   5.220   4.783  0.0721 -1.3237 -0.4394
   18CHL1  H26C 1328   1.987   5.266   4.864 -0.3225  1.9656  2.4296
   18CHL1   C27 1329   1.670   5.333   4.988 -0.3841 -0.4032  0.3691
   18CHL1  H27A 1330   1.626   5.418   5.044  0.9500 -0.1825  1.1319
   18CHL1  H27B 1331   1.612   5.316   4.895  0.1940 -2.0769  0.2752
   18CHL1  H27C 1332   1.666   5.236   5.043  1.4674 -1.9654 -2.0520
   19CHL1    C3 1333   3.697   5.915   6.200 -0.4635  0.5549  0.0967
   19CHL1    H3 1334   3.738   5.814   6.179 -0.9443  0.5664 -1.0213
   19CHL1    O3 1335   3.713   5.943   6.338 -0.4397 -0.0596  1.0704
   19CHL1   H3' 1336   3.689   5.859   6.379  0.2513 -0.9158 -0.2346
   19CHL1    C4 1337   3.778   6.012   6.123 -0.2705 -0.3548  0.3003
   19CHL1   H4A 1338   3.743   6.115   6.146  2.3089  1.2894 -2.4043
   19CHL1   H4B 1339   3.884   6.013   6.156  0.8907  0.9451 -3.1016
   19CHL1    C5 1340   3.760   6.000   5.971 -0.3183  0.2363 -0.5359
   19CHL1    C6 1341   3.868   5.969   5.903 -0.0673  0.2960 -0.6494
   19CHL1    H6 1342   3.962   5.949   5.956  0.9279 -0.3776 -2.5766
   19CHL1    C7 1343   3.872   5.952   5.756 -0.4059 -0.3537 -0.1258
   19CHL1   H7A 1344   3.961   6.008   5.721  1.5801 -2.7139  0.8202
   19CHL1   H7B 1345   3.896   5.844   5.743 -0.0095 -0.7617  3.0791
   19CHL1    C8 1346   3.742   5.993   5.683  0.0980 -0.4376 -0.6400
   19CHL1    H8 1347   3.736   6.104   5.685  2.7558 -0.2229 -1.5950
   19CHL1   C14 1348   3.739   5.951   5.537  0.8263  0.0108  0.1778
   19CHL1   H14 1349   3.763   5.843   5.526 -0.2740 -0.3262  0.9558
   19CHL1   C15 1350   3.838   6.026   5.444 -0.1184 -0.1100 -0.5702
   19CHL1  H15A 1351   3.833   6.137   5.446 -1.7475 -0.1549 -0.9890
   19CHL1  H15B 1352   3.940   5.987   5.463  0.4715  1.4943 -0.2762
   19CHL1   C16 1353   3.793   5.974   5.304 -0.0141  0.3280  0.1467
   19CHL1  H16A 1354   3.798   6.065   5.240 -1.1990  0.7141  0.5782
   19CHL1  H16B 1355   3.871   5.901   5.273  0.2894  1.1587 -1.1081
   19CHL1   C17 1356   3.644   5.923   5.321  0.8349  0.3397 -0.1486
   19CHL1   H17 1357   3.641   5.812   5.330 -0.3896  0.4084  0.4329
   19CHL1   C13 1358   3.601   5.972   5.462 -0.4958 -0.0594  0.9314
   19CHL1   C18 1359   3.582   6.123   5.457 -0.2094  0.3302 -0.7158
   19CHL1  H18A 1360   3.474   6.148   5.463 -0.2681 -0.2348  1.6251
   19CHL1  H18B 1361   3.628   6.169   5.547 -0.8996 -1.6724  0.7598
   19CHL1  H18C 1362   3.632   6.182   5.378 -1.3279  1.5246 -0.5580
   19CHL1   C12 1363   3.493   5.895   5.545 -0.4529 -0.5082 -0.4365
   19CHL1  H12A 1364   3.393   5.919   5.503 -0.0797 -0.1155 -1.1157
   19CHL1  H12B 1365   3.512   5.786   5.538  0.9533 -0.3257  0.0828
   19CHL1   C11 1366   3.489   5.949   5.690  0.4224  0.2496  0.2301
   19CHL1  H11A 1367   3.466   6.058   5.686  0.3328  0.2024 -1.0399
   19CHL1  H11B 1368   3.408   5.894   5.743  0.1416 -1.2014 -1.5985
   19CHL1    C9 1369   3.627   5.939   5.768  0.1475 -0.4212 -0.1900
   19CHL1    H9 1370   3.634   5.829   5.785  0.0159 -0.2078  1.4637
   19CHL1   C10 1371   3.619   5.993   5.913 -0.0242 -0.1944 -0.0119
   19CHL1   C19 1372   3.574   6.140   5.923  0.2350 -0.6665  0.2279
   19CHL1  H19A 1373   3.468   6.145   5.889 -0.3552 -2.4284  1.6441
   19CHL1  H19B 1374   3.570   6.174   6.029 -0.3833  0.5232 -0.1536
   19CHL1  H19C 1375   3.626   6.204   5.849 -1.0484 -2.2980 -2.2211
   19CHL1    C1 1376   3.531   5.906   6.005 -0.4696  0.5517  0.0899
   19CHL1   H1A 1377   3.423   5.925   5.983 -0.7076  0.8800  1.4241
   19CHL1   H1B 1378   3.559   5.801   5.982 -0.5089  0.6101 -0.2288
   19CHL1    C2 1379   3.549   5.926   6.159  0.1859  0.0890  0.1179
   19CHL1   H2A 1380   3.503   5.849   6.224  0.1801 -1.6024 -1.8156
   19CHL1   H2B 1381   3.525   6.030   6.192 -1.1210 -0.0501 -0.3363
   19CHL1   C20 1382   3.555   5.949   5.203  0.4034  1.1303  0.8205
   19CHL1   H20 1383   3.560   6.059   5.191  0.0264  1.2138  1.3774
   19CHL1   C21 1384   3.414   5.915   5.233  0.2392 -0.4856  0.5741
   19CHL1  H21A 1385   3.388   5.994   5.307  1.7368  1.5630 -0.9733
   19CHL1  H21B 1386   3.395   5.817   5.282  0.8766 -0.4193  0.9721
   19CHL1  H21C 1387   3.343   5.925   5.148 -1.8531 -3.3871  1.8161
   19CHL1   C22 1388   3.611   5.893   5.068  0.0075 -0.2924  0.2696
   19CHL1  H22A 1389   3.567   5.950   4.983  1.7747  3.1029  1.4408
   19CHL1  H22B 1390   3.719   5.916   5.057  1.0964 -3.6939  2.3529
   19CHL1   C23 1391   3.583   5.741   5.047 -0.6800  0.5606  0.0892
   19CHL1  H23A 1392   3.595   5.685   5.142  3.2223  0.5714 -0.2445
   19CHL1  H23B 1393   3.476   5.726   5.020 -0.2215 -1.3669 -0.7903
   19CHL1   C24 1394   3.690   5.684   4.945  0.0088 -0.4236 -0.3328
   19CHL1  H24A 1395   3.695   5.746   4.852  0.1113 -2.2924 -1.6326
   19CHL1  H24B 1396   3.793   5.687   4.986  0.8316  0.4247 -2.2905
   19CHL1   C25 1397   3.673   5.537   4.891 -1.4015  0.1338 -0.3052
   19CHL1   H25 1398   3.678   5.472   4.981 -0.2075 -0.2022 -0.6084
   19CHL1   C26 1399   3.535   5.510   4.827 -0.6671  0.5308 -0.0710
   19CHL1  H26A 1400   3.542   5.403   4.797 -0.6256  1.0957 -2.2500
   19CHL1  H26B 1401   3.455   5.521   4.904  0.0311 -1.3679  0.9994
   19CHL1  H26C 1402   3.513   5.576   4.741 -1.2989  2.5249  1.5247
   19CHL1   C27 1403   3.785   5.485   4.801 -0.0588 -0.2570  0.1310
   19CHL1  H27A 1404   3.791   5.554   4.715 -2.2857 -0.1181  0.0266
   19CHL1  H27B 1405   3.879   5.480   4.859 -1.1969 -1.1705  1.9972
   19CHL1  H27C 1406   3.771   5.382   4.763 -1.8768  0.0730 -0.1848
   20CHL1    C3 1407   6.083   3.770   6.365  0.2605  0.0797 -0.1726
   20CHL1    H3 1408   6.115   3.664   6.354 -1.4831 -0.6881  1.5204
   20CHL1    O3 1409   6.082   3.794   6.499 -0.1836 -0.1138 -0.4625
   20CHL1   H3' 1410   6.011   3.854   6.523  1.3914  2.1020 -0.9650
   20CHL1    C4 1411   6.185   3.858   6.288 -0.2681  0.2311  0.2248
   20CHL1   H4A 1412   6.160   3.963   6.314  1.7011  0.8637 -0.2374
   20CHL1   H4B 1413   6.284   3.835   6.332 -0.7207 -0.5482  0.8423
   20CHL1    C5 1414   6.175   3.828   6.142 -0.6692  0.4549  0.2453
   20CHL1    C6 1415   6.287   3.789   6.074 -0.0539 -0.2387 -0.0217
   20CHL1    H6 1416   6.386   3.779   6.120  0.0139  2.2365  0.5489
   20CHL1    C7 1417   6.292   3.761   5.923 -0.3918 -0.5472  0.1129
   20CHL1   H7A 1418   6.380   3.811   5.878 -0.8735 -0.1807 -0.4435
   20CHL1   H7B 1419   6.305   3.655   5.892 -1.0944  0.1476 -2.9154
   20CHL1    C8 1420   6.173   3.828   5.854 -0.5779  0.3124  0.2870
   20CHL1    H8 1421   6.176   3.939   5.858 -0.3695  0.3625 -0.8578
   20CHL1   C14 1422   6.170   3.790   5.706 -1.0904  0.6097 -0.3230
   20CHL1   H14 1423   6.170   3.679   5.710 -0.1745  0.6386  0.8398
   20CHL1   C15 1424   6.290   3.823   5.615 -0.8029 -0.4157  0.2440
   20CHL1  H15A 1425   6.325   3.927   5.628 -0.1327 -0.8801  2.5897
   20CHL1  H15B 1426   6.383   3.769   5.643  0.7934  1.5391 -1.0048
   20CHL1   C16 1427   6.238   3.802   5.477  0.3780 -0.0085 -0.8300
   20CHL1  H16A 1428   6.273   3.890   5.418  0.6196  0.0432 -0.6102
   20CHL1  H16B 1429   6.274   3.711   5.424 -1.4025 -0.5172 -1.2364
   20CHL1   C17 1430   6.084   3.771   5.490 -0.0111 -0.6750  0.3856
   20CHL1   H17 1431   6.072   3.661   5.503  1.1609 -0.7282  1.2513
   20CHL1   C13 1432   6.042   3.825   5.630 -0.2673  0.0195 -0.0121
   20CHL1   C18 1433   6.035   3.978   5.606  0.3868  0.9726 -0.2874
   20CHL1  H18A 1434   6.028   4.045   5.694  1.2985 -0.8820  1.2829
   20CHL1  H18B 1435   6.098   4.011   5.521  1.4589 -2.4986 -0.9953
   20CHL1  H18C 1436   5.933   4.005   5.570 -0.7389  0.5812  2.3097
   20CHL1   C12 1437   5.918   3.764   5.699  0.0048  0.1062  0.5198
   20CHL1  H12A 1438   5.823   3.795   5.652  1.4730  1.5704 -1.7046
   20CHL1  H12B 1439   5.917   3.653   5.693 -1.8121  0.1488 -0.4654
   20CHL1   C11 1440   5.911   3.820   5.845  0.2327 -0.2575 -0.2957
   20CHL1  H11A 1441   5.888   3.927   5.829  2.2301  0.3167  0.4695
   20CHL1  H11B 1442   5.820   3.774   5.889 -1.5423  1.8194 -1.5739
   20CHL1    C9 1443   6.043   3.789   5.925  0.3407 -0.0536 -0.1112
   20CHL1    H9 1444   6.049   3.679   5.925  0.6429 -0.0462 -1.1430
   20CHL1   C10 1445   6.035   3.837   6.075 -0.3782  0.4226 -0.3150
   20CHL1   C19 1446   5.996   3.981   6.069 -0.7619 -0.5021 -0.2863
   20CHL1  H19A 1447   5.894   3.993   6.027 -0.3505  2.0395 -0.7201
   20CHL1  H19B 1448   6.000   4.026   6.170  2.3226  1.6376 -1.2135
   20CHL1  H19C 1449   6.069   4.038   6.008 -0.5531 -3.2178 -2.7930
   20CHL1    C1 1450   5.936   3.751   6.162 -0.7578  0.6329 -0.2002
   20CHL1   H1A 1451   5.831   3.752   6.124 -0.8049 -1.9450 -0.3145
   20CHL1   H1B 1452   5.968   3.647   6.141  2.3467  1.5966 -0.7564
   20CHL1    C2 1453   5.940   3.784   6.306  0.3446 -0.2354 -0.2912
   20CHL1   H2A 1454   5.873   3.716   6.363 -1.3465  1.4446 -0.1641
   20CHL1   H2B 1455   5.911   3.891   6.321  0.4432 -0.1900 -0.4206
   20CHL1   C20 1456   6.002   3.816   5.371 -0.8744 -1.3906 -0.0810
   20CHL1   H20 1457   6.008   3.926   5.351 -0.3482 -1.2933  0.5919
   20CHL1   C21 1458   5.847   3.787   5.380  0.4064  1.0657  0.5638
   20CHL1  H21A 1459   5.799   3.837   5.467  0.0144  2.8210 -0.5970
   20CHL1  H21B 1460   5.832   3.677   5.386 -2.6406  1.2073 -1.7522
   20CHL1  H21C 1461   5.792   3.819   5.289  0.7958  0.5929  0.1549
   20CHL1   C22 1462   6.060   3.742   5.249  0.2616 -0.2606  0.0419
   20CHL1  H22A 1463   6.170   3.739   5.234  0.3085  0.5324  0.1721
   20CHL1  H22B 1464   6.024   3.637   5.256 -2.7373  0.7561  1.5822
   20CHL1   C23 1465   6.027   3.806   5.115  0.3608 -0.0797  0.4983
   20CHL1  H23A 1466   5.917   3.804   5.107  0.4191  1.1622 -0.9638
   20CHL1  H23B 1467   6.066   3.907   5.091  0.5584 -0.8179 -2.8431
   20CHL1   C24 1468   6.073   3.708   5.003  0.2023 -0.2569 -0.4259
   20CHL1  H24A 1469   6.181   3.733   4.991 -0.0542  0.8781 -0.3994
   20CHL1  H24B 1470   6.076   3.604   5.042  0.3081  0.7018  2.3414
   20CHL1   C25 1471   5.988   3.721   4.879 -0.0892 -0.1832  0.4184
   20CHL1   H25 1472   5.884   3.685   4.900  0.4758 -2.2668 -0.1293
   20CHL1   C26 1473   5.972   3.862   4.823  0.0762  0.7344  0.8894
   20CHL1  H26A 1474   6.077   3.888   4.797  0.2600 -1.1431 -0.4380
   20CHL1  H26B 1475   5.917   3.860   4.726  0.9584 -1.2146  0.3841
   20CHL1  H26C 1476   5.931   3.921   4.907  2.9441 -0.8666  3.6531
   20CHL1   C27 1477   6.048   3.627   4.778 -0.2879 -0.3920 -0.6030
   20CHL1  H27A 1478   6.050   3.523   4.818 -1.5676 -0.2014 -0.0017
   20CHL1  H27B 1479   5.979   3.632   4.690  2.3954 -0.2562 -2.8479
   20CHL1  H27C 1480   6.148   3.657   4.742 -0.7365 -0.2210 -1.7516
   21CHL1    C3 1481   6.030   4.406   6.012 -0.3277 -0.1919 -0.1349
   21CHL1    H3 1482   6.082   4.308   6.003 -1.9934 -1.0819 -0.5057
   21CHL1    O3 1483   6.020   4.465   6.144 -0.0818 -0.3300  0.1334
   21CHL1   H3' 1484   5.972   4.545   6.122 -0.6366 -0.4670  0.8303
   21CHL1    C4 1485   6.087   4.517   5.929  0.3298 -0.3949 -0.0393
   21CHL1   H4A 1486   6.019   4.604   5.939  0.3202 -0.5244  1.1681
   21CHL1   H4B 1487   6.184   4.546   5.974  0.3922  0.1723 -0.5255
   21CHL1    C5 1488   6.094   4.476   5.782  0.1576 -0.0030 -0.1395
   21CHL1    C6 1489   6.207   4.475   5.711 -1.4676 -0.4055 -0.0410
   21CHL1    H6 1490   6.301   4.506   5.759 -1.3405 -0.8249 -0.0163
   21CHL1    C7 1491   6.231   4.443   5.569 -0.2731  0.0453  0.0834
   21CHL1   H7A 1492   6.284   4.527   5.519 -0.0600 -0.9176 -1.3869
   21CHL1   H7B 1493   6.304   4.360   5.556 -0.1619 -0.6383  3.9509
   21CHL1    C8 1494   6.095   4.432   5.491  0.3081 -0.1517 -0.8381
   21CHL1    H8 1495   6.053   4.535   5.482 -1.1085 -0.4425  1.6682
   21CHL1   C14 1496   6.119   4.361   5.357  0.4649  0.4718 -0.5632
   21CHL1   H14 1497   6.158   4.259   5.376  2.8070  1.2119 -0.9830
   21CHL1   C15 1498   6.222   4.438   5.272  0.2701  1.0934 -0.4684
   21CHL1  H15A 1499   6.188   4.542   5.289  0.3728  1.1034 -0.3282
   21CHL1  H15B 1500   6.328   4.422   5.301 -0.2064 -0.2531  0.6147
   21CHL1   C16 1501   6.184   4.388   5.135  0.0363  0.6778 -0.3722
   21CHL1  H16A 1502   6.160   4.466   5.060  0.3652 -0.2410 -1.4634
   21CHL1  H16B 1503   6.266   4.328   5.089 -0.8360 -0.3894 -0.5853
   21CHL1   C17 1504   6.059   4.294   5.149  0.6833  0.0020 -0.3574
   21CHL1   H17 1505   6.094   4.189   5.159 -0.7096 -0.9215 -3.7589
   21CHL1   C13 1506   5.990   4.345   5.275  0.3497  0.5442  0.3368
   21CHL1   C18 1507   5.919   4.484   5.246  0.0132 -0.8261  0.3784
   21CHL1  H18A 1508   5.832   4.465   5.178  1.5328 -0.9403 -1.6320
   21CHL1  H18B 1509   5.874   4.519   5.341 -1.7724 -2.5681  0.2411
   21CHL1  H18C 1510   5.984   4.560   5.198 -0.5304 -0.5093  0.1283
   21CHL1   C12 1511   5.904   4.246   5.357 -0.0994 -0.1284  0.0253
   21CHL1  H12A 1512   5.809   4.214   5.308  0.9557 -0.4284 -1.9305
   21CHL1  H12B 1513   5.958   4.149   5.358 -0.3098 -0.2550 -0.7595
   21CHL1   C11 1514   5.875   4.303   5.499 -0.1895 -0.2085 -0.4847
   21CHL1  H11A 1515   5.805   4.387   5.477  1.2148  1.6862  1.8559
   21CHL1  H11B 1516   5.823   4.237   5.572  0.7120  0.7052  1.0464
   21CHL1    C9 1517   5.996   4.353   5.579 -0.0187  0.2652  0.2305
   21CHL1    H9 1518   6.055   4.262   5.603 -2.9591 -1.6835  0.6203
   21CHL1   C10 1519   5.966   4.423   5.718  0.6141  0.8646  0.3392
   21CHL1   C19 1520   5.873   4.538   5.684 -0.8995 -0.5619 -0.4184
   21CHL1  H19A 1521   5.779   4.501   5.639 -1.6417  0.7226  0.0329
   21CHL1  H19B 1522   5.840   4.601   5.770  1.7835  0.3973  0.0065
   21CHL1  H19C 1523   5.920   4.612   5.616  1.4569  0.1759  1.8165
   21CHL1    C1 1524   5.899   4.320   5.810  0.1933 -0.1785 -0.4186
   21CHL1   H1A 1525   5.798   4.285   5.779  0.9434 -2.4322 -0.4590
   21CHL1   H1B 1526   5.971   4.236   5.809  0.1426 -0.2990  1.6509
   21CHL1    C2 1527   5.888   4.368   5.963 -0.4495 -0.4731  0.7024
   21CHL1   H2A 1528   5.848   4.287   6.028 -0.6099 -0.7377  0.2784
   21CHL1   H2B 1529   5.816   4.453   5.957  1.8940  1.5445 -1.3923
   21CHL1   C20 1530   5.981   4.283   5.016 -0.2901  0.3471  0.0645
   21CHL1   H20 1531   5.929   4.380   5.001 -0.5564  0.1438 -0.3500
   21CHL1   C21 1532   5.873   4.178   5.035 -0.6092  0.5353 -0.3799
   21CHL1  H21A 1533   5.808   4.203   5.121 -0.1282 -2.1197  0.8742
   21CHL1  H21B 1534   5.923   4.082   5.061 -1.6739 -0.3923 -1.5865
   21CHL1  H21C 1535   5.806   4.167   4.947 -1.2170  0.9504  0.0215
   21CHL1   C22 1536   6.073   4.247   4.892 -0.1669 -0.4126  0.4479
   21CHL1  H22A 1537   6.130   4.342   4.882 -0.6765 -0.1439  0.0619
   21CHL1  H22B 1538   6.142   4.160   4.901 -0.9017 -1.2316 -1.2493
   21CHL1   C23 1539   5.985   4.239   4.758 -0.7208 -0.0265  0.5038
   21CHL1  H23A 1540   5.944   4.135   4.751  0.6549 -0.5047 -1.2919
   21CHL1  H23B 1541   5.904   4.314   4.763  0.1851  0.9630  0.7819
   21CHL1   C24 1542   6.082   4.262   4.641 -0.2250  0.4476 -0.0751
   21CHL1  H24A 1543   6.109   4.370   4.638 -1.4443  0.7762  0.3960
   21CHL1  H24B 1544   6.168   4.193   4.654 -1.2173 -1.3343 -2.3439
   21CHL1   C25 1545   6.016   4.235   4.503 -0.9545 -0.3768 -0.8985
   21CHL1   H25 1546   5.922   4.294   4.495 -0.0746  0.9551 -1.7726
   21CHL1   C26 1547   6.091   4.293   4.381 -0.3538  0.0314  0.3858
   21CHL1  H26A 1548   6.095   4.404   4.378  0.7785  0.0078  0.5867
   21CHL1  H26B 1549   6.191   4.247   4.374 -0.9399 -1.1730 -0.3022
   21CHL1  H26C 1550   6.032   4.282   4.288  1.5028  0.1867 -0.8587
   21CHL1   C27 1551   6.002   4.083   4.486  1.1504 -0.0594 -0.0040
   21CHL1  H27A 1552   5.943   4.070   4.393 -0.3092  3.6694  0.2302
   21CHL1  H27B 1553   6.101   4.045   4.452  0.4565  1.2985 -4.0140
   21CHL1  H27C 1554   5.944   4.021   4.558 -0.2036 -0.4169 -1.3432
   22CHL1    C3 1555   3.767   5.414   6.172 -0.3792  0.1738 -0.5491
   22CHL1    H3 1556   3.867   5.446   6.135  0.7311 -0.3156  1.8787
   22CHL1    O3 1557   3.753   5.428   6.314  0.1290  0.3218 -0.3044
   22CHL1   H3' 1558   3.830   5.394   6.361 -0.1159  0.3437  0.1197
   22CHL1    C4 1559   3.653   5.486   6.104 -0.0589  0.5463  0.0920
   22CHL1   H4A 1560   3.558   5.437   6.134 -1.1991  1.0404 -2.3984
   22CHL1   H4B 1561   3.656   5.592   6.136  1.5676  0.4701  0.2567
   22CHL1    C5 1562   3.674   5.464   5.952 -0.2692  0.5436 -0.9082
   22CHL1    C6 1563   3.696   5.564   5.872  0.2095 -0.3176  0.4840
   22CHL1    H6 1564   3.697   5.668   5.909  0.4189 -0.6077  1.3149
   22CHL1    C7 1565   3.716   5.562   5.721 -0.3734 -0.3405  0.6085
   22CHL1   H7A 1566   3.673   5.649   5.668 -0.7312 -1.2138 -0.5497
   22CHL1   H7B 1567   3.823   5.564   5.689 -0.3969 -0.7018  0.5055
   22CHL1    C8 1568   3.662   5.429   5.653 -0.4573 -0.7294 -0.2830
   22CHL1    H8 1569   3.552   5.429   5.659 -0.4456 -1.4911  0.0875
   22CHL1   C14 1570   3.696   5.413   5.503  0.4666 -0.2770  0.3294
   22CHL1   H14 1571   3.807   5.403   5.503  0.6656  1.6253  0.2593
   22CHL1   C15 1572   3.672   5.529   5.402  0.0690  0.1280  0.6435
   22CHL1  H15A 1573   3.567   5.560   5.416  0.8598  2.8681  1.2355
   22CHL1  H15B 1574   3.737   5.620   5.407 -0.0897  0.2668  0.2079
   22CHL1   C16 1575   3.692   5.451   5.268  0.1588  0.2626 -0.0458
   22CHL1  H16A 1576   3.598   5.464   5.209  1.0137  0.7356 -1.3324
   22CHL1  H16B 1577   3.773   5.494   5.206 -0.6538  1.8697 -0.0355
   22CHL1   C17 1578   3.725   5.306   5.305 -0.0757 -0.2346 -0.4453
   22CHL1   H17 1579   3.835   5.300   5.321 -0.2863  0.1700  1.3598
   22CHL1   C13 1580   3.656   5.288   5.439 -0.6245  0.0057 -0.4282
   22CHL1   C18 1581   3.499   5.286   5.426  0.0249 -0.6708  0.4795
   22CHL1  H18A 1582   3.479   5.193   5.369  0.1001  0.0287 -0.7113
   22CHL1  H18B 1583   3.440   5.292   5.520  2.7212  0.3795  2.2368
   22CHL1  H18C 1584   3.468   5.375   5.368 -1.5478 -1.4439  0.0808
   22CHL1   C12 1585   3.723   5.173   5.523 -0.2262  0.2858  0.4303
   22CHL1  H12A 1586   3.705   5.075   5.474  2.8180  0.3410 -1.0323
   22CHL1  H12B 1587   3.834   5.177   5.522 -0.1602  0.6774  2.7879
   22CHL1   C11 1588   3.678   5.167   5.667 -0.1950 -0.1688 -0.0190
   22CHL1  H11A 1589   3.570   5.143   5.672 -0.0532 -1.1293 -1.1663
   22CHL1  H11B 1590   3.734   5.090   5.724  0.0931 -0.2936 -0.4662
   22CHL1    C9 1591   3.706   5.308   5.742 -0.1345  0.5784 -0.0772
   22CHL1    H9 1592   3.817   5.316   5.741 -0.1015  0.1825  0.2611
   22CHL1   C10 1593   3.667   5.321   5.895 -0.0404 -0.3865 -0.0100
   22CHL1   C19 1594   3.529   5.257   5.909  0.2557 -0.1129 -0.7535
   22CHL1  H19A 1595   3.537   5.147   5.903  2.1832  0.0231 -1.3011
   22CHL1  H19B 1596   3.493   5.277   6.013  0.3237 -1.1002 -0.5287
   22CHL1  H19C 1597   3.463   5.302   5.833  1.2055 -0.1205 -1.6053
   22CHL1    C1 1598   3.773   5.242   5.979 -0.1007  0.0579 -0.9761
   22CHL1   H1A 1599   3.779   5.133   5.962 -1.4139 -0.0706 -0.6383
   22CHL1   H1B 1600   3.869   5.290   5.947 -1.0057  2.4368 -0.3635
   22CHL1    C2 1601   3.768   5.267   6.130 -0.5280 -0.6963  0.6009
   22CHL1   H2A 1602   3.861   5.216   6.163  0.0853  0.2407  0.3549
   22CHL1   H2B 1603   3.686   5.208   6.176 -0.7862  0.4007  1.5539
   22CHL1   C20 1604   3.688   5.204   5.201  0.1620  0.2455 -0.3373
   22CHL1   H20 1605   3.678   5.111   5.261  1.6432  0.2842  0.0012
   22CHL1   C21 1606   3.813   5.198   5.111  0.3860  0.7781  0.1882
   22CHL1  H21A 1607   3.835   5.301   5.074 -0.6515  0.4368 -1.4982
   22CHL1  H21B 1608   3.806   5.130   5.023  1.1093  3.4040 -2.0487
   22CHL1  H21C 1609   3.896   5.158   5.174 -0.2357  0.1546  0.6183
   22CHL1   C22 1610   3.563   5.212   5.116  0.7655  0.7091  0.6092
   22CHL1  H22A 1611   3.488   5.273   5.172 -0.0390  1.6191 -1.3909
   22CHL1  H22B 1612   3.584   5.284   5.034  1.1416  1.3377  1.2345
   22CHL1   C23 1613   3.502   5.088   5.058 -0.1471 -0.4383  0.2887
   22CHL1  H23A 1614   3.583   5.033   5.005 -1.5592 -2.5562  0.1805
   22CHL1  H23B 1615   3.490   5.030   5.153 -1.2151  0.2572  0.5938
   22CHL1   C24 1616   3.372   5.099   4.972  0.5192 -0.6947  0.4002
   22CHL1  H24A 1617   3.307   5.174   5.021 -0.3385 -1.5589  0.6202
   22CHL1  H24B 1618   3.383   5.151   4.874 -1.0242  0.0898  0.6243
   22CHL1   C25 1619   3.298   4.965   4.968  0.1960  0.2219  0.0288
   22CHL1   H25 1620   3.266   4.939   5.071 -0.4640  1.7155  0.2370
   22CHL1   C26 1621   3.164   4.981   4.898 -0.0279 -0.3084  0.3269
   22CHL1  H26A 1622   3.109   4.884   4.895 -0.4797 -0.0977  1.3728
   22CHL1  H26B 1623   3.111   5.060   4.956 -1.7980 -1.8350  0.8876
   22CHL1  H26C 1624   3.184   5.008   4.792 -0.2768 -3.4070 -0.6350
   22CHL1   C27 1625   3.380   4.847   4.916 -0.3844 -0.0495  0.5230
   22CHL1  H27A 1626   3.331   4.750   4.936 -1.0873  0.5072  1.6464
   22CHL1  H27B 1627   3.393   4.861   4.807  0.8530  2.7557  0.9135
   22CHL1  H27C 1628   3.481   4.848   4.964 -0.7488  1.7360  1.3515
   23CHL1    C3 1629   5.333   6.127   5.730  0.4456  0.2430  0.5961
   23CHL1    H3 1630   5.228   6.097   5.752  0.1378  1.0467  0.2752
   23CHL1    O3 1631   5.392   6.170   5.851  0.1813  0.0167  0.1313
   23CHL1   H3' 1632   5.478   6.128   5.841  0.1187 -0.0375 -0.1889
   23CHL1    C4 1633   5.418   6.017   5.657 -0.1977  0.0029  0.0545
   23CHL1   H4A 1634   5.517   6.059   5.629  0.6332 -1.7096  0.2577
   23CHL1   H4B 1635   5.437   5.938   5.733  0.3120  0.7061  0.6784
   23CHL1    C5 1636   5.335   5.971   5.534 -1.0518  0.1885  0.0530
   23CHL1    C6 1637   5.296   5.843   5.514 -0.2879  0.0484 -0.0729
   23CHL1    H6 1638   5.318   5.770   5.593 -0.1434 -0.5170 -0.6319
   23CHL1    C7 1639   5.233   5.798   5.384  0.6018 -0.8067  0.4816
   23CHL1   H7A 1640   5.282   5.705   5.349  0.8609 -1.2477  1.9513
   23CHL1   H7B 1641   5.129   5.765   5.405  0.3707 -0.9273 -0.8111
   23CHL1    C8 1642   5.224   5.909   5.272 -0.1127  1.2934  0.4461
   23CHL1    H8 1643   5.319   5.906   5.215 -0.0185 -0.5700  0.6249
   23CHL1   C14 1644   5.117   5.872   5.155 -0.8589 -0.7684 -0.1301
   23CHL1   H14 1645   5.021   5.881   5.210  0.4334  0.9831  2.0096
   23CHL1   C15 1646   5.127   5.733   5.098 -0.5682  0.4455  0.5578
   23CHL1  H15A 1647   5.232   5.710   5.069 -0.5875  0.9240  0.0762
   23CHL1  H15B 1648   5.086   5.658   5.168 -1.8537  1.0183  0.4506
   23CHL1   C16 1649   5.041   5.749   4.970  0.1393  0.8136 -0.3437
   23CHL1  H16A 1650   5.095   5.718   4.878 -2.5214  2.4534 -2.6218
   23CHL1  H16B 1651   4.944   5.694   4.968  0.9903 -0.8738  1.2217
   23CHL1   C17 1652   5.002   5.901   4.959 -0.1817 -0.5202 -0.8275
   23CHL1   H17 1653   4.903   5.923   5.004  0.4089 -0.1430  0.3099
   23CHL1   C13 1654   5.116   5.973   5.037 -0.1832  0.5513 -0.1981
   23CHL1   C18 1655   5.244   5.965   4.958  0.3638 -0.0265 -0.1737
   23CHL1  H18A 1656   5.235   5.873   4.895 -0.9504  0.7483 -1.1553
   23CHL1  H18B 1657   5.250   6.036   4.873 -0.8197 -1.6014 -1.6584
   23CHL1  H18C 1658   5.340   5.967   5.014  0.4118 -0.1001 -0.2521
   23CHL1   C12 1659   5.080   6.108   5.103  0.0031 -0.3984  0.0840
   23CHL1  H12A 1660   5.075   6.185   5.023 -3.4165 -2.2686 -1.7360
   23CHL1  H12B 1661   4.983   6.098   5.156 -0.6074 -0.8334 -1.0726
   23CHL1   C11 1662   5.190   6.150   5.200  0.0064  0.2700  0.4494
   23CHL1  H11A 1663   5.285   6.170   5.146  0.2259  0.4467  0.8950
   23CHL1  H11B 1664   5.156   6.246   5.244  0.0007 -0.1899  1.4821
   23CHL1    C9 1665   5.198   6.049   5.319 -0.0464  0.9941  0.8234
   23CHL1    H9 1666   5.095   6.047   5.360 -0.9089 -1.0096 -1.2480
   23CHL1   C10 1667   5.305   6.083   5.425  0.7499  0.1057 -0.4024
   23CHL1   C19 1668   5.435   6.123   5.363 -0.2008 -0.2390  0.6702
   23CHL1  H19A 1669   5.512   6.130   5.443  2.9555 -0.3580 -2.1295
   23CHL1  H19B 1670   5.479   6.045   5.298  1.7759  2.3050 -1.2721
   23CHL1  H19C 1671   5.430   6.209   5.293  0.5364 -2.1027 -1.8123
   23CHL1    C1 1672   5.242   6.202   5.504 -0.2358 -0.2373 -0.1168
   23CHL1   H1A 1673   5.257   6.291   5.439  2.3305 -0.4868  0.0656
   23CHL1   H1B 1674   5.132   6.188   5.520 -0.1788 -1.1486 -0.4875
   23CHL1    C2 1675   5.319   6.241   5.630  0.4055  0.1820  0.0438
   23CHL1   H2A 1676   5.255   6.318   5.680 -0.6426 -1.3552  1.2006
   23CHL1   H2B 1677   5.422   6.277   5.611  0.9579 -0.9814  0.7095
   23CHL1   C20 1678   4.989   5.944   4.810 -0.5981  0.6246  0.3706
   23CHL1   H20 1679   5.090   5.941   4.764 -0.1400  0.3976  1.3754
   23CHL1   C21 1680   4.937   6.087   4.794 -0.3317 -0.2032 -0.0616
   23CHL1  H21A 1681   4.928   6.120   4.688 -1.7815  0.9159  0.3870
   23CHL1  H21B 1682   5.013   6.152   4.843 -1.4429 -1.0433  2.9790
   23CHL1  H21C 1683   4.836   6.099   4.838 -0.6272 -1.0423 -0.4917
   23CHL1   C22 1684   4.890   5.849   4.736  0.5402  0.8082  0.2326
   23CHL1  H22A 1685   4.904   5.740   4.744 -0.6844  0.3710 -2.5087
   23CHL1  H22B 1686   4.789   5.852   4.783  0.7428 -0.1639  0.7521
   23CHL1   C23 1687   4.864   5.888   4.588  0.3274  0.6392  0.6296
   23CHL1  H23A 1688   4.809   5.984   4.582  1.1117  1.1029  0.7137
   23CHL1  H23B 1689   4.963   5.900   4.537 -1.0827  0.7309 -2.2855
   23CHL1   C24 1690   4.794   5.778   4.506  0.2439 -0.5738 -0.4896
   23CHL1  H24A 1691   4.855   5.686   4.510  0.7774 -0.2192 -0.4103
   23CHL1  H24B 1692   4.707   5.756   4.572  0.7377  0.4086  0.5304
   23CHL1   C25 1693   4.749   5.822   4.364  0.0226 -0.0955  0.2678
   23CHL1   H25 1694   4.705   5.730   4.319 -1.3045 -0.4966  2.2223
   23CHL1   C26 1695   4.643   5.933   4.359  0.5258  0.1873 -0.3779
   23CHL1  H26A 1696   4.561   5.905   4.428  1.4147  0.4633  0.8233
   23CHL1  H26B 1697   4.669   6.031   4.405 -0.6633  1.0060 -1.3984
   23CHL1  H26C 1698   4.607   5.956   4.256  0.6191 -0.1209 -0.4798
   23CHL1   C27 1699   4.876   5.850   4.288  0.7351 -0.6399  0.5468
   23CHL1  H27A 1700   4.921   5.944   4.328 -0.4506 -0.6387  1.9684
   23CHL1  H27B 1701   4.946   5.764   4.285  1.4574 -0.0694  0.7466
   23CHL1  H27C 1702   4.843   5.868   4.184  1.1742 -2.7389 -0.0128
   24CHL1    C3 1703   3.104   1.287   6.764  0.0024 -0.4139  0.2726
   24CHL1    H3 1704   3.028   1.207   6.773 -0.8218  0.3087 -0.1393
   24CHL1    O3 1705   3.111   1.332   6.898  0.4136  0.3145 -1.2047
   24CHL1   H3' 1706   3.178   1.401   6.903  3.9435 -2.7937 -1.6304
   24CHL1    C4 1707   3.240   1.236   6.708  0.6668  0.0903  0.6007
   24CHL1   H4A 1708   3.322   1.311   6.719  0.9000  0.2651 -1.7866
   24CHL1   H4B 1709   3.263   1.148   6.772 -0.0728 -1.2453 -0.9001
   24CHL1    C5 1710   3.231   1.202   6.558  0.3627  0.0231 -0.3293
   24CHL1    C6 1711   3.256   1.080   6.510  0.3415  0.2886 -0.6265
   24CHL1    H6 1712   3.300   1.001   6.572 -0.3113 -1.7020 -2.5657
   24CHL1    C7 1713   3.268   1.041   6.363 -1.1369  0.1135 -0.5809
   24CHL1   H7A 1714   3.367   0.997   6.337 -0.3700  1.7834 -0.5868
   24CHL1   H7B 1715   3.193   0.964   6.334 -0.1926 -0.4044 -1.7591
   24CHL1    C8 1716   3.253   1.159   6.271  0.3932  0.1846  0.4336
   24CHL1    H8 1717   3.346   1.220   6.274  1.3038 -1.1774  1.2891
   24CHL1   C14 1718   3.215   1.121   6.127 -0.0247 -0.2935 -0.0623
   24CHL1   H14 1719   3.121   1.063   6.133 -0.6077  0.7426  1.6479
   24CHL1   C15 1720   3.308   1.023   6.059  0.3835 -0.3649  0.6033
   24CHL1  H15A 1721   3.417   1.039   6.075  0.2637 -0.0781  1.1510
   24CHL1  H15B 1722   3.277   0.920   6.087  1.2194 -0.6829  0.3881
   24CHL1   C16 1723   3.277   1.047   5.910 -0.3390 -0.4756 -0.1489
   24CHL1  H16A 1724   3.371   1.083   5.864 -1.5234  1.0677 -1.4420
   24CHL1  H16B 1725   3.248   0.955   5.854 -0.1976 -1.7758  1.7890
   24CHL1   C17 1726   3.181   1.167   5.895 -0.5583  0.3740  0.0580
   24CHL1   H17 1727   3.079   1.123   5.890 -0.4525 -0.0847  1.4622
   24CHL1   C13 1728   3.193   1.234   6.031 -0.0784  0.3307 -0.2204
   24CHL1   C18 1729   3.304   1.334   6.017 -0.6263 -0.0189 -0.2347
   24CHL1  H18A 1730   3.386   1.308   5.947  1.6432  1.8099  1.5664
   24CHL1  H18B 1731   3.264   1.436   5.996 -1.0493 -0.1584 -0.1114
   24CHL1  H18C 1732   3.367   1.336   6.108  0.6367 -0.2028 -1.0761
   24CHL1   C12 1733   3.070   1.297   6.079 -0.3170 -0.3472 -0.5160
   24CHL1  H12A 1734   3.047   1.387   6.017  2.4276  0.9484  0.1901
   24CHL1  H12B 1735   2.977   1.237   6.082 -1.3226  1.1872  1.2728
   24CHL1   C11 1736   3.087   1.360   6.217 -0.6490  0.4179 -0.0647
   24CHL1  H11A 1737   3.173   1.430   6.209  1.1185 -1.6473  0.1907
   24CHL1  H11B 1738   2.991   1.402   6.255 -0.9808  0.0330 -0.4753
   24CHL1    C9 1739   3.139   1.253   6.322  0.2514  0.4725 -0.4729
   24CHL1    H9 1740   3.053   1.184   6.337  1.0257 -0.4596 -0.1546
   24CHL1   C10 1741   3.166   1.317   6.466 -0.7042  0.1148  0.5729
   24CHL1   C19 1742   3.275   1.421   6.448  0.5471  0.0046  0.8496
   24CHL1  H19A 1743   3.226   1.514   6.413  0.8107 -0.3237 -0.4487
   24CHL1  H19B 1744   3.313   1.444   6.550  0.1278 -1.5643  1.3902
   24CHL1  H19C 1745   3.360   1.390   6.383 -0.8485 -2.2144 -0.0334
   24CHL1    C1 1746   3.042   1.372   6.529 -0.0361  0.7291  0.2688
   24CHL1   H1A 1747   3.004   1.459   6.471  1.6074  0.6413 -1.0156
   24CHL1   H1B 1748   2.959   1.300   6.513 -0.0005  1.1971 -2.4292
   24CHL1    C2 1749   3.050   1.404   6.683  0.6256 -0.0247  0.4803
   24CHL1   H2A 1750   2.950   1.419   6.729  1.5870 -1.9985  3.4893
   24CHL1   H2B 1751   3.109   1.497   6.698 -0.6561  0.7645  0.7630
   24CHL1   C20 1752   3.189   1.236   5.762 -0.4770  0.3339  0.7722
   24CHL1   H20 1753   3.294   1.274   5.758 -1.2275  2.5260  0.7589
   24CHL1   C21 1754   3.093   1.360   5.766 -0.5687 -0.0804 -0.0326
   24CHL1  H21A 1755   2.992   1.334   5.805 -0.9013 -0.8643 -1.3414
   24CHL1  H21B 1756   3.076   1.408   5.667  0.9427 -1.2419 -0.8789
   24CHL1  H21C 1757   3.135   1.428   5.843  1.0082 -1.9088  0.7885
   24CHL1   C22 1758   3.156   1.149   5.637 -0.5700 -0.0232  0.4107
   24CHL1  H22A 1759   3.186   1.043   5.652  0.2849  0.1950  0.3410
   24CHL1  H22B 1760   3.048   1.145   5.610 -1.1318 -0.7077  2.6067
   24CHL1   C23 1761   3.240   1.200   5.522  0.7484 -0.4470  0.0443
   24CHL1  H23A 1762   3.213   1.307   5.514 -1.6390 -1.0864 -1.3422
   24CHL1  H23B 1763   3.347   1.205   5.553  0.5953 -1.1882  0.7532
   24CHL1   C24 1764   3.219   1.131   5.394  0.2425  0.3344 -0.9363
   24CHL1  H24A 1765   3.242   1.024   5.413 -0.0018  0.6978  1.8929
   24CHL1  H24B 1766   3.111   1.125   5.370  0.0043  1.2992 -0.1461
   24CHL1   C25 1767   3.296   1.188   5.272  0.3176 -0.3737  0.5188
   24CHL1   H25 1768   3.281   1.298   5.262  1.8822 -0.2004 -0.1043
   24CHL1   C26 1769   3.449   1.154   5.280 -0.1607 -0.2029 -0.0667
   24CHL1  H26A 1770   3.471   1.190   5.383 -0.8830  0.3481 -0.0933
   24CHL1  H26B 1771   3.458   1.044   5.281 -1.1671 -0.3238 -1.2300
   24CHL1  H26C 1772   3.517   1.202   5.207  0.5416 -0.8007  0.1874
   24CHL1   C27 1773   3.244   1.137   5.134 -0.5714  0.4577 -0.7946
   24CHL1  H27A 1774   3.308   1.049   5.112 -0.0142  0.1862  1.6388
   24CHL1  H27B 1775   3.136   1.109   5.131 -0.5265  0.3392 -1.5740
   24CHL1  H27C 1776   3.258   1.220   5.061 -2.4718  2.2829  0.7548
   25CHL1    C3 1777   6.165   5.042   6.123 -0.4769  0.0826 -0.6446
   25CHL1    H3 1778   6.109   5.137   6.138  1.3320  1.1825 -0.6108
   25CHL1    O3 1779   6.210   5.006   6.249  0.0351  0.0699 -0.2706
   25CHL1   H3' 1780   6.222   5.082   6.305  0.2229 -1.1855  1.4610
   25CHL1    C4 1781   6.081   4.922   6.071 -0.0869  0.6343  0.0155
   25CHL1   H4A 1782   6.139   4.828   6.082 -1.9613 -0.6547 -0.7560
   25CHL1   H4B 1783   5.991   4.922   6.136  0.0486  2.1887  0.2375
   25CHL1    C5 1784   6.048   4.936   5.916 -0.3244  0.4228 -0.4072
   25CHL1    C6 1785   5.921   4.936   5.876 -0.2345 -0.1345  0.2007
   25CHL1    H6 1786   5.837   4.920   5.945 -0.9251 -0.1580 -0.6335
   25CHL1    C7 1787   5.893   4.962   5.732  0.6126 -0.0512 -0.3063
   25CHL1   H7A 1788   5.808   4.892   5.713 -0.6315  1.1897  0.4570
   25CHL1   H7B 1789   5.854   5.066   5.718  0.5366 -0.1485 -0.8287
   25CHL1    C8 1790   6.011   4.938   5.642 -0.2340 -0.1310  0.3754
   25CHL1    H8 1791   6.046   4.832   5.639  0.9945  0.1411  2.7003
   25CHL1   C14 1792   5.976   4.977   5.498 -0.1035  0.0497 -0.1352
   25CHL1   H14 1793   5.945   5.084   5.506 -0.3980 -0.1038  1.0877
   25CHL1   C15 1794   5.849   4.915   5.430  0.4261 -0.7217 -0.5420
   25CHL1  H15A 1795   5.851   4.808   5.461  2.3356 -0.0859  1.7647
   25CHL1  H15B 1796   5.753   4.965   5.457  0.6340 -0.8540  0.4518
   25CHL1   C16 1797   5.885   4.935   5.288 -0.6389  0.7025  0.0813
   25CHL1  H16A 1798   5.904   4.836   5.240  0.6303  1.0696 -0.2102
   25CHL1  H16B 1799   5.805   4.987   5.232 -1.5870 -0.8652 -0.0726
   25CHL1   C17 1800   6.020   5.016   5.270  0.8119  0.4010 -0.3178
   25CHL1   H17 1801   5.998   5.124   5.285 -0.9836  0.6548 -3.7626
   25CHL1   C13 1802   6.098   4.974   5.396  1.9610 -0.6005 -0.0106
   25CHL1   C18 1803   6.152   4.833   5.386  0.3918  0.0106 -0.7099
   25CHL1  H18A 1804   6.102   4.768   5.312  1.3674 -0.2311 -1.1613
   25CHL1  H18B 1805   6.261   4.833   5.363  0.5471  1.3909 -0.1333
   25CHL1  H18C 1806   6.152   4.772   5.479  1.3382 -0.4312 -0.9967
   25CHL1   C12 1807   6.213   5.061   5.446  0.6610  0.2506  0.3036
   25CHL1  H12A 1808   6.306   5.048   5.387 -0.1165  0.6204 -1.0564
   25CHL1  H12B 1809   6.172   5.164   5.436 -1.3743 -0.7162 -2.8431
   25CHL1   C11 1810   6.252   5.034   5.598 -0.0623  0.7494 -0.4460
   25CHL1  H11A 1811   6.317   4.945   5.582  0.7555  1.2039  0.2341
   25CHL1  H11B 1812   6.319   5.114   5.636 -1.9978  1.3041  2.0768
   25CHL1    C9 1813   6.129   5.024   5.691  0.1792  0.9300  0.1473
   25CHL1    H9 1814   6.099   5.130   5.699 -1.0638  0.5914  0.1463
   25CHL1   C10 1815   6.173   4.973   5.828  0.0603 -0.0848 -0.8287
   25CHL1   C19 1816   6.264   4.852   5.824  0.0577  0.2221 -1.0745
   25CHL1  H19A 1817   6.364   4.889   5.794  0.7332  1.7034  2.5108
   25CHL1  H19B 1818   6.277   4.812   5.927 -2.5096 -1.8812 -1.4475
   25CHL1  H19C 1819   6.234   4.768   5.757  1.1383  1.9109 -3.8616
   25CHL1    C1 1820   6.251   5.091   5.898  0.0685  0.0869 -0.0136
   25CHL1   H1A 1821   6.347   5.114   5.847 -1.2961  2.6966 -1.6309
   25CHL1   H1B 1822   6.197   5.188   5.898  0.9285  0.5710 -0.0701
   25CHL1    C2 1823   6.286   5.071   6.042  1.1211 -0.4303 -0.1031
   25CHL1   H2A 1824   6.336   5.161   6.083 -0.1460  1.6022 -2.7749
   25CHL1   H2B 1825   6.360   4.989   6.053  1.7385  0.2993  1.4963
   25CHL1   C20 1826   6.084   4.992   5.133  0.1253 -0.2520  0.1948
   25CHL1   H20 1827   6.133   4.894   5.115 -0.0318 -0.0845 -1.2768
   25CHL1   C21 1828   6.196   5.103   5.121  0.4179  0.1308  0.0140
   25CHL1  H21A 1829   6.269   5.096   5.205  0.7904  1.7926 -0.1318
   25CHL1  H21B 1830   6.151   5.204   5.126 -0.9203 -0.4296 -0.3924
   25CHL1  H21C 1831   6.245   5.093   5.021 -2.0918 -0.9810 -1.2058
   25CHL1   C22 1832   6.003   5.010   5.001 -0.3352  0.2711 -0.3249
   25CHL1  H22A 1833   5.913   4.946   5.010 -1.2815  1.8073  1.9230
   25CHL1  H22B 1834   5.966   5.114   5.008 -0.3911  0.2157  0.2231
   25CHL1   C23 1835   6.069   4.998   4.863  0.4666 -0.0491  0.3421
   25CHL1  H23A 1836   6.144   5.076   4.841 -0.4471  1.3696  1.9887
   25CHL1  H23B 1837   6.110   4.895   4.851 -1.1910 -0.9664  1.9175
   25CHL1   C24 1838   5.966   4.999   4.746  0.3037 -0.4466 -0.6312
   25CHL1  H24A 1839   5.918   4.900   4.733 -0.6121 -0.1710  0.4934
   25CHL1  H24B 1840   5.886   5.075   4.757 -0.2965 -1.0386 -0.8642
   25CHL1   C25 1841   6.035   5.039   4.617 -0.0000 -0.3353  0.1282
   25CHL1   H25 1842   6.087   5.136   4.633  0.4740 -0.3716 -1.0718
   25CHL1   C26 1843   6.134   4.936   4.563 -0.6483 -0.0705  0.0996
   25CHL1  H26A 1844   6.079   4.839   4.556  0.7338 -0.7939 -1.4140
   25CHL1  H26B 1845   6.182   4.953   4.464 -2.1437  0.7564 -0.5175
   25CHL1  H26C 1846   6.222   4.928   4.629  0.4283 -0.2355 -1.3126
   25CHL1   C27 1847   5.930   5.067   4.501  1.3403  0.1522 -0.2196
   25CHL1  H27A 1848   5.974   5.074   4.399  0.9954 -0.6147 -0.4254
   25CHL1  H27B 1849   5.865   4.977   4.494  0.0393  1.2132 -3.2395
   25CHL1  H27C 1850   5.855   5.148   4.508  0.9608 -0.0622 -1.5347
   26CHL1    C3 1851   2.660   5.215   6.345  0.4088  0.0626  0.5658
   26CHL1    H3 1852   2.605   5.312   6.340 -2.0212 -1.2640  0.2655
   26CHL1    O3 1853   2.706   5.211   6.485 -0.4020  0.0971  1.0484
   26CHL1   H3' 1854   2.731   5.301   6.505  2.6020 -0.4651  0.3449
   26CHL1    C4 1855   2.572   5.096   6.315  1.2035 -0.1404 -0.0497
   26CHL1   H4A 1856   2.634   5.004   6.318  0.7286 -0.4501  0.5164
   26CHL1   H4B 1857   2.494   5.090   6.394  0.9186 -0.4207 -0.3525
   26CHL1    C5 1858   2.515   5.097   6.175 -0.0708 -0.2895 -1.2539
   26CHL1    C6 1859   2.382   5.095   6.160  0.4137  0.1002  0.0450
   26CHL1    H6 1860   2.313   5.091   6.245  1.7055 -1.2699  1.0916
   26CHL1    C7 1861   2.323   5.076   6.025 -0.0929  0.0088  0.0686
   26CHL1   H7A 1862   2.252   4.991   6.031  1.1014 -0.9825  0.6512
   26CHL1   H7B 1863   2.276   5.171   5.991  0.3355 -0.4120 -1.7873
   26CHL1    C8 1864   2.425   5.048   5.914 -1.2264  0.5135 -0.4287
   26CHL1    H8 1865   2.447   4.939   5.906  1.2824  0.7660  1.4686
   26CHL1   C14 1866   2.360   5.070   5.775 -0.0266 -0.4467  0.0085
   26CHL1   H14 1867   2.339   5.179   5.773 -0.0527 -0.4671 -1.2653
   26CHL1   C15 1868   2.218   5.007   5.753 -0.0783  0.1931  0.3722
   26CHL1  H15A 1869   2.225   4.901   5.786 -0.5443 -0.3601 -1.1773
   26CHL1  H15B 1870   2.142   5.065   5.809 -1.2096 -0.1841 -0.7207
   26CHL1   C16 1871   2.204   5.020   5.606  1.0291 -0.5652 -0.6259
   26CHL1  H16A 1872   2.179   4.918   5.569  0.6381 -1.2584  1.4374
   26CHL1  H16B 1873   2.128   5.093   5.570 -0.7830 -0.4814  2.9731
   26CHL1   C17 1874   2.344   5.048   5.544  1.0062 -0.1378 -0.6907
   26CHL1   H17 1875   2.348   5.158   5.531 -2.5633  0.3819  1.3066
   26CHL1   C13 1876   2.449   5.029   5.656  0.3636 -0.1119  0.3608
   26CHL1   C18 1877   2.486   4.877   5.658 -0.4075  0.3261  0.3458
   26CHL1  H18A 1878   2.547   4.853   5.568 -0.1432  1.3403  0.2412
   26CHL1  H18B 1879   2.544   4.864   5.752 -0.9492  2.2025  0.9803
   26CHL1  H18C 1880   2.393   4.816   5.656 -0.2691  0.1217 -1.4494
   26CHL1   C12 1881   2.564   5.129   5.665 -0.4900  0.1530  0.2404
   26CHL1  H12A 1882   2.622   5.132   5.570 -1.1058 -1.2792 -0.2057
   26CHL1  H12B 1883   2.517   5.229   5.671 -3.1448 -1.0781  2.4665
   26CHL1   C11 1884   2.641   5.112   5.798 -0.4254 -0.4203 -0.3277
   26CHL1  H11A 1885   2.686   5.010   5.800  0.0135 -0.3077 -2.0812
   26CHL1  H11B 1886   2.725   5.186   5.801 -0.2200 -0.6748  0.3877
   26CHL1    C9 1887   2.557   5.129   5.924  0.4059  0.3062 -0.8542
   26CHL1    H9 1888   2.533   5.238   5.927  1.9945  0.6667 -0.4844
   26CHL1   C10 1889   2.619   5.103   6.061 -0.2789 -0.5001 -0.6370
   26CHL1   C19 1890   2.692   4.965   6.048 -0.5684  0.0096 -0.4425
   26CHL1  H19A 1891   2.734   4.926   6.143  1.8440  0.1961 -1.3555
   26CHL1  H19B 1892   2.637   4.874   6.015  2.8583 -3.2725  1.9658
   26CHL1  H19C 1893   2.779   4.971   5.979 -0.7216  0.2249 -0.6215
   26CHL1    C1 1894   2.715   5.222   6.099 -0.4274  0.1113  0.6036
   26CHL1   H1A 1895   2.796   5.219   6.024 -1.6721  2.2533 -0.9363
   26CHL1   H1B 1896   2.660   5.319   6.093  2.1479  1.5804 -1.1939
   26CHL1    C2 1897   2.774   5.209   6.242 -0.3415  0.0199  0.4224
   26CHL1   H2A 1898   2.844   5.294   6.258 -0.5850  0.1417  0.8585
   26CHL1   H2B 1899   2.823   5.110   6.249 -3.7319 -1.8090  0.1293
   26CHL1   C20 1900   2.375   4.983   5.406  0.4561 -0.0460 -0.8229
   26CHL1   H20 1901   2.399   4.875   5.409 -0.1372 -0.2162 -1.8694
   26CHL1   C21 1902   2.502   5.051   5.350  0.6194  0.1783 -0.1990
   26CHL1  H21A 1903   2.599   5.014   5.388  0.1817 -1.7049 -0.8077
   26CHL1  H21B 1904   2.502   5.162   5.354  0.0593  0.1907 -0.4478
   26CHL1  H21C 1905   2.503   5.014   5.245  2.5279 -2.2342  0.5795
   26CHL1   C22 1906   2.261   5.013   5.303 -1.2170  0.2537 -0.1679
   26CHL1  H22A 1907   2.160   5.018   5.349 -1.8565 -2.6832 -0.9982
   26CHL1  H22B 1908   2.293   5.110   5.260  2.3378 -1.1361 -1.0207
   26CHL1   C23 1909   2.250   4.904   5.190  0.1832 -0.4550  0.4457
   26CHL1  H23A 1910   2.344   4.895   5.132  0.9023  0.9101  1.3521
   26CHL1  H23B 1911   2.219   4.807   5.234 -1.1560 -0.6220 -0.7690
   26CHL1   C24 1912   2.141   4.951   5.087  0.1844 -0.3544  0.4066
   26CHL1  H24A 1913   2.044   4.969   5.140  1.6369  1.9848  2.5187
   26CHL1  H24B 1914   2.174   5.049   5.047 -0.6113 -0.2485 -0.0143
   26CHL1   C25 1915   2.141   4.850   4.975  1.0451  0.2957 -0.2663
   26CHL1   H25 1916   2.242   4.819   4.939  1.4732  1.6240 -0.2653
   26CHL1   C26 1917   2.060   4.721   5.015  0.1959  0.2359  0.3240
   26CHL1  H26A 1918   2.049   4.637   4.944 -3.1873 -1.5700  2.6716
   26CHL1  H26B 1919   2.114   4.678   5.103  1.7239 -0.0333 -0.7062
   26CHL1  H26C 1920   1.954   4.738   5.044  1.0329  2.0391  2.6905
   26CHL1   C27 1921   2.066   4.911   4.854  0.5451  0.6530  0.1907
   26CHL1  H27A 1922   2.103   5.015   4.845  0.6402  0.4590 -2.8562
   26CHL1  H27B 1923   2.095   4.863   4.757 -0.4214  1.5573 -0.5694
   26CHL1  H27C 1924   1.957   4.921   4.872 -0.2396 -3.3566 -1.1545
   27CHL1    C3 1925   1.868   0.636   6.504  0.7760 -0.1609 -0.0510
   27CHL1    H3 1926   1.817   0.731   6.529  2.8938  0.3908  2.7111
   27CHL1    O3 1927   1.914   0.566   6.617 -0.0674  0.1219 -0.1173
   27CHL1   H3' 1928   1.981   0.503   6.590 -0.2797  0.3375 -1.1780
   27CHL1    C4 1929   1.781   0.550   6.407  0.0072  0.3047 -0.4327
   27CHL1   H4A 1930   1.849   0.463   6.395  1.0533  1.1961 -1.1138
   27CHL1   H4B 1931   1.687   0.530   6.464  0.8605  0.1142  0.9714
   27CHL1    C5 1932   1.756   0.602   6.270 -0.2033  0.3757  0.1878
   27CHL1    C6 1933   1.629   0.608   6.221  0.0833 -0.7447  0.3834
   27CHL1    H6 1934   1.547   0.587   6.292 -1.0874  2.2776  0.0721
   27CHL1    C7 1935   1.596   0.648   6.083 -0.3800  0.3701  0.1828
   27CHL1   H7A 1936   1.522   0.586   6.029 -1.4784  1.5115  0.3315
   27CHL1   H7B 1937   1.539   0.743   6.086 -2.2548 -0.7208  0.5450
   27CHL1    C8 1938   1.717   0.661   5.995 -0.4625  0.3706 -0.0396
   27CHL1    H8 1939   1.747   0.556   5.974  0.5739  0.4186  1.0760
   27CHL1   C14 1940   1.684   0.736   5.862 -0.5517  0.3388 -0.6000
   27CHL1   H14 1941   1.647   0.838   5.885 -2.0145 -0.3229  0.1216
   27CHL1   C15 1942   1.563   0.687   5.782  0.1683 -0.1504  0.1717
   27CHL1  H15A 1943   1.584   0.579   5.769 -1.7025 -0.8447  2.1992
   27CHL1  H15B 1944   1.467   0.692   5.838 -0.8804 -1.4819 -1.4287
   27CHL1   C16 1945   1.578   0.766   5.651  0.3648  0.1014  0.1984
   27CHL1  H16A 1946   1.544   0.705   5.565 -0.4953 -0.8033  1.1529
   27CHL1  H16B 1947   1.518   0.859   5.641  1.0709  0.5921  0.4917
   27CHL1   C17 1948   1.730   0.818   5.647  0.4726 -0.0706 -0.9168
   27CHL1   H17 1949   1.722   0.923   5.682 -0.0982  0.1607 -1.7128
   27CHL1   C13 1950   1.807   0.753   5.767  0.2643  0.3353  0.2967
   27CHL1   C18 1951   1.864   0.615   5.728  1.0565 -0.7582 -0.8444
   27CHL1  H18A 1952   1.960   0.627   5.675  1.1626  0.9386 -0.3303
   27CHL1  H18B 1953   1.887   0.562   5.823  0.3820  1.4096  0.6188
   27CHL1  H18C 1954   1.793   0.564   5.660 -0.4086 -0.3574  0.3249
   27CHL1   C12 1955   1.912   0.830   5.842  0.3887  0.0658 -0.7445
   27CHL1  H12A 1956   2.007   0.837   5.786  0.9939  0.3349  0.2963
   27CHL1  H12B 1957   1.869   0.931   5.861  0.8986  0.6781 -2.6729
   27CHL1   C11 1958   1.953   0.771   5.982  0.3728 -0.3276 -0.4474
   27CHL1  H11A 1959   2.037   0.699   5.967  0.8231  0.6951 -3.7599
   27CHL1  H11B 1960   2.003   0.855   6.035  1.2606 -0.7234 -0.6264
   27CHL1    C9 1961   1.830   0.723   6.070  0.1006 -0.0323  1.9227
   27CHL1    H9 1962   1.790   0.819   6.108  2.4927  0.5328  3.2019
   27CHL1   C10 1963   1.884   0.648   6.194 -0.3402  0.6906 -0.1424
   27CHL1   C19 1964   1.955   0.511   6.154 -0.1425  0.2051 -0.0970
   27CHL1  H19A 1965   1.887   0.443   6.100 -1.1301 -0.9499  2.4647
   27CHL1  H19B 1966   2.041   0.544   6.090  0.1422  2.9630  1.5270
   27CHL1  H19C 1967   1.990   0.453   6.242 -0.1877  3.5417  2.3484
   27CHL1    C1 1968   1.961   0.735   6.288 -0.3580 -0.0520  0.8269
   27CHL1   H1A 1969   2.057   0.770   6.245 -0.1166  2.5499  3.1781
   27CHL1   H1B 1970   1.901   0.829   6.292 -0.8274 -0.3125 -0.0317
   27CHL1    C2 1971   1.995   0.672   6.429  0.5259  0.6940  0.0338
   27CHL1   H2A 1972   2.046   0.747   6.492 -0.9534 -0.1661  2.3750
   27CHL1   H2B 1973   2.066   0.591   6.400 -0.8495 -0.1722 -1.0506
   27CHL1   C20 1974   1.789   0.835   5.507  0.2865  0.0591 -0.1542
   27CHL1   H20 1975   1.790   0.731   5.467 -1.1865  0.5090 -1.5131
   27CHL1   C21 1976   1.931   0.891   5.502 -0.0803 -0.2284  0.3046
   27CHL1  H21A 1977   1.942   0.979   5.568 -2.0104  0.8575 -0.7347
   27CHL1  H21B 1978   1.971   0.908   5.399 -1.8608  1.9904 -0.0905
   27CHL1  H21C 1979   2.005   0.827   5.554  1.3473  1.6859  0.7484
   27CHL1   C22 1980   1.687   0.923   5.428 -0.0752  0.3046  0.1475
   27CHL1  H22A 1981   1.590   0.870   5.431 -0.1098  0.3728  2.8443
   27CHL1  H22B 1982   1.674   1.016   5.488 -1.9248 -1.1642  2.1632
   27CHL1   C23 1983   1.726   0.941   5.280 -0.7253  0.4261 -0.2065
   27CHL1  H23A 1984   1.660   1.017   5.233  0.2583  1.8694  0.6531
   27CHL1  H23B 1985   1.828   0.982   5.262 -0.5004 -1.0236 -2.5292
   27CHL1   C24 1986   1.727   0.816   5.186  0.1231 -0.3383 -0.1887
   27CHL1  H24A 1987   1.799   0.742   5.227 -1.2482 -1.3670  0.4517
   27CHL1  H24B 1988   1.631   0.760   5.193  0.3550 -0.5919  1.1932
   27CHL1   C25 1989   1.754   0.843   5.039 -0.3222  0.5422  0.0636
   27CHL1   H25 1990   1.710   0.941   5.009 -4.4519 -1.0941  0.1343
   27CHL1   C26 1991   1.902   0.837   5.010  0.2865 -0.1550  0.0244
   27CHL1  H26A 1992   1.965   0.896   5.080  2.4296 -3.2234  0.9071
   27CHL1  H26B 1993   1.936   0.731   5.011  0.6064 -0.1181  2.9121
   27CHL1  H26C 1994   1.926   0.881   4.912 -1.1150  0.1229 -0.2164
   27CHL1   C27 1995   1.693   0.745   4.940  0.1354 -0.4360 -0.1089
   27CHL1  H27A 1996   1.583   0.750   4.935  0.0803 -1.4240 -0.1625
   27CHL1  H27B 1997   1.729   0.765   4.837  0.1246  2.5707  0.3736
   27CHL1  H27C 1998   1.711   0.639   4.969  0.4340 -1.1307 -2.6240
   28CHL1    C3 1999   6.428   5.582   6.246 -0.2635  0.0589 -0.9331
   28CHL1    H3 2000   6.333   5.639   6.245 -0.0027  0.5047 -0.7012
   28CHL1    O3 2001   6.441   5.530   6.381  0.3713 -0.3932  0.3862
   28CHL1   H3' 2002   6.532   5.502   6.394  0.4126 -0.9517 -0.9867
   28CHL1    C4 2003   6.416   5.462   6.156 -0.1205  0.0746  0.0806
   28CHL1   H4A 2004   6.496   5.392   6.186 -2.4059 -1.8739  2.1489
   28CHL1   H4B 2005   6.320   5.407   6.166  0.3204 -0.8831 -0.7608
   28CHL1    C5 2006   6.424   5.499   6.004 -0.2786 -0.0906 -0.3562
   28CHL1    C6 2007   6.333   5.468   5.910 -0.1220  0.7927  0.0809
   28CHL1    H6 2008   6.248   5.404   5.938  0.1689  0.1183 -0.5296
   28CHL1    C7 2009   6.328   5.505   5.767  0.0908 -0.7626 -0.6063
   28CHL1   H7A 2010   6.317   5.411   5.708  0.0428 -0.5869 -0.8801
   28CHL1   H7B 2011   6.237   5.566   5.747 -0.3892 -1.0051  0.7257
   28CHL1    C8 2012   6.465   5.562   5.727 -0.0022  0.5645 -0.4535
   28CHL1    H8 2013   6.536   5.477   5.717 -1.2034 -0.3596 -1.6524
   28CHL1   C14 2014   6.461   5.627   5.589 -0.0310 -0.6171 -0.0444
   28CHL1   H14 2015   6.391   5.713   5.597 -0.1450 -0.6847 -0.3021
   28CHL1   C15 2016   6.407   5.542   5.467  1.0216 -0.4488 -0.1588
   28CHL1  H15A 2017   6.438   5.436   5.473 -0.2288 -0.8569 -0.5536
   28CHL1  H15B 2018   6.296   5.545   5.476  0.9988  1.8858 -0.3743
   28CHL1   C16 2019   6.462   5.619   5.338  0.2549 -0.5282 -0.3856
   28CHL1  H16A 2020   6.514   5.536   5.285  3.2024 -0.4038  2.0151
   28CHL1  H16B 2021   6.387   5.671   5.275 -0.7525 -1.7859 -0.2727
   28CHL1   C17 2022   6.573   5.716   5.390  0.5776  0.0421 -0.2489
   28CHL1   H17 2023   6.525   5.815   5.402 -1.5708 -1.2578  3.9569
   28CHL1   C13 2024   6.593   5.680   5.543 -0.1143 -1.0906  1.2117
   28CHL1   C18 2025   6.709   5.574   5.539 -0.3985 -0.4074  0.1451
   28CHL1  H18A 2026   6.714   5.528   5.640 -0.7747 -0.0329  0.3375
   28CHL1  H18B 2027   6.682   5.494   5.466 -0.1397  1.4672 -2.1173
   28CHL1  H18C 2028   6.810   5.603   5.504 -0.7909 -0.5886 -1.1769
   28CHL1   C12 2029   6.619   5.796   5.634  0.0465  0.0251  0.4534
   28CHL1  H12A 2030   6.720   5.831   5.605  0.8135 -1.3228  1.4015
   28CHL1  H12B 2031   6.544   5.874   5.609  0.8812  0.5533 -0.4735
   28CHL1   C11 2032   6.630   5.752   5.777 -0.4541  0.2891 -0.3468
   28CHL1  H11A 2033   6.731   5.711   5.796  0.3680  1.8086 -1.2502
   28CHL1  H11B 2034   6.643   5.838   5.846 -1.3489 -0.5710  0.9222
   28CHL1    C9 2035   6.517   5.659   5.832 -1.1037  0.0140  0.4174
   28CHL1    H9 2036   6.429   5.727   5.836 -0.3932  0.9207  1.1048
   28CHL1   C10 2037   6.536   5.597   5.970 -0.2878 -0.0702 -0.1769
   28CHL1   C19 2038   6.675   5.521   5.978  0.6111  0.5123 -0.3465
   28CHL1  H19A 2039   6.757   5.593   5.959 -0.2378  1.4142 -0.6712
   28CHL1  H19B 2040   6.689   5.484   6.082 -1.9686 -1.0001 -0.4484
   28CHL1  H19C 2041   6.680   5.424   5.925 -0.4033 -0.4751  1.2611
   28CHL1    C1 2042   6.541   5.713   6.077  0.5800  0.9428 -0.0815
   28CHL1   H1A 2043   6.618   5.791   6.058  0.6193  0.8003 -0.5098
   28CHL1   H1B 2044   6.449   5.775   6.069  0.3988  0.8130  0.8719
   28CHL1    C2 2045   6.544   5.666   6.227 -0.3316 -0.5339  0.3031
   28CHL1   H2A 2046   6.559   5.745   6.303 -1.7047 -0.5052  0.5748
   28CHL1   H2B 2047   6.636   5.605   6.238 -0.8648 -1.2106  1.2359
   28CHL1   C20 2048   6.678   5.736   5.294 -0.0250 -0.3776 -0.5331
   28CHL1   H20 2049   6.736   5.644   5.270  0.0214 -0.5298  0.1411
   28CHL1   C21 2050   6.793   5.834   5.338 -0.6235 -0.0815  0.2972
   28CHL1  H21A 2051   6.836   5.790   5.430 -2.4222 -1.0388  0.7322
   28CHL1  H21B 2052   6.748   5.929   5.374 -0.5624  0.7182 -1.6207
   28CHL1  H21C 2053   6.863   5.853   5.254  0.0028 -1.9614  0.3422
   28CHL1   C22 2054   6.638   5.775   5.148 -0.2530  0.0057  0.1569
   28CHL1  H22A 2055   6.729   5.785   5.084  0.0009 -1.3028  0.2706
   28CHL1  H22B 2056   6.571   5.697   5.106  0.0464  0.4167 -1.1585
   28CHL1   C23 2057   6.570   5.912   5.118  0.6368  0.5174 -0.8939
   28CHL1  H23A 2058   6.504   5.930   5.205  1.3140 -0.6472 -0.1153
   28CHL1  H23B 2059   6.653   5.984   5.108  2.7380 -1.3725  1.5708
   28CHL1   C24 2060   6.487   5.917   4.984 -0.4752 -0.4461  0.5873
   28CHL1  H24A 2061   6.554   5.895   4.898 -0.0447  2.4979  0.0628
   28CHL1  H24B 2062   6.393   5.858   4.988  0.0123 -1.1769  2.1212
   28CHL1   C25 2063   6.434   6.062   4.953  1.1652  0.6739  0.1363
   28CHL1   H25 2064   6.342   6.047   4.893  0.0681 -0.4788  2.0217
   28CHL1   C26 2065   6.395   6.139   5.076 -0.5437  0.2564  0.3788
   28CHL1  H26A 2066   6.481   6.162   5.143 -1.3674  0.7185  1.2958
   28CHL1  H26B 2067   6.347   6.237   5.054  0.6707  0.5767 -1.0680
   28CHL1  H26C 2068   6.328   6.073   5.134 -0.9990 -0.9101 -1.3926
   28CHL1   C27 2069   6.537   6.153   4.884  0.5918 -0.1140 -0.4277
   28CHL1  H27A 2070   6.502   6.257   4.865  2.4920  0.4660 -0.9667
   28CHL1  H27B 2071   6.637   6.154   4.932 -0.0148 -0.7746  0.9353
   28CHL1  H27C 2072   6.547   6.109   4.783  1.9171 -0.6465 -0.0831
   29CHL1    C3 2073   0.623   6.585   3.230  0.1324  0.0778  0.2865
   29CHL1    H3 2074   0.717   6.621   3.278  0.2177 -1.0440  1.0135
   29CHL1    O3 2075   0.630   6.567   3.090 -0.3863  0.7015 -0.1397
   29CHL1   H3' 2076   0.671   6.481   3.081 -0.1602  0.6730  0.9656
   29CHL1    C4 2077   0.590   6.457   3.299  0.0123  0.2061  0.1308
   29CHL1   H4A 2078   0.490   6.431   3.257  0.3452 -0.4807 -0.2452
   29CHL1   H4B 2079   0.666   6.384   3.264 -0.8542 -0.8955  0.4906
   29CHL1    C5 2080   0.570   6.462   3.449  0.4363 -0.1704  0.3330
   29CHL1    C6 2081   0.638   6.386   3.543  0.2262  0.2068 -0.0093
   29CHL1    H6 2082   0.697   6.301   3.507 -0.8732 -0.4842 -0.2137
   29CHL1    C7 2083   0.612   6.398   3.692 -0.9220 -0.3178 -0.3450
   29CHL1   H7A 2084   0.594   6.293   3.722  1.9746 -1.6775 -2.9040
   29CHL1   H7B 2085   0.704   6.430   3.746 -1.7794 -0.1450  1.0703
   29CHL1    C8 2086   0.497   6.485   3.733  0.0827 -0.4310  0.2985
   29CHL1    H8 2087   0.402   6.428   3.723 -0.5221  0.5120  0.5039
   29CHL1   C14 2088   0.512   6.528   3.880  0.8034 -0.1367  0.3690
   29CHL1   H14 2089   0.606   6.587   3.883  0.8797  0.0321 -2.3678
   29CHL1   C15 2090   0.529   6.414   3.989 -0.1917  0.7327  0.1292
   29CHL1  H15A 2091   0.468   6.324   3.966 -0.6532  1.6756 -2.7579
   29CHL1  H15B 2092   0.635   6.382   4.003 -0.3107  1.3251  2.8165
   29CHL1   C16 2093   0.477   6.476   4.119  1.3216 -0.3799 -0.2557
   29CHL1  H16A 2094   0.393   6.423   4.170  1.8239 -0.7793  0.1653
   29CHL1  H16B 2095   0.555   6.497   4.195  0.6367 -0.0918  0.3875
   29CHL1   C17 2096   0.414   6.619   4.073 -0.1602 -0.2361 -0.4463
   29CHL1   H17 2097   0.500   6.690   4.073 -0.7290  0.5359  1.8272
   29CHL1   C13 2098   0.387   6.601   3.923  0.2017 -0.1432 -0.6391
   29CHL1   C18 2099   0.255   6.522   3.914 -0.2179  0.4322  0.4831
   29CHL1  H18A 2100   0.233   6.495   3.808 -0.9758 -0.6346  0.9031
   29CHL1  H18B 2101   0.267   6.425   3.966 -1.5023 -0.7021 -1.2300
   29CHL1  H18C 2102   0.161   6.570   3.950 -0.4942  1.6151 -1.6120
   29CHL1   C12 2103   0.369   6.728   3.838 -0.4275 -0.3662 -0.1722
   29CHL1  H12A 2104   0.274   6.777   3.868 -0.6777 -0.5996 -0.5632
   29CHL1  H12B 2105   0.451   6.798   3.863  0.5837 -2.5391  3.2280
   29CHL1   C11 2106   0.370   6.703   3.690  0.6754  1.1282 -0.1583
   29CHL1  H11A 2107   0.268   6.675   3.656  0.7053 -1.5760  1.6333
   29CHL1  H11B 2108   0.397   6.797   3.637  2.2249  1.2410  0.7556
   29CHL1    C9 2109   0.480   6.609   3.642 -1.5685  0.5114  0.5763
   29CHL1    H9 2110   0.578   6.660   3.653 -0.8630 -0.5384 -0.6159
   29CHL1   C10 2111   0.473   6.578   3.490  0.3210 -0.3345 -0.5114
   29CHL1   C19 2112   0.334   6.523   3.461  0.0815 -0.2498  0.7839
   29CHL1  H19A 2113   0.330   6.477   3.360  1.1915  1.4822 -0.0913
   29CHL1  H19B 2114   0.323   6.447   3.541  1.2896 -1.4030 -0.1041
   29CHL1  H19C 2115   0.252   6.597   3.476 -0.9076 -1.0831 -0.3223
   29CHL1    C1 2116   0.496   6.706   3.412 -0.3761 -0.1891 -0.5298
   29CHL1   H1A 2117   0.407   6.772   3.416  0.0845  0.5099 -1.4371
   29CHL1   H1B 2118   0.586   6.751   3.460  0.5640 -1.8575 -0.6495
   29CHL1    C2 2119   0.522   6.688   3.261  0.1039  0.1410 -0.1712
   29CHL1   H2A 2120   0.544   6.791   3.224 -0.3888  1.0859  1.9720
   29CHL1   H2B 2121   0.426   6.658   3.213 -0.5808  0.7792  0.7437
   29CHL1   C20 2122   0.303   6.691   4.165 -1.3341  0.0957 -0.2127
   29CHL1   H20 2123   0.224   6.718   4.092 -1.6078 -0.7155 -0.2169
   29CHL1   C21 2124   0.379   6.815   4.215 -0.1376  0.5426 -0.2569
   29CHL1  H21A 2125   0.458   6.779   4.284 -0.9220 -1.1959 -0.2274
   29CHL1  H21B 2126   0.304   6.870   4.276 -2.7309 -2.7364 -0.1938
   29CHL1  H21C 2127   0.425   6.872   4.132  1.5218  0.7693  0.7687
   29CHL1   C22 2128   0.256   6.612   4.290 -0.0484 -0.1521  0.1540
   29CHL1  H22A 2129   0.214   6.514   4.258 -1.1230  0.3703 -0.0850
   29CHL1  H22B 2130   0.337   6.574   4.356  0.0357 -2.3570 -1.0927
   29CHL1   C23 2131   0.145   6.676   4.371  0.5665 -0.5869 -0.9734
   29CHL1  H23A 2132   0.156   6.784   4.394  1.3831 -0.5517 -1.4811
   29CHL1  H23B 2133   0.052   6.672   4.311 -0.0241 -3.8015 -0.0199
   29CHL1   C24 2134   0.125   6.592   4.504  0.1661  0.8099  0.1354
   29CHL1  H24A 2135   0.085   6.491   4.482 -1.5603  1.2569  1.0826
   29CHL1  H24B 2136   0.224   6.581   4.553  0.6433 -4.3746 -1.3784
   29CHL1   C25 2137   0.047   6.678   4.607 -0.8038  0.0777 -0.4945
   29CHL1   H25 2138   0.097   6.777   4.612  3.0612 -1.6463 -1.0789
   29CHL1   C26 2139  -0.101   6.687   4.579  0.0794 -0.0251 -0.3244
   29CHL1  H26A 2140  -0.166   6.700   4.669 -0.1713 -0.5520 -0.4303
   29CHL1  H26B 2141  -0.105   6.769   4.504  0.1922 -1.5725 -2.0829
   29CHL1  H26C 2142  -0.137   6.590   4.539  1.0989 -0.5289 -0.0459
   29CHL1   C27 2143   0.064   6.629   4.754 -0.9560 -0.1178 -0.3063
   29CHL1  H27A 2144   0.030   6.524   4.764  0.2269 -0.5102 -0.3001
   29CHL1  H27B 2145   0.171   6.637   4.781 -1.2598  2.5005  0.4289
   29CHL1  H27C 2146   0.004   6.693   4.823 -1.3699 -1.0589  0.2268
   30CHL1    C3 2147   1.471   1.583   2.884  0.7624  0.7128 -0.3862
   30CHL1    H3 2148   1.541   1.505   2.920 -3.0723 -1.6220  2.7987
   30CHL1    O3 2149   1.461   1.584   2.742 -0.2060  0.8364  0.5660
   30CHL1   H3' 2150   1.410   1.661   2.717  0.3659  0.9706 -0.2110
   30CHL1    C4 2151   1.330   1.544   2.932 -0.2182  0.2590 -0.6521
   30CHL1   H4A 2152   1.260   1.625   2.901 -0.0535  2.1930  3.3339
   30CHL1   H4B 2153   1.307   1.441   2.898 -1.3965  0.1210  0.4593
   30CHL1    C5 2154   1.341   1.540   3.082 -0.8288 -0.3079  0.5138
   30CHL1    C6 2155   1.312   1.430   3.149 -0.9102 -0.2335  0.0519
   30CHL1    H6 2156   1.295   1.336   3.095  0.4287 -0.3434 -0.2098
   30CHL1    C7 2157   1.305   1.413   3.295 -0.8556 -0.1550  0.0296
   30CHL1   H7A 2158   1.211   1.362   3.324 -1.2534  1.8123  2.4591
   30CHL1   H7B 2159   1.388   1.348   3.329 -0.0840  1.0647  0.5279
   30CHL1    C8 2160   1.320   1.547   3.370  0.2315  0.2484 -0.2158
   30CHL1    H8 2161   1.219   1.593   3.356  0.1133  0.2158  0.4816
   30CHL1   C14 2162   1.355   1.520   3.519  0.3584  0.3213 -0.0994
   30CHL1   H14 2163   1.457   1.476   3.514  0.1576 -0.0503 -1.2947
   30CHL1   C15 2164   1.260   1.429   3.592  0.3550  0.0459  0.9479
   30CHL1  H15A 2165   1.152   1.450   3.577  0.5457  0.5240  0.1728
   30CHL1  H15B 2166   1.289   1.324   3.571 -1.0478 -0.1215 -0.2772
   30CHL1   C16 2167   1.304   1.454   3.739  0.3091 -0.3036  0.7831
   30CHL1  H16A 2168   1.206   1.464   3.789  1.4402 -2.0765  3.6190
   30CHL1  H16B 2169   1.362   1.373   3.789  0.3030 -0.0973  1.1248
   30CHL1   C17 2170   1.387   1.589   3.740 -0.0249  0.4218  0.0504
   30CHL1   H17 2171   1.493   1.556   3.728  0.4723  1.6269  1.0098
   30CHL1   C13 2172   1.358   1.649   3.595  0.6051  0.3804 -0.9324
   30CHL1   C18 2173   1.224   1.721   3.604  0.0709  0.0182 -0.0520
   30CHL1  H18A 2174   1.225   1.806   3.676  1.0175  0.1821 -0.2477
   30CHL1  H18B 2175   1.190   1.761   3.506 -1.0861  0.4153  0.4893
   30CHL1  H18C 2176   1.139   1.669   3.653  0.0810  0.6846  0.6850
   30CHL1   C12 2177   1.466   1.738   3.530  0.1819  0.2449 -0.4425
   30CHL1  H12A 2178   1.473   1.834   3.586 -1.9486  1.1553 -1.6146
   30CHL1  H12B 2179   1.556   1.675   3.547 -0.8878 -1.2365 -0.0858
   30CHL1   C11 2180   1.452   1.764   3.380  0.2218  0.1552 -0.4386
   30CHL1  H11A 2181   1.356   1.819   3.376  0.1292  0.0566  0.3110
   30CHL1  H11B 2182   1.533   1.829   3.342 -0.2045 -0.1917 -2.0329
   30CHL1    C9 2183   1.431   1.639   3.296  0.4910 -0.0177 -0.8457
   30CHL1    H9 2184   1.518   1.570   3.298 -1.4224 -2.5939 -0.0911
   30CHL1   C10 2185   1.392   1.668   3.150 -0.1048 -0.4327 -0.3469
   30CHL1   C19 2186   1.280   1.777   3.135 -0.8298 -0.0613 -0.5484
   30CHL1  H19A 2187   1.186   1.753   3.189 -0.3990 -0.9851 -0.1955
   30CHL1  H19B 2188   1.324   1.870   3.177  2.9521 -0.7277 -2.6361
   30CHL1  H19C 2189   1.253   1.805   3.031 -1.6177  1.6766  0.0713
   30CHL1    C1 2190   1.519   1.728   3.080 -0.2263  1.2111 -0.0497
   30CHL1   H1A 2191   1.540   1.830   3.119 -0.2191  0.9467  0.6518
   30CHL1   H1B 2192   1.604   1.664   3.111 -2.1257 -1.6835 -0.4368
   30CHL1    C2 2193   1.508   1.723   2.929  0.2079  0.3832 -0.2022
   30CHL1   H2A 2194   1.604   1.755   2.881  0.1687  2.3114  0.9086
   30CHL1   H2B 2195   1.433   1.797   2.895  0.1054  0.6397  0.5692
   30CHL1   C20 2196   1.371   1.674   3.861  0.1410  0.5532  0.1620
   30CHL1   H20 2197   1.268   1.711   3.876  0.4416  1.2867  0.4779
   30CHL1   C21 2198   1.450   1.810   3.856 -0.4342  1.0778  0.2360
   30CHL1  H21A 2199   1.464   1.861   3.954  2.0259  1.1976 -0.1190
   30CHL1  H21B 2200   1.401   1.882   3.788  0.1810  1.3406  0.0684
   30CHL1  H21C 2201   1.555   1.798   3.822 -0.7347  1.8418 -1.0175
   30CHL1   C22 2202   1.409   1.597   3.996 -0.3453 -0.0110  0.4127
   30CHL1  H22A 2203   1.352   1.503   4.013  1.3473 -1.3643 -1.0710
   30CHL1  H22B 2204   1.520   1.591   3.997 -0.3634 -0.4385  0.2210
   30CHL1   C23 2205   1.378   1.680   4.127 -0.1731  0.4387  0.5969
   30CHL1  H23A 2206   1.452   1.760   4.148  0.7196 -0.5803  1.4509
   30CHL1  H23B 2207   1.283   1.736   4.122  1.4600  3.3482 -0.9323
   30CHL1   C24 2208   1.382   1.590   4.253 -0.5785 -0.6367 -0.0230
   30CHL1  H24A 2209   1.321   1.500   4.233 -0.9228 -0.4410  0.1258
   30CHL1  H24B 2210   1.489   1.563   4.267 -0.1222  1.8148  2.0650
   30CHL1   C25 2211   1.348   1.659   4.389 -0.4168 -0.1952  0.3853
   30CHL1   H25 2212   1.237   1.665   4.385 -0.3644  0.2019 -0.7685
   30CHL1   C26 2213   1.398   1.585   4.506  0.3920 -0.2437 -0.0107
   30CHL1  H26A 2214   1.343   1.488   4.500  1.0593 -0.5506 -1.7241
   30CHL1  H26B 2215   1.505   1.558   4.510  0.8938  1.4595 -1.2025
   30CHL1  H26C 2216   1.379   1.626   4.608  0.7976 -1.5413  0.6186
   30CHL1   C27 2217   1.406   1.800   4.398  0.7177 -0.5073  0.2117
   30CHL1  H27A 2218   1.363   1.877   4.330 -1.4656 -0.6568  1.3051
   30CHL1  H27B 2219   1.379   1.838   4.499  1.6474 -0.9549  0.6406
   30CHL1  H27C 2220   1.516   1.803   4.386  0.7671  2.0713  0.7326
   31CHL1    C3 2221   6.612   2.246   3.441 -1.0583  0.4850  0.5641
   31CHL1    H3 2222   6.598   2.155   3.503 -1.0404 -0.3297 -0.6024
   31CHL1    O3 2223   6.586   2.228   3.302  0.1925 -0.1243 -0.2937
   31CHL1   H3' 2224   6.581   2.315   3.261  0.0065 -1.0574 -2.3805
   31CHL1    C4 2225   6.524   2.368   3.485  0.0934 -0.2003  0.2496
   31CHL1   H4A 2226   6.558   2.457   3.428  0.6866 -1.5932 -1.7170
   31CHL1   H4B 2227   6.420   2.347   3.453 -0.0659  2.8551 -1.6605
   31CHL1    C5 2228   6.549   2.401   3.628 -0.5903 -0.2528 -0.5149
   31CHL1    C6 2229   6.446   2.396   3.712  0.1495 -0.0727  0.4061
   31CHL1    H6 2230   6.349   2.357   3.677  0.0387  1.2573 -0.8106
   31CHL1    C7 2231   6.474   2.419   3.859 -0.1936  0.7055 -0.0466
   31CHL1   H7A 2232   6.403   2.481   3.917  2.4167  1.9870  1.9965
   31CHL1   H7B 2233   6.478   2.323   3.914 -1.2133 -0.8703 -2.5647
   31CHL1    C8 2234   6.610   2.476   3.903 -0.0721 -0.5640  0.5971
   31CHL1    H8 2235   6.609   2.587   3.901 -0.6978 -0.4640  2.9675
   31CHL1   C14 2236   6.647   2.439   4.053  0.1128 -0.7327 -0.0092
   31CHL1   H14 2237   6.652   2.328   4.053  0.0356 -0.7459 -1.1645
   31CHL1   C15 2238   6.532   2.475   4.151 -0.0584  0.4737  0.1944
   31CHL1  H15A 2239   6.493   2.575   4.124 -1.0155  0.0593  0.0087
   31CHL1  H15B 2240   6.447   2.404   4.139 -0.2625  0.8779 -0.8275
   31CHL1   C16 2241   6.605   2.472   4.290 -0.3612 -0.3416 -0.0572
   31CHL1  H16A 2242   6.577   2.562   4.350 -2.4450  0.9983 -2.7719
   31CHL1  H16B 2243   6.568   2.386   4.351 -3.3777  2.2324  2.1036
   31CHL1   C17 2244   6.760   2.464   4.260 -0.3121  0.3915  0.5120
   31CHL1   H17 2245   6.785   2.356   4.258  0.0968  0.4827  0.5289
   31CHL1   C13 2246   6.770   2.502   4.110 -0.2325 -0.0611 -0.1719
   31CHL1   C18 2247   6.761   2.653   4.094 -0.4089  0.5224  0.1563
   31CHL1  H18A 2248   6.843   2.704   4.149  1.3130  0.7884 -2.4662
   31CHL1  H18B 2249   6.789   2.684   3.991 -1.6858 -0.8675 -0.6327
   31CHL1  H18C 2250   6.677   2.707   4.143 -0.7520  1.3619 -1.2951
   31CHL1   C12 2251   6.880   2.437   4.022 -0.1463  0.4436  0.0651
   31CHL1  H12A 2252   6.988   2.458   4.038  0.2093 -1.9070  1.1534
   31CHL1  H12B 2253   6.872   2.328   4.040 -2.3207  0.6605  0.7717
   31CHL1   C11 2254   6.856   2.457   3.872 -0.0833 -0.9883  0.2682
   31CHL1  H11A 2255   6.872   2.565   3.852 -1.8706 -0.3345  2.0278
   31CHL1  H11B 2256   6.939   2.406   3.817  0.3121 -0.5209  0.4250
   31CHL1    C9 2257   6.717   2.412   3.820 -0.2344  0.0380 -0.1788
   31CHL1    H9 2258   6.708   2.303   3.842 -1.6161  0.1459 -0.1092
   31CHL1   C10 2259   6.698   2.422   3.666 -0.6986 -0.2973  0.3193
   31CHL1   C19 2260   6.736   2.568   3.616  0.1604  0.4069 -0.5330
   31CHL1  H19A 2261   6.676   2.651   3.660  1.5286  0.6928  0.8662
   31CHL1  H19B 2262   6.839   2.591   3.651  1.3511 -0.8884 -2.9566
   31CHL1  H19C 2263   6.730   2.565   3.505 -2.9143 -0.9386 -0.4444
   31CHL1    C1 2264   6.789   2.318   3.600  0.1527 -0.2766  0.1437
   31CHL1   H1A 2265   6.896   2.348   3.605 -0.1574  0.9430 -0.2179
   31CHL1   H1B 2266   6.784   2.227   3.664  0.8432  1.1060  2.2668
   31CHL1    C2 2267   6.766   2.284   3.453  0.9357 -0.7197  0.4005
   31CHL1   H2A 2268   6.837   2.209   3.412 -0.1876 -0.9238 -1.2897
   31CHL1   H2B 2269   6.779   2.379   3.397  1.2051 -0.5495  0.7527
   31CHL1   C20 2270   6.850   2.531   4.358  0.4842  0.1999  0.0030
   31CHL1   H20 2271   6.817   2.637   4.362 -1.0113 -0.2132 -0.7049
   31CHL1   C21 2272   6.998   2.526   4.309 -0.0820  0.1677 -0.0131
   31CHL1  H21A 2273   7.065   2.583   4.376  2.1028 -1.2477 -0.8742
   31CHL1  H21B 2274   7.014   2.579   4.212  1.6796 -0.6909 -0.2136
   31CHL1  H21C 2275   7.039   2.423   4.301  1.8400  1.0324 -2.2657
   31CHL1   C22 2276   6.837   2.478   4.507 -0.3396  0.0314  0.4820
   31CHL1  H22A 2277   6.892   2.545   4.576 -0.5358 -0.9756  1.6553
   31CHL1  H22B 2278   6.735   2.493   4.548  0.1581 -0.4872  1.9720
   31CHL1   C23 2279   6.895   2.337   4.524 -0.1186 -0.2786  0.7231
   31CHL1  H23A 2280   6.922   2.291   4.427  0.8440 -0.5223  1.0946
   31CHL1  H23B 2281   6.994   2.335   4.574  0.1470 -0.2547  0.2018
   31CHL1   C24 2282   6.797   2.241   4.604 -0.4149  0.2743 -0.3680
   31CHL1  H24A 2283   6.706   2.305   4.612  1.2486  2.6937  0.4964
   31CHL1  H24B 2284   6.777   2.147   4.548  1.0002 -0.1321 -0.2522
   31CHL1   C25 2285   6.842   2.203   4.742 -0.0154 -0.2142 -0.5083
   31CHL1   H25 2286   6.853   2.296   4.801 -0.3541 -1.9342  2.4846
   31CHL1   C26 2287   6.734   2.121   4.814 -0.5440 -0.4301  0.4176
   31CHL1  H26A 2288   6.725   2.027   4.755 -2.2500  0.9186 -1.6267
   31CHL1  H26B 2289   6.773   2.100   4.916  0.3553 -1.7612 -0.1688
   31CHL1  H26C 2290   6.643   2.184   4.807  0.8805  1.5236 -3.3251
   31CHL1   C27 2291   6.974   2.118   4.745  0.3137  0.0177  0.0902
   31CHL1  H27A 2292   7.051   2.173   4.686 -0.2158 -0.5768 -1.1788
   31CHL1  H27B 2293   7.004   2.099   4.850 -0.8070  0.0070  0.4188
   31CHL1  H27C 2294   6.959   2.023   4.689 -0.8264  1.0700 -1.4721
   32CHL1    C3 2295   1.079   0.204   3.094  0.0291  0.1258 -0.2819
   32CHL1    H3 2296   1.136   0.298   3.108  1.1571 -0.4480 -0.8628
   32CHL1    O3 2297   1.100   0.161   2.961  0.5847 -0.4930 -0.2172
   32CHL1   H3' 2298   1.168   0.094   2.968  2.1488  0.9733 -0.8198
   32CHL1    C4 2299   1.129   0.096   3.191  0.0352  0.8336 -0.4604
   32CHL1   H4A 2300   1.098  -0.001   3.145 -1.9149  1.4524 -0.5304
   32CHL1   H4B 2301   1.239   0.109   3.193 -0.1184  2.3015 -0.6109
   32CHL1    C5 2302   1.079   0.099   3.331  0.8242  0.2644 -0.4569
   32CHL1    C6 2303   1.171   0.082   3.424  0.0973  0.2719 -0.5784
   32CHL1    H6 2304   1.276   0.073   3.392 -0.1844  0.6982 -1.6856
   32CHL1    C7 2305   1.138   0.095   3.574  0.1794 -0.5287 -1.0644
   32CHL1   H7A 2306   1.187   0.012   3.630  0.6377  1.7948  2.2250
   32CHL1   H7B 2307   1.193   0.184   3.609 -2.0823  1.3176 -1.9336
   32CHL1    C8 2308   0.982   0.098   3.614  0.2210  0.1272 -0.1078
   32CHL1    H8 2309   0.957  -0.008   3.596  0.0959  0.5353 -2.5723
   32CHL1   C14 2310   0.955   0.137   3.755  0.1914 -0.1481 -0.4560
   32CHL1   H14 2311   0.982   0.245   3.760  0.5262 -0.3085  2.3963
   32CHL1   C15 2312   1.030   0.067   3.871  0.5576 -0.0509  0.1172
   32CHL1  H15A 2313   1.026  -0.043   3.858  0.4123 -0.0494  0.1473
   32CHL1  H15B 2314   1.135   0.102   3.884  0.2579  1.7911 -1.8391
   32CHL1   C16 2315   0.943   0.100   3.991  0.3279 -0.0508 -0.7199
   32CHL1  H16A 2316   0.909   0.003   4.033  3.7229 -0.5873  1.1329
   32CHL1  H16B 2317   1.001   0.146   4.074 -0.0013 -1.1487  0.1417
   32CHL1   C17 2318   0.826   0.186   3.940  0.2967 -0.2545  0.3064
   32CHL1   H17 2319   0.860   0.292   3.943 -3.6114  1.2803 -2.0576
   32CHL1   C13 2320   0.809   0.148   3.791 -0.3065  0.9424  0.7788
   32CHL1   C18 2321   0.754   0.000   3.777  0.6975 -0.4373  0.8707
   32CHL1  H18A 2322   0.768  -0.032   3.672  0.8821 -0.6826  0.9675
   32CHL1  H18B 2323   0.808  -0.073   3.841  1.2803 -0.2292  0.6211
   32CHL1  H18C 2324   0.644  -0.005   3.790  0.7520 -2.3017  0.9072
   32CHL1   C12 2325   0.745   0.249   3.700  0.1828 -0.0277  1.0186
   32CHL1  H12A 2326   0.635   0.255   3.713  0.2287  1.0121  1.0217
   32CHL1  H12B 2327   0.785   0.352   3.713  1.3620 -0.3255 -0.0301
   32CHL1   C11 2328   0.761   0.205   3.551 -0.4376 -0.3966  0.6343
   32CHL1  H11A 2329   0.704   0.111   3.536 -1.0656 -0.0271  0.6796
   32CHL1  H11B 2330   0.713   0.274   3.478 -0.9941 -0.9534  0.4629
   32CHL1    C9 2331   0.909   0.182   3.513 -0.2401  0.4037  0.3601
   32CHL1    H9 2332   0.949   0.285   3.514  0.4275  0.1450  1.8823
   32CHL1   C10 2333   0.934   0.144   3.355 -0.0101 -0.4465 -0.0478
   32CHL1   C19 2334   0.853   0.010   3.329  0.1371  0.3530 -0.4856
   32CHL1  H19A 2335   0.848  -0.075   3.400 -0.9595 -0.4436 -1.4750
   32CHL1  H19B 2336   0.752   0.055   3.320  0.4237  0.7721 -1.8987
   32CHL1  H19C 2337   0.873  -0.039   3.231  2.2992 -1.5123  0.7826
   32CHL1    C1 2338   0.886   0.255   3.256 -0.3560 -0.0308 -0.2188
   32CHL1   H1A 2339   0.777   0.276   3.261 -0.3644  0.6272 -2.4450
   32CHL1   H1B 2340   0.936   0.346   3.295  1.4265 -1.4400  0.9849
   32CHL1    C2 2341   0.931   0.233   3.116  0.1526  0.0883  0.8408
   32CHL1   H2A 2342   0.909   0.322   3.053 -1.1714 -2.0691 -1.9548
   32CHL1   H2B 2343   0.874   0.148   3.074 -2.7033  1.7548  1.1263
   32CHL1   C20 2344   0.700   0.173   4.026 -0.5118  0.1401 -0.3747
   32CHL1   H20 2345   0.661   0.069   4.029 -0.0592 -0.0710 -1.2560
   32CHL1   C21 2346   0.599   0.284   3.986  0.4712  0.3841  0.1737
   32CHL1  H21A 2347   0.653   0.381   3.992 -0.6340  0.9986  0.4227
   32CHL1  H21B 2348   0.517   0.288   4.061 -3.0487 -0.3714 -3.3046
   32CHL1  H21C 2349   0.554   0.273   3.885  0.8090  0.7122 -0.0140
   32CHL1   C22 2350   0.722   0.196   4.177  0.4639  0.6699 -0.7918
   32CHL1  H22A 2351   0.622   0.189   4.225  0.8372 -0.2546 -0.1444
   32CHL1  H22B 2352   0.781   0.113   4.220 -0.5853  0.5740  0.5106
   32CHL1   C23 2353   0.789   0.329   4.212 -0.3430  0.4423 -0.6708
   32CHL1  H23A 2354   0.875   0.348   4.146  1.0198  0.4022  1.0191
   32CHL1  H23B 2355   0.723   0.416   4.189 -0.4130  0.2231 -1.3072
   32CHL1   C24 2356   0.827   0.327   4.366 -0.1041 -0.0348 -0.0261
   32CHL1  H24A 2357   0.745   0.296   4.433  0.0639  0.0003  0.1971
   32CHL1  H24B 2358   0.911   0.255   4.383 -1.0968 -0.8741  1.5466
   32CHL1   C25 2359   0.887   0.454   4.412  0.3582 -0.0568 -0.5573
   32CHL1   H25 2360   0.830   0.544   4.380  1.7423  1.6606  1.6244
   32CHL1   C26 2361   0.864   0.459   4.569  0.1635 -0.2844  0.3371
   32CHL1  H26A 2362   0.764   0.425   4.604  0.4921  0.7447  2.5015
   32CHL1  H26B 2363   0.948   0.408   4.622  2.2751  1.7422 -0.8837
   32CHL1  H26C 2364   0.871   0.568   4.592  0.2178  0.4274 -2.7084
   32CHL1   C27 2365   1.038   0.467   4.386 -0.3187 -0.9159  0.2046
   32CHL1  H27A 2366   1.063   0.564   4.433 -0.3804 -0.3800 -0.8438
   32CHL1  H27B 2367   1.107   0.387   4.422  0.5396 -0.9021 -1.3216
   32CHL1  H27C 2368   1.049   0.463   4.276  0.1027 -1.3638  0.2577
   33CHL1    C3 2369   6.848   0.100   3.183  0.3928 -0.3484 -0.6144
   33CHL1    H3 2370   6.928   0.130   3.255  0.7131 -2.4259 -0.0439
   33CHL1    O3 2371   6.888   0.113   3.045  0.3633 -0.0923 -0.1702
   33CHL1   H3' 2372   6.834   0.052   2.995  0.1323  0.0280 -0.0669
   33CHL1    C4 2373   6.808  -0.038   3.220 -0.4817  0.0363  0.5029
   33CHL1   H4A 2374   6.726  -0.063   3.150 -0.5248 -1.7122  1.1175
   33CHL1   H4B 2375   6.896  -0.105   3.203 -0.6130 -0.2052  0.7575
   33CHL1    C5 2376   6.762  -0.045   3.369  0.1629 -0.3061  0.0859
   33CHL1    C6 2377   6.823  -0.118   3.460  0.1287 -0.0676  0.0831
   33CHL1    H6 2378   6.916  -0.172   3.437  0.1774 -0.2784  0.7398
   33CHL1    C7 2379   6.783  -0.114   3.604  0.3270  0.1569  0.0855
   33CHL1   H7A 2380   6.793  -0.213   3.654  1.1991  0.4992  0.6210
   33CHL1   H7B 2381   6.853  -0.048   3.660  0.8964  0.1968 -0.6594
   33CHL1    C8 2382   6.647  -0.055   3.632  0.4653  0.1331  0.7376
   33CHL1    H8 2383   6.574  -0.133   3.601 -0.5053  0.1741  2.7900
   33CHL1   C14 2384   6.630  -0.028   3.784  0.4487 -0.2666 -0.4955
   33CHL1   H14 2385   6.708   0.049   3.803  2.5307 -1.9003 -1.9115
   33CHL1   C15 2386   6.661  -0.140   3.884  0.7645  0.1829  0.5333
   33CHL1  H15A 2387   6.640  -0.238   3.837  2.5521  0.3322 -0.6872
   33CHL1  H15B 2388   6.769  -0.143   3.910  0.6501  0.4292  1.0564
   33CHL1   C16 2389   6.577  -0.096   4.005 -0.5699  0.1967 -0.3255
   33CHL1  H16A 2390   6.512  -0.183   4.027  1.8320 -1.3950  0.9094
   33CHL1  H16B 2391   6.648  -0.066   4.085 -0.3751  0.4624 -0.5967
   33CHL1   C17 2392   6.496   0.026   3.972  0.4146 -0.2672  0.1279
   33CHL1   H17 2393   6.555   0.118   3.994 -0.6776  1.1588 -2.4477
   33CHL1   C13 2394   6.486   0.024   3.811 -0.6896 -0.9514 -0.2892
   33CHL1   C18 2395   6.371  -0.069   3.773  0.0049  0.3791  0.2853
   33CHL1  H18A 2396   6.358  -0.077   3.663  0.3275  2.0763  0.1037
   33CHL1  H18B 2397   6.376  -0.171   3.817  0.2499 -0.3054 -1.2398
   33CHL1  H18C 2398   6.271  -0.036   3.808 -1.3616 -0.7907 -2.2101
   33CHL1   C12 2399   6.475   0.159   3.740  0.4617 -0.1793 -0.1049
   33CHL1  H12A 2400   6.386   0.220   3.768  0.3731 -0.8799  1.2125
   33CHL1  H12B 2401   6.564   0.210   3.783  1.7245 -3.0830  0.9346
   33CHL1   C11 2402   6.492   0.141   3.591  0.2558  1.1199  0.2258
   33CHL1  H11A 2403   6.406   0.083   3.553 -2.2579  3.2236  2.3479
   33CHL1  H11B 2404   6.487   0.235   3.531 -0.2398  1.3919  0.6933
   33CHL1    C9 2405   6.627   0.078   3.558 -0.1723 -0.2574 -0.3567
   33CHL1    H9 2406   6.700   0.154   3.593 -1.2348  0.7360 -0.2269
   33CHL1   C10 2407   6.647   0.054   3.404  0.7197  0.0391  0.7577
   33CHL1   C19 2408   6.512   0.011   3.342 -0.3130 -0.0367  0.1807
   33CHL1  H19A 2409   6.453  -0.058   3.406 -0.8194  1.6445  1.6294
   33CHL1  H19B 2410   6.444   0.097   3.325  1.5640  1.3470 -0.6753
   33CHL1  H19C 2411   6.519  -0.024   3.237 -1.9925  0.3271 -0.0919
   33CHL1    C1 2412   6.682   0.190   3.346  0.3237  0.1934 -0.3768
   33CHL1   H1A 2413   6.591   0.253   3.349  0.9126  1.0012  1.9960
   33CHL1   H1B 2414   6.748   0.251   3.411 -0.0214 -2.9160  3.1910
   33CHL1    C2 2415   6.729   0.191   3.200 -0.0028 -0.1766  0.3804
   33CHL1   H2A 2416   6.756   0.295   3.171  0.8147 -0.1980  1.0294
   33CHL1   H2B 2417   6.648   0.160   3.131  0.6459  1.1158 -1.0259
   33CHL1   C20 2418   6.365   0.046   4.047 -0.4240  0.1641 -0.5228
   33CHL1   H20 2419   6.303  -0.043   4.023 -2.2746  1.6178 -1.3785
   33CHL1   C21 2420   6.283   0.170   4.002 -0.1199  1.3714 -0.1243
   33CHL1  H21A 2421   6.252   0.172   3.896  0.7087 -0.2265 -0.4388
   33CHL1  H21B 2422   6.331   0.267   4.027  1.3005  0.6981 -0.1274
   33CHL1  H21C 2423   6.184   0.162   4.053 -0.5743 -0.0713 -1.1512
   33CHL1   C22 2424   6.395   0.051   4.201 -0.2471  0.0420  0.2398
   33CHL1  H22A 2425   6.473  -0.020   4.237  0.4882 -0.2978 -1.9280
   33CHL1  H22B 2426   6.426   0.156   4.219  0.4117  0.0162 -0.7040
   33CHL1   C23 2427   6.272   0.024   4.298 -0.4178 -0.2797  0.6554
   33CHL1  H23A 2428   6.188   0.094   4.277 -1.1879 -0.7905  1.9025
   33CHL1  H23B 2429   6.233  -0.079   4.282  0.1336 -0.5113  0.7894
   33CHL1   C24 2430   6.316   0.060   4.442  0.6468  0.1017 -0.2801
   33CHL1  H24A 2431   6.396  -0.010   4.471  0.0798 -1.5689 -2.4778
   33CHL1  H24B 2432   6.356   0.161   4.463  1.3833 -0.3671  0.6250
   33CHL1   C25 2433   6.206   0.030   4.539  0.1557  0.2804 -0.8231
   33CHL1   H25 2434   6.194  -0.080   4.527  0.0035  0.1472  0.4574
   33CHL1   C26 2435   6.253   0.063   4.681  0.7471  0.0682  0.6287
   33CHL1  H26A 2436   6.270   0.173   4.693  0.7986  0.0434  0.7885
   33CHL1  H26B 2437   6.176   0.015   4.746 -0.1691  1.2760  0.4782
   33CHL1  H26C 2438   6.349   0.013   4.707  2.0771  0.6524 -2.7351
   33CHL1   C27 2439   6.066   0.094   4.508 -0.2688  0.4492  0.1915
   33CHL1  H27A 2440   5.987   0.059   4.578  1.5046  0.1923  2.1606
   33CHL1  H27B 2441   6.088   0.202   4.515  1.3932  0.2316 -1.1989
   33CHL1  H27C 2442   6.033   0.076   4.404 -1.1284  0.7120  0.4075
   34CHL1    C3 2443   2.410   2.641   3.330  0.3786  0.1420  0.3293
   34CHL1    H3 2444   2.425   2.535   3.362  0.3534  0.3444  1.0211
   34CHL1    O3 2445   2.345   2.639   3.200  0.7947 -0.1242  0.4775
   34CHL1   H3' 2446   2.319   2.728   3.175 -1.5223 -1.0857 -0.8428
   34CHL1    C4 2447   2.314   2.703   3.441  0.2875  0.4996  0.6416
   34CHL1   H4A 2448   2.296   2.807   3.405  0.8860  0.6859  0.8641
   34CHL1   H4B 2449   2.214   2.655   3.437  0.4006  0.2875  0.2925
   34CHL1    C5 2450   2.372   2.704   3.573 -0.3471 -0.4904 -0.5700
   34CHL1    C6 2451   2.306   2.651   3.675 -0.3128  0.7177  0.1246
   34CHL1    H6 2452   2.208   2.607   3.652 -0.7217  2.2976 -1.3740
   34CHL1    C7 2453   2.352   2.651   3.820 -0.1068 -0.3886 -0.3637
   34CHL1   H7A 2454   2.278   2.701   3.886 -1.5604 -0.7315 -1.6710
   34CHL1   H7B 2455   2.372   2.547   3.851  1.4752 -0.2578 -0.8573
   34CHL1    C8 2456   2.476   2.746   3.834  0.7555 -0.0268  0.3758
   34CHL1    H8 2457   2.432   2.848   3.829 -1.7102 -1.0764 -1.5279
   34CHL1   C14 2458   2.536   2.719   3.969  0.7511  0.4280  0.2257
   34CHL1   H14 2459   2.578   2.617   3.958 -0.8142 -0.6348  2.9016
   34CHL1   C15 2460   2.437   2.692   4.084  0.3215 -0.0086  0.3915
   34CHL1  H15A 2461   2.355   2.767   4.085 -0.2919 -0.6596  1.5695
   34CHL1  H15B 2462   2.394   2.590   4.069 -1.3575  0.7092  0.1244
   34CHL1   C16 2463   2.517   2.712   4.214 -1.0112  0.0221 -0.4102
   34CHL1  H16A 2464   2.475   2.793   4.277 -2.2110 -2.4884  2.2051
   34CHL1  H16B 2465   2.519   2.617   4.271  1.1797  0.0847 -0.2870
   34CHL1   C17 2466   2.666   2.743   4.157  0.6139 -0.1383 -0.2664
   34CHL1   H17 2467   2.714   2.646   4.129  1.1566  0.0559 -0.0269
   34CHL1   C13 2468   2.649   2.808   4.012  0.1788 -0.4883 -0.5071
   34CHL1   C18 2469   2.588   2.951   4.033  0.2542  0.7102  0.3962
   34CHL1  H18A 2470   2.514   2.960   4.115  0.6367  2.6104  0.5906
   34CHL1  H18B 2471   2.665   3.031   4.032  1.4807 -0.4339 -0.7048
   34CHL1  H18C 2472   2.534   2.981   3.940  0.3092 -4.2901 -1.5637
   34CHL1   C12 2473   2.755   2.807   3.904 -0.0376 -0.0411  0.3125
   34CHL1  H12A 2474   2.819   2.893   3.933 -0.9934  1.1714 -1.0057
   34CHL1  H12B 2475   2.813   2.713   3.895  0.5635  0.4836 -1.8487
   34CHL1   C11 2476   2.695   2.833   3.762 -0.3703  0.2006  0.2339
   34CHL1  H11A 2477   2.654   2.935   3.770 -1.5164 -0.2709  0.5876
   34CHL1  H11B 2478   2.775   2.830   3.685 -0.0843  2.0313  0.4082
   34CHL1    C9 2479   2.572   2.737   3.720 -0.4789 -0.0957  0.3289
   34CHL1    H9 2480   2.613   2.634   3.724 -2.0257 -0.8621 -1.8908
   34CHL1   C10 2481   2.512   2.762   3.583 -0.4879 -0.1610  0.1083
   34CHL1   C19 2482   2.498   2.927   3.565  0.0864  0.5098 -0.0752
   34CHL1  H19A 2483   2.461   2.967   3.468 -0.3623  2.9429  1.0127
   34CHL1  H19B 2484   2.420   2.961   3.637 -1.9732  0.1598 -2.0014
   34CHL1  H19C 2485   2.590   2.989   3.561  0.6727 -0.2379  1.1494
   34CHL1    C1 2486   2.611   2.707   3.470 -0.0721 -0.3273 -0.0281
   34CHL1   H1A 2487   2.697   2.777   3.475  0.9333 -1.3341 -1.9938
   34CHL1   H1B 2488   2.646   2.605   3.497  1.2542  0.7094  2.4937
   34CHL1    C2 2489   2.547   2.713   3.328  0.0412  0.8294  0.2541
   34CHL1   H2A 2490   2.619   2.673   3.254 -1.0489  0.7548 -0.7919
   34CHL1   H2B 2491   2.520   2.814   3.292  1.0964 -0.2973 -4.2758
   34CHL1   C20 2492   2.757   2.805   4.262  0.4345  0.5161 -0.6461
   34CHL1   H20 2493   2.722   2.909   4.278  0.7539  0.5716 -0.2978
   34CHL1   C21 2494   2.903   2.807   4.214  0.0482  0.9560 -0.0270
   34CHL1  H21A 2495   2.959   2.845   4.302  1.0015  0.7218 -0.5268
   34CHL1  H21B 2496   2.921   2.882   4.135  0.7987  0.1885 -0.6004
   34CHL1  H21C 2497   2.941   2.706   4.189  0.1570  0.6623  1.2447
   34CHL1   C22 2498   2.749   2.732   4.402 -0.4487 -0.0527  0.4550
   34CHL1  H22A 2499   2.798   2.800   4.475  0.8280  1.4051 -1.6589
   34CHL1  H22B 2500   2.641   2.727   4.427 -0.6865 -1.4254 -0.7242
   34CHL1   C23 2501   2.809   2.595   4.398 -0.1927  0.1990  0.4011
   34CHL1  H23A 2502   2.757   2.532   4.323 -0.4354  1.3399 -0.4186
   34CHL1  H23B 2503   2.916   2.604   4.369  0.8985 -2.5351  3.0138
   34CHL1   C24 2504   2.825   2.529   4.540  0.7106 -0.1127  0.2449
   34CHL1  H24A 2505   2.886   2.590   4.611  1.6698 -0.4004 -0.3188
   34CHL1  H24B 2506   2.723   2.499   4.572  0.7650 -0.3369  0.2050
   34CHL1   C25 2507   2.910   2.396   4.543  0.1931 -0.1569  0.6643
   34CHL1   H25 2508   2.896   2.345   4.445 -0.1129 -0.0078  0.6289
   34CHL1   C26 2509   3.064   2.420   4.557  0.2127  0.6015 -0.0183
   34CHL1  H26A 2510   3.091   2.484   4.643  1.3910 -1.1446  0.9683
   34CHL1  H26B 2511   3.116   2.323   4.575 -1.8616 -0.5340  0.2158
   34CHL1  H26C 2512   3.095   2.463   4.459 -0.7425  0.1238 -0.5495
   34CHL1   C27 2513   2.849   2.309   4.657 -0.3427 -0.1223 -0.0324
   34CHL1  H27A 2514   2.741   2.289   4.646 -0.1238 -1.1581 -0.4311
   34CHL1  H27B 2515   2.898   2.210   4.644 -2.5460 -1.0702 -1.6466
   34CHL1  H27C 2516   2.872   2.336   4.762 -2.6726 -0.2555  0.5704
   35CHL1    C3 2517   3.554   0.748   3.097  0.0398 -0.4739  0.0676
   35CHL1    H3 2518   3.662   0.774   3.102 -0.2246  0.6303  0.3775
   35CHL1    O3 2519   3.496   0.766   2.969 -0.3281 -0.8189 -0.2643
   35CHL1   H3' 2520   3.520   0.855   2.941  0.5632 -1.2806 -1.0385
   35CHL1    C4 2521   3.523   0.610   3.158 -0.1797 -0.6608 -0.6307
   35CHL1   H4A 2522   3.414   0.589   3.163 -0.2036 -0.1688  1.9722
   35CHL1   H4B 2523   3.572   0.526   3.104  0.5907 -1.0161  0.5942
   35CHL1    C5 2524   3.588   0.602   3.298  0.1941 -0.5950  0.4201
   35CHL1    C6 2525   3.678   0.505   3.332  0.8739 -0.4129  0.0765
   35CHL1    H6 2526   3.718   0.420   3.274  3.3279  0.6722  0.0373
   35CHL1    C7 2527   3.743   0.510   3.463 -0.8822  1.0050  0.1647
   35CHL1   H7A 2528   3.755   0.410   3.509  0.5913  0.9743 -0.2487
   35CHL1   H7B 2529   3.841   0.562   3.456 -0.9733  1.2227  0.4498
   35CHL1    C8 2530   3.659   0.574   3.581 -0.4704  0.4137 -0.0291
   35CHL1    H8 2531   3.570   0.513   3.605  0.9307 -1.6444  0.2283
   35CHL1   C14 2532   3.747   0.587   3.711  0.5878 -0.4570  0.0531
   35CHL1   H14 2533   3.829   0.654   3.677 -0.1700 -0.0455 -1.0454
   35CHL1   C15 2534   3.805   0.463   3.777 -0.2628  0.2120  0.2200
   35CHL1  H15A 2535   3.728   0.382   3.781 -2.1439  1.9223  0.1851
   35CHL1  H15B 2536   3.894   0.418   3.729 -0.5623 -1.9955  1.5861
   35CHL1   C16 2537   3.829   0.509   3.925 -0.6422 -0.0965 -0.1855
   35CHL1  H16A 2538   3.779   0.435   3.991  1.3190  0.1180  1.6221
   35CHL1  H16B 2539   3.937   0.507   3.949 -0.6775  1.6692  0.2344
   35CHL1   C17 2540   3.781   0.660   3.936  0.2116  0.7262  0.5201
   35CHL1   H17 2541   3.867   0.718   3.896  0.4179  0.0491 -0.0435
   35CHL1   C13 2542   3.671   0.666   3.820 -0.8840  1.3403  0.2893
   35CHL1   C18 2543   3.541   0.590   3.860 -1.1903 -0.0251 -0.7694
   35CHL1  H18A 2544   3.560   0.495   3.913 -1.1454  0.5900  0.3531
   35CHL1  H18B 2545   3.487   0.652   3.934  0.1961 -0.1925  0.4273
   35CHL1  H18C 2546   3.476   0.560   3.775 -0.1781 -0.5242 -1.3918
   35CHL1   C12 2547   3.626   0.808   3.764 -0.2172  0.7812  0.1638
   35CHL1  H12A 2548   3.567   0.861   3.842  1.0388  2.0197  0.3017
   35CHL1  H12B 2549   3.715   0.872   3.748  1.3972 -1.2747  0.4469
   35CHL1   C11 2550   3.547   0.799   3.630 -0.2781  0.0147  0.0248
   35CHL1  H11A 2551   3.460   0.740   3.666  0.5207 -0.7619  0.7350
   35CHL1  H11B 2552   3.521   0.902   3.598  2.4664  0.4079 -1.3009
   35CHL1    C9 2553   3.623   0.715   3.527 -0.0743  0.0761  0.4893
   35CHL1    H9 2554   3.715   0.776   3.513 -0.8891  1.2859  0.3113
   35CHL1   C10 2555   3.544   0.713   3.397  1.1097  0.5940 -0.5286
   35CHL1   C19 2556   3.392   0.686   3.428 -0.4233  0.2703 -0.5735
   35CHL1  H19A 2557   3.339   0.765   3.485 -0.2716 -0.1202  0.1283
   35CHL1  H19B 2558   3.324   0.670   3.341  0.6224  1.1400 -1.5786
   35CHL1  H19C 2559   3.373   0.592   3.484 -1.7474 -0.1511 -1.6497
   35CHL1    C1 2560   3.561   0.856   3.332  0.1816  0.0303  0.5130
   35CHL1   H1A 2561   3.527   0.947   3.386 -0.7147  1.4774 -2.3012
   35CHL1   H1B 2562   3.671   0.864   3.318  0.3691  1.0625  2.1921
   35CHL1    C2 2563   3.499   0.856   3.189  0.0855  0.0497 -0.5785
   35CHL1   H2A 2564   3.524   0.961   3.160  0.5355  0.1198  0.0393
   35CHL1   H2B 2565   3.388   0.856   3.196  0.0845 -2.0271  0.2566
   35CHL1   C20 2566   3.729   0.707   4.072 -0.8624  0.3152  0.0764
   35CHL1   H20 2567   3.622   0.675   4.077 -1.0046  0.5981 -0.9302
   35CHL1   C21 2568   3.728   0.863   4.083 -0.5434  0.3157  0.0781
   35CHL1  H21A 2569   3.661   0.892   3.999  0.0503 -0.0701 -0.5411
   35CHL1  H21B 2570   3.833   0.886   4.056  0.5636 -3.0829  0.9343
   35CHL1  H21C 2571   3.715   0.900   4.186  1.4447  1.0669  0.1012
   35CHL1   C22 2572   3.803   0.644   4.195  1.0190  0.3618  0.0501
   35CHL1  H22A 2573   3.785   0.534   4.188  0.3755  0.4857 -0.4009
   35CHL1  H22B 2574   3.908   0.677   4.188  1.4038 -1.1363 -3.4477
   35CHL1   C23 2575   3.730   0.687   4.325  0.0023 -0.0281 -0.0412
   35CHL1  H23A 2576   3.750   0.793   4.353 -2.5313  0.8374 -1.2776
   35CHL1  H23B 2577   3.621   0.670   4.320  0.2290 -1.7692  0.2022
   35CHL1   C24 2578   3.775   0.608   4.452  0.4434 -0.2788  0.0839
   35CHL1  H24A 2579   3.708   0.638   4.535 -0.0848 -0.1586 -0.3777
   35CHL1  H24B 2580   3.750   0.501   4.436  0.5319 -0.6902  2.3960
   35CHL1   C25 2581   3.923   0.628   4.496  0.3262  0.0159 -0.6839
   35CHL1   H25 2582   3.983   0.631   4.403  1.1266 -0.0964 -0.1778
   35CHL1   C26 2583   3.933   0.764   4.564  0.3085  0.9348 -0.3943
   35CHL1  H26A 2584   4.036   0.796   4.594  1.4135 -0.9336 -1.9645
   35CHL1  H26B 2585   3.884   0.848   4.510 -3.1327  1.6766  3.4228
   35CHL1  H26C 2586   3.877   0.771   4.659  1.9022  1.7972  0.5315
   35CHL1   C27 2587   3.974   0.515   4.578  1.1336  0.0259 -0.1501
   35CHL1  H27A 2588   3.948   0.523   4.685 -2.3482 -2.1804 -0.6612
   35CHL1  H27B 2589   3.948   0.413   4.543 -1.0695  0.0976  1.1478
   35CHL1  H27C 2590   4.084   0.532   4.586  1.1460  0.0838 -0.4234
   36CHL1    C3 2591   0.259   5.672   3.472  0.3676 -0.3772 -0.3308
   36CHL1    H3 2592   0.247   5.763   3.536 -0.4481 -1.0825  0.5364
   36CHL1    O3 2593   0.283   5.703   3.337  0.2251  1.0356 -0.5967
   36CHL1   H3' 2594   0.200   5.738   3.306 -0.8940 -1.3337 -0.4707
   36CHL1    C4 2595   0.384   5.597   3.526  0.1812 -0.8057  0.3246
   36CHL1   H4A 2596   0.404   5.513   3.457  0.0105  0.5097 -1.3914
   36CHL1   H4B 2597   0.468   5.669   3.516 -1.5007  1.0711 -1.2883
   36CHL1    C5 2598   0.364   5.550   3.664 -0.7219  0.0304  0.3716
   36CHL1    C6 2599   0.451   5.585   3.759  0.8516  0.6116  0.5710
   36CHL1    H6 2600   0.536   5.651   3.737  0.5128  2.0745  3.1970
   36CHL1    C7 2601   0.442   5.525   3.898  0.4621 -0.2219  0.9213
   36CHL1   H7A 2602   0.538   5.490   3.942 -0.6730 -1.9245  2.1671
   36CHL1   H7B 2603   0.404   5.603   3.968  0.4726 -1.4123  2.3188
   36CHL1    C8 2604   0.343   5.405   3.914 -0.2681  0.2689 -0.1203
   36CHL1    H8 2605   0.393   5.313   3.877 -0.0949  0.0036  0.7473
   36CHL1   C14 2606   0.310   5.384   4.060 -0.1813  0.6624  0.1214
   36CHL1   H14 2607   0.246   5.467   4.098  1.9160  2.0030  0.9504
   36CHL1   C15 2608   0.421   5.392   4.171  0.2750 -0.3411 -0.0306
   36CHL1  H15A 2609   0.507   5.330   4.138 -1.8948 -2.1489 -2.8107
   36CHL1  H15B 2610   0.451   5.498   4.181 -0.9107  0.3715 -3.0321
   36CHL1   C16 2611   0.369   5.316   4.289  0.5519  0.0717 -0.3172
   36CHL1  H16A 2612   0.435   5.235   4.326 -0.1862 -0.2569  0.3279
   36CHL1  H16B 2613   0.352   5.387   4.374  3.9172  0.9248 -0.2044
   36CHL1   C17 2614   0.227   5.257   4.247 -0.4768 -0.6138  0.4368
   36CHL1   H17 2615   0.153   5.339   4.259  0.0357 -0.0840 -0.0077
   36CHL1   C13 2616   0.232   5.255   4.086 -0.4468  0.3054  0.7532
   36CHL1   C18 2617   0.304   5.131   4.036 -0.1944  0.0027 -0.1868
   36CHL1  H18A 2618   0.256   5.035   4.065  1.7272 -0.6641  1.0115
   36CHL1  H18B 2619   0.305   5.124   3.926  0.5237 -1.1100 -0.1250
   36CHL1  H18C 2620   0.410   5.129   4.072 -0.5211 -1.2210  0.7784
   36CHL1   C12 2621   0.093   5.261   4.010 -0.2053  0.0076 -0.3901
   36CHL1  H12A 2622   0.027   5.172   4.005 -1.0275  0.6509 -1.5687
   36CHL1  H12B 2623   0.040   5.330   4.079  0.5612  0.5792 -0.3566
   36CHL1   C11 2624   0.118   5.310   3.864 -0.1595  0.2356 -0.0328
   36CHL1  H11A 2625   0.140   5.213   3.815  0.3180 -0.0707  0.7701
   36CHL1  H11B 2626   0.016   5.334   3.826 -0.8297 -1.6673  0.4048
   36CHL1    C9 2627   0.217   5.425   3.842 -0.0135  0.5910 -0.0588
   36CHL1    H9 2628   0.171   5.516   3.885 -0.7387  0.4715 -0.5564
   36CHL1   C10 2629   0.243   5.458   3.693  0.9423 -0.3963 -0.3681
   36CHL1   C19 2630   0.274   5.324   3.618 -0.6418 -0.3851  0.2130
   36CHL1  H19A 2631   0.181   5.270   3.592  0.1426 -2.4786  1.5332
   36CHL1  H19B 2632   0.342   5.330   3.530  2.5408 -0.4167  2.4686
   36CHL1  H19C 2633   0.338   5.260   3.683 -1.5523 -0.2615  1.2626
   36CHL1    C1 2634   0.121   5.528   3.623  0.0810  0.4218 -0.3086
   36CHL1   H1A 2635   0.037   5.455   3.615 -0.3438  0.7636  0.7599
   36CHL1   H1B 2636   0.094   5.617   3.683  0.2141  0.6042 -0.5176
   36CHL1    C2 2637   0.135   5.586   3.487  0.0901 -0.7199  0.3114
   36CHL1   H2A 2638   0.043   5.646   3.466  0.5361  0.2238  1.0037
   36CHL1   H2B 2639   0.137   5.495   3.423  2.0184 -0.2682 -0.3204
   36CHL1   C20 2640   0.196   5.137   4.325  0.1865  0.6084 -0.5379
   36CHL1   H20 2641   0.279   5.065   4.313 -0.0873 -0.1458  1.6912
   36CHL1   C21 2642   0.071   5.068   4.272  0.1930 -0.1064 -0.0859
   36CHL1  H21A 2643   0.084   5.035   4.166 -0.7784 -2.6619  0.5311
   36CHL1  H21B 2644  -0.017   5.129   4.301  1.2600  2.8352 -2.4721
   36CHL1  H21C 2645   0.061   4.973   4.328  1.7520  0.7765  1.8094
   36CHL1   C22 2646   0.186   5.178   4.475 -0.1113  0.5440  0.3331
   36CHL1  H22A 2647   0.277   5.230   4.512 -1.7752  2.7466  1.5909
   36CHL1  H22B 2648   0.094   5.240   4.482  0.0439  0.9879 -1.1956
   36CHL1   C23 2649   0.164   5.066   4.578  0.1754  0.2308 -0.0488
   36CHL1  H23A 2650   0.067   5.017   4.554  0.4105  0.5290 -1.7588
   36CHL1  H23B 2651   0.240   4.985   4.570  0.1995  0.3351 -0.9776
   36CHL1   C24 2652   0.154   5.115   4.717  0.2331  0.0592  0.3284
   36CHL1  H24A 2653   0.257   5.153   4.732  1.0884 -2.0324  0.1753
   36CHL1  H24B 2654   0.079   5.195   4.730 -0.2209 -0.5211  1.4780
   36CHL1   C25 2655   0.113   4.992   4.806  0.2835  0.1792  0.1262
   36CHL1   H25 2656   0.016   4.957   4.764  0.2911 -1.5935  1.4854
   36CHL1   C26 2657   0.218   4.877   4.825  0.4535  0.5612  0.1500
   36CHL1  H26A 2658   0.183   4.809   4.905 -1.0052  0.3077 -0.6661
   36CHL1  H26B 2659   0.237   4.822   4.730  0.0455  1.7067 -0.6139
   36CHL1  H26C 2660   0.319   4.909   4.858  0.7255  0.6357 -0.7225
   36CHL1   C27 2661   0.081   5.048   4.942 -0.1999  0.0675 -0.4662
   36CHL1  H27A 2662   0.034   5.148   4.935 -0.6014  0.0141  1.1920
   36CHL1  H27B 2663   0.017   4.978   4.999 -1.4878  2.4831  1.1973
   36CHL1  H27C 2664   0.177   5.071   4.993 -0.1736  0.2670 -0.6022
   37CHL1    C3 2665   3.442   0.066   2.903 -0.4808 -0.5980 -0.9189
   37CHL1    H3 2666   3.337   0.034   2.914 -0.2513 -0.5850  2.0288
   37CHL1    O3 2667   3.469   0.100   2.763  0.6778  0.4172 -0.0129
   37CHL1   H3' 2668   3.555   0.142   2.766  0.7034  0.4280 -0.8386
   37CHL1    C4 2669   3.482   0.196   2.983 -0.2679 -0.1264 -0.3731
   37CHL1   H4A 2670   3.591   0.198   2.965  0.4436 -3.4958  2.3228
   37CHL1   H4B 2671   3.428   0.284   2.944  1.2454  0.7110 -0.6424
   37CHL1    C5 2672   3.468   0.180   3.132 -0.4606 -0.4168  0.6439
   37CHL1    C6 2673   3.384   0.262   3.195  0.4150 -0.2306 -0.9472
   37CHL1    H6 2674   3.342   0.352   3.148 -1.8489  0.6011  2.3271
   37CHL1    C7 2675   3.369   0.267   3.341  0.2508  0.1930 -0.4152
   37CHL1   H7A 2676   3.376   0.368   3.386 -2.1187  0.3000 -0.1876
   37CHL1   H7B 2677   3.265   0.233   3.363  0.0597  1.4568  0.7484
   37CHL1    C8 2678   3.464   0.164   3.418  0.3182 -0.0990 -0.7954
   37CHL1    H8 2679   3.560   0.220   3.424 -0.3670  0.9775  1.5564
   37CHL1   C14 2680   3.411   0.138   3.553  0.2601  0.2999  0.1124
   37CHL1   H14 2681   3.321   0.075   3.534 -0.4985  1.5018 -0.4087
   37CHL1   C15 2682   3.368   0.256   3.640  0.7798  0.1908 -0.2908
   37CHL1  H15A 2683   3.434   0.341   3.614  1.0861 -0.0699 -0.3718
   37CHL1  H15B 2684   3.265   0.287   3.611  0.3078  1.8259  2.7560
   37CHL1   C16 2685   3.379   0.204   3.784  0.0338 -0.6930  0.5290
   37CHL1  H16A 2686   3.462   0.253   3.839  0.2016 -0.9700  0.5268
   37CHL1  H16B 2687   3.281   0.223   3.832  0.9593  1.4512  1.7049
   37CHL1   C17 2688   3.410   0.051   3.765 -0.3185 -0.2495  0.4748
   37CHL1   H17 2689   3.309   0.008   3.748 -0.7296  0.3690  1.2771
   37CHL1   C13 2690   3.494   0.043   3.633 -0.4771 -0.1587  0.0335
   37CHL1   C18 2691   3.637   0.100   3.651 -0.0276 -0.0320 -0.2347
   37CHL1  H18A 2692   3.631   0.202   3.694 -0.7281  0.3274 -1.1426
   37CHL1  H18B 2693   3.700   0.033   3.714  0.8229 -0.6797 -1.7306
   37CHL1  H18C 2694   3.683   0.112   3.551  0.6555  2.9907  0.3459
   37CHL1   C12 2695   3.491  -0.096   3.567 -0.0002 -0.5147 -0.1505
   37CHL1  H12A 2696   3.535  -0.174   3.632  0.3496  0.2511  0.5553
   37CHL1  H12B 2697   3.382  -0.118   3.570 -0.7249  2.5980  2.1052
   37CHL1   C11 2698   3.542  -0.084   3.427  0.3139  0.1852 -0.0216
   37CHL1  H11A 2699   3.652  -0.063   3.429 -0.0543  2.2893  0.6054
   37CHL1  H11B 2700   3.535  -0.184   3.378 -0.5144 -0.1812  0.8267
   37CHL1    C9 2701   3.483   0.037   3.345  0.0939  0.7911  1.2908
   37CHL1    H9 2702   3.384  -0.006   3.320  1.3789 -0.8474 -1.5299
   37CHL1   C10 2703   3.542   0.062   3.200  0.2520 -0.8204  0.5185
   37CHL1   C19 2704   3.699   0.090   3.207  0.2028  0.0855 -0.7891
   37CHL1  H19A 2705   3.750   0.102   3.109  2.2116  0.1835  0.2208
   37CHL1  H19B 2706   3.704   0.180   3.272  1.6372 -1.3611  1.2298
   37CHL1  H19C 2707   3.742   0.002   3.259 -1.8933  0.2443  1.4201
   37CHL1    C1 2708   3.516  -0.060   3.105  0.3297  0.5370  0.1905
   37CHL1   H1A 2709   3.572  -0.146   3.147  0.0462 -1.6434 -3.4774
   37CHL1   H1B 2710   3.414  -0.098   3.125 -0.8621  2.8982 -0.9600
   37CHL1    C2 2711   3.533  -0.048   2.953  0.1543 -0.6320  0.5178
   37CHL1   H2A 2712   3.506  -0.140   2.897  1.4286 -0.3309 -0.6427
   37CHL1   H2B 2713   3.637  -0.017   2.927 -0.7291  0.9804 -1.3383
   37CHL1   C20 2714   3.464  -0.021   3.892 -0.2751  0.0800  0.2244
   37CHL1   H20 2715   3.497  -0.123   3.860  4.3899  0.9351  1.5013
   37CHL1   C21 2716   3.336  -0.036   3.976 -0.1245 -0.3766 -0.0612
   37CHL1  H21A 2717   3.287   0.062   3.996 -1.1788 -0.7078 -0.9163
   37CHL1  H21B 2718   3.357  -0.082   4.074  2.5345  1.4180  0.3320
   37CHL1  H21C 2719   3.274  -0.110   3.921  2.0431 -0.6810 -2.2547
   37CHL1   C22 2720   3.581   0.047   3.973 -0.3521  0.4614  0.1032
   37CHL1  H22A 2721   3.674   0.043   3.912 -0.3958 -2.9511  0.0903
   37CHL1  H22B 2722   3.547   0.147   4.006  0.0226  0.1656  1.4356
   37CHL1   C23 2723   3.619  -0.031   4.099  0.2103 -0.0377 -0.6840
   37CHL1  H23A 2724   3.536  -0.025   4.173  0.8644  0.5501  0.0187
   37CHL1  H23B 2725   3.634  -0.136   4.068 -0.7633 -0.1980 -0.6346
   37CHL1   C24 2726   3.747   0.023   4.168  1.0707 -0.0030  0.4659
   37CHL1  H24A 2727   3.823  -0.011   4.095  0.1869 -0.4050 -0.2813
   37CHL1  H24B 2728   3.748   0.134   4.167  0.0547  0.0185  0.9344
   37CHL1   C25 2729   3.785  -0.039   4.304  0.9407 -0.1631 -0.0906
   37CHL1   H25 2730   3.708   0.000   4.374  0.6473  0.1429 -0.5804
   37CHL1   C26 2731   3.761  -0.193   4.309 -0.7405 -1.0189  1.3399
   37CHL1  H26A 2732   3.844  -0.244   4.256 -1.5734 -1.5160  0.4748
   37CHL1  H26B 2733   3.755  -0.221   4.416 -0.5138 -0.5728  1.4717
   37CHL1  H26C 2734   3.675  -0.226   4.246  0.6537 -0.4842 -0.9894
   37CHL1   C27 2735   3.922  -0.000   4.358 -0.1940 -0.5882 -0.4635
   37CHL1  H27A 2736   3.995  -0.065   4.304 -0.0859 -1.0691  0.2353
   37CHL1  H27B 2737   3.931   0.108   4.336 -1.1423  0.0552  1.9664
   37CHL1  H27C 2738   3.932  -0.015   4.468  3.7117  1.2774 -0.4010
   38CHL1    C3 2739   3.371   5.740   3.017 -0.1525 -0.3256  0.2575
   38CHL1    H3 2740   3.415   5.639   3.026  1.5800  0.4488  0.8063
   38CHL1    O3 2741   3.367   5.785   2.883  0.2400  0.4994  0.1281
   38CHL1   H3' 2742   3.300   5.727   2.846 -1.3607 -0.0005  3.4886
   38CHL1    C4 2743   3.228   5.718   3.069 -0.6223  0.0648 -0.0948
   38CHL1   H4A 2744   3.171   5.810   3.043  0.7126  0.7765 -0.5472
   38CHL1   H4B 2745   3.188   5.636   3.005  1.8894 -0.4316 -1.1372
   38CHL1    C5 2746   3.229   5.674   3.218  0.0331 -0.2975  0.3083
   38CHL1    C6 2747   3.168   5.560   3.258  0.5673  0.4552 -0.0330
   38CHL1    H6 2748   3.106   5.500   3.189 -0.6845 -0.5944  1.9086
   38CHL1    C7 2749   3.171   5.514   3.403  0.2914  0.3544 -0.4244
   38CHL1   H7A 2750   3.069   5.490   3.439  0.3553  1.4276  0.5304
   38CHL1   H7B 2751   3.233   5.424   3.424 -0.9269 -0.3011  0.5569
   38CHL1    C8 2752   3.222   5.622   3.499  0.1435 -0.1605  1.2385
   38CHL1    H8 2753   3.143   5.699   3.511  1.5171  1.0047  3.3620
   38CHL1   C14 2754   3.250   5.552   3.633  0.4893 -1.0205 -0.0318
   38CHL1   H14 2755   3.317   5.468   3.606  0.4776 -0.8303 -0.6817
   38CHL1   C15 2756   3.135   5.489   3.710 -0.2456 -0.2138  0.2445
   38CHL1  H15A 2757   3.051   5.561   3.699 -0.6800 -0.7479  0.0162
   38CHL1  H15B 2758   3.104   5.391   3.666 -2.2398  0.7477 -0.6552
   38CHL1   C16 2759   3.196   5.480   3.857 -0.4626 -0.6552 -0.2753
   38CHL1  H16A 2760   3.121   5.533   3.920  0.7494  0.2949  0.4264
   38CHL1  H16B 2761   3.207   5.376   3.894 -3.4600 -0.9021  0.1815
   38CHL1   C17 2762   3.338   5.550   3.854 -0.0554  0.3913 -0.7055
   38CHL1   H17 2763   3.401   5.464   3.820  0.5571  1.2678 -1.8621
   38CHL1   C13 2764   3.325   5.642   3.731  0.3220  0.0647 -0.5956
   38CHL1   C18 2765   3.237   5.766   3.767 -0.7319 -0.2640  0.6121
   38CHL1  H18A 2766   3.208   5.832   3.683  3.8448  0.5045 -0.6652
   38CHL1  H18B 2767   3.140   5.737   3.813 -2.6907  0.8465 -2.4783
   38CHL1  H18C 2768   3.296   5.838   3.828  2.8736 -2.2359 -0.2576
   38CHL1   C12 2769   3.456   5.681   3.677 -0.1574 -0.8408 -0.0454
   38CHL1  H12A 2770   3.519   5.737   3.750 -0.6161  1.4605 -1.3198
   38CHL1  H12B 2771   3.513   5.589   3.656 -2.1840 -1.9650 -0.8609
   38CHL1   C11 2772   3.442   5.762   3.548  0.9540 -0.7221 -0.3989
   38CHL1  H11A 2773   3.401   5.861   3.579  0.2474 -0.1556 -2.9131
   38CHL1  H11B 2774   3.548   5.778   3.518  1.4123 -0.5401  1.2051
   38CHL1    C9 2775   3.353   5.689   3.446  0.7036  0.1621  0.2168
   38CHL1    H9 2776   3.420   5.608   3.408 -0.5816 -1.5010  1.3656
   38CHL1   C10 2777   3.316   5.764   3.314 -0.2494 -0.2916 -0.4184
   38CHL1   C19 2778   3.231   5.892   3.347  0.1816 -0.1601  0.0783
   38CHL1  H19A 2779   3.289   5.947   3.425  2.7063 -0.0900 -1.7295
   38CHL1  H19B 2780   3.215   5.957   3.259 -2.2328 -0.8605 -0.0675
   38CHL1  H19C 2781   3.128   5.872   3.383 -1.4814  0.4378 -3.9090
   38CHL1    C1 2782   3.447   5.809   3.243 -0.8468  0.0737  0.1312
   38CHL1   H1A 2783   3.482   5.896   3.303  0.0626 -0.8169  0.9503
   38CHL1   H1B 2784   3.527   5.734   3.260 -1.1588 -0.2762  0.0612
   38CHL1    C2 2785   3.430   5.851   3.099  0.4388 -0.0415  0.5892
   38CHL1   H2A 2786   3.524   5.893   3.058 -1.7712  2.0319 -2.8297
   38CHL1   H2B 2787   3.368   5.943   3.095  0.8639  0.1903 -1.5821
   38CHL1   C20 2788   3.394   5.606   3.987  0.3376 -0.7709  0.4921
   38CHL1   H20 2789   3.371   5.715   3.995  2.4675 -0.2644  0.4138
   38CHL1   C21 2790   3.548   5.591   3.989  0.4638  0.0731 -0.5499
   38CHL1  H21A 2791   3.586   5.667   3.917 -0.4341  1.0541 -0.0148
   38CHL1  H21B 2792   3.575   5.485   3.969  0.8199  0.0503  0.0254
   38CHL1  H21C 2793   3.588   5.608   4.091  0.1099 -1.1723 -0.1882
   38CHL1   C22 2794   3.328   5.563   4.119  0.1257 -0.3179 -0.5447
   38CHL1  H22A 2795   3.331   5.631   4.207 -1.2051 -0.9640  0.0201
   38CHL1  H22B 2796   3.219   5.560   4.099 -0.1802 -2.1131  1.0947
   38CHL1   C23 2797   3.375   5.429   4.171  0.1427  0.5151 -0.1230
   38CHL1  H23A 2798   3.368   5.345   4.098  2.4518  0.4038 -0.2883
   38CHL1  H23B 2799   3.480   5.457   4.195  0.3087 -0.1710 -0.0262
   38CHL1   C24 2800   3.308   5.384   4.300  0.9663 -0.0704 -0.2652
   38CHL1  H24A 2801   3.303   5.469   4.372  0.4921 -2.4186  2.6363
   38CHL1  H24B 2802   3.205   5.353   4.273  0.9017  0.4740 -0.6793
   38CHL1   C25 2803   3.381   5.266   4.368  0.0815  0.4281  0.1335
   38CHL1   H25 2804   3.489   5.290   4.362  0.4238 -1.1560 -0.6648
   38CHL1   C26 2805   3.341   5.238   4.507  0.1161  0.2268  0.5653
   38CHL1  H26A 2806   3.232   5.214   4.506  0.1736 -0.0190  0.3672
   38CHL1  H26B 2807   3.384   5.141   4.537  0.4776 -0.2765 -1.4426
   38CHL1  H26C 2808   3.374   5.315   4.580 -2.2006  2.8069 -0.8924
   38CHL1   C27 2809   3.364   5.132   4.294 -0.0100 -0.0408  0.4085
   38CHL1  H27A 2810   3.380   5.147   4.185  0.8541  1.8057  0.7504
   38CHL1  H27B 2811   3.429   5.046   4.323 -0.6416  0.0483  2.2406
   38CHL1  H27C 2812   3.263   5.089   4.311 -0.7563  0.8236 -1.6298
   39CHL1    C3 2813   0.302   1.991   3.233 -0.5671  0.2575  0.1648
   39CHL1    H3 2814   0.321   2.100   3.230  0.4671  0.0624 -0.6697
   39CHL1    O3 2815   0.283   1.943   3.102 -0.7724 -1.1397  0.1276
   39CHL1   H3' 2816   0.373   1.922   3.076 -0.7085 -0.3857 -0.2771
   39CHL1    C4 2817   0.431   1.933   3.296  0.1740  0.4823  0.7056
   39CHL1   H4A 2818   0.429   1.822   3.284  2.1240  0.4395  0.4665
   39CHL1   H4B 2819   0.521   1.957   3.235  0.2133 -0.0335  0.5567
   39CHL1    C5 2820   0.452   1.978   3.439 -0.6578 -0.5662  0.3451
   39CHL1    C6 2821   0.573   2.031   3.471 -0.3922  1.0129 -0.0814
   39CHL1    H6 2822   0.650   2.034   3.393 -0.0440  2.2944  0.2881
   39CHL1    C7 2823   0.611   2.069   3.614  0.4493  0.0880  0.0823
   39CHL1   H7A 2824   0.711   2.035   3.651  0.7493  1.2442  0.3927
   39CHL1   H7B 2825   0.610   2.180   3.609  0.1489  0.0546 -0.6607
   39CHL1    C8 2826   0.497   2.038   3.720 -0.2798 -0.1243 -0.9194
   39CHL1    H8 2827   0.511   1.933   3.751  0.4878  0.3906  0.5258
   39CHL1   C14 2828   0.506   2.133   3.847 -0.1233  0.4167  0.7220
   39CHL1   H14 2829   0.479   2.235   3.812  1.6752  0.4691 -0.5855
   39CHL1   C15 2830   0.646   2.148   3.898 -0.2823  0.4518 -0.7274
   39CHL1  H15A 2831   0.702   2.053   3.909 -3.3536 -1.4606 -0.3362
   39CHL1  H15B 2832   0.701   2.223   3.838 -3.6376  1.1884 -3.1556
   39CHL1   C16 2833   0.629   2.191   4.046  0.3667 -0.0333  0.0940
   39CHL1  H16A 2834   0.663   2.113   4.117 -1.0341 -0.5634  0.2109
   39CHL1  H16B 2835   0.675   2.291   4.062 -1.0386  0.2549  2.9583
   39CHL1   C17 2836   0.470   2.197   4.061 -0.2752  0.3020 -0.3643
   39CHL1   H17 2837   0.423   2.291   4.027 -2.1587 -0.2735  0.4533
   39CHL1   C13 2838   0.421   2.096   3.963  0.4184  0.4314  0.6105
   39CHL1   C18 2839   0.440   1.948   4.003  0.1334  0.6288  0.5130
   39CHL1  H18A 2840   0.390   1.926   4.099 -0.3971  1.4131  0.4280
   39CHL1  H18B 2841   0.382   1.882   3.935 -1.0564  0.5172  1.6104
   39CHL1  H18C 2842   0.548   1.927   4.018  0.5883  1.6919 -0.9661
   39CHL1   C12 2843   0.275   2.126   3.911  0.5684 -0.4754 -0.2406
   39CHL1  H12A 2844   0.196   2.090   3.980 -0.9929 -2.4085 -2.8516
   39CHL1  H12B 2845   0.272   2.236   3.896  1.0103 -0.7456 -2.6813
   39CHL1   C11 2846   0.245   2.053   3.772  0.3929  0.4418 -0.1369
   39CHL1  H11A 2847   0.222   1.951   3.807  0.9122  0.8995  1.6798
   39CHL1  H11B 2848   0.160   2.111   3.731  0.2888 -1.5002 -2.9673
   39CHL1    C9 2849   0.356   2.059   3.661 -0.2818 -0.0059  0.8756
   39CHL1    H9 2850   0.356   2.162   3.619  0.8926 -0.6909 -0.9074
   39CHL1   C10 2851   0.332   1.978   3.531 -0.0248  0.3142 -0.8922
   39CHL1   C19 2852   0.303   1.831   3.577 -0.3794  0.4064  0.5242
   39CHL1  H19A 2853   0.378   1.785   3.645  0.9296  1.1264 -0.3772
   39CHL1  H19B 2854   0.195   1.821   3.602  0.2475 -1.8700  2.6755
   39CHL1  H19C 2855   0.316   1.762   3.490  1.2371  0.4852  0.6798
   39CHL1    C1 2856   0.206   2.035   3.455 -0.2170 -0.1068  0.1999
   39CHL1   H1A 2857   0.120   2.019   3.523 -1.4650 -0.1368 -1.3172
   39CHL1   H1B 2858   0.219   2.144   3.437  2.5964 -0.3600  0.2468
   39CHL1    C2 2859   0.179   1.970   3.315 -0.6280 -0.5117 -0.4005
   39CHL1   H2A 2860   0.097   2.033   3.274  0.9612  0.4360 -2.2566
   39CHL1   H2B 2861   0.157   1.863   3.334 -2.5603 -0.0215  0.3232
   39CHL1   C20 2862   0.435   2.179   4.212 -0.2689  0.7771 -0.3553
   39CHL1   H20 2863   0.485   2.084   4.240 -1.6338 -0.4294 -1.7732
   39CHL1   C21 2864   0.288   2.164   4.244 -0.4481 -0.2553 -0.4994
   39CHL1  H21A 2865   0.243   2.086   4.180  0.2355 -0.2838 -0.9570
   39CHL1  H21B 2866   0.240   2.260   4.214  0.3768  1.6766  3.5650
   39CHL1  H21C 2867   0.268   2.154   4.353  0.5869  1.8011 -0.0665
   39CHL1   C22 2868   0.487   2.298   4.294  0.0315  0.3882 -0.0030
   39CHL1  H22A 2869   0.586   2.341   4.265  1.3931 -0.9289  2.3372
   39CHL1  H22B 2870   0.410   2.378   4.288 -1.3824 -0.9583 -0.4023
   39CHL1   C23 2871   0.504   2.256   4.445  0.5303  0.2744  0.1887
   39CHL1  H23A 2872   0.407   2.227   4.491  1.6456 -1.7075  1.4682
   39CHL1  H23B 2873   0.564   2.163   4.459  0.0892 -0.0402  0.0051
   39CHL1   C24 2874   0.570   2.379   4.516  0.2560 -0.3682  0.2344
   39CHL1  H24A 2875   0.661   2.400   4.456 -0.9577  2.4546 -0.7852
   39CHL1  H24B 2876   0.498   2.463   4.507  1.5431  1.0381  2.4293
   39CHL1   C25 2877   0.600   2.355   4.668  0.7322 -0.3297  0.2659
   39CHL1   H25 2878   0.661   2.262   4.673  0.0755 -1.1317 -3.7249
   39CHL1   C26 2879   0.675   2.474   4.735 -0.4328 -0.2657  0.6573
   39CHL1  H26A 2880   0.706   2.463   4.841 -0.9022  1.3176  0.9878
   39CHL1  H26B 2881   0.765   2.486   4.672 -0.8135  1.4260  0.3913
   39CHL1  H26C 2882   0.617   2.567   4.715  0.9321  0.0715 -2.0607
   39CHL1   C27 2883   0.471   2.327   4.744 -0.4402 -0.6364  0.3231
   39CHL1  H27A 2884   0.406   2.417   4.739 -0.0097 -0.3819 -1.0161
   39CHL1  H27B 2885   0.413   2.238   4.712 -0.6848 -0.2146 -0.4188
   39CHL1  H27C 2886   0.501   2.311   4.850  0.2571 -2.8983 -0.1731
   40CHL1    C3 2887   1.926   3.196   3.122  0.6076 -0.0718 -0.1303
   40CHL1    H3 2888   1.897   3.302   3.136  2.3251  0.1244  2.6847
   40CHL1    O3 2889   1.940   3.169   2.984  0.2884  0.4267 -0.1705
   40CHL1   H3' 2890   1.914   3.078   2.971 -0.7971  0.8281 -0.9194
   40CHL1    C4 2891   2.059   3.181   3.197 -0.1268  0.5472 -0.1108
   40CHL1   H4A 2892   2.104   3.085   3.164 -1.6562 -1.3364  2.8285
   40CHL1   H4B 2893   2.121   3.266   3.163  0.8439  0.1713  0.6958
   40CHL1    C5 2894   2.053   3.189   3.345 -0.3654 -0.2498  0.5112
   40CHL1    C6 2895   2.130   3.275   3.413 -0.5243  0.7873 -0.5758
   40CHL1    H6 2896   2.201   3.344   3.365  1.3435 -0.2193  0.6333
   40CHL1    C7 2897   2.146   3.275   3.563  0.1375 -0.9208  0.1234
   40CHL1   H7A 2898   2.250   3.295   3.597  0.0022 -1.2286  0.7431
   40CHL1   H7B 2899   2.101   3.367   3.606  0.3524 -0.0784 -1.3792
   40CHL1    C8 2900   2.091   3.144   3.622  0.6554 -0.0397 -0.0994
   40CHL1    H8 2901   2.163   3.060   3.608 -1.4133 -1.6941 -1.3438
   40CHL1   C14 2902   2.076   3.161   3.778  0.8749  0.7605  0.1100
   40CHL1   H14 2903   1.996   3.237   3.786 -2.5742 -2.2658 -2.5350
   40CHL1   C15 2904   2.195   3.218   3.851  0.4821  0.3404  0.2417
   40CHL1  H15A 2905   2.293   3.170   3.828  0.0682 -1.2361  1.5248
   40CHL1  H15B 2906   2.209   3.327   3.843  2.0094  0.1489 -0.0198
   40CHL1   C16 2907   2.165   3.173   3.991  0.4130  0.1177 -0.2027
   40CHL1  H16A 2908   2.255   3.136   4.043  0.8144  0.9056 -0.3357
   40CHL1  H16B 2909   2.139   3.265   4.047 -0.3716  0.6685 -1.4220
   40CHL1   C17 2910   2.044   3.073   3.999 -0.2091  0.0080 -0.0129
   40CHL1   H17 2911   1.952   3.133   4.015  0.3294  0.1054  3.8824
   40CHL1   C13 2912   2.035   3.029   3.851 -0.0628 -0.2757 -0.5248
   40CHL1   C18 2913   2.135   2.908   3.822  0.2888 -0.5739 -0.0485
   40CHL1  H18A 2914   2.081   2.816   3.855  1.9700 -1.9748 -0.9899
   40CHL1  H18B 2915   2.173   2.896   3.718  0.0173  0.5747 -0.2940
   40CHL1  H18C 2916   2.233   2.926   3.872  1.5063  0.3507 -2.5961
   40CHL1   C12 2917   1.899   3.008   3.805  0.5164 -0.0447 -0.0892
   40CHL1  H12A 2918   1.869   2.917   3.861  0.5839  0.6984  1.1868
   40CHL1  H12B 2919   1.838   3.097   3.832  2.4737  1.3355  0.0122
   40CHL1   C11 2920   1.885   2.992   3.647 -0.7215  0.4920  0.0179
   40CHL1  H11A 2921   1.930   2.894   3.624  0.6821  1.1419 -0.0827
   40CHL1  H11B 2922   1.778   2.993   3.618 -1.2624  1.7598  1.8433
   40CHL1    C9 2923   1.952   3.107   3.568  0.7191  0.8147 -0.2692
   40CHL1    H9 2924   1.882   3.192   3.587 -1.3051 -0.9836  0.8076
   40CHL1   C10 2925   1.958   3.092   3.414 -0.4982 -0.2619  0.3228
   40CHL1   C19 2926   2.009   2.948   3.379 -0.4762 -0.4825 -0.6768
   40CHL1  H19A 2927   1.928   2.872   3.385  0.2290 -1.1666  0.9475
   40CHL1  H19B 2928   2.062   2.936   3.282  2.5068  2.5242  0.3622
   40CHL1  H19C 2929   2.080   2.920   3.460 -1.1715  1.3663  0.6189
   40CHL1    C1 2930   1.825   3.111   3.353  0.4014 -0.1149  0.3200
   40CHL1   H1A 2931   1.757   3.027   3.378  0.8215 -1.6650 -3.1644
   40CHL1   H1B 2932   1.777   3.209   3.375  0.8096 -0.3678  2.4887
   40CHL1    C2 2933   1.818   3.109   3.192  0.0708 -0.5724 -0.2404
   40CHL1   H2A 2934   1.721   3.151   3.157  1.6204  3.4212 -0.3386
   40CHL1   H2B 2935   1.842   3.009   3.150  3.1608  0.3654 -1.0116
   40CHL1   C20 2936   2.067   2.982   4.115  0.2430 -0.8076 -1.0173
   40CHL1   H20 2937   2.159   2.927   4.084  0.8093  0.1029 -1.0103
   40CHL1   C21 2938   1.955   2.876   4.119  0.5628  0.5361 -0.1953
   40CHL1  H21A 2939   1.851   2.913   4.118 -1.0732 -3.4828  0.5336
   40CHL1  H21B 2940   1.955   2.820   4.215  0.0694  2.0443  0.7084
   40CHL1  H21C 2941   1.964   2.805   4.034  1.7205  0.5055 -0.0661
   40CHL1   C22 2942   2.071   3.050   4.257  0.5870 -0.6043  0.1712
   40CHL1  H22A 2943   2.033   3.154   4.248  0.7079 -0.4904  0.9283
   40CHL1  H22B 2944   1.999   3.000   4.325 -1.0130  0.5714 -0.5870
   40CHL1   C23 2945   2.209   3.061   4.317  0.0387 -0.2255  0.3970
   40CHL1  H23A 2946   2.241   2.955   4.328 -2.3480 -0.9434  1.1420
   40CHL1  H23B 2947   2.282   3.124   4.263 -1.5430  0.3638 -1.1383
   40CHL1   C24 2948   2.207   3.121   4.466  0.9526 -0.2254 -0.2148
   40CHL1  H24A 2949   2.168   3.224   4.451  0.5081 -0.4052 -0.2908
   40CHL1  H24B 2950   2.140   3.051   4.521  0.2880  0.2339 -0.4284
   40CHL1   C25 2951   2.352   3.125   4.534 -0.3603  0.3868  0.7001
   40CHL1   H25 2952   2.394   3.220   4.495 -0.6244 -0.1693 -1.0132
   40CHL1   C26 2953   2.337   3.120   4.688 -0.1371 -0.3501 -0.6564
   40CHL1  H26A 2954   2.294   3.019   4.701  0.9560 -1.2060 -3.0173
   40CHL1  H26B 2955   2.433   3.140   4.740  1.0062  0.1641 -2.8374
   40CHL1  H26C 2956   2.268   3.197   4.730  1.7771  1.9298 -1.4412
   40CHL1   C27 2957   2.449   3.002   4.503 -0.0752 -0.4695 -0.4509
   40CHL1  H27A 2958   2.470   2.986   4.395  0.4544 -1.6808 -0.1865
   40CHL1  H27B 2959   2.542   3.022   4.561 -1.2402 -1.6333  2.0064
   40CHL1  H27C 2960   2.404   2.906   4.535 -0.1572  0.1772  1.5610
   41CHL1    C3 2961   0.207   3.077   3.148 -0.2582  0.8394  0.1017
   41CHL1    H3 2962   0.299   3.024   3.182 -0.0611  0.9733 -0.2145
   41CHL1    O3 2963   0.194   3.081   3.005  0.2445 -0.6780  0.2670
   41CHL1   H3' 2964   0.182   3.174   2.985 -0.2453 -0.6358  0.7546
   41CHL1    C4 2965   0.089   3.008   3.207 -0.3664 -0.0081 -0.0130
   41CHL1   H4A 2966  -0.002   3.057   3.166 -0.2002  0.1745 -0.1660
   41CHL1   H4B 2967   0.090   2.901   3.179  1.0733 -0.3192  1.0851
   41CHL1    C5 2968   0.079   3.026   3.362 -0.1648 -0.1313  1.0723
   41CHL1    C6 2969   0.073   2.918   3.441 -0.1436 -0.5092  0.5780
   41CHL1    H6 2970   0.073   2.817   3.397  0.4583 -0.9731  1.6098
   41CHL1    C7 2971   0.066   2.927   3.590  0.7859 -0.2350 -0.4516
   41CHL1   H7A 2972  -0.015   2.860   3.625  0.6825 -0.0573 -0.3524
   41CHL1   H7B 2973   0.169   2.897   3.620  1.1195  4.0068  3.8908
   41CHL1    C8 2974   0.048   3.066   3.649 -0.2974  0.1518  0.1143
   41CHL1    H8 2975  -0.059   3.096   3.649 -0.1138  0.8439 -0.7040
   41CHL1   C14 2976   0.103   3.071   3.789  0.6630 -0.1277  0.3133
   41CHL1   H14 2977   0.212   3.053   3.776  0.5455  0.3623 -1.6467
   41CHL1   C15 2978   0.051   2.964   3.890 -0.5972  0.2485  0.6464
   41CHL1  H15A 2979  -0.059   2.957   3.876 -0.6617  1.2293  0.6133
   41CHL1  H15B 2980   0.099   2.864   3.879 -0.9502 -0.1608  2.5024
   41CHL1   C16 2981   0.094   3.017   4.026  0.8046  0.1077  0.4803
   41CHL1  H16A 2982  -0.005   3.027   4.077 -0.6054 -2.2011 -1.5916
   41CHL1  H16B 2983   0.169   2.954   4.078  0.7188 -0.7876 -0.4563
   41CHL1   C17 2984   0.153   3.160   3.995 -0.2021 -0.4205 -0.3038
   41CHL1   H17 2985   0.256   3.141   3.958 -0.6204 -0.4166 -1.4912
   41CHL1   C13 2986   0.092   3.203   3.859 -0.8865  0.3668  0.5681
   41CHL1   C18 2987  -0.063   3.242   3.874  0.4895 -0.0863 -0.1407
   41CHL1  H18A 2988  -0.123   3.185   3.947  0.1499 -0.3400 -0.6121
   41CHL1  H18B 2989  -0.064   3.346   3.913  3.1858 -0.4042  1.0093
   41CHL1  H18C 2990  -0.126   3.241   3.783  1.0371  0.9585 -0.5532
   41CHL1   C12 2991   0.173   3.303   3.775 -0.6418 -0.2769 -0.5659
   41CHL1  H12A 2992   0.158   3.402   3.823  1.3067  1.0520 -2.4875
   41CHL1  H12B 2993   0.282   3.282   3.771  0.0050  1.0357  4.0056
   41CHL1   C11 2994   0.126   3.314   3.636 -0.0714  0.3222  0.1334
   41CHL1  H11A 2995   0.019   3.344   3.632 -0.2957 -0.5469 -2.7304
   41CHL1  H11B 2996   0.188   3.383   3.576 -2.9751  1.4579 -1.7550
   41CHL1    C9 2997   0.131   3.172   3.572 -0.6669 -0.4020  0.0397
   41CHL1    H9 2998   0.233   3.133   3.585 -0.3939 -1.1393 -3.3470
   41CHL1   C10 2999   0.101   3.168   3.413 -0.1513  0.3112 -1.0877
   41CHL1   C19 3000  -0.025   3.256   3.396 -0.0755  0.0022  0.4709
   41CHL1  H19A 3001  -0.008   3.363   3.424 -1.2333  0.2974  0.0837
   41CHL1  H19B 3002  -0.072   3.256   3.295  1.7531  0.0425 -0.4258
   41CHL1  H19C 3003  -0.101   3.231   3.472 -0.4295  0.2653  0.2089
   41CHL1    C1 3004   0.222   3.236   3.348  0.1394 -0.7197 -0.0807
   41CHL1   H1A 3005   0.230   3.345   3.366  0.0037 -0.6731 -0.2991
   41CHL1   H1B 3006   0.311   3.183   3.388 -0.8165 -4.3773 -2.2967
   41CHL1    C2 3007   0.219   3.222   3.193 -0.3590  0.4850 -0.2695
   41CHL1   H2A 3008   0.319   3.257   3.160 -0.1954  0.7507  0.5007
   41CHL1   H2B 3009   0.138   3.279   3.142 -1.5896 -0.2041  0.8571
   41CHL1   C20 3010   0.141   3.264   4.110 -0.0923  0.0908 -0.3374
   41CHL1   H20 3011   0.058   3.336   4.093 -0.9806 -0.5010  1.2850
   41CHL1   C21 3012   0.278   3.338   4.099  0.2353 -0.8036  0.2713
   41CHL1  H21A 3013   0.280   3.421   4.173  0.9603 -1.3341  0.8598
   41CHL1  H21B 3014   0.288   3.369   3.993  1.2318 -2.7824 -0.2503
   41CHL1  H21C 3015   0.365   3.275   4.127  1.0919 -0.0473 -0.6098
   41CHL1   C22 3016   0.124   3.202   4.245  0.2796 -0.0299  0.4178
   41CHL1  H22A 3017   0.019   3.164   4.244  0.4002 -0.4759  2.0771
   41CHL1  H22B 3018   0.189   3.116   4.269 -0.7828 -0.7080  0.9145
   41CHL1   C23 3019   0.112   3.305   4.359  0.2434  0.0816 -0.1192
   41CHL1  H23A 3020   0.207   3.362   4.361  0.3289 -0.0162 -1.0296
   41CHL1  H23B 3021   0.032   3.374   4.325  0.2113 -1.3104 -3.2561
   41CHL1   C24 3022   0.064   3.245   4.498 -0.4221 -0.4849  1.1295
   41CHL1  H24A 3023   0.054   3.325   4.575  1.4948  0.6587  0.2569
   41CHL1  H24B 3024  -0.039   3.203   4.489 -0.3621 -0.6242  1.0867
   41CHL1   C25 3025   0.156   3.146   4.571 -0.0215  0.5676  0.6082
   41CHL1   H25 3026   0.179   3.055   4.511 -0.7000 -0.2203  1.5221
   41CHL1   C26 3027   0.286   3.215   4.607 -0.4772  0.1035 -0.2755
   41CHL1  H26A 3028   0.265   3.309   4.663  2.0612 -0.8805  2.5485
   41CHL1  H26B 3029   0.344   3.155   4.680 -0.9318  0.2562  0.2150
   41CHL1  H26C 3030   0.342   3.229   4.512 -1.2273 -0.2498 -0.7861
   41CHL1   C27 3031   0.097   3.081   4.696  0.3210  0.7589  0.4913
   41CHL1  H27A 3032   0.168   3.010   4.743  0.0581 -0.2405 -0.5748
   41CHL1  H27B 3033   0.073   3.163   4.768  3.2108  1.9811  0.1939
   41CHL1  H27C 3034   0.011   3.012   4.679  0.0723  0.4993  2.5073
   42CHL1    C3 3035   3.043   0.998   3.086  0.8106 -0.7290  0.1426
   42CHL1    H3 3036   3.068   0.890   3.083 -0.1009 -0.9731  0.7256
   42CHL1    O3 3037   3.007   1.041   2.956  0.3927  0.0319  0.1706
   42CHL1   H3' 3038   2.972   1.129   2.969 -0.5759 -0.4327  0.8551
   42CHL1    C4 3039   2.922   1.028   3.175 -0.5726  0.5400 -0.5065
   42CHL1   H4A 3040   2.879   1.130   3.169  3.3101  2.3735 -0.5315
   42CHL1   H4B 3041   2.847   0.954   3.140  1.1524 -1.0651 -0.9982
   42CHL1    C5 3042   2.938   1.014   3.321  0.3793 -0.4185 -0.7615
   42CHL1    C6 3043   2.847   0.943   3.401  0.2508  0.6695  0.0321
   42CHL1    H6 3044   2.762   0.885   3.361  0.9672 -1.8541  1.9482
   42CHL1    C7 3045   2.862   0.933   3.553 -0.3056  0.4177  0.6122
   42CHL1   H7A 3046   2.767   0.956   3.607 -0.4577  0.6975  0.2340
   42CHL1   H7B 3047   2.886   0.826   3.572  2.1068  1.0232  1.2706
   42CHL1    C8 3048   2.980   1.009   3.612 -0.5279  0.0867  0.1295
   42CHL1    H8 3049   2.952   1.115   3.630 -2.2018 -0.2708 -0.2372
   42CHL1   C14 3050   3.027   0.947   3.742  0.3374 -0.5343 -0.5370
   42CHL1   H14 3051   3.063   0.846   3.711  0.8118 -0.6167  0.2731
   42CHL1   C15 3052   2.913   0.926   3.850  0.9323  0.2574  0.5721
   42CHL1  H15A 3053   2.854   1.019   3.864  4.9015  3.2393 -0.6262
   42CHL1  H15B 3054   2.854   0.835   3.826  0.2131  1.2440 -1.6413
   42CHL1   C16 3055   2.998   0.919   3.980 -0.8637 -0.2206  0.2520
   42CHL1  H16A 3056   2.977   1.002   4.052 -1.0783 -1.1235  1.2682
   42CHL1  H16B 3057   2.977   0.824   4.035 -0.9775  0.1911  0.9403
   42CHL1   C17 3058   3.146   0.935   3.943  0.9913 -0.3826 -0.1017
   42CHL1   H17 3059   3.182   0.832   3.924  0.1843 -0.8326  0.7218
   42CHL1   C13 3060   3.144   1.017   3.818  0.1988  0.4869  0.2305
   42CHL1   C18 3061   3.114   1.166   3.840  0.3003  0.6362  0.4166
   42CHL1  H18A 3062   3.194   1.221   3.894 -0.3723  5.0290 -2.5512
   42CHL1  H18B 3063   3.100   1.214   3.741  0.0992  1.5401  0.8739
   42CHL1  H18C 3064   3.018   1.192   3.889  0.5852  0.7154  0.9420
   42CHL1   C12 3065   3.261   1.003   3.725 -0.1100 -0.4474 -0.0975
   42CHL1  H12A 3066   3.350   1.056   3.764 -0.2836 -1.3877  1.7059
   42CHL1  H12B 3067   3.289   0.895   3.719 -1.5243 -0.8860  0.7772
   42CHL1   C11 3068   3.227   1.064   3.588  0.1517  0.0281 -0.5522
   42CHL1  H11A 3069   3.217   1.175   3.593  0.4175  0.0089  0.6698
   42CHL1  H11B 3070   3.310   1.044   3.517  0.9359  4.2123 -1.0770
   42CHL1    C9 3071   3.101   1.014   3.514 -0.4348 -0.0361 -0.4138
   42CHL1    H9 3072   3.120   0.905   3.499 -1.3518 -0.8000  3.0092
   42CHL1   C10 3073   3.072   1.072   3.379  0.7663 -0.3582  0.1356
   42CHL1   C19 3074   3.039   1.223   3.400 -0.1938 -0.2109  0.6447
   42CHL1  H19A 3075   2.963   1.243   3.478 -1.6457 -3.1825  0.1426
   42CHL1  H19B 3076   3.132   1.280   3.421 -0.7357  1.3605 -1.0127
   42CHL1  H19C 3077   3.000   1.271   3.308 -0.9192 -1.3799  0.3129
   42CHL1    C1 3078   3.193   1.052   3.281  0.6184 -0.2450 -0.5590
   42CHL1   H1A 3079   3.275   1.123   3.309 -0.1755  0.6153 -0.3830
   42CHL1   H1B 3080   3.230   0.949   3.300  0.5882 -0.4428 -1.5288
   42CHL1    C2 3081   3.166   1.072   3.135  0.9245  0.1726 -0.2751
   42CHL1   H2A 3082   3.254   1.034   3.080  1.0390 -0.4893  0.3464
   42CHL1   H2B 3083   3.162   1.183   3.123  1.5426  0.1411 -0.8236
   42CHL1   C20 3084   3.227   0.985   4.067  0.0578 -0.4166 -0.2491
   42CHL1   H20 3085   3.191   1.084   4.103 -1.2654 -0.8966 -0.2233
   42CHL1   C21 3086   3.373   1.012   4.033  0.0047  0.1683  0.3135
   42CHL1  H21A 3087   3.407   0.913   3.997 -0.8217 -0.3154  0.8431
   42CHL1  H21B 3088   3.430   1.054   4.119  1.0990  1.0580 -0.8098
   42CHL1  H21C 3089   3.358   1.090   3.955 -2.2773 -0.2271  0.2857
   42CHL1   C22 3090   3.233   0.882   4.185 -0.7047 -0.6522  0.5475
   42CHL1  H22A 3091   3.300   0.929   4.261 -1.8096  0.8955  0.6090
   42CHL1  H22B 3092   3.129   0.895   4.222 -0.0562  2.2909  1.6279
   42CHL1   C23 3093   3.269   0.739   4.148  0.2132 -0.2988 -0.4663
   42CHL1  H23A 3094   3.195   0.697   4.077  0.5788 -1.9826  0.1100
   42CHL1  H23B 3095   3.369   0.736   4.099  1.2417  0.0781  1.5019
   42CHL1   C24 3096   3.293   0.640   4.264  0.2572 -0.2892  0.0184
   42CHL1  H24A 3097   3.335   0.694   4.352 -1.3455  2.0181 -0.5514
   42CHL1  H24B 3098   3.190   0.609   4.292  0.3817 -0.4648  0.2852
   42CHL1   C25 3099   3.380   0.516   4.230  0.5092 -0.1821  0.4247
   42CHL1   H25 3100   3.480   0.557   4.206 -0.5283  1.1998 -1.8250
   42CHL1   C26 3101   3.394   0.425   4.353  0.2145  0.0402 -0.0083
   42CHL1  H26A 3102   3.307   0.356   4.351 -0.1222  0.4155  1.1485
   42CHL1  H26B 3103   3.489   0.366   4.350  1.5008  1.8525  1.9077
   42CHL1  H26C 3104   3.396   0.493   4.441  1.9995  0.7679 -0.5541
   42CHL1   C27 3105   3.333   0.436   4.103 -0.4880 -0.0141 -1.1182
   42CHL1  H27A 3106   3.388   0.341   4.083 -0.2593 -0.0770 -0.2156
   42CHL1  H27B 3107   3.225   0.417   4.118 -0.3688  0.4584  0.5182
   42CHL1  H27C 3108   3.334   0.508   4.018  1.8339  3.0033  1.2278
   43CHL1    C3 3109   4.649   0.139   3.492  0.0806  0.8412 -0.3467
   43CHL1    H3 3110   4.621   0.038   3.530 -0.4010  0.8223 -0.7468
   43CHL1    O3 3111   4.612   0.159   3.355 -0.8353  0.1031  0.0446
   43CHL1   H3' 3112   4.677   0.113   3.302 -1.1004  0.5612 -0.6922
   43CHL1    C4 3113   4.589   0.244   3.588  0.8128 -0.1362 -0.2004
   43CHL1   H4A 3114   4.585   0.349   3.553 -0.9610  0.7665  2.4166
   43CHL1   H4B 3115   4.478   0.242   3.595  0.3602  4.4805 -2.2000
   43CHL1    C5 3116   4.642   0.244   3.726  0.1535  0.6793  0.7936
   43CHL1    C6 3117   4.561   0.243   3.838 -0.2814  0.7355  0.0398
   43CHL1    H6 3118   4.453   0.252   3.822 -0.3372 -0.8948 -0.7332
   43CHL1    C7 3119   4.620   0.245   3.977  0.6869 -0.5606  0.0684
   43CHL1   H7A 3120   4.558   0.310   4.042  0.7487  2.1633 -2.3833
   43CHL1   H7B 3121   4.621   0.139   4.010 -2.0285 -1.7490 -3.1007
   43CHL1    C8 3122   4.765   0.300   3.984 -0.5370 -0.5881 -0.0543
   43CHL1    H8 3123   4.773   0.404   3.947  0.4717 -0.3334  0.8233
   43CHL1   C14 3124   4.824   0.279   4.117  0.1265 -0.0805  0.4540
   43CHL1   H14 3125   4.821   0.170   4.141 -1.6467 -0.5719 -1.7534
   43CHL1   C15 3126   4.749   0.355   4.229  0.3859 -0.5295 -0.3393
   43CHL1  H15A 3127   4.736   0.457   4.185  1.8042 -0.5905 -0.9468
   43CHL1  H15B 3128   4.649   0.311   4.250  0.1731 -0.7468 -1.6653
   43CHL1   C16 3129   4.850   0.364   4.344  0.7109 -0.6965  0.4192
   43CHL1  H16A 3130   4.867   0.472   4.363 -0.0406 -0.7369  1.4044
   43CHL1  H16B 3131   4.821   0.316   4.440 -0.5955  2.0074  1.4899
   43CHL1   C17 3132   4.980   0.291   4.286  0.0295 -0.0706 -0.7022
   43CHL1   H17 3133   4.984   0.183   4.309  1.8313  0.4023  1.5271
   43CHL1   C13 3134   4.969   0.300   4.135 -0.5030 -1.0061 -0.2487
   43CHL1   C18 3135   4.988   0.455   4.087  0.2996 -0.6564  0.0225
   43CHL1  H18A 3136   4.935   0.529   4.151 -0.5478 -0.4182 -0.9245
   43CHL1  H18B 3137   5.096   0.479   4.090  0.2515 -0.5231  1.4433
   43CHL1  H18C 3138   4.957   0.469   3.981 -1.4578  0.6961  0.6530
   43CHL1   C12 3139   5.049   0.201   4.045 -0.1812 -0.2465 -0.1295
   43CHL1  H12A 3140   5.159   0.217   4.048 -0.1374 -0.5955  0.0431
   43CHL1  H12B 3141   5.030   0.095   4.072  0.4254  0.2907  2.7368
   43CHL1   C11 3142   5.003   0.219   3.892 -0.5979  0.3617 -0.3857
   43CHL1  H11A 3143   5.057   0.310   3.858  2.2541 -1.5105 -1.2901
   43CHL1  H11B 3144   5.056   0.144   3.829  1.5453  2.1032 -0.7730
   43CHL1    C9 3145   4.846   0.223   3.875 -0.3817  0.1122  0.4275
   43CHL1    H9 3146   4.826   0.116   3.898 -0.5968  0.2947  1.0945
   43CHL1   C10 3147   4.794   0.242   3.734 -0.1506 -0.0055  0.4860
   43CHL1   C19 3148   4.849   0.377   3.679 -0.1871  0.5367 -0.3543
   43CHL1  H19A 3149   4.944   0.350   3.629 -0.3781 -1.5366  0.2983
   43CHL1  H19B 3150   4.784   0.413   3.596 -0.2598  0.1234 -0.4786
   43CHL1  H19C 3151   4.859   0.456   3.757 -0.3125  0.5288 -0.3297
   43CHL1    C1 3152   4.853   0.131   3.638 -0.2209  1.0035  0.8937
   43CHL1   H1A 3153   4.962   0.138   3.623 -0.0696 -1.5309  0.4117
   43CHL1   H1B 3154   4.834   0.029   3.677 -1.7940  1.0482  0.3316
   43CHL1    C2 3155   4.805   0.133   3.492 -0.2145  0.6540 -0.3850
   43CHL1   H2A 3156   4.849   0.054   3.428 -0.1910  0.1483  0.2480
   43CHL1   H2B 3157   4.838   0.226   3.442 -2.0550  0.6043 -1.8204
   43CHL1   C20 3158   5.109   0.349   4.343 -0.5037 -0.0898  0.6897
   43CHL1   H20 3159   5.132   0.449   4.301  2.7125 -1.3795 -0.9110
   43CHL1   C21 3160   5.236   0.267   4.286 -0.3184  0.4070 -0.7613
   43CHL1  H21A 3161   5.325   0.303   4.342 -2.1227  0.3209  2.4150
   43CHL1  H21B 3162   5.246   0.303   4.181 -0.7462 -1.2525 -1.3912
   43CHL1  H21C 3163   5.229   0.158   4.301 -0.7512  0.8333  3.4237
   43CHL1   C22 3164   5.112   0.357   4.493 -0.6956  0.5606  0.9665
   43CHL1  H22A 3165   5.204   0.408   4.531 -0.5180  1.0591 -0.1006
   43CHL1  H22B 3166   5.026   0.411   4.538 -0.6858  2.5312 -1.1721
   43CHL1   C23 3167   5.105   0.215   4.552  0.3502 -0.2777 -0.3202
   43CHL1  H23A 3168   5.000   0.181   4.541 -0.1643  0.8241  0.9025
   43CHL1  H23B 3169   5.172   0.142   4.502  1.3849 -0.0161  0.6304
   43CHL1   C24 3170   5.142   0.210   4.702  0.2455 -0.1868  0.4677
   43CHL1  H24A 3171   5.229   0.270   4.736 -0.1051  0.5412  0.0874
   43CHL1  H24B 3172   5.056   0.260   4.750 -1.6049 -0.5499 -2.2294
   43CHL1   C25 3173   5.154   0.058   4.750 -0.0278  0.3581 -0.0626
   43CHL1   H25 3174   5.069   0.004   4.702 -0.3494  0.2003  0.6836
   43CHL1   C26 3175   5.289  -0.004   4.701  0.7566 -0.3309  0.4272
   43CHL1  H26A 3176   5.332   0.035   4.606 -0.8103 -0.0846 -0.2150
   43CHL1  H26B 3177   5.366  -0.000   4.780  0.3990 -1.9543  0.9034
   43CHL1  H26C 3178   5.279  -0.114   4.689 -0.1916 -0.0118 -2.5768
   43CHL1   C27 3179   5.126   0.050   4.894  0.4191  0.1236 -0.0008
   43CHL1  H27A 3180   5.029   0.090   4.932 -0.1091 -2.2727  1.4221
   43CHL1  H27B 3181   5.115  -0.051   4.939  2.0018  0.4238  1.1667
   43CHL1  H27C 3182   5.202   0.106   4.953  1.8884 -1.2920 -0.4681
   44CHL1    C3 3183   2.754   3.486   3.153  0.4372  0.1382  0.6180
   44CHL1    H3 3184   2.776   3.378   3.141 -0.5539 -0.1528  1.3018
   44CHL1    O3 3185   2.738   3.529   3.015 -0.2838 -0.2352 -0.1643
   44CHL1   H3' 3186   2.827   3.536   2.982 -0.9519 -0.0003 -2.0071
   44CHL1    C4 3187   2.620   3.511   3.238 -0.2261  0.8523  0.4123
   44CHL1   H4A 3188   2.596   3.620   3.246  3.0234  1.8056 -0.9270
   44CHL1   H4B 3189   2.540   3.460   3.181 -0.4627  0.9079  0.6935
   44CHL1    C5 3190   2.643   3.462   3.380 -0.5033 -0.4617  0.0679
   44CHL1    C6 3191   2.567   3.370   3.434  1.0287 -0.5122  0.5852
   44CHL1    H6 3192   2.489   3.320   3.374  2.0918 -0.9351 -0.4875
   44CHL1    C7 3193   2.566   3.337   3.586 -0.0595  0.0672 -0.4904
   44CHL1   H7A 3194   2.464   3.347   3.628  0.2199  0.7231  0.0612
   44CHL1   H7B 3195   2.614   3.239   3.609  0.5748  0.0259 -1.9272
   44CHL1    C8 3196   2.652   3.440   3.673  0.0777 -0.2465 -0.4647
   44CHL1    H8 3197   2.581   3.526   3.677  0.2249 -0.1058 -0.7921
   44CHL1   C14 3198   2.676   3.394   3.812  0.0691 -0.3940 -1.5205
   44CHL1   H14 3199   2.743   3.306   3.803  2.4833  0.9478  1.4465
   44CHL1   C15 3200   2.552   3.332   3.891 -0.0024 -0.3712 -0.3025
   44CHL1  H15A 3201   2.460   3.388   3.863  0.0816 -1.1201 -2.2531
   44CHL1  H15B 3202   2.541   3.225   3.865  0.2778 -0.8721  1.5145
   44CHL1   C16 3203   2.589   3.349   4.032 -0.1025 -0.0587 -1.0474
   44CHL1  H16A 3204   2.519   3.425   4.074 -1.1214 -0.8717 -1.2173
   44CHL1  H16B 3205   2.593   3.260   4.098  1.8484 -0.5841 -1.8105
   44CHL1   C17 3206   2.733   3.410   4.040 -0.5225  0.1069 -0.5919
   44CHL1   H17 3207   2.805   3.327   4.025  0.7863  0.1554  3.9739
   44CHL1   C13 3208   2.751   3.488   3.905  0.7696 -0.5580 -0.3544
   44CHL1   C18 3209   2.675   3.617   3.934  0.0338 -0.7900  0.3303
   44CHL1  H18A 3210   2.585   3.603   3.997 -1.8940 -0.1964 -2.1387
   44CHL1  H18B 3211   2.743   3.681   3.994 -3.2521  1.3900  1.9814
   44CHL1  H18C 3212   2.648   3.675   3.844 -0.5339  0.4850  1.2998
   44CHL1   C12 3213   2.892   3.511   3.839  0.3704  0.6381 -0.3292
   44CHL1  H12A 3214   2.954   3.582   3.898 -0.1191  1.3478 -0.6576
   44CHL1  H12B 3215   2.955   3.422   3.820 -0.3288  0.3170 -1.2620
   44CHL1   C11 3216   2.875   3.565   3.698  1.0332 -0.9648  1.0883
   44CHL1  H11A 3217   2.827   3.664   3.712  2.6213 -0.3250  2.2820
   44CHL1  H11B 3218   2.973   3.584   3.650  0.6314  0.8864  0.9086
   44CHL1    C9 3219   2.780   3.481   3.606  0.1389 -0.4067  0.3832
   44CHL1    H9 3220   2.829   3.383   3.588 -1.0178 -1.3911  2.2010
   44CHL1   C10 3221   2.750   3.536   3.462  0.0153  0.5022  0.0664
   44CHL1   C19 3222   2.708   3.685   3.480 -0.7207  0.1666  0.4537
   44CHL1  H19A 3223   2.685   3.721   3.377  1.6406 -0.7570 -0.4560
   44CHL1  H19B 3224   2.613   3.691   3.537 -0.3294  0.8249  1.0592
   44CHL1  H19C 3225   2.791   3.741   3.528  0.6518 -3.8322  3.2018
   44CHL1    C1 3226   2.884   3.514   3.378  0.6833 -0.7600 -0.2592
   44CHL1   H1A 3227   2.966   3.568   3.430 -1.9863 -0.5767  4.3235
   44CHL1   H1B 3228   2.917   3.409   3.396  2.2772  0.0927  2.3848
   44CHL1    C2 3229   2.875   3.548   3.229  0.1736 -0.0509 -0.2269
   44CHL1   H2A 3230   2.973   3.525   3.182  0.5612 -1.1265  1.0478
   44CHL1   H2B 3231   2.864   3.658   3.223  1.2550  0.1027  0.3558
   44CHL1   C20 3232   2.769   3.477   4.177 -0.0729  0.8149  0.4657
   44CHL1   H20 3233   2.700   3.565   4.175 -0.7304  0.4233 -3.8212
   44CHL1   C21 3234   2.914   3.521   4.184 -0.2457 -0.2299  0.0971
   44CHL1  H21A 3235   2.945   3.579   4.273 -1.5955 -3.6923  3.0904
   44CHL1  H21B 3236   2.943   3.593   4.104 -1.9611  2.8361  2.0183
   44CHL1  H21C 3237   2.974   3.428   4.171  0.5672  0.4549 -1.3001
   44CHL1   C22 3238   2.727   3.382   4.298 -0.4717  0.3895  0.0668
   44CHL1  H22A 3239   2.622   3.346   4.290  0.0616 -1.2727  0.1840
   44CHL1  H22B 3240   2.800   3.298   4.293 -0.2007  0.6737 -2.5312
   44CHL1   C23 3241   2.746   3.458   4.431 -0.3269 -0.2038  0.3930
   44CHL1  H23A 3242   2.850   3.498   4.434  0.0144 -0.7783 -2.0470
   44CHL1  H23B 3243   2.679   3.547   4.430 -0.6215 -0.3914  1.6259
   44CHL1   C24 3244   2.729   3.376   4.561  0.0729 -0.5021  0.1480
   44CHL1  H24A 3245   2.626   3.338   4.546 -0.1220 -0.2610  0.8419
   44CHL1  H24B 3246   2.801   3.291   4.560 -0.9673 -1.4081 -1.5181
   44CHL1   C25 3247   2.729   3.453   4.696 -0.6725 -0.1707 -0.0566
   44CHL1   H25 3248   2.831   3.496   4.711 -0.9225  0.9523 -1.4182
   44CHL1   C26 3249   2.632   3.568   4.712 -0.3915 -0.1912  0.7023
   44CHL1  H26A 3250   2.604   3.595   4.817 -3.4018 -1.2137  0.2560
   44CHL1  H26B 3251   2.656   3.660   4.655 -1.5746  1.3686  2.5482
   44CHL1  H26C 3252   2.539   3.534   4.662 -0.9666 -0.1314  1.6991
   44CHL1   C27 3253   2.714   3.346   4.811  0.7084  0.4116 -0.0007
   44CHL1  H27A 3254   2.613   3.300   4.813  0.4382  0.8575 -1.7993
   44CHL1  H27B 3255   2.781   3.260   4.787  0.5293 -0.4712  2.4320
   44CHL1  H27C 3256   2.745   3.389   4.909 -0.6454  0.9524  0.2157
   45CHL1    C3 3257   4.080   5.607   2.739 -0.4908 -0.5244 -0.3382
   45CHL1    H3 3258   4.184   5.571   2.755 -0.8900 -1.9864 -0.8640
   45CHL1    O3 3259   4.072   5.636   2.596  0.1579  0.2872  0.1380
   45CHL1   H3' 3260   3.982   5.664   2.579  0.9330  1.8496 -1.7584
   45CHL1    C4 3261   3.967   5.506   2.787  0.3286 -0.1317  0.9503
   45CHL1   H4A 3262   3.866   5.548   2.769  0.6792 -0.0305 -1.0344
   45CHL1   H4B 3263   3.988   5.416   2.724  0.1720 -0.4102  1.2966
   45CHL1    C5 3264   3.982   5.479   2.934 -0.2578  0.0773 -0.2872
   45CHL1    C6 3265   4.002   5.355   2.982  0.0761  0.0656  0.4225
   45CHL1    H6 3266   4.016   5.259   2.931 -0.6150 -0.0903  0.5165
   45CHL1    C7 3267   3.994   5.327   3.125 -0.4962  0.0195 -0.5010
   45CHL1   H7A 3268   3.927   5.242   3.150 -3.1733  1.6909 -1.5838
   45CHL1   H7B 3269   4.100   5.309   3.154 -0.3005  1.9614  0.1521
   45CHL1    C8 3270   3.932   5.434   3.219 -0.3516  0.0138 -0.3040
   45CHL1    H8 3271   3.823   5.435   3.196 -0.7157  1.5560  1.3465
   45CHL1   C14 3272   3.962   5.400   3.362  0.2488 -0.4389 -0.4984
   45CHL1   H14 3273   4.071   5.388   3.378  0.4641  1.9061  0.1091
   45CHL1   C15 3274   3.928   5.262   3.423 -0.3053 -0.1576 -0.3958
   45CHL1  H15A 3275   3.825   5.244   3.385 -1.0331  1.1834  0.8114
   45CHL1  H15B 3276   4.001   5.184   3.395 -0.9090 -0.6897 -0.5162
   45CHL1   C16 3277   3.923   5.291   3.568 -0.1712  0.8730  0.3937
   45CHL1  H16A 3278   3.819   5.267   3.600 -0.4832  0.1825 -1.0529
   45CHL1  H16B 3279   3.993   5.228   3.626 -1.6535 -0.2343  1.0442
   45CHL1   C17 3280   3.961   5.435   3.593  0.3569 -0.1630 -0.3005
   45CHL1   H17 3281   4.070   5.446   3.611  0.3374 -0.5747  0.0843
   45CHL1   C13 3282   3.920   5.508   3.458 -0.3067 -0.2826  0.4146
   45CHL1   C18 3283   3.770   5.534   3.442 -0.5565  0.2802 -0.2410
   45CHL1  H18A 3284   3.739   5.561   3.339  0.0290  1.1936 -0.1879
   45CHL1  H18B 3285   3.714   5.445   3.479 -2.8347  1.5961 -0.3631
   45CHL1  H18C 3286   3.736   5.620   3.503  2.7106  1.1733  0.5167
   45CHL1   C12 3287   3.997   5.632   3.425 -0.3497  0.9441 -0.0680
   45CHL1  H12A 3288   3.985   5.707   3.506  0.5116  1.0693 -0.0457
   45CHL1  H12B 3289   4.103   5.602   3.434 -0.5304 -0.3050 -1.6575
   45CHL1   C11 3290   3.969   5.678   3.282 -0.6492 -0.3267 -0.0911
   45CHL1  H11A 3291   3.864   5.715   3.279  0.0732  1.8481 -2.6320
   45CHL1  H11B 3292   4.039   5.759   3.254  1.2802 -2.1892 -0.9044
   45CHL1    C9 3293   3.998   5.561   3.182 -0.6629 -0.6180  0.5973
   45CHL1    H9 3294   4.107   5.541   3.189 -1.1622 -3.5953  1.0182
   45CHL1   C10 3295   3.964   5.598   3.029  0.0731 -0.3764  0.2726
   45CHL1   C19 3296   3.815   5.649   3.030 -0.3295 -0.4812 -0.4654
   45CHL1  H19A 3297   3.772   5.659   2.928 -0.9835 -0.7800 -0.2229
   45CHL1  H19B 3298   3.752   5.581   3.091 -0.7538  1.4711  1.3973
   45CHL1  H19C 3299   3.811   5.750   3.077 -1.8555 -1.3900  1.4795
   45CHL1    C1 3300   4.061   5.716   2.978 -0.4508  0.2804 -0.3056
   45CHL1   H1A 3301   4.049   5.815   3.027  0.8569  0.4227 -0.2279
   45CHL1   H1B 3302   4.168   5.688   2.995  0.0668  1.0512 -2.0300
   45CHL1    C2 3303   4.059   5.739   2.825  0.3197 -0.2141  0.2225
   45CHL1   H2A 3304   4.129   5.819   2.794  1.7217 -0.4276  2.6096
   45CHL1   H2B 3305   3.956   5.773   2.800  0.1436 -0.1026  1.0728
   45CHL1   C20 3306   3.902   5.491   3.728  0.1036 -0.6481  0.6581
   45CHL1   H20 3307   3.793   5.466   3.729 -0.0459 -0.0701  0.0356
   45CHL1   C21 3308   3.901   5.647   3.743 -0.2318  0.3125 -0.0039
   45CHL1  H21A 3309   3.854   5.679   3.839  1.3708  0.9919  0.5881
   45CHL1  H21B 3310   3.829   5.695   3.674 -1.0391 -1.5384 -0.5069
   45CHL1  H21C 3311   4.000   5.694   3.727 -0.0625 -0.3842 -1.0548
   45CHL1   C22 3312   3.968   5.432   3.854  0.2213  0.4352 -0.1459
   45CHL1  H22A 3313   4.001   5.328   3.833 -2.7988 -1.1083  1.9858
   45CHL1  H22B 3314   4.062   5.485   3.879  1.5049 -1.4973 -0.6128
   45CHL1   C23 3315   3.875   5.429   3.973 -0.3866  0.2598  0.1510
   45CHL1  H23A 3316   3.831   5.527   4.002 -3.1536 -1.2523  1.4266
   45CHL1  H23B 3317   3.782   5.372   3.949 -0.4626 -0.4940  2.0623
   45CHL1   C24 3318   3.949   5.380   4.097 -0.7305  0.9242 -0.2586
   45CHL1  H24A 3319   3.990   5.279   4.076 -0.8735  0.8734 -0.2929
   45CHL1  H24B 3320   4.041   5.439   4.114 -0.8274  0.9199  0.3178
   45CHL1   C25 3321   3.864   5.381   4.229  0.6795 -0.7995 -1.2062
   45CHL1   H25 3322   3.761   5.348   4.204  0.4832 -1.8452  0.7675
   45CHL1   C26 3323   3.903   5.283   4.336  0.4395  0.3603 -0.5224
   45CHL1  H26A 3324   3.847   5.302   4.430  0.4419  1.2215 -0.6844
   45CHL1  H26B 3325   3.888   5.178   4.306  0.2270  0.3464 -0.3642
   45CHL1  H26C 3326   4.007   5.302   4.371  0.7293 -1.9340  0.0156
   45CHL1   C27 3327   3.854   5.522   4.274  0.0729  0.2355 -0.1424
   45CHL1  H27A 3328   3.834   5.593   4.191 -1.7707 -2.1510 -1.9196
   45CHL1  H27B 3329   3.778   5.530   4.355 -0.4148  0.3264 -0.6008
   45CHL1  H27C 3330   3.951   5.546   4.323 -1.0644  0.1808  2.2726
   46CHL1    C3 3331   6.863   4.336   3.087  0.1880 -0.1216 -0.1512
   46CHL1    H3 3332   6.819   4.434   3.114  1.7316 -0.1417  2.7310
   46CHL1    O3 3333   6.872   4.310   2.947 -0.3011 -0.0866  0.0230
   46CHL1   H3' 3334   6.960   4.272   2.932  0.1267  0.6529  0.6125
   46CHL1    C4 3335   7.002   4.316   3.144  0.5564 -0.2108 -0.1612
   46CHL1   H4A 3336   7.049   4.218   3.121 -1.7588 -1.0962 -1.5600
   46CHL1   H4B 3337   7.070   4.390   3.097  1.8712 -0.9749  0.5022
   46CHL1    C5 3338   6.997   4.338   3.296 -0.3495  0.9445 -0.1097
   46CHL1    C6 3339   7.076   4.432   3.353 -0.4333  0.4759  0.5612
   46CHL1    H6 3340   7.143   4.493   3.290 -1.4827  1.8063  0.6808
   46CHL1    C7 3341   7.081   4.454   3.501 -0.4876 -0.2520 -0.6981
   46CHL1   H7A 3342   7.187   4.474   3.529 -0.2905 -1.2293 -0.6890
   46CHL1   H7B 3343   7.022   4.547   3.517  0.5400  0.1937  0.6861
   46CHL1    C8 3344   7.027   4.328   3.579 -0.4600  0.5488  0.1187
   46CHL1    H8 3345   7.103   4.248   3.560  1.8645  2.2445  1.6747
   46CHL1   C14 3346   7.021   4.354   3.725 -0.8332  0.2568 -0.1996
   46CHL1   H14 3347   6.969   4.451   3.738 -2.1336 -0.3134 -0.9374
   46CHL1   C15 3348   7.154   4.373   3.802 -0.4196  0.0031 -0.6587
   46CHL1  H15A 3349   7.233   4.309   3.757 -2.5215 -2.8426 -0.5815
   46CHL1  H15B 3350   7.200   4.472   3.785  0.1237 -0.1897 -0.3398
   46CHL1   C16 3351   7.119   4.354   3.950 -0.2493  0.1651  0.3000
   46CHL1  H16A 3352   7.197   4.290   3.997  1.0082  0.6587 -1.0553
   46CHL1  H16B 3353   7.118   4.458   3.989 -0.4968  1.2359 -2.3887
   46CHL1   C17 3354   6.975   4.309   3.956  0.2910  0.1835 -0.7066
   46CHL1   H17 3355   6.909   4.398   3.958  1.5381  1.1231  1.3171
   46CHL1   C13 3356   6.946   4.251   3.814  0.0205  0.0301 -0.2661
   46CHL1   C18 3357   7.008   4.111   3.800  0.8991 -0.0962 -0.1316
   46CHL1  H18A 3358   6.932   4.039   3.836 -0.5691  0.8387 -1.2627
   46CHL1  H18B 3359   7.026   4.078   3.695  0.2854 -2.3742  0.4376
   46CHL1  H18C 3360   7.101   4.100   3.859  0.3145  1.7309  1.2320
   46CHL1   C12 3361   6.802   4.243   3.760 -0.5861 -0.5558 -1.1451
   46CHL1  H12A 3362   6.745   4.154   3.793 -0.1518 -0.7124 -0.8068
   46CHL1  H12B 3363   6.758   4.345   3.769  1.5709  0.2707  1.2443
   46CHL1   C11 3364   6.795   4.216   3.608  0.5264  0.0163  0.2170
   46CHL1  H11A 3365   6.815   4.107   3.605  0.6859 -0.0743  2.6495
   46CHL1  H11B 3366   6.691   4.222   3.568 -0.0457  0.8906  1.7577
   46CHL1    C9 3367   6.888   4.302   3.519  0.2183 -0.1374  0.1459
   46CHL1    H9 3368   6.845   4.404   3.527  1.1973  0.2023  1.4397
   46CHL1   C10 3369   6.895   4.254   3.375 -0.4317  0.6417  0.5272
   46CHL1   C19 3370   6.935   4.105   3.372  0.1998 -0.4298  0.1006
   46CHL1  H19A 3371   6.848   4.037   3.380  0.8015 -1.2919 -0.6247
   46CHL1  H19B 3372   6.990   4.088   3.277 -0.3439  1.9136 -0.7162
   46CHL1  H19C 3373   7.010   4.079   3.450  2.4322  1.0840 -1.4097
   46CHL1    C1 3374   6.760   4.271   3.299 -0.4806 -0.4818 -0.0981
   46CHL1   H1A 3375   6.703   4.191   3.350  1.7366 -0.2243  3.0836
   46CHL1   H1B 3376   6.703   4.360   3.331  1.8867  0.4958  1.7139
   46CHL1    C2 3377   6.767   4.237   3.151 -0.4548 -0.2643  0.2609
   46CHL1   H2A 3378   6.667   4.262   3.108  0.5706  1.2650 -1.3903
   46CHL1   H2B 3379   6.795   4.132   3.129  1.5593  0.7691 -2.7981
   46CHL1   C20 3380   6.930   4.227   4.082 -0.7996 -0.0167  0.6179
   46CHL1   H20 3381   6.948   4.121   4.054 -1.0581  0.1498 -0.2192
   46CHL1   C21 3382   6.779   4.225   4.098 -0.1894 -0.3835 -0.8346
   46CHL1  H21A 3383   6.750   4.184   4.198  0.2189  1.5451  0.1084
   46CHL1  H21B 3384   6.728   4.173   4.014 -2.7108 -0.0784  0.3944
   46CHL1  H21C 3385   6.744   4.330   4.090 -1.3647 -0.4669  1.9610
   46CHL1   C22 3386   7.000   4.266   4.208  0.1955  0.1578  0.1207
   46CHL1  H22A 3387   6.984   4.200   4.295  0.0077 -0.0130 -0.0439
   46CHL1  H22B 3388   7.109   4.252   4.190  0.2561 -0.0115  0.6227
   46CHL1   C23 3389   6.971   4.408   4.252 -0.6263 -0.1364 -0.2658
   46CHL1  H23A 3390   6.978   4.468   4.159 -1.2052 -1.5048 -1.2301
   46CHL1  H23B 3391   6.868   4.427   4.290 -0.4830  0.1666 -0.0141
   46CHL1   C24 3392   7.070   4.450   4.364  0.3171  0.3549 -0.0017
   46CHL1  H24A 3393   7.051   4.391   4.456 -1.0339 -0.5001 -0.8047
   46CHL1  H24B 3394   7.168   4.410   4.332  0.0232 -0.6755  0.3583
   46CHL1   C25 3395   7.078   4.601   4.395  0.5849  0.2042 -0.0474
   46CHL1   H25 3396   7.149   4.615   4.479 -2.1967 -2.2103  2.9738
   46CHL1   C26 3397   7.126   4.688   4.275 -0.9252  0.3296 -0.0712
   46CHL1  H26A 3398   7.158   4.783   4.322 -2.1971  0.6739  0.1412
   46CHL1  H26B 3399   7.201   4.633   4.215 -1.3640 -1.3537  0.8583
   46CHL1  H26C 3400   7.035   4.706   4.213 -0.3010  0.9585 -0.8236
   46CHL1   C27 3401   6.949   4.668   4.445 -0.5079 -0.1521  0.3544
   46CHL1  H27A 3402   6.961   4.778   4.457 -0.4461  0.0768 -1.5346
   46CHL1  H27B 3403   6.867   4.651   4.372 -0.5289 -2.3227  0.7960
   46CHL1  H27C 3404   6.915   4.612   4.535  2.4779 -3.1560 -0.1400
   47CHL1    C3 3405   5.291   5.296   2.854 -0.1021  0.2455  0.4927
   47CHL1    H3 3406   5.264   5.398   2.888 -1.5038 -0.6858  2.3254
   47CHL1    O3 3407   5.276   5.276   2.713  0.2678  0.2228 -0.5409
   47CHL1   H3' 3408   5.299   5.184   2.699 -1.9816 -0.2072 -1.9425
   47CHL1    C4 3409   5.440   5.265   2.894  0.1101  0.4003 -0.2493
   47CHL1   H4A 3410   5.468   5.166   2.851 -1.4019 -0.7475  1.2911
   47CHL1   H4B 3411   5.496   5.343   2.838 -0.5366 -0.6695 -2.4746
   47CHL1    C5 3412   5.471   5.266   3.044  0.0166  0.2793 -0.0012
   47CHL1    C6 3413   5.573   5.332   3.093 -0.5409  0.3280  0.3277
   47CHL1    H6 3414   5.643   5.382   3.025  1.6876 -0.0346  2.2302
   47CHL1    C7 3415   5.603   5.338   3.241  0.3886 -0.3061  0.9578
   47CHL1   H7A 3416   5.711   5.317   3.254  0.3027 -2.5092 -1.1963
   47CHL1   H7B 3417   5.587   5.444   3.271 -1.6765 -0.2605 -0.1298
   47CHL1    C8 3418   5.520   5.240   3.324 -0.2665 -0.3872 -0.3172
   47CHL1    H8 3419   5.574   5.143   3.319  0.8655  0.3046 -3.7260
   47CHL1   C14 3420   5.514   5.276   3.468  0.1102  0.3736  0.7655
   47CHL1   H14 3421   5.452   5.368   3.477 -0.1362  0.1854  1.0054
   47CHL1   C15 3422   5.641   5.326   3.547  0.0865  0.1779  0.3980
   47CHL1  H15A 3423   5.728   5.257   3.532 -1.4223 -1.9247  0.8933
   47CHL1  H15B 3424   5.671   5.429   3.520  1.8042 -0.4068 -0.0612
   47CHL1   C16 3425   5.591   5.330   3.693 -0.0724 -0.2724  0.4028
   47CHL1  H16A 3426   5.663   5.276   3.759  0.2852 -1.8040 -1.1565
   47CHL1  H16B 3427   5.599   5.432   3.736  0.2776 -0.6951  1.3790
   47CHL1   C17 3428   5.452   5.266   3.697  0.0316  0.9727  0.5284
   47CHL1   H17 3429   5.377   5.345   3.675  1.1656  1.6063 -1.2707
   47CHL1   C13 3430   5.447   5.184   3.570  1.2527 -0.4392  0.0896
   47CHL1   C18 3431   5.527   5.056   3.581  0.1111  0.0784 -0.3840
   47CHL1  H18A 3432   5.622   5.076   3.634 -0.1140 -1.6453  0.7367
   47CHL1  H18B 3433   5.464   4.986   3.640  0.3511  0.4527  0.3158
   47CHL1  H18C 3434   5.552   5.018   3.479 -3.6484 -0.4056 -1.2820
   47CHL1   C12 3435   5.296   5.155   3.513  0.3951  0.6101 -0.5850
   47CHL1  H12A 3436   5.269   5.067   3.575  0.1002  1.7562  0.9901
   47CHL1  H12B 3437   5.231   5.244   3.527  0.2200  0.4767 -0.5545
   47CHL1   C11 3438   5.295   5.124   3.365 -0.2748 -0.5324 -0.3748
   47CHL1  H11A 3439   5.347   5.025   3.362 -0.5630 -0.6580 -2.1447
   47CHL1  H11B 3440   5.190   5.108   3.335 -0.8999  0.7882  0.9974
   47CHL1    C9 3441   5.371   5.219   3.273 -0.4800  0.3404  1.0413
   47CHL1    H9 3442   5.312   5.313   3.280 -1.9502 -0.4473 -0.1860
   47CHL1   C10 3443   5.368   5.191   3.124 -0.6466  1.5210 -0.0289
   47CHL1   C19 3444   5.419   5.043   3.102  0.7234  0.6948 -0.2162
   47CHL1  H19A 3445   5.366   4.970   3.166  2.4915  0.8674  1.5550
   47CHL1  H19B 3446   5.407   5.005   2.998 -0.1894  0.4276 -0.0218
   47CHL1  H19C 3447   5.522   5.027   3.141  2.0714  3.4763 -2.2124
   47CHL1    C1 3448   5.224   5.208   3.075 -0.0963 -0.2002 -0.2061
   47CHL1   H1A 3449   5.165   5.132   3.130 -0.3836  0.0257 -0.2001
   47CHL1   H1B 3450   5.187   5.311   3.094  0.3620  0.1073 -0.9436
   47CHL1    C2 3451   5.200   5.190   2.922 -0.4243  1.1099 -0.2450
   47CHL1   H2A 3452   5.096   5.218   2.896 -0.6595  0.7009  0.2381
   47CHL1   H2B 3453   5.222   5.085   2.892 -1.1057  1.6505 -2.9013
   47CHL1   C20 3454   5.417   5.196   3.832 -0.2053  0.2263  0.5749
   47CHL1   H20 3455   5.489   5.113   3.847 -1.2964 -0.6532  1.1320
   47CHL1   C21 3456   5.274   5.144   3.847  0.4433 -0.2665 -0.6917
   47CHL1  H21A 3457   5.249   5.129   3.954 -2.4646 -0.6679 -1.3514
   47CHL1  H21B 3458   5.242   5.056   3.787 -1.6648 -0.2015  0.2531
   47CHL1  H21C 3459   5.209   5.231   3.826  1.6543  0.6288 -0.8144
   47CHL1   C22 3460   5.451   5.288   3.948 -0.1456 -0.0817  0.3860
   47CHL1  H22A 3461   5.541   5.348   3.923  1.1115 -2.0069  0.0097
   47CHL1  H22B 3462   5.377   5.368   3.963  0.2143  0.5314 -0.9559
   47CHL1   C23 3463   5.490   5.218   4.078  0.7179  0.8429  0.8551
   47CHL1  H23A 3464   5.423   5.130   4.083  1.9184 -0.2800 -1.3596
   47CHL1  H23B 3465   5.585   5.160   4.080  0.0677 -0.2132  1.6212
   47CHL1   C24 3466   5.482   5.308   4.200 -0.1539  0.0905  0.6801
   47CHL1  H24A 3467   5.574   5.370   4.203 -0.7506  0.9936  0.7223
   47CHL1  H24B 3468   5.403   5.381   4.173 -0.4909  0.2462  2.0187
   47CHL1   C25 3469   5.438   5.244   4.342 -0.6333 -0.9082  0.4491
   47CHL1   H25 3470   5.450   5.323   4.418 -0.3221  0.6305 -1.1369
   47CHL1   C26 3471   5.291   5.196   4.332  0.1567  0.5013  0.0322
   47CHL1  H26A 3472   5.276   5.125   4.417  3.0864  0.4252  0.5808
   47CHL1  H26B 3473   5.225   5.284   4.342 -0.8397 -0.2538  0.3099
   47CHL1  H26C 3474   5.260   5.145   4.238 -0.1080 -1.1169  0.9551
   47CHL1   C27 3475   5.528   5.124   4.371  0.1258  0.7952  0.4763
   47CHL1  H27A 3476   5.636   5.144   4.356  0.0773  0.4827 -0.3315
   47CHL1  H27B 3477   5.504   5.099   4.477 -1.5732  2.4035  0.5221
   47CHL1  H27C 3478   5.506   5.041   4.301 -0.7018  0.7297  0.8021
   48CHL1    C3 3479   3.045   0.549   3.150  0.2662  0.2454  0.5101
   48CHL1    H3 3480   3.147   0.507   3.153 -0.2124 -0.8912  2.0666
   48CHL1    O3 3481   3.026   0.598   3.021 -0.0008  0.9212  0.2047
   48CHL1   H3' 3482   2.931   0.599   3.013  0.0231  3.2586 -0.3853
   48CHL1    C4 3483   2.942   0.440   3.167 -0.6342 -0.5864  0.1304
   48CHL1   H4A 3484   2.841   0.483   3.147  0.6143  1.9653 -1.1263
   48CHL1   H4B 3485   2.960   0.350   3.105  0.9487 -1.0363  1.1971
   48CHL1    C5 3486   2.953   0.401   3.317  0.3031 -0.4554  0.1058
   48CHL1    C6 3487   2.962   0.270   3.352  0.8542 -0.7931 -0.8124
   48CHL1    H6 3488   2.965   0.198   3.270 -2.9826  0.1814 -2.0162
   48CHL1    C7 3489   2.957   0.215   3.491 -0.6296  0.4244  0.6160
   48CHL1   H7A 3490   2.896   0.123   3.499  0.8696 -0.7175 -0.5616
   48CHL1   H7B 3491   3.056   0.179   3.526  0.4397  0.3106 -2.2898
   48CHL1    C8 3492   2.911   0.319   3.591  0.0989  0.3006 -0.9722
   48CHL1    H8 3493   2.800   0.313   3.583 -0.0379  1.4574 -0.1802
   48CHL1   C14 3494   2.949   0.260   3.735  0.0244 -1.0780  0.1893
   48CHL1   H14 3495   3.059   0.266   3.750 -0.0422 -0.6220  0.4974
   48CHL1   C15 3496   2.922   0.110   3.776 -0.6243  0.4972 -0.3080
   48CHL1  H15A 3497   2.833   0.079   3.717  0.5606  3.6227 -4.1879
   48CHL1  H15B 3498   3.009   0.043   3.758  0.8863  0.9315  4.1043
   48CHL1   C16 3499   2.912   0.122   3.932  0.2893  0.0202  0.2622
   48CHL1  H16A 3500   2.820   0.073   3.971  1.6444 -0.9401  2.3628
   48CHL1  H16B 3501   3.009   0.083   3.969  1.1758  1.0892 -0.8598
   48CHL1   C17 3502   2.926   0.275   3.969 -0.0661  0.3654 -0.7870
   48CHL1   H17 3503   3.033   0.300   3.988 -0.4047 -0.7970  3.8858
   48CHL1   C13 3504   2.890   0.355   3.840  0.5740 -0.0591 -0.0321
   48CHL1   C18 3505   2.734   0.361   3.845  0.0939 -0.0056  0.3333
   48CHL1  H18A 3506   2.698   0.415   3.755 -1.4266 -0.3938  0.6740
   48CHL1  H18B 3507   2.695   0.257   3.841 -0.7755  0.2773  0.9771
   48CHL1  H18C 3508   2.690   0.410   3.935 -0.6673  1.4053 -0.7668
   48CHL1   C12 3509   2.951   0.492   3.821  0.4013  0.3289  0.3082
   48CHL1  H12A 3510   2.899   0.558   3.894  0.4046  0.0627  0.5545
   48CHL1  H12B 3511   3.057   0.492   3.855  0.1302 -2.2601  1.4062
   48CHL1   C11 3512   2.932   0.547   3.679  0.3329 -0.4189 -0.2091
   48CHL1  H11A 3513   2.824   0.573   3.677  0.1507 -0.9895  1.3789
   48CHL1  H11B 3514   2.993   0.641   3.675  1.9613 -1.3351  1.4506
   48CHL1    C9 3515   2.970   0.453   3.563 -0.0080  0.4104 -0.3141
   48CHL1    H9 3516   3.076   0.431   3.586  0.2626  1.8521 -0.1084
   48CHL1   C10 3517   2.940   0.511   3.424 -0.5072 -0.0916  0.3763
   48CHL1   C19 3518   2.804   0.583   3.416  0.9813 -0.2477  0.1990
   48CHL1  H19A 3519   2.718   0.521   3.447  0.7348 -0.7279 -1.3542
   48CHL1  H19B 3520   2.789   0.676   3.474 -0.6901  1.1057 -2.2281
   48CHL1  H19C 3521   2.794   0.615   3.310  1.1388  0.5211  0.4102
   48CHL1    C1 3522   3.056   0.611   3.387  0.5450  0.7900 -0.9083
   48CHL1   H1A 3523   3.049   0.701   3.451  1.7002  1.9347 -2.3025
   48CHL1   H1B 3524   3.158   0.570   3.406  0.5498  0.4584 -1.6023
   48CHL1    C2 3525   3.047   0.667   3.244 -0.4122 -0.0983 -0.3831
   48CHL1   H2A 3526   3.136   0.731   3.230 -1.4179  1.5340  0.4087
   48CHL1   H2B 3527   2.951   0.722   3.244  0.1898  1.0784  1.9818
   48CHL1   C20 3528   2.852   0.304   4.109  0.1968  0.2099 -0.3560
   48CHL1   H20 3529   2.744   0.284   4.094  0.0386  1.7069 -1.4380
   48CHL1   C21 3530   2.872   0.453   4.146 -0.8199 -0.2064  0.2189
   48CHL1  H21A 3531   2.862   0.474   4.255  2.1879  0.7943  0.3970
   48CHL1  H21B 3532   2.799   0.516   4.092 -1.9326 -1.0322  0.7192
   48CHL1  H21C 3533   2.977   0.479   4.119 -0.9254  1.4620  1.2941
   48CHL1   C22 3534   2.896   0.211   4.224  0.2657 -0.1136  0.2812
   48CHL1  H22A 3535   2.875   0.106   4.193  2.0510  0.4719 -3.4239
   48CHL1  H22B 3536   3.006   0.221   4.219  0.1815  1.2434  0.9249
   48CHL1   C23 3537   2.845   0.238   4.366 -0.8158  0.4941  0.1646
   48CHL1  H23A 3538   2.903   0.322   4.409 -0.4872  1.5056 -2.0911
   48CHL1  H23B 3539   2.743   0.275   4.343 -0.0508  1.5348 -1.8029
   48CHL1   C24 3540   2.847   0.122   4.461 -0.6731 -0.0328  0.2231
   48CHL1  H24A 3541   2.798   0.031   4.420  0.1481 -0.2909 -0.2056
   48CHL1  H24B 3542   2.952   0.098   4.488 -0.8741  0.5452  1.5860
   48CHL1   C25 3543   2.773   0.147   4.592 -0.4039 -0.4845  0.3045
   48CHL1   H25 3544   2.813   0.238   4.641  1.3240 -1.3581  0.6176
   48CHL1   C26 3545   2.626   0.153   4.570  0.5665  0.0500 -0.5003
   48CHL1  H26A 3546   2.575   0.153   4.669 -0.7879 -1.0213 -1.1652
   48CHL1  H26B 3547   2.609   0.248   4.515  2.0546  1.1444  0.8271
   48CHL1  H26C 3548   2.589   0.073   4.503 -0.3186  0.4726 -0.5300
   48CHL1   C27 3549   2.800   0.024   4.677  0.1917 -0.7336  0.3610
   48CHL1  H27A 3550   2.910   0.019   4.692  0.7975  1.6688 -2.3982
   48CHL1  H27B 3551   2.752   0.022   4.778 -1.1735  2.1341 -0.1333
   48CHL1  H27C 3552   2.763  -0.069   4.630 -2.2381 -0.3574  1.3881
   49CHL1    C3 3553   3.794   2.441   3.064  0.1221 -0.5576 -0.2576
   49CHL1    H3 3554   3.812   2.332   3.053 -0.0525 -0.6431  0.2765
   49CHL1    O3 3555   3.806   2.503   2.934 -0.2326 -0.0636 -0.3475
   49CHL1   H3' 3556   3.895   2.481   2.906 -0.6383  1.4162 -3.0730
   49CHL1    C4 3557   3.656   2.471   3.126 -0.2571 -0.3819 -0.9632
   49CHL1   H4A 3558   3.630   2.578   3.117  1.4991  0.0840 -0.8001
   49CHL1   H4B 3559   3.582   2.425   3.056 -0.3577  0.5053 -1.4534
   49CHL1    C5 3560   3.640   2.444   3.273 -0.2883  0.1740  0.5086
   49CHL1    C6 3561   3.537   2.370   3.315 -0.5294 -0.3554 -0.9531
   49CHL1    H6 3562   3.464   2.332   3.242 -2.2567 -1.0031  0.9896
   49CHL1    C7 3563   3.516   2.333   3.461 -0.2859 -0.2097  0.6265
   49CHL1   H7A 3564   3.407   2.337   3.480 -0.3496 -0.5514  0.3551
   49CHL1   H7B 3565   3.538   2.224   3.466 -0.9788 -0.4631 -1.1529
   49CHL1    C8 3566   3.601   2.414   3.551 -0.9847  0.2581 -0.6367
   49CHL1    H8 3567   3.557   2.515   3.537  1.1828  1.3354 -0.1485
   49CHL1   C14 3568   3.591   2.356   3.694 -0.1060 -0.2770 -0.6456
   49CHL1   H14 3569   3.619   2.249   3.686  0.7557 -0.3587  2.3000
   49CHL1   C15 3570   3.454   2.344   3.765 -0.5413  0.5754 -0.2899
   49CHL1  H15A 3571   3.388   2.432   3.750  1.1734  1.9914  0.1730
   49CHL1  H15B 3572   3.399   2.253   3.734  2.0774 -1.0175 -0.5596
   49CHL1   C16 3573   3.484   2.341   3.915 -0.4149 -0.1470 -0.5001
   49CHL1  H16A 3574   3.445   2.427   3.974 -0.7586 -1.8728  1.9543
   49CHL1  H16B 3575   3.448   2.246   3.960  1.0442 -0.0152  1.0941
   49CHL1   C17 3576   3.642   2.354   3.921 -0.0153 -0.3867  0.4628
   49CHL1   H17 3577   3.670   2.248   3.906 -4.0958 -1.7145  1.0048
   49CHL1   C13 3578   3.683   2.428   3.795  0.1931  0.1586  0.1790
   49CHL1   C18 3579   3.632   2.571   3.798  0.4572 -0.4857  0.8136
   49CHL1  H18A 3580   3.521   2.569   3.799  0.4594 -0.6135  0.8699
   49CHL1  H18B 3581   3.663   2.628   3.888  1.4919  3.5796 -1.8435
   49CHL1  H18C 3582   3.662   2.622   3.704 -1.0870 -1.5302 -0.3052
   49CHL1   C12 3583   3.828   2.424   3.750  0.3310  0.5984  0.0269
   49CHL1  H12A 3584   3.881   2.474   3.834  0.0715 -0.0751  0.6041
   49CHL1  H12B 3585   3.864   2.319   3.744 -4.0524 -1.2985  2.2140
   49CHL1   C11 3586   3.852   2.474   3.607  1.3747  0.1060  0.3972
   49CHL1  H11A 3587   3.850   2.585   3.616 -1.4469  0.1515  0.1975
   49CHL1  H11B 3588   3.952   2.453   3.564  0.8917  2.0255 -1.8955
   49CHL1    C9 3589   3.752   2.421   3.498  0.4699 -0.1788  0.5647
   49CHL1    H9 3590   3.777   2.313   3.485  0.1047 -0.2621  0.5519
   49CHL1   C10 3591   3.757   2.491   3.357 -0.7267 -0.0390 -0.2833
   49CHL1   C19 3592   3.744   2.651   3.366 -0.4864  0.2773 -0.7043
   49CHL1  H19A 3593   3.735   2.695   3.264  1.5620  1.1233 -0.5711
   49CHL1  H19B 3594   3.651   2.689   3.412 -0.3440  1.2600 -1.2054
   49CHL1  H19C 3595   3.831   2.705   3.410  0.0595  0.0356 -1.4564
   49CHL1    C1 3596   3.890   2.462   3.294 -0.9615 -0.5889  0.1977
   49CHL1   H1A 3597   3.970   2.514   3.352  0.1125  0.1140 -1.8059
   49CHL1   H1B 3598   3.897   2.351   3.293 -0.7144 -0.5744 -1.0882
   49CHL1    C2 3599   3.904   2.505   3.147 -0.5886  0.0430 -0.3262
   49CHL1   H2A 3600   3.998   2.474   3.097 -1.6353 -0.8125 -1.8475
   49CHL1   H2B 3601   3.890   2.615   3.145 -0.3330  0.1781  2.1874
   49CHL1   C20 3602   3.699   2.392   4.066  0.9041  0.5969  0.2033
   49CHL1   H20 3603   3.700   2.503   4.068 -0.3399  0.6529  3.1869
   49CHL1   C21 3604   3.834   2.325   4.076  0.4402 -0.2207 -0.1504
   49CHL1  H21A 3605   3.893   2.325   3.981  2.6013 -0.0400  1.1317
   49CHL1  H21B 3606   3.810   2.223   4.115 -2.0888  0.8323  1.2298
   49CHL1  H21C 3607   3.882   2.389   4.153 -2.3825  1.1444  0.5922
   49CHL1   C22 3608   3.608   2.344   4.188 -0.8160  0.2363  0.0870
   49CHL1  H22A 3609   3.509   2.391   4.173  0.1109  2.4065  0.3672
   49CHL1  H22B 3610   3.596   2.234   4.183 -0.7836  0.2348  0.0329
   49CHL1   C23 3611   3.648   2.380   4.335  0.6897 -0.0307  0.5422
   49CHL1  H23A 3612   3.668   2.489   4.342  1.2082 -0.0828 -0.0325
   49CHL1  H23B 3613   3.561   2.359   4.400  1.5937  3.5266  3.2313
   49CHL1   C24 3614   3.764   2.307   4.401  0.8524 -0.1216 -0.3384
   49CHL1  H24A 3615   3.739   2.199   4.396 -0.8080  0.1904  0.4824
   49CHL1  H24B 3616   3.856   2.321   4.341 -0.5443 -0.6513 -2.7203
   49CHL1   C25 3617   3.794   2.337   4.555 -0.3637 -0.1902 -0.0149
   49CHL1   H25 3618   3.694   2.367   4.591 -0.0984  0.6183  0.0755
   49CHL1   C26 3619   3.844   2.212   4.633  0.3704 -0.4822 -0.2136
   49CHL1  H26A 3620   3.939   2.174   4.589 -0.8942 -1.0723 -2.5874
   49CHL1  H26B 3621   3.862   2.247   4.737 -2.9212 -1.0827  0.6677
   49CHL1  H26C 3622   3.765   2.134   4.636  1.4484 -1.6751 -1.5686
   49CHL1   C27 3623   3.886   2.454   4.574  0.1372 -0.9455  0.1583
   49CHL1  H27A 3624   3.909   2.476   4.680  1.4869 -1.9697  0.1050
   49CHL1  H27B 3625   3.978   2.437   4.514 -0.4570 -3.0753 -0.2602
   49CHL1  H27C 3626   3.828   2.541   4.536  1.6464 -0.3491 -0.8731
   50CHL1    C3 3627   1.694   3.788   3.332 -0.4605 -0.5516 -0.1016
   50CHL1    H3 3628   1.798   3.819   3.357 -0.8697 -0.6961  1.9396
   50CHL1    O3 3629   1.670   3.836   3.207 -0.1829  0.7399 -0.1509
   50CHL1   H3' 3630   1.593   3.792   3.171  0.1872 -0.2565  0.2463
   50CHL1    C4 3631   1.676   3.640   3.355  0.4344  0.5073  0.4611
   50CHL1   H4A 3632   1.575   3.610   3.318 -0.5735  0.4800  3.0661
   50CHL1   H4B 3633   1.757   3.598   3.292  1.7498  2.8265  0.4758
   50CHL1    C5 3634   1.695   3.599   3.500 -0.6659 -0.0179  0.5127
   50CHL1    C6 3635   1.794   3.516   3.546 -0.2464  0.0363 -0.4992
   50CHL1    H6 3636   1.860   3.472   3.471  0.2270  1.2910 -0.8420
   50CHL1    C7 3637   1.824   3.485   3.691  0.2384  0.7564  0.4377
   50CHL1   H7A 3638   1.829   3.375   3.705  2.9639  0.9257  1.4415
   50CHL1   H7B 3639   1.921   3.526   3.727  0.0572  0.8490  0.8247
   50CHL1    C8 3640   1.711   3.532   3.787 -0.0911 -0.3050  0.4132
   50CHL1    H8 3641   1.621   3.467   3.779 -0.2895 -0.2240  1.7723
   50CHL1   C14 3642   1.768   3.524   3.930 -0.7337 -0.7767  0.5333
   50CHL1   H14 3643   1.851   3.596   3.915  0.3195 -2.0319  0.2418
   50CHL1   C15 3644   1.841   3.405   3.978  0.3715 -0.7459  0.8408
   50CHL1  H15A 3645   1.778   3.318   3.951  1.5748 -0.8861 -1.8092
   50CHL1  H15B 3646   1.941   3.386   3.932  0.6445  1.9662  0.1383
   50CHL1   C16 3647   1.838   3.422   4.124  0.5407 -0.0654 -0.3711
   50CHL1  H16A 3648   1.768   3.352   4.175 -0.0671  1.1114  0.4855
   50CHL1  H16B 3649   1.931   3.407   4.182 -1.5418  0.4931  3.5262
   50CHL1   C17 3650   1.772   3.559   4.154  0.1077  0.1416  0.3783
   50CHL1   H17 3651   1.848   3.638   4.135  1.6517 -1.2000  0.7724
   50CHL1   C13 3652   1.674   3.581   4.036  0.0624 -0.5459  0.1750
   50CHL1   C18 3653   1.554   3.488   4.033  0.7356  0.3609 -0.4432
   50CHL1  H18A 3654   1.502   3.475   3.936 -0.8911  1.5779  0.2206
   50CHL1  H18B 3655   1.569   3.394   4.090  0.5792  1.1292  0.9217
   50CHL1  H18C 3656   1.473   3.541   4.088 -1.6146 -0.3954 -2.9574
   50CHL1   C12 3657   1.636   3.728   3.992 -0.0318 -0.0699 -0.2005
   50CHL1  H12A 3658   1.562   3.767   4.065  0.7769 -1.0298  1.1859
   50CHL1  H12B 3659   1.733   3.783   3.992  0.5731 -1.1134 -0.3385
   50CHL1   C11 3660   1.573   3.724   3.856  0.5161 -0.9014  0.5479
   50CHL1  H11A 3661   1.474   3.673   3.864  0.7798 -1.1903  2.2985
   50CHL1  H11B 3662   1.543   3.829   3.836  0.1548 -0.6984  2.0345
   50CHL1    C9 3663   1.663   3.671   3.746  0.2517 -0.6377 -0.4305
   50CHL1    H9 3664   1.756   3.733   3.752 -1.4346  1.8586  2.8751
   50CHL1   C10 3665   1.610   3.683   3.602 -1.0106  0.0334 -0.1580
   50CHL1   C19 3666   1.467   3.621   3.601 -1.2116  0.1285  0.2282
   50CHL1  H19A 3667   1.392   3.673   3.666 -0.1627  0.7507  0.9695
   50CHL1  H19B 3668   1.429   3.617   3.497  0.7323  0.2865 -0.5164
   50CHL1  H19C 3669   1.482   3.519   3.643  0.4040  0.3630  0.2630
   50CHL1    C1 3670   1.621   3.830   3.565 -0.2313  0.5594 -0.3550
   50CHL1   H1A 3671   1.535   3.890   3.604 -2.0381 -0.8279 -2.0016
   50CHL1   H1B 3672   1.713   3.883   3.600 -0.8349 -0.7073  3.6225
   50CHL1    C2 3673   1.604   3.869   3.416  0.8206 -0.7751 -0.3118
   50CHL1   H2A 3674   1.619   3.978   3.399 -0.2477  0.1921  3.7597
   50CHL1   H2B 3675   1.498   3.862   3.383  1.1267  0.1090 -1.5282
   50CHL1   C20 3676   1.726   3.578   4.296  0.3947 -0.1559  0.0937
   50CHL1   H20 3677   1.629   3.526   4.307  1.7703 -2.3630  3.1356
   50CHL1   C21 3678   1.693   3.730   4.315 -0.1461 -0.6728  0.5972
   50CHL1  H21A 3679   1.776   3.800   4.297 -0.1695 -1.1381 -1.5069
   50CHL1  H21B 3680   1.641   3.747   4.412 -1.0534  0.9844 -0.1409
   50CHL1  H21C 3681   1.609   3.751   4.246  2.1142  1.4103 -1.6840
   50CHL1   C22 3682   1.817   3.533   4.412 -0.2981  0.9738 -0.5131
   50CHL1  H22A 3683   1.917   3.538   4.365 -0.5101  0.1571 -1.0598
   50CHL1  H22B 3684   1.803   3.607   4.494 -0.5753  1.2818 -0.8361
   50CHL1   C23 3685   1.796   3.390   4.469  0.0027 -0.2724 -0.0861
   50CHL1  H23A 3686   1.693   3.370   4.434 -1.0677  2.5581  1.1006
   50CHL1  H23B 3687   1.868   3.316   4.427  1.9986 -0.4316  3.2297
   50CHL1   C24 3688   1.801   3.393   4.621 -0.1763  0.0269 -0.2683
   50CHL1  H24A 3689   1.895   3.441   4.657 -0.3348  1.6129 -1.8065
   50CHL1  H24B 3690   1.723   3.460   4.661 -1.1684 -0.8290 -0.7345
   50CHL1   C25 3691   1.788   3.257   4.685  0.5716  0.3118  0.1968
   50CHL1   H25 3692   1.699   3.204   4.644 -0.6599  2.1602  0.3637
   50CHL1   C26 3693   1.901   3.160   4.646 -0.2253  0.1530  0.6192
   50CHL1  H26A 3694   1.886   3.126   4.542  2.0034 -0.6593  0.5231
   50CHL1  H26B 3695   1.996   3.215   4.663  0.6165 -1.1414  0.1905
   50CHL1  H26C 3696   1.890   3.066   4.704  0.1691 -0.4970 -0.3347
   50CHL1   C27 3697   1.783   3.284   4.835  0.2596  0.2651 -0.3016
   50CHL1  H27A 3698   1.712   3.366   4.857  0.9645  0.2004  2.6804
   50CHL1  H27B 3699   1.753   3.190   4.887  1.9760 -1.1525 -1.7437
   50CHL1  H27C 3700   1.882   3.324   4.866  0.5267  0.7648 -1.7562
   51CHL1    C3 3701   3.503   1.494   3.160 -0.1574  0.5584 -0.3489
   51CHL1    H3 3702   3.515   1.600   3.190 -2.2447  1.1302 -1.2936
   51CHL1    O3 3703   3.480   1.483   3.023  0.1577 -0.2564 -0.2399
   51CHL1   H3' 3704   3.464   1.389   3.013 -1.6191 -0.1040  0.7622
   51CHL1    C4 3705   3.637   1.425   3.193  0.1662  0.2277 -0.5539
   51CHL1   H4A 3706   3.628   1.319   3.163  1.0909  0.7037 -2.6969
   51CHL1   H4B 3707   3.720   1.458   3.127  0.2858 -0.3495 -0.6995
   51CHL1    C5 3708   3.671   1.417   3.341  0.4660  0.0956  0.2550
   51CHL1    C6 3709   3.786   1.451   3.391 -0.8413 -0.2289 -0.3612
   51CHL1    H6 3710   3.873   1.471   3.326  0.6177 -1.2559  1.1999
   51CHL1    C7 3711   3.826   1.457   3.536 -0.8023 -0.5248  0.0212
   51CHL1   H7A 3712   3.913   1.392   3.560 -1.6028 -1.6104  0.0506
   51CHL1   H7B 3713   3.843   1.564   3.558 -2.6485  0.4040 -2.6053
   51CHL1    C8 3714   3.713   1.405   3.628 -0.1247 -0.2163 -0.3712
   51CHL1    H8 3715   3.739   1.297   3.637  1.7571  0.1883 -0.6386
   51CHL1   C14 3716   3.730   1.456   3.774 -0.0619  0.5362  0.0776
   51CHL1   H14 3717   3.711   1.565   3.766  0.4722  0.7792  1.7192
   51CHL1   C15 3718   3.862   1.444   3.842 -0.8355  0.4974 -0.9405
   51CHL1  H15A 3719   3.907   1.344   3.859 -1.8481 -0.0931 -1.6651
   51CHL1  H15B 3720   3.945   1.508   3.804 -1.9599  2.7560  0.2284
   51CHL1   C16 3721   3.827   1.496   3.983  0.0223 -0.3267  0.0297
   51CHL1  H16A 3722   3.887   1.439   4.057 -0.2148 -0.3905  0.1775
   51CHL1  H16B 3723   3.850   1.602   4.005  0.4891 -0.6541  1.1831
   51CHL1   C17 3724   3.673   1.469   4.002  0.6536  0.2425 -0.1148
   51CHL1   H17 3725   3.630   1.571   3.991 -0.6094 -0.2935 -0.3122
   51CHL1   C13 3726   3.631   1.392   3.878  0.0781 -0.2781  0.3360
   51CHL1   C18 3727   3.653   1.242   3.913  0.4617 -0.1954 -0.2504
   51CHL1  H18A 3728   3.593   1.205   3.999 -0.9454  0.3201 -0.9805
   51CHL1  H18B 3729   3.613   1.170   3.840 -0.0044 -0.4725  0.2738
   51CHL1  H18C 3730   3.757   1.217   3.945 -0.3857 -1.2919  1.8837
   51CHL1   C12 3731   3.486   1.417   3.829 -0.2513  0.4496  0.6820
   51CHL1  H12A 3732   3.416   1.366   3.898 -0.8605  1.2846  0.6913
   51CHL1  H12B 3733   3.481   1.528   3.826 -1.3683  0.4188  1.0978
   51CHL1   C11 3734   3.480   1.360   3.688  0.5649  0.1520 -0.1820
   51CHL1  H11A 3735   3.477   1.249   3.690 -0.7180  0.1767  0.4106
   51CHL1  H11B 3736   3.373   1.385   3.667  0.3567 -1.2135 -0.9110
   51CHL1    C9 3737   3.570   1.426   3.585  0.3362 -0.0464  1.0965
   51CHL1    H9 3738   3.551   1.536   3.589 -2.5676 -0.2437 -2.2202
   51CHL1   C10 3739   3.547   1.386   3.429 -0.0142  0.4029 -1.2881
   51CHL1   C19 3740   3.538   1.235   3.423  0.0482  0.7502  0.3616
   51CHL1  H19A 3741   3.632   1.192   3.464 -1.4344 -0.8061  2.3581
   51CHL1  H19B 3742   3.457   1.194   3.487 -0.7002  1.3619 -0.1771
   51CHL1  H19C 3743   3.523   1.196   3.320  2.2790 -2.1874  1.0018
   51CHL1    C1 3744   3.414   1.449   3.383  0.2365  0.1292 -0.5875
   51CHL1   H1A 3745   3.336   1.396   3.441 -0.8155  1.1346 -1.0533
   51CHL1   H1B 3746   3.406   1.557   3.408  0.5493 -0.1797  0.9744
   51CHL1    C2 3747   3.385   1.442   3.236 -0.1150  0.0202 -0.0464
   51CHL1   H2A 3748   3.288   1.495   3.226 -0.8204 -0.9104  1.4681
   51CHL1   H2B 3749   3.358   1.342   3.197  0.2073  1.8217 -5.7612
   51CHL1   C20 3750   3.609   1.432   4.143  0.2944  0.1528 -0.0138
   51CHL1   H20 3751   3.522   1.364   4.129  1.3065 -1.7502  2.3341
   51CHL1   C21 3752   3.551   1.557   4.211  0.0351  0.5543  0.1147
   51CHL1  H21A 3753   3.457   1.584   4.159  0.9343  2.5128 -0.5731
   51CHL1  H21B 3754   3.621   1.643   4.205  1.6143 -0.7281 -0.4600
   51CHL1  H21C 3755   3.537   1.539   4.320  1.4864  0.7861  0.3622
   51CHL1   C22 3756   3.708   1.361   4.238  1.1126  0.2747 -0.0703
   51CHL1  H22A 3757   3.766   1.286   4.180 -1.8059 -1.5068 -0.8659
   51CHL1  H22B 3758   3.776   1.438   4.281  1.3858  0.3136 -0.5594
   51CHL1   C23 3759   3.637   1.281   4.349 -0.5205 -0.3842 -0.8219
   51CHL1  H23A 3760   3.577   1.341   4.421 -1.6336 -0.1763 -1.8811
   51CHL1  H23B 3761   3.564   1.220   4.291 -1.3002  0.1128 -0.3826
   51CHL1   C24 3762   3.725   1.174   4.418 -0.1675  0.2110 -0.3865
   51CHL1  H24A 3763   3.654   1.122   4.486 -1.4348  1.1025 -0.9869
   51CHL1  H24B 3764   3.762   1.100   4.344 -0.0732 -0.3575  0.2178
   51CHL1   C25 3765   3.848   1.220   4.496  0.4594 -0.9682 -0.0279
   51CHL1   H25 3766   3.905   1.282   4.424 -0.1388 -0.2200  0.1305
   51CHL1   C26 3767   3.814   1.309   4.618 -0.4333 -0.3326 -0.2630
   51CHL1  H26A 3768   3.751   1.392   4.579  0.2929 -0.0936 -0.9456
   51CHL1  H26B 3769   3.751   1.252   4.690  0.5003 -3.5850 -1.8475
   51CHL1  H26C 3770   3.907   1.351   4.663 -0.4120  0.1457 -0.7466
   51CHL1   C27 3771   3.952   1.115   4.525 -0.1224  0.2612 -0.6901
   51CHL1  H27A 3772   3.929   1.045   4.608 -0.5666  1.6426  0.4038
   51CHL1  H27B 3773   3.981   1.058   4.435  1.6273  0.9890 -0.6277
   51CHL1  H27C 3774   4.050   1.159   4.554 -0.4619 -0.3063  1.4932
   52CHL1    C3 3775   2.216   5.978   3.090 -0.0468 -0.4913  0.8011
   52CHL1    H3 3776   2.211   5.889   3.156 -0.0774  1.5387  3.7404
   52CHL1    O3 3777   2.176   5.956   2.954  0.0027  0.3567 -0.4483
   52CHL1   H3' 3778   2.220   6.025   2.903  0.1399  0.2621 -0.4615
   52CHL1    C4 3779   2.123   6.080   3.151 -0.1383 -0.9869  0.0845
   52CHL1   H4A 3780   2.123   6.174   3.092 -2.6315 -0.6733  0.4493
   52CHL1   H4B 3781   2.015   6.052   3.148  0.2052 -3.7278  4.3488
   52CHL1    C5 3782   2.159   6.112   3.298 -0.0884  0.2244  0.3594
   52CHL1    C6 3783   2.078   6.105   3.401  0.6463  0.2514  0.8846
   52CHL1    H6 3784   1.971   6.082   3.393  0.7422  0.0706  0.0391
   52CHL1    C7 3785   2.122   6.138   3.540 -0.4012 -0.2830  0.0499
   52CHL1   H7A 3786   2.039   6.199   3.581 -1.5333 -0.6106 -1.6440
   52CHL1   H7B 3787   2.136   6.049   3.606  0.8941  1.0190  1.6020
   52CHL1    C8 3788   2.253   6.212   3.551 -0.4612  0.1368 -0.3250
   52CHL1    H8 3789   2.242   6.320   3.527  2.0246  0.5556  0.1563
   52CHL1   C14 3790   2.305   6.197   3.700 -0.1885  0.0123  0.3369
   52CHL1   H14 3791   2.324   6.089   3.719 -0.3954 -0.3609 -1.3616
   52CHL1   C15 3792   2.205   6.241   3.805 -0.0310 -0.1894 -0.0133
   52CHL1  H15A 3793   2.157   6.340   3.787  0.0130 -0.4621 -1.8180
   52CHL1  H15B 3794   2.126   6.163   3.811  1.5973 -1.8058  1.5152
   52CHL1   C16 3795   2.293   6.248   3.932  0.4228 -0.5271 -0.3870
   52CHL1  H16A 3796   2.289   6.349   3.978 -0.9272 -1.4242  1.6264
   52CHL1  H16B 3797   2.251   6.178   4.007 -0.3195  1.0766  0.7542
   52CHL1   C17 3798   2.435   6.217   3.893 -0.0400 -0.4362 -0.4853
   52CHL1   H17 3799   2.453   6.108   3.904  1.7414 -0.3857 -2.2699
   52CHL1   C13 3800   2.434   6.251   3.739 -0.2415 -0.7277 -0.6589
   52CHL1   C18 3801   2.437   6.401   3.710 -0.4497  0.8274  0.1615
   52CHL1  H18A 3802   2.536   6.442   3.737 -0.1609 -1.3718  2.9464
   52CHL1  H18B 3803   2.426   6.431   3.603 -0.3750 -0.3931 -0.2078
   52CHL1  H18C 3804   2.356   6.450   3.768 -2.3443 -0.8159 -0.9533
   52CHL1   C12 3805   2.543   6.175   3.652  0.4961  0.1933 -0.5107
   52CHL1  H12A 3806   2.645   6.216   3.665  1.1569 -1.9065  1.8145
   52CHL1  H12B 3807   2.548   6.070   3.688  1.3523  1.6729  4.3986
   52CHL1   C11 3808   2.505   6.180   3.505  0.0014  0.0471  0.5408
   52CHL1  H11A 3809   2.521   6.284   3.469 -0.1705  0.3616  1.3615
   52CHL1  H11B 3810   2.572   6.116   3.443 -0.1266  0.4709 -0.0496
   52CHL1    C9 3811   2.352   6.139   3.468 -0.0837  0.8137  0.4723
   52CHL1    H9 3812   2.349   6.030   3.491 -2.0870  0.3806 -1.5533
   52CHL1   C10 3813   2.309   6.146   3.319  0.1764  0.0503  0.5499
   52CHL1   C19 3814   2.328   6.289   3.266 -0.9594  0.1627  0.5184
   52CHL1  H19A 3815   2.432   6.328   3.275 -1.3340  1.4111 -0.2566
   52CHL1  H19B 3816   2.292   6.299   3.161  1.2420  1.3916 -0.1736
   52CHL1  H19C 3817   2.258   6.364   3.309  0.6412  1.0718  1.6289
   52CHL1    C1 3818   2.406   6.051   3.237 -0.5899  0.1926 -0.3752
   52CHL1   H1A 3819   2.507   6.097   3.228 -0.9160  0.8718 -0.6517
   52CHL1   H1B 3820   2.415   5.956   3.295  1.5733  0.7296  0.2651
   52CHL1    C2 3821   2.361   6.022   3.094 -0.2293 -0.7344 -0.6459
   52CHL1   H2A 3822   2.415   5.934   3.053 -2.2545 -1.5740 -1.6588
   52CHL1   H2B 3823   2.394   6.110   3.034  2.7030 -1.1588  0.1901
   52CHL1   C20 3824   2.531   6.293   3.989 -0.0230 -0.3629 -0.5427
   52CHL1   H20 3825   2.509   6.396   3.953 -0.3186 -0.6814 -1.2914
   52CHL1   C21 3826   2.680   6.262   3.966 -0.5388 -0.0621 -0.3700
   52CHL1  H21A 3827   2.698   6.275   3.857 -0.2574  2.3799 -0.0968
   52CHL1  H21B 3828   2.715   6.161   3.996 -1.2535 -0.5819 -1.2345
   52CHL1  H21C 3829   2.739   6.337   4.022  0.2383  0.9915 -2.4951
   52CHL1   C22 3830   2.482   6.269   4.137  0.4099  0.7826  0.4862
   52CHL1  H22A 3831   2.551   6.333   4.196 -0.8746  2.0459  0.6784
   52CHL1  H22B 3832   2.385   6.322   4.151 -0.7991 -1.5354  1.5108
   52CHL1   C23 3833   2.482   6.121   4.177  0.2341  0.7784 -0.3762
   52CHL1  H23A 3834   2.390   6.068   4.143  0.7083 -0.7349  0.5711
   52CHL1  H23B 3835   2.564   6.060   4.134 -0.8839 -0.1242 -1.3014
   52CHL1   C24 3836   2.489   6.097   4.332  0.6672 -0.4944 -0.0140
   52CHL1  H24A 3837   2.424   6.170   4.386  0.7708 -0.6812  0.3653
   52CHL1  H24B 3838   2.449   5.997   4.359  1.1824 -0.0805  2.4844
   52CHL1   C25 3839   2.631   6.111   4.391 -0.6152 -0.2803 -0.3009
   52CHL1   H25 3840   2.669   6.199   4.334 -0.8818  1.5151  2.1559
   52CHL1   C26 3841   2.631   6.133   4.540  0.3356  0.1447 -0.2226
   52CHL1  H26A 3842   2.563   6.061   4.591 -2.5231  3.3574  0.8269
   52CHL1  H26B 3843   2.736   6.129   4.576  0.7231 -0.1868 -1.3369
   52CHL1  H26C 3844   2.576   6.226   4.565  1.5168  0.8059 -0.0510
   52CHL1   C27 3845   2.718   5.983   4.359 -0.7590 -0.2222 -0.0201
   52CHL1  H27A 3846   2.726   5.962   4.250  1.5781 -1.4442  0.3038
   52CHL1  H27B 3847   2.820   5.999   4.400 -0.4848 -0.1217 -0.7250
   52CHL1  H27C 3848   2.670   5.894   4.405 -3.0660  2.1049  2.4271
   53CHL1    C3 3849   5.672   1.262   3.287 -0.1647 -0.5717 -0.6140
   53CHL1    H3 3850   5.776   1.282   3.254  0.2073 -4.1438 -2.0385
   53CHL1    O3 3851   5.597   1.282   3.165 -0.0864  0.0790 -0.1110
   53CHL1   H3' 3852   5.505   1.276   3.192  0.5134  1.2487  2.4839
   53CHL1    C4 3853   5.686   1.116   3.326 -0.2726 -0.3011  0.3721
   53CHL1   H4A 3854   5.583   1.077   3.338 -0.0506 -1.2850 -0.7459
   53CHL1   H4B 3855   5.740   1.061   3.246  0.8046 -0.7556  1.3824
   53CHL1    C5 3856   5.768   1.111   3.460  0.6313 -0.3584 -0.8182
   53CHL1    C6 3857   5.879   1.049   3.462  0.6727  0.6153 -0.5138
   53CHL1    H6 3858   5.916   1.000   3.371  1.8371  1.0665 -0.3067
   53CHL1    C7 3859   5.960   1.031   3.585 -0.3089  0.1194  0.6479
   53CHL1   H7A 3860   6.004   0.929   3.590 -0.0078  0.0704 -1.7615
   53CHL1   H7B 3861   6.040   1.107   3.593 -0.9230  0.7055  1.3680
   53CHL1    C8 3862   5.871   1.051   3.716 -0.1172 -0.1832  0.8541
   53CHL1    H8 3863   5.796   0.971   3.706  1.6807 -1.6984 -1.8603
   53CHL1   C14 3864   5.950   1.042   3.839  0.4709  0.5493 -0.1276
   53CHL1   H14 3865   6.019   1.128   3.840 -1.0779  1.8374  0.3373
   53CHL1   C15 3866   6.027   0.910   3.862 -0.0794  0.2322 -0.0567
   53CHL1  H15A 3867   5.973   0.826   3.813  1.0464 -0.6436  0.1652
   53CHL1  H15B 3868   6.126   0.924   3.812  0.1742 -2.9884 -0.7068
   53CHL1   C16 3869   6.055   0.902   4.012  0.2073  0.5161 -0.2988
   53CHL1  H16A 3870   6.025   0.798   4.036  1.7511  0.0421 -0.3663
   53CHL1  H16B 3871   6.159   0.917   4.048 -1.0859  1.3574  3.5477
   53CHL1   C17 3872   5.967   1.018   4.074 -0.0620  0.2837  0.2395
   53CHL1   H17 3873   6.031   1.109   4.074  0.8000 -0.2937 -0.3709
   53CHL1   C13 3874   5.864   1.057   3.968  0.3557  0.3414 -0.1261
   53CHL1   C18 3875   5.736   0.961   3.971  0.0346  0.2269  0.6229
   53CHL1  H18A 3876   5.664   0.989   3.891 -0.0837 -1.4345  0.1218
   53CHL1  H18B 3877   5.770   0.856   3.959  3.9245  1.3261  0.6611
   53CHL1  H18C 3878   5.680   0.953   4.066 -0.5191  0.5853  0.3327
   53CHL1   C12 3879   5.825   1.207   3.964 -0.3756  0.0864  0.7560
   53CHL1  H12A 3880   5.765   1.234   4.053 -1.7379  0.5632 -0.2800
   53CHL1  H12B 3881   5.908   1.281   3.963  1.2725 -1.6255  2.2762
   53CHL1   C11 3882   5.735   1.239   3.841  0.4468 -0.3964 -0.2130
   53CHL1  H11A 3883   5.635   1.195   3.863 -0.7009  0.1799 -3.6963
   53CHL1  H11B 3884   5.728   1.349   3.853 -0.4396 -0.5189  0.4811
   53CHL1    C9 3885   5.797   1.185   3.707  0.0450 -0.1676 -0.2985
   53CHL1    H9 3886   5.871   1.266   3.691  0.5665 -0.5422  0.1615
   53CHL1   C10 3887   5.710   1.187   3.583 -0.1779 -0.3196  0.2798
   53CHL1   C19 3888   5.574   1.119   3.618  0.3508 -0.2445  0.2603
   53CHL1  H19A 3889   5.588   1.019   3.664  0.5216  0.0688  0.9017
   53CHL1  H19B 3890   5.513   1.176   3.692 -0.4820  0.6799 -1.1056
   53CHL1  H19C 3891   5.509   1.113   3.528 -1.9081  0.9449  1.7188
   53CHL1    C1 3892   5.687   1.332   3.533 -0.1031  0.1595  0.3438
   53CHL1   H1A 3893   5.628   1.388   3.608  0.1962  0.1668  0.5756
   53CHL1   H1B 3894   5.793   1.366   3.537  0.5346 -1.8405  2.0461
   53CHL1    C2 3895   5.620   1.349   3.399  0.5418 -0.0554  0.1431
   53CHL1   H2A 3896   5.619   1.456   3.369  3.4612 -0.0999 -0.3718
   53CHL1   H2B 3897   5.510   1.333   3.403  0.5110 -0.6365 -1.9660
   53CHL1   C20 3898   5.921   0.970   4.211 -0.7748  0.1235  0.4755
   53CHL1   H20 3899   5.880   0.868   4.198  2.1524 -1.1081 -0.0226
   53CHL1   C21 3900   5.832   1.073   4.276  0.1076 -0.5542  0.4375
   53CHL1  H21A 3901   5.802   1.043   4.379 -0.1502 -0.1796  0.4736
   53CHL1  H21B 3902   5.738   1.099   4.223 -0.6090 -0.1829  1.8353
   53CHL1  H21C 3903   5.881   1.171   4.296  0.2010 -0.7523  1.2102
   53CHL1   C22 3904   6.037   0.947   4.311  0.2724  0.2974 -0.3332
   53CHL1  H22A 3905   6.000   0.885   4.395  0.5023 -0.8833 -1.0769
   53CHL1  H22B 3906   6.115   0.878   4.273  2.1763  0.7363  2.5253
   53CHL1   C23 3907   6.113   1.074   4.357 -0.1984  0.7622 -0.3391
   53CHL1  H23A 3908   6.160   1.123   4.269  1.2902 -1.1964 -0.7201
   53CHL1  H23B 3909   6.049   1.147   4.411 -0.8572 -0.9920  1.4153
   53CHL1   C24 3910   6.234   1.027   4.452  0.1059 -0.4377  0.3659
   53CHL1  H24A 3911   6.196   0.951   4.523  1.8062 -0.5196  1.2264
   53CHL1  H24B 3912   6.315   0.981   4.392  1.4947  1.6364  0.5466
   53CHL1   C25 3913   6.294   1.144   4.529  0.0168  0.2015 -0.3594
   53CHL1   H25 3914   6.310   1.224   4.454 -0.0619 -1.9206 -2.7410
   53CHL1   C26 3915   6.192   1.197   4.632 -0.3464 -0.3018 -0.0394
   53CHL1  H26A 3916   6.098   1.236   4.587  0.6917  1.0949 -1.0688
   53CHL1  H26B 3917   6.151   1.128   4.708 -2.1792 -2.8548 -3.0926
   53CHL1  H26C 3918   6.235   1.284   4.686  0.4584  1.5123 -3.3257
   53CHL1   C27 3919   6.433   1.108   4.582 -0.5220  0.2247 -0.4356
   53CHL1  H27A 3920   6.481   1.182   4.650 -1.0480 -0.6642  0.9272
   53CHL1  H27B 3921   6.432   1.010   4.634 -0.3963  0.3785 -0.1434
   53CHL1  H27C 3922   6.499   1.102   4.492 -0.8243  0.8641 -0.7071
   54CHL1    C3 3923   5.135   2.627   3.159  0.3844  0.0400 -1.0955
   54CHL1    H3 3924   5.160   2.527   3.200 -0.0689  1.0436  1.9456
   54CHL1    O3 3925   5.114   2.632   3.018  0.7065  0.3529  0.2301
   54CHL1   H3' 3926   5.085   2.723   3.003  0.2610  0.8162  3.2592
   54CHL1    C4 3927   5.007   2.676   3.235  0.2997  0.1916 -0.0734
   54CHL1   H4A 3928   4.993   2.780   3.200 -0.7747 -0.8074 -2.8853
   54CHL1   H4B 3929   4.918   2.623   3.193 -0.6958  2.4999 -1.0408
   54CHL1    C5 3930   5.017   2.654   3.382 -0.1379 -0.4195 -0.2059
   54CHL1    C6 3931   4.939   2.574   3.453 -0.0005  0.2694 -0.7423
   54CHL1    H6 3932   4.863   2.527   3.390 -1.2819  2.5529 -0.9852
   54CHL1    C7 3933   4.946   2.556   3.600  0.2243  0.3254  0.8353
   54CHL1   H7A 3934   4.842   2.557   3.640  0.3516  1.4713  1.1920
   54CHL1   H7B 3935   4.987   2.458   3.633 -1.4201 -1.7003 -2.6412
   54CHL1    C8 3936   5.018   2.678   3.669 -0.6033 -0.0362  0.4558
   54CHL1    H8 3937   4.964   2.775   3.667 -2.4035 -0.9520  1.7917
   54CHL1   C14 3938   5.042   2.634   3.809  0.4584  0.5107 -0.7633
   54CHL1   H14 3939   5.101   2.540   3.806  0.5722  0.5996 -1.8608
   54CHL1   C15 3940   4.919   2.599   3.897  0.6172 -0.6637  0.1722
   54CHL1  H15A 3941   4.852   2.687   3.892  2.6679  1.0241  0.5987
   54CHL1  H15B 3942   4.857   2.511   3.871  0.6688 -0.7702  0.4048
   54CHL1   C16 3943   4.976   2.604   4.038 -0.1625  0.7945 -0.4090
   54CHL1  H16A 3944   4.914   2.683   4.086 -1.6387 -1.0339  0.8732
   54CHL1  H16B 3945   4.973   2.521   4.112  2.5371  2.1045  1.2948
   54CHL1   C17 3946   5.123   2.656   4.027 -0.1905  0.0921 -0.1123
   54CHL1   H17 3947   5.194   2.571   4.013  0.7034  0.7239  0.5146
   54CHL1   C13 3948   5.127   2.727   3.891 -0.0194 -0.4879  0.2172
   54CHL1   C18 3949   5.068   2.865   3.906  0.9870  0.4891  0.1754
   54CHL1  H18A 3950   5.110   2.931   3.985 -2.1506  1.4450  1.2352
   54CHL1  H18B 3951   5.076   2.918   3.808  1.0551  0.8274  0.3601
   54CHL1  H18C 3952   4.958   2.861   3.924  0.8802  1.6779 -0.1283
   54CHL1   C12 3953   5.270   2.732   3.827  0.7124  0.6836  0.0010
   54CHL1  H12A 3954   5.331   2.805   3.884  0.0492  0.4071  1.1000
   54CHL1  H12B 3955   5.310   2.629   3.842 -1.6822 -0.3003  0.1327
   54CHL1   C11 3956   5.264   2.763   3.680  0.4255 -1.5741 -0.4380
   54CHL1  H11A 3957   5.242   2.871   3.694  0.7524 -1.8654  3.3852
   54CHL1  H11B 3958   5.352   2.756   3.614  0.2282  0.1646 -0.9405
   54CHL1    C9 3959   5.157   2.690   3.601 -0.0470  0.0213 -0.1491
   54CHL1    H9 3960   5.199   2.589   3.579 -1.0009  0.1973 -3.3945
   54CHL1   C10 3961   5.138   2.730   3.449  0.2244 -0.1899  0.4595
   54CHL1   C19 3962   5.102   2.881   3.451 -0.6417  0.7448  0.3934
   54CHL1  H19A 3963   5.031   2.886   3.537 -2.1885 -5.0800 -0.0896
   54CHL1  H19B 3964   5.198   2.937   3.461  1.5785 -2.7092  0.2056
   54CHL1  H19C 3965   5.055   2.909   3.355  2.1296  0.9911 -0.9948
   54CHL1    C1 3966   5.270   2.705   3.365  0.4362 -0.6112  0.1502
   54CHL1   H1A 3967   5.347   2.780   3.395  1.7134 -2.2596  1.2205
   54CHL1   H1B 3968   5.296   2.598   3.378 -0.9462 -1.1270 -1.1530
   54CHL1    C2 3969   5.256   2.716   3.215  0.1714  0.2604 -0.6534
   54CHL1   H2A 3970   5.348   2.678   3.166  1.5993  1.7404  0.7475
   54CHL1   H2B 3971   5.241   2.821   3.182 -0.1445 -0.1285 -1.7943
   54CHL1   C20 3972   5.184   2.735   4.139  0.3537 -0.4388 -0.0728
   54CHL1   H20 3973   5.259   2.808   4.101 -0.8922 -0.3080 -2.4337
   54CHL1   C21 3974   5.273   2.648   4.223  0.0757  0.1438  0.0215
   54CHL1  H21A 3975   5.317   2.702   4.310 -0.2440  1.5928 -0.6797
   54CHL1  H21B 3976   5.364   2.612   4.171  0.9213  2.0424  0.1026
   54CHL1  H21C 3977   5.223   2.561   4.271 -0.6866 -0.1737 -1.3093
   54CHL1   C22 3978   5.080   2.813   4.233  0.0056 -0.0193 -0.4660
   54CHL1  H22A 3979   5.019   2.881   4.169 -0.3775 -1.7410 -2.0132
   54CHL1  H22B 3980   5.010   2.734   4.265  1.4734 -1.5069 -0.7943
   54CHL1   C23 3981   5.133   2.884   4.356  0.4600  0.3924 -0.2162
   54CHL1  H23A 3982   5.191   2.823   4.428  0.8667 -2.1113 -2.5259
   54CHL1  H23B 3983   5.203   2.959   4.312 -0.9810 -0.0643 -3.5880
   54CHL1   C24 3984   5.017   2.955   4.428  0.3633  0.3168  0.1267
   54CHL1  H24A 3985   5.063   3.036   4.489 -0.5672 -0.8910  2.5757
   54CHL1  H24B 3986   4.947   3.004   4.357  2.2378  1.6822 -0.8822
   54CHL1   C25 3987   4.925   2.878   4.528  0.2942  0.2581  0.3703
   54CHL1   H25 3988   4.875   2.794   4.477 -1.3053  1.2102  0.3146
   54CHL1   C26 3989   4.995   2.835   4.653 -0.2037 -0.8711 -0.3201
   54CHL1  H26A 3990   5.034   2.917   4.717  0.0670  0.8928 -2.5798
   54CHL1  H26B 3991   4.921   2.771   4.705  2.1374 -3.7077 -0.1984
   54CHL1  H26C 3992   5.085   2.775   4.628  1.0732  0.9345 -0.2290
   54CHL1   C27 3993   4.808   2.980   4.556 -1.0642 -0.6545 -0.0593
   54CHL1  H27A 3994   4.824   3.083   4.594 -1.2452 -0.5188 -0.3517
   54CHL1  H27B 3995   4.763   3.000   4.457  0.2267 -1.5722 -0.8601
   54CHL1  H27C 3996   4.726   2.940   4.619 -3.6543  0.2683 -2.6515
   55CHL1    C3 3997   0.614   5.101   3.274  0.6061 -0.0841  0.2993
   55CHL1    H3 3998   0.664   5.002   3.281  2.2531  0.6740 -0.2790
   55CHL1    O3 3999   0.537   5.105   3.156 -0.2235  0.5958  0.1549
   55CHL1   H3' 4000   0.519   5.199   3.145 -0.4728  0.3017 -2.7824
   55CHL1    C4 4001   0.534   5.137   3.399 -0.1145  0.7101  0.3532
   55CHL1   H4A 4002   0.472   5.226   3.371  0.9411  0.7334 -2.1634
   55CHL1   H4B 4003   0.459   5.058   3.418 -0.4479  0.9246 -0.0526
   55CHL1    C5 4004   0.617   5.163   3.519  0.4916  0.1494 -0.2501
   55CHL1    C6 4005   0.594   5.105   3.639  0.0088 -0.2331 -0.1492
   55CHL1    H6 4006   0.505   5.041   3.648 -1.0496  1.1047 -0.6794
   55CHL1    C7 4007   0.678   5.146   3.757  0.2013  0.4930 -0.1724
   55CHL1   H7A 4008   0.605   5.153   3.840 -0.1519 -1.3636 -0.2706
   55CHL1   H7B 4009   0.757   5.073   3.784  0.3032 -0.0737 -1.8717
   55CHL1    C8 4010   0.754   5.281   3.747  0.0593 -0.3012  0.2476
   55CHL1    H8 4011   0.683   5.366   3.756  2.2190  1.3933  2.7389
   55CHL1   C14 4012   0.859   5.286   3.860 -0.8753 -0.2169  0.3300
   55CHL1   H14 4013   0.920   5.196   3.839  1.5869  1.1895  1.0531
   55CHL1   C15 4014   0.803   5.275   4.004 -0.0608 -0.5669  0.2197
   55CHL1  H15A 4015   0.714   5.340   4.014  0.2065 -0.2640  0.6751
   55CHL1  H15B 4016   0.787   5.171   4.040 -1.0189  0.0807  1.7450
   55CHL1   C16 4017   0.912   5.338   4.087 -0.3446  0.0593  0.7640
   55CHL1  H16A 4018   0.874   5.428   4.140  0.7869  1.4128 -0.5996
   55CHL1  H16B 4019   0.951   5.261   4.156 -0.2775 -1.3804 -0.8063
   55CHL1   C17 4020   1.021   5.397   3.985 -0.4520  0.3653  0.9007
   55CHL1   H17 4021   1.096   5.316   3.967 -0.2350  1.0863 -1.9461
   55CHL1   C13 4022   0.949   5.413   3.852 -0.5219 -0.5310 -0.7427
   55CHL1   C18 4023   0.869   5.543   3.858  0.5639 -0.0564 -0.0235
   55CHL1  H18A 4024   0.820   5.553   3.957  1.6366 -1.2530  0.6562
   55CHL1  H18B 4025   0.938   5.629   3.852 -0.8144  1.0780 -0.2375
   55CHL1  H18C 4026   0.786   5.548   3.784  1.9858  0.3566 -1.6484
   55CHL1   C12 4027   1.023   5.393   3.720 -0.8680  0.1360  0.6950
   55CHL1  H12A 4028   1.104   5.469   3.709 -0.6768 -0.1658 -0.0047
   55CHL1  H12B 4029   1.076   5.296   3.713  0.7046  0.8606  1.7485
   55CHL1   C11 4030   0.925   5.392   3.599 -0.2228 -0.2540 -0.4677
   55CHL1  H11A 4031   0.884   5.495   3.607  2.5354  0.7988  1.7415
   55CHL1  H11B 4032   0.982   5.402   3.504 -1.4743 -0.5663 -1.2609
   55CHL1    C9 4033   0.827   5.278   3.608 -0.4400 -0.7811 -0.3632
   55CHL1    H9 4034   0.887   5.184   3.604  4.3091  1.8235  1.8192
   55CHL1   C10 4035   0.732   5.271   3.493 -0.6017  0.0806  0.1905
   55CHL1   C19 4036   0.672   5.408   3.457  0.2689  0.4165  0.2383
   55CHL1  H19A 4037   0.588   5.404   3.384  1.4444 -0.4700 -1.1191
   55CHL1  H19B 4038   0.635   5.441   3.556 -0.3270 -2.6497  1.1709
   55CHL1  H19C 4039   0.743   5.479   3.409 -0.3015  0.2381 -0.9120
   55CHL1    C1 4040   0.814   5.229   3.364 -0.7089  1.6821 -0.0794
   55CHL1   H1A 4041   0.891   5.301   3.330  2.1008 -0.2538  1.7222
   55CHL1   H1B 4042   0.865   5.130   3.372 -2.6361  0.7493  1.6377
   55CHL1    C2 4043   0.722   5.208   3.248 -0.3910  0.1445  0.4026
   55CHL1   H2A 4044   0.782   5.168   3.164 -3.7904 -0.0922 -2.0950
   55CHL1   H2B 4045   0.679   5.304   3.213 -3.5818 -1.7150 -1.2531
   55CHL1   C20 4046   1.101   5.517   4.041  0.7420  0.7333 -1.6218
   55CHL1   H20 4047   1.031   5.603   4.036  0.1421  0.3291 -0.5970
   55CHL1   C21 4048   1.228   5.540   3.954 -0.2027  0.1039  0.0165
   55CHL1  H21A 4049   1.281   5.445   3.932 -0.0723  0.4808 -1.3646
   55CHL1  H21B 4050   1.295   5.607   4.012 -0.8598  1.8094 -1.0988
   55CHL1  H21C 4051   1.204   5.589   3.857 -2.0869  4.0793  2.2042
   55CHL1   C22 4052   1.148   5.500   4.190  0.6219  0.5838 -0.2871
   55CHL1  H22A 4053   1.198   5.597   4.206  1.6500 -0.0713  0.5969
   55CHL1  H22B 4054   1.057   5.487   4.253  0.6054  0.9095 -0.2432
   55CHL1   C23 4055   1.254   5.387   4.214 -0.3763 -0.6944 -0.6882
   55CHL1  H23A 4056   1.185   5.306   4.182  0.2240 -1.7901  0.6565
   55CHL1  H23B 4057   1.343   5.392   4.148 -1.0444  1.4597 -1.4832
   55CHL1   C24 4058   1.295   5.361   4.358  0.6241  0.5196 -0.8914
   55CHL1  H24A 4059   1.214   5.378   4.431  1.1904 -2.4986  0.6106
   55CHL1  H24B 4060   1.313   5.251   4.360 -1.7440  0.0605 -1.7525
   55CHL1   C25 4061   1.419   5.430   4.394 -0.5693 -0.3547  0.4565
   55CHL1   H25 4062   1.499   5.429   4.318 -1.2579 -1.7655 -0.2882
   55CHL1   C26 4063   1.386   5.577   4.418  0.3767 -0.5037  0.4437
   55CHL1  H26A 4064   1.372   5.628   4.320  3.0048  1.1394  0.8291
   55CHL1  H26B 4065   1.299   5.586   4.486 -0.5739 -0.8796 -0.6877
   55CHL1  H26C 4066   1.467   5.625   4.477  0.1938 -0.1639  0.4212
   55CHL1   C27 4067   1.497   5.374   4.516  0.0770  0.1841  0.4109
   55CHL1  H27A 4068   1.585   5.440   4.536  1.6476 -1.5178 -0.6043
   55CHL1  H27B 4069   1.425   5.364   4.599 -1.7672 -1.2174 -1.2804
   55CHL1  H27C 4070   1.546   5.279   4.484  0.5123  0.9018 -1.1809
   56CHL1    C3 4071   2.099   3.759   3.399 -0.2963 -0.0829 -0.0976
   56CHL1    H3 4072   2.003   3.711   3.425 -0.0452  0.0970  1.2178
   56CHL1    O3 4073   2.107   3.778   3.260 -0.1001  0.5426  0.8235
   56CHL1   H3' 4074   2.199   3.781   3.235 -0.2167  0.8987  0.4158
   56CHL1    C4 4075   2.116   3.889   3.472 -0.5046  0.5653 -0.7702
   56CHL1   H4A 4076   2.209   3.939   3.438 -0.3329  0.2059 -0.8372
   56CHL1   H4B 4077   2.027   3.948   3.443  0.4988  3.0977  0.9628
   56CHL1    C5 4078   2.119   3.859   3.615  0.2220 -0.6023 -0.4761
   56CHL1    C6 4079   2.028   3.918   3.698  0.0934  0.9486  0.1685
   56CHL1    H6 4080   1.948   3.981   3.656 -1.8608 -0.4549  1.6464
   56CHL1    C7 4081   2.012   3.892   3.850 -0.4742  0.3796  0.9331
   56CHL1   H7A 4082   2.005   3.995   3.892  2.7551  2.1551 -2.2577
   56CHL1   H7B 4083   1.925   3.824   3.861 -1.8969  1.7044 -1.3217
   56CHL1    C8 4084   2.140   3.826   3.906 -0.0994  0.6671  0.3270
   56CHL1    H8 4085   2.215   3.909   3.905 -0.6373  1.1699 -1.2928
   56CHL1   C14 4086   2.116   3.778   4.052 -0.1204  0.3176  0.1990
   56CHL1   H14 4087   2.037   3.700   4.055  0.6993 -0.5100  0.7171
   56CHL1   C15 4088   2.066   3.887   4.153 -0.1043  0.5957 -0.3207
   56CHL1  H15A 4089   2.128   3.980   4.155  1.7320 -0.6008  0.2683
   56CHL1  H15B 4090   1.958   3.913   4.153 -0.7625 -1.9113  1.0347
   56CHL1   C16 4091   2.095   3.822   4.290 -0.0340 -0.0363  0.2970
   56CHL1  H16A 4092   2.143   3.888   4.365  0.3986  0.7644 -0.6597
   56CHL1  H16B 4093   1.996   3.791   4.329  0.9965 -2.1152  1.3628
   56CHL1   C17 4094   2.174   3.691   4.262 -0.5142 -0.0114  0.0898
   56CHL1   H17 4095   2.113   3.602   4.237 -0.8390  0.8677 -2.4882
   56CHL1   C13 4096   2.241   3.707   4.121  0.2750 -0.0989  0.1479
   56CHL1   C18 4097   2.361   3.807   4.128  0.3444  0.7734  0.1798
   56CHL1  H18A 4098   2.351   3.880   4.210  1.4298 -1.5766  2.5601
   56CHL1  H18B 4099   2.452   3.752   4.161 -1.0021 -0.6284  1.7377
   56CHL1  H18C 4100   2.378   3.852   4.028  0.8219 -2.6499 -1.4486
   56CHL1   C12 4101   2.277   3.580   4.035  0.3128  0.2075 -0.3533
   56CHL1  H12A 4102   2.371   3.529   4.066  1.7367  1.2551 -2.6184
   56CHL1  H12B 4103   2.196   3.504   4.031 -1.5315  2.1419 -1.2136
   56CHL1   C11 4104   2.300   3.624   3.884  0.1394 -0.0122  0.2782
   56CHL1  H11A 4105   2.397   3.678   3.886 -0.0304  0.4159 -1.3082
   56CHL1  H11B 4106   2.305   3.529   3.828  0.2346  0.2230 -0.1169
   56CHL1    C9 4107   2.190   3.712   3.816  0.4185  0.2876 -0.2028
   56CHL1    H9 4108   2.096   3.652   3.824 -0.2302  1.3694  0.5723
   56CHL1   C10 4109   2.224   3.759   3.671  0.3060 -0.0431 -0.0764
   56CHL1   C19 4110   2.361   3.816   3.659  0.4786 -0.0738  0.0621
   56CHL1  H19A 4111   2.385   3.887   3.742 -0.5642 -0.9517  1.1540
   56CHL1  H19B 4112   2.428   3.729   3.663 -0.7406 -1.0774 -0.6124
   56CHL1  H19C 4113   2.372   3.856   3.556 -3.3877  0.2193 -0.3850
   56CHL1    C1 4114   2.198   3.629   3.588  0.0012 -0.2998 -0.6683
   56CHL1   H1A 4115   2.279   3.555   3.608  1.6251  2.1373  2.5472
   56CHL1   H1B 4116   2.101   3.586   3.621  0.4010  0.0549  1.0668
   56CHL1    C2 4117   2.205   3.661   3.437  0.3103 -0.0100 -0.0755
   56CHL1   H2A 4118   2.188   3.564   3.387 -1.8379 -0.9184  2.1954
   56CHL1   H2B 4119   2.309   3.692   3.414  0.3217  0.1573  0.1949
   56CHL1   C20 4120   2.259   3.653   4.387  1.1954  0.2680  0.0422
   56CHL1   H20 4121   2.334   3.735   4.391 -0.4754  2.0352 -2.1937
   56CHL1   C21 4122   2.327   3.518   4.359 -0.4296  0.3156  0.3583
   56CHL1  H21A 4123   2.399   3.518   4.275 -2.3735 -1.2592 -1.3915
   56CHL1  H21B 4124   2.249   3.443   4.334 -0.6150  0.7068 -0.2594
   56CHL1  H21C 4125   2.385   3.469   4.441 -0.4337  0.5669  0.5119
   56CHL1   C22 4126   2.181   3.650   4.524  0.5182  0.4847  0.9700
   56CHL1  H22A 4127   2.135   3.747   4.553 -1.3967  0.3179 -1.2365
   56CHL1  H22B 4128   2.093   3.582   4.518 -0.4393  1.8266 -1.0234
   56CHL1   C23 4129   2.279   3.614   4.633 -0.2736  0.4818 -0.0289
   56CHL1  H23A 4130   2.324   3.513   4.625  0.7455  0.9527 -0.4476
   56CHL1  H23B 4131   2.368   3.681   4.625 -0.8056  1.0187 -2.4059
   56CHL1   C24 4132   2.207   3.622   4.772  0.3007  0.3727  0.4286
   56CHL1  H24A 4133   2.167   3.725   4.778  1.6977  0.9224  0.7327
   56CHL1  H24B 4134   2.115   3.564   4.750 -0.5442  2.1384 -0.9038
   56CHL1   C25 4135   2.288   3.580   4.899  0.0852 -0.5175  0.1239
   56CHL1   H25 4136   2.376   3.648   4.901  1.9172 -2.6728 -1.7805
   56CHL1   C26 4137   2.199   3.614   5.019 -0.0131  0.1818  0.1343
   56CHL1  H26A 4138   2.099   3.566   5.016  0.6021 -1.1289 -0.3605
   56CHL1  H26B 4139   2.243   3.582   5.117 -1.3545  0.1326  0.7387
   56CHL1  H26C 4140   2.186   3.723   5.032 -0.8458  0.0311  0.6379
   56CHL1   C27 4141   2.338   3.430   4.900 -0.1181  0.1585 -0.1551
   56CHL1  H27A 4142   2.418   3.408   4.973 -1.5375  0.6873  1.6271
   56CHL1  H27B 4143   2.259   3.361   4.936  0.0541  0.2749  0.4567
   56CHL1  H27C 4144   2.382   3.391   4.805  2.4305 -0.8106  1.3164
   57SAPC     N 4145   5.613   6.755   6.718  0.4666 -0.3304 -0.3583
   57SAPC   C12 4146   5.675   6.844   6.818 -0.4562  0.5539  0.5107
   57SAPC  H12A 4147   5.735   6.779   6.880  0.4197 -0.7956 -1.6197
   57SAPC  H12B 4148   5.607   6.882   6.892  0.2359  2.0378  0.4347
   57SAPC   C13 4149   5.704   6.724   6.608 -0.1810  0.2683  0.2737
   57SAPC  H13A 4150   5.735   6.807   6.547  2.0674  0.8332  2.0602
   57SAPC  H13B 4151   5.801   6.692   6.643  0.2005  1.1341  0.0263
   57SAPC  H13C 4152   5.668   6.639   6.552 -0.8656 -0.6605  2.0403
   57SAPC   C14 4153   5.583   6.629   6.792 -0.1533 -0.2697 -0.1715
   57SAPC  H14A 4154   5.525   6.561   6.732 -2.3210  2.2932 -1.1960
   57SAPC  H14B 4155   5.674   6.581   6.826 -0.1708 -0.7771 -0.8220
   57SAPC  H14C 4156   5.526   6.654   6.880 -0.1033  1.0809 -0.4976
   57SAPC   C15 4157   5.490   6.810   6.658  0.7379 -0.7931 -0.0008
   57SAPC  H15A 4158   5.462   6.740   6.581 -0.3149 -0.2077 -0.1600
   57SAPC  H15B 4159   5.417   6.816   6.738  1.1306 -0.5711  0.3508
   57SAPC  H15C 4160   5.501   6.911   6.623 -2.3060  0.1794  1.5265
   57SAPC   C11 4161   5.747   6.973   6.762  0.7010  0.2210 -0.2069
   57SAPC  H11A 4162   5.815   6.938   6.682  1.7520  1.4842  0.0954
   57SAPC  H11B 4163   5.810   7.008   6.847 -0.1770 -0.5670  0.7988
   57SAPC     P 4164   5.723   7.211   6.658 -0.0748  0.1138 -0.2301
   57SAPC   O13 4165   5.645   7.317   6.726  0.3100  0.4512  0.6681
   57SAPC   O14 4166   5.872   7.215   6.664 -0.0677  0.2771 -0.1145
   57SAPC   O12 4167   5.664   7.072   6.709 -0.1546 -0.1898 -0.2556
   57SAPC   O11 4168   5.686   7.189   6.508 -0.3688 -0.1762  0.4094
   57SAPC    C1 4169   5.771   7.220   6.397 -0.1782  0.4411  0.3673
   57SAPC    HA 4170   5.714   7.259   6.310  0.4856  1.5368  0.4096
   57SAPC    HB 4171   5.836   7.308   6.416  1.6949 -0.7170 -0.3849
   57SAPC    C2 4172   5.858   7.100   6.354 -0.4186 -0.0909  0.3938
   57SAPC    HS 4173   5.913   7.077   6.448 -2.7196 -0.6153  1.6867
   57SAPC   O21 4174   5.936   7.133   6.232  0.0084  0.3011 -0.6107
   57SAPC   C21 4175   6.063   7.100   6.252  0.4180  0.8756  0.2974
   57SAPC   O22 4176   6.114   7.040   6.346 -0.1233  0.0032 -0.3515
   57SAPC   C22 4177   6.144   7.154   6.129 -0.1729 -0.0453 -0.1711
   57SAPC   H2R 4178   6.134   7.265   6.138  0.8528 -0.0283  1.1976
   57SAPC   H2S 4179   6.249   7.132   6.158 -0.0985 -2.0912 -1.7961
   57SAPC    C3 4180   5.777   6.972   6.335  0.6491 -0.2008  0.1607
   57SAPC    HX 4181   5.704   6.949   6.416 -1.3375 -0.0591 -1.5035
   57SAPC    HY 4182   5.847   6.888   6.316  1.2698  0.0813  1.1553
   57SAPC   O31 4183   5.692   6.988   6.221  0.0992 -0.0995 -0.7685
   57SAPC   C31 4184   5.735   6.950   6.109 -0.2361  0.0308 -0.4176
   57SAPC   O32 4185   5.840   6.891   6.090 -1.1058 -0.0107  0.0246
   57SAPC   C32 4186   5.645   7.005   5.996  0.8399  0.3803 -0.9800
   57SAPC   H2X 4187   5.662   7.114   5.983 -1.3080  0.8382 -0.2652
   57SAPC   H2Y 4188   5.539   7.008   6.027  1.0053  0.5158 -0.4110
   57SAPC   C23 4189   6.105   7.074   6.000  0.3950 -0.6387 -0.4744
   57SAPC   H3R 4190   6.002   7.098   5.965  0.8030  0.6857 -0.8149
   57SAPC   H3S 4191   6.098   6.970   6.037 -1.6595  0.1510  1.6115
   57SAPC   C24 4192   6.192   7.103   5.878 -0.2278  0.6119 -0.0267
   57SAPC   H4R 4193   6.186   7.015   5.810  0.3491  0.0722  0.6001
   57SAPC   H4S 4194   6.293   7.105   5.923  0.2445  0.6203 -1.0565
   57SAPC   C25 4195   6.183   7.238   5.810  0.0633  0.2902 -0.2178
   57SAPC   H5R 4196   6.229   7.319   5.869 -0.1270  1.4016 -1.5492
   57SAPC   C26 4197   6.136   7.267   5.695  0.5569  0.3660  0.4584
   57SAPC   H6R 4198   6.112   7.373   5.682 -1.6738  0.0727  1.5925
   57SAPC   C27 4199   6.069   7.162   5.604  0.7128 -0.6448  0.7580
   57SAPC   H7R 4200   6.079   7.058   5.641 -2.2195 -0.3435  2.7570
   57SAPC   H7S 4201   6.105   7.169   5.499 -0.0953  2.6802  0.5782
   57SAPC   C28 4202   5.919   7.184   5.591 -0.0539 -0.3652  0.1941
   57SAPC   H8R 4203   5.869   7.166   5.687 -0.8296 -1.7812 -0.4434
   57SAPC   C29 4204   5.844   7.201   5.483 -0.8051  0.0056 -0.1964
   57SAPC   H9R 4205   5.736   7.207   5.507 -0.5406  0.9049  0.8334
   57SAPC  C210 4206   5.893   7.249   5.348  0.1909 -0.1834  1.2790
   57SAPC  H10R 4207   5.973   7.188   5.301  0.0234  0.7730 -0.3509
   57SAPC  H10S 4208   5.934   7.347   5.382 -0.6807 -0.3949  3.0571
   57SAPC  C211 4209   5.779   7.254   5.251 -0.6464  0.2255  1.0334
   57SAPC  H11R 4210   5.745   7.160   5.207  1.1336 -0.0622  0.1725
   57SAPC  C212 4211   5.732   7.372   5.207  0.2955  0.4815 -0.1835
   57SAPC  H12R 4212   5.645   7.377   5.140  0.9343  2.5072 -0.9075
   57SAPC  C213 4213   5.779   7.508   5.249  0.7442 -0.0438  0.0050
   57SAPC  H13R 4214   5.885   7.523   5.218  0.8081 -0.1979  0.1434
   57SAPC  H13S 4215   5.783   7.509   5.360 -2.1232 -0.5785  0.1875
   57SAPC  C214 4216   5.675   7.614   5.213 -0.4780 -1.1444 -0.1004
   57SAPC  H14R 4217   5.601   7.624   5.293 -0.1537 -1.0650  0.1890
   57SAPC  C215 4218   5.677   7.684   5.100 -0.7596 -0.6362 -0.3066
   57SAPC  H15R 4219   5.603   7.765   5.088  0.1032  0.6530  2.3987
   57SAPC  C216 4220   5.774   7.650   4.990  0.2661  0.0673  0.1150
   57SAPC  H16R 4221   5.719   7.645   4.894  0.4490  0.4090 -0.0072
   57SAPC  H16S 4222   5.831   7.556   5.009  2.3099  1.5068  1.5157
   57SAPC  C217 4223   5.877   7.764   4.978 -0.0917 -0.7157 -0.3322
   57SAPC  H17R 4224   5.912   7.790   5.081  3.0329  1.5394 -1.8094
   57SAPC  H17S 4225   5.822   7.855   4.947  2.6163  1.9936  2.1395
   57SAPC  C218 4226   5.980   7.743   4.871 -0.4313 -0.1437 -0.0740
   57SAPC  H18R 4227   6.040   7.835   4.855 -0.0202 -0.3441  0.2974
   57SAPC  H18S 4228   5.949   7.710   4.769 -1.6571  0.9733 -0.0800
   57SAPC  C219 4229   6.090   7.647   4.923 -0.4624  0.5795 -0.0280
   57SAPC  H19R 4230   6.165   7.629   4.843  0.6246  1.3388  0.7912
   57SAPC  H19S 4231   6.042   7.548   4.940  3.3079 -1.9155 -2.4465
   57SAPC  C220 4232   6.170   7.676   5.044  0.0988  0.2560  0.3538
   57SAPC  H20R 4233   6.103   7.669   5.133 -1.9044 -0.2764 -1.1332
   57SAPC  H20S 4234   6.204   7.782   5.044 -0.1389  0.3842 -2.0635
   57SAPC  H20T 4235   6.259   7.611   5.054 -1.0989 -1.5260 -0.2303
   57SAPC   C33 4236   5.647   6.938   5.857  0.3543  0.0269  0.0488
   57SAPC   H3X 4237   5.620   6.830   5.858  0.0846  0.0939  1.5038
   57SAPC   H3Y 4238   5.748   6.949   5.812  0.0241  1.0749 -0.4663
   57SAPC   C34 4239   5.540   6.998   5.770 -0.0679 -0.4743 -0.0183
   57SAPC   H4X 4240   5.531   7.108   5.782  1.1359 -0.5387  1.9468
   57SAPC   H4Y 4241   5.450   6.962   5.825  1.0145  0.0159  2.1959
   57SAPC   C35 4242   5.547   6.976   5.617 -0.1375  0.2071 -0.0018
   57SAPC   H5X 4243   5.524   6.871   5.587  1.4161  0.3597 -1.9773
   57SAPC   H5Y 4244   5.652   6.986   5.582 -0.1216 -1.9236 -0.7047
   57SAPC   C36 4245   5.462   7.070   5.535  0.2686 -0.1697 -0.2052
   57SAPC   H6X 4246   5.479   7.176   5.566  0.6257 -0.8929  2.2806
   57SAPC   H6Y 4247   5.357   7.048   5.564  0.0525  1.0206 -0.0077
   57SAPC   C37 4248   5.486   7.061   5.389 -0.0175  0.4476  0.4265
   57SAPC   H7X 4249   5.444   6.967   5.347 -0.0113  0.5772  0.1297
   57SAPC   H7Y 4250   5.596   7.061   5.377 -0.0489 -2.1015 -0.4429
   57SAPC   C38 4251   5.415   7.171   5.297 -0.4126  0.5810 -0.3367
   57SAPC   H8X 4252   5.439   7.133   5.195  1.3195 -1.1131  0.6332
   57SAPC   H8Y 4253   5.467   7.268   5.315 -0.5305  0.6855 -0.5546
   57SAPC   C39 4254   5.264   7.199   5.312 -0.2056  0.1721  0.9459
   57SAPC   H9X 4255   5.246   7.259   5.403  0.2669  0.6280  0.7400
   57SAPC   H9Y 4256   5.202   7.107   5.313 -0.6595  0.4784  1.1477
   57SAPC  C310 4257   5.203   7.272   5.189  0.3896 -0.1865 -0.2207
   57SAPC  H10X 4258   5.231   7.216   5.097  1.0048 -0.7497  0.2905
   57SAPC  H10Y 4259   5.249   7.373   5.190  1.4253 -0.6047 -1.6312
   57SAPC  C311 4260   5.052   7.296   5.198 -0.0463  0.3914  0.7231
   57SAPC  H11X 4261   5.032   7.306   5.307  1.2538  1.0748  0.9218
   57SAPC  H11Y 4262   4.996   7.208   5.159 -0.5465  0.3177  1.5692
   57SAPC  C312 4263   4.998   7.418   5.129 -0.6542 -0.6043  1.0726
   57SAPC  H12X 4264   4.890   7.429   5.152 -1.0154 -1.0410 -0.3038
   57SAPC  H12Y 4265   5.009   7.415   5.018  0.5503  0.3325  1.1431
   57SAPC  C313 4266   5.081   7.548   5.154  0.1547 -0.0863  0.5456
   57SAPC  H13X 4267   5.167   7.554   5.084 -1.3635 -1.4657 -1.5761
   57SAPC  H13Y 4268   5.111   7.558   5.260  0.3694  0.4590  0.4394
   57SAPC  C314 4269   5.001   7.682   5.135  0.4033 -0.5029  0.3158
   57SAPC  H14X 4270   4.908   7.670   5.195 -1.2487 -0.9233 -2.2067
   57SAPC  H14Y 4271   4.979   7.685   5.026  3.9662 -0.8738 -0.5229
   57SAPC  C315 4272   5.072   7.811   5.181  0.4246 -0.5229 -0.0408
   57SAPC  H15X 4273   5.093   7.807   5.290  0.3591 -3.7735 -0.0475
   57SAPC  H15Y 4274   4.999   7.893   5.164  0.5025 -0.4735 -0.1369
   57SAPC  C316 4275   5.192   7.850   5.098 -0.2676  0.6708 -0.3500
   57SAPC  H16X 4276   5.164   7.862   4.992  2.3144  0.1178 -1.1858
   57SAPC  H16Y 4277   5.260   7.762   5.092  0.4771  1.1336  0.8599
   57SAPC  C317 4278   5.274   7.964   5.149  0.1117  0.3712 -0.0552
   57SAPC  H17X 4279   5.372   7.955   5.096  0.3411  1.6546  0.1149
   57SAPC  H17Y 4280   5.278   7.960   5.260  0.3379  1.0104 -0.0344
   57SAPC  C318 4281   5.212   8.097   5.093  0.1569  0.2330 -1.1284
   57SAPC  H18X 4282   5.236   8.104   4.985  0.2052  0.5780 -1.0943
   57SAPC  H18Y 4283   5.236   8.186   5.154 -0.8201 -0.6898  0.6701
   57SAPC  H18Z 4284   5.103   8.079   5.099  0.0814  1.0954  1.0129
   58SAPC     N 4285   2.767   4.910   6.692  0.1784  0.2412  0.3086
   58SAPC   C12 4286   2.634   4.987   6.694  0.6439  0.6716 -0.1548
   58SAPC  H12A 4287   2.563   4.910   6.668 -0.0418  0.7899  1.2573
   58SAPC  H12B 4288   2.634   5.054   6.610 -1.3230 -0.5240 -1.1730
   58SAPC   C13 4289   2.816   4.899   6.554 -1.0567 -0.1792  0.8392
   58SAPC  H13A 4290   2.914   4.857   6.537  0.4501  2.8112  1.4810
   58SAPC  H13B 4291   2.741   4.858   6.487 -1.0749 -0.0808  0.7991
   58SAPC  H13C 4292   2.826   5.000   6.518 -1.8715 -0.6171 -0.6768
   58SAPC   C14 4293   2.868   4.979   6.774 -1.2760  0.1708 -0.3693
   58SAPC  H14A 4294   2.884   5.082   6.745  1.2846  0.5039  1.8397
   58SAPC  H14B 4295   2.840   4.976   6.878 -0.1124  0.4340 -0.0256
   58SAPC  H14C 4296   2.962   4.925   6.772 -0.6329  1.1131  1.6006
   58SAPC   C15 4297   2.751   4.768   6.737  0.2441 -0.3356  0.3300
   58SAPC  H15A 4298   2.727   4.759   6.842 -0.0021 -2.3848  0.1398
   58SAPC  H15B 4299   2.674   4.718   6.680  0.7586 -0.8164  0.0471
   58SAPC  H15C 4300   2.843   4.717   6.711  0.2048  0.4154 -1.4881
   58SAPC   C11 4301   2.583   5.049   6.828 -0.0331  0.3686  0.0308
   58SAPC  H11A 4302   2.516   5.136   6.808  0.3554  0.5965 -0.2971
   58SAPC  H11B 4303   2.666   5.086   6.892  0.0181  1.8988 -0.8780
   58SAPC     P 4304   2.399   4.871   6.860  0.1153  0.3535 -0.2109
   58SAPC   O13 4305   2.360   4.794   6.979  0.3527  0.5800 -0.0414
   58SAPC   O14 4306   2.300   4.958   6.796  0.2885  0.0941  0.1137
   58SAPC   O12 4307   2.523   4.957   6.914  0.4567  0.1548  0.4230
   58SAPC   O11 4308   2.457   4.773   6.751  0.2646 -0.1334  0.2485
   58SAPC    C1 4309   2.431   4.638   6.752  0.8605  1.2374 -0.0542
   58SAPC    HA 4310   2.469   4.596   6.847  0.9775  2.1235  0.3058
   58SAPC    HB 4311   2.322   4.617   6.747  0.1673  4.5591 -2.1254
   58SAPC    C2 4312   2.463   4.560   6.625  0.1912 -0.8957 -0.0423
   58SAPC    HS 4313   2.574   4.557   6.622  0.3518 -3.7778  2.7408
   58SAPC   O21 4314   2.404   4.634   6.507 -0.1472 -0.4313 -1.0656
   58SAPC   C21 4315   2.485   4.716   6.439  0.8249 -0.0878 -0.3009
   58SAPC   O22 4316   2.607   4.727   6.446 -0.1398  0.0137 -0.0175
   58SAPC   C22 4317   2.407   4.806   6.336 -0.0093 -0.0069 -0.4655
   58SAPC   H2R 4318   2.388   4.900   6.392 -1.0454  0.8404 -2.1763
   58SAPC   H2S 4319   2.473   4.825   6.249 -0.2939  3.4935 -0.0578
   58SAPC    C3 4320   2.415   4.418   6.619  0.5542 -0.0353 -0.2490
   58SAPC    HX 4321   2.308   4.423   6.649  0.2017  2.7327 -1.6494
   58SAPC    HY 4322   2.482   4.370   6.694  0.7756  2.3305  1.1637
   58SAPC   O31 4323   2.429   4.361   6.489  0.2198 -0.0981  0.0835
   58SAPC   C31 4324   2.549   4.345   6.444  1.0002  0.4979  0.7931
   58SAPC   O32 4325   2.659   4.351   6.505 -0.9002 -0.2843 -0.0135
   58SAPC   C32 4326   2.531   4.287   6.302 -0.3663 -0.2303  0.3268
   58SAPC   H2X 4327   2.446   4.337   6.251  0.0937  0.6538  0.4067
   58SAPC   H2Y 4328   2.496   4.182   6.315 -2.8016  0.5530  0.6879
   58SAPC   C23 4329   2.270   4.741   6.301 -0.6676 -0.3111 -0.1354
   58SAPC   H3R 4330   2.222   4.831   6.256  0.1938 -0.7707 -2.0187
   58SAPC   H3S 4331   2.211   4.713   6.391 -0.7976 -2.9203 -0.9687
   58SAPC   C24 4332   2.259   4.623   6.198  0.0699 -0.0175 -0.0361
   58SAPC   H4R 4333   2.153   4.597   6.179  0.5987 -1.9906 -0.4793
   58SAPC   H4S 4334   2.309   4.535   6.242  2.0009  0.5267 -1.0199
   58SAPC   C25 4335   2.330   4.651   6.066  0.4225 -0.3299 -0.1155
   58SAPC   H5R 4336   2.401   4.735   6.076 -0.3130  0.2377  0.4476
   58SAPC   C26 4337   2.320   4.574   5.960  0.1491 -0.2656  0.4091
   58SAPC   H6R 4338   2.391   4.587   5.877  0.2012 -4.8745 -0.4983
   58SAPC   C27 4339   2.222   4.459   5.941  0.0078 -0.6243 -0.3385
   58SAPC   H7R 4340   2.140   4.493   5.874 -0.1392 -0.8986 -0.2973
   58SAPC   H7S 4341   2.169   4.440   6.037  2.1556  0.0157  1.0209
   58SAPC   C28 4342   2.285   4.327   5.905 -0.6599  0.2322 -0.1726
   58SAPC   H8R 4343   2.381   4.292   5.947 -0.6377 -2.7156 -2.3735
   58SAPC   C29 4344   2.244   4.249   5.802 -0.2072 -0.3578  1.2961
   58SAPC   H9R 4345   2.300   4.155   5.789  0.1311 -0.1382  1.1610
   58SAPC  C210 4346   2.124   4.280   5.701 -0.5410  0.2638  0.2045
   58SAPC  H10R 4347   2.065   4.362   5.746  1.2636  1.4905  0.4212
   58SAPC  H10S 4348   2.056   4.193   5.686 -0.6083  0.1867  0.9038
   58SAPC  C211 4349   2.178   4.323   5.563 -0.4776 -0.6721 -0.0369
   58SAPC  H11R 4350   2.221   4.424   5.567  0.0251 -0.8218 -1.1551
   58SAPC  C212 4351   2.185   4.259   5.442 -0.0509  0.0673 -0.5869
   58SAPC  H12R 4352   2.219   4.321   5.358  1.4444  1.0811  0.6976
   58SAPC  C213 4353   2.117   4.124   5.424  0.0705 -0.1765  0.0170
   58SAPC  H13R 4354   2.007   4.135   5.415 -0.0789 -0.7271  0.9764
   58SAPC  H13S 4355   2.128   4.064   5.517 -3.4312  1.9365  2.0170
   58SAPC  C214 4356   2.167   4.051   5.304  0.4750  0.3691  0.9596
   58SAPC  H14R 4357   2.274   4.073   5.290  0.0329  2.2908  0.3067
   58SAPC  C215 4358   2.090   3.991   5.202 -0.0388  0.3243 -0.0289
   58SAPC  H15R 4359   2.145   3.964   5.110  0.6894  1.1370  0.1516
   58SAPC  C216 4360   1.941   3.985   5.199  0.2125 -0.5190 -0.0223
   58SAPC  H16R 4361   1.903   4.055   5.121 -1.7375 -1.9625 -0.4412
   58SAPC  H16S 4362   1.892   4.010   5.295 -0.9875  2.0261 -1.1871
   58SAPC  C217 4363   1.891   3.839   5.172 -0.9272  0.0646 -0.0083
   58SAPC  H17R 4364   1.971   3.779   5.220  0.0056  1.7428  0.5950
   58SAPC  H17S 4365   1.897   3.826   5.062 -1.0582 -1.7530  0.1633
   58SAPC  C218 4366   1.752   3.804   5.219 -0.0557 -0.6127  0.0675
   58SAPC  H18R 4367   1.687   3.894   5.220  2.1151  1.1346 -2.5839
   58SAPC  H18S 4368   1.749   3.770   5.325  0.4777 -2.4176 -0.4598
   58SAPC  C219 4369   1.676   3.694   5.143 -0.0179  0.1766  0.1226
   58SAPC  H19R 4370   1.739   3.607   5.115  0.3583 -0.5950  3.1179
   58SAPC  H19S 4371   1.636   3.741   5.050  0.2568 -0.2984 -0.2392
   58SAPC  C220 4372   1.566   3.628   5.230  0.3836  0.1717 -0.9678
   58SAPC  H20R 4373   1.526   3.542   5.173  0.3959 -0.7923  0.4203
   58SAPC  H20S 4374   1.481   3.699   5.230 -0.5801 -0.9203  0.3170
   58SAPC  H20T 4375   1.595   3.586   5.329 -1.6360 -0.3909 -0.5590
   58SAPC   C33 4376   2.665   4.285   6.224  0.3741  0.4322 -0.8954
   58SAPC   H3X 4377   2.731   4.210   6.274 -1.2720  0.6742  1.8133
   58SAPC   H3Y 4378   2.702   4.390   6.215 -0.9176  0.8291 -1.8631
   58SAPC   C34 4379   2.643   4.237   6.082 -1.0489 -0.5787  0.1292
   58SAPC   H4X 4380   2.737   4.231   6.022 -1.8734 -4.0295 -1.0496
   58SAPC   H4Y 4381   2.568   4.301   6.031  2.3524  3.4902 -0.2867
   58SAPC   C35 4382   2.588   4.093   6.069 -0.0860 -0.3019 -0.6552
   58SAPC   H5X 4383   2.487   4.086   6.113 -0.7694  2.6418 -1.5230
   58SAPC   H5Y 4384   2.660   4.020   6.113 -2.1483 -2.5882 -0.8639
   58SAPC   C36 4385   2.568   4.067   5.929  0.3269 -0.2028 -0.1213
   58SAPC   H6X 4386   2.664   4.083   5.874  0.3489  1.5133  0.3534
   58SAPC   H6Y 4387   2.493   4.140   5.892 -0.2334 -0.7015  0.0296
   58SAPC   C37 4388   2.519   3.920   5.900 -0.2627  0.2798 -0.0370
   58SAPC   H7X 4389   2.429   3.899   5.962  1.9402 -1.4595  2.7699
   58SAPC   H7Y 4390   2.601   3.857   5.940 -0.5195 -0.1441 -0.1780
   58SAPC   C38 4391   2.481   3.878   5.756  0.2458 -0.2250  0.1521
   58SAPC   H8X 4392   2.376   3.913   5.748 -0.0675 -1.3839 -1.2362
   58SAPC   H8Y 4393   2.487   3.768   5.756 -1.5546 -0.3545 -0.7915
   58SAPC   C39 4394   2.555   3.942   5.639 -0.1741  0.5024 -0.3051
   58SAPC   H9X 4395   2.665   3.923   5.632 -0.2902 -0.3270  0.0251
   58SAPC   H9Y 4396   2.538   4.052   5.636 -0.7749  0.4436  0.6504
   58SAPC  C310 4397   2.486   3.878   5.517 -0.4715 -0.1100  0.0404
   58SAPC  H10X 4398   2.379   3.897   5.540 -0.4765  1.7685 -1.2868
   58SAPC  H10Y 4399   2.516   3.771   5.516  0.9603  0.2724  0.2763
   58SAPC  C311 4400   2.523   3.954   5.387 -0.2147  0.4503  0.4997
   58SAPC  H11X 4401   2.633   3.969   5.393 -0.2007  0.1354  1.0563
   58SAPC  H11Y 4402   2.476   4.054   5.377 -1.5737 -0.1510  0.7587
   58SAPC  C312 4403   2.493   3.871   5.261 -0.1802  0.1696  0.5375
   58SAPC  H12X 4404   2.384   3.851   5.254 -0.2205 -0.0542  1.6892
   58SAPC  H12Y 4405   2.534   3.769   5.254  0.4651  0.5098 -1.2523
   58SAPC  C313 4406   2.518   3.956   5.137 -0.4865 -0.4822 -0.2964
   58SAPC  H13X 4407   2.628   3.962   5.120 -0.3394 -0.2471  0.6437
   58SAPC  H13Y 4408   2.487   4.061   5.156 -0.6166 -0.5042 -0.3827
   58SAPC  C314 4409   2.438   3.911   5.017  0.4709  0.7441 -0.2612
   58SAPC  H14X 4410   2.329   3.922   5.039 -0.4527 -2.2181 -2.6465
   58SAPC  H14Y 4411   2.455   3.803   4.994 -0.0840  0.4142  0.8152
   58SAPC  C315 4412   2.477   4.000   4.887  0.1011  0.1713 -0.6453
   58SAPC  H15X 4413   2.588   4.006   4.876  0.2174 -0.9724 -0.2766
   58SAPC  H15Y 4414   2.450   4.103   4.917  0.8855  0.1120  0.3278
   58SAPC  C316 4415   2.409   3.962   4.753 -0.2956  0.5632  0.9963
   58SAPC  H16X 4416   2.299   3.977   4.754 -0.2404  0.9445  1.7121
   58SAPC  H16Y 4417   2.435   3.855   4.745  1.4954  1.1188 -2.8075
   58SAPC  C317 4418   2.465   4.029   4.622  0.9006  0.1093 -0.4919
   58SAPC  H17X 4419   2.575   4.033   4.629  0.7598  0.8230  2.3937
   58SAPC  H17Y 4420   2.428   4.134   4.617  1.3719  0.2257 -2.1937
   58SAPC  C318 4421   2.421   3.948   4.504  0.2868 -0.9629 -0.5880
   58SAPC  H18X 4422   2.310   3.953   4.495  0.2104  0.3114  0.6910
   58SAPC  H18Y 4423   2.448   3.840   4.506  0.8543 -0.8260 -0.6692
   58SAPC  H18Z 4424   2.456   3.989   4.408 -0.5531  1.4629  0.0587
   59SAPC     N 4425   6.365   3.343   7.302 -0.2595  0.3503 -0.2539
   59SAPC   C12 4426   6.459   3.340   7.189  0.5448  0.1812  0.4251
   59SAPC  H12A 4427   6.431   3.252   7.133  1.7015  1.0929 -1.7153
   59SAPC  H12B 4428   6.563   3.327   7.215  1.0003 -0.2618 -1.4432
   59SAPC   C13 4429   6.389   3.465   7.377 -0.2221 -0.0504  0.0560
   59SAPC  H13A 4430   6.375   3.545   7.305 -1.6196 -0.2485  0.0759
   59SAPC  H13B 4431   6.317   3.484   7.455  0.4862  0.0841  0.6943
   59SAPC  H13C 4432   6.490   3.473   7.414 -0.4523 -1.7665  1.1605
   59SAPC   C14 4433   6.224   3.363   7.257 -0.4655 -0.3253  0.0862
   59SAPC  H14A 4434   6.207   3.463   7.219 -0.3395 -0.6632 -0.8764
   59SAPC  H14B 4435   6.201   3.296   7.176 -0.0952  1.3908 -1.5200
   59SAPC  H14C 4436   6.152   3.336   7.333 -0.2183 -0.1951  0.3704
   59SAPC   C15 4437   6.377   3.232   7.401  0.4031  1.0478 -0.2020
   59SAPC  H15A 4438   6.344   3.138   7.361 -0.6088  1.0825  0.5028
   59SAPC  H15B 4439   6.482   3.225   7.427  1.1027 -0.1505 -3.0362
   59SAPC  H15C 4440   6.308   3.245   7.483 -0.6107  0.9523 -1.0171
   59SAPC   C11 4441   6.456   3.457   7.091  0.0675 -0.4165  0.1152
   59SAPC  H11A 4442   6.353   3.462   7.051  0.8125  0.6256 -1.8093
   59SAPC  H11B 4443   6.515   3.442   6.998 -0.1626  2.0815 -0.4909
   59SAPC     P 4444   6.629   3.636   7.139  0.1019  0.4328 -0.2340
   59SAPC   O13 4445   6.633   3.770   7.189 -0.4116  0.3622 -0.0183
   59SAPC   O14 4446   6.708   3.530   7.200  0.2937  0.6013 -0.5067
   59SAPC   O12 4447   6.482   3.583   7.153  0.2547 -0.0477  0.9386
   59SAPC   O11 4448   6.659   3.642   6.983  0.1727 -0.4672  0.4594
   59SAPC    C1 4449   6.794   3.684   6.945  0.2182  0.5059  0.3384
   59SAPC    HA 4450   6.781   3.790   6.915 -1.3029 -0.3157 -2.2285
   59SAPC    HB 4451   6.876   3.687   7.020 -0.0663  0.9735  0.6305
   59SAPC    C2 4452   6.853   3.599   6.821 -0.7945  0.4527 -0.6559
   59SAPC    HS 4453   6.958   3.630   6.803 -0.8469  0.4435 -0.9726
   59SAPC   O21 4454   6.767   3.599   6.712 -0.2801  0.4399 -0.0429
   59SAPC   C21 4455   6.814   3.615   6.594  0.0839  0.5110 -0.1352
   59SAPC   O22 4456   6.931   3.608   6.562 -0.1732  0.0839 -0.0928
   59SAPC   C22 4457   6.697   3.634   6.499  0.1415 -0.8464  0.5390
   59SAPC   H2R 4458   6.674   3.536   6.451 -1.7349 -0.5333  0.7537
   59SAPC   H2S 4459   6.609   3.673   6.554 -0.1851 -0.4701 -0.2379
   59SAPC    C3 4460   6.869   3.450   6.873 -0.0725 -0.6235 -0.2612
   59SAPC    HX 4461   6.770   3.407   6.899  0.6191 -2.7793 -1.0373
   59SAPC    HY 4462   6.928   3.459   6.967 -0.0891 -1.6456 -0.1429
   59SAPC   O31 4463   6.944   3.367   6.785 -0.2635 -0.0167  0.2124
   59SAPC   C31 4464   6.910   3.236   6.771  0.3555  0.3645  0.2754
   59SAPC   O32 4465   6.817   3.182   6.819  1.1053 -0.0585 -0.2367
   59SAPC   C32 4466   7.013   3.168   6.676 -0.2808 -0.4924  0.3154
   59SAPC   H2X 4467   7.025   3.063   6.711  1.2559 -0.7532 -0.8715
   59SAPC   H2Y 4468   7.111   3.217   6.698 -0.6731 -0.0662  1.1363
   59SAPC   C23 4469   6.749   3.737   6.388 -0.0759  0.4291  0.1978
   59SAPC   H3R 4470   6.836   3.698   6.331 -1.8844 -0.2522 -2.2681
   59SAPC   H3S 4471   6.780   3.833   6.433 -0.3575  1.2540 -1.3218
   59SAPC   C24 4472   6.651   3.767   6.280 -0.1278  0.8943  0.1552
   59SAPC   H4R 4473   6.703   3.817   6.195  1.2132 -0.5642  0.0768
   59SAPC   H4S 4474   6.564   3.829   6.311 -0.1386  0.3565  1.2386
   59SAPC   C25 4475   6.603   3.641   6.213  0.0935  0.0582  0.6505
   59SAPC   H5R 4476   6.525   3.586   6.268  0.2244  1.4214  2.3111
   59SAPC   C26 4477   6.660   3.571   6.109 -0.5584 -0.0023 -0.0862
   59SAPC   H6R 4478   6.614   3.480   6.067 -1.1479 -0.5611  1.6846
   59SAPC   C27 4479   6.781   3.612   6.029  1.2383 -0.8564  0.1760
   59SAPC   H7R 4480   6.833   3.521   5.992 -0.5357 -1.8018 -0.1032
   59SAPC   H7S 4481   6.850   3.660   6.101  0.1360 -0.4554  0.9840
   59SAPC   C28 4482   6.760   3.702   5.915 -0.2881  0.3526  0.4445
   59SAPC   H8R 4483   6.709   3.794   5.945 -3.1799 -0.5501 -1.2231
   59SAPC   C29 4484   6.774   3.680   5.784 -0.7355 -0.6462 -0.6926
   59SAPC   H9R 4485   6.754   3.759   5.710 -0.6695 -0.1911 -0.2263
   59SAPC  C210 4486   6.826   3.560   5.711  0.2204 -0.1905  0.9417
   59SAPC  H10R 4487   6.764   3.472   5.739  2.2872 -1.8305  0.5682
   59SAPC  H10S 4488   6.923   3.543   5.761 -0.2178 -0.3249  1.7617
   59SAPC  C211 4489   6.839   3.572   5.558 -0.2911 -0.1729  0.6587
   59SAPC  H11R 4490   6.942   3.571   5.520  0.6897 -2.0644  3.0893
   59SAPC  C212 4491   6.740   3.577   5.468 -0.2058 -0.0978  0.0248
   59SAPC  H12R 4492   6.760   3.566   5.361 -0.1352  0.0465  0.0234
   59SAPC  C213 4493   6.592   3.578   5.493  0.1193  0.1128  0.2557
   59SAPC  H13R 4494   6.542   3.670   5.457 -0.0393 -0.5708 -1.3913
   59SAPC  H13S 4495   6.575   3.572   5.603  1.8754 -0.3696  0.5305
   59SAPC  C214 4496   6.504   3.465   5.442 -0.3136  0.5815  0.2092
   59SAPC  H14R 4497   6.482   3.381   5.509 -0.4407  1.1717  0.9209
   59SAPC  C215 4498   6.449   3.454   5.320 -0.1064 -0.2009  0.8531
   59SAPC  H15R 4499   6.391   3.362   5.305 -0.8867  0.5950 -1.5501
   59SAPC  C216 4500   6.456   3.552   5.202  0.2537  0.4693 -0.3764
   59SAPC  H16R 4501   6.520   3.638   5.231  1.2531 -0.3607 -0.0274
   59SAPC  H16S 4502   6.357   3.591   5.170  0.2773 -1.0329 -2.5728
   59SAPC  C217 4503   6.542   3.493   5.079  0.2760  0.1311 -0.6497
   59SAPC  H17R 4504   6.496   3.396   5.050 -0.0137 -0.0069  0.2341
   59SAPC  H17S 4505   6.645   3.465   5.109 -0.2862  0.9797  2.4259
   59SAPC  C218 4506   6.555   3.597   4.967 -0.4507  0.7020 -0.2480
   59SAPC  H18R 4507   6.610   3.689   4.999  0.8415 -0.5977  1.4852
   59SAPC  H18S 4508   6.452   3.629   4.940 -0.3786  0.1638 -1.1904
   59SAPC  C219 4509   6.632   3.538   4.841 -0.1744 -0.5595  0.3725
   59SAPC  H19R 4510   6.732   3.502   4.872  0.1425 -0.6378 -0.6831
   59SAPC  H19S 4511   6.659   3.620   4.770 -0.0072 -1.1834 -0.2939
   59SAPC  C220 4512   6.563   3.430   4.760  0.6766  0.2226 -0.2193
   59SAPC  H20R 4513   6.626   3.398   4.674  0.0045  1.0105 -1.0242
   59SAPC  H20S 4514   6.464   3.465   4.724 -0.0273 -0.6408  0.7896
   59SAPC  H20T 4515   6.542   3.339   4.819 -1.0304  2.0480  2.1820
   59SAPC   C33 4516   6.984   3.174   6.524 -0.3097  0.1503  0.5358
   59SAPC   H3X 4517   6.877   3.150   6.505 -0.5724  0.3036  1.7680
   59SAPC   H3Y 4518   7.050   3.106   6.465  0.4071  0.7945  0.5848
   59SAPC   C34 4519   7.031   3.316   6.488 -0.3502  0.7471  0.3549
   59SAPC   H4X 4520   7.137   3.328   6.521 -0.6148  2.1461  0.7924
   59SAPC   H4Y 4521   6.967   3.381   6.551 -0.2010  1.1773  0.0680
   59SAPC   C35 4522   7.016   3.365   6.342  0.2640  0.1383  0.0614
   59SAPC   H5X 4523   7.054   3.469   6.329 -0.0727  0.0653 -1.7736
   59SAPC   H5Y 4524   6.908   3.349   6.321  0.6873 -1.1883 -1.2356
   59SAPC   C36 4525   7.096   3.282   6.240  0.7511 -0.3966 -0.5419
   59SAPC   H6X 4526   7.061   3.178   6.225 -3.0595  0.8839 -1.6784
   59SAPC   H6Y 4527   7.203   3.272   6.270  0.2539  0.2358  1.6119
   59SAPC   C37 4528   7.098   3.360   6.108 -0.5319  0.2587 -0.1068
   59SAPC   H7X 4529   7.162   3.450   6.119 -0.4746  0.0603  1.3685
   59SAPC   H7Y 4530   6.994   3.377   6.074 -0.5922 -1.1100 -0.6665
   59SAPC   C38 4531   7.148   3.261   5.997  0.0962 -0.3226 -1.1146
   59SAPC   H8X 4532   7.077   3.175   6.001 -2.8217  1.9056 -1.0379
   59SAPC   H8Y 4533   7.254   3.237   6.020 -0.4276 -0.1930  1.8408
   59SAPC   C39 4534   7.135   3.326   5.860 -0.3962  0.3057  0.2607
   59SAPC   H9X 4535   7.183   3.426   5.865  2.5183 -0.8545 -1.4030
   59SAPC   H9Y 4536   7.033   3.362   5.838 -1.1298 -2.4576 -1.2795
   59SAPC  C310 4537   7.186   3.249   5.740  0.3090 -0.0598 -0.0303
   59SAPC  H10X 4538   7.160   3.144   5.768  0.6902 -0.2643 -0.4379
   59SAPC  H10Y 4539   7.297   3.249   5.730  0.2149  0.6041 -1.3249
   59SAPC  C311 4540   7.119   3.278   5.607  0.0323 -0.0764 -0.1043
   59SAPC  H11X 4541   7.113   3.388   5.595 -1.0904  0.0422  1.2333
   59SAPC  H11Y 4542   7.016   3.238   5.618 -0.0521  0.4290  1.1075
   59SAPC  C312 4543   7.188   3.224   5.481  0.1941  0.7169  0.2752
   59SAPC  H12X 4544   7.114   3.178   5.412  1.5706 -0.6264 -0.3687
   59SAPC  H12Y 4545   7.251   3.141   5.520 -2.6561 -0.7177  2.1912
   59SAPC  C313 4546   7.264   3.325   5.396 -0.4911  0.1924 -0.3585
   59SAPC  H13X 4547   7.326   3.396   5.455 -1.2285 -0.8218  1.7370
   59SAPC  H13Y 4548   7.201   3.398   5.342 -0.7401  0.5184  0.3592
   59SAPC  C314 4549   7.346   3.271   5.271 -0.0528  0.2547 -0.1096
   59SAPC  H14X 4550   7.271   3.210   5.215  1.7579 -1.3411 -0.9037
   59SAPC  H14Y 4551   7.424   3.202   5.310 -1.5158 -2.1414 -1.1800
   59SAPC  C315 4552   7.396   3.377   5.176  0.2778 -0.0731 -0.7277
   59SAPC  H15X 4553   7.473   3.443   5.222  1.0489 -0.7378 -1.0422
   59SAPC  H15Y 4554   7.307   3.442   5.163  0.1224 -0.3614 -1.1265
   59SAPC  C316 4555   7.444   3.317   5.043  0.1702 -0.0819 -0.8950
   59SAPC  H16X 4556   7.370   3.251   4.994  2.3549 -1.6586 -2.2636
   59SAPC  H16Y 4557   7.533   3.255   5.068 -1.8080 -2.1587  1.6107
   59SAPC  C317 4558   7.478   3.412   4.930  0.0570 -0.1361  0.2846
   59SAPC  H17X 4559   7.581   3.394   4.892  0.5902  0.3722  1.4381
   59SAPC  H17Y 4560   7.474   3.514   4.973 -0.2014 -0.0168 -0.0233
   59SAPC  C318 4561   7.373   3.404   4.813 -0.2429 -0.0156 -0.0897
   59SAPC  H18X 4562   7.370   3.304   4.764  1.4438 -0.6058  0.9421
   59SAPC  H18Y 4563   7.391   3.478   4.732 -1.6804 -1.6302 -1.9897
   59SAPC  H18Z 4564   7.269   3.422   4.848 -0.6098  1.1572 -1.6701
   60SAPC     N 4565   2.489   6.779   6.871  0.2263  0.3251 -0.5858
   60SAPC   C12 4566   2.386   6.886   6.824 -0.0702  0.0301  0.2047
   60SAPC  H12A 4567   2.326   6.845   6.744  1.4422 -1.0150 -0.4382
   60SAPC  H12B 4568   2.442   6.966   6.779  0.6621 -0.0176  1.0084
   60SAPC   C13 4569   2.596   6.847   6.952  0.3438 -0.1018  0.2238
   60SAPC  H13A 4570   2.556   6.908   7.032 -1.9096 -0.4771 -0.5595
   60SAPC  H13B 4571   2.660   6.772   6.997 -1.1832 -0.1797  2.4688
   60SAPC  H13C 4572   2.662   6.905   6.889  0.6254 -0.0665  0.5443
   60SAPC   C14 4573   2.419   6.683   6.960 -0.3151  0.0116 -0.1280
   60SAPC  H14A 4574   2.489   6.607   6.991  0.9014 -0.1828 -3.0362
   60SAPC  H14B 4575   2.379   6.734   7.047 -0.3573 -0.0745 -0.0975
   60SAPC  H14C 4576   2.332   6.642   6.912 -0.8515  1.9473 -0.9030
   60SAPC   C15 4577   2.542   6.706   6.756  0.3797  0.7847 -0.2557
   60SAPC  H15A 4578   2.591   6.762   6.678 -2.8445  0.0742 -2.9883
   60SAPC  H15B 4579   2.607   6.625   6.784 -0.6913 -0.3592 -1.0049
   60SAPC  H15C 4580   2.468   6.642   6.711  2.1608 -0.9521 -0.8727
   60SAPC   C11 4581   2.288   6.939   6.934 -0.1335 -0.3085 -0.3560
   60SAPC  H11A 4582   2.247   6.851   6.988  0.8132 -1.0771 -0.8540
   60SAPC  H11B 4583   2.206   6.997   6.886 -1.5522 -1.6013  0.4034
   60SAPC     P 4584   2.416   7.160   7.004  0.1736 -0.1722  0.5604
   60SAPC   O13 4585   2.302   7.253   7.010  0.0123 -0.2327  0.2633
   60SAPC   O14 4586   2.528   7.180   7.093  0.0206 -0.1505 -0.0069
   60SAPC   O12 4587   2.362   7.011   7.034  0.6528  0.2211  0.1307
   60SAPC   O11 4588   2.463   7.167   6.852  0.1627  0.1930  0.5818
   60SAPC    C1 4589   2.596   7.200   6.814  0.4741 -0.3449 -0.1261
   60SAPC    HA 4590   2.677   7.162   6.880 -0.5760 -3.3267 -0.3989
   60SAPC    HB 4591   2.605   7.144   6.718 -0.3004  0.7420 -0.8662
   60SAPC    C2 4592   2.616   7.358   6.804 -0.0991  0.3456 -0.0572
   60SAPC    HS 4593   2.599   7.407   6.902  0.1920  1.1980 -0.4285
   60SAPC   O21 4594   2.527   7.412   6.711 -0.3259 -0.4218 -0.1721
   60SAPC   C21 4595   2.486   7.534   6.721 -0.3780  0.1801  0.1684
   60SAPC   O22 4596   2.490   7.607   6.820 -0.4191  0.1064 -0.2117
   60SAPC   C22 4597   2.432   7.587   6.587  0.4166  0.1238  0.2719
   60SAPC   H2R 4598   2.331   7.542   6.585 -0.1499  1.3303  0.6410
   60SAPC   H2S 4599   2.421   7.694   6.614 -0.1775 -0.5147  2.7746
   60SAPC    C3 4600   2.760   7.382   6.751 -0.1168  0.5141  0.2112
   60SAPC    HX 4601   2.764   7.337   6.650 -3.0658  0.0977  0.1972
   60SAPC    HY 4602   2.839   7.329   6.809 -1.4491 -1.3067  0.4391
   60SAPC   O31 4603   2.779   7.517   6.746 -0.0168 -0.1408  0.0704
   60SAPC   C31 4604   2.900   7.547   6.690  0.6522  0.5575  0.1334
   60SAPC   O32 4605   2.981   7.465   6.646  0.4848  0.4391  0.4368
   60SAPC   C32 4606   2.910   7.699   6.677  0.6391  0.0915  0.3475
   60SAPC   H2X 4607   2.970   7.736   6.763  0.1591  0.5776  0.4788
   60SAPC   H2Y 4608   2.805   7.731   6.693 -0.6467 -2.9992 -1.1394
   60SAPC   C23 4609   2.535   7.553   6.475 -0.2406  0.0619 -0.2620
   60SAPC   H3R 4610   2.563   7.447   6.489  1.2900  0.7210  2.2494
   60SAPC   H3S 4611   2.631   7.596   6.510 -0.9388  1.4633  0.0176
   60SAPC   C24 4612   2.509   7.595   6.330  0.6023  0.1119  0.1827
   60SAPC   H4R 4613   2.603   7.572   6.276  0.1994 -1.2535  0.0380
   60SAPC   H4S 4614   2.490   7.704   6.326 -2.4645 -0.2553  1.9114
   60SAPC   C25 4615   2.392   7.515   6.284  1.0722 -0.0542  0.5521
   60SAPC   H5R 4616   2.318   7.480   6.357  0.9136 -2.0609 -0.4932
   60SAPC   C26 4617   2.369   7.493   6.147 -0.2741 -0.0198 -0.4983
   60SAPC   H6R 4618   2.285   7.435   6.105  0.3561 -0.3950 -1.2723
   60SAPC   C27 4619   2.467   7.532   6.035 -0.4094  0.2962  0.6036
   60SAPC   H7R 4620   2.571   7.551   6.069  0.6072  1.8244 -2.9377
   60SAPC   H7S 4621   2.430   7.625   5.986 -0.5073 -0.1511 -0.1875
   60SAPC   C28 4622   2.477   7.426   5.928  0.4547 -0.9701  0.1619
   60SAPC   H8R 4623   2.557   7.354   5.952 -0.1099 -1.0543  1.9236
   60SAPC   C29 4624   2.399   7.420   5.815  0.7761 -0.5847  0.1713
   60SAPC   H9R 4625   2.391   7.328   5.756  0.0955 -0.7764  0.5481
   60SAPC  C210 4626   2.291   7.514   5.770 -0.7631  0.5462 -0.5196
   60SAPC  H10R 4627   2.283   7.595   5.846 -0.1973 -1.1225  1.4134
   60SAPC  H10S 4628   2.196   7.455   5.773 -0.0648 -0.5874  0.8382
   60SAPC  C211 4629   2.327   7.593   5.644  0.2208  0.9354 -0.5082
   60SAPC  H11R 4630   2.380   7.682   5.680  0.5168 -0.2879  2.3840
   60SAPC  C212 4631   2.305   7.563   5.513 -0.0903 -0.8057  0.2347
   60SAPC  H12R 4632   2.329   7.644   5.442 -1.5244 -0.6803 -0.1267
   60SAPC  C213 4633   2.240   7.440   5.458  0.3934 -0.8405 -0.6728
   60SAPC  H13R 4634   2.194   7.377   5.537  0.4015 -0.1557 -0.1148
   60SAPC  H13S 4635   2.316   7.369   5.418 -0.5887 -1.8162 -0.8548
   60SAPC  C214 4636   2.137   7.476   5.348 -0.1854  0.2332 -0.1791
   60SAPC  H14R 4637   2.036   7.493   5.389  0.0591 -2.5670  1.9171
   60SAPC  C215 4638   2.164   7.469   5.216 -0.2002 -0.8278  0.1267
   60SAPC  H15R 4639   2.090   7.507   5.144 -0.5119 -1.9245 -0.1511
   60SAPC  C216 4640   2.300   7.450   5.169 -0.5113  0.0471  0.3482
   60SAPC  H16R 4641   2.353   7.363   5.216  0.7362  1.0427  0.8494
   60SAPC  H16S 4642   2.354   7.545   5.188 -1.8182  0.8029  0.3997
   60SAPC  C217 4643   2.310   7.412   5.023  0.5450  0.7257 -0.2662
   60SAPC  H17R 4644   2.277   7.308   5.001  2.5493  0.1720 -0.9278
   60SAPC  H17S 4645   2.419   7.426   5.009  0.8803 -1.7132 -0.5836
   60SAPC  C218 4646   2.239   7.509   4.931 -0.0463  0.3590  0.0066
   60SAPC  H18R 4647   2.277   7.612   4.951  0.8169 -0.1219  0.9583
   60SAPC  H18S 4648   2.130   7.504   4.951  0.2826 -0.0719  1.8175
   60SAPC  C219 4649   2.265   7.473   4.789  0.4258  0.2855  0.0500
   60SAPC  H19R 4650   2.225   7.371   4.775 -0.5662  0.4250  1.6268
   60SAPC  H19S 4651   2.375   7.474   4.776  0.7666 -3.0064  1.7513
   60SAPC  C220 4652   2.195   7.564   4.689  0.2162  0.3796  0.3523
   60SAPC  H20R 4653   2.261   7.654   4.686  0.8519  0.0004  2.0246
   60SAPC  H20S 4654   2.099   7.596   4.733 -0.6494  0.0353 -1.1995
   60SAPC  H20T 4655   2.177   7.511   4.593  1.2417  0.5154  0.0717
   60SAPC   C33 4656   2.975   7.732   6.541 -0.2646  0.2069  0.5839
   60SAPC   H3X 4657   3.081   7.700   6.548 -0.3651 -0.2118  0.2557
   60SAPC   H3Y 4658   2.963   7.842   6.540 -1.4829  0.0893  0.6510
   60SAPC   C34 4659   2.891   7.682   6.425  0.2329  0.2358 -0.1342
   60SAPC   H4X 4660   2.788   7.718   6.448  0.5962 -0.0028  2.0695
   60SAPC   H4Y 4661   2.898   7.571   6.414 -0.6011 -0.0754  2.0697
   60SAPC   C35 4662   2.941   7.727   6.285  0.4237 -0.3655 -0.4324
   60SAPC   H5X 4663   3.029   7.661   6.274  0.8917 -0.0938  1.4118
   60SAPC   H5Y 4664   2.984   7.829   6.286  1.4246 -0.7151 -2.6043
   60SAPC   C36 4665   2.840   7.708   6.177  0.5197  0.1666 -0.3861
   60SAPC   H6X 4666   2.744   7.758   6.200 -0.6062 -2.5723  1.4761
   60SAPC   H6Y 4667   2.816   7.601   6.158 -1.5823  0.4681  0.3658
   60SAPC   C37 4668   2.893   7.755   6.042 -0.0464  0.1869 -0.8104
   60SAPC   H7X 4669   2.998   7.720   6.032  0.5865  0.9190  2.3118
   60SAPC   H7Y 4670   2.894   7.865   6.023  1.9124  0.1008 -1.4263
   60SAPC   C38 4671   2.793   7.697   5.935 -0.6052  0.7018 -0.1878
   60SAPC   H8X 4672   2.689   7.730   5.955 -1.0038 -1.4967  1.8811
   60SAPC   H8Y 4673   2.792   7.586   5.939 -1.8043  0.5276 -2.9202
   60SAPC   C39 4674   2.846   7.734   5.795  0.4967 -0.7751  0.8844
   60SAPC   H9X 4675   2.955   7.710   5.798  0.2067 -2.0985  2.0881
   60SAPC   H9Y 4676   2.828   7.843   5.798 -1.6828 -1.0795  0.4974
   60SAPC  C310 4677   2.763   7.673   5.684  0.2814  0.3229 -0.0724
   60SAPC  H10X 4678   2.656   7.690   5.707  0.7897  1.9862  1.2287
   60SAPC  H10Y 4679   2.782   7.564   5.672 -0.2553  0.3434 -1.3748
   60SAPC  C311 4680   2.792   7.730   5.537 -0.2508  0.4419 -0.0342
   60SAPC  H11X 4681   2.899   7.712   5.514  0.3773  0.8802  2.2882
   60SAPC  H11Y 4682   2.770   7.839   5.526 -3.9912 -0.2849 -0.9774
   60SAPC  C312 4683   2.708   7.645   5.442  0.1174 -0.6974 -0.2649
   60SAPC  H12X 4684   2.603   7.662   5.476 -0.0812 -0.8285 -0.8066
   60SAPC  H12Y 4685   2.734   7.538   5.452 -0.0647 -0.9362 -2.0757
   60SAPC  C313 4686   2.743   7.686   5.292  0.8823 -0.4671  0.0868
   60SAPC  H13X 4687   2.851   7.662   5.280  0.8193 -1.1029  0.6813
   60SAPC  H13Y 4688   2.729   7.796   5.288 -1.1658 -0.7249 -0.9355
   60SAPC  C314 4689   2.651   7.642   5.181 -0.5067  0.2621  0.8036
   60SAPC  H14X 4690   2.543   7.651   5.207 -0.6851 -1.0527  0.5848
   60SAPC  H14Y 4691   2.664   7.536   5.151 -2.0083  0.0044  0.9988
   60SAPC  C315 4692   2.672   7.730   5.055  0.1984 -0.0528 -0.5117
   60SAPC  H15X 4693   2.775   7.724   5.013  0.3747  1.0581 -0.2651
   60SAPC  H15Y 4694   2.673   7.840   5.068 -0.5681 -0.0016 -0.8544
   60SAPC  C316 4695   2.580   7.703   4.935 -0.3766  0.0903 -0.3456
   60SAPC  H16X 4696   2.476   7.717   4.970 -0.9283 -0.6537 -1.6355
   60SAPC  H16Y 4697   2.569   7.601   4.893 -2.0283  1.2751 -2.9974
   60SAPC  C317 4698   2.613   7.795   4.809 -0.4342  0.1738 -0.4512
   60SAPC  H17X 4699   2.713   7.772   4.766 -0.5894  0.8124 -1.1753
   60SAPC  H17Y 4700   2.616   7.903   4.833 -1.0697  0.3975 -1.3224
   60SAPC  C318 4701   2.519   7.768   4.691 -0.0462  0.6589  0.0309
   60SAPC  H18X 4702   2.421   7.818   4.710 -0.4998 -0.2863  0.2540
   60SAPC  H18Y 4703   2.495   7.660   4.680  1.6629  0.1919  0.5059
   60SAPC  H18Z 4704   2.553   7.808   4.593  1.1021 -0.3497 -0.0092
   61SAPC     N 4705   0.122   0.861   7.206 -0.3672 -0.0325 -0.2878
   61SAPC   C12 4706   0.202   0.759   7.135 -0.4250  0.7900  0.1152
   61SAPC  H12A 4707   0.135   0.686   7.092 -0.5886  1.1606 -0.2576
   61SAPC  H12B 4708   0.263   0.702   7.204 -1.3019  0.8812  0.9854
   61SAPC   C13 4709   0.012   0.786   7.281  0.1511  0.1420 -0.9919
   61SAPC  H13A 4710  -0.029   0.717   7.209  1.5839 -1.1828 -0.5963
   61SAPC  H13B 4711   0.050   0.732   7.367 -1.5553  1.4848  0.6941
   61SAPC  H13C 4712  -0.065   0.846   7.328  0.4566 -0.2477  0.0230
   61SAPC   C14 4713   0.210   0.929   7.307  0.1310  0.1596 -0.1711
   61SAPC  H14A 4714   0.300   0.968   7.261  2.6302 -3.0141  1.6069
   61SAPC  H14B 4715   0.155   1.008   7.357  0.7448  0.1362  0.5644
   61SAPC  H14C 4716   0.229   0.855   7.383 -0.0414  0.0021 -0.2834
   61SAPC   C15 4717   0.055   0.955   7.120  0.2270 -0.0697 -0.4215
   61SAPC  H15A 4718   0.127   1.035   7.104 -0.4708  1.1610  2.0365
   61SAPC  H15B 4719   0.011   0.914   7.031 -0.0065  1.3316 -0.9774
   61SAPC  H15C 4720  -0.030   1.004   7.166  0.0719 -0.1344 -0.6402
   61SAPC   C11 4721   0.302   0.808   7.031  0.2122  0.2941  0.1320
   61SAPC  H11A 4722   0.259   0.879   6.958 -1.4431 -1.2887 -0.4851
   61SAPC  H11B 4723   0.334   0.725   6.965  1.6199  1.1707 -0.3329
   61SAPC     P 4724   0.566   0.842   7.052 -0.2994 -0.0110  0.2271
   61SAPC   O13 4725   0.650   0.958   7.092  0.6095 -0.5757  0.8025
   61SAPC   O14 4726   0.610   0.707   7.093  0.3285 -0.1485 -0.1584
   61SAPC   O12 4727   0.418   0.867   7.105  0.3807 -0.0189 -0.0755
   61SAPC   O11 4728   0.548   0.843   6.892  0.2650  0.5396  0.2456
   61SAPC    C1 4729   0.670   0.860   6.815  0.7600  0.2668 -0.0092
   61SAPC    HA 4730   0.711   0.963   6.823 -2.1279  1.4081  1.5484
   61SAPC    HB 4731   0.740   0.786   6.858 -0.5905 -0.1445  1.5769
   61SAPC    C2 4732   0.652   0.837   6.665  0.0814 -0.0279  0.3611
   61SAPC    HS 4733   0.749   0.847   6.612 -0.3818  2.7023 -0.1087
   61SAPC   O21 4734   0.551   0.921   6.599 -0.3654 -0.3403 -0.4915
   61SAPC   C21 4735   0.587   1.043   6.593 -0.6509 -0.0522 -0.4238
   61SAPC   O22 4736   0.700   1.083   6.619  0.2140  0.1263  0.2880
   61SAPC   C22 4737   0.488   1.131   6.523 -0.3481  0.2017 -0.6236
   61SAPC   H2R 4738   0.463   1.218   6.586 -2.3662 -1.4376  0.9966
   61SAPC   H2S 4739   0.529   1.166   6.426 -1.7033  2.0925 -0.5668
   61SAPC    C3 4740   0.608   0.692   6.632 -0.6143  0.0102  0.2272
   61SAPC    HX 4741   0.564   0.666   6.533 -1.8680  0.4386  0.6446
   61SAPC    HY 4742   0.517   0.682   6.696 -0.9342 -2.0590 -0.4622
   61SAPC   O31 4743   0.695   0.590   6.671 -0.0215  0.3689  0.3766
   61SAPC   C31 4744   0.661   0.466   6.667  0.1169  0.3800 -0.2657
   61SAPC   O32 4745   0.548   0.432   6.628 -0.0446  0.4717 -0.4100
   61SAPC   C32 4746   0.787   0.376   6.686  0.1666  0.3397  0.3978
   61SAPC   H2X 4747   0.794   0.364   6.796 -0.4050  0.7572  0.4877
   61SAPC   H2Y 4748   0.873   0.440   6.656 -0.1337  1.2784  1.4492
   61SAPC   C23 4749   0.345   1.064   6.512 -0.3967 -0.7121  0.2476
   61SAPC   H3R 4750   0.308   1.050   6.616  0.5879  1.9507  1.0429
   61SAPC   H3S 4751   0.351   0.959   6.476 -0.7308 -0.1255 -1.5772
   61SAPC   C24 4752   0.247   1.148   6.430 -0.0656  0.6469  0.0088
   61SAPC   H4R 4753   0.292   1.187   6.336 -2.5989 -2.1138 -2.5541
   61SAPC   H4S 4754   0.230   1.237   6.495 -1.0879 -0.5763  1.4787
   61SAPC   C25 4755   0.127   1.056   6.400 -0.1223 -0.6511  0.1423
   61SAPC   H5R 4756   0.058   1.047   6.485  0.0154  1.2783  0.5039
   61SAPC   C26 4757   0.086   1.023   6.272 -0.1035  0.2093 -0.1128
   61SAPC   H6R 4758  -0.018   0.987   6.257  0.3798 -1.7607  0.9233
   61SAPC   C27 4759   0.168   1.034   6.145 -0.7676 -0.2071  0.7322
   61SAPC   H7R 4760   0.166   0.927   6.117 -1.1649 -0.1174  0.4108
   61SAPC   H7S 4761   0.276   1.049   6.167 -0.7163 -1.7764  1.6673
   61SAPC   C28 4762   0.116   1.142   6.048  0.3978  0.0692 -0.4675
   61SAPC   H8R 4763   0.081   1.234   6.099  0.1468 -1.0201  1.4288
   61SAPC   C29 4764   0.115   1.135   5.917 -0.2563 -0.0714 -0.0075
   61SAPC   H9R 4765   0.071   1.215   5.855  2.2652  0.4120 -1.3148
   61SAPC  C210 4766   0.155   1.012   5.846 -0.0398  0.4649 -0.3413
   61SAPC  H10R 4767   0.104   0.924   5.890  0.4107 -0.0470 -0.8382
   61SAPC  H10S 4768   0.261   0.984   5.859 -0.8359 -2.2752  0.9043
   61SAPC  C211 4769   0.114   1.018   5.706 -0.3913  0.4327  0.6408
   61SAPC  H11R 4770   0.198   1.044   5.639 -1.2083 -0.5455 -0.7973
   61SAPC  C212 4771  -0.007   1.003   5.649  0.0297 -0.1407  0.6091
   61SAPC  H12R 4772  -0.020   1.002   5.540  1.4473 -4.2480  0.3115
   61SAPC  C213 4773  -0.127   0.970   5.734  0.8133 -0.6911 -0.4069
   61SAPC  H13R 4774  -0.127   1.031   5.827 -0.0371  1.3878 -1.6868
   61SAPC  H13S 4775  -0.116   0.864   5.766 -1.8382 -0.7189  0.7187
   61SAPC  C214 4776  -0.263   0.992   5.669 -0.5021  0.1651 -0.1124
   61SAPC  H14R 4777  -0.308   0.897   5.635  2.5927 -1.0201 -1.3066
   61SAPC  C215 4778  -0.327   1.107   5.683 -0.5280 -0.2689 -0.5576
   61SAPC  H15R 4779  -0.427   1.124   5.640 -0.0998  0.9458 -1.0943
   61SAPC  C216 4780  -0.260   1.233   5.736  0.4142  0.4918  0.6093
   61SAPC  H16R 4781  -0.276   1.316   5.664 -0.3864  0.2230  0.4606
   61SAPC  H16S 4782  -0.149   1.230   5.747  0.4943 -0.8127 -0.2645
   61SAPC  C217 4783  -0.314   1.288   5.869 -0.8154 -0.2240  0.4544
   61SAPC  H17R 4784  -0.421   1.306   5.850 -0.6143 -0.8331 -1.4156
   61SAPC  H17S 4785  -0.260   1.385   5.881  3.6346 -1.9486 -2.7308
   61SAPC  C218 4786  -0.274   1.197   5.990 -0.3424 -0.0009  0.0933
   61SAPC  H18R 4787  -0.166   1.174   5.996 -0.7955 -2.0868  1.3844
   61SAPC  H18S 4788  -0.320   1.097   5.975 -0.2953  0.1016 -0.8089
   61SAPC  C219 4789  -0.319   1.256   6.127 -0.1066 -0.0779  0.1706
   61SAPC  H19R 4790  -0.423   1.286   6.102 -0.3242 -3.2776 -3.8476
   61SAPC  H19S 4791  -0.249   1.337   6.157 -0.9231  0.4836  0.5969
   61SAPC  C220 4792  -0.326   1.149   6.233 -0.2521 -0.0329 -0.0475
   61SAPC  H20R 4793  -0.368   1.182   6.331  0.4889 -0.5080  0.4373
   61SAPC  H20S 4794  -0.222   1.114   6.246 -0.1546 -0.5760 -1.9750
   61SAPC  H20T 4795  -0.397   1.080   6.182  0.1654 -0.4476 -0.0763
   61SAPC   C33 4796   0.789   0.243   6.606 -0.2026  0.2301  0.6054
   61SAPC   H3X 4797   0.695   0.186   6.620 -0.7545  0.9446 -0.1093
   61SAPC   H3Y 4798   0.873   0.194   6.661  0.1241  1.7141  1.4803
   61SAPC   C34 4799   0.844   0.266   6.461 -0.3303 -1.2946 -0.8221
   61SAPC   H4X 4800   0.922   0.344   6.472 -0.4493 -1.4790  1.7359
   61SAPC   H4Y 4801   0.762   0.313   6.403 -1.8000  1.4767  3.1099
   61SAPC   C35 4802   0.907   0.148   6.384 -0.1702  0.0271  0.5068
   61SAPC   H5X 4803   0.836   0.065   6.363 -0.2742 -0.1193  1.4141
   61SAPC   H5Y 4804   0.985   0.116   6.456  0.2788  2.1937  1.0372
   61SAPC   C36 4805   0.976   0.174   6.249 -0.0434 -0.7412 -0.1812
   61SAPC   H6X 4806   1.047   0.088   6.250  0.2968 -0.5164 -1.8173
   61SAPC   H6Y 4807   1.028   0.272   6.240 -0.8703 -0.3337 -0.6661
   61SAPC   C37 4808   0.888   0.159   6.121  0.3873  0.0284  0.4384
   61SAPC   H7X 4809   0.848   0.056   6.117  2.3868 -0.8061  0.4763
   61SAPC   H7Y 4810   0.960   0.179   6.038  1.2501  0.9997  1.3834
   61SAPC   C38 4811   0.773   0.262   6.101 -0.5160 -0.3842 -0.1059
   61SAPC   H8X 4812   0.691   0.252   6.174  0.3744  0.6891  1.0995
   61SAPC   H8Y 4813   0.732   0.241   6.000 -1.4450 -0.5439  0.2974
   61SAPC   C39 4814   0.828   0.414   6.103  1.0562  0.4592 -0.3953
   61SAPC   H9X 4815   0.921   0.426   6.044  0.5330 -2.2225 -1.9288
   61SAPC   H9Y 4816   0.844   0.442   6.210 -1.1216  0.3318  0.0094
   61SAPC  C310 4817   0.717   0.521   6.059  0.5770  0.4012 -0.1688
   61SAPC  H10X 4818   0.761   0.621   6.076  1.2855  0.1960 -0.7274
   61SAPC  H10Y 4819   0.625   0.502   6.119  1.8801  0.9608  2.1468
   61SAPC  C311 4820   0.665   0.513   5.920  0.0738 -0.1577 -0.0135
   61SAPC  H11X 4821   0.605   0.604   5.899 -2.6879 -1.6356  0.9871
   61SAPC  H11Y 4822   0.586   0.436   5.912  0.4712 -0.6335  0.5345
   61SAPC  C312 4823   0.786   0.495   5.826  0.1019  0.0820  0.0865
   61SAPC  H12X 4824   0.839   0.398   5.838  1.5838  0.7627 -0.6371
   61SAPC  H12Y 4825   0.864   0.571   5.850 -1.6809  3.2098 -3.0558
   61SAPC  C313 4826   0.737   0.508   5.682  0.1690 -0.1236  0.5805
   61SAPC  H13X 4827   0.687   0.607   5.673  0.4066  0.0707  1.2904
   61SAPC  H13Y 4828   0.665   0.427   5.661  0.4137  0.2758 -2.2047
   61SAPC  C314 4829   0.863   0.494   5.595  0.5941  0.1440 -0.2936
   61SAPC  H14X 4830   0.920   0.402   5.622 -2.9117 -2.1863 -0.0985
   61SAPC  H14Y 4831   0.925   0.584   5.615  0.7789 -0.0806  0.1607
   61SAPC  C315 4832   0.840   0.502   5.439  0.9038 -0.6794  0.1257
   61SAPC  H15X 4833   0.932   0.536   5.388 -1.2746  0.9644 -3.0356
   61SAPC  H15Y 4834   0.754   0.571   5.421  1.8537  0.2684 -0.9385
   61SAPC  C316 4835   0.813   0.353   5.397 -0.1224 -0.8414  0.0167
   61SAPC  H16X 4836   0.728   0.326   5.462 -0.1589 -3.3436 -0.9538
   61SAPC  H16Y 4837   0.895   0.283   5.426 -0.6894 -0.8044  1.7790
   61SAPC  C317 4838   0.793   0.328   5.248  0.9602 -0.3883 -0.8123
   61SAPC  H17X 4839   0.882   0.278   5.203  0.7745 -0.4231 -1.1483
   61SAPC  H17Y 4840   0.779   0.433   5.214 -0.0238  1.0792  3.4890
   61SAPC  C318 4841   0.677   0.241   5.205  1.3889  0.1632 -0.9391
   61SAPC  H18X 4842   0.665   0.236   5.095  0.3922 -2.7009 -0.7950
   61SAPC  H18Y 4843   0.586   0.288   5.249  1.5706  0.0384 -0.4162
   61SAPC  H18Z 4844   0.680   0.134   5.237 -0.2253 -0.1883 -1.8344
   62SAPC     N 4845   2.035   0.805   6.949  0.1894  0.8699  0.1863
   62SAPC   C12 4846   2.186   0.837   6.944 -0.1379  0.4324  0.8008
   62SAPC  H12A 4847   2.238   0.760   6.889  1.6843  1.5913  0.8227
   62SAPC  H12B 4848   2.227   0.833   7.044 -0.3987  2.0122  0.9838
   62SAPC   C13 4849   1.977   0.800   6.815  0.3699 -0.1583  0.6669
   62SAPC  H13A 4850   1.870   0.813   6.812  0.6331  2.5560 -1.6867
   62SAPC  H13B 4851   2.017   0.876   6.749 -1.8569 -1.4543 -2.4497
   62SAPC  H13C 4852   2.000   0.717   6.750 -1.4846  0.2392 -0.5615
   62SAPC   C14 4853   1.998   0.668   7.002 -0.3474  0.5768 -0.4855
   62SAPC  H14A 4854   2.039   0.595   6.935  2.0371 -1.3110  2.7757
   62SAPC  H14B 4855   2.041   0.640   7.097  0.9068  1.4525 -0.7748
   62SAPC  H14C 4856   1.890   0.663   7.004 -0.2855 -1.2842 -0.4256
   62SAPC   C15 4857   1.961   0.907   7.022 -0.2671 -0.1671  0.8875
   62SAPC  H15A 4858   1.961   0.999   6.965 -0.1682 -0.2596  0.7352
   62SAPC  H15B 4859   1.862   0.870   7.045  0.0912 -0.9220  1.2537
   62SAPC  H15C 4860   2.012   0.931   7.114  2.2106  0.1533 -0.4722
   62SAPC   C11 4861   2.235   0.967   6.870 -1.3225 -0.1219 -0.6988
   62SAPC  H11A 4862   2.204   0.946   6.766  1.1830 -1.2839 -1.2942
   62SAPC  H11B 4863   2.346   0.973   6.878 -1.4083  0.6190  0.1467
   62SAPC     P 4864   2.251   1.157   7.041  0.4070  0.2248 -0.3218
   62SAPC   O13 4865   2.143   1.237   7.102 -0.0361 -0.4836 -0.2802
   62SAPC   O14 4866   2.324   1.055   7.119  0.8299 -0.1053  0.0441
   62SAPC   O12 4867   2.183   1.086   6.913  0.3381 -0.1571 -0.0574
   62SAPC   O11 4868   2.348   1.256   6.973  0.3874 -1.2015  0.3771
   62SAPC    C1 4869   2.322   1.341   6.861  0.0544 -0.2770  0.0282
   62SAPC    HA 4870   2.214   1.350   6.839  0.4281 -0.3624 -2.1522
   62SAPC    HB 4871   2.360   1.444   6.878  0.5883 -0.3137 -0.8739
   62SAPC    C2 4872   2.399   1.286   6.731  0.0171 -1.0830  0.6544
   62SAPC    HS 4873   2.407   1.374   6.663  0.5194 -2.9264 -1.7960
   62SAPC   O21 4874   2.327   1.182   6.658 -0.2502 -0.0564 -0.6954
   62SAPC   C21 4875   2.238   1.220   6.577  0.0870 -0.5142  0.1222
   62SAPC   O22 4876   2.203   1.339   6.554 -0.1062 -0.0265  0.4114
   62SAPC   C22 4877   2.189   1.095   6.502  0.0635 -0.4041 -0.3963
   62SAPC   H2R 4878   2.156   1.026   6.582  2.2631 -0.7439  0.2759
   62SAPC   H2S 4879   2.093   1.114   6.450  0.3603 -1.8443 -1.5278
   62SAPC    C3 4880   2.544   1.228   6.762  0.0056 -0.5259  0.0596
   62SAPC    HX 4881   2.525   1.145   6.835 -1.1445  1.4776  2.1675
   62SAPC    HY 4882   2.613   1.291   6.822  2.1774 -2.5406 -0.1333
   62SAPC   O31 4883   2.609   1.174   6.644  0.0049  0.0951  0.3210
   62SAPC   C31 4884   2.657   1.264   6.561  0.9048  0.4362  1.1120
   62SAPC   O32 4885   2.666   1.382   6.577  0.0547 -0.4433 -0.0350
   62SAPC   C32 4886   2.684   1.197   6.425 -0.3961  1.2004 -0.8112
   62SAPC   H2X 4887   2.602   1.126   6.402  2.8953 -3.2341 -0.3081
   62SAPC   H2Y 4888   2.772   1.130   6.430 -1.7328 -0.5448  0.1345
   62SAPC   C23 4889   2.287   1.039   6.396 -0.1803 -0.1210  0.2485
   62SAPC   H3R 4890   2.242   0.955   6.339  0.5812  1.5633 -3.0585
   62SAPC   H3S 4891   2.378   1.001   6.447  0.2475  0.5005 -0.0438
   62SAPC   C24 4892   2.338   1.135   6.293  0.2753 -0.0008 -0.0853
   62SAPC   H4R 4893   2.408   1.075   6.231 -1.7525 -1.7911 -0.7436
   62SAPC   H4S 4894   2.395   1.218   6.341  0.8096  1.5019 -3.0515
   62SAPC   C25 4895   2.237   1.202   6.208  0.6610  0.0737  0.5326
   62SAPC   H5R 4896   2.201   1.298   6.250  0.7043  0.0465  0.6325
   62SAPC   C26 4897   2.186   1.161   6.091 -0.1888  0.2696 -1.0042
   62SAPC   H6R 4898   2.127   1.237   6.038 -0.5388  1.0053  0.3781
   62SAPC   C27 4899   2.234   1.036   6.008  0.1722  0.0131 -1.2872
   62SAPC   H7R 4900   2.153   0.999   5.942  0.5175  0.4602 -1.9763
   62SAPC   H7S 4901   2.247   0.955   6.083 -2.3106  0.8704  0.1985
   62SAPC   C28 4902   2.360   1.044   5.929 -0.4469  0.8180 -0.2266
   62SAPC   H8R 4903   2.454   1.036   5.987  0.5701  2.2462 -1.5939
   62SAPC   C29 4904   2.367   1.062   5.799 -0.5813 -0.2557 -0.1736
   62SAPC   H9R 4905   2.463   1.059   5.744 -1.0356 -2.1631 -0.9326
   62SAPC  C210 4906   2.245   1.093   5.706  0.1472 -0.1379  0.1435
   62SAPC  H10R 4907   2.154   1.119   5.764 -0.5770 -1.1867 -0.4920
   62SAPC  H10S 4908   2.226   1.001   5.646  0.8319  1.4905 -2.7543
   62SAPC  C211 4909   2.270   1.197   5.604  0.0582 -0.6166  0.1473
   62SAPC  H11R 4910   2.246   1.299   5.638 -0.8172 -0.9990  0.7106
   62SAPC  C212 4911   2.289   1.167   5.478 -0.1951  0.6585  0.2684
   62SAPC  H12R 4912   2.317   1.254   5.418 -1.0342  0.1082 -0.9560
   62SAPC  C213 4913   2.315   1.031   5.418  0.4403  0.5361 -0.2423
   62SAPC  H13R 4914   2.215   0.988   5.395  0.1683  0.6408  0.7071
   62SAPC  H13S 4915   2.372   0.967   5.489 -0.2600  1.2609  1.0071
   62SAPC  C214 4916   2.393   1.035   5.288 -0.1866  0.5667  0.1117
   62SAPC  H14R 4917   2.502   1.035   5.298  0.0658  0.3042 -2.0968
   62SAPC  C215 4918   2.336   1.037   5.165 -0.3490 -0.0940 -0.3805
   62SAPC  H15R 4919   2.403   1.020   5.079  1.3069  1.8838  0.4458
   62SAPC  C216 4920   2.192   1.041   5.136  0.9736 -0.1034  0.0899
   62SAPC  H16R 4921   2.139   1.120   5.193  0.1968 -0.1686 -0.5223
   62SAPC  H16S 4922   2.153   0.943   5.168  1.7379 -0.5773 -0.3990
   62SAPC  C217 4923   2.165   1.051   4.990 -0.6491  0.6327 -0.0344
   62SAPC  H17R 4924   2.055   1.063   4.979 -0.5607  1.6573  0.1036
   62SAPC  H17S 4925   2.203   0.955   4.948 -0.8999  1.4689 -2.3190
   62SAPC  C218 4926   2.242   1.174   4.928 -0.6214  0.1089 -0.4452
   62SAPC  H18R 4927   2.347   1.142   4.918  0.0106  2.3290 -1.5292
   62SAPC  H18S 4928   2.236   1.258   5.000  3.3105  0.1635  0.0234
   62SAPC  C219 4929   2.179   1.211   4.789 -0.0445  0.4450 -0.5112
   62SAPC  H19R 4930   2.068   1.205   4.784 -0.1077 -0.1933  1.1236
   62SAPC  H19S 4931   2.205   1.125   4.724 -1.1664 -1.0249  0.9102
   62SAPC  C220 4932   2.225   1.337   4.730  0.2762 -0.4345 -0.3026
   62SAPC  H20R 4933   2.214   1.333   4.620  0.9427 -2.7569 -0.3371
   62SAPC  H20S 4934   2.334   1.353   4.738 -0.2188  2.6439  1.9206
   62SAPC  H20T 4935   2.177   1.426   4.776 -0.5353  0.4555 -2.7296
   62SAPC   C33 4936   2.692   1.303   6.313 -0.4649  0.1355  0.1761
   62SAPC   H3X 4937   2.790   1.355   6.313 -0.4402  0.0902 -0.2263
   62SAPC   H3Y 4938   2.606   1.373   6.307  0.0954  0.7767 -0.5128
   62SAPC   C34 4939   2.680   1.230   6.176  0.2273  0.1704 -0.2792
   62SAPC   H4X 4940   2.589   1.167   6.162  0.4866 -0.3221  0.2224
   62SAPC   H4Y 4941   2.774   1.174   6.158 -0.7665 -1.4646 -0.6193
   62SAPC   C35 4942   2.683   1.332   6.063  0.7233  0.2424 -0.0043
   62SAPC   H5X 4943   2.780   1.384   6.074  0.4911  1.4568 -2.8441
   62SAPC   H5Y 4944   2.600   1.405   6.072 -1.2586 -1.8542 -0.2239
   62SAPC   C36 4945   2.678   1.268   5.925 -0.1520  0.1700 -0.2284
   62SAPC   H6X 4946   2.574   1.228   5.920  0.4644 -2.1974  2.9144
   62SAPC   H6Y 4947   2.741   1.181   5.897  0.8924  0.5835  0.7854
   62SAPC   C37 4948   2.671   1.379   5.819 -0.0139 -0.2141 -0.6200
   62SAPC   H7X 4949   2.772   1.417   5.794  0.1676 -1.6504 -2.2810
   62SAPC   H7Y 4950   2.610   1.464   5.857 -1.4861 -1.8771  0.9603
   62SAPC   C38 4951   2.615   1.317   5.686 -0.1707 -0.2717 -0.1034
   62SAPC   H8X 4952   2.504   1.308   5.695 -0.1900  0.8786  1.0813
   62SAPC   H8Y 4953   2.654   1.213   5.675 -0.5175 -0.8683  3.2653
   62SAPC   C39 4954   2.658   1.397   5.560 -1.2048 -0.1618 -0.0316
   62SAPC   H9X 4955   2.767   1.408   5.577 -1.1376 -0.9369  0.0763
   62SAPC   H9Y 4956   2.613   1.499   5.557  0.2731  0.5067 -0.5904
   62SAPC  C310 4957   2.634   1.319   5.429  0.1981 -0.0293 -0.5162
   62SAPC  H10X 4958   2.526   1.301   5.412 -0.0393 -0.4266  1.2075
   62SAPC  H10Y 4959   2.682   1.220   5.445 -3.0208 -1.3751  1.7196
   62SAPC  C311 4960   2.688   1.385   5.296  0.3631  0.6683 -0.2212
   62SAPC  H11X 4961   2.799   1.389   5.307  0.4286 -1.4896  0.3377
   62SAPC  H11Y 4962   2.645   1.486   5.280 -2.9196 -0.9379 -2.6327
   62SAPC  C312 4963   2.651   1.289   5.180  0.1901 -0.9857  0.2624
   62SAPC  H12X 4964   2.542   1.271   5.190 -0.0297  0.2659  0.2272
   62SAPC  H12Y 4965   2.701   1.190   5.193  0.7202 -0.7381  0.1250
   62SAPC  C313 4966   2.689   1.338   5.036  0.4178 -0.7271  0.1860
   62SAPC  H13X 4967   2.622   1.426   5.030 -1.3501 -2.0661 -0.8392
   62SAPC  H13Y 4968   2.644   1.274   4.957  0.5484 -0.6165  0.0208
   62SAPC  C314 4969   2.827   1.373   4.996 -0.1865 -0.0595 -0.3692
   62SAPC  H14X 4970   2.873   1.442   5.070  0.9665  1.3482 -2.3009
   62SAPC  H14Y 4971   2.831   1.430   4.901 -2.5854 -0.7566 -0.9573
   62SAPC  C315 4972   2.927   1.251   4.994 -0.4359  0.9696  0.4246
   62SAPC  H15X 4973   2.941   1.193   5.088 -0.4754 -0.1665 -0.2512
   62SAPC  H15Y 4974   3.026   1.295   4.970  0.0316  0.0574  0.6259
   62SAPC  C316 4975   2.900   1.158   4.873  0.1233  0.3164  0.3575
   62SAPC  H16X 4976   2.872   1.217   4.782 -2.1205 -3.3106 -1.5411
   62SAPC  H16Y 4977   2.813   1.096   4.904 -1.2836  1.3892 -1.2185
   62SAPC  C317 4978   3.016   1.078   4.822 -0.4737 -0.5240 -0.8013
   62SAPC  H17X 4979   3.108   1.140   4.834 -0.1164 -1.1557 -0.1720
   62SAPC  H17Y 4980   3.001   1.069   4.713 -1.4279  0.8821 -0.8210
   62SAPC  C318 4981   3.035   0.949   4.894  0.0157  0.0211  0.7826
   62SAPC  H18X 4982   3.140   0.915   4.885  0.4708  1.6347 -0.3212
   62SAPC  H18Y 4983   2.964   0.868   4.866  0.0585 -0.7479  2.7339
   62SAPC  H18Z 4984   2.997   0.960   4.998 -0.9768  1.0314  0.3377
   63SAPC     N 4985   3.035   3.263   7.567 -0.0998  0.1703  0.2357
   63SAPC   C12 4986   2.898   3.274   7.504  0.2188  0.1103  0.3419
   63SAPC  H12A 4987   2.828   3.334   7.560  1.4256 -0.2657  2.3364
   63SAPC  H12B 4988   2.843   3.181   7.494  1.0109 -0.3246 -0.0954
   63SAPC   C13 4989   3.099   3.399   7.586  0.0674  0.2690 -0.2894
   63SAPC  H13A 4990   3.031   3.452   7.651  0.1255  0.7430 -0.6105
   63SAPC  H13B 4991   3.195   3.399   7.637 -0.3731  3.1413  0.7063
   63SAPC  H13C 4992   3.098   3.463   7.499 -0.1868  0.7016  0.0282
   63SAPC   C14 4993   3.023   3.213   7.712 -0.2542 -0.4772 -0.5898
   63SAPC  H14A 4994   3.118   3.195   7.760  0.1892  4.6813  1.0151
   63SAPC  H14B 4995   2.957   3.271   7.774 -0.8141 -0.6644 -0.9974
   63SAPC  H14C 4996   2.978   3.115   7.703  2.2505 -1.8559  0.6447
   63SAPC   C15 4997   3.126   3.165   7.504  0.0720 -0.3994 -0.2515
   63SAPC  H15A 4998   3.146   3.195   7.402  0.7161  0.7573  0.1897
   63SAPC  H15B 4999   3.219   3.165   7.559 -0.0642  1.5697  0.0476
   63SAPC  H15C 5000   3.093   3.064   7.520  0.0586 -0.2962  0.3800
   63SAPC   C11 5001   2.901   3.339   7.360 -0.5728  0.3254 -0.3488
   63SAPC  H11A 5002   2.954   3.437   7.367  0.3847 -0.2987  2.4581
   63SAPC  H11B 5003   2.797   3.365   7.329  0.1224  2.8755 -0.8409
   63SAPC     P 5004   2.868   3.136   7.192 -0.0115 -0.3013 -0.3580
   63SAPC   O13 5005   2.887   3.005   7.255  0.3141 -0.0189 -0.4414
   63SAPC   O14 5006   2.727   3.189   7.203 -0.1615 -0.6399 -0.4394
   63SAPC   O12 5007   2.963   3.245   7.263 -0.3697 -0.1803 -0.0135
   63SAPC   O11 5008   2.905   3.129   7.043 -1.1499  0.6889 -0.4726
   63SAPC    C1 5009   3.043   3.083   7.004  0.0171 -0.0629 -0.0767
   63SAPC    HA 5010   3.114   3.168   7.013  0.9419 -0.6436 -1.5405
   63SAPC    HB 5011   3.086   3.000   7.065 -1.2469 -1.9165 -1.6125
   63SAPC    C2 5012   3.051   3.033   6.853 -0.2999  0.1576  0.2957
   63SAPC    HS 5013   3.147   2.977   6.850  0.8052  1.9532  0.1620
   63SAPC   O21 5014   3.059   3.149   6.767 -0.3296 -0.4648 -0.2735
   63SAPC   C21 5015   3.127   3.125   6.655 -0.1152  0.1628  0.5477
   63SAPC   O22 5016   3.180   3.019   6.624 -0.1271  0.2043  0.1991
   63SAPC   C22 5017   3.150   3.256   6.579  0.0996 -0.5796 -0.3921
   63SAPC   H2R 5018   3.247   3.301   6.610  0.9382 -0.9471 -2.3510
   63SAPC   H2S 5019   3.151   3.233   6.471  0.2633 -0.6069 -0.3858
   63SAPC    C3 5020   2.936   2.931   6.825  0.1741 -0.0658  0.1892
   63SAPC    HX 5021   2.840   2.977   6.856 -0.1221  0.0147 -0.8137
   63SAPC    HY 5022   2.952   2.840   6.888 -0.3972 -0.9365 -0.8761
   63SAPC   O31 5023   2.914   2.900   6.685  0.2033  0.5761 -0.2531
   63SAPC   C31 5024   2.862   2.779   6.663 -0.1104 -0.3702 -0.0292
   63SAPC   O32 5025   2.834   2.701   6.747  0.4652  0.3059  0.4884
   63SAPC   C32 5026   2.857   2.754   6.514  0.1935 -0.9163 -0.0046
   63SAPC   H2X 5027   2.832   2.849   6.462  1.2742  0.0887  1.2295
   63SAPC   H2Y 5028   2.768   2.688   6.503 -0.8822  0.7089 -1.7185
   63SAPC   C23 5029   3.035   3.355   6.597  0.3633  0.1484 -0.0787
   63SAPC   H3R 5030   3.067   3.456   6.563 -1.0626  0.2029 -1.4064
   63SAPC   H3S 5031   2.995   3.371   6.700  1.2332  0.4269  0.2261
   63SAPC   C24 5032   2.914   3.303   6.520 -0.4802 -0.0489 -0.6338
   63SAPC   H4R 5033   2.821   3.339   6.569  0.4418  0.0623  1.1055
   63SAPC   H4S 5034   2.910   3.192   6.524  0.1975 -0.0368  2.6783
   63SAPC   C25 5035   2.908   3.357   6.378  0.5475 -0.1697  0.3748
   63SAPC   H5R 5036   2.925   3.463   6.354  0.8243 -0.8016 -2.5444
   63SAPC   C26 5037   2.873   3.274   6.274 -0.3298 -1.1704 -0.7559
   63SAPC   H6R 5038   2.859   3.334   6.182 -0.5369  0.1125  0.0785
   63SAPC   C27 5039   2.832   3.130   6.270 -0.2573 -0.0573 -0.1183
   63SAPC   H7R 5040   2.749   3.132   6.195 -0.9185 -0.5232  0.5933
   63SAPC   H7S 5041   2.781   3.102   6.364 -0.1900 -1.2577 -0.4322
   63SAPC   C28 5042   2.942   3.025   6.251  0.3292 -0.1519 -0.0318
   63SAPC   H8R 5043   3.005   3.008   6.340 -0.8418  1.7233  1.2143
   63SAPC   C29 5044   2.960   2.958   6.137 -0.1533  0.5058  0.0063
   63SAPC   H9R 5045   3.038   2.882   6.118  0.5694  1.0334  0.8016
   63SAPC  C210 5046   2.869   2.965   6.013  0.4778  0.1205  0.5611
   63SAPC  H10R 5047   2.875   3.071   5.980 -1.2208  0.8872  2.4422
   63SAPC  H10S 5048   2.762   2.944   6.036  0.3970 -1.5435 -1.1137
   63SAPC  C211 5049   2.909   2.871   5.901 -0.0566 -0.1518 -0.5851
   63SAPC  H11R 5050   2.882   2.768   5.929 -0.3450  0.2339  0.5996
   63SAPC  C212 5051   2.984   2.896   5.792  0.4769  0.0676  0.4151
   63SAPC  H12R 5052   3.016   2.810   5.732 -1.0875 -1.5202  1.7440
   63SAPC  C213 5053   3.048   3.029   5.749 -0.2403  0.4412  0.3881
   63SAPC  H13R 5054   3.154   3.027   5.779  0.0184  0.7731 -0.4741
   63SAPC  H13S 5055   3.011   3.115   5.809  0.7078  0.3538  1.1132
   63SAPC  C214 5056   3.022   3.036   5.599 -0.3643  0.9166  0.3711
   63SAPC  H14R 5057   3.087   2.974   5.536  1.7964  2.7591  0.6733
   63SAPC  C215 5058   2.970   3.138   5.525 -0.1049  0.6884  0.0203
   63SAPC  H15R 5059   2.962   3.120   5.417 -1.6073  2.1260 -0.1464
   63SAPC  C216 5060   2.909   3.268   5.572  0.1736  0.9177 -0.1174
   63SAPC  H16R 5061   2.981   3.348   5.598  1.3628  0.2056 -1.1181
   63SAPC  H16S 5062   2.864   3.249   5.672  1.3205  2.0972  0.6605
   63SAPC  C217 5063   2.804   3.317   5.471 -0.3367 -0.2532  0.7356
   63SAPC  H17R 5064   2.719   3.245   5.462  0.8843 -1.9140  1.9794
   63SAPC  H17S 5065   2.852   3.330   5.371 -0.6491 -0.1262  0.5994
   63SAPC  C218 5066   2.737   3.446   5.502  0.4541  0.2190  0.0466
   63SAPC  H18R 5067   2.808   3.529   5.523  2.8068 -1.0945 -2.1240
   63SAPC  H18S 5068   2.677   3.432   5.595 -1.0312 -0.4706 -0.9776
   63SAPC  C219 5069   2.631   3.481   5.402  0.2982 -0.6222  1.3240
   63SAPC  H19R 5070   2.575   3.570   5.438 -1.7235 -2.2410  2.4626
   63SAPC  H19S 5071   2.552   3.403   5.406 -1.2808  0.5164 -2.4570
   63SAPC  C220 5072   2.676   3.499   5.263  0.4985 -0.6062 -0.2969
   63SAPC  H20R 5073   2.710   3.400   5.225  2.5115  1.0705 -3.2946
   63SAPC  H20S 5074   2.776   3.547   5.258  1.2579 -1.9536  1.1131
   63SAPC  H20T 5075   2.605   3.534   5.185  0.2931 -0.5189 -0.0702
   63SAPC   C33 5076   2.976   2.687   6.453  0.0728 -0.4190 -0.5219
   63SAPC   H3X 5077   3.009   2.602   6.515 -2.0997 -0.3223  0.8991
   63SAPC   H3Y 5078   3.057   2.763   6.460 -0.0552 -0.3263  0.0444
   63SAPC   C34 5079   2.965   2.624   6.314 -0.6161 -0.9164 -0.4716
   63SAPC   H4X 5080   2.926   2.702   6.244  1.0265 -1.2137 -1.7913
   63SAPC   H4Y 5081   2.890   2.542   6.317 -0.0572 -1.4666 -1.2228
   63SAPC   C35 5082   3.103   2.578   6.273 -0.3334 -0.8232 -1.1786
   63SAPC   H5X 5083   3.124   2.475   6.310  0.7513 -0.7932 -1.6668
   63SAPC   H5Y 5084   3.180   2.643   6.319 -1.0753 -2.8540  3.6129
   63SAPC   C36 5085   3.127   2.566   6.121 -0.4829  0.8124 -0.8962
   63SAPC   H6X 5086   3.131   2.671   6.086  1.4734  0.9848 -0.2989
   63SAPC   H6Y 5087   3.050   2.506   6.068  0.1239 -0.8187 -0.0095
   63SAPC   C37 5088   3.264   2.500   6.093 -0.3142 -0.3767 -0.1714
   63SAPC   H7X 5089   3.286   2.409   6.152 -1.7514 -2.4445 -2.6172
   63SAPC   H7Y 5090   3.340   2.578   6.118  0.0810 -1.1162  1.0104
   63SAPC   C38 5091   3.285   2.476   5.943 -0.2148 -0.5535  0.1854
   63SAPC   H8X 5092   3.217   2.393   5.912  1.3436 -2.0475  0.6164
   63SAPC   H8Y 5093   3.393   2.452   5.935 -0.2950 -0.9282  0.2183
   63SAPC   C39 5094   3.267   2.600   5.858 -0.3937 -0.2813  0.5240
   63SAPC   H9X 5095   3.326   2.687   5.893  1.8695 -0.6902 -1.9138
   63SAPC   H9Y 5096   3.163   2.632   5.838  0.1231 -0.4349 -3.1682
   63SAPC  C310 5097   3.313   2.569   5.711  0.1277 -0.4885 -0.5161
   63SAPC  H10X 5098   3.269   2.473   5.676 -1.3356  0.4700 -1.4754
   63SAPC  H10Y 5099   3.423   2.556   5.722  0.1484 -0.6471 -0.8855
   63SAPC  C311 5100   3.296   2.688   5.610  0.7716  0.1418 -0.4821
   63SAPC  H11X 5101   3.349   2.775   5.654 -0.3805  0.5956  0.0298
   63SAPC  H11Y 5102   3.191   2.723   5.607  0.7463  0.1327  0.2734
   63SAPC  C312 5103   3.336   2.659   5.467 -0.2424 -0.5043 -0.7341
   63SAPC  H12X 5104   3.269   2.577   5.433 -2.0010  0.1675  0.9048
   63SAPC  H12Y 5105   3.444   2.634   5.468  0.5627  2.3786 -2.8998
   63SAPC  C313 5106   3.308   2.782   5.381 -0.3533 -0.1671 -0.4047
   63SAPC  H13X 5107   3.381   2.859   5.412 -2.5600  0.9893  2.4603
   63SAPC  H13Y 5108   3.206   2.824   5.397  0.8341  1.8271  2.9577
   63SAPC  C314 5109   3.326   2.756   5.230 -0.6127 -0.5076  0.0720
   63SAPC  H14X 5110   3.252   2.684   5.187  2.1667 -2.5888 -1.5307
   63SAPC  H14Y 5111   3.427   2.711   5.229 -0.7836 -0.9884  1.4974
   63SAPC  C315 5112   3.331   2.879   5.139 -0.1413  0.0954  0.8176
   63SAPC  H15X 5113   3.380   2.842   5.046 -0.8591  0.8680  0.1205
   63SAPC  H15Y 5114   3.394   2.961   5.180 -1.0463  1.8041 -1.0841
   63SAPC  C316 5115   3.199   2.945   5.089  0.1360 -0.5981 -1.2935
   63SAPC  H16X 5116   3.133   2.864   5.053  0.1818 -1.0433 -0.4097
   63SAPC  H16Y 5117   3.229   2.996   4.995  0.6190 -1.6924 -1.7565
   63SAPC  C317 5118   3.126   3.030   5.194 -0.0206  0.0161 -0.1882
   63SAPC  H17X 5119   3.200   3.080   5.260  0.1425  1.5684 -1.5004
   63SAPC  H17Y 5120   3.060   2.965   5.256  1.6273 -0.3531  1.2859
   63SAPC  C318 5121   3.043   3.143   5.131 -0.2208 -0.5342  0.4289
   63SAPC  H18X 5122   3.108   3.218   5.081 -1.8761  0.3985 -0.4140
   63SAPC  H18Y 5123   2.989   3.197   5.211  2.3513  0.4053  1.6358
   63SAPC  H18Z 5124   2.960   3.101   5.070 -1.0977 -0.8277  1.7808
   64SAPC     N 5125   2.900   3.541   7.000 -0.6824  0.1416 -0.3201
   64SAPC   C12 5126   2.864   3.631   6.888 -0.4793  0.3217  0.1924
   64SAPC  H12A 5127   2.792   3.706   6.917 -1.7951  0.8044 -3.6731
   64SAPC  H12B 5128   2.817   3.584   6.803  0.9803  1.0645 -1.0691
   64SAPC   C13 5129   2.791   3.446   7.038  0.1316  0.2040  0.1790
   64SAPC  H13A 5130   2.764   3.393   6.948 -2.8882  1.4269  0.2352
   64SAPC  H13B 5131   2.818   3.387   7.124  0.2897 -2.3549 -1.5103
   64SAPC  H13C 5132   2.701   3.502   7.059  0.4573  0.6075  0.5068
   64SAPC   C14 5133   3.019   3.459   6.960  0.1868  0.4427 -0.2511
   64SAPC  H14A 5134   3.000   3.400   6.871  2.0896  0.4124 -0.6764
   64SAPC  H14B 5135   3.100   3.528   6.941  0.1410  0.5558 -0.0399
   64SAPC  H14C 5136   3.055   3.396   7.040  0.8628  2.1517  0.8394
   64SAPC   C15 5137   2.943   3.624   7.118 -0.1632 -0.0208 -0.2545
   64SAPC  H15A 5138   3.026   3.690   7.098 -0.7132  0.8264  0.1925
   64SAPC  H15B 5139   2.869   3.699   7.142  1.6244  1.6805  0.2166
   64SAPC  H15C 5140   2.974   3.570   7.207  0.2502  0.5589 -0.0427
   64SAPC   C11 5141   2.981   3.711   6.822  0.3751  0.3080 -0.1317
   64SAPC  H11A 5142   2.927   3.768   6.744  0.5029 -0.8185 -1.0715
   64SAPC  H11B 5143   3.055   3.641   6.775 -0.3855 -0.6102  0.0126
   64SAPC     P 5144   3.181   3.870   6.891  0.1702 -0.4130  0.6124
   64SAPC   O13 5145   3.194   4.000   6.963 -0.1023 -0.2420 -0.3892
   64SAPC   O14 5146   3.287   3.773   6.926  0.6292  0.2759 -0.7294
   64SAPC   O12 5147   3.046   3.802   6.911  0.1703 -0.5421 -0.3194
   64SAPC   O11 5148   3.197   3.904   6.733 -0.4393  0.2435 -0.2943
   64SAPC    C1 5149   3.106   3.995   6.670  0.0550  0.4633 -0.3593
   64SAPC    HA 5150   3.008   3.955   6.703  1.6968 -2.0517  1.8684
   64SAPC    HB 5151   3.119   4.100   6.703 -1.2790  0.6944 -0.5027
   64SAPC    C2 5152   3.118   4.004   6.516 -0.4679 -0.6089  0.5132
   64SAPC    HS 5153   3.086   3.901   6.490  0.1837 -0.5423 -0.5882
   64SAPC   O21 5154   3.255   4.026   6.471 -0.0566  0.7986 -0.1808
   64SAPC   C21 5155   3.315   3.920   6.414  0.2723 -0.3441 -0.2006
   64SAPC   O22 5156   3.261   3.811   6.399  0.0292 -0.2462 -0.6535
   64SAPC   C22 5157   3.457   3.958   6.389  0.8679 -0.8298  0.4450
   64SAPC   H2R 5158   3.485   4.033   6.466  1.6201 -0.7288  0.0804
   64SAPC   H2S 5159   3.533   3.878   6.387  0.3902 -1.3218 -2.2011
   64SAPC    C3 5160   3.024   4.109   6.443 -0.5456  0.9577  0.0757
   64SAPC    HX 5161   3.050   4.209   6.483  0.5557 -0.4545  3.2328
   64SAPC    HY 5162   2.920   4.094   6.481 -0.2649 -1.2706  0.0879
   64SAPC   O31 5163   3.025   4.085   6.298 -0.0818  0.8299  0.6532
   64SAPC   C31 5164   3.077   4.180   6.228  0.9675 -0.1262 -1.4050
   64SAPC   O32 5165   3.112   4.294   6.262  0.9553  0.4416 -0.1382
   64SAPC   C32 5166   3.072   4.128   6.083 -0.0757 -0.0380 -0.4711
   64SAPC   H2X 5167   2.963   4.133   6.064 -0.1197  0.0601 -0.1931
   64SAPC   H2Y 5168   3.109   4.024   6.072 -0.0681  0.0605 -1.5149
   64SAPC   C23 5169   3.456   4.034   6.253  0.2690  0.4993 -0.5392
   64SAPC   H3R 5170   3.524   4.121   6.267  0.3667  0.1708  1.3727
   64SAPC   H3S 5171   3.356   4.071   6.222 -0.6858 -0.9065  0.7222
   64SAPC   C24 5172   3.520   3.956   6.137  1.6299 -0.7224 -0.2443
   64SAPC   H4R 5173   3.608   3.899   6.172  2.3854  0.8895  0.6005
   64SAPC   H4S 5174   3.547   4.029   6.058  0.3848  0.4129  0.3328
   64SAPC   C25 5175   3.416   3.850   6.091 -0.1077 -0.2955 -0.4700
   64SAPC   H5R 5176   3.397   3.773   6.167 -0.3190  1.3091  1.2019
   64SAPC   C26 5177   3.356   3.850   5.970  0.1768 -0.8137 -0.7114
   64SAPC   H6R 5178   3.284   3.768   5.961 -1.4882  0.5739 -0.4926
   64SAPC   C27 5179   3.384   3.947   5.853 -0.2223  0.0086 -0.5437
   64SAPC   H7R 5180   3.392   4.049   5.896 -1.6945 -0.9469  2.2526
   64SAPC   H7S 5181   3.294   3.945   5.788  0.8838 -0.7494 -2.1127
   64SAPC   C28 5182   3.505   3.912   5.777 -0.1356 -0.0464  1.0179
   64SAPC   H8R 5183   3.577   3.851   5.834 -0.1632 -0.2129  0.8730
   64SAPC   C29 5184   3.519   3.942   5.641 -0.1899  0.6633 -0.1997
   64SAPC   H9R 5185   3.614   3.917   5.591  0.4612 -0.2290  1.3922
   64SAPC  C210 5186   3.427   4.014   5.544 -0.4052  0.7582  0.2296
   64SAPC  H10R 5187   3.476   4.102   5.498 -3.5145  1.1492 -2.7910
   64SAPC  H10S 5188   3.349   4.059   5.610  0.7150  1.1938  1.2927
   64SAPC  C211 5189   3.352   3.915   5.457 -0.4712  0.6596  0.5448
   64SAPC  H11R 5190   3.314   3.837   5.525 -0.6699  0.4506  0.1964
   64SAPC  C212 5191   3.337   3.901   5.321  0.2712 -0.6164 -0.3808
   64SAPC  H12R 5192   3.275   3.823   5.273 -0.8940  0.3422 -0.5000
   64SAPC  C213 5193   3.393   4.012   5.232 -0.0306 -0.2713 -1.7992
   64SAPC  H13R 5194   3.500   3.982   5.233 -0.1260 -0.8709  1.7396
   64SAPC  H13S 5195   3.381   4.105   5.291 -2.2316 -0.6814 -1.5267
   64SAPC  C214 5196   3.329   4.024   5.094  0.4452 -0.0859 -0.3462
   64SAPC  H14R 5197   3.221   4.045   5.091  0.4839  0.3086 -4.5247
   64SAPC  C215 5198   3.386   4.006   4.976 -0.4220 -0.4594 -0.4753
   64SAPC  H15R 5199   3.325   4.020   4.885  0.5272  2.2302 -0.7790
   64SAPC  C216 5200   3.527   3.970   4.946 -0.3117 -0.0691 -0.1450
   64SAPC  H16R 5201   3.584   3.965   5.041 -0.7243 -0.3168  0.0890
   64SAPC  H16S 5202   3.579   4.037   4.874  0.7056 -0.8346 -0.1389
   64SAPC  C217 5203   3.528   3.826   4.897  0.0377  0.2561  0.5969
   64SAPC  H17R 5204   3.498   3.758   4.980  2.1667 -1.1576  0.2803
   64SAPC  H17S 5205   3.633   3.797   4.876 -1.1183 -2.8827 -1.5606
   64SAPC  C218 5206   3.447   3.805   4.770  0.1451  0.1879  0.0762
   64SAPC  H18R 5207   3.342   3.825   4.797 -0.2463 -1.7446  0.1385
   64SAPC  H18S 5208   3.446   3.694   4.763  1.7147 -0.0793  2.7658
   64SAPC  C219 5209   3.497   3.872   4.639  0.7385 -0.2442 -0.0116
   64SAPC  H19R 5210   3.587   3.811   4.613 -0.4851 -2.2725  0.3068
   64SAPC  H19S 5211   3.520   3.978   4.661 -0.0718 -0.2405  0.8335
   64SAPC  C220 5212   3.401   3.860   4.520 -0.2116  0.6338 -0.1822
   64SAPC  H20R 5213   3.448   3.896   4.427 -0.2183  0.2069 -0.3544
   64SAPC  H20S 5214   3.306   3.917   4.533  0.4005  1.9901 -1.4335
   64SAPC  H20T 5215   3.365   3.756   4.502  0.9742 -0.0023  0.9380
   64SAPC   C33 5216   3.145   4.219   5.975 -0.0555  0.2717 -1.2370
   64SAPC   H3X 5217   3.250   4.185   5.978 -0.1118 -0.6018 -4.5286
   64SAPC   H3Y 5218   3.152   4.324   6.010 -1.0253  0.2399 -0.9135
   64SAPC   C34 5219   3.104   4.190   5.834 -0.0560  0.1223  0.4280
   64SAPC   H4X 5220   2.998   4.222   5.823 -0.1694 -0.2438  0.4570
   64SAPC   H4Y 5221   3.104   4.082   5.811 -2.2261 -0.1922  1.6547
   64SAPC   C35 5222   3.209   4.274   5.748  0.8304 -0.0363 -0.4419
   64SAPC   H5X 5223   3.309   4.230   5.763  1.0188  0.5225 -0.0431
   64SAPC   H5Y 5224   3.215   4.375   5.794  0.0549 -0.8831  1.6559
   64SAPC   C36 5225   3.170   4.300   5.600 -0.6789  0.4686 -0.2412
   64SAPC   H6X 5226   3.083   4.368   5.600  0.6972  2.3475 -1.6231
   64SAPC   H6Y 5227   3.131   4.210   5.549 -1.8687  2.0492 -2.2903
   64SAPC   C37 5228   3.280   4.361   5.502  0.3556  0.4860 -0.4077
   64SAPC   H7X 5229   3.372   4.299   5.496 -1.2180 -1.9979 -0.5303
   64SAPC   H7Y 5230   3.316   4.454   5.550 -2.1824  0.5315  1.6525
   64SAPC   C38 5231   3.234   4.364   5.358  0.5259 -0.0901 -0.9205
   64SAPC   H8X 5232   3.130   4.399   5.367  0.9610  0.9377  0.4158
   64SAPC   H8Y 5233   3.241   4.259   5.323  1.4463 -1.3289  2.5038
   64SAPC   C39 5234   3.329   4.449   5.274 -0.6869  0.1917 -0.2742
   64SAPC   H9X 5235   3.431   4.441   5.317 -0.4253 -1.1551 -1.0737
   64SAPC   H9Y 5236   3.299   4.556   5.276 -0.3520  0.3086 -1.0247
   64SAPC  C310 5237   3.343   4.399   5.132  0.2091 -0.8071  0.5998
   64SAPC  H10X 5238   3.244   4.371   5.091  0.4561 -1.6922  0.5931
   64SAPC  H10Y 5239   3.399   4.304   5.135  2.0903  0.2222 -0.3632
   64SAPC  C311 5240   3.420   4.503   5.050 -0.1620  0.1604 -0.3778
   64SAPC  H11X 5241   3.509   4.527   5.113  1.0249 -0.9214 -1.6009
   64SAPC  H11Y 5242   3.360   4.596   5.039  1.2623  0.9266 -2.0810
   64SAPC  C312 5243   3.468   4.462   4.911  0.0974  0.1998  0.0415
   64SAPC  H12X 5244   3.537   4.376   4.927  0.1879  0.3759  0.6214
   64SAPC  H12Y 5245   3.521   4.551   4.872  2.3152  0.0509  2.4077
   64SAPC  C313 5246   3.355   4.412   4.821  0.2464 -0.2189 -0.6108
   64SAPC  H13X 5247   3.264   4.475   4.815  1.3222  1.3301 -1.4524
   64SAPC  H13Y 5248   3.322   4.314   4.862  0.5375  0.1558  0.5528
   64SAPC  C314 5249   3.409   4.385   4.684  0.0011  0.0254  0.2822
   64SAPC  H14X 5250   3.495   4.316   4.672  0.7993  1.1883 -1.1469
   64SAPC  H14Y 5251   3.444   4.478   4.635 -1.6916 -0.2107 -1.4965
   64SAPC  C315 5252   3.296   4.334   4.590  0.2573  0.3995 -0.6937
   64SAPC  H15X 5253   3.217   4.411   4.594 -0.2179 -0.1414  1.2780
   64SAPC  H15Y 5254   3.258   4.237   4.629 -0.8404  1.0634 -0.0705
   64SAPC  C316 5255   3.357   4.311   4.458 -0.5020 -0.1738 -0.6209
   64SAPC  H16X 5256   3.434   4.231   4.455 -0.6613 -0.3152 -0.8711
   64SAPC  H16Y 5257   3.406   4.406   4.428  1.0150 -0.2086  1.4521
   64SAPC  C317 5258   3.253   4.282   4.353  0.4729 -0.0524 -0.5706
   64SAPC  H17X 5259   3.201   4.190   4.389 -0.5763 -0.0033 -1.8692
   64SAPC  H17Y 5260   3.307   4.249   4.261 -0.0512 -2.1470 -0.1964
   64SAPC  C318 5261   3.143   4.386   4.320 -0.7046  0.2399 -0.2258
   64SAPC  H18X 5262   3.084   4.410   4.411  0.0870  0.1901  0.3072
   64SAPC  H18Y 5263   3.081   4.348   4.236  1.5793  0.8620 -2.3337
   64SAPC  H18Z 5264   3.200   4.478   4.295  1.0459 -0.8357 -0.3873
   65SAPC     N 5265   4.838   2.615   2.185 -0.5835 -0.1385 -0.0566
   65SAPC   C12 5266   4.855   2.623   2.335  0.6110  0.0311 -0.2062
   65SAPC  H12A 5267   4.829   2.526   2.375 -0.5485 -0.2461 -1.5527
   65SAPC  H12B 5268   4.792   2.700   2.376  5.7656  3.6001  2.0887
   65SAPC   C13 5269   4.697   2.574   2.160 -0.2460 -0.6453 -0.1396
   65SAPC  H13A 5270   4.682   2.478   2.206 -0.6798 -0.5486 -0.0754
   65SAPC  H13B 5271   4.623   2.642   2.200 -0.9405 -1.2686 -0.3365
   65SAPC  H13C 5272   4.680   2.561   2.054 -0.8012 -0.2911 -0.0985
   65SAPC   C14 5273   4.859   2.744   2.110  0.1065 -0.2830 -0.1549
   65SAPC  H14A 5274   4.792   2.820   2.146  1.1709  1.5737 -1.9016
   65SAPC  H14B 5275   4.960   2.778   2.127 -0.8974  2.4182  0.8181
   65SAPC  H14C 5276   4.839   2.727   2.005  1.0188  0.2004 -0.4144
   65SAPC   C15 5277   4.923   2.504   2.137 -0.1397  0.2487  0.5739
   65SAPC  H15A 5278   4.906   2.471   2.036 -1.7867  2.0606  0.1947
   65SAPC  H15B 5279   5.029   2.524   2.136  0.6327 -3.2463 -0.1029
   65SAPC  H15C 5280   4.914   2.420   2.204  0.0596  0.4344  0.8394
   65SAPC   C11 5281   4.994   2.661   2.392 -0.1240 -0.1042  0.0688
   65SAPC  H11A 5282   5.058   2.573   2.370  1.5459  0.7763  1.2004
   65SAPC  H11B 5283   4.996   2.679   2.501 -0.2598  3.0448 -0.3724
   65SAPC     P 5284   4.992   2.922   2.383  0.6242 -0.0135 -0.1955
   65SAPC   O13 5285   5.059   3.025   2.303 -0.2690 -0.0155  0.1363
   65SAPC   O14 5286   4.843   2.925   2.402  0.0772  0.0398  0.1427
   65SAPC   O12 5287   5.048   2.780   2.327  0.2788 -0.0248 -0.0741
   65SAPC   O11 5288   5.052   2.933   2.525 -0.7307  0.5804 -0.1330
   65SAPC    C1 5289   5.190   2.901   2.552  0.7382  0.1633  0.7477
   65SAPC    HA 5290   5.236   2.818   2.494  1.1934  0.4350  0.7107
   65SAPC    HB 5291   5.252   2.990   2.529 -0.2486  0.3051 -1.6115
   65SAPC    C2 5292   5.221   2.882   2.708  0.2413 -1.0519  0.6491
   65SAPC    HS 5293   5.180   2.787   2.748  1.6056 -2.9314 -2.1294
   65SAPC   O21 5294   5.174   3.006   2.771 -0.0763 -0.5996  0.1395
   65SAPC   C21 5295   5.109   2.986   2.887 -0.6287 -0.0191 -0.3288
   65SAPC   O22 5296   5.078   2.875   2.929 -0.3500 -0.4513  0.3727
   65SAPC   C22 5297   5.075   3.113   2.952  0.0917  0.5679  0.5547
   65SAPC   H2R 5298   5.167   3.175   2.943 -0.1763  1.1135  1.4721
   65SAPC   H2S 5299   4.989   3.156   2.897  0.6718 -0.9781 -1.6831
   65SAPC    C3 5300   5.374   2.868   2.730  0.0732 -0.7108 -0.3258
   65SAPC    HX 5301   5.427   2.954   2.685 -0.1104  0.7433  2.0727
   65SAPC    HY 5302   5.407   2.783   2.666 -0.8741  1.0306 -3.3368
   65SAPC   O31 5303   5.420   2.851   2.865 -0.2811 -0.5146 -0.1626
   65SAPC   C31 5304   5.539   2.905   2.901 -0.0513  0.1762 -0.2187
   65SAPC   O32 5305   5.603   2.969   2.818 -0.8214  0.4828 -0.6175
   65SAPC   C32 5306   5.568   2.883   3.048 -0.6323 -0.0679 -0.0903
   65SAPC   H2X 5307   5.546   2.779   3.080 -1.3698 -0.1717 -0.8991
   65SAPC   H2Y 5308   5.491   2.945   3.099 -1.6920 -0.0955 -1.5973
   65SAPC   C23 5309   5.024   3.094   3.099  0.4800  0.8094 -0.7339
   65SAPC   H3R 5310   5.096   3.031   3.156  2.0211  2.9919 -0.1419
   65SAPC   H3S 5311   4.929   3.036   3.090  0.3428  1.2191 -2.1546
   65SAPC   C24 5312   5.018   3.222   3.188  0.0975  0.4209  0.0714
   65SAPC   H4R 5313   5.118   3.269   3.172  0.1132  0.3053 -0.1785
   65SAPC   H4S 5314   5.001   3.187   3.293  0.3013 -1.0618 -0.3624
   65SAPC   C25 5315   4.909   3.316   3.143 -0.2239 -0.3319  0.0290
   65SAPC   H5R 5316   4.886   3.307   3.036  0.6905 -0.9092 -0.1352
   65SAPC   C26 5317   4.824   3.378   3.221  0.3759  0.6724 -0.2141
   65SAPC   H6R 5318   4.749   3.443   3.175  0.3204  1.8109  1.4084
   65SAPC   C27 5319   4.809   3.385   3.369  0.1102  0.1908  0.3077
   65SAPC   H7R 5320   4.909   3.400   3.414  1.1197 -1.6011 -1.1877
   65SAPC   H7S 5321   4.783   3.282   3.401 -0.2038  0.2630  0.2822
   65SAPC   C28 5322   4.712   3.481   3.427 -0.5711  0.5029  1.0948
   65SAPC   H8R 5323   4.760   3.580   3.436  1.0560 -0.2385  0.8420
   65SAPC   C29 5324   4.586   3.466   3.467 -0.1489 -0.6523 -0.3917
   65SAPC   H9R 5325   4.528   3.553   3.501 -1.0449 -1.8372  1.2543
   65SAPC  C210 5326   4.500   3.345   3.477 -0.0483  0.7657 -0.4261
   65SAPC  H10R 5327   4.573   3.263   3.496 -0.3910  0.5396 -0.0607
   65SAPC  H10S 5328   4.466   3.326   3.373 -0.3547 -0.5226 -0.1102
   65SAPC  C211 5329   4.376   3.342   3.565 -0.0006 -0.4301 -0.2207
   65SAPC  H11R 5330   4.283   3.333   3.508 -0.2719 -0.2112  0.1832
   65SAPC  C212 5331   4.374   3.361   3.697  0.7481  0.2635  0.3040
   65SAPC  H12R 5332   4.280   3.366   3.754  1.2231  0.7208  1.0586
   65SAPC  C213 5333   4.496   3.378   3.779 -0.1450 -0.3143 -0.2639
   65SAPC  H13R 5334   4.528   3.484   3.768  1.3880 -0.7579 -0.2630
   65SAPC  H13S 5335   4.589   3.337   3.734  0.7326  1.5670 -0.2487
   65SAPC  C214 5336   4.486   3.334   3.926 -0.3029  0.6467  0.5550
   65SAPC  H14R 5337   4.488   3.225   3.943 -2.1002  0.5575  0.3573
   65SAPC  C215 5338   4.490   3.417   4.028  0.1091 -0.7624 -0.4575
   65SAPC  H15R 5339   4.493   3.374   4.129 -2.1805 -0.5531 -0.2561
   65SAPC  C216 5340   4.495   3.571   4.020  0.1843  0.3003 -0.2794
   65SAPC  H16R 5341   4.406   3.610   4.074  0.3925 -0.6121  0.7423
   65SAPC  H16S 5342   4.494   3.597   3.912  1.5868 -1.1401 -0.6839
   65SAPC  C217 5343   4.626   3.625   4.082 -0.1572  1.1847 -0.1742
   65SAPC  H17R 5344   4.639   3.732   4.058 -2.7882  1.0984 -2.4055
   65SAPC  H17S 5345   4.713   3.570   4.039 -1.7906 -2.6460  0.9411
   65SAPC  C218 5346   4.636   3.608   4.235  0.6664 -0.6354 -0.3821
   65SAPC  H18R 5347   4.650   3.498   4.248  3.5059 -0.3411 -0.4892
   65SAPC  H18S 5348   4.541   3.643   4.282  0.2271 -1.8994 -0.2813
   65SAPC  C219 5349   4.751   3.687   4.297  0.0327  0.1336 -0.1157
   65SAPC  H19R 5350   4.752   3.795   4.269 -0.8171  0.3203  0.4975
   65SAPC  H19S 5351   4.852   3.656   4.264  0.9749  2.9839 -0.2358
   65SAPC  C220 5352   4.742   3.678   4.452  0.5113  0.9290 -0.0357
   65SAPC  H20R 5353   4.741   3.569   4.474 -2.4941  0.3515 -2.3400
   65SAPC  H20S 5354   4.651   3.726   4.494  0.6714  1.2280 -0.0297
   65SAPC  H20T 5355   4.834   3.722   4.495  0.9827  0.2032 -0.2744
   65SAPC   C33 5356   5.716   2.914   3.108  0.6611  0.7128  0.1501
   65SAPC   H3X 5357   5.737   3.022   3.090  2.8391  0.9166  3.1977
   65SAPC   H3Y 5358   5.794   2.850   3.060  0.5043 -0.5855  1.5707
   65SAPC   C34 5359   5.730   2.893   3.260 -0.2544  0.1078  0.4626
   65SAPC   H4X 5360   5.655   2.960   3.308 -0.7041  0.8010 -1.1523
   65SAPC   H4Y 5361   5.834   2.927   3.278  0.3829 -1.7494  0.4865
   65SAPC   C35 5362   5.723   2.746   3.305  0.2585 -0.1611 -0.4672
   65SAPC   H5X 5363   5.804   2.690   3.254  1.1811 -0.9586  1.7669
   65SAPC   H5Y 5364   5.630   2.694   3.270  0.0839 -0.3544  0.2591
   65SAPC   C36 5365   5.755   2.744   3.454  0.0597  0.4799  0.5474
   65SAPC   H6X 5366   5.858   2.784   3.457 -0.6473  2.4779 -0.1225
   65SAPC   H6Y 5367   5.766   2.639   3.490 -0.6854  0.7086  1.5185
   65SAPC   C37 5368   5.675   2.836   3.545  0.1340  0.1681 -0.7173
   65SAPC   H7X 5369   5.568   2.847   3.513  0.5055  1.0607 -1.7289
   65SAPC   H7Y 5370   5.714   2.940   3.548 -1.2319  0.6838  1.4467
   65SAPC   C38 5371   5.669   2.791   3.691  0.3883 -0.0915  0.2103
   65SAPC   H8X 5372   5.768   2.764   3.734  0.4779  1.6598  1.1952
   65SAPC   H8Y 5373   5.601   2.703   3.694 -0.1240  0.2297 -1.3914
   65SAPC   C39 5374   5.599   2.896   3.771  0.5258 -0.6727  0.0876
   65SAPC   H9X 5375   5.492   2.896   3.739  1.1005 -0.0430 -1.9405
   65SAPC   H9Y 5376   5.641   2.996   3.749  2.0602 -1.3445 -0.1151
   65SAPC  C310 5377   5.625   2.875   3.918  0.3456 -0.1995  0.4226
   65SAPC  H10X 5378   5.730   2.864   3.952 -0.1729  0.8491  2.4744
   65SAPC  H10Y 5379   5.577   2.777   3.938  2.1171 -1.2066  0.0251
   65SAPC  C311 5380   5.558   2.980   4.004  0.1038 -0.2821  0.2156
   65SAPC  H11X 5381   5.456   2.992   3.960  0.9783  0.1536 -1.7898
   65SAPC  H11Y 5382   5.609   3.073   3.971 -1.5777 -0.1321 -2.2985
   65SAPC  C312 5383   5.560   2.953   4.145  0.3061 -0.5355 -0.9118
   65SAPC  H12X 5384   5.655   2.907   4.180 -0.1844 -1.0526 -0.2364
   65SAPC  H12Y 5385   5.484   2.874   4.166  0.8709 -1.1300 -1.0592
   65SAPC  C313 5386   5.526   3.072   4.242 -0.1772  0.1209  0.1375
   65SAPC  H13X 5387   5.423   3.108   4.223 -0.6371  0.4964  2.9573
   65SAPC  H13Y 5388   5.589   3.161   4.224 -0.5705  0.2685 -0.5644
   65SAPC  C314 5389   5.546   3.021   4.386 -0.4270  0.6783 -0.5036
   65SAPC  H14X 5390   5.655   3.003   4.400  0.1195  3.9312  0.2246
   65SAPC  H14Y 5391   5.487   2.928   4.404 -2.1854  1.7269 -0.5998
   65SAPC  C315 5392   5.506   3.123   4.485 -0.4914 -0.4101 -0.1226
   65SAPC  H15X 5393   5.397   3.137   4.464 -0.8448 -1.4305  0.9318
   65SAPC  H15Y 5394   5.572   3.212   4.485 -1.8333  0.6565 -1.8306
   65SAPC  C316 5395   5.516   3.065   4.621 -0.3459 -0.1679  0.1292
   65SAPC  H16X 5396   5.625   3.055   4.642 -0.1223  1.8421  0.0504
   65SAPC  H16Y 5397   5.463   2.967   4.628 -2.1596  0.7965  0.2514
   65SAPC  C317 5398   5.443   3.163   4.722 -0.1492  0.8503 -0.0130
   65SAPC  H17X 5399   5.332   3.165   4.712 -0.4739  0.4134  2.6647
   65SAPC  H17Y 5400   5.487   3.262   4.701  2.0570  0.1462  1.0132
   65SAPC  C318 5401   5.471   3.118   4.867 -0.0717  0.6504  0.2181
   65SAPC  H18X 5402   5.579   3.124   4.892 -0.2281  0.1358  1.0673
   65SAPC  H18Y 5403   5.435   3.013   4.873 -0.3580  0.5780 -1.8827
   65SAPC  H18Z 5404   5.416   3.182   4.939 -1.5975  0.8566 -1.0685
   66SAPC     N 5405   5.625   5.346   2.485 -0.5288  0.6735  0.2161
   66SAPC   C12 5406   5.699   5.242   2.565 -0.4725 -0.2563 -0.1612
   66SAPC  H12A 5407   5.774   5.200   2.500 -0.1141  1.7248 -1.1118
   66SAPC  H12B 5408   5.631   5.161   2.584 -0.4793 -0.5522 -1.3772
   66SAPC   C13 5409   5.544   5.286   2.378  0.2778  0.9220  0.1694
   66SAPC  H13A 5410   5.455   5.243   2.421  0.3288 -1.2170 -1.6497
   66SAPC  H13B 5411   5.518   5.370   2.316  3.0211  1.8872  0.1882
   66SAPC  H13C 5412   5.600   5.219   2.314 -0.1592 -0.1480  0.8896
   66SAPC   C14 5413   5.528   5.414   2.574  0.0115  0.1411  0.0016
   66SAPC  H14A 5414   5.465   5.469   2.506  0.8319  0.6502 -0.3616
   66SAPC  H14B 5415   5.468   5.343   2.628 -2.4435  3.4008  1.8309
   66SAPC  H14C 5416   5.582   5.464   2.653  1.2905 -0.6825 -0.3055
   66SAPC   C15 5417   5.713   5.444   2.418  0.3740  0.0072  0.0657
   66SAPC  H15A 5418   5.787   5.488   2.485  2.3545 -0.1378 -1.9079
   66SAPC  H15B 5419   5.771   5.401   2.339 -1.0924  1.2346 -1.7590
   66SAPC  H15C 5420   5.654   5.524   2.377  0.5697  0.9849  1.5804
   66SAPC   C11 5421   5.765   5.278   2.703  0.1013  0.4240  0.2721
   66SAPC  H11A 5422   5.812   5.186   2.744 -1.1704 -1.5270 -2.3471
   66SAPC  H11B 5423   5.688   5.319   2.771 -0.4146  0.1812 -0.1615
   66SAPC     P 5424   6.010   5.362   2.638 -0.4261  0.1213  0.2259
   66SAPC   O13 5425   6.014   5.266   2.528 -0.2301  0.2127  0.1520
   66SAPC   O14 5426   6.059   5.495   2.611  0.0216 -0.2896  0.6122
   66SAPC   O12 5427   5.860   5.383   2.693 -0.0251 -0.2676 -0.3852
   66SAPC   O11 5428   6.092   5.308   2.762 -0.8726 -0.0520  0.0059
   66SAPC    C1 5429   6.194   5.385   2.826  0.6743  0.2510 -0.1463
   66SAPC    HA 5430   6.257   5.306   2.872  2.9276 -0.1052 -3.5256
   66SAPC    HB 5431   6.263   5.442   2.760 -2.2156  1.5271 -2.3214
   66SAPC    C2 5432   6.136   5.480   2.937  0.2332  0.2408  0.2760
   66SAPC    HS 5433   6.058   5.548   2.897 -0.1038 -0.6243 -0.5742
   66SAPC   O21 5434   6.243   5.559   2.996 -0.1849  0.3375  0.1196
   66SAPC   C21 5435   6.227   5.684   3.013  0.1258 -0.6575  0.1159
   66SAPC   O22 5436   6.130   5.745   2.967  0.1564  0.0273  0.0476
   66SAPC   C22 5437   6.336   5.729   3.111  0.2191  0.0735 -0.6771
   66SAPC   H2R 5438   6.328   5.675   3.207  3.6921  0.4046 -0.0742
   66SAPC   H2S 5439   6.432   5.695   3.066 -0.6699 -4.2116  0.2015
   66SAPC    C3 5440   6.071   5.398   3.055 -0.2070  0.3276 -0.3943
   66SAPC    HX 5441   6.150   5.331   3.096  0.1837  1.9886  1.7214
   66SAPC    HY 5442   5.989   5.335   3.015  0.5828 -0.5546 -0.6709
   66SAPC   O31 5443   6.027   5.482   3.167  0.0506 -0.6885  0.2022
   66SAPC   C31 5444   5.910   5.547   3.145 -0.1068  0.2975  0.4087
   66SAPC   O32 5445   5.839   5.528   3.049 -0.2347 -0.0328 -0.7963
   66SAPC   C32 5446   5.882   5.643   3.261  0.1854  0.0903 -0.1513
   66SAPC   H2X 5447   5.775   5.625   3.287 -0.2038 -0.0297 -1.6834
   66SAPC   H2Y 5448   5.888   5.743   3.211  1.8386  0.4199  0.6446
   66SAPC   C23 5449   6.323   5.882   3.142  0.1369 -0.0206 -0.1418
   66SAPC   H3R 5450   6.222   5.887   3.189  1.3719  0.2602  2.6984
   66SAPC   H3S 5451   6.336   5.944   3.051  0.7464  1.4178  0.8746
   66SAPC   C24 5452   6.401   5.941   3.259  0.3571 -0.2715 -0.5223
   66SAPC   H4R 5453   6.508   5.920   3.235  0.7212  0.8572  0.0410
   66SAPC   H4S 5454   6.388   5.889   3.356  1.4339  1.9378  0.8802
   66SAPC   C25 5455   6.384   6.086   3.275 -0.9777 -0.2861  0.1947
   66SAPC   H5R 5456   6.467   6.147   3.239 -1.0723 -0.9032 -1.1152
   66SAPC   C26 5457   6.275   6.140   3.324  0.5714 -0.3665  0.2300
   66SAPC   H6R 5458   6.256   6.249   3.323 -3.3569 -0.8988 -1.5856
   66SAPC   C27 5459   6.147   6.076   3.380 -0.1254  0.7392  0.6629
   66SAPC   H7R 5460   6.189   5.980   3.418 -1.7420  0.2317  1.2475
   66SAPC   H7S 5461   6.076   6.053   3.298 -0.0625  0.8657  0.5725
   66SAPC   C28 5462   6.091   6.145   3.494 -0.7944  0.3293  0.0459
   66SAPC   H8R 5463   6.018   6.225   3.476  0.5579  1.8479  1.0628
   66SAPC   C29 5464   6.132   6.123   3.621 -0.3592 -0.7934  0.2032
   66SAPC   H9R 5465   6.069   6.175   3.695 -1.7990  0.8072 -2.0140
   66SAPC  C210 5466   6.227   6.029   3.682 -0.7934  0.2752  0.8101
   66SAPC  H10R 5467   6.264   6.080   3.773 -1.6328  3.2754 -0.3928
   66SAPC  H10S 5468   6.315   6.011   3.616 -0.0882 -2.6022  2.3725
   66SAPC  C211 5469   6.165   5.896   3.721 -0.4094  0.0268 -0.1848
   66SAPC  H11R 5470   6.130   5.838   3.634 -1.1024 -0.6730  0.5419
   66SAPC  C212 5471   6.129   5.853   3.846 -0.7848 -1.0749 -0.7638
   66SAPC  H12R 5472   6.077   5.758   3.860 -2.0427 -0.2154  0.6162
   66SAPC  C213 5473   6.174   5.913   3.978 -0.3916  0.3850 -0.2710
   66SAPC  H13R 5474   6.259   5.980   3.954 -0.6621  1.1294  0.7858
   66SAPC  H13S 5475   6.218   5.839   4.048  0.2460  1.3666  0.3874
   66SAPC  C214 5476   6.060   5.990   4.045 -0.1864 -0.4503 -0.8355
   66SAPC  H14R 5477   5.996   6.049   3.978 -1.0821 -0.9193 -0.4037
   66SAPC  C215 5478   6.052   6.008   4.177 -0.5681  0.0345  0.1367
   66SAPC  H15R 5479   5.966   6.064   4.217  0.1264  0.1581  1.5495
   66SAPC  C216 5480   6.131   5.940   4.290 -0.0873 -0.3402 -0.4452
   66SAPC  H16R 5481   6.176   5.842   4.263  1.1623 -1.1526  3.7757
   66SAPC  H16S 5482   6.056   5.905   4.365  0.4737  0.3651  0.4738
   66SAPC  C217 5483   6.236   6.032   4.361 -0.3288  0.2407  0.4719
   66SAPC  H17R 5484   6.269   6.005   4.463 -1.6458  2.4825  1.5675
   66SAPC  H17S 5485   6.175   6.122   4.385 -0.6939 -0.2530  1.4551
   66SAPC  C218 5486   6.356   6.071   4.274 -0.5905  0.0730 -0.4429
   66SAPC  H18R 5487   6.406   6.151   4.333 -0.1923 -0.6684  0.2506
   66SAPC  H18S 5488   6.324   6.108   4.175  3.0665  0.9497 -1.4383
   66SAPC  C219 5489   6.463   5.958   4.252 -0.0053  0.4230  0.0561
   66SAPC  H19R 5490   6.550   6.002   4.199 -0.3683  0.0789 -0.8478
   66SAPC  H19S 5491   6.425   5.892   4.171  1.2401  0.2696 -0.4206
   66SAPC  C220 5492   6.507   5.887   4.380 -0.2518 -0.0401  0.1071
   66SAPC  H20R 5493   6.543   5.967   4.448  1.2091 -1.1092  0.6275
   66SAPC  H20S 5494   6.597   5.824   4.364 -1.9250 -2.4812 -0.1671
   66SAPC  H20T 5495   6.431   5.821   4.426 -0.0175  0.4624  1.2533
   66SAPC   C33 5496   5.977   5.644   3.380  0.1270 -0.0605  0.1178
   66SAPC   H3X 5497   5.956   5.724   3.454  0.4698  0.6318 -0.5243
   66SAPC   H3Y 5498   6.081   5.662   3.345 -1.2175  2.7983 -2.9759
   66SAPC   C34 5499   5.973   5.513   3.465 -0.4233 -0.1356  0.6224
   66SAPC   H4X 5500   6.010   5.434   3.396  0.2954  1.1517 -0.5280
   66SAPC   H4Y 5501   5.870   5.491   3.501  0.2750 -0.2978  2.6488
   66SAPC   C35 5502   6.064   5.521   3.582 -0.1551  0.2787 -0.3523
   66SAPC   H5X 5503   6.015   5.572   3.668  0.3720  0.5835 -0.2331
   66SAPC   H5Y 5504   6.155   5.581   3.565  0.2289 -0.2826 -0.3193
   66SAPC   C36 5505   6.107   5.378   3.638 -0.5167  0.7846 -0.4363
   66SAPC   H6X 5506   6.156   5.327   3.552 -2.9891 -1.0178 -0.8833
   66SAPC   H6Y 5507   6.021   5.319   3.676  0.4443  1.1121  2.5287
   66SAPC   C37 5508   6.190   5.386   3.773 -0.4645  0.5171  0.0093
   66SAPC   H7X 5509   6.263   5.469   3.775 -2.0751  2.0513 -1.4822
   66SAPC   H7Y 5510   6.254   5.295   3.783  2.1477  2.3581  1.4563
   66SAPC   C38 5511   6.093   5.410   3.888  0.0798 -0.0486  0.8842
   66SAPC   H8X 5512   6.021   5.325   3.879  0.6336 -0.3723 -0.7907
   66SAPC   H8Y 5513   6.040   5.506   3.872 -0.8625 -0.3713  1.9378
   66SAPC   C39 5514   6.169   5.401   4.025 -0.0253  0.1813  0.3074
   66SAPC   H9X 5515   6.207   5.297   4.032 -1.6263 -0.4527 -0.0474
   66SAPC   H9Y 5516   6.094   5.425   4.102 -0.7127  2.3683 -0.9512
   66SAPC  C310 5517   6.280   5.502   4.043 -0.2894 -0.3262  0.7648
   66SAPC  H10X 5518   6.252   5.608   4.025 -0.9668 -0.7451 -0.8442
   66SAPC  H10Y 5519   6.351   5.468   3.965 -2.1217 -1.7957 -0.3493
   66SAPC  C311 5520   6.347   5.509   4.182  0.0391 -0.2092  0.0786
   66SAPC  H11X 5521   6.418   5.594   4.191 -1.6855  1.2006  0.9594
   66SAPC  H11Y 5522   6.412   5.418   4.182  1.0460  0.4917  0.5984
   66SAPC  C312 5523   6.250   5.522   4.292 -0.2217 -0.0089 -0.2035
   66SAPC  H12X 5524   6.168   5.448   4.292 -0.9833  0.8204  0.4166
   66SAPC  H12Y 5525   6.194   5.616   4.281  1.1582  1.1152  1.6770
   66SAPC  C313 5526   6.320   5.521   4.435 -0.3482  0.3075  0.3231
   66SAPC  H13X 5527   6.412   5.582   4.424 -0.3052 -0.0559 -1.9559
   66SAPC  H13Y 5528   6.352   5.416   4.447  2.1740  1.1272  1.2236
   66SAPC  C314 5529   6.234   5.577   4.554  0.1235 -0.1921  0.0045
   66SAPC  H14X 5530   6.167   5.660   4.525 -0.0917 -0.0698  0.8375
   66SAPC  H14Y 5531   6.298   5.608   4.639 -0.6576  1.2746  0.0822
   66SAPC  C315 5532   6.151   5.459   4.623  1.1524 -0.3369  0.3714
   66SAPC  H15X 5533   6.224   5.377   4.639  1.8308  0.3688  1.0597
   66SAPC  H15Y 5534   6.069   5.425   4.556  1.2658 -0.6962  0.4128
   66SAPC  C316 5535   6.107   5.497   4.771  0.4746 -0.1594  0.8448
   66SAPC  H16X 5536   5.998   5.476   4.763  0.6660 -1.0380  0.4378
   66SAPC  H16Y 5537   6.129   5.604   4.790  0.0476 -0.1908  1.5702
   66SAPC  C317 5538   6.174   5.411   4.879  0.1202 -0.2964 -0.1394
   66SAPC  H17X 5539   6.167   5.303   4.857  1.8914 -0.5567  0.4604
   66SAPC  H17Y 5540   6.109   5.435   4.967  0.3575  0.0021 -0.0401
   66SAPC  C318 5541   6.311   5.468   4.908  0.1669  0.4991  0.0920
   66SAPC  H18X 5542   6.365   5.413   4.987  0.3005  0.2674 -0.1560
   66SAPC  H18Y 5543   6.311   5.578   4.921 -0.5629  0.5286 -0.1430
   66SAPC  H18Z 5544   6.366   5.467   4.811 -0.0995 -0.6076 -0.0621
   67SAPC     N 5545   3.343   5.615   2.110 -0.4760  0.2642 -0.0622
   67SAPC   C12 5546   3.387   5.606   2.256  0.3261  0.2708  0.1887
   67SAPC  H12A 5547   3.306   5.580   2.324  1.2103 -0.4849  0.9792
   67SAPC  H12B 5548   3.424   5.702   2.288 -1.5873  0.8825  0.7019
   67SAPC   C13 5549   3.278   5.481   2.074 -0.7305  0.0465 -0.3624
   67SAPC  H13A 5550   3.247   5.481   1.970  2.9280 -0.3916 -1.6278
   67SAPC  H13B 5551   3.352   5.403   2.080 -1.0853 -0.3203 -0.6964
   67SAPC  H13C 5552   3.199   5.447   2.138  0.2556 -1.8716 -0.0918
   67SAPC   C14 5553   3.247   5.732   2.100  0.1288  0.5241 -0.0027
   67SAPC  H14A 5554   3.290   5.830   2.116  0.1043  0.5807 -0.2735
   67SAPC  H14B 5555   3.208   5.729   1.999 -0.2575  1.7449  0.0859
   67SAPC  H14C 5556   3.162   5.719   2.166 -0.7676  1.2725 -0.9717
   67SAPC   C15 5557   3.470   5.636   2.032 -0.6451 -0.9156 -0.4072
   67SAPC  H15A 5558   3.530   5.546   2.028 -0.0454 -0.5849  0.7554
   67SAPC  H15B 5559   3.440   5.655   1.930 -2.9762  3.5694  0.8484
   67SAPC  H15C 5560   3.521   5.722   2.073 -0.9514 -1.4111  1.0874
   67SAPC   C11 5561   3.499   5.502   2.291  0.2109 -0.1384 -0.0673
   67SAPC  H11A 5562   3.545   5.536   2.386  0.4866  0.6391 -0.4679
   67SAPC  H11B 5563   3.569   5.503   2.205 -2.5062  0.7622 -2.4284
   67SAPC     P 5564   3.531   5.239   2.317 -0.2358 -0.0216 -0.2977
   67SAPC   O13 5565   3.455   5.132   2.385 -0.5604 -0.3260 -0.1825
   67SAPC   O14 5566   3.581   5.208   2.182  0.3721 -0.3265  0.1130
   67SAPC   O12 5567   3.445   5.372   2.313  0.3759  0.2075  0.6589
   67SAPC   O11 5568   3.652   5.305   2.404 -0.3655  1.2190  0.4938
   67SAPC    C1 5569   3.635   5.326   2.545  0.1134  0.3669 -0.3102
   67SAPC    HA 5570   3.689   5.416   2.580  1.2770 -0.2459 -0.4747
   67SAPC    HB 5571   3.526   5.338   2.565 -0.3373 -2.0875 -0.9653
   67SAPC    C2 5572   3.688   5.203   2.625 -0.6261  0.8142  0.2456
   67SAPC    HS 5573   3.622   5.114   2.611  0.7014 -0.1510 -0.0743
   67SAPC   O21 5574   3.697   5.240   2.762 -0.1272 -0.5464 -0.0375
   67SAPC   C21 5575   3.587   5.233   2.826 -0.4188 -0.2229  0.2940
   67SAPC   O22 5576   3.478   5.205   2.780 -0.4916  1.0114 -0.4120
   67SAPC   C22 5577   3.615   5.253   2.973  0.0359  0.2484  0.4922
   67SAPC   H2R 5578   3.710   5.202   2.999 -0.2012  0.4254  1.7709
   67SAPC   H2S 5579   3.636   5.361   2.985  0.9803  0.1399 -0.1441
   67SAPC    C3 5580   3.825   5.151   2.565 -0.2558 -0.6263  0.1087
   67SAPC    HX 5581   3.897   5.234   2.582  0.8249 -1.3800 -0.6528
   67SAPC    HY 5582   3.808   5.142   2.455 -0.7924  0.7140  0.0679
   67SAPC   O31 5583   3.857   5.022   2.613  0.0982 -0.1485  0.3993
   67SAPC   C31 5584   3.964   5.022   2.692 -0.1854  0.6916 -0.2404
   67SAPC   O32 5585   4.027   5.119   2.729  0.5495 -0.2903  0.3211
   67SAPC   C32 5586   3.999   4.874   2.744  0.0875 -0.3880 -0.1258
   67SAPC   H2X 5587   3.954   4.806   2.669 -1.1584  0.0121  0.2317
   67SAPC   H2Y 5588   3.952   4.860   2.844  0.1902 -2.1059 -0.2844
   67SAPC   C23 5589   3.501   5.202   3.061  0.8587 -0.3252 -0.4320
   67SAPC   H3R 5590   3.495   5.092   3.079 -2.3723 -0.1604 -0.0058
   67SAPC   H3S 5591   3.403   5.226   3.014  1.0773 -1.7243 -1.6937
   67SAPC   C24 5592   3.499   5.286   3.197  0.7319 -0.0818  0.2189
   67SAPC   H4R 5593   3.502   5.395   3.176 -2.0067  0.3538  1.7168
   67SAPC   H4S 5594   3.594   5.263   3.250  0.4955 -0.1738  0.6005
   67SAPC   C25 5595   3.392   5.257   3.296  0.5340  0.5134 -1.0674
   67SAPC   H5R 5596   3.292   5.273   3.253  0.3663  1.7765 -0.2920
   67SAPC   C26 5597   3.405   5.224   3.427  1.0520  0.3345  1.2012
   67SAPC   H6R 5598   3.317   5.230   3.493  0.4828 -0.1075  0.4955
   67SAPC   C27 5599   3.529   5.205   3.502  0.0580 -0.0264 -0.3323
   67SAPC   H7R 5600   3.511   5.255   3.599 -0.0329  0.3820 -0.5578
   67SAPC   H7S 5601   3.611   5.255   3.445 -0.0047 -1.5380 -1.8216
   67SAPC   C28 5602   3.558   5.060   3.517  0.3961  0.2016  0.3592
   67SAPC   H8R 5603   3.572   5.022   3.415 -1.2335 -0.7097  0.4439
   67SAPC   C29 5604   3.564   4.979   3.622 -0.2259  0.0754  0.0402
   67SAPC   H9R 5605   3.576   4.870   3.616 -1.1547 -0.0246 -0.1064
   67SAPC  C210 5606   3.534   5.031   3.763 -0.2827 -0.3609  0.2248
   67SAPC  H10R 5607   3.513   4.945   3.831 -1.3125  0.1263  0.5433
   67SAPC  H10S 5608   3.447   5.099   3.775 -0.2540 -0.2270 -0.3195
   67SAPC  C211 5609   3.656   5.101   3.818  0.3926  0.0885 -0.4018
   67SAPC  H11R 5610   3.679   5.197   3.769 -1.9833  1.1155  0.3190
   67SAPC  C212 5611   3.716   5.081   3.937 -0.3743 -0.0677  0.0579
   67SAPC  H12R 5612   3.790   5.154   3.972  1.1043 -0.1791 -2.5578
   67SAPC  C213 5613   3.690   4.961   4.020  0.3082  0.5415 -0.5934
   67SAPC  H13R 5614   3.583   4.932   4.016  0.7208 -1.2378  0.0692
   67SAPC  H13S 5615   3.722   4.988   4.123 -0.5134 -0.8224  0.0610
   67SAPC  C214 5616   3.768   4.836   3.974  0.1368  0.5664  0.0219
   67SAPC  H14R 5617   3.759   4.820   3.866  2.1369  0.1907 -0.1163
   67SAPC  C215 5618   3.830   4.735   4.039 -0.2165  0.2382 -0.1075
   67SAPC  H15R 5619   3.871   4.651   3.981  1.8721  1.0234  0.1240
   67SAPC  C216 5620   3.857   4.731   4.185  0.1522  0.0220 -0.1250
   67SAPC  H16R 5621   3.858   4.627   4.223  2.0114  0.9645  2.7624
   67SAPC  H16S 5622   3.768   4.776   4.235  0.3584  2.5536 -1.8792
   67SAPC  C217 5623   3.997   4.795   4.217 -0.2925  0.8876  0.3078
   67SAPC  H17R 5624   4.007   4.894   4.167  1.1038  1.2003  1.1452
   67SAPC  H17S 5625   4.070   4.731   4.163 -0.3997 -0.2715  1.4956
   67SAPC  C218 5626   4.031   4.792   4.369  0.5509  0.1381  0.6285
   67SAPC  H18R 5627   4.022   4.685   4.397  0.1842  0.0253  0.1042
   67SAPC  H18S 5628   3.947   4.851   4.411 -0.6462 -0.9343 -0.1732
   67SAPC  C219 5629   4.164   4.850   4.407  0.2571  0.2264 -0.3130
   67SAPC  H19R 5630   4.174   4.955   4.372  0.4831  0.0827 -0.6778
   67SAPC  H19S 5631   4.256   4.804   4.367 -0.5139 -2.0391  0.4005
   67SAPC  C220 5632   4.184   4.843   4.557 -0.4173 -0.1242  0.2790
   67SAPC  H20R 5633   4.172   4.741   4.600 -1.8354 -0.0133  0.1857
   67SAPC  H20S 5634   4.109   4.899   4.618  0.3458 -0.7477  1.8645
   67SAPC  H20T 5635   4.282   4.888   4.583  0.2476  1.0232 -3.6622
   67SAPC   C33 5636   4.152   4.860   2.760  0.1223 -0.3217 -0.5865
   67SAPC   H3X 5637   4.205   4.902   2.672 -0.5918 -0.0878 -0.9143
   67SAPC   H3Y 5638   4.180   4.753   2.765  1.2680 -0.0490 -0.9029
   67SAPC   C34 5639   4.208   4.931   2.889  0.4203  0.0307  0.2213
   67SAPC   H4X 5640   4.184   5.039   2.883  0.0872 -0.1382 -2.1143
   67SAPC   H4Y 5641   4.318   4.918   2.885  0.3916 -0.5815  1.1140
   67SAPC   C35 5642   4.155   4.884   3.023  0.1437  0.0072 -0.1004
   67SAPC   H5X 5643   4.175   4.776   3.041 -2.5370 -0.9099 -1.9125
   67SAPC   H5Y 5644   4.044   4.894   3.022 -0.3486 -3.8788 -1.3244
   67SAPC   C36 5645   4.209   4.947   3.150  0.1919 -0.2615 -0.1676
   67SAPC   H6X 5646   4.137   4.932   3.233 -0.7134 -1.4576 -1.1337
   67SAPC   H6Y 5647   4.231   5.054   3.130 -1.8561  0.5219  1.4070
   67SAPC   C37 5648   4.340   4.879   3.203 -0.6678 -0.2498 -0.6564
   67SAPC   H7X 5649   4.421   4.890   3.127 -0.7896 -0.3133 -0.7956
   67SAPC   H7Y 5650   4.319   4.770   3.200 -1.1687 -0.1961 -4.7064
   67SAPC   C38 5651   4.387   4.938   3.331  0.1115 -0.4270 -0.3489
   67SAPC   H8X 5652   4.300   4.941   3.400  0.1348  1.9410 -0.3346
   67SAPC   H8Y 5653   4.416   5.044   3.313 -0.6045  0.2552  2.0957
   67SAPC   C39 5654   4.516   4.870   3.389  0.1008  0.0503 -0.4741
   67SAPC   H9X 5655   4.593   4.862   3.309  1.5869  0.0990  0.8854
   67SAPC   H9Y 5656   4.486   4.772   3.431  3.3467 -1.4385 -1.2686
   67SAPC  C310 5657   4.583   4.952   3.496 -0.0147 -0.4823  0.3999
   67SAPC  H10X 5658   4.511   4.963   3.581  0.0419  1.9057  0.2225
   67SAPC  H10Y 5659   4.598   5.056   3.460 -0.3619 -0.1693  1.1258
   67SAPC  C311 5660   4.713   4.898   3.545 -0.3393 -0.1216  0.2500
   67SAPC  H11X 5661   4.806   4.954   3.521 -0.3904  0.8480  2.1051
   67SAPC  H11Y 5662   4.724   4.789   3.529 -0.0395 -0.0023 -0.3786
   67SAPC  C312 5663   4.701   4.898   3.705 -0.1099 -0.1889  0.6128
   67SAPC  H12X 5664   4.619   4.830   3.736 -0.7184  0.9080  1.4419
   67SAPC  H12Y 5665   4.678   5.001   3.740  0.9851  0.7041 -1.1315
   67SAPC  C313 5666   4.837   4.868   3.770 -0.0055  0.3825  0.2334
   67SAPC  H13X 5667   4.916   4.941   3.747  2.6224 -2.5026 -0.5793
   67SAPC  H13Y 5668   4.876   4.768   3.741 -2.3852 -1.2023  2.0550
   67SAPC  C314 5669   4.826   4.860   3.924  0.2971 -0.0130  0.0349
   67SAPC  H14X 5670   4.744   4.791   3.954 -0.6308  0.9930 -0.0957
   67SAPC  H14Y 5671   4.796   4.963   3.953  1.6641  0.9483 -1.7679
   67SAPC  C315 5672   4.951   4.825   4.000  0.2967 -0.3737  0.4434
   67SAPC  H15X 5673   5.027   4.896   3.960 -0.3894  1.1869  1.8043
   67SAPC  H15Y 5674   4.985   4.722   3.979  2.7988  0.0997  1.7639
   67SAPC  C316 5675   4.953   4.854   4.152  0.0313 -0.1982 -0.2489
   67SAPC  H16X 5676   4.870   4.798   4.200  0.3477 -0.3265  0.1556
   67SAPC  H16Y 5677   4.926   4.961   4.159 -2.2400 -0.7277  0.0033
   67SAPC  C317 5678   5.085   4.816   4.229  0.1226 -0.3008  0.4019
   67SAPC  H17X 5679   5.155   4.899   4.204 -0.8674  0.9240  1.5087
   67SAPC  H17Y 5680   5.110   4.715   4.192  0.8636 -0.2825  0.8233
   67SAPC  C318 5681   5.062   4.797   4.373 -0.0364 -0.0002 -0.5182
   67SAPC  H18X 5682   4.985   4.720   4.393  0.5166 -0.0771  1.5754
   67SAPC  H18Y 5683   5.019   4.888   4.420 -0.6603 -0.5121 -0.0825
   67SAPC  H18Z 5684   5.155   4.758   4.419 -0.1326  0.2040 -0.1477
   68SAPC     N 5685   1.200   6.283   2.580 -0.4278 -0.5100 -0.7115
   68SAPC   C12 5686   1.082   6.191   2.618 -0.0330 -0.0250 -0.9014
   68SAPC  H12A 5687   1.122   6.128   2.696  3.8532 -1.6120 -3.8592
   68SAPC  H12B 5688   1.060   6.115   2.544  1.8067  0.2027 -1.7348
   68SAPC   C13 5689   1.232   6.388   2.684  0.1621  0.0907  0.2280
   68SAPC  H13A 5690   1.245   6.338   2.779 -1.3466 -1.9064 -0.5354
   68SAPC  H13B 5691   1.322   6.446   2.669  0.7148 -0.6328  0.6604
   68SAPC  H13C 5692   1.156   6.465   2.685  1.0132  0.9744 -0.6872
   68SAPC   C14 5693   1.327   6.196   2.564  0.5285  0.0591  0.3111
   68SAPC  H14A 5694   1.358   6.134   2.646  2.2029  1.2976  0.6647
   68SAPC  H14B 5695   1.315   6.127   2.481  0.1073  0.7185 -0.1884
   68SAPC  H14C 5696   1.407   6.258   2.528  0.5717  0.1295  0.5295
   68SAPC   C15 5697   1.178   6.341   2.450  0.0584 -0.0456 -0.1028
   68SAPC  H15A 5698   1.142   6.269   2.378 -2.0173 -0.5623  1.3767
   68SAPC  H15B 5699   1.107   6.422   2.449  1.3660  1.1404 -1.6604
   68SAPC  H15C 5700   1.265   6.379   2.399  1.2121 -2.2302  0.0998
   68SAPC   C11 5701   0.950   6.265   2.668  0.3535  0.7266  0.6614
   68SAPC  H11A 5702   0.969   6.374   2.684 -1.1028  0.7816  2.2668
   68SAPC  H11B 5703   0.921   6.216   2.763  0.9214 -0.8523  0.0570
   68SAPC     P 5704   0.784   6.123   2.518  0.1556  0.0764 -0.0173
   68SAPC   O13 5705   0.663   6.163   2.445 -0.3780 -0.2453 -0.0541
   68SAPC   O14 5706   0.886   6.042   2.455 -0.1454 -0.6815 -0.4272
   68SAPC   O12 5707   0.852   6.255   2.567 -0.1599  0.0631 -0.4248
   68SAPC   O11 5708   0.742   6.056   2.656 -0.5348 -0.2562  0.2400
   68SAPC    C1 5709   0.615   6.090   2.713 -0.5263  0.8070 -0.1226
   68SAPC    HA 5710   0.538   6.124   2.641  0.4672 -1.1400 -2.2426
   68SAPC    HB 5711   0.575   5.993   2.749  0.4945  0.6276  0.5586
   68SAPC    C2 5712   0.638   6.195   2.824  0.4598  0.6053 -0.4088
   68SAPC    HS 5713   0.689   6.283   2.779 -0.4792  2.0236  1.1795
   68SAPC   O21 5714   0.730   6.133   2.914 -0.3988  0.2927  0.0133
   68SAPC   C21 5715   0.783   6.206   3.013 -0.6839 -0.5016 -0.1575
   68SAPC   O22 5716   0.769   6.325   3.030 -0.1528  0.0222  0.2625
   68SAPC   C22 5717   0.879   6.117   3.078 -1.1260 -0.4393 -0.5228
   68SAPC   H2R 5718   0.861   6.008   3.076  1.8619 -1.0522  0.8391
   68SAPC   H2S 5719   0.978   6.130   3.029 -1.0876 -0.8576 -0.5564
   68SAPC    C3 5720   0.508   6.238   2.892  0.0342 -0.2161 -0.1063
   68SAPC    HX 5721   0.438   6.251   2.806 -1.6356  1.2031  1.3776
   68SAPC    HY 5722   0.523   6.339   2.935 -0.3386 -0.0554 -0.3419
   68SAPC   O31 5723   0.457   6.148   2.989 -0.6991 -0.1520 -0.3233
   68SAPC   C31 5724   0.336   6.106   2.973 -0.3412  0.1061  0.0513
   68SAPC   O32 5725   0.274   6.098   2.866 -0.6958  0.2625  0.5260
   68SAPC   C32 5726   0.277   6.055   3.104  0.3676 -0.2100 -0.5373
   68SAPC   H2X 5727   0.309   5.949   3.119  1.6033  0.2572  0.2908
   68SAPC   H2Y 5728   0.166   6.060   3.106  0.3518 -0.4220  1.5689
   68SAPC   C23 5729   0.893   6.151   3.227  0.2376  0.4896 -0.3945
   68SAPC   H3R 5730   0.787   6.148   3.261 -0.2651  0.8419 -1.8832
   68SAPC   H3S 5731   0.919   6.257   3.248  1.9448 -0.1028  0.7469
   68SAPC   C24 5732   0.983   6.061   3.307 -0.2636  0.1844  0.6775
   68SAPC   H4R 5733   0.965   5.953   3.292  0.6596 -0.0718  1.2928
   68SAPC   H4S 5734   0.952   6.078   3.412  1.2164  0.6981  1.0640
   68SAPC   C25 5735   1.131   6.089   3.292  0.8291 -0.3784  0.1072
   68SAPC   H5R 5736   1.166   6.189   3.261  2.4789 -0.5052  1.4252
   68SAPC   C26 5737   1.231   6.005   3.323  0.6736 -0.6101  0.0744
   68SAPC   H6R 5738   1.335   6.030   3.297  1.0186 -1.1230  0.9203
   68SAPC   C27 5739   1.209   5.879   3.399 -0.4069 -0.3259 -0.5168
   68SAPC   H7R 5740   1.195   5.798   3.325  0.1179 -2.1547  1.3145
   68SAPC   H7S 5741   1.111   5.875   3.452 -0.5951 -0.1474 -0.8455
   68SAPC   C28 5742   1.325   5.863   3.493 -0.9440  0.2372 -0.1056
   68SAPC   H8R 5743   1.415   5.863   3.430 -1.1088  0.3223 -0.3431
   68SAPC   C29 5744   1.348   5.864   3.626 -0.2414 -0.9519 -0.2262
   68SAPC   H9R 5745   1.445   5.825   3.659  0.7126 -0.2824 -2.1323
   68SAPC  C210 5746   1.241   5.880   3.731 -0.3864  0.0787  0.8671
   68SAPC  H10R 5747   1.294   5.850   3.824 -1.4595  1.0715  1.8515
   68SAPC  H10S 5748   1.156   5.814   3.705  1.6029 -1.2478 -2.9109
   68SAPC  C211 5749   1.169   6.009   3.741  0.1139 -0.6704 -0.0988
   68SAPC  H11R 5750   1.167   6.071   3.650 -1.7494 -1.6546 -0.7900
   68SAPC  C212 5751   1.112   6.051   3.853  0.0884  0.4792 -0.6978
   68SAPC  H12R 5752   1.058   6.147   3.855 -1.2678 -0.1960 -2.1867
   68SAPC  C213 5753   1.107   5.981   3.990 -0.4744  0.4333 -0.3222
   68SAPC  H13R 5754   1.199   5.922   4.014  0.6075  1.7220 -1.1098
   68SAPC  H13S 5755   1.022   5.910   3.993  0.5232 -0.7828  1.1988
   68SAPC  C214 5756   1.070   6.080   4.103  0.1313  0.1002 -0.5329
   68SAPC  H14R 5757   1.048   6.184   4.074  1.6436  0.8876  0.9812
   68SAPC  C215 5758   1.061   6.050   4.240  0.2017  0.2030  0.3761
   68SAPC  H15R 5759   1.051   6.141   4.301 -1.4070  1.8669 -2.1748
   68SAPC  C216 5760   1.089   5.928   4.311 -0.1772  0.4948  0.1850
   68SAPC  H16R 5761   1.111   5.838   4.249 -1.7031  0.3767 -0.2252
   68SAPC  H16S 5762   0.998   5.890   4.362 -0.2458  2.4565  1.6403
   68SAPC  C217 5763   1.211   5.942   4.406  0.4177 -0.1201 -1.0769
   68SAPC  H17R 5764   1.201   5.866   4.486  2.8479  1.3187  0.7369
   68SAPC  H17S 5765   1.200   6.042   4.455 -1.9662 -0.4095 -0.9152
   68SAPC  C218 5766   1.347   5.939   4.339  0.3034  0.5031 -0.1401
   68SAPC  H18R 5767   1.356   6.021   4.265 -0.2665  0.8789  0.1938
   68SAPC  H18S 5768   1.359   5.842   4.286 -1.1160 -1.2078  2.4046
   68SAPC  C219 5769   1.464   5.956   4.437 -0.5909  0.1347 -0.5070
   68SAPC  H19R 5770   1.468   5.864   4.500 -0.8512 -0.5398 -1.4363
   68SAPC  H19S 5771   1.439   6.050   4.489 -0.4899  0.1587 -0.5024
   68SAPC  C220 5772   1.594   5.959   4.362 -0.9245  0.2541 -0.2172
   68SAPC  H20R 5773   1.585   6.022   4.271 -0.0773 -1.1521 -1.3253
   68SAPC  H20S 5774   1.629   5.858   4.332  2.7176  1.4803 -0.7248
   68SAPC  H20T 5775   1.674   6.006   4.424 -1.5593  1.4838 -0.3033
   68SAPC   C33 5776   0.322   6.135   3.220 -0.1321  0.0341 -0.2461
   68SAPC   H3X 5777   0.266   6.230   3.217 -0.7186 -0.2081  1.5646
   68SAPC   H3Y 5778   0.432   6.155   3.215 -0.2540  0.4614 -1.8912
   68SAPC   C34 5779   0.295   6.068   3.352 -0.3544  0.2688  0.2809
   68SAPC   H4X 5780   0.343   5.968   3.354  1.6597  1.1851 -0.1795
   68SAPC   H4Y 5781   0.184   6.065   3.355 -0.3310  0.3840  1.9558
   68SAPC   C35 5782   0.330   6.147   3.471  0.2030  0.4829 -0.1177
   68SAPC   H5X 5783   0.268   6.239   3.471 -1.3454 -0.5044 -1.7431
   68SAPC   H5Y 5784   0.432   6.191   3.461  0.9294 -0.8698  0.9544
   68SAPC   C36 5785   0.295   6.075   3.607  0.4409  0.2077 -0.4966
   68SAPC   H6X 5786   0.335   6.134   3.693 -2.0226 -1.0883  1.6510
   68SAPC   H6Y 5787   0.346   5.977   3.607 -0.1439 -0.0986 -0.3102
   68SAPC   C37 5788   0.142   6.060   3.614  0.1550 -0.4391  0.3606
   68SAPC   H7X 5789   0.105   6.017   3.519  1.3420 -1.3339  0.2844
   68SAPC   H7Y 5790   0.107   6.165   3.624  4.1000  1.1922 -1.0541
   68SAPC   C38 5791   0.100   5.963   3.726  0.7266 -0.1061  0.1258
   68SAPC   H8X 5792   0.079   5.863   3.683  1.1452  0.0998 -0.5733
   68SAPC   H8Y 5793   0.004   6.006   3.762  0.4558  1.0083 -1.8103
   68SAPC   C39 5794   0.193   5.939   3.844  0.5694  0.2396 -0.5692
   68SAPC   H9X 5795   0.225   6.037   3.887 -0.9504  0.0304  1.1855
   68SAPC   H9Y 5796   0.285   5.882   3.818  0.9358  0.1466  0.8396
   68SAPC  C310 5797   0.118   5.868   3.961  0.5356  0.3683 -0.1264
   68SAPC  H10X 5798   0.075   5.776   3.918  1.7803 -1.3526  2.0964
   68SAPC  H10Y 5799   0.041   5.939   3.998  0.2831 -0.8387  1.7580
   68SAPC  C311 5800   0.196   5.823   4.083  0.2718  0.0588  0.0580
   68SAPC  H11X 5801   0.283   5.769   4.040 -0.9338 -0.2457 -2.1083
   68SAPC  H11Y 5802   0.135   5.762   4.152 -1.2384 -0.9079 -2.0387
   68SAPC  C312 5803   0.216   5.953   4.164  0.1436  0.7819 -0.0704
   68SAPC  H12X 5804   0.119   5.972   4.213 -0.3494 -1.5652 -0.0071
   68SAPC  H12Y 5805   0.249   6.038   4.100  2.8801 -0.9628 -1.1825
   68SAPC  C313 5806   0.321   5.936   4.280 -0.8093 -0.0812 -0.3273
   68SAPC  H13X 5807   0.322   6.033   4.333 -1.1812  1.1889 -2.5192
   68SAPC  H13Y 5808   0.414   5.935   4.219 -0.1447  1.4111  0.6288
   68SAPC  C314 5809   0.312   5.815   4.375 -0.4755 -0.4112  0.2241
   68SAPC  H14X 5810   0.352   5.724   4.326  1.0715  1.0481 -1.3404
   68SAPC  H14Y 5811   0.201   5.810   4.383 -0.9120  2.4143 -2.2800
   68SAPC  C315 5812   0.395   5.849   4.506 -0.0902  0.1710 -0.1234
   68SAPC  H15X 5813   0.363   5.951   4.535  0.2372  0.4089 -0.5761
   68SAPC  H15Y 5814   0.502   5.864   4.480 -0.6815  1.2872 -2.0705
   68SAPC  C316 5815   0.384   5.755   4.627 -0.2708  0.4400 -0.5941
   68SAPC  H16X 5816   0.279   5.721   4.636 -1.3444  3.3792 -0.9802
   68SAPC  H16Y 5817   0.414   5.804   4.722 -0.4019  1.4715 -1.0832
   68SAPC  C317 5818   0.477   5.635   4.607 -0.3422  0.2984  0.8785
   68SAPC  H17X 5819   0.578   5.673   4.580 -0.1654 -1.8188 -1.8811
   68SAPC  H17Y 5820   0.447   5.571   4.521  1.2353  0.1107  0.4286
   68SAPC  C318 5821   0.477   5.538   4.731 -0.1523  0.5608  0.4964
   68SAPC  H18X 5822   0.521   5.591   4.819  1.9604  1.7659 -1.1775
   68SAPC  H18Y 5823   0.524   5.440   4.710  0.8001  0.9823  0.6148
   68SAPC  H18Z 5824   0.374   5.507   4.760 -0.2907  0.1043 -0.4526
   69SAPC     N 5825   0.316   4.156   2.379 -0.3672  0.8103 -0.5309
   69SAPC   C12 5826   0.183   4.077   2.388  0.0837 -0.5015  0.4944
   69SAPC  H12A 5827   0.193   3.977   2.348 -1.5540 -0.0866 -1.0504
   69SAPC  H12B 5828   0.111   4.134   2.332 -2.7207 -0.1121  4.1251
   69SAPC   C13 5829   0.426   4.103   2.474 -0.7793  0.1461 -0.7166
   69SAPC  H13A 5830   0.504   4.177   2.487 -0.2295 -0.0601 -2.5266
   69SAPC  H13B 5831   0.380   4.075   2.567  1.9228 -1.6269  0.1965
   69SAPC  H13C 5832   0.471   4.011   2.440 -0.1033 -0.0417  0.6019
   69SAPC   C14 5833   0.378   4.143   2.236 -0.5650  0.2822 -0.4542
   69SAPC  H14A 5834   0.459   4.213   2.228 -1.4374  1.1037 -3.7159
   69SAPC  H14B 5835   0.416   4.041   2.236 -0.6836  0.1787  2.2116
   69SAPC  H14C 5836   0.315   4.169   2.152 -1.8919  2.0876  1.0179
   69SAPC   C15 5837   0.296   4.296   2.401 -0.2726  0.4172  0.0813
   69SAPC  H15A 5838   0.395   4.339   2.405 -0.2439  0.3674 -0.0947
   69SAPC  H15B 5839   0.245   4.341   2.317  0.2309  0.0086 -0.4474
   69SAPC  H15C 5840   0.243   4.334   2.487 -3.3644 -1.6772 -0.7543
   69SAPC   C11 5841   0.117   4.070   2.530 -0.1243 -0.3853  0.0803
   69SAPC  H11A 5842   0.009   4.048   2.523  0.1866 -2.3173  0.7503
   69SAPC  H11B 5843   0.109   4.171   2.576  2.4537 -0.5121  0.9603
   69SAPC     P 5844   0.148   3.816   2.597 -0.1163  0.3736  0.6459
   69SAPC   O13 5845   0.161   3.790   2.458  0.3556 -0.3529 -0.2361
   69SAPC   O14 5846   0.234   3.732   2.684  0.1322 -0.5588  0.0731
   69SAPC   O12 5847   0.174   3.976   2.622 -0.2153  0.4913 -0.1724
   69SAPC   O11 5848  -0.000   3.813   2.627 -0.5254 -0.2730  0.8348
   69SAPC    C1 5849  -0.050   3.858   2.755 -0.2684 -0.1747  0.2978
   69SAPC    HA 5850  -0.022   3.965   2.770 -1.3219  0.5122 -2.1936
   69SAPC    HB 5851  -0.160   3.867   2.743 -0.5470  0.9824  3.0300
   69SAPC    C2 5852  -0.018   3.766   2.871 -0.1752 -0.6171 -0.5261
   69SAPC    HS 5853   0.089   3.778   2.898 -0.7844 -1.3436  2.7007
   69SAPC   O21 5854  -0.062   3.633   2.844  0.1743  0.0936 -0.4348
   69SAPC   C21 5855   0.004   3.535   2.907  0.0186  1.0088 -0.0289
   69SAPC   O22 5856   0.109   3.563   2.971  0.3925  0.2862  0.0647
   69SAPC   C22 5857  -0.041   3.393   2.864  0.7971  0.9222 -0.4656
   69SAPC   H2R 5858  -0.087   3.378   2.764 -0.4476  0.5857  0.1371
   69SAPC   H2S 5859   0.055   3.337   2.858 -0.4882 -1.6356  0.9721
   69SAPC    C3 5860  -0.100   3.809   2.998 -0.1078 -0.3615  0.3209
   69SAPC    HX 5861  -0.209   3.806   2.979  0.1140  0.1692 -1.1746
   69SAPC    HY 5862  -0.094   3.916   3.027 -2.1745  0.1238 -0.8365
   69SAPC   O31 5863  -0.075   3.727   3.108  0.1739  0.3859  0.3368
   69SAPC   C31 5864   0.024   3.768   3.184  0.1171  0.3129  0.5850
   69SAPC   O32 5865   0.087   3.868   3.167 -0.0114 -0.2862 -0.0739
   69SAPC   C32 5866   0.047   3.673   3.306  0.4930 -0.3455  0.0217
   69SAPC   H2X 5867   0.156   3.650   3.305  0.4686 -0.7073 -2.8112
   69SAPC   H2Y 5868  -0.015   3.582   3.289 -0.9641  0.4490  0.8569
   69SAPC   C23 5869  -0.125   3.317   2.967  0.0637  0.2305  0.4440
   69SAPC   H3R 5870  -0.104   3.351   3.070 -1.3075  1.3742  0.3713
   69SAPC   H3S 5871  -0.097   3.209   2.963 -0.6079  0.0812 -0.8891
   69SAPC   C24 5872  -0.277   3.325   2.954  0.7032  0.4954  0.1285
   69SAPC   H4R 5873  -0.320   3.241   3.012  2.7321  0.4201  1.6293
   69SAPC   H4S 5874  -0.309   3.304   2.850 -2.0705  1.2116  0.7442
   69SAPC   C25 5875  -0.326   3.456   2.997 -0.1638  0.1846  0.3923
   69SAPC   H5R 5876  -0.280   3.530   2.931 -0.4091 -0.5104 -0.5759
   69SAPC   C26 5877  -0.424   3.484   3.080  0.4371 -0.4465 -0.2743
   69SAPC   H6R 5878  -0.440   3.591   3.101  1.8051  0.1321 -1.9808
   69SAPC   C27 5879  -0.483   3.397   3.191  1.0101 -0.9886 -0.5043
   69SAPC   H7R 5880  -0.520   3.301   3.149  1.8018 -1.7011  0.3689
   69SAPC   H7S 5881  -0.563   3.450   3.247  0.2744 -1.0499 -1.4740
   69SAPC   C28 5882  -0.378   3.358   3.290 -0.5548  0.1795 -0.1052
   69SAPC   H8R 5883  -0.311   3.276   3.261 -0.6527 -0.3173  1.0190
   69SAPC   C29 5884  -0.349   3.421   3.405  0.4911  0.3162  0.1340
   69SAPC   H9R 5885  -0.257   3.396   3.461 -0.7994  0.0495  2.2478
   69SAPC  C210 5886  -0.422   3.536   3.469  0.1988 -0.0798  0.1625
   69SAPC  H10R 5887  -0.468   3.609   3.398 -0.7366  0.7305  1.5495
   69SAPC  H10S 5888  -0.343   3.586   3.529  0.8587 -0.9555  0.0348
   69SAPC  C211 5889  -0.535   3.489   3.554 -0.9361 -0.0472 -0.0236
   69SAPC  H11R 5890  -0.622   3.480   3.487  0.7340 -0.5950 -2.1970
   69SAPC  C212 5891  -0.540   3.454   3.687  0.1620  0.2868 -0.6171
   69SAPC  H12R 5892  -0.637   3.415   3.721  0.6379  0.2844  0.7970
   69SAPC  C213 5893  -0.425   3.444   3.786 -1.0915  0.1910  0.0243
   69SAPC  H13R 5894  -0.335   3.438   3.721 -1.6453  1.2519 -0.8608
   69SAPC  H13S 5895  -0.432   3.343   3.832  0.7973 -0.8988 -1.9043
   69SAPC  C214 5896  -0.407   3.550   3.892  0.6036 -0.5088 -0.0591
   69SAPC  H14R 5897  -0.395   3.648   3.844  0.1868  0.3173  1.4306
   69SAPC  C215 5898  -0.393   3.538   4.023  0.0638  1.0188 -0.7404
   69SAPC  H15R 5899  -0.406   3.632   4.079 -1.1764  0.5235 -0.1484
   69SAPC  C216 5900  -0.404   3.413   4.107  0.0780 -0.1515 -0.6028
   69SAPC  H16R 5901  -0.303   3.409   4.153 -0.2507 -0.0037  0.1317
   69SAPC  H16S 5902  -0.443   3.324   4.051 -3.9012  0.9237  0.1576
   69SAPC  C217 5903  -0.505   3.435   4.217 -0.3160 -0.3602  0.7785
   69SAPC  H17R 5904  -0.535   3.337   4.259  0.7979 -1.3029 -0.5220
   69SAPC  H17S 5905  -0.599   3.472   4.172  0.0660  0.7647  0.8554
   69SAPC  C218 5906  -0.454   3.523   4.336  1.0609 -0.5145 -0.3629
   69SAPC  H18R 5907  -0.437   3.627   4.303  0.4486  0.1769  1.3451
   69SAPC  H18S 5908  -0.353   3.498   4.376  0.8358  0.2495  0.7210
   69SAPC  C219 5909  -0.544   3.516   4.463  1.0239 -0.2116 -0.1734
   69SAPC  H19R 5910  -0.645   3.559   4.441  1.8149  2.0788  0.3783
   69SAPC  H19S 5911  -0.497   3.582   4.538  1.8211  1.2201 -1.8714
   69SAPC  C220 5912  -0.560   3.385   4.537 -0.0267  0.9433  0.1380
   69SAPC  H20R 5913  -0.610   3.403   4.635  2.2004  1.6057  1.2086
   69SAPC  H20S 5914  -0.463   3.334   4.551 -0.2535  0.5801  0.4350
   69SAPC  H20T 5915  -0.631   3.327   4.475  0.8967 -0.8218  0.6705
   69SAPC   C33 5916  -0.001   3.751   3.434 -0.2577  0.4751  0.1805
   69SAPC   H3X 5917  -0.098   3.798   3.407 -0.5330 -0.6931 -0.9972
   69SAPC   H3Y 5918   0.076   3.830   3.446  0.9068 -0.4806 -0.6447
   69SAPC   C34 5919  -0.031   3.660   3.556 -0.7943  0.2607  0.2861
   69SAPC   H4X 5920   0.054   3.590   3.571 -1.5127 -1.0007 -1.2507
   69SAPC   H4Y 5921  -0.124   3.602   3.541  1.1014 -2.7551 -0.7558
   69SAPC   C35 5922  -0.027   3.747   3.685  0.9844 -0.2295 -0.3486
   69SAPC   H5X 5923  -0.116   3.812   3.695  1.3800  0.1658  0.8616
   69SAPC   H5Y 5924   0.071   3.800   3.681  1.3013 -0.6818  0.8029
   69SAPC   C36 5925  -0.047   3.661   3.820 -0.3185 -0.4384  0.1243
   69SAPC   H6X 5926   0.040   3.593   3.837  1.0910  1.2392 -0.0474
   69SAPC   H6Y 5927  -0.136   3.595   3.819 -0.1177 -0.7734  2.0456
   69SAPC   C37 5928  -0.049   3.758   3.936 -0.2720 -0.4191 -0.1696
   69SAPC   H7X 5929  -0.136   3.827   3.930  1.1464  1.6779  1.7875
   69SAPC   H7Y 5930   0.041   3.822   3.934 -0.1952 -0.4011  1.5831
   69SAPC   C38 5931  -0.063   3.675   4.063  0.7836  0.1060 -0.4883
   69SAPC   H8X 5932   0.036   3.628   4.081  0.6853 -0.0654 -0.4022
   69SAPC   H8Y 5933  -0.132   3.590   4.047  0.3023  0.1702  1.0825
   69SAPC   C39 5934  -0.115   3.757   4.179 -0.2336  0.3971 -0.4833
   69SAPC   H9X 5935  -0.217   3.798   4.164  0.2687  1.0466 -2.2585
   69SAPC   H9Y 5936  -0.050   3.846   4.174 -2.1140  1.7719 -2.0600
   69SAPC  C310 5937  -0.101   3.669   4.302 -0.9328 -0.0886 -0.0784
   69SAPC  H10X 5938   0.008   3.657   4.320 -1.1379  1.1343  2.4203
   69SAPC  H10Y 5939  -0.151   3.571   4.289 -0.3266 -0.5946  1.2493
   69SAPC  C311 5940  -0.165   3.731   4.423 -0.1173  0.0260  0.1683
   69SAPC  H11X 5941  -0.161   3.656   4.506 -1.5665  0.3987  0.6122
   69SAPC  H11Y 5942  -0.274   3.744   4.405 -0.8088 -2.8684  1.6462
   69SAPC  C312 5943  -0.096   3.854   4.477  0.5281 -0.2904  0.2234
   69SAPC  H12X 5944  -0.139   3.945   4.431 -2.2525 -1.4021  0.4467
   69SAPC  H12Y 5945   0.011   3.861   4.447  0.5871  1.9300  0.7824
   69SAPC  C313 5946  -0.109   3.859   4.631 -0.0325 -0.2022 -0.5456
   69SAPC  H13X 5947  -0.033   3.927   4.674 -0.8588  0.4494 -0.0940
   69SAPC  H13Y 5948  -0.076   3.764   4.679 -1.3443  0.2762  1.4152
   69SAPC  C314 5949  -0.249   3.903   4.678 -0.3691 -0.8566  0.2560
   69SAPC  H14X 5950  -0.328   3.830   4.649 -0.6927 -0.5053  0.2512
   69SAPC  H14Y 5951  -0.266   3.999   4.626  1.2138 -0.0226  1.2156
   69SAPC  C315 5952  -0.267   3.924   4.829  0.2405 -0.7006 -0.2320
   69SAPC  H15X 5953  -0.224   4.022   4.857 -1.5301  0.1955 -0.5197
   69SAPC  H15Y 5954  -0.218   3.837   4.879  0.7395 -0.6108 -0.5575
   69SAPC  C316 5955  -0.410   3.926   4.868  0.9095 -0.1881  0.0341
   69SAPC  H16X 5956  -0.445   3.823   4.849  0.8997 -0.6170  2.0766
   69SAPC  H16Y 5957  -0.460   3.998   4.799  2.9213 -0.1454 -1.4478
   69SAPC  C317 5958  -0.444   3.968   5.013 -0.3777 -0.5329  0.3206
   69SAPC  H17X 5959  -0.373   3.903   5.068 -0.6829 -0.6271  0.6134
   69SAPC  H17Y 5960  -0.551   3.942   5.029 -0.4543 -1.0275 -0.8604
   69SAPC  C318 5961  -0.416   4.109   5.055 -0.0717  0.1590 -0.4188
   69SAPC  H18X 5962  -0.440   4.140   5.159 -0.3050  1.0759 -0.7373
   69SAPC  H18Y 5963  -0.472   4.174   4.984 -3.0806 -0.2457  1.4205
   69SAPC  H18Z 5964  -0.309   4.139   5.045 -0.4767  2.7268  1.6792
   70SAPC     N 5965   2.298   6.164   2.019  0.2934  0.1880 -0.2863
   70SAPC   C12 5966   2.238   6.307   2.032  0.5925  0.1524  0.1840
   70SAPC  H12A 5967   2.228   6.337   1.929  0.0352 -1.1935 -0.1854
   70SAPC  H12B 5968   2.304   6.362   2.098  3.8910 -1.5990 -1.3792
   70SAPC   C13 5969   2.438   6.170   1.970 -0.3808  0.2943 -0.2557
   70SAPC  H13A 5970   2.487   6.235   2.041 -1.4367  1.1471 -0.2820
   70SAPC  H13B 5971   2.484   6.072   1.967 -1.0845 -0.0293 -1.1151
   70SAPC  H13C 5972   2.456   6.211   1.871  1.4043 -0.1514 -0.1568
   70SAPC   C14 5973   2.284   6.080   2.144  0.1753 -0.0708 -0.7034
   70SAPC  H14A 5974   2.177   6.074   2.159  0.3771 -2.3636  0.3201
   70SAPC  H14B 5975   2.332   5.984   2.131 -0.4141 -0.3652 -0.7604
   70SAPC  H14C 5976   2.340   6.119   2.227 -1.9482 -0.8696  1.2180
   70SAPC   C15 5977   2.221   6.099   1.912 -0.4468  0.1723 -0.2520
   70SAPC  H15A 5978   2.244   5.994   1.906  0.9643  0.4079  0.4749
   70SAPC  H15B 5979   2.118   6.097   1.943 -0.0369 -1.4568  1.2015
   70SAPC  H15C 5980   2.231   6.151   1.818  0.9165 -1.3419 -1.0076
   70SAPC   C11 5981   2.101   6.325   2.101  0.2648  0.4492 -0.1851
   70SAPC  H11A 5982   2.105   6.290   2.206 -2.1200  0.0812 -0.1579
   70SAPC  H11B 5983   2.038   6.246   2.055 -2.7954  1.3644  2.0972
   70SAPC     P 5984   2.100   6.568   2.171 -0.4889  0.2455 -0.1355
   70SAPC   O13 5985   2.247   6.575   2.156 -1.1111 -0.1557  0.3140
   70SAPC   O14 5986   2.028   6.687   2.136  0.3421  0.1678 -0.5047
   70SAPC   O12 5987   2.042   6.445   2.086 -0.1567 -0.0341 -0.3580
   70SAPC   O11 5988   2.066   6.531   2.320 -0.2462  0.6047  0.3105
   70SAPC    C1 5989   1.928   6.533   2.357  0.7408 -0.1884  0.3413
   70SAPC    HA 5990   1.881   6.634   2.349  1.9824  0.3190 -1.0512
   70SAPC    HB 5991   1.867   6.458   2.303 -0.9237  0.8089  0.7736
   70SAPC    C2 5992   1.927   6.504   2.509  0.0803  0.0761 -0.2755
   70SAPC    HS 5993   1.825   6.472   2.535  0.5349  0.1286  1.6778
   70SAPC   O21 5994   1.961   6.623   2.580  0.1230 -0.2918 -0.1196
   70SAPC   C21 5995   1.901   6.652   2.690  0.4264 -0.2688  0.0878
   70SAPC   O22 5996   1.812   6.582   2.746  0.1951  0.2105  0.4040
   70SAPC   C22 5997   1.948   6.781   2.756  0.3888 -0.0084  0.4098
   70SAPC   H2R 5998   2.058   6.766   2.765  0.5868 -0.9614 -2.5086
   70SAPC   H2S 5999   1.922   6.864   2.686 -0.8382  0.5128  1.4361
   70SAPC    C3 6000   2.011   6.379   2.545 -0.3063  0.6251  0.5176
   70SAPC    HX 6001   2.121   6.393   2.533 -0.2091  0.5928  1.2986
   70SAPC    HY 6002   1.989   6.293   2.479  0.8312 -1.3508  2.5619
   70SAPC   O31 6003   1.991   6.346   2.683 -0.3275  0.1418 -0.3747
   70SAPC   C31 6004   1.884   6.276   2.713  0.0441  0.8021 -0.2549
   70SAPC   O32 6005   1.806   6.236   2.634 -0.0904 -0.0020 -0.0009
   70SAPC   C32 6006   1.860   6.236   2.861 -0.1727  0.2530  0.6590
   70SAPC   H2X 6007   1.948   6.260   2.924 -1.0127 -0.1401  2.0354
   70SAPC   H2Y 6008   1.837   6.128   2.862  0.1106  0.0901 -2.1173
   70SAPC   C23 6009   1.882   6.818   2.900  0.0956 -0.4019 -0.4539
   70SAPC   H3R 6010   1.897   6.736   2.974 -2.5278 -1.5759 -1.0913
   70SAPC   H3S 6011   1.773   6.828   2.880 -0.6189 -0.7873  2.7674
   70SAPC   C24 6012   1.932   6.953   2.937  0.2869 -0.2146 -0.3406
   70SAPC   H4R 6013   1.856   6.969   3.017  1.1537 -2.7288  1.1225
   70SAPC   H4S 6014   1.901   7.025   2.859  0.0721 -0.4711 -0.4962
   70SAPC   C25 6015   2.075   6.968   2.981 -0.3965 -0.4093 -1.1372
   70SAPC   H5R 6016   2.146   6.961   2.897  2.3241 -2.5393  1.1488
   70SAPC   C26 6017   2.120   6.993   3.110 -0.0658 -0.1554  0.1565
   70SAPC   H6R 6018   2.230   7.005   3.109 -0.0252  0.3009 -3.2744
   70SAPC   C27 6019   2.052   6.984   3.248 -1.2095  0.8012  0.6233
   70SAPC   H7R 6020   2.120   6.930   3.317 -1.9094 -0.2410  0.5236
   70SAPC   H7S 6021   1.962   6.919   3.240  0.3151 -1.1451 -2.0613
   70SAPC   C28 6022   2.019   7.108   3.319  0.0557  0.5370  0.3846
   70SAPC   H8R 6023   2.041   7.199   3.260  0.8165  0.7054  0.9068
   70SAPC   C29 6024   1.980   7.116   3.448 -0.4525 -0.6030  0.1806
   70SAPC   H9R 6025   1.978   7.218   3.490  3.6746 -0.1866 -0.2962
   70SAPC  C210 6026   1.935   6.994   3.522  0.0701 -0.1451 -0.2968
   70SAPC  H10R 6027   2.000   6.907   3.498 -1.7956 -1.7428  0.1510
   70SAPC  H10S 6028   1.832   6.961   3.493 -0.6739  3.6707 -2.6188
   70SAPC  C211 6029   1.947   7.016   3.673  0.4114  0.2396  0.5573
   70SAPC  H11R 6030   1.918   7.117   3.705 -0.9111 -0.4927  1.8566
   70SAPC  C212 6031   1.980   6.933   3.772  0.2152  0.1551  0.0116
   70SAPC  H12R 6032   1.975   6.983   3.869  1.2161 -0.4069  0.3654
   70SAPC  C213 6033   2.018   6.786   3.773 -0.3976 -0.7099  0.2518
   70SAPC  H13R 6034   2.104   6.780   3.842  1.2157  2.1969 -1.3033
   70SAPC  H13S 6035   2.064   6.765   3.675 -2.7064 -0.2377 -1.0233
   70SAPC  C214 6036   1.902   6.699   3.824 -0.2242  0.2989 -0.6775
   70SAPC  H14R 6037   1.829   6.742   3.894  0.9228 -1.8284  2.0243
   70SAPC  C215 6038   1.872   6.582   3.767 -0.1102 -0.5226 -0.4039
   70SAPC  H15R 6039   1.794   6.525   3.819  0.7883 -0.4128  1.1356
   70SAPC  C216 6040   1.951   6.522   3.657 -0.1091 -0.5139  0.6916
   70SAPC  H16R 6041   1.951   6.411   3.663  0.5732 -0.4434  2.8089
   70SAPC  H16S 6042   2.061   6.535   3.661  0.2766 -2.9305 -0.5861
   70SAPC  C217 6043   1.912   6.569   3.518 -0.3493 -0.6410  0.1920
   70SAPC  H17R 6044   1.924   6.679   3.509  1.1611 -0.9458 -3.4855
   70SAPC  H17S 6045   1.803   6.557   3.504 -0.3019 -1.2315  0.2763
   70SAPC  C218 6046   1.996   6.502   3.411  0.1428  0.5697 -0.8566
   70SAPC  H18R 6047   1.993   6.393   3.430 -1.1580  0.9548  1.6937
   70SAPC  H18S 6048   2.097   6.550   3.416  0.8093 -0.8727  0.2244
   70SAPC  C219 6049   1.935   6.534   3.276  0.8431  0.8422  0.2630
   70SAPC  H19R 6050   1.916   6.643   3.273 -0.2845  0.7052  1.4481
   70SAPC  H19S 6051   1.837   6.483   3.268  1.3617 -0.1515  0.1238
   70SAPC  C220 6052   2.024   6.497   3.162 -0.0206 -0.0775 -0.4478
   70SAPC  H20R 6053   2.111   6.563   3.143  1.1088 -1.8307 -1.7088
   70SAPC  H20S 6054   1.970   6.499   3.065 -0.3664  0.3974 -0.2474
   70SAPC  H20T 6055   2.076   6.404   3.193 -1.4096  0.0620  2.6093
   70SAPC   C33 6056   1.746   6.321   2.918 -1.0032 -0.0936  0.1720
   70SAPC   H3X 6057   1.661   6.318   2.847 -0.6995 -0.8630 -0.1732
   70SAPC   H3Y 6058   1.779   6.421   2.952  3.1862 -1.6156  1.2771
   70SAPC   C34 6059   1.687   6.252   3.041 -0.3215  0.5047  0.7165
   70SAPC   H4X 6060   1.758   6.240   3.126  0.3786 -2.5592 -0.1896
   70SAPC   H4Y 6061   1.646   6.151   3.021 -1.1900  1.3941 -2.5492
   70SAPC   C35 6062   1.567   6.338   3.097 -0.0377 -0.1341 -0.4609
   70SAPC   H5X 6063   1.491   6.338   3.017 -1.1975  0.6069  0.6112
   70SAPC   H5Y 6064   1.607   6.437   3.127  1.1950 -1.0403  1.0924
   70SAPC   C36 6065   1.505   6.277   3.226 -0.3102  1.3642  0.7476
   70SAPC   H6X 6066   1.479   6.170   3.210  5.1496 -0.5603  2.3372
   70SAPC   H6Y 6067   1.421   6.348   3.240 -0.2303  2.4914 -3.0899
   70SAPC   C37 6068   1.591   6.281   3.349  0.4881  0.1582 -0.4358
   70SAPC   H7X 6069   1.667   6.199   3.352  0.4028  0.0782 -0.4543
   70SAPC   H7Y 6070   1.646   6.377   3.359  1.7645 -0.4765 -1.0375
   70SAPC   C38 6071   1.509   6.267   3.479 -0.1763 -0.2906  0.0766
   70SAPC   H8X 6072   1.453   6.173   3.498 -0.5797 -0.5634 -2.2019
   70SAPC   H8Y 6073   1.436   6.350   3.478  1.1948  0.9607 -0.4634
   70SAPC   C39 6074   1.585   6.287   3.609 -0.6066  0.7126 -0.0634
   70SAPC   H9X 6075   1.625   6.390   3.624 -0.4396  0.3602  2.2623
   70SAPC   H9Y 6076   1.678   6.227   3.614 -1.8244 -1.1986  0.8339
   70SAPC  C310 6077   1.492   6.264   3.728  0.1955  0.5227 -0.0320
   70SAPC  H10X 6078   1.491   6.153   3.740  2.0914  0.3948 -0.8516
   70SAPC  H10Y 6079   1.385   6.285   3.707  0.1472  0.1187 -0.2016
   70SAPC  C311 6080   1.520   6.338   3.859 -0.5037  0.6746  0.7268
   70SAPC  H11X 6081   1.483   6.442   3.851  0.8999  1.3806  2.8624
   70SAPC  H11Y 6082   1.628   6.326   3.882 -0.5928  0.9292  1.2914
   70SAPC  C312 6083   1.450   6.273   3.979  0.1650  0.0697  0.1454
   70SAPC  H12X 6084   1.491   6.172   4.003  0.4456  0.1005 -0.2017
   70SAPC  H12Y 6085   1.342   6.254   3.960  0.5747 -0.3311 -1.9976
   70SAPC  C313 6086   1.468   6.370   4.099  0.6348  0.3722 -0.3631
   70SAPC  H13X 6087   1.419   6.465   4.070 -1.0340 -0.2081  0.4137
   70SAPC  H13Y 6088   1.574   6.401   4.110  0.2178  1.6853  0.1734
   70SAPC  C314 6089   1.397   6.327   4.228 -0.4757 -0.5628  0.3670
   70SAPC  H14X 6090   1.447   6.234   4.266  0.7876 -0.1705 -0.2697
   70SAPC  H14Y 6091   1.294   6.291   4.208  0.1627 -1.1018 -2.2951
   70SAPC  C315 6092   1.383   6.428   4.331 -0.1655 -0.1364  0.0276
   70SAPC  H15X 6093   1.333   6.518   4.290 -0.0923 -0.2093 -0.2230
   70SAPC  H15Y 6094   1.487   6.453   4.361 -0.3770  0.7566  0.0144
   70SAPC  C316 6095   1.302   6.375   4.457 -0.2970 -0.5785  0.2360
   70SAPC  H16X 6096   1.365   6.291   4.493  0.5263 -1.1058 -2.2033
   70SAPC  H16Y 6097   1.199   6.336   4.440 -0.7464  0.4414  0.5346
   70SAPC  C317 6098   1.289   6.483   4.572 -0.2112 -0.6042 -0.8598
   70SAPC  H17X 6099   1.230   6.442   4.657  2.2161 -2.1823  0.1674
   70SAPC  H17Y 6100   1.211   6.546   4.525  0.2832  0.6044 -0.1000
   70SAPC  C318 6101   1.408   6.558   4.630  0.4897  0.4409 -0.0455
   70SAPC  H18X 6102   1.473   6.489   4.687  0.6010  2.0257  1.8269
   70SAPC  H18Y 6103   1.379   6.629   4.709  3.1819 -0.0317  1.4978
   70SAPC  H18Z 6104   1.459   6.614   4.548  0.6396  0.3846  0.0085
   71SAPC     N 6105   2.669   1.420   2.174  0.2851 -0.2223  0.3020
   71SAPC   C12 6106   2.550   1.357   2.235 -0.3465 -0.6130  0.2811
   71SAPC  H12A 6107   2.487   1.440   2.265 -0.9041 -0.8864 -0.1138
   71SAPC  H12B 6108   2.568   1.314   2.332 -2.8196 -1.0626  0.5995
   71SAPC   C13 6109   2.636   1.504   2.057  0.0200  0.3956  0.1964
   71SAPC  H13A 6110   2.721   1.558   2.017  0.4269 -0.9675 -0.8650
   71SAPC  H13B 6111   2.617   1.433   1.978  0.7228  1.4413 -0.9501
   71SAPC  H13C 6112   2.549   1.565   2.069 -2.0253 -2.2958  0.0949
   71SAPC   C14 6113   2.745   1.495   2.274  0.0851 -0.4917  0.0327
   71SAPC  H14A 6114   2.796   1.449   2.357  2.3614 -3.1419 -2.6056
   71SAPC  H14B 6115   2.833   1.532   2.223 -0.0805 -0.3319 -0.1376
   71SAPC  H14C 6116   2.692   1.583   2.308 -0.3924 -0.4965 -0.6667
   71SAPC   C15 6117   2.763   1.322   2.120 -0.0633 -0.0982 -0.5248
   71SAPC  H15A 6118   2.816   1.370   2.039 -1.2151  1.4518 -0.4001
   71SAPC  H15B 6119   2.838   1.290   2.192  0.0933  0.1049 -0.5959
   71SAPC  H15C 6120   2.718   1.232   2.082 -0.8044  0.1176 -0.1892
   71SAPC   C11 6121   2.472   1.250   2.156 -0.4153  0.3763 -0.1595
   71SAPC  H11A 6122   2.462   1.293   2.054  0.2909 -0.4182 -0.5700
   71SAPC  H11B 6123   2.368   1.238   2.195 -0.1302 -0.5206  0.3471
   71SAPC     P 6124   2.567   1.034   2.285  0.2280  0.1230 -0.0370
   71SAPC   O13 6125   2.468   0.921   2.285 -0.0744 -0.1082  0.9414
   71SAPC   O14 6126   2.711   1.005   2.296  0.3495  0.3229  0.6446
   71SAPC   O12 6127   2.540   1.126   2.160 -0.4265  0.0752 -0.0312
   71SAPC   O11 6128   2.538   1.126   2.412 -0.5159  0.3078  0.3952
   71SAPC    C1 6129   2.647   1.183   2.490 -1.3083 -0.2529  0.1984
   71SAPC    HA 6130   2.745   1.207   2.443 -1.3360  0.5791  0.5392
   71SAPC    HB 6131   2.607   1.276   2.535 -2.3795 -0.1606 -0.9085
   71SAPC    C2 6132   2.673   1.095   2.618  0.0426  0.8652 -0.4502
   71SAPC    HS 6133   2.708   0.995   2.585  0.9770  1.1287 -0.2901
   71SAPC   O21 6134   2.545   1.080   2.690 -0.5034  0.0612 -0.3643
   71SAPC   C21 6135   2.532   0.972   2.763  0.2426  0.3086  0.2829
   71SAPC   O22 6136   2.609   0.880   2.768 -0.2670  0.1175 -0.1946
   71SAPC   C22 6137   2.401   0.990   2.841  0.2775  0.3785 -0.0277
   71SAPC   H2R 6138   2.393   1.095   2.875  1.5360  1.3692 -2.5199
   71SAPC   H2S 6139   2.319   0.977   2.768 -0.4827  0.5498  0.7863
   71SAPC    C3 6140   2.786   1.159   2.708  0.1000 -0.2950 -0.4838
   71SAPC    HX 6141   2.879   1.159   2.647  0.9489 -2.6099  0.7129
   71SAPC    HY 6142   2.807   1.092   2.793 -1.2743  1.9292  1.7566
   71SAPC   O31 6143   2.752   1.300   2.753 -0.1144  0.2723 -0.3442
   71SAPC   C31 6144   2.817   1.341   2.851  0.3636 -0.4113  0.8940
   71SAPC   O32 6145   2.927   1.294   2.888  0.0373 -0.1740  0.1094
   71SAPC   C32 6146   2.754   1.460   2.917  1.0188  0.0445 -0.5188
   71SAPC   H2X 6147   2.687   1.517   2.849  0.0773 -0.5547 -0.1122
   71SAPC   H2Y 6148   2.830   1.528   2.961  0.6346 -1.0353  1.9676
   71SAPC   C23 6149   2.389   0.882   2.956  0.3431 -0.3420  0.4197
   71SAPC   H3R 6150   2.395   0.776   2.924  1.2020 -1.1964  3.1023
   71SAPC   H3S 6151   2.292   0.906   3.006  0.8350 -3.3510  3.1581
   71SAPC   C24 6152   2.498   0.902   3.068 -0.3997  0.5659  0.8563
   71SAPC   H4R 6153   2.477   0.997   3.122 -0.9241  0.5381  0.7109
   71SAPC   H4S 6154   2.598   0.909   3.019  0.1978 -1.8594  1.6129
   71SAPC   C25 6155   2.502   0.785   3.158 -0.2971 -0.2221 -0.1111
   71SAPC   H5R 6156   2.537   0.694   3.107 -0.5164  0.1471 -0.9422
   71SAPC   C26 6157   2.454   0.769   3.285 -0.1222  0.5441 -0.1371
   71SAPC   H6R 6158   2.462   0.674   3.338  0.9769  1.4640  1.4087
   71SAPC   C27 6159   2.384   0.871   3.362 -0.3783  0.5156  0.0676
   71SAPC   H7R 6160   2.294   0.840   3.418 -0.6522  2.0213  0.5141
   71SAPC   H7S 6161   2.345   0.951   3.295 -1.6642  0.0177  0.2125
   71SAPC   C28 6162   2.472   0.957   3.444 -0.8971  0.5311 -0.6028
   71SAPC   H8R 6163   2.534   1.025   3.384 -0.4522  1.7306  1.1148
   71SAPC   C29 6164   2.505   0.941   3.576 -0.2466  0.5894  0.3304
   71SAPC   H9R 6165   2.567   1.004   3.642  0.4132 -0.4609  0.7366
   71SAPC  C210 6166   2.433   0.837   3.661 -0.1034 -0.3691 -0.0765
   71SAPC  H10R 6167   2.386   0.762   3.595 -0.6238  0.2614 -0.4290
   71SAPC  H10S 6168   2.343   0.882   3.708 -0.7671  0.0253 -1.6690
   71SAPC  C211 6169   2.519   0.769   3.769 -0.2256 -0.0042 -0.5299
   71SAPC  H11R 6170   2.582   0.693   3.721  2.7121  0.0807  2.8505
   71SAPC  C212 6171   2.516   0.786   3.904  0.8838  0.2816  0.0530
   71SAPC  H12R 6172   2.594   0.735   3.963 -0.2775 -1.5275  0.1162
   71SAPC  C213 6173   2.423   0.876   3.985 -0.1951  0.0107 -0.2095
   71SAPC  H13R 6174   2.350   0.815   4.042  1.6413  1.0835  3.6640
   71SAPC  H13S 6175   2.363   0.947   3.924 -0.6206  1.4607  1.7827
   71SAPC  C214 6176   2.501   0.949   4.090  0.3607 -0.2303  0.4075
   71SAPC  H14R 6177   2.608   0.959   4.069  0.4105  0.3845  0.9290
   71SAPC  C215 6178   2.459   0.995   4.209 -0.1014 -0.4962  0.0510
   71SAPC  H15R 6179   2.532   1.056   4.265 -0.7003  0.7946 -0.5235
   71SAPC  C216 6180   2.315   0.991   4.258 -0.3053 -0.7162 -0.8493
   71SAPC  H16R 6181   2.260   0.906   4.212  0.2964 -1.0572 -0.9490
   71SAPC  H16S 6182   2.265   1.088   4.237  0.6760  0.0354  0.1502
   71SAPC  C217 6183   2.315   0.970   4.416  0.7704  1.4061 -0.1126
   71SAPC  H17R 6184   2.374   1.054   4.458  1.5864  0.0699  1.5269
   71SAPC  H17S 6185   2.360   0.870   4.431 -0.4771  0.5972 -1.4490
   71SAPC  C218 6186   2.175   0.959   4.477  0.0794  0.0276  0.3002
   71SAPC  H18R 6187   2.190   0.953   4.587  2.2781 -1.8746 -0.0395
   71SAPC  H18S 6188   2.138   0.865   4.432  1.5620 -1.1842  1.5044
   71SAPC  C219 6189   2.069   1.062   4.439 -0.2683  0.4276 -0.4414
   71SAPC  H19R 6190   2.025   1.052   4.337  2.2950  3.0372 -1.9516
   71SAPC  H19S 6191   2.116   1.163   4.441  0.4428  0.1344  2.7381
   71SAPC  C220 6192   1.952   1.054   4.535 -0.0783  0.2949 -0.1520
   71SAPC  H20R 6193   1.861   1.114   4.514 -1.1099 -0.5343  1.6818
   71SAPC  H20S 6194   1.993   1.094   4.631  0.6422 -0.8602  0.0505
   71SAPC  H20T 6195   1.931   0.950   4.567  3.2698 -0.6923 -0.7347
   71SAPC   C33 6196   2.656   1.410   3.025  0.1651 -0.3391  0.0821
   71SAPC   H3X 6197   2.602   1.318   2.993 -0.9226  0.0692  0.7156
   71SAPC   H3Y 6198   2.570   1.479   3.038  0.5394 -0.0483  1.1438
   71SAPC   C34 6199   2.721   1.411   3.161 -0.5321 -0.5093 -0.0912
   71SAPC   H4X 6200   2.764   1.511   3.180 -3.6845  0.5728  2.3637
   71SAPC   H4Y 6201   2.783   1.320   3.149  1.2022  0.4550  1.0779
   71SAPC   C35 6202   2.624   1.402   3.275  0.2638 -0.2848 -0.1446
   71SAPC   H5X 6203   2.550   1.323   3.253 -1.1463  0.6753  0.9716
   71SAPC   H5Y 6204   2.558   1.491   3.286  0.2690 -0.2299 -0.5367
   71SAPC   C36 6205   2.686   1.369   3.412  0.0248 -0.4713  0.6602
   71SAPC   H6X 6206   2.744   1.458   3.448  0.0433  0.1238 -0.7622
   71SAPC   H6Y 6207   2.755   1.283   3.403  0.6433 -0.2122  2.4610
   71SAPC   C37 6208   2.578   1.355   3.521 -0.1463 -0.2364 -0.1237
   71SAPC   H7X 6209   2.505   1.274   3.498  0.7947 -1.3534  0.6450
   71SAPC   H7Y 6210   2.517   1.447   3.523 -0.2412 -0.3005  1.0345
   71SAPC   C38 6211   2.638   1.314   3.654 -0.7009  1.0617 -0.1192
   71SAPC   H8X 6212   2.696   1.395   3.702 -0.7059  0.5448  0.7846
   71SAPC   H8Y 6213   2.701   1.227   3.625  1.2903  1.8140  1.6655
   71SAPC   C39 6214   2.529   1.283   3.756  0.2556  0.7858 -0.5524
   71SAPC   H9X 6215   2.470   1.200   3.711  0.9102 -1.6118  2.5871
   71SAPC   H9Y 6216   2.468   1.374   3.771  1.7290  1.6926  0.1869
   71SAPC  C310 6217   2.573   1.232   3.892 -0.2092  0.3461  1.0849
   71SAPC  H10X 6218   2.652   1.155   3.877  0.1027  0.6002  1.3983
   71SAPC  H10Y 6219   2.489   1.185   3.946  0.0209 -0.5571  0.6721
   71SAPC  C311 6220   2.641   1.345   3.986  0.4283  0.4614 -0.0870
   71SAPC  H11X 6221   2.570   1.415   4.034 -2.1871 -0.5577 -2.2261
   71SAPC  H11Y 6222   2.708   1.405   3.921  1.9417 -1.2184 -0.1747
   71SAPC  C312 6223   2.715   1.278   4.104 -0.9980 -0.2122 -0.3802
   71SAPC  H12X 6224   2.761   1.185   4.065 -3.3660 -1.0799 -1.2196
   71SAPC  H12Y 6225   2.644   1.256   4.187 -2.5732  1.0349 -1.3433
   71SAPC  C313 6226   2.829   1.369   4.152 -0.3597 -0.5623 -1.0764
   71SAPC  H13X 6227   2.798   1.470   4.185 -0.5003 -0.5776 -1.1590
   71SAPC  H13Y 6228   2.900   1.385   4.069  0.4515  3.5188  0.2143
   71SAPC  C314 6229   2.897   1.308   4.280  0.2769  0.5311 -0.0020
   71SAPC  H14X 6230   2.888   1.198   4.263 -1.7453  0.1941  2.4521
   71SAPC  H14Y 6231   2.833   1.327   4.370  0.6060  1.1532  0.0994
   71SAPC  C315 6232   3.052   1.325   4.300 -0.2852  0.4007  0.1081
   71SAPC  H15X 6233   3.060   1.435   4.292 -2.5241  0.6152  0.0054
   71SAPC  H15Y 6234   3.101   1.292   4.207  0.2789  3.0461 -0.6173
   71SAPC  C316 6235   3.103   1.247   4.426 -0.5628  0.0450 -0.3199
   71SAPC  H16X 6236   3.134   1.148   4.386 -0.0838  0.7105 -1.6583
   71SAPC  H16Y 6237   3.024   1.234   4.503  1.5268 -2.2658  1.6232
   71SAPC  C317 6238   3.219   1.319   4.497  0.4263  0.3705 -0.0992
   71SAPC  H17X 6239   3.183   1.423   4.514 -0.3924  0.1501 -0.4444
   71SAPC  H17Y 6240   3.304   1.327   4.426 -0.7681 -0.8469 -1.7582
   71SAPC  C318 6241   3.263   1.270   4.633 -0.2529 -0.2931 -0.3227
   71SAPC  H18X 6242   3.357   1.319   4.664 -1.3453  1.5214  0.3039
   71SAPC  H18Y 6243   3.275   1.160   4.622 -0.3251 -0.4865  1.2910
   71SAPC  H18Z 6244   3.175   1.295   4.696  0.5569  2.8623 -0.3030
   72SAPC     N 6245   3.172   3.865   2.580  0.3125  0.0773  0.5657
   72SAPC   C12 6246   3.112   4.002   2.525 -0.9814  0.2639  0.0723
   72SAPC  H12A 6247   3.087   3.986   2.421 -1.9273 -1.0874  0.4748
   72SAPC  H12B 6248   3.197   4.067   2.513 -1.5334  0.6557 -2.1590
   72SAPC   C13 6249   3.299   3.836   2.508  0.3095  0.8109 -0.6428
   72SAPC  H13A 6250   3.341   3.742   2.540 -1.3972 -0.8406 -2.9384
   72SAPC  H13B 6251   3.277   3.826   2.403  0.3315 -1.5903 -0.4573
   72SAPC  H13C 6252   3.373   3.914   2.523 -1.3756  2.3784 -0.0627
   72SAPC   C14 6253   3.201   3.861   2.720 -0.7632 -0.3511 -0.0206
   72SAPC  H14A 6254   3.258   3.775   2.750  1.9499  2.0850  2.6222
   72SAPC  H14B 6255   3.252   3.952   2.749  1.0248 -1.4546  0.4647
   72SAPC  H14C 6256   3.112   3.846   2.780  0.7245 -4.3710  1.4546
   72SAPC   C15 6257   3.074   3.751   2.546 -0.6255 -0.2504 -0.1884
   72SAPC  H15A 6258   3.125   3.661   2.578  0.1045 -0.2924 -1.4064
   72SAPC  H15B 6259   2.988   3.774   2.607 -0.4074 -1.6602  0.6978
   72SAPC  H15C 6260   3.053   3.733   2.441 -1.8936 -1.0463  0.1787
   72SAPC   C11 6261   3.007   4.072   2.617  1.1555 -0.1000  0.7620
   72SAPC  H11A 6262   2.981   4.170   2.570 -2.6815 -0.2909  2.1209
   72SAPC  H11B 6263   3.055   4.105   2.712  0.7546 -0.3198  1.0425
   72SAPC     P 6264   2.828   3.945   2.758 -0.2954  0.2028 -0.4250
   72SAPC   O13 6265   2.685   3.909   2.743 -0.2625 -0.2562 -0.4788
   72SAPC   O14 6266   2.909   3.839   2.816  0.4837 -0.3319 -0.7317
   72SAPC   O12 6267   2.888   4.000   2.626 -0.5013  0.0718  0.8242
   72SAPC   O11 6268   2.841   4.071   2.857  0.1070  0.4074  0.1888
   72SAPC    C1 6269   2.828   4.043   3.001  0.7122  0.6139  0.1102
   72SAPC    HA 6270   2.783   3.944   3.025  2.4484  0.4181  2.9615
   72SAPC    HB 6271   2.925   4.043   3.056  0.9182 -3.5182  0.1166
   72SAPC    C2 6272   2.733   4.148   3.066  0.4535 -0.3984 -0.3594
   72SAPC    HS 6273   2.778   4.246   3.043  1.6837 -0.5811  1.1097
   72SAPC   O21 6274   2.713   4.123   3.206  0.1817 -0.4591  0.4748
   72SAPC   C21 6275   2.826   4.150   3.276 -0.3733 -0.1575  0.3322
   72SAPC   O22 6276   2.924   4.203   3.227 -0.0815  0.0384  0.8111
   72SAPC   C22 6277   2.805   4.132   3.423  0.0304  0.5527  0.2534
   72SAPC   H2R 6278   2.890   4.069   3.457  1.0765  1.7231 -0.0928
   72SAPC   H2S 6279   2.832   4.226   3.476 -1.5781  2.0484 -1.4480
   72SAPC    C3 6280   2.594   4.143   2.987 -0.4382  0.8026 -0.4952
   72SAPC    HX 6281   2.554   4.040   2.996 -1.7260  1.3626  0.5872
   72SAPC    HY 6282   2.614   4.163   2.880 -1.6001  0.7265 -0.7439
   72SAPC   O31 6283   2.503   4.247   3.030  0.1462  0.2602  0.0627
   72SAPC   C31 6284   2.422   4.207   3.132  0.6489 -0.0738 -0.1333
   72SAPC   O32 6285   2.422   4.097   3.186 -0.4550  0.1522  0.5433
   72SAPC   C32 6286   2.313   4.320   3.138 -0.2915 -0.3033  1.4852
   72SAPC   H2X 6287   2.255   4.309   3.044 -0.6017  0.4669  1.5830
   72SAPC   H2Y 6288   2.375   4.412   3.129 -1.0016 -0.0388 -1.7381
   72SAPC   C23 6289   2.656   4.083   3.454  0.2870 -0.2420 -0.1560
   72SAPC   H3R 6290   2.644   3.986   3.400  1.3216 -0.6225  0.2718
   72SAPC   H3S 6291   2.577   4.152   3.418 -1.3378 -0.9421  1.8914
   72SAPC   C24 6292   2.614   4.060   3.596 -0.2967 -0.1750  0.1017
   72SAPC   H4R 6293   2.519   4.002   3.599  0.5602 -1.6781 -0.7985
   72SAPC   H4S 6294   2.605   4.154   3.655 -0.0496 -1.3743  2.1395
   72SAPC   C25 6295   2.705   3.969   3.662 -0.1751 -0.2512 -0.5322
   72SAPC   H5R 6296   2.785   3.930   3.598  0.2102  2.5341 -1.9281
   72SAPC   C26 6297   2.717   3.956   3.797  0.5602  0.2408  0.8069
   72SAPC   H6R 6298   2.806   3.909   3.841  0.4827 -0.2539  0.4454
   72SAPC   C27 6299   2.630   4.024   3.896  0.3709 -0.0529  0.1750
   72SAPC   H7R 6300   2.521   4.004   3.885  0.5583 -0.7892 -0.4203
   72SAPC   H7S 6301   2.627   4.132   3.869  1.7988  0.2357  1.0941
   72SAPC   C28 6302   2.658   3.993   4.041 -0.8723 -0.1182 -0.9787
   72SAPC   H8R 6303   2.645   3.886   4.062  0.4346 -0.4737 -1.9083
   72SAPC   C29 6304   2.686   4.077   4.139  0.2341  0.3621  0.2383
   72SAPC   H9R 6305   2.684   4.030   4.238  0.2564 -0.2111 -0.0270
   72SAPC  C210 6306   2.693   4.227   4.136 -0.8410 -0.0647 -0.1494
   72SAPC  H10R 6307   2.596   4.271   4.166 -1.9185 -0.8875 -2.2381
   72SAPC  H10S 6308   2.717   4.268   4.036  4.2257  3.3337  2.0036
   72SAPC  C211 6309   2.801   4.276   4.231 -0.0352  0.5110  0.6035
   72SAPC  H11R 6310   2.899   4.287   4.183 -0.4852 -1.4512 -0.8924
   72SAPC  C212 6311   2.780   4.309   4.360  0.7331  0.3377 -0.4050
   72SAPC  H12R 6312   2.866   4.333   4.426 -0.2465 -0.5850  1.2809
   72SAPC  C213 6313   2.647   4.308   4.435  0.0243  0.1395  0.3589
   72SAPC  H13R 6314   2.657   4.307   4.546 -2.4141  1.3372  0.6654
   72SAPC  H13S 6315   2.589   4.217   4.408 -1.3021  1.1405 -0.2712
   72SAPC  C214 6316   2.562   4.426   4.392 -0.0846 -0.3115  0.5291
   72SAPC  H14R 6317   2.600   4.493   4.313 -0.5931 -0.9715 -0.2854
   72SAPC  C215 6318   2.441   4.461   4.439 -0.0199  0.3510 -0.8813
   72SAPC  H15R 6319   2.393   4.552   4.401 -2.8467 -0.7039 -0.1098
   72SAPC  C216 6320   2.376   4.398   4.561 -0.9894 -0.0226 -0.2241
   72SAPC  H16R 6321   2.447   4.339   4.623 -1.3052 -0.1868 -0.0122
   72SAPC  H16S 6322   2.309   4.319   4.519 -0.2878 -1.1291  0.6709
   72SAPC  C217 6323   2.286   4.495   4.639 -0.1123  0.4132  0.1878
   72SAPC  H17R 6324   2.230   4.557   4.566  1.4163 -0.0145 -1.4201
   72SAPC  H17S 6325   2.339   4.570   4.701  0.8346  0.0772 -0.1992
   72SAPC  C218 6326   2.176   4.427   4.722 -0.3186  0.2776  0.0848
   72SAPC  H18R 6327   2.122   4.358   4.653  1.1818 -2.0092  1.1022
   72SAPC  H18S 6328   2.109   4.511   4.751  1.0780  1.3441  0.3099
   72SAPC  C219 6329   2.222   4.359   4.852  0.0407  0.4142  0.6119
   72SAPC  H19R 6330   2.260   4.435   4.924  1.2290 -1.5659  2.2044
   72SAPC  H19S 6331   2.315   4.305   4.823  0.3115  1.6268 -0.8916
   72SAPC  C220 6332   2.121   4.259   4.900 -0.3011 -0.1897 -0.6517
   72SAPC  H20R 6333   2.141   4.207   4.996 -2.3654  2.7846  1.5707
   72SAPC  H20S 6334   2.098   4.172   4.834  0.3535 -0.1184 -0.9758
   72SAPC  H20T 6335   2.027   4.318   4.908 -1.1060 -1.5017 -0.0283
   72SAPC   C33 6336   2.232   4.308   3.260  0.1097  0.4064 -0.5856
   72SAPC   H3X 6337   2.178   4.213   3.278 -1.0698  1.3064  0.9023
   72SAPC   H3Y 6338   2.147   4.380   3.263 -0.7654 -0.5994 -0.5597
   72SAPC   C34 6339   2.306   4.341   3.393 -0.2205  0.2319  0.2214
   72SAPC   H4X 6340   2.343   4.445   3.387 -0.8722  0.3847 -1.9062
   72SAPC   H4Y 6341   2.392   4.270   3.389  1.0473  1.7444 -0.7383
   72SAPC   C35 6342   2.219   4.304   3.519 -0.2467 -0.9552 -0.1757
   72SAPC   H5X 6343   2.185   4.200   3.502 -1.5564 -0.7213  0.8374
   72SAPC   H5Y 6344   2.134   4.374   3.532 -0.5543 -1.3827  0.0973
   72SAPC   C36 6345   2.310   4.299   3.643 -0.1859 -0.1117  0.3061
   72SAPC   H6X 6346   2.356   4.400   3.654 -1.3896  0.7484 -1.7887
   72SAPC   H6Y 6347   2.392   4.231   3.614 -1.4568 -0.2908 -3.3627
   72SAPC   C37 6348   2.234   4.236   3.762 -0.3731  1.5523  0.4894
   72SAPC   H7X 6349   2.217   4.130   3.735 -0.2119  1.0311  2.3177
   72SAPC   H7Y 6350   2.133   4.282   3.767 -0.8209  0.6355  0.0402
   72SAPC   C38 6351   2.316   4.241   3.893  0.0014 -0.1459 -0.3702
   72SAPC   H8X 6352   2.424   4.251   3.871  0.1287 -0.2587  0.1856
   72SAPC   H8Y 6353   2.298   4.142   3.942 -0.6536 -0.4363 -1.1734
   72SAPC   C39 6354   2.265   4.348   3.997 -0.4238 -0.3789  0.0920
   72SAPC   H9X 6355   2.265   4.448   3.948  0.1417  0.0403  0.9316
   72SAPC   H9Y 6356   2.335   4.351   4.083 -1.0963  0.8353  0.6136
   72SAPC  C310 6357   2.130   4.315   4.071 -0.9220  0.6191  0.9136
   72SAPC  H10X 6358   2.145   4.211   4.107 -0.6944  0.5153  0.5188
   72SAPC  H10Y 6359   2.051   4.311   3.993 -0.3843 -0.7920  0.4275
   72SAPC  C311 6360   2.107   4.410   4.180  0.6899 -0.4012 -0.2219
   72SAPC  H11X 6361   2.099   4.517   4.152 -0.0084  0.3464  2.5048
   72SAPC  H11Y 6362   2.193   4.410   4.251  0.8916  0.0396 -0.4609
   72SAPC  C312 6363   1.979   4.378   4.270 -0.0921 -0.5846  0.5388
   72SAPC  H12X 6364   1.894   4.364   4.200 -0.1766 -1.0827  0.7372
   72SAPC  H12Y 6365   1.970   4.467   4.336 -0.0776 -0.6828  0.6743
   72SAPC  C313 6366   1.995   4.263   4.371  0.2001  0.1529  0.6130
   72SAPC  H13X 6367   2.086   4.293   4.427  0.9617  0.1107 -0.5809
   72SAPC  H13Y 6368   2.019   4.173   4.310 -0.6388  0.0527  0.4097
   72SAPC  C314 6369   1.871   4.253   4.457 -0.0605  0.3487  0.1022
   72SAPC  H14X 6370   1.792   4.209   4.392 -0.6955 -0.5137  1.4079
   72SAPC  H14Y 6371   1.833   4.350   4.494  0.6559  0.4315  0.6379
   72SAPC  C315 6372   1.852   4.144   4.561  0.2223  0.9505  0.4649
   72SAPC  H15X 6373   1.761   4.157   4.623  1.0986 -1.7473  2.5448
   72SAPC  H15Y 6374   1.936   4.159   4.633  0.4476  0.2632  0.3597
   72SAPC  C316 6375   1.873   3.998   4.512 -0.0944  0.7842 -0.0123
   72SAPC  H16X 6376   1.956   4.007   4.439 -1.2713 -0.4205 -1.5585
   72SAPC  H16Y 6377   1.784   3.970   4.452  0.4576  0.9268 -0.9186
   72SAPC  C317 6378   1.872   3.898   4.628 -0.3476 -0.0263  0.4407
   72SAPC  H17X 6379   1.962   3.894   4.693  0.5885  1.5509 -0.6907
   72SAPC  H17Y 6380   1.864   3.799   4.578  1.0322  0.4511 -0.8037
   72SAPC  C318 6381   1.748   3.913   4.720  0.0589 -0.3191 -0.2512
   72SAPC  H18X 6382   1.653   3.943   4.670  1.2573  2.1232 -1.2596
   72SAPC  H18Y 6383   1.770   3.996   4.791 -0.2907 -1.6469  1.4749
   72SAPC  H18Z 6384   1.731   3.818   4.773  1.4247 -0.5781 -0.2398
   73SLPC     N 6385   5.648   1.943   7.114 -0.2502  0.5326  0.9191
   73SLPC   C13 6386   5.744   1.939   7.230 -0.0451 -0.3032  0.9936
   73SLPC  H13A 6387   5.841   1.980   7.204  0.3144 -1.7243 -0.0449
   73SLPC  H13B 6388   5.705   2.008   7.303  2.2329  0.0438  1.9739
   73SLPC  H13C 6389   5.759   1.845   7.279  0.7440 -0.6982  0.0398
   73SLPC   C14 6390   5.508   1.911   7.158  0.2783  0.2515  0.0509
   73SLPC  H14A 6391   5.500   1.806   7.181 -1.0857  0.1293 -0.9026
   73SLPC  H14B 6392   5.484   1.963   7.250  0.0115 -1.5083  1.0172
   73SLPC  H14C 6393   5.436   1.938   7.082  3.0520 -1.0217 -3.2715
   73SLPC   C15 6394   5.692   1.847   7.005 -0.2663 -0.0580  0.5598
   73SLPC  H15A 6395   5.692   1.743   7.034 -1.2422 -0.9625 -2.3366
   73SLPC  H15B 6396   5.615   1.837   6.930  1.5179 -2.0933 -1.1333
   73SLPC  H15C 6397   5.781   1.871   6.949 -1.3219 -0.8220 -1.5371
   73SLPC   C12 6398   5.648   2.086   7.049  0.4198  0.4211 -0.1952
   73SLPC  H12A 6399   5.746   2.098   7.005 -0.3408  1.7466 -1.6491
   73SLPC  H12B 6400   5.639   2.160   7.128 -0.0987  0.3122 -0.1471
   73SLPC   C11 6401   5.552   2.121   6.928 -0.2219 -0.1858  0.0595
   73SLPC  H11A 6402   5.564   2.070   6.830  0.0417  2.1649 -1.2305
   73SLPC  H11B 6403   5.572   2.225   6.892 -3.4031  0.1980 -0.9416
   73SLPC     P 6404   5.331   2.228   7.032  0.0051  0.2455  0.1631
   73SLPC   O13 6405   5.189   2.190   7.056  0.7731 -0.3574  0.0770
   73SLPC   O14 6406   5.407   2.268   7.153  0.3909  0.5576 -0.2224
   73SLPC   O12 6407   5.409   2.113   6.952  0.2843  0.0478 -0.4574
   73SLPC   O11 6408   5.339   2.346   6.926  0.4377 -0.1131  0.5231
   73SLPC    C1 6409   5.263   2.322   6.800  0.1377 -0.2559 -0.5672
   73SLPC    HA 6410   5.276   2.218   6.763  0.8626 -1.0701  1.8280
   73SLPC    HB 6411   5.155   2.342   6.815  0.4748 -0.6888  3.5413
   73SLPC    C2 6412   5.300   2.419   6.676 -0.0661 -0.4229 -0.6874
   73SLPC    HS 6413   5.218   2.413   6.601  0.1498 -0.8614 -0.8960
   73SLPC   O21 6414   5.420   2.382   6.617 -0.1772  0.4337 -0.1058
   73SLPC   C21 6415   5.416   2.280   6.529 -0.0378 -0.4961  0.8156
   73SLPC   O22 6416   5.314   2.235   6.473 -0.1589  0.3722 -0.1645
   73SLPC   C22 6417   5.559   2.219   6.514  0.4066  0.4639 -0.0477
   73SLPC   H2R 6418   5.597   2.268   6.422  2.4629  0.4337  0.7188
   73SLPC   H2S 6419   5.617   2.250   6.603 -3.0043  0.5589  2.3075
   73SLPC    C3 6420   5.301   2.568   6.730  0.6517  0.4092  0.6517
   73SLPC    HX 6421   5.401   2.606   6.759  0.8538 -0.4684  1.1262
   73SLPC    HY 6422   5.248   2.580   6.826  1.7799 -1.3246  1.5418
   73SLPC   O31 6423   5.269   2.657   6.624  0.1239 -0.3093 -0.2628
   73SLPC   C31 6424   5.142   2.703   6.634  0.9629 -0.0575  0.3386
   73SLPC   O32 6425   5.065   2.682   6.730 -0.5112  0.6187 -0.8091
   73SLPC   C32 6426   5.110   2.793   6.513 -0.5447  0.1808 -0.2305
   73SLPC   H2X 6427   5.201   2.843   6.472 -0.6576  0.0262 -0.6742
   73SLPC   H2Y 6428   5.069   2.886   6.559  1.8370 -0.6839  4.3296
   73SLPC   C23 6429   5.560   2.065   6.498 -0.2007  0.3437  0.1059
   73SLPC   H3R 6430   5.494   2.012   6.569  0.8098  0.3547  1.0725
   73SLPC   H3S 6431   5.661   2.019   6.495 -1.3523 -2.4635  1.1167
   73SLPC   C24 6432   5.501   2.022   6.368  0.0650  0.0055  0.5643
   73SLPC   H4R 6433   5.400   2.053   6.333  0.7985  2.2277  0.2935
   73SLPC   H4S 6434   5.497   1.911   6.361 -1.4949  0.0665 -0.1153
   73SLPC   C25 6435   5.593   2.061   6.254  0.1215 -0.0570  0.4732
   73SLPC   H5R 6436   5.693   2.018   6.275 -0.7825 -2.1817  0.6324
   73SLPC   H5S 6437   5.611   2.171   6.253 -0.3715  0.0422 -1.4440
   73SLPC   C26 6438   5.542   2.017   6.119  0.0894 -0.0454 -0.2853
   73SLPC   H6R 6439   5.437   2.048   6.104  0.2441 -0.1912 -1.8466
   73SLPC   H6S 6440   5.540   1.906   6.119 -0.4707 -0.1264  2.7305
   73SLPC   C27 6441   5.634   2.074   6.014 -0.0565 -0.0630 -0.3966
   73SLPC   H7R 6442   5.736   2.045   6.048 -0.3437  0.0756  0.6389
   73SLPC   H7S 6443   5.630   2.185   6.016 -0.6873 -0.0736 -0.7045
   73SLPC   C28 6444   5.606   2.013   5.876 -0.7774 -0.2473 -0.6041
   73SLPC   H8R 6445   5.613   1.903   5.883  0.7961 -0.0644  1.7147
   73SLPC   H8S 6446   5.680   2.057   5.805  0.0778 -0.6198  0.0427
   73SLPC   C29 6447   5.469   2.049   5.823 -0.6408  0.5182  0.0119
   73SLPC   H9R 6448   5.389   2.075   5.893 -0.4141 -3.2400  1.8950
   73SLPC  C210 6449   5.451   2.057   5.692 -0.7651 -0.1859  0.3160
   73SLPC  H10R 6450   5.347   2.070   5.659 -0.6115 -2.3689 -1.2114
   73SLPC  C211 6451   5.559   2.023   5.590  0.2661 -0.2512  0.3289
   73SLPC  H11R 6452   5.635   1.951   5.626 -0.7195 -2.2275 -1.3318
   73SLPC  H11S 6453   5.598   2.124   5.567  0.0520 -0.5307 -1.3738
   73SLPC  C212 6454   5.490   1.953   5.479  1.0049  0.1103 -0.3982
   73SLPC  H12R 6455   5.464   1.847   5.490 -1.6984  0.2429 -3.8173
   73SLPC  C213 6456   5.454   2.006   5.360  1.1909  0.6874  0.4313
   73SLPC  H13R 6457   5.405   1.946   5.281 -0.3175 -0.3510  2.0794
   73SLPC  C214 6458   5.482   2.139   5.313  0.3608 -0.1123 -0.4391
   73SLPC  H14R 6459   5.591   2.157   5.308  0.4202 -0.0619  0.7299
   73SLPC  H14S 6460   5.443   2.220   5.379  1.5195  2.9581 -3.2446
   73SLPC  C215 6461   5.423   2.158   5.173  0.6205  0.0345  0.5983
   73SLPC  H15R 6462   5.463   2.077   5.109 -1.3554 -1.0261  0.6217
   73SLPC  H15S 6463   5.449   2.256   5.128 -1.3448  0.0755 -0.5303
   73SLPC  C216 6464   5.269   2.150   5.164 -0.5750 -0.2497 -0.6055
   73SLPC  H16R 6465   5.241   2.236   5.228 -1.4951 -0.7381 -0.3443
   73SLPC  H16S 6466   5.240   2.056   5.215  1.0224 -0.8917 -0.8236
   73SLPC  C217 6467   5.207   2.168   5.023 -0.0450 -0.3881  1.0017
   73SLPC  H17R 6468   5.225   2.077   4.963 -0.8868  0.5140 -0.6811
   73SLPC  H17S 6469   5.255   2.249   4.965 -0.5954  0.9329  2.3212
   73SLPC  C218 6470   5.062   2.199   5.021  0.2973  0.2412  0.1013
   73SLPC  H18R 6471   5.038   2.286   5.085  0.1963 -0.8459  1.6070
   73SLPC  H18S 6472   4.990   2.125   5.062  0.0687  0.8845  0.8799
   73SLPC  H18T 6473   5.021   2.230   4.922 -1.5425 -1.3659  0.2843
   73SLPC   C33 6474   5.030   2.730   6.401  0.4143 -0.1410 -0.1073
   73SLPC   H3X 6475   4.930   2.779   6.402  0.9088  0.9178 -0.5941
   73SLPC   H3Y 6476   5.025   2.619   6.401  0.7485 -0.1561 -0.1853
   73SLPC   C34 6477   5.091   2.768   6.263  0.2399  0.2636 -0.2676
   73SLPC   H4X 6478   5.197   2.735   6.264  0.3000  0.4021 -1.1804
   73SLPC   H4Y 6479   5.094   2.879   6.254 -0.8707  0.3846  0.6511
   73SLPC   C35 6480   5.004   2.709   6.146  0.4399  0.4527 -0.7715
   73SLPC   H5X 6481   4.903   2.753   6.159 -0.6131 -1.6639 -1.3122
   73SLPC   H5Y 6482   5.005   2.599   6.157  1.6764  0.5612  0.4738
   73SLPC   C36 6483   5.062   2.744   6.010  0.3627 -0.0256  0.1115
   73SLPC   H6X 6484   5.154   2.685   5.992  0.6752  0.4388  0.1642
   73SLPC   H6Y 6485   5.082   2.853   6.004  0.8411 -0.1056  0.1848
   73SLPC   C37 6486   4.966   2.706   5.898 -0.3631 -0.5705 -0.1308
   73SLPC   H7X 6487   4.862   2.734   5.925  0.5024  2.1584  0.6685
   73SLPC   H7Y 6488   4.969   2.596   5.881  1.0785 -0.9713  2.3181
   73SLPC   C38 6489   5.005   2.780   5.770 -0.0889  0.1056  0.7442
   73SLPC   H8X 6490   5.111   2.774   5.736  0.1518  2.1003  1.0343
   73SLPC   H8Y 6491   5.000   2.888   5.797  1.7136  0.4032  0.0666
   73SLPC   C39 6492   4.908   2.766   5.652 -0.1869  0.0548  0.4249
   73SLPC   H9X 6493   4.802   2.764   5.686 -0.0866 -0.7469  0.7141
   73SLPC   H9Y 6494   4.917   2.660   5.618  1.2129 -0.0652  1.0705
   73SLPC  C310 6495   4.938   2.855   5.535 -1.0495 -0.2947 -0.1511
   73SLPC  H10X 6496   5.049   2.864   5.537 -1.1807  2.0046  0.4235
   73SLPC  H10Y 6497   4.908   2.958   5.564 -1.8673 -0.9495  1.4407
   73SLPC  C311 6498   4.872   2.806   5.406  0.7173 -0.4361 -0.4945
   73SLPC  H11X 6499   4.770   2.763   5.417 -0.0723  1.5866  0.6229
   73SLPC  H11Y 6500   4.934   2.725   5.362 -0.4377 -1.7984  0.3032
   73SLPC  C312 6501   4.866   2.923   5.303 -0.2976 -0.4862 -0.5301
   73SLPC  H12X 6502   4.943   2.897   5.228 -0.3962 -1.0506 -0.4395
   73SLPC  H12Y 6503   4.874   3.026   5.344 -0.8687 -0.5933 -0.1464
   73SLPC  C313 6504   4.740   2.915   5.220  0.3017 -0.7962  0.1256
   73SLPC  H13X 6505   4.731   3.008   5.159 -2.6372 -1.2040 -0.2238
   73SLPC  H13Y 6506   4.643   2.918   5.275 -0.3549 -0.9660 -0.9838
   73SLPC  C314 6507   4.731   2.795   5.129 -0.2029 -1.0137  0.2804
   73SLPC  H14X 6508   4.698   2.713   5.197  0.5857 -0.4737  1.3480
   73SLPC  H14Y 6509   4.826   2.770   5.077  0.5754 -0.0678  1.2036
   73SLPC  C315 6510   4.632   2.810   5.012  0.1329 -0.0987  0.2742
   73SLPC  H15X 6511   4.654   2.901   4.952 -1.0729  0.0170 -0.0217
   73SLPC  H15Y 6512   4.527   2.807   5.048  0.2018  1.5194  0.6889
   73SLPC  C316 6513   4.649   2.692   4.916  0.7346 -0.3438  0.8787
   73SLPC  H16X 6514   4.636   2.602   4.980  0.1873 -0.7218  0.2536
   73SLPC  H16Y 6515   4.748   2.693   4.866 -0.7274  2.0615 -2.3542
   73SLPC  C317 6516   4.543   2.688   4.798 -0.8692  0.3657  0.3613
   73SLPC  H17X 6517   4.571   2.775   4.736  0.1718 -1.7181 -2.3302
   73SLPC  H17Y 6518   4.443   2.708   4.840 -1.3707 -2.6579  0.8838
   73SLPC  C318 6519   4.538   2.562   4.714 -0.0670 -0.4519  0.0533
   73SLPC  H18X 6520   4.459   2.569   4.636 -1.0861 -4.1202  0.6021
   73SLPC  H18Y 6521   4.503   2.479   4.779 -2.7431 -0.1216 -0.8407
   73SLPC  H18Z 6522   4.636   2.546   4.664 -0.2056  0.8145 -0.6729
   74SLPC     N 6523   1.363   1.070   7.190  0.2949  0.3748 -0.0883
   74SLPC   C13 6524   1.215   1.068   7.226  0.5956  0.1018  0.3576
   74SLPC  H13A 6525   1.207   1.053   7.332  1.4110  3.0167  0.9222
   74SLPC  H13B 6526   1.161   1.161   7.214  1.1445  0.2008 -1.9043
   74SLPC  H13C 6527   1.178   0.983   7.171  4.4740 -2.1883  0.8665
   74SLPC   C14 6528   1.430   0.951   7.256 -0.4588 -0.3670 -0.7247
   74SLPC  H14A 6529   1.393   0.862   7.208  0.3954 -0.9536 -0.3208
   74SLPC  H14B 6530   1.534   0.954   7.225 -0.7950  0.2673 -1.8641
   74SLPC  H14C 6531   1.418   0.932   7.362  1.0621 -0.8944 -0.6208
   74SLPC   C15 6532   1.413   1.196   7.250  0.2174 -0.4853  0.3997
   74SLPC  H15A 6533   1.386   1.192   7.354  2.2450 -2.0258  0.9354
   74SLPC  H15B 6534   1.521   1.205   7.256  0.2389 -0.1218 -0.3875
   74SLPC  H15C 6535   1.370   1.287   7.212  1.8992 -0.4197 -1.5636
   74SLPC   C12 6536   1.384   1.062   7.036 -0.2730  0.4739  0.3014
   74SLPC  H12A 6537   1.485   1.088   7.006 -0.5540 -0.4044 -1.5052
   74SLPC  H12B 6538   1.326   1.135   6.982  0.9329  0.7725 -0.6380
   74SLPC   C11 6539   1.360   0.924   6.968  0.2598  0.5672  0.1590
   74SLPC  H11A 6540   1.347   0.945   6.859  1.0873  1.6922  0.2648
   74SLPC  H11B 6541   1.274   0.869   7.013  0.6356 -1.4646 -1.4340
   74SLPC     P 6542   1.599   0.850   6.909  0.3225 -0.2031 -0.6178
   74SLPC   O13 6543   1.647   0.987   6.938 -0.4717  0.0413  0.5333
   74SLPC   O14 6544   1.683   0.732   6.933  0.2280 -0.2415 -0.5318
   74SLPC   O12 6545   1.468   0.840   6.988 -0.0786  0.2400  0.1806
   74SLPC   O11 6546   1.550   0.852   6.758 -0.3108 -0.1711 -0.2691
   74SLPC    C1 6547   1.608   0.945   6.668  0.3184  0.1248  0.6563
   74SLPC    HA 6548   1.714   0.959   6.699 -0.0501 -1.5230  3.0257
   74SLPC    HB 6549   1.614   0.902   6.566 -0.6225  0.9904  0.2197
   74SLPC    C2 6550   1.531   1.083   6.662  0.1200  0.2556  0.7906
   74SLPC    HS 6551   1.499   1.114   6.763  2.6331  2.5529  0.9840
   74SLPC   O21 6552   1.424   1.073   6.576  0.5473  0.1593  0.5940
   74SLPC   C21 6553   1.322   1.159   6.597  0.6320  0.4552  0.1701
   74SLPC   O22 6554   1.308   1.238   6.687 -0.3210 -0.2390  0.2712
   74SLPC   C22 6555   1.211   1.127   6.487  0.1002  0.1590 -0.0393
   74SLPC   H2R 6556   1.270   1.131   6.393  2.6133  2.3646  1.4767
   74SLPC   H2S 6557   1.180   1.021   6.482 -0.9717  0.4799 -0.3400
   74SLPC    C3 6558   1.625   1.190   6.606  0.2966 -0.4304 -0.7206
   74SLPC    HX 6559   1.715   1.180   6.671 -0.4516 -2.7474  0.0397
   74SLPC    HY 6560   1.583   1.293   6.614  1.3346 -0.1196  1.4792
   74SLPC   O31 6561   1.673   1.161   6.473 -0.2399  1.1727 -0.6000
   74SLPC   C31 6562   1.592   1.197   6.377  0.0147 -0.2851  0.6170
   74SLPC   O32 6563   1.495   1.269   6.391  0.0444 -0.0902 -0.9823
   74SLPC   C32 6564   1.637   1.152   6.237 -0.1456 -0.5982  0.1931
   74SLPC   H2X 6565   1.713   1.072   6.244 -0.1249 -0.5746  0.2409
   74SLPC   H2Y 6566   1.687   1.243   6.196 -0.4005 -1.1478 -1.3809
   74SLPC   C23 6567   1.087   1.221   6.489  0.0080 -0.5509  0.2259
   74SLPC   H3R 6568   1.109   1.309   6.425 -2.2790 -1.3984 -1.9196
   74SLPC   H3S 6569   1.052   1.251   6.590  1.9917 -1.8644  1.3675
   74SLPC   C24 6570   0.958   1.157   6.424  0.1171  0.2139 -0.7605
   74SLPC   H4R 6571   0.883   1.235   6.447  0.2923 -0.1470  1.2403
   74SLPC   H4S 6572   0.937   1.068   6.487  1.3957  0.8566  0.6526
   74SLPC   C25 6573   0.974   1.115   6.280  0.1940  0.9701 -0.4527
   74SLPC   H5R 6574   0.882   1.060   6.251  0.1739  0.5620  0.3747
   74SLPC   H5S 6575   1.068   1.055   6.283  0.2959  1.1921  1.4836
   74SLPC   C26 6576   0.982   1.229   6.184 -0.8115  0.3137  0.3695
   74SLPC   H6R 6577   1.067   1.292   6.220  0.7361 -0.7496 -1.2435
   74SLPC   H6S 6578   0.893   1.294   6.195 -0.3534  0.6092  2.9275
   74SLPC   C27 6579   1.019   1.185   6.037  0.5247 -0.2680 -0.2208
   74SLPC   H7R 6580   0.922   1.181   5.984 -0.2800  3.8777  0.5746
   74SLPC   H7S 6581   1.069   1.086   6.041  0.1699 -0.4114  2.7184
   74SLPC   C28 6582   1.109   1.291   5.970 -0.2426 -0.2562 -0.1141
   74SLPC   H8R 6583   1.169   1.247   5.887  0.5542  1.9424 -0.7760
   74SLPC   H8S 6584   1.180   1.320   6.050 -1.7851  0.9822  0.8566
   74SLPC   C29 6585   1.033   1.412   5.925 -0.0305 -0.1528  0.0560
   74SLPC   H9R 6586   1.029   1.489   6.003  0.6953  0.6844 -0.7082
   74SLPC  C210 6587   0.972   1.432   5.803 -0.0865 -0.5345 -0.1083
   74SLPC  H10R 6588   0.934   1.531   5.773  1.6586 -0.5122 -2.5185
   74SLPC  C211 6589   0.975   1.337   5.682 -0.2054 -0.2881  0.4500
   74SLPC  H11R 6590   1.033   1.243   5.697  0.4879  0.4462  2.7061
   74SLPC  H11S 6591   1.038   1.401   5.618  0.9301 -1.4167  0.3947
   74SLPC  C212 6592   0.837   1.323   5.613 -0.4790  0.3708 -0.1351
   74SLPC  H12R 6593   0.749   1.355   5.670 -2.8847 -2.7632 -1.7803
   74SLPC  C213 6594   0.820   1.274   5.489 -0.2960 -0.3220  0.2836
   74SLPC  H13R 6595   0.719   1.284   5.447  0.0616  1.6762 -0.1927
   74SLPC  C214 6596   0.930   1.210   5.405  0.2029  0.2842 -0.3966
   74SLPC  H14R 6597   0.970   1.120   5.455 -0.2909 -0.4329 -1.2615
   74SLPC  H14S 6598   1.011   1.285   5.388 -0.5966  0.9084 -1.5994
   74SLPC  C215 6599   0.882   1.173   5.272 -0.4079 -0.3221  0.0841
   74SLPC  H15R 6600   0.964   1.130   5.210 -1.4262  0.3672 -1.8342
   74SLPC  H15S 6601   0.846   1.267   5.225 -2.7351 -0.2233  1.8930
   74SLPC  C216 6602   0.770   1.062   5.258  0.9321  0.4083 -0.5466
   74SLPC  H16R 6603   0.679   1.118   5.286 -1.5629 -3.3690 -0.3188
   74SLPC  H16S 6604   0.788   0.978   5.329 -2.8344  0.3748  0.5529
   74SLPC  C217 6605   0.751   1.007   5.114  0.3012  0.0275  0.1542
   74SLPC  H17R 6606   0.673   0.929   5.110  3.1354 -3.0082 -2.5775
   74SLPC  H17S 6607   0.836   0.941   5.087 -0.9636 -1.5731 -0.0548
   74SLPC  C218 6608   0.735   1.106   5.004 -0.3772  0.2421 -0.6181
   74SLPC  H18R 6609   0.827   1.163   4.982  0.4498  0.2780  2.4657
   74SLPC  H18S 6610   0.659   1.181   5.034 -0.1168 -0.3652  1.7248
   74SLPC  H18T 6611   0.695   1.066   4.908 -2.4444  3.6677 -1.3545
   74SLPC   C33 6612   1.525   1.119   6.135  0.2795 -0.4165  0.2929
   74SLPC   H3X 6613   1.455   1.205   6.134  0.0582 -0.5898  0.6080
   74SLPC   H3Y 6614   1.459   1.030   6.148 -2.0698  1.0432 -0.8480
   74SLPC   C34 6615   1.577   1.140   5.988 -0.3296  0.2433 -0.2661
   74SLPC   H4X 6616   1.628   1.048   5.955 -1.9435  0.3158 -3.4030
   74SLPC   H4Y 6617   1.649   1.224   5.988 -2.4186  2.1533  0.0278
   74SLPC   C35 6618   1.469   1.178   5.891 -0.3063  0.0409  0.2750
   74SLPC   H5X 6619   1.451   1.287   5.897  1.6509  0.5493 -1.6485
   74SLPC   H5Y 6620   1.380   1.113   5.904  1.2986 -2.3375  0.0988
   74SLPC   C36 6621   1.502   1.166   5.741 -0.4748 -0.5235  0.2803
   74SLPC   H6X 6622   1.508   1.058   5.717 -0.0392 -0.5482  0.4979
   74SLPC   H6Y 6623   1.600   1.212   5.720 -0.4325  1.0781  3.3297
   74SLPC   C37 6624   1.398   1.223   5.641 -0.0953 -0.3392 -0.3521
   74SLPC   H7X 6625   1.395   1.333   5.658  0.3565 -0.5526  1.3673
   74SLPC   H7Y 6626   1.296   1.180   5.654  0.5979 -2.7531 -2.2025
   74SLPC   C38 6627   1.440   1.199   5.499 -0.1867 -0.5255 -0.5559
   74SLPC   H8X 6628   1.461   1.094   5.471  0.1232 -0.6331  0.0681
   74SLPC   H8Y 6629   1.530   1.255   5.465 -0.0845 -1.9400 -2.8419
   74SLPC   C39 6630   1.328   1.249   5.400 -0.4405 -0.6101 -0.2396
   74SLPC   H9X 6631   1.333   1.359   5.391 -0.2138 -0.7509 -2.2214
   74SLPC   H9Y 6632   1.235   1.209   5.446 -0.7365 -0.3875 -0.6412
   74SLPC  C310 6633   1.318   1.189   5.265 -0.2656 -0.3706 -0.1940
   74SLPC  H10X 6634   1.219   1.201   5.217  0.2436  1.1543 -0.9581
   74SLPC  H10Y 6635   1.331   1.079   5.277 -0.6841 -0.2756  1.3125
   74SLPC  C311 6636   1.439   1.241   5.181  0.2969  0.0195  0.2496
   74SLPC  H11X 6637   1.531   1.207   5.234 -1.0028 -2.7115  0.9501
   74SLPC  H11Y 6638   1.433   1.352   5.189  0.0257 -0.0887  2.0453
   74SLPC  C312 6639   1.445   1.187   5.035  0.2975  0.0054 -0.3113
   74SLPC  H12X 6640   1.345   1.212   4.993  0.7813  1.9264 -0.4087
   74SLPC  H12Y 6641   1.465   1.077   5.037  0.0385 -0.0498 -0.5958
   74SLPC  C313 6642   1.548   1.256   4.952  0.3453 -0.4098 -0.1166
   74SLPC  H13X 6643   1.649   1.247   4.996  0.7377  1.0477 -0.6618
   74SLPC  H13Y 6644   1.524   1.364   4.940  0.4404 -0.1683  1.6334
   74SLPC  C314 6645   1.555   1.208   4.807 -0.3724  0.4913 -0.4249
   74SLPC  H14X 6646   1.458   1.248   4.769 -1.0163  0.4981  1.1681
   74SLPC  H14Y 6647   1.555   1.098   4.797  1.6200  0.5150 -1.0022
   74SLPC  C315 6648   1.672   1.263   4.725 -0.7200 -0.5148 -0.1793
   74SLPC  H15X 6649   1.652   1.235   4.619 -1.8433  2.5377 -0.8705
   74SLPC  H15Y 6650   1.766   1.212   4.755 -1.0842 -2.0549 -1.4842
   74SLPC  C316 6651   1.692   1.420   4.735  0.1771  0.4263 -0.6042
   74SLPC  H16X 6652   1.717   1.447   4.839  1.6116 -1.9906 -0.2260
   74SLPC  H16Y 6653   1.591   1.453   4.705 -0.0489  0.4545  0.1790
   74SLPC  C317 6654   1.810   1.463   4.642 -0.1972 -0.5460  0.4329
   74SLPC  H17X 6655   1.760   1.457   4.543  1.2436 -2.9911 -0.2353
   74SLPC  H17Y 6656   1.893   1.388   4.647  0.0398 -0.3445 -0.3413
   74SLPC  C318 6657   1.879   1.600   4.676 -0.0500 -0.0990 -0.5014
   74SLPC  H18X 6658   1.884   1.610   4.786 -0.2593  1.4781 -0.6049
   74SLPC  H18Y 6659   1.825   1.689   4.635 -3.1628 -0.7898  1.7279
   74SLPC  H18Z 6660   1.985   1.604   4.644  0.0233  1.9620 -0.1547
   75SLPC     N 6661   4.943   1.289   6.993  0.5637  0.5555  0.6656
   75SLPC   C13 6662   4.874   1.425   6.970  0.0107 -0.1709 -0.1542
   75SLPC  H13A 6663   4.810   1.433   6.884  1.0361 -0.2917 -0.9503
   75SLPC  H13B 6664   4.813   1.459   7.052 -2.1303 -1.8649 -0.9634
   75SLPC  H13C 6665   4.950   1.499   6.947 -0.8518  1.0290  0.7296
   75SLPC   C14 6666   4.850   1.193   7.053  0.4403  0.2847 -0.3587
   75SLPC  H14A 6667   4.814   1.226   7.149 -0.6429  1.2696 -1.0768
   75SLPC  H14B 6668   4.765   1.178   6.987  1.5101  0.5350 -1.8426
   75SLPC  H14C 6669   4.904   1.102   7.072 -0.3258 -0.0184  0.4392
   75SLPC   C15 6670   5.050   1.306   7.098 -0.0065  0.4048  0.0305
   75SLPC  H15A 6671   5.022   1.336   7.198  0.0824  2.9515 -0.6465
   75SLPC  H15B 6672   5.123   1.227   7.102 -0.8955 -0.3985  2.6796
   75SLPC  H15C 6673   5.111   1.385   7.057 -0.4690  0.0865 -1.3217
   75SLPC   C12 6674   5.008   1.231   6.868 -0.1593 -0.3818  0.1505
   75SLPC  H12A 6675   4.926   1.219   6.798  0.7830  3.3332 -1.8561
   75SLPC  H12B 6676   5.058   1.137   6.886 -0.0378 -0.8004 -2.0744
   75SLPC   C11 6677   5.107   1.320   6.787 -0.4016 -0.4758 -0.3745
   75SLPC  H11A 6678   5.042   1.408   6.766 -0.2758 -0.5166 -0.9533
   75SLPC  H11B 6679   5.133   1.278   6.688  0.5556  1.0255 -0.7844
   75SLPC     P 6680   5.351   1.264   6.871  0.3349  0.1056 -0.5641
   75SLPC   O13 6681   5.468   1.335   6.928 -0.3733 -0.5090  0.6059
   75SLPC   O14 6682   5.303   1.136   6.933  0.0483  0.0526  0.8050
   75SLPC   O12 6683   5.223   1.363   6.855  0.4064 -0.1435 -0.0166
   75SLPC   O11 6684   5.370   1.234   6.717 -0.5207 -0.2009 -0.1133
   75SLPC    C1 6685   5.446   1.126   6.657 -0.4730 -0.0948 -0.0007
   75SLPC    HA 6686   5.406   1.026   6.684 -0.0660 -0.1393  0.4523
   75SLPC    HB 6687   5.440   1.139   6.547 -1.5510  1.3797  0.1978
   75SLPC    C2 6688   5.602   1.138   6.687 -0.0294  0.1475 -0.6138
   75SLPC    HS 6689   5.613   1.088   6.786 -1.0639  0.5662 -0.2711
   75SLPC   O21 6690   5.628   1.276   6.688 -0.8046 -0.3208 -0.4085
   75SLPC   C21 6691   5.738   1.318   6.747  0.4605  0.6465 -0.0868
   75SLPC   O22 6692   5.822   1.247   6.802  0.3099  0.9438 -0.2601
   75SLPC   C22 6693   5.746   1.464   6.720 -0.5474 -0.7320 -0.2450
   75SLPC   H2R 6694   5.658   1.508   6.670 -0.4284  0.4451  0.5539
   75SLPC   H2S 6695   5.758   1.523   6.813  0.5832  0.7295 -1.2580
   75SLPC    C3 6696   5.691   1.060   6.580  0.0200 -0.1544 -0.1091
   75SLPC    HX 6697   5.668   0.951   6.575 -0.5197 -0.1513  1.5168
   75SLPC    HY 6698   5.795   1.072   6.616 -0.5815 -1.1164  2.2028
   75SLPC   O31 6699   5.675   1.122   6.451  0.0292  0.0811  0.4329
   75SLPC   C31 6700   5.727   1.060   6.342 -0.0778 -0.0722  0.3985
   75SLPC   O32 6701   5.803   0.965   6.348 -0.2831  0.6441 -0.1194
   75SLPC   C32 6702   5.672   1.137   6.225  0.7016 -0.0681 -0.4053
   75SLPC   H2X 6703   5.668   1.246   6.244  0.9213  0.4252 -2.7688
   75SLPC   H2Y 6704   5.568   1.099   6.217  0.8990 -0.6979 -0.0042
   75SLPC   C23 6705   5.870   1.498   6.626  0.8909  0.4848  0.5845
   75SLPC   H3R 6706   5.957   1.437   6.658  0.4152 -0.7590 -0.3913
   75SLPC   H3S 6707   5.898   1.606   6.629  0.1094  0.7855 -1.4714
   75SLPC   C24 6708   5.852   1.460   6.476  0.0587 -0.5006  0.0356
   75SLPC   H4R 6709   5.771   1.522   6.434 -0.1539 -0.4079  0.5719
   75SLPC   H4S 6710   5.820   1.354   6.466 -0.7017 -0.1800 -1.0712
   75SLPC   C25 6711   5.985   1.475   6.402 -0.3991 -0.4041 -0.4204
   75SLPC   H5R 6712   6.049   1.399   6.452 -1.0086 -0.9694 -0.4830
   75SLPC   H5S 6713   6.013   1.583   6.409  1.3800 -0.9220  1.5403
   75SLPC   C26 6714   5.971   1.421   6.255  0.1593  0.4784 -0.2427
   75SLPC   H6R 6715   5.895   1.486   6.206  0.5092  0.6118 -0.6082
   75SLPC   H6S 6716   5.934   1.316   6.247 -0.8075  0.7962 -0.1012
   75SLPC   C27 6717   6.101   1.432   6.175 -0.4817 -0.2931  0.1133
   75SLPC   H7R 6718   6.181   1.365   6.212 -1.0931 -1.9246 -1.3235
   75SLPC   H7S 6719   6.141   1.534   6.189 -1.7061  0.3218 -0.6624
   75SLPC   C28 6720   6.080   1.402   6.024  0.0848  0.0528 -0.8894
   75SLPC   H8R 6721   6.026   1.306   6.010 -0.9664 -0.2284  3.7185
   75SLPC   H8S 6722   6.176   1.390   5.968 -0.0982 -0.2543 -1.1418
   75SLPC   C29 6723   6.012   1.514   5.948  0.2099  0.6396 -1.2070
   75SLPC   H9R 6724   5.973   1.590   6.018  0.7612 -0.1582  0.0082
   75SLPC  C210 6725   5.988   1.512   5.820  0.4997 -0.6224  0.2072
   75SLPC  H10R 6726   5.935   1.597   5.776 -1.0850 -0.7308  1.8297
   75SLPC  C211 6727   6.044   1.420   5.716  0.2608  0.1187  0.3060
   75SLPC  H11R 6728   5.986   1.443   5.624  1.5356 -1.7405 -1.0270
   75SLPC  H11S 6729   6.029   1.313   5.743 -1.1436  0.4893  1.1197
   75SLPC  C212 6730   6.191   1.443   5.672  0.3054  0.0428 -0.2461
   75SLPC  H12R 6731   6.257   1.476   5.754 -1.2585  1.2286  0.5930
   75SLPC  C213 6732   6.258   1.413   5.559  0.5231  0.5298 -0.1193
   75SLPC  H13R 6733   6.366   1.433   5.549  0.3336  0.9714 -1.5326
   75SLPC  C214 6734   6.209   1.352   5.431  0.2228  0.3656  0.0913
   75SLPC  H14R 6735   6.099   1.334   5.435  0.3150 -0.3069 -0.2547
   75SLPC  H14S 6736   6.256   1.254   5.411 -1.5950 -0.4338 -0.5075
   75SLPC  C215 6737   6.243   1.453   5.325  0.0024 -0.0211  0.2758
   75SLPC  H15R 6738   6.351   1.480   5.322  0.3889 -1.2188  2.0820
   75SLPC  H15S 6739   6.189   1.548   5.342  0.4876  0.2508  0.3322
   75SLPC  C216 6740   6.199   1.401   5.188  0.0556 -0.6224 -0.0118
   75SLPC  H16R 6741   6.208   1.481   5.111 -0.8020 -0.5796 -0.0724
   75SLPC  H16S 6742   6.091   1.376   5.188 -0.0651 -0.1808 -1.3372
   75SLPC  C217 6743   6.278   1.282   5.134 -0.3371 -0.6302 -0.1328
   75SLPC  H17R 6744   6.257   1.198   5.203  0.0888  1.9044  3.3606
   75SLPC  H17S 6745   6.386   1.305   5.144 -0.8064  2.7637 -1.5110
   75SLPC  C218 6746   6.246   1.240   4.992 -0.3983  0.4209  0.3328
   75SLPC  H18R 6747   6.315   1.154   4.974  0.6257  1.3939 -0.5070
   75SLPC  H18S 6748   6.270   1.321   4.920 -0.8217 -1.0766 -1.5797
   75SLPC  H18T 6749   6.140   1.209   4.983 -0.0930 -0.2091 -1.5804
   75SLPC   C33 6750   5.755   1.114   6.095  0.3109  0.2585 -0.0937
   75SLPC   H3X 6751   5.761   1.006   6.072 -0.2380  0.1637  0.1931
   75SLPC   H3Y 6752   5.854   1.164   6.106 -0.7762  2.2923  1.0815
   75SLPC   C34 6753   5.683   1.169   5.975 -0.0164  0.4318  0.0239
   75SLPC   H4X 6754   5.761   1.166   5.896  0.1765  1.4403  0.1623
   75SLPC   H4Y 6755   5.628   1.265   5.966  2.4076  2.0995  1.6578
   75SLPC   C35 6756   5.578   1.061   5.928 -0.1548 -0.0340 -0.2613
   75SLPC   H5X 6757   5.496   1.067   6.002  0.0228 -0.3372 -0.0382
   75SLPC   H5Y 6758   5.619   0.958   5.921 -2.8025 -1.2022  0.4555
   75SLPC   C36 6759   5.528   1.084   5.784  0.2154  0.7813 -0.2316
   75SLPC   H6X 6760   5.464   1.176   5.787 -0.8795  0.0238  1.9368
   75SLPC   H6Y 6761   5.467   1.000   5.746  1.0482 -0.2354  0.6244
   75SLPC   C37 6762   5.650   1.097   5.689 -1.3162 -0.5778  0.6608
   75SLPC   H7X 6763   5.723   1.022   5.727  0.8843  2.5289  3.1302
   75SLPC   H7Y 6764   5.695   1.197   5.707  0.8288 -1.2609 -0.5688
   75SLPC   C38 6765   5.615   1.072   5.544 -0.2849 -0.2095 -0.3292
   75SLPC   H8X 6766   5.537   1.150   5.525  0.9996  0.5995 -2.6938
   75SLPC   H8Y 6767   5.560   0.976   5.540 -1.4065  0.3035  1.4674
   75SLPC   C39 6768   5.719   1.057   5.431 -0.1879 -0.1456 -0.5330
   75SLPC   H9X 6769   5.664   1.013   5.345  0.8277 -4.5296  0.8020
   75SLPC   H9Y 6770   5.793   0.980   5.460  0.3822  0.3798 -0.5532
   75SLPC  C310 6771   5.787   1.190   5.390 -0.0704 -0.3297 -0.9684
   75SLPC  H10X 6772   5.872   1.174   5.321  1.4703 -0.9087  0.9836
   75SLPC  H10Y 6773   5.837   1.243   5.474 -1.1943  0.6479 -0.8885
   75SLPC  C311 6774   5.684   1.293   5.338 -0.0901  0.2853 -0.2755
   75SLPC  H11X 6775   5.632   1.343   5.423  0.7286  0.4710  0.1236
   75SLPC  H11Y 6776   5.605   1.254   5.270  0.1158  0.0682 -0.3883
   75SLPC  C312 6777   5.761   1.411   5.272  0.0047 -0.2158 -0.6248
   75SLPC  H12X 6778   5.833   1.452   5.346 -3.4729  2.5033  1.6035
   75SLPC  H12Y 6779   5.681   1.479   5.236 -1.7854 -1.6447  0.4317
   75SLPC  C313 6780   5.822   1.366   5.137  0.0870 -0.6335  0.1146
   75SLPC  H13X 6781   5.903   1.290   5.148  1.5217  0.4336 -2.2507
   75SLPC  H13Y 6782   5.881   1.452   5.098  0.7197 -1.1842 -0.1683
   75SLPC  C314 6783   5.726   1.322   5.032  0.4819  0.1932  0.3492
   75SLPC  H14X 6784   5.645   1.396   5.013 -0.6279 -0.9918  0.2826
   75SLPC  H14Y 6785   5.664   1.240   5.074 -1.3480  1.2971 -0.1018
   75SLPC  C315 6786   5.802   1.300   4.900 -0.4743 -0.2803 -0.1624
   75SLPC  H15X 6787   5.890   1.235   4.917  0.1396  1.4013  4.3157
   75SLPC  H15Y 6788   5.844   1.397   4.865  2.1449 -1.3319 -0.1087
   75SLPC  C316 6789   5.711   1.237   4.794  0.6738  0.0013 -0.0035
   75SLPC  H16X 6790   5.613   1.290   4.784 -0.1849 -1.6171 -0.4404
   75SLPC  H16Y 6791   5.689   1.133   4.824 -2.2170  0.3079 -0.6939
   75SLPC  C317 6792   5.773   1.235   4.645 -0.1971  0.5789 -0.2456
   75SLPC  H17X 6793   5.700   1.177   4.585 -0.9538  0.1386  1.0612
   75SLPC  H17Y 6794   5.863   1.170   4.647 -0.9523 -0.5000  2.0637
   75SLPC  C318 6795   5.805   1.373   4.582 -0.6185  0.0901 -0.0552
   75SLPC  H18X 6796   5.865   1.435   4.651 -0.5779  0.2951 -0.2738
   75SLPC  H18Y 6797   5.714   1.436   4.572 -0.1475  0.7785 -0.0849
   75SLPC  H18Z 6798   5.858   1.356   4.486  0.4390  2.6292  0.0162
   76SLPC     N 6799   5.830   5.932   7.046  0.2607 -0.5357 -0.0444
   76SLPC   C13 6800   5.862   5.798   7.105  0.0263  0.5926 -0.6730
   76SLPC  H13A 6801   5.968   5.778   7.101  0.5116  1.6325  3.1209
   76SLPC  H13B 6802   5.837   5.791   7.210 -1.8736  0.7865 -1.0769
   76SLPC  H13C 6803   5.813   5.717   7.054  2.7057 -2.3365  1.0769
   76SLPC   C14 6804   5.935   6.019   7.100 -0.1717  0.1233  0.4806
   76SLPC  H14A 6805   5.907   6.057   7.198 -0.7451 -1.5072  0.9794
   76SLPC  H14B 6806   6.026   5.962   7.106  0.1874  0.6230 -0.2089
   76SLPC  H14C 6807   5.951   6.083   7.015  0.2471 -1.1255 -0.4041
   76SLPC   C15 6808   5.688   5.969   7.085  0.4998  0.0040 -0.5330
   76SLPC  H15A 6809   5.683   6.070   7.046  0.5181  0.8461  1.5115
   76SLPC  H15B 6810   5.610   5.903   7.053  3.4652 -4.5425  0.7072
   76SLPC  H15C 6811   5.691   5.977   7.192 -0.2890  0.2457 -0.5281
   76SLPC   C12 6812   5.845   5.930   6.896  0.0866 -1.1649  0.4543
   76SLPC  H12A 6813   5.778   5.862   6.847 -0.0090  1.0737 -2.8844
   76SLPC  H12B 6814   5.935   5.879   6.866 -1.1839 -1.2644 -3.8821
   76SLPC   C11 6815   5.832   6.063   6.813  0.7609 -0.2349 -0.6625
   76SLPC  H11A 6816   5.736   6.106   6.850  1.1819  0.6745 -0.6166
   76SLPC  H11B 6817   5.829   6.028   6.708  1.1549 -0.7326 -0.5116
   76SLPC     P 6818   6.082   6.147   6.782  0.1642  0.3761  0.3528
   76SLPC   O13 6819   6.146   6.272   6.822 -0.6285 -0.0868 -0.3672
   76SLPC   O14 6820   6.139   6.022   6.839 -0.0907 -0.7349  0.5400
   76SLPC   O12 6821   5.931   6.164   6.825 -0.2501 -0.2896 -0.3334
   76SLPC   O11 6822   6.102   6.132   6.627  0.0727 -0.1695 -0.3005
   76SLPC    C1 6823   6.036   6.223   6.546 -0.7980  0.5815  0.6811
   76SLPC    HA 6824   5.931   6.189   6.550  0.0287 -2.5749 -0.8052
   76SLPC    HB 6825   6.052   6.331   6.564  1.5835  0.4955 -0.4193
   76SLPC    C2 6826   6.078   6.203   6.393  0.4351  0.6882  0.0425
   76SLPC    HS 6827   5.999   6.238   6.323 -0.6255 -1.6460  0.0083
   76SLPC   O21 6828   6.114   6.066   6.365  0.1836  0.0932 -0.0946
   76SLPC   C21 6829   6.012   5.982   6.366  0.8818 -0.4731  0.4739
   76SLPC   O22 6830   5.895   6.010   6.382 -0.5024 -0.6149 -0.3233
   76SLPC   C22 6831   6.052   5.835   6.323 -0.5743  0.0943 -0.0215
   76SLPC   H2R 6832   6.119   5.795   6.403  0.8990 -1.4552 -1.9195
   76SLPC   H2S 6833   5.960   5.775   6.313  0.0938 -1.2303  1.2805
   76SLPC    C3 6834   6.206   6.297   6.353  0.6213  0.6843 -0.0711
   76SLPC    HX 6835   6.281   6.269   6.430  2.3183 -1.0849 -2.2591
   76SLPC    HY 6836   6.158   6.397   6.365  2.4999  1.7449 -1.0333
   76SLPC   O31 6837   6.241   6.275   6.214 -0.3209  0.2107  0.1762
   76SLPC   C31 6838   6.328   6.177   6.194  0.9098  0.0429  0.3794
   76SLPC   O32 6839   6.381   6.105   6.277  0.1541 -0.3532 -0.6417
   76SLPC   C32 6840   6.337   6.167   6.043 -0.7942  0.3866  0.2768
   76SLPC   H2X 6841   6.316   6.268   6.004  0.0681  1.3045  2.0622
   76SLPC   H2Y 6842   6.283   6.082   5.994 -2.1969  0.2972  1.8841
   76SLPC   C23 6843   6.135   5.831   6.185  0.4366 -0.1337 -0.0163
   76SLPC   H3R 6844   6.156   5.723   6.169  3.3016  0.4419 -0.6545
   76SLPC   H3S 6845   6.232   5.885   6.188 -1.4738  3.6792  0.4881
   76SLPC   C24 6846   6.044   5.876   6.064 -0.3856 -0.2143 -0.2172
   76SLPC   H4R 6847   6.035   5.986   6.057  1.8945  0.0247 -0.3776
   76SLPC   H4S 6848   5.942   5.835   6.074 -0.4119  0.2580  1.8458
   76SLPC   C25 6849   6.084   5.827   5.928 -0.1234 -0.8127  0.4190
   76SLPC   H5R 6850   6.098   5.717   5.921 -0.7534 -0.8134 -3.4024
   76SLPC   H5S 6851   6.180   5.875   5.902 -1.1366 -0.1903 -2.6317
   76SLPC   C26 6852   5.990   5.878   5.812  0.8405  0.2625  0.5801
   76SLPC   H6R 6853   5.989   5.987   5.833 -1.8304  0.6404 -1.1525
   76SLPC   H6S 6854   5.890   5.835   5.833  0.4280  1.9100  2.2996
   76SLPC   C27 6855   6.040   5.841   5.674 -0.7555 -0.0533  0.4466
   76SLPC   H7R 6856   5.960   5.853   5.597 -0.2204  1.2204  0.0472
   76SLPC   H7S 6857   6.070   5.735   5.661  3.1554  0.7891  1.1243
   76SLPC   C28 6858   6.162   5.921   5.621 -0.0732 -0.6863  0.4224
   76SLPC   H8R 6859   6.256   5.908   5.679 -0.4550  1.0735  1.5021
   76SLPC   H8S 6860   6.144   6.029   5.641 -2.2861 -1.1221  1.0773
   76SLPC   C29 6861   6.185   5.907   5.479 -0.5056 -0.1451  0.6317
   76SLPC   H9R 6862   6.247   5.820   5.456  1.7350  1.4861  0.1419
   76SLPC  C210 6863   6.134   5.968   5.373  0.0531  0.0223  1.2144
   76SLPC  H10R 6864   6.155   5.933   5.270 -0.8932 -0.1200  1.0615
   76SLPC  C211 6865   6.043   6.089   5.372 -0.1679  0.3491  0.2032
   76SLPC  H11R 6866   6.082   6.154   5.290  0.5096 -0.2477  0.0417
   76SLPC  H11S 6867   6.043   6.153   5.463  1.1611 -1.1238  1.2801
   76SLPC  C212 6868   5.904   6.050   5.345  0.2821 -0.4214 -0.2883
   76SLPC  H12R 6869   5.860   5.978   5.415 -0.6127  0.0971 -0.3003
   76SLPC  C213 6870   5.818   6.095   5.245  0.1905 -0.1586 -0.3607
   76SLPC  H13R 6871   5.713   6.062   5.247  0.8442 -2.5225 -1.3174
   76SLPC  C214 6872   5.849   6.197   5.139  0.1902  0.5690 -0.1167
   76SLPC  H14R 6873   5.866   6.151   5.039 -2.0083 -0.4961 -0.0616
   76SLPC  H14S 6874   5.927   6.260   5.187 -0.0890  1.2044 -0.4782
   76SLPC  C215 6875   5.721   6.281   5.110  0.1308 -0.1756 -1.1055
   76SLPC  H15R 6876   5.746   6.379   5.065  1.6383 -0.5047 -1.0443
   76SLPC  H15S 6877   5.685   6.309   5.211 -0.6376 -3.3764 -0.3940
   76SLPC  C216 6878   5.608   6.217   5.032  0.8509  0.5610  0.7383
   76SLPC  H16R 6879   5.572   6.120   5.072  2.4504 -0.6729 -0.6556
   76SLPC  H16S 6880   5.656   6.181   4.938 -0.5117  1.0340 -0.1728
   76SLPC  C217 6881   5.490   6.306   4.982  0.3634  0.2876 -0.5989
   76SLPC  H17R 6882   5.438   6.337   5.075  0.7087  0.3904 -0.4370
   76SLPC  H17S 6883   5.432   6.248   4.908  0.4513  0.7539 -1.0373
   76SLPC  C218 6884   5.548   6.431   4.908 -0.0392  0.3307  0.0473
   76SLPC  H18R 6885   5.632   6.401   4.842  0.8713  1.4243  0.6518
   76SLPC  H18S 6886   5.599   6.503   4.977 -1.0656  1.0939  0.0360
   76SLPC  H18T 6887   5.468   6.483   4.851 -1.9967  0.1573  2.4544
   76SLPC   C33 6888   6.481   6.147   5.991  0.3055 -0.3538 -0.4494
   76SLPC   H3X 6889   6.510   6.044   6.022 -0.6936  0.0049  1.8816
   76SLPC   H3Y 6890   6.540   6.222   6.049 -1.7189  0.1212  1.1340
   76SLPC   C34 6891   6.493   6.173   5.841 -0.7443  0.3894 -0.3536
   76SLPC   H4X 6892   6.458   6.277   5.823 -1.7392  0.0666 -0.3096
   76SLPC   H4Y 6893   6.434   6.095   5.789 -0.6293 -0.1475  0.3104
   76SLPC   C35 6894   6.636   6.171   5.783  0.0799 -0.4703  0.0254
   76SLPC   H5X 6895   6.687   6.077   5.813  0.5899  0.0973  1.0068
   76SLPC   H5Y 6896   6.699   6.250   5.829 -1.2339  0.6854 -0.0965
   76SLPC   C36 6897   6.625   6.188   5.629 -0.4581 -0.2410 -0.4656
   76SLPC   H6X 6898   6.549   6.115   5.595  0.2024 -1.3512  0.3829
   76SLPC   H6Y 6899   6.721   6.164   5.579 -1.3868 -1.2014 -1.8299
   76SLPC   C37 6900   6.591   6.329   5.587  0.2349 -0.1531 -0.0946
   76SLPC   H7X 6901   6.662   6.407   5.621  0.0179 -0.7143  1.7465
   76SLPC   H7Y 6902   6.485   6.348   5.615  0.7654  1.7014  0.7790
   76SLPC   C38 6903   6.583   6.340   5.432  0.1579  0.0714 -0.8342
   76SLPC   H8X 6904   6.492   6.289   5.394  1.1026 -1.8814 -0.5806
   76SLPC   H8Y 6905   6.673   6.281   5.406  2.5419  2.5940  1.0825
   76SLPC   C39 6906   6.586   6.479   5.379  0.4961  0.1513 -0.2623
   76SLPC   H9X 6907   6.689   6.520   5.393  0.1202  1.8699 -2.1762
   76SLPC   H9Y 6908   6.517   6.537   5.444 -0.0854 -1.5594  0.7387
   76SLPC  C310 6909   6.535   6.484   5.236  0.8128  0.0282 -0.3633
   76SLPC  H10X 6910   6.429   6.451   5.245 -0.3450  2.9494 -1.8490
   76SLPC  H10Y 6911   6.583   6.412   5.166 -1.0383 -0.2661 -1.3838
   76SLPC  C311 6912   6.535   6.627   5.179  0.5267 -0.1660 -0.4318
   76SLPC  H11X 6913   6.581   6.678   5.266  1.0980 -0.4093 -0.5919
   76SLPC  H11Y 6914   6.428   6.656   5.171  0.6539  1.3998  2.2396
   76SLPC  C312 6915   6.620   6.650   5.064 -0.0362 -0.1354 -0.5336
   76SLPC  H12X 6916   6.721   6.608   5.084 -0.0928  0.0314  0.1413
   76SLPC  H12Y 6917   6.643   6.757   5.045 -1.1667  0.3271  0.5600
   76SLPC  C313 6918   6.579   6.587   4.928  0.2526 -0.2387 -0.9311
   76SLPC  H13X 6919   6.570   6.478   4.948 -0.6439  0.1032  0.6815
   76SLPC  H13Y 6920   6.656   6.606   4.849  0.9480  0.0192 -0.2045
   76SLPC  C314 6921   6.448   6.656   4.878  0.0368  0.9255  1.1517
   76SLPC  H14X 6922   6.480   6.754   4.838 -0.5739  0.3282 -0.8973
   76SLPC  H14Y 6923   6.383   6.672   4.966 -1.4678  0.2632  0.1901
   76SLPC  C315 6924   6.378   6.573   4.767 -0.0711  0.1018 -0.2672
   76SLPC  H15X 6925   6.281   6.624   4.747 -0.8938 -0.7430  1.4333
   76SLPC  H15Y 6926   6.365   6.475   4.817  3.4058  0.1674  1.0181
   76SLPC  C316 6927   6.453   6.560   4.629 -0.4149  0.0964 -0.6777
   76SLPC  H16X 6928   6.546   6.508   4.658 -0.6402  0.5746  0.9959
   76SLPC  H16Y 6929   6.477   6.659   4.584  1.1182  0.6786  1.2908
   76SLPC  C317 6930   6.377   6.478   4.526  0.1598 -0.4064  0.2779
   76SLPC  H17X 6931   6.275   6.521   4.522 -0.2024 -1.3135 -0.3335
   76SLPC  H17Y 6932   6.367   6.371   4.555  0.1210 -1.0948 -2.0862
   76SLPC  C318 6933   6.447   6.481   4.390 -0.1697  0.9239 -0.1848
   76SLPC  H18X 6934   6.463   6.583   4.350 -1.0980  1.6054  1.1343
   76SLPC  H18Y 6935   6.402   6.424   4.306  0.2639  1.4672 -0.7953
   76SLPC  H18Z 6936   6.550   6.441   4.406 -1.4909 -2.0742  1.6031
   77SLPC     N 6937   6.483   5.773   6.825  0.2123 -0.2380  0.5992
   77SLPC   C13 6938   6.587   5.744   6.715 -0.3092  0.0195 -0.5158
   77SLPC  H13A 6939   6.592   5.637   6.702  2.2902  0.1795 -1.5795
   77SLPC  H13B 6940   6.580   5.808   6.628  0.1263 -1.4623 -1.6827
   77SLPC  H13C 6941   6.682   5.762   6.763  0.0868 -0.7811 -0.9777
   77SLPC   C14 6942   6.494   5.667   6.927 -0.0310 -0.8056 -0.0513
   77SLPC  H14A 6943   6.400   5.653   6.978  0.5890 -0.2624  1.2652
   77SLPC  H14B 6944   6.506   5.576   6.869 -0.9704 -1.3523  0.5838
   77SLPC  H14C 6945   6.578   5.678   6.994 -0.7116 -1.6920  0.9757
   77SLPC   C15 6946   6.347   5.770   6.767  0.3772 -0.7607  0.0627
   77SLPC  H15A 6947   6.326   5.670   6.734  0.7625 -0.6342 -0.5945
   77SLPC  H15B 6948   6.281   5.802   6.847  2.0296  1.4912  0.6412
   77SLPC  H15C 6949   6.331   5.841   6.688 -2.4011 -1.8103 -0.3953
   77SLPC   C12 6950   6.505   5.919   6.875 -0.4474 -0.3934  0.7328
   77SLPC  H12A 6951   6.433   5.952   6.948 -0.7045 -1.7732  1.1456
   77SLPC  H12B 6952   6.483   5.986   6.794  0.8468 -0.4815  0.2825
   77SLPC   C11 6953   6.646   5.955   6.929  0.4362 -0.2267 -0.6324
   77SLPC  H11A 6954   6.660   6.065   6.937 -3.2210  0.3692 -0.8855
   77SLPC  H11B 6955   6.724   5.926   6.855  1.4270 -0.0877  0.3287
   77SLPC     P 6956   6.803   5.815   7.079 -0.3223 -0.7206  0.3125
   77SLPC   O13 6957   6.900   5.919   7.130  0.0766  0.3967 -0.3194
   77SLPC   O14 6958   6.770   5.707   7.174 -0.7519  0.3796 -0.2624
   77SLPC   O12 6959   6.673   5.904   7.061 -0.2451  0.5136 -0.7071
   77SLPC   O11 6960   6.838   5.754   6.942  0.3237  0.0863 -0.5509
   77SLPC    C1 6961   6.969   5.739   6.900 -0.3300  0.0313 -0.0144
   77SLPC    HA 6962   7.032   5.826   6.929  0.9120 -1.5484  2.3723
   77SLPC    HB 6963   7.016   5.646   6.937  3.8565  1.5889 -0.8346
   77SLPC    C2 6964   6.978   5.727   6.752  0.4012 -0.0357 -0.2008
   77SLPC    HS 6965   7.084   5.746   6.724 -0.3153  1.5064 -2.1014
   77SLPC   O21 6966   6.892   5.817   6.683 -0.0101  0.2330  0.1547
   77SLPC   C21 6967   6.939   5.936   6.658 -0.7002 -0.7142  0.5427
   77SLPC   O22 6968   7.060   5.972   6.673  0.4796 -0.1807 -0.0006
   77SLPC   C22 6969   6.828   6.033   6.617  0.9371 -0.0137  0.5369
   77SLPC   H2R 6970   6.739   5.976   6.583  2.1263 -2.0193  0.6508
   77SLPC   H2S 6971   6.788   6.075   6.712  2.1287 -0.9698  1.4942
   77SLPC    C3 6972   6.944   5.576   6.704  0.2336 -0.6619 -0.2771
   77SLPC    HX 6973   6.839   5.566   6.740  0.5710 -0.2573  0.8719
   77SLPC    HY 6974   6.998   5.495   6.758 -0.0481 -0.0803  0.9162
   77SLPC   O31 6975   6.935   5.556   6.562  0.3738  0.8413  0.2035
   77SLPC   C31 6976   7.039   5.587   6.482  0.0910  0.4658 -0.2372
   77SLPC   O32 6977   7.151   5.608   6.520 -1.4043 -1.0273 -1.2074
   77SLPC   C32 6978   6.991   5.587   6.332  0.4269 -0.4248 -0.8635
   77SLPC   H2X 6979   6.921   5.674   6.334  0.5328 -0.3087  1.7093
   77SLPC   H2Y 6980   6.924   5.501   6.311 -0.0946 -0.1436 -0.4015
   77SLPC   C23 6981   6.871   6.133   6.510 -0.2191 -0.2217 -0.3870
   77SLPC   H3R 6982   6.946   6.201   6.554 -0.0819 -0.6224  0.0012
   77SLPC   H3S 6983   6.785   6.196   6.477  0.7059  1.8069  0.8880
   77SLPC   C24 6984   6.934   6.076   6.390 -0.5288  0.5509  0.4996
   77SLPC   H4R 6985   7.011   6.002   6.419  0.1998  0.3909 -1.6945
   77SLPC   H4S 6986   6.984   6.152   6.325 -1.5213 -1.5205 -2.9587
   77SLPC   C25 6987   6.834   6.011   6.287 -0.2163  0.3639 -0.4360
   77SLPC   H5R 6988   6.743   6.075   6.283 -1.7561 -1.1904  3.7493
   77SLPC   H5S 6989   6.809   5.909   6.324  3.0173 -0.8884 -1.3739
   77SLPC   C26 6990   6.898   5.989   6.154  0.0376  0.3472 -0.2385
   77SLPC   H6R 6991   6.825   5.924   6.101 -0.3942  0.1090  0.6370
   77SLPC   H6S 6992   6.992   5.933   6.172 -0.9079 -1.2364 -0.0457
   77SLPC   C27 6993   6.923   6.117   6.071  0.3370 -0.4806  0.2643
   77SLPC   H7R 6994   7.010   6.174   6.112  0.8989 -1.0459 -0.1178
   77SLPC   H7S 6995   6.831   6.177   6.081 -0.2558 -0.7072 -2.9285
   77SLPC   C28 6996   6.943   6.084   5.916  0.5588  0.7957  0.1063
   77SLPC   H8R 6997   6.943   6.178   5.857 -0.5352  1.4477  1.1133
   77SLPC   H8S 6998   6.858   6.014   5.899  1.7544 -1.1458  1.6935
   77SLPC   C29 6999   7.080   6.012   5.900  0.7190  0.2520 -0.2761
   77SLPC   H9R 7000   7.115   5.963   5.992 -0.5644  1.0741  0.6832
   77SLPC  C210 7001   7.134   5.984   5.780  0.0735  0.1872  0.6087
   77SLPC  H10R 7002   7.222   5.919   5.784  0.3029  0.5019  0.7003
   77SLPC  C211 7003   7.069   6.026   5.645 -0.4053  0.1045 -0.6550
   77SLPC  H11R 7004   6.965   5.992   5.663 -0.0023 -0.3999  0.8825
   77SLPC  H11S 7005   7.116   5.967   5.564 -1.0052 -0.7727 -0.3767
   77SLPC  C212 7006   7.095   6.167   5.616 -0.3686 -0.1380  0.5037
   77SLPC  H12R 7007   7.160   6.216   5.691  0.2709 -2.0219  1.2387
   77SLPC  C213 7008   7.048   6.234   5.511 -0.1918 -0.0314  0.9772
   77SLPC  H13R 7009   7.054   6.344   5.508 -2.0647  0.1132 -2.7224
   77SLPC  C214 7010   6.970   6.184   5.393 -0.1571  0.6526 -0.0808
   77SLPC  H14R 7011   6.864   6.215   5.396 -0.4481 -0.2732 -0.4727
   77SLPC  H14S 7012   6.962   6.073   5.399  0.9609  0.6206  1.4869
   77SLPC  C215 7013   7.033   6.208   5.258  0.4024  0.8132 -0.3894
   77SLPC  H15R 7014   7.119   6.138   5.246 -0.1079 -0.3415  2.0880
   77SLPC  H15S 7015   7.073   6.311   5.249 -0.2831  0.9752 -1.8317
   77SLPC  C216 7016   6.927   6.184   5.149 -0.3029  0.2970  0.0120
   77SLPC  H16R 7017   6.852   6.105   5.173 -1.2452  1.2913  0.4568
   77SLPC  H16S 7018   6.977   6.146   5.058 -2.6692 -0.4159 -1.0605
   77SLPC  C217 7019   6.857   6.314   5.111 -0.4595 -0.0262 -0.6044
   77SLPC  H17R 7020   6.807   6.352   5.203  1.2496  0.8663  0.0090
   77SLPC  H17S 7021   6.787   6.288   5.029 -0.2815 -1.0082 -0.4495
   77SLPC  C218 7022   6.946   6.419   5.053  0.2818  0.2855  0.4368
   77SLPC  H18R 7023   6.890   6.491   4.990 -0.9415  0.4433  1.6521
   77SLPC  H18S 7024   7.027   6.371   4.994  1.4974  1.7278  0.8826
   77SLPC  H18T 7025   6.991   6.474   5.138 -0.1871  1.5365 -0.0999
   77SLPC   C33 7026   7.102   5.607   6.226  0.5779 -0.5238  0.1701
   77SLPC   H3X 7027   7.181   5.533   6.249 -0.5707 -1.6905  0.5434
   77SLPC   H3Y 7028   7.142   5.709   6.244  3.0800 -1.5523  0.7336
   77SLPC   C34 7029   7.062   5.597   6.076 -0.2224 -0.4349 -0.1625
   77SLPC   H4X 7030   6.989   5.680   6.063 -0.3046 -0.3704  0.6393
   77SLPC   H4Y 7031   7.004   5.503   6.065 -3.5135  1.4458 -0.4330
   77SLPC   C35 7032   7.161   5.604   5.956 -0.3282 -0.4349  0.0658
   77SLPC   H5X 7033   7.233   5.519   5.961  2.0861  1.5380  1.6411
   77SLPC   H5Y 7034   7.217   5.699   5.970 -0.0191 -0.6253  0.1463
   77SLPC   C36 7035   7.076   5.605   5.830 -0.0203 -0.1278  0.0438
   77SLPC   H6X 7036   7.004   5.689   5.833 -0.5190 -0.5091 -0.8090
   77SLPC   H6Y 7037   7.021   5.508   5.823 -0.6439  0.2779 -0.7570
   77SLPC   C37 7038   7.162   5.636   5.710  0.0959  0.1740 -0.0715
   77SLPC   H7X 7039   7.219   5.541   5.704  0.5261  0.3664  0.7470
   77SLPC   H7Y 7040   7.244   5.710   5.723  0.4278 -0.1973 -0.0282
   77SLPC   C38 7041   7.096   5.655   5.579  0.2443  0.2763 -0.6043
   77SLPC   H8X 7042   7.092   5.762   5.552  2.8193  0.0050 -2.5064
   77SLPC   H8Y 7043   6.992   5.617   5.564 -0.1420  1.1408 -0.1568
   77SLPC   C39 7044   7.177   5.604   5.453  0.4577  0.6489  0.2784
   77SLPC   H9X 7045   7.152   5.496   5.449  1.9271  0.3456 -1.7492
   77SLPC   H9Y 7046   7.287   5.610   5.465  1.0000 -2.0261 -2.4317
   77SLPC  C310 7047   7.146   5.676   5.321  1.3171 -0.1766 -0.3191
   77SLPC  H10X 7048   7.044   5.718   5.337  1.3969  0.0893 -0.4994
   77SLPC  H10Y 7049   7.142   5.600   5.240  1.9309 -0.9532  0.3597
   77SLPC  C311 7050   7.241   5.787   5.288 -0.7876  0.3195 -0.2854
   77SLPC  H11X 7051   7.346   5.754   5.303 -1.0900 -0.3543  0.4608
   77SLPC  H11Y 7052   7.223   5.863   5.367  0.0683 -1.3478  1.6106
   77SLPC  C312 7053   7.226   5.854   5.151  0.1652 -0.3715 -0.1739
   77SLPC  H12X 7054   7.120   5.886   5.156  0.2996 -0.0727  1.0137
   77SLPC  H12Y 7055   7.232   5.780   5.068  0.2314 -0.6914  0.1138
   77SLPC  C313 7056   7.318   5.977   5.129 -0.0064  0.7382 -0.5223
   77SLPC  H13X 7057   7.422   5.943   5.145 -0.9403 -1.1505  2.4166
   77SLPC  H13Y 7058   7.313   6.050   5.212  0.4812  0.2282 -0.0401
   77SLPC  C314 7059   7.289   6.055   4.998  0.3624  0.4915  0.2144
   77SLPC  H14X 7060   7.188   6.095   4.976  0.1640 -0.8107 -1.4365
   77SLPC  H14Y 7061   7.305   5.985   4.913 -0.7333  0.7433 -0.2107
   77SLPC  C315 7062   7.385   6.165   4.960 -0.9866 -0.6793  0.4132
   77SLPC  H15X 7063   7.489   6.134   4.983 -0.2045  2.7897  2.2630
   77SLPC  H15Y 7064   7.363   6.249   5.029 -0.0138 -0.8305  0.9170
   77SLPC  C316 7065   7.370   6.212   4.817  0.1269 -0.2723  0.0414
   77SLPC  H16X 7066   7.378   6.128   4.745 -1.8009  1.1940 -2.0431
   77SLPC  H16Y 7067   7.453   6.279   4.786 -1.3402  0.3374 -2.9448
   77SLPC  C317 7068   7.241   6.284   4.787 -0.5992 -0.2068 -0.4871
   77SLPC  H17X 7069   7.234   6.373   4.853 -0.4406  0.2455 -1.0725
   77SLPC  H17Y 7070   7.152   6.222   4.810  0.4071 -0.6937  2.4241
   77SLPC  C318 7071   7.207   6.317   4.641  0.1521 -0.4701 -0.5779
   77SLPC  H18X 7072   7.181   6.226   4.583 -1.4120 -0.4242  0.0138
   77SLPC  H18Y 7073   7.290   6.367   4.586  0.2697 -0.0798 -0.0498
   77SLPC  H18Z 7074   7.118   6.382   4.635  0.0746 -0.5228 -0.0975
   78SLPC     N 7075   3.393   5.919   6.634 -1.1176  0.2460 -0.4587
   78SLPC   C13 7076   3.280   5.979   6.709  0.3731 -0.5605  0.3978
   78SLPC  H13A 7077   3.298   6.075   6.756 -1.1102 -0.2248  0.3267
   78SLPC  H13B 7078   3.204   5.991   6.634  1.7837 -1.1897 -1.1902
   78SLPC  H13C 7079   3.246   5.919   6.792  1.7417 -1.3809  0.3926
   78SLPC   C14 7080   3.489   5.866   6.736  0.1137  0.1077  0.1065
   78SLPC  H14A 7081   3.523   5.951   6.794  1.7424 -0.0651 -0.5512
   78SLPC  H14B 7082   3.449   5.792   6.803  0.9576  1.0447  1.6998
   78SLPC  H14C 7083   3.583   5.836   6.692  0.0160  1.7408 -1.3308
   78SLPC   C15 7084   3.473   6.028   6.565  0.5133 -0.6117 -0.5298
   78SLPC  H15A 7085   3.504   6.112   6.625 -1.8202  2.2815 -3.0715
   78SLPC  H15B 7086   3.562   5.997   6.511  0.9776 -1.2627  0.5721
   78SLPC  H15C 7087   3.405   6.070   6.493  0.9655 -2.9191 -2.4273
   78SLPC   C12 7088   3.346   5.808   6.537  1.0277 -0.2118  0.3355
   78SLPC  H12A 7089   3.311   5.728   6.599 -1.5862 -1.2382 -2.2143
   78SLPC  H12B 7090   3.431   5.771   6.482  0.9010  1.4191 -1.0618
   78SLPC   C11 7091   3.240   5.847   6.430 -0.3410  0.1577  0.3578
   78SLPC  H11A 7092   3.225   5.765   6.357  0.3775 -0.4829  0.9189
   78SLPC  H11B 7093   3.290   5.922   6.365  1.3869 -3.5591 -3.0643
   78SLPC     P 7094   2.985   5.809   6.509  0.0397 -0.1380 -0.1372
   78SLPC   O13 7095   3.018   5.672   6.532 -0.2605  0.4836  0.3683
   78SLPC   O14 7096   2.903   5.877   6.610  0.2520  0.3360 -0.0143
   78SLPC   O12 7097   3.116   5.892   6.480 -0.3016 -0.2429 -0.3527
   78SLPC   O11 7098   2.914   5.814   6.368 -0.2352 -0.2082  0.3236
   78SLPC    C1 7099   2.898   5.944   6.313 -0.1494 -0.8869 -0.4150
   78SLPC    HA 7100   2.814   5.990   6.369  1.6941  0.8952  1.0493
   78SLPC    HB 7101   2.981   6.016   6.330  0.1244 -1.5585  1.2816
   78SLPC    C2 7102   2.874   5.947   6.158 -0.2676  0.1608  0.3218
   78SLPC    HS 7103   2.794   5.879   6.124  2.3523 -1.7829 -2.5188
   78SLPC   O21 7104   2.988   5.925   6.079 -0.6504 -0.3091 -0.0193
   78SLPC   C21 7105   3.044   5.804   6.088  0.1326 -0.1362 -0.1548
   78SLPC   O22 7106   2.995   5.706   6.142  0.0751  0.3919 -0.1192
   78SLPC   C22 7107   3.174   5.793   6.014  0.2646  0.1107  0.1095
   78SLPC   H2R 7108   3.196   5.888   5.962  0.3189  1.4077  2.4125
   78SLPC   H2S 7109   3.251   5.785   6.094  0.1454  0.4605  0.2583
   78SLPC    C3 7110   2.820   6.090   6.116  0.5365  0.7187 -0.1711
   78SLPC    HX 7111   2.891   6.172   6.140  1.4765  0.1139 -0.8267
   78SLPC    HY 7112   2.723   6.109   6.168 -0.9358  0.6763 -2.7237
   78SLPC   O31 7113   2.790   6.085   5.977  0.2233 -0.8968  0.4592
   78SLPC   C31 7114   2.713   6.180   5.928  0.1423 -0.3707  0.5458
   78SLPC   O32 7115   2.653   6.267   5.988 -0.3367  0.2456  0.6346
   78SLPC   C32 7116   2.695   6.145   5.778  0.7972  0.5325 -1.2609
   78SLPC   H2X 7117   2.658   6.042   5.759  2.6470 -0.4619  0.2075
   78SLPC   H2Y 7118   2.795   6.144   5.730  0.9678  1.1892 -0.9334
   78SLPC   C23 7119   3.172   5.679   5.914  0.1699  0.1836 -0.9192
   78SLPC   H3R 7120   3.158   5.584   5.970 -1.3374  1.6156  1.3115
   78SLPC   H3S 7121   3.274   5.678   5.871  0.8509 -0.5105  0.6315
   78SLPC   C24 7122   3.066   5.706   5.809  0.5481 -0.5035  0.4005
   78SLPC   H4R 7123   2.963   5.681   5.842  0.4346 -1.2090 -0.4391
   78SLPC   H4S 7124   3.084   5.632   5.728  0.1364  0.7049 -0.8464
   78SLPC   C25 7125   3.059   5.851   5.746 -0.2205 -0.4079 -0.7193
   78SLPC   H5R 7126   3.154   5.878   5.696  0.6372  0.5311  1.2817
   78SLPC   H5S 7127   3.040   5.926   5.826 -0.2549  0.5829 -1.6381
   78SLPC   C26 7128   2.943   5.860   5.648 -0.8784  0.2880  0.7558
   78SLPC   H6R 7129   2.931   5.968   5.621 -3.1972 -0.2721 -0.7505
   78SLPC   H6S 7130   2.847   5.838   5.700 -1.7669  1.5303 -0.2778
   78SLPC   C27 7131   2.959   5.777   5.522  0.0314  0.6055 -1.0413
   78SLPC   H7R 7132   2.973   5.669   5.544  1.3603  0.7850 -0.9327
   78SLPC   H7S 7133   3.058   5.802   5.479 -1.5264 -1.6583 -6.9346
   78SLPC   C28 7134   2.853   5.792   5.414 -0.0606 -0.3153 -0.6091
   78SLPC   H8R 7135   2.902   5.763   5.319  0.5867  0.5333 -0.5412
   78SLPC   H8S 7136   2.829   5.901   5.409  1.1141 -0.0015  0.2998
   78SLPC   C29 7137   2.729   5.715   5.446  0.2525 -0.9164 -0.2018
   78SLPC   H9R 7138   2.699   5.721   5.552  1.7499  0.7140  0.1773
   78SLPC  C210 7139   2.655   5.649   5.354 -0.2679  0.8459 -0.3025
   78SLPC  H10R 7140   2.583   5.578   5.398  2.4990 -1.7246  0.4353
   78SLPC  C211 7141   2.676   5.617   5.204 -0.1773  0.1608 -0.9897
   78SLPC  H11R 7142   2.771   5.658   5.162 -0.4559  2.6331  0.6144
   78SLPC  H11S 7143   2.589   5.674   5.167 -2.0594 -1.9042  0.0079
   78SLPC  C212 7144   2.672   5.470   5.176  0.8518  0.0602 -0.7241
   78SLPC  H12R 7145   2.771   5.426   5.195  0.5233 -0.1449  0.6368
   78SLPC  C213 7146   2.569   5.390   5.135 -0.4529 -0.4378 -0.8275
   78SLPC  H13R 7147   2.589   5.283   5.153  0.1280 -0.0442  1.1927
   78SLPC  C214 7148   2.429   5.429   5.112 -0.2890 -0.3496 -0.1171
   78SLPC  H14R 7149   2.412   5.524   5.057 -2.9111 -0.7343 -0.1054
   78SLPC  H14S 7150   2.387   5.440   5.215  1.5434 -0.4707  0.6706
   78SLPC  C215 7151   2.327   5.343   5.031  0.1901 -0.1334 -0.0796
   78SLPC  H15R 7152   2.225   5.385   5.042  0.2080 -0.2481  0.6269
   78SLPC  H15S 7153   2.317   5.242   5.077  1.7985 -0.4022 -0.2801
   78SLPC  C216 7154   2.355   5.330   4.879  0.2610  0.1506 -0.1730
   78SLPC  H16R 7155   2.388   5.431   4.844  3.0904  0.3192  2.5401
   78SLPC  H16S 7156   2.260   5.304   4.829  1.6490 -2.4100 -1.7059
   78SLPC  C217 7157   2.461   5.236   4.822  0.0756  0.0608 -0.1676
   78SLPC  H17R 7158   2.541   5.218   4.897  1.2180 -1.6007 -1.7032
   78SLPC  H17S 7159   2.499   5.281   4.729  1.4175  0.6796  0.6586
   78SLPC  C218 7160   2.399   5.101   4.785  0.1716  0.4770 -0.3596
   78SLPC  H18R 7161   2.339   5.049   4.862  2.7477 -2.8313 -0.3520
   78SLPC  H18S 7162   2.469   5.018   4.761 -1.2889 -0.9355  0.0704
   78SLPC  H18T 7163   2.345   5.116   4.689  0.7859  0.5403 -0.7022
   78SLPC   C33 7164   2.591   6.239   5.712  0.0935 -0.0563  0.5926
   78SLPC   H3X 7165   2.605   6.345   5.741 -2.3496  0.9665 -1.6018
   78SLPC   H3Y 7166   2.488   6.205   5.736  0.2043 -2.1082 -1.4998
   78SLPC   C34 7167   2.600   6.231   5.565  0.5962 -0.4915 -0.2130
   78SLPC   H4X 7168   2.705   6.238   5.529  0.3560  0.4375 -0.7945
   78SLPC   H4Y 7169   2.554   6.317   5.511 -2.7245 -1.6987  0.4846
   78SLPC   C35 7170   2.550   6.109   5.501 -0.0496  0.6638  0.1273
   78SLPC   H5X 7171   2.460   6.078   5.557  0.6349  2.3986  2.3312
   78SLPC   H5Y 7172   2.623   6.025   5.508 -2.0671 -1.1058  0.6902
   78SLPC   C36 7173   2.518   6.130   5.357  0.4844  0.2025 -0.4939
   78SLPC   H6X 7174   2.606   6.160   5.295  0.7260 -0.8456 -0.6796
   78SLPC   H6Y 7175   2.434   6.202   5.344  0.3271 -0.0263 -0.7669
   78SLPC   C37 7176   2.452   6.006   5.294 -0.3994 -0.5006 -0.2942
   78SLPC   H7X 7177   2.356   5.982   5.343 -0.7333  0.2950 -0.5443
   78SLPC   H7Y 7178   2.514   5.914   5.303 -0.9626 -0.7761  0.9762
   78SLPC   C38 7179   2.428   6.020   5.144  0.6189  0.3377 -0.2823
   78SLPC   H8X 7180   2.530   6.016   5.100  1.2151 -1.0472  1.1486
   78SLPC   H8Y 7181   2.373   6.114   5.122  0.1454 -0.1123 -1.0535
   78SLPC   C39 7182   2.348   5.903   5.092 -0.3031 -0.4602 -0.7427
   78SLPC   H9X 7183   2.249   5.911   5.142  0.6025  1.3943  0.8845
   78SLPC   H9Y 7184   2.396   5.804   5.109  0.0852 -0.3221 -1.0037
   78SLPC  C310 7185   2.316   5.898   4.940  0.2624 -0.2244  0.1520
   78SLPC  H10X 7186   2.414   5.901   4.887  1.0335 -1.2246  1.4905
   78SLPC  H10Y 7187   2.248   5.981   4.911 -0.4036 -0.6273  0.5627
   78SLPC  C311 7188   2.267   5.763   4.898  0.3193  0.3252 -0.1499
   78SLPC  H11X 7189   2.185   5.732   4.965  1.0435 -0.0454  0.5779
   78SLPC  H11Y 7190   2.347   5.687   4.910 -1.1517 -1.1078  1.1031
   78SLPC  C312 7191   2.203   5.775   4.759  0.0623 -0.5357  0.4732
   78SLPC  H12X 7192   2.283   5.802   4.687 -1.1611 -1.5968 -1.3446
   78SLPC  H12Y 7193   2.129   5.857   4.758 -0.1203 -0.7034 -0.4485
   78SLPC  C313 7194   2.127   5.647   4.714 -0.5064  0.7573  0.3145
   78SLPC  H13X 7195   2.063   5.608   4.796  0.4340 -1.1131  0.2096
   78SLPC  H13Y 7196   2.210   5.578   4.687 -1.2507 -0.0355  0.0335
   78SLPC  C314 7197   2.049   5.658   4.581  0.3423 -0.8658  0.2977
   78SLPC  H14X 7198   2.004   5.562   4.549 -1.8082  0.6662 -1.6153
   78SLPC  H14Y 7199   2.112   5.688   4.495 -0.3737  0.4946  0.2173
   78SLPC  C315 7200   1.928   5.754   4.589  0.3904  0.1286  0.4724
   78SLPC  H15X 7201   1.882   5.771   4.489 -0.2387  0.6117  0.8394
   78SLPC  H15Y 7202   1.945   5.858   4.625  0.6132  0.5721 -0.8300
   78SLPC  C316 7203   1.813   5.682   4.672  0.3704 -0.1345 -0.1486
   78SLPC  H16X 7204   1.864   5.657   4.767 -2.4030  2.6773  2.3090
   78SLPC  H16Y 7205   1.770   5.594   4.618 -1.4779  0.3600  0.4206
   78SLPC  C317 7206   1.706   5.784   4.716 -0.3196  0.2767  0.0393
   78SLPC  H17X 7207   1.655   5.820   4.624  2.7230  1.6978 -1.2119
   78SLPC  H17Y 7208   1.751   5.869   4.771 -3.1355  3.0187 -1.5712
   78SLPC  C318 7209   1.607   5.732   4.825 -0.2572  0.3745  0.5967
   78SLPC  H18X 7210   1.520   5.689   4.771  0.0799 -0.9348  1.0574
   78SLPC  H18Y 7211   1.576   5.819   4.886  0.4330 -0.0164  1.5343
   78SLPC  H18Z 7212   1.656   5.661   4.895  0.3354  1.9662  1.8371
   79SLPC     N 7213   1.476   5.255   6.780  0.3664 -0.5214 -0.2247
   79SLPC   C13 7214   1.619   5.242   6.826  0.2816 -0.0065 -0.3102
   79SLPC  H13A 7215   1.694   5.222   6.752  1.7100 -2.6410  1.6730
   79SLPC  H13B 7216   1.652   5.329   6.881 -0.8676  0.1061  0.2383
   79SLPC  H13C 7217   1.629   5.150   6.882  2.7118  0.3616 -0.0585
   79SLPC   C14 7218   1.392   5.218   6.898 -0.1323 -0.6117  0.7951
   79SLPC  H14A 7219   1.417   5.114   6.911  0.7630 -0.3587  1.2192
   79SLPC  H14B 7220   1.420   5.285   6.978  0.4813  1.3792 -0.9944
   79SLPC  H14C 7221   1.287   5.235   6.881  0.2752  0.5348 -0.8040
   79SLPC   C15 7222   1.439   5.165   6.658  0.2362 -0.5540  0.4187
   79SLPC  H15A 7223   1.336   5.176   6.627  0.3064 -2.1100 -0.4331
   79SLPC  H15B 7224   1.500   5.193   6.573 -0.2314 -0.5578  0.0811
   79SLPC  H15C 7225   1.451   5.061   6.681 -0.3064 -0.6244  0.3965
   79SLPC   C12 7226   1.455   5.407   6.747 -0.8710  0.2130 -0.1129
   79SLPC  H12A 7227   1.535   5.457   6.695 -0.0522  0.2864  1.1657
   79SLPC  H12B 7228   1.474   5.456   6.841  0.5454  1.4567 -1.0073
   79SLPC   C11 7229   1.319   5.451   6.689 -0.1899  0.1581  0.6798
   79SLPC  H11A 7230   1.294   5.407   6.590 -1.7340  2.0673  0.1619
   79SLPC  H11B 7231   1.324   5.557   6.655 -2.6645  0.7461  1.9028
   79SLPC     P 7232   1.157   5.518   6.879  0.2331  0.4406 -0.1065
   79SLPC   O13 7233   1.065   5.440   6.959 -0.4168  0.0430 -0.0695
   79SLPC   O14 7234   1.266   5.587   6.951 -0.0064  0.0169 -0.2331
   79SLPC   O12 7235   1.211   5.427   6.770 -0.1293  0.4361 -0.1353
   79SLPC   O11 7236   1.066   5.626   6.802 -0.3924  0.2764  0.1097
   79SLPC    C1 7237   0.974   5.596   6.690  0.1185  0.0445 -0.2468
   79SLPC    HA 7238   0.984   5.492   6.652  0.3693 -1.4913  3.5885
   79SLPC    HB 7239   0.868   5.608   6.720  0.7361  2.2153  1.2953
   79SLPC    C2 7240   1.007   5.696   6.571 -0.1944 -0.1209 -0.2004
   79SLPC    HS 7241   1.111   5.663   6.549 -0.7595 -0.9650 -1.7177
   79SLPC   O21 7242   0.987   5.830   6.610 -0.1218  0.6410 -0.1378
   79SLPC   C21 7243   1.078   5.913   6.559  0.0919 -0.4139  0.5188
   79SLPC   O22 7244   1.168   5.874   6.485 -0.1250 -0.6184 -0.4892
   79SLPC   C22 7245   1.043   6.054   6.609  0.3024 -0.2051  0.7353
   79SLPC   H2R 7246   0.939   6.050   6.648  0.2961 -2.0784  0.6430
   79SLPC   H2S 7247   1.100   6.074   6.702 -1.1707  1.5869  1.3255
   79SLPC    C3 7248   0.932   5.667   6.435  0.1924 -0.2934  1.1630
   79SLPC    HX 7249   0.824   5.696   6.438  0.0678 -0.7831  1.5717
   79SLPC    HY 7250   0.921   5.557   6.427 -2.4571  0.0142 -1.2779
   79SLPC   O31 7251   0.999   5.727   6.321 -0.8773  0.2316  0.2650
   79SLPC   C31 7252   1.075   5.642   6.249  0.2058  0.0011  0.2480
   79SLPC   O32 7253   1.099   5.531   6.287 -0.1283 -0.2061 -0.8950
   79SLPC   C32 7254   1.111   5.705   6.112 -0.4645 -0.1331  0.0711
   79SLPC   H2X 7255   1.222   5.706   6.107 -0.4268  0.0743  0.7694
   79SLPC   H2Y 7256   1.073   5.809   6.107 -1.1821 -0.1772  2.8304
   79SLPC   C23 7257   1.059   6.163   6.496 -0.2553  0.3293 -0.3099
   79SLPC   H3R 7258   1.148   6.157   6.430  0.5246  0.6291  0.6895
   79SLPC   H3S 7259   1.079   6.252   6.559  0.1001 -0.1030  0.2019
   79SLPC   C24 7260   0.928   6.173   6.407 -0.2383  0.6257  0.3677
   79SLPC   H4R 7261   0.926   6.264   6.343  2.4190  0.8912  0.5682
   79SLPC   H4S 7262   0.840   6.173   6.476 -0.8813 -0.4645 -0.4198
   79SLPC   C25 7263   0.934   6.054   6.313 -0.0717 -0.4775  0.3637
   79SLPC   H5R 7264   0.886   5.970   6.367  1.1775  0.0223  2.3697
   79SLPC   H5S 7265   1.038   6.033   6.282 -0.2422 -0.0635 -0.5185
   79SLPC   C26 7266   0.865   6.086   6.186  0.0242 -0.4556  0.3589
   79SLPC   H6R 7267   0.940   6.120   6.111  0.8844 -0.3554  1.2540
   79SLPC   H6S 7268   0.789   6.167   6.200 -1.0410 -1.2961 -0.4195
   79SLPC   C27 7269   0.782   5.969   6.134 -0.2272  0.4465 -0.1186
   79SLPC   H7R 7270   0.706   5.939   6.210 -0.6925  0.2304 -0.6636
   79SLPC   H7S 7271   0.853   5.886   6.113 -1.7243 -0.7045 -0.8847
   79SLPC   C28 7272   0.716   5.992   5.999 -0.2772 -0.1367  0.1412
   79SLPC   H8R 7273   0.793   6.021   5.924  0.2790 -1.0814  0.3253
   79SLPC   H8S 7274   0.650   6.080   6.013 -0.4127 -0.0985 -0.6928
   79SLPC   C29 7275   0.630   5.878   5.960  0.1233  0.2527  0.3755
   79SLPC   H9R 7276   0.600   5.798   6.029 -0.5769  0.7567  0.6640
   79SLPC  C210 7277   0.612   5.855   5.827  0.5180 -0.6439 -0.1477
   79SLPC  H10R 7278   0.535   5.779   5.806 -0.8707  0.8887 -0.8309
   79SLPC  C211 7279   0.656   5.950   5.718  0.5949  0.6008  0.2176
   79SLPC  H11R 7280   0.765   5.956   5.698  0.3716  1.9251 -0.7736
   79SLPC  H11S 7281   0.636   6.054   5.752 -2.1809  0.0697  0.4578
   79SLPC  C212 7282   0.583   5.919   5.582 -0.0292  0.6330 -0.1424
   79SLPC  H12R 7283   0.503   5.843   5.578  2.4283 -2.0885 -0.2398
   79SLPC  C213 7284   0.618   5.987   5.466  0.8269 -0.4258  0.0468
   79SLPC  H13R 7285   0.546   5.969   5.385  0.9722  1.1267 -0.4573
   79SLPC  C214 7286   0.719   6.100   5.450 -0.3562 -0.3836  0.3025
   79SLPC  H14R 7287   0.776   6.091   5.355  0.4237  3.2980  0.2828
   79SLPC  H14S 7288   0.777   6.109   5.545 -3.8976  2.8513  2.4320
   79SLPC  C215 7289   0.663   6.252   5.435 -0.1619 -0.4139 -0.2877
   79SLPC  H15R 7290   0.753   6.316   5.443  1.2622 -2.4421  1.2719
   79SLPC  H15S 7291   0.591   6.275   5.517  0.6202 -0.6805  0.4892
   79SLPC  C216 7292   0.567   6.282   5.309 -0.1843 -0.0538 -0.1350
   79SLPC  H16R 7293   0.467   6.235   5.324  0.2125 -0.4103  1.6106
   79SLPC  H16S 7294   0.614   6.236   5.219 -0.7494 -0.6552 -0.1385
   79SLPC  C217 7295   0.547   6.434   5.278  0.2951  0.1272 -0.6633
   79SLPC  H17R 7296   0.480   6.431   5.189 -0.1746  0.7804 -0.3387
   79SLPC  H17S 7297   0.652   6.465   5.259 -0.1154  1.9915 -0.1095
   79SLPC  C218 7298   0.492   6.527   5.392 -0.0249 -0.2900 -0.3111
   79SLPC  H18R 7299   0.453   6.621   5.347 -0.9101 -0.5923 -0.1985
   79SLPC  H18S 7300   0.558   6.530   5.481 -1.9320  1.2955  1.1590
   79SLPC  H18T 7301   0.401   6.477   5.432 -1.9420  2.1629 -1.3071
   79SLPC   C33 7302   1.063   5.625   5.992 -1.1188  0.1355 -0.4474
   79SLPC   H3X 7303   0.954   5.602   6.002 -0.4642 -2.5251  2.2436
   79SLPC   H3Y 7304   1.132   5.538   5.994 -1.1019  0.0371 -2.7195
   79SLPC   C34 7305   1.089   5.690   5.857  0.0620  0.4063  0.7928
   79SLPC   H4X 7306   1.196   5.695   5.827  0.4234  2.9414  2.2136
   79SLPC   H4Y 7307   1.058   5.796   5.865 -1.1766  0.1996 -0.7430
   79SLPC   C35 7308   1.006   5.636   5.743  0.2796  0.0305  0.2301
   79SLPC   H5X 7309   0.902   5.611   5.772 -0.5876  2.3035 -0.6877
   79SLPC   H5Y 7310   1.057   5.542   5.711 -2.7597 -1.6077 -0.2103
   79SLPC   C36 7311   1.008   5.726   5.618  0.3593  0.1128 -0.1112
   79SLPC   H6X 7312   1.114   5.752   5.597  0.2119  0.5429 -0.3293
   79SLPC   H6Y 7313   0.955   5.820   5.646 -1.3075 -1.0190  0.7656
   79SLPC   C37 7314   0.934   5.674   5.502  0.4062  0.2152  0.2304
   79SLPC   H7X 7315   0.830   5.655   5.533  1.1954 -1.0419  2.3277
   79SLPC   H7Y 7316   0.965   5.572   5.468  0.3497  0.3058 -0.0969
   79SLPC   C38 7317   0.941   5.765   5.379  0.4542  0.9777 -0.3414
   79SLPC   H8X 7318   1.045   5.795   5.354 -0.0063  2.2012 -0.8904
   79SLPC   H8Y 7319   0.888   5.858   5.407  0.7251  1.2149 -0.6073
   79SLPC   C39 7320   0.857   5.709   5.265 -0.5065 -0.1667  0.0788
   79SLPC   H9X 7321   0.756   5.701   5.311 -1.2088  0.5951 -1.2592
   79SLPC   H9Y 7322   0.888   5.607   5.234 -1.3403 -0.9308  1.6395
   79SLPC  C310 7323   0.866   5.802   5.142  0.5557  0.0488  0.0957
   79SLPC  H10X 7324   0.973   5.806   5.114  0.3226  0.4586 -0.7869
   79SLPC  H10Y 7325   0.825   5.904   5.159 -0.3870 -0.0687 -1.2815
   79SLPC  C311 7326   0.792   5.750   5.015  0.7199  0.1428  1.4593
   79SLPC  H11X 7327   0.683   5.756   5.034  0.2083 -0.9436 -0.6997
   79SLPC  H11Y 7328   0.827   5.647   4.990  0.7713  0.4041  0.4125
   79SLPC  C312 7329   0.832   5.850   4.903  0.6003 -0.2448 -0.5610
   79SLPC  H12X 7330   0.942   5.860   4.892  0.7333 -2.1331 -1.2503
   79SLPC  H12Y 7331   0.799   5.952   4.934  1.0802 -0.5510  1.0384
   79SLPC  C313 7332   0.772   5.814   4.773 -0.2296  0.0381 -0.3144
   79SLPC  H13X 7333   0.665   5.784   4.770  0.1455 -1.2845 -1.9983
   79SLPC  H13Y 7334   0.820   5.718   4.747  0.7058  0.7553 -1.3204
   79SLPC  C314 7335   0.820   5.896   4.660  0.1937 -0.6125 -0.7523
   79SLPC  H14X 7336   0.811   5.834   4.569 -2.6548 -0.7328 -0.4778
   79SLPC  H14Y 7337   0.926   5.930   4.667 -0.7555  2.9513 -1.4671
   79SLPC  C315 7338   0.750   6.031   4.637  1.1106  0.7518 -0.2035
   79SLPC  H15X 7339   0.753   6.095   4.728  1.7034  1.6463 -0.8289
   79SLPC  H15Y 7340   0.642   6.013   4.620  1.1267 -1.5985  1.7303
   79SLPC  C316 7341   0.807   6.106   4.515  0.2379 -0.7120 -0.6200
   79SLPC  H16X 7342   0.827   6.036   4.431 -0.5118 -1.4538 -0.1950
   79SLPC  H16Y 7343   0.904   6.136   4.559  0.0363  1.4231 -1.4952
   79SLPC  C317 7344   0.740   6.234   4.480 -0.9407  0.5099 -0.2752
   79SLPC  H17X 7345   0.752   6.309   4.561 -1.0748 -0.5276  0.7276
   79SLPC  H17Y 7346   0.632   6.212   4.490 -0.6471 -2.2903 -2.0606
   79SLPC  C318 7347   0.774   6.288   4.341 -0.2963  0.9095 -0.4328
   79SLPC  H18X 7348   0.739   6.211   4.268  0.5933 -0.3210  0.4085
   79SLPC  H18Y 7349   0.880   6.314   4.319  0.0341 -0.0037  0.0531
   79SLPC  H18Z 7350   0.716   6.380   4.316  0.8178  1.5651 -0.6738
   80SLPC     N 7351   4.783   3.182   7.485  0.3043 -0.4606  1.0338
   80SLPC   C13 7352   4.644   3.189   7.544  0.2197 -0.1566 -0.1889
   80SLPC  H13A 7353   4.615   3.096   7.590  0.3333  0.0207  0.2450
   80SLPC  H13B 7354   4.642   3.271   7.614  1.7611 -1.1661  1.1122
   80SLPC  H13C 7355   4.579   3.218   7.462  0.9908  0.7580 -0.4909
   80SLPC   C14 7356   4.894   3.153   7.581  0.5059  0.2194  0.2301
   80SLPC  H14A 7357   4.887   3.066   7.644  1.5738  0.8425  1.2633
   80SLPC  H14B 7358   4.985   3.140   7.524  0.1068  3.1865 -1.2983
   80SLPC  H14C 7359   4.915   3.232   7.652  0.6271  1.1003 -0.7625
   80SLPC   C15 7360   4.805   3.314   7.423 -0.1392  0.4190 -0.0402
   80SLPC  H15A 7361   4.726   3.352   7.361  0.3404  0.6409 -0.5214
   80SLPC  H15B 7362   4.828   3.386   7.500  0.4671 -0.9739  1.1444
   80SLPC  H15C 7363   4.890   3.312   7.356 -0.9089 -1.4078 -1.0345
   80SLPC   C12 7364   4.776   3.069   7.374 -0.5261  0.4510 -0.2058
   80SLPC  H12A 7365   4.687   3.083   7.316 -1.0897 -2.7149 -0.2898
   80SLPC  H12B 7366   4.749   2.977   7.424  2.0503  0.3515  1.1848
   80SLPC   C11 7367   4.884   3.053   7.265  0.4086 -0.1622 -0.3443
   80SLPC  H11A 7368   4.857   3.121   7.181 -3.8217  1.5954  2.0923
   80SLPC  H11B 7369   4.873   2.950   7.223  2.2990 -0.3390 -0.4600
   80SLPC     P 7370   5.134   3.142   7.244  0.0292  0.3638 -0.4247
   80SLPC   O13 7371   5.105   3.286   7.264 -0.6950  0.2115  0.3002
   80SLPC   O14 7372   5.266   3.084   7.282 -0.1858  0.1461  0.2945
   80SLPC   O12 7373   5.021   3.055   7.311 -0.3102 -0.3666 -0.2437
   80SLPC   O11 7374   5.104   3.118   7.093 -0.4104 -0.2541 -0.1632
   80SLPC    C1 7375   5.106   2.990   7.025 -0.2075  0.1989  0.1601
   80SLPC    HA 7376   5.204   2.940   7.041 -1.2816 -2.2761 -0.5816
   80SLPC    HB 7377   5.033   2.917   7.065 -0.2923  0.2075  0.0197
   80SLPC    C2 7378   5.091   3.006   6.865  0.2110 -0.0247 -0.4008
   80SLPC    HS 7379   5.097   2.903   6.824 -0.1760 -0.2535  0.1047
   80SLPC   O21 7380   5.191   3.093   6.813 -0.5782 -0.1906  0.2994
   80SLPC   C21 7381   5.314   3.050   6.825 -0.4288  0.0653 -0.2462
   80SLPC   O22 7382   5.349   2.936   6.853  0.5115  0.1298 -0.3123
   80SLPC   C22 7383   5.409   3.169   6.797 -0.2888  0.2852 -0.1242
   80SLPC   H2R 7384   5.425   3.226   6.890 -0.0985 -2.2788  1.5204
   80SLPC   H2S 7385   5.508   3.121   6.777 -0.0656  0.5829  0.2511
   80SLPC    C3 7386   4.956   3.052   6.828  0.8140  0.6144  0.0797
   80SLPC    HX 7387   4.952   3.153   6.873  0.4585  0.8624 -0.4921
   80SLPC    HY 7388   4.873   2.988   6.863 -1.0844  2.4939 -0.7754
   80SLPC   O31 7389   4.946   3.053   6.682  0.0457 -0.0813  0.5165
   80SLPC   C31 7390   4.941   3.183   6.622 -0.1247  0.8768 -0.4002
   80SLPC   O32 7391   4.962   3.280   6.688 -0.2230 -0.3419  0.0830
   80SLPC   C32 7392   4.937   3.176   6.471  0.4191 -0.1959  0.5075
   80SLPC   H2X 7393   4.841   3.127   6.441  0.9491 -0.3329 -1.0705
   80SLPC   H2Y 7394   5.018   3.107   6.439  3.2436  2.7492  0.7718
   80SLPC   C23 7395   5.363   3.261   6.680  0.2907  0.5724  0.7477
   80SLPC   H3R 7396   5.434   3.340   6.649  0.9902 -0.5928 -0.7215
   80SLPC   H3S 7397   5.273   3.320   6.711  0.2475  0.8174  0.1795
   80SLPC   C24 7398   5.332   3.184   6.550 -0.1745 -0.1833 -0.7520
   80SLPC   H4R 7399   5.272   3.252   6.485 -2.5355 -0.1376  1.3402
   80SLPC   H4S 7400   5.279   3.092   6.583 -1.9347  1.1677  0.3880
   80SLPC   C25 7401   5.461   3.145   6.478 -0.3182 -0.1864 -0.3498
   80SLPC   H5R 7402   5.517   3.073   6.541  0.1143 -1.0981 -1.7117
   80SLPC   H5S 7403   5.520   3.239   6.467 -0.3135 -0.1140  0.2762
   80SLPC   C26 7404   5.439   3.084   6.338  0.5314  0.3763 -0.1402
   80SLPC   H6R 7405   5.417   2.976   6.339 -0.7400  0.5247 -3.0976
   80SLPC   H6S 7406   5.531   3.107   6.280  1.2107  3.4668  1.8838
   80SLPC   C27 7407   5.326   3.161   6.263 -0.1756 -0.1725  0.1590
   80SLPC   H7R 7408   5.353   3.269   6.267 -0.7414 -0.0206  3.7879
   80SLPC   H7S 7409   5.233   3.143   6.321  1.9682 -3.2483  3.0337
   80SLPC   C28 7410   5.307   3.110   6.121 -0.1893  0.3410  0.6783
   80SLPC   H8R 7411   5.218   3.147   6.067  0.9952 -0.6968 -2.1524
   80SLPC   H8S 7412   5.297   3.000   6.130  0.6413  0.0011 -1.8479
   80SLPC   C29 7413   5.423   3.145   6.026 -0.2381  0.0210 -0.2039
   80SLPC   H9R 7414   5.471   3.241   6.048  0.5830  0.2025 -2.5241
   80SLPC  C210 7415   5.440   3.087   5.903 -0.1890  0.0571 -0.2986
   80SLPC  H10R 7416   5.526   3.114   5.839 -1.2023  0.0289 -1.7182
   80SLPC  C211 7417   5.376   2.959   5.850  0.2293  0.2147  0.7432
   80SLPC  H11R 7418   5.317   2.980   5.758 -0.6831  3.8919  1.9666
   80SLPC  H11S 7419   5.305   2.915   5.922  0.9892  1.4229  2.2894
   80SLPC  C212 7420   5.484   2.853   5.848  0.5043  0.4512 -0.7187
   80SLPC  H12R 7421   5.482   2.793   5.940  0.2365 -0.4351 -1.2863
   80SLPC  C213 7422   5.568   2.827   5.746 -0.6226  0.1416 -0.0338
   80SLPC  H13R 7423   5.630   2.738   5.762  1.0953  1.6786  2.8230
   80SLPC  C214 7424   5.563   2.898   5.611 -0.5708  0.0534 -0.6284
   80SLPC  H14R 7425   5.666   2.938   5.600 -0.3105  0.2972  1.9122
   80SLPC  H14S 7426   5.504   2.992   5.619 -0.6991 -0.1316  1.0831
   80SLPC  C215 7427   5.516   2.825   5.488  0.3762  1.0083 -0.1744
   80SLPC  H15R 7428   5.406   2.810   5.493  0.8260 -3.4329  1.6529
   80SLPC  H15S 7429   5.567   2.726   5.482 -0.2380  0.7206 -0.7807
   80SLPC  C216 7430   5.559   2.905   5.373  0.1727  0.6300 -0.4084
   80SLPC  H16R 7431   5.528   3.010   5.389  1.8650  1.0147  0.5632
   80SLPC  H16S 7432   5.518   2.862   5.279 -1.3811  1.5127 -0.1651
   80SLPC  C217 7433   5.712   2.924   5.343  0.0054  0.7745  0.0272
   80SLPC  H17R 7434   5.763   2.827   5.362  0.6759  1.3021  1.0547
   80SLPC  H17S 7435   5.734   3.005   5.416 -0.1093 -1.2432  2.4776
   80SLPC  C218 7436   5.747   2.954   5.199 -0.1713  0.3710 -0.4929
   80SLPC  H18R 7437   5.678   3.033   5.164 -1.0751  0.5776  1.6129
   80SLPC  H18S 7438   5.734   2.860   5.140 -0.8252 -0.0294  0.2737
   80SLPC  H18T 7439   5.856   2.978   5.190  0.0466 -0.5013 -0.2470
   80SLPC   C33 7440   4.947   3.303   6.389 -0.2469 -0.8775 -0.0845
   80SLPC   H3X 7441   5.051   3.340   6.396 -0.3244 -0.8779  1.4896
   80SLPC   H3Y 7442   4.875   3.377   6.430  0.2966 -0.3118 -0.1435
   80SLPC   C34 7443   4.918   3.285   6.242  0.0561 -0.7284 -0.0784
   80SLPC   H4X 7444   4.807   3.275   6.243  0.0734 -0.9696 -0.3472
   80SLPC   H4Y 7445   4.959   3.186   6.215 -1.3345 -1.5050  0.5714
   80SLPC   C35 7446   4.948   3.403   6.149  0.6397  0.1023  0.1942
   80SLPC   H5X 7447   5.058   3.407   6.137  1.0479 -1.3129  2.7871
   80SLPC   H5Y 7448   4.917   3.499   6.194  0.7504  0.2047  0.0546
   80SLPC   C36 7449   4.889   3.383   6.006  0.2154 -0.5018 -0.6075
   80SLPC   H6X 7450   4.904   3.485   5.966  0.2927 -0.5237 -0.6357
   80SLPC   H6Y 7451   4.781   3.363   6.023  0.4885 -0.6792  1.0948
   80SLPC   C37 7452   4.969   3.281   5.926 -0.1169  0.3322  0.5354
   80SLPC   H7X 7453   4.939   3.175   5.934 -1.6234  0.5453 -1.7080
   80SLPC   H7Y 7454   5.073   3.291   5.965 -0.2993 -1.2758  1.4994
   80SLPC   C38 7455   4.959   3.311   5.776 -0.2935  0.1033  0.2954
   80SLPC   H8X 7456   5.003   3.413   5.770  0.6498 -0.1410  2.0806
   80SLPC   H8Y 7457   4.857   3.313   5.734  0.3216  1.9802 -1.2439
   80SLPC   C39 7458   5.042   3.220   5.688  0.9594  0.1362  0.0983
   80SLPC   H9X 7459   5.005   3.116   5.689  0.6431  0.1383 -2.9804
   80SLPC   H9Y 7460   5.145   3.206   5.727  1.8289  1.4983 -1.5814
   80SLPC  C310 7461   5.031   3.280   5.545  0.5781  0.0772  0.5852
   80SLPC  H10X 7462   5.005   3.388   5.548 -1.5241 -0.3607 -0.1389
   80SLPC  H10Y 7463   4.946   3.234   5.490  0.2914  0.0408  1.0555
   80SLPC  C311 7464   5.164   3.258   5.473 -0.3799 -0.6066  0.2722
   80SLPC  H11X 7465   5.198   3.153   5.458  0.9985 -0.4283  1.8408
   80SLPC  H11Y 7466   5.238   3.303   5.542 -0.0100 -0.1519 -0.4072
   80SLPC  C312 7467   5.185   3.324   5.336 -0.2638 -0.5967 -0.5995
   80SLPC  H12X 7468   5.291   3.315   5.303  0.6523  2.1235  1.3026
   80SLPC  H12Y 7469   5.183   3.433   5.358 -0.7760 -0.3186 -1.9326
   80SLPC  C313 7470   5.077   3.276   5.234  0.3586  0.2910  0.3968
   80SLPC  H13X 7471   4.975   3.311   5.259 -0.4730 -1.5771 -0.1998
   80SLPC  H13Y 7472   5.073   3.165   5.235  0.2133  0.3027  0.8485
   80SLPC  C314 7473   5.109   3.309   5.087  0.1302 -1.3335 -0.0058
   80SLPC  H14X 7474   5.220   3.309   5.076  0.1143  0.3531 -0.4226
   80SLPC  H14Y 7475   5.090   3.418   5.077  1.6733 -1.0339  0.0197
   80SLPC  C315 7476   5.049   3.213   4.979  0.5426  0.4712 -0.4036
   80SLPC  H15X 7477   5.038   3.111   5.020  0.9897 -0.4210 -2.3954
   80SLPC  H15Y 7478   5.131   3.217   4.903  2.1497  2.6308  1.2883
   80SLPC  C316 7479   4.916   3.269   4.926  0.3684  0.0896 -0.0267
   80SLPC  H16X 7480   4.855   3.278   5.018 -1.3279 -0.2740 -1.0695
   80SLPC  H16Y 7481   4.881   3.188   4.859  0.8276  0.7570 -1.1013
   80SLPC  C317 7482   4.930   3.402   4.843  0.1356  0.2356  0.0569
   80SLPC  H17X 7483   5.007   3.387   4.764 -0.6976 -0.1320 -0.6976
   80SLPC  H17Y 7484   4.964   3.477   4.917  1.8842 -0.6185  0.1695
   80SLPC  C318 7485   4.804   3.472   4.778  0.0595  0.0310 -0.1791
   80SLPC  H18X 7486   4.834   3.574   4.746 -1.9797  1.2516  1.4518
   80SLPC  H18Y 7487   4.722   3.497   4.849  0.6090 -0.6443  0.7084
   80SLPC  H18Z 7488   4.760   3.409   4.698  1.0899 -0.2377 -0.5376
   81SLPC     N 7489   5.563   1.108   2.839  0.1426  0.5068 -0.0838
   81SLPC   C13 7490   5.489   1.036   2.733 -0.6635  0.0492  0.3841
   81SLPC  H13A 7491   5.536   1.062   2.639  2.8192  0.0807  1.9752
   81SLPC  H13B 7492   5.487   0.930   2.756  0.2296 -0.2008 -0.5965
   81SLPC  H13C 7493   5.391   1.081   2.728 -0.6628 -0.0560 -1.2238
   81SLPC   C14 7494   5.503   1.067   2.972  0.8363 -1.0803  0.9542
   81SLPC  H14A 7495   5.399   1.093   2.986  0.4514 -1.0843 -1.5417
   81SLPC  H14B 7496   5.505   0.960   2.988  2.2260 -1.1200  0.6593
   81SLPC  H14C 7497   5.568   1.113   3.045  0.1701  1.0735  0.2927
   81SLPC   C15 7498   5.545   1.251   2.826  0.2522 -0.7343  0.2991
   81SLPC  H15A 7499   5.584   1.297   2.916 -0.2102 -0.4166  0.3421
   81SLPC  H15B 7500   5.580   1.287   2.731 -1.1258 -1.8639 -0.6819
   81SLPC  H15C 7501   5.441   1.281   2.832 -0.7361 -3.8221  0.4182
   81SLPC   C12 7502   5.708   1.071   2.838 -0.4560  0.6835  0.2889
   81SLPC  H12A 7503   5.762   1.147   2.892 -1.3506  1.2442  0.4153
   81SLPC  H12B 7504   5.741   1.074   2.735  1.6014 -1.9635  0.7480
   81SLPC   C11 7505   5.747   0.924   2.873 -0.5110 -0.5766 -0.7791
   81SLPC  H11A 7506   5.715   0.915   2.978  0.0951  2.2025 -0.2821
   81SLPC  H11B 7507   5.858   0.919   2.870 -0.2549 -0.0789  3.1331
   81SLPC     P 7508   5.752   0.799   2.649 -0.0557 -0.1350 -0.3020
   81SLPC   O13 7509   5.677   0.701   2.567 -1.0254 -0.2241  0.2901
   81SLPC   O14 7510   5.783   0.934   2.597  0.0735 -0.0107 -0.1643
   81SLPC   O12 7511   5.685   0.823   2.789  0.1238  0.3225 -0.6668
   81SLPC   O11 7512   5.890   0.740   2.699 -0.1240  0.2703  0.1957
   81SLPC    C1 7513   5.909   0.601   2.741 -0.2071 -0.4236 -0.1102
   81SLPC    HA 7514   5.892   0.534   2.654 -0.6913 -2.0130  1.1653
   81SLPC    HB 7515   6.017   0.596   2.765 -0.0781  1.3760 -0.1499
   81SLPC    C2 7516   5.833   0.564   2.869 -0.2304 -0.4476 -0.1199
   81SLPC    HS 7517   5.726   0.566   2.838  0.4949 -2.6706 -3.2998
   81SLPC   O21 7518   5.881   0.654   2.971 -0.1377 -0.0752  0.3965
   81SLPC   C21 7519   5.790   0.682   3.064  0.4627 -0.2494 -0.3516
   81SLPC   O22 7520   5.670   0.660   3.059  0.2804  0.1248 -0.7426
   81SLPC   C22 7521   5.868   0.743   3.196 -0.4939  0.3906  0.3075
   81SLPC   H2R 7522   5.922   0.835   3.167 -1.5104  0.3574 -1.8982
   81SLPC   H2S 7523   5.786   0.784   3.258 -1.3387  0.0201 -0.5415
   81SLPC    C3 7524   5.862   0.417   2.915  0.1431 -0.4662 -0.0078
   81SLPC    HX 7525   5.968   0.408   2.945 -0.2911 -2.0847  1.1859
   81SLPC    HY 7526   5.841   0.349   2.829 -2.1306  1.4855 -1.0940
   81SLPC   O31 7527   5.770   0.377   3.023  0.4508 -1.0939 -0.4846
   81SLPC   C31 7528   5.645   0.343   2.996  0.2869  0.3128 -0.2423
   81SLPC   O32 7529   5.587   0.351   2.893 -0.6006  0.1174  0.2984
   81SLPC   C32 7530   5.574   0.316   3.129 -0.5146 -0.1823 -0.7090
   81SLPC   H2X 7531   5.490   0.389   3.133 -1.4272 -1.2679  0.9817
   81SLPC   H2Y 7532   5.642   0.332   3.215  0.0320 -0.0808 -1.1510
   81SLPC   C23 7533   5.951   0.637   3.268  0.2073 -0.0729 -0.5280
   81SLPC   H3R 7534   6.023   0.586   3.201  0.2904 -1.0075  0.2480
   81SLPC   H3S 7535   5.883   0.556   3.304  1.7155 -0.6673  1.1222
   81SLPC   C24 7536   6.033   0.689   3.392 -0.1474 -0.0868 -0.8121
   81SLPC   H4R 7537   5.967   0.718   3.476  1.1352  1.3726 -0.2707
   81SLPC   H4S 7538   6.093   0.779   3.367 -1.5425  1.4681  1.1474
   81SLPC   C25 7539   6.114   0.575   3.459  0.2423  0.3068  0.1624
   81SLPC   H5R 7540   6.168   0.517   3.381 -1.2800 -0.2474 -0.5122
   81SLPC   H5S 7541   6.047   0.505   3.512 -2.1865  1.0305 -1.7800
   81SLPC   C26 7542   6.223   0.626   3.555 -0.3634 -0.5742 -0.0672
   81SLPC   H6R 7543   6.182   0.687   3.639  0.2783  0.6378 -0.6129
   81SLPC   H6S 7544   6.291   0.689   3.495 -0.8602  0.3340  0.3032
   81SLPC   C27 7545   6.297   0.507   3.616 -0.3699  0.4305  0.4309
   81SLPC   H7R 7546   6.329   0.430   3.543 -1.5498  0.8166 -0.5257
   81SLPC   H7S 7547   6.233   0.446   3.683 -2.0406 -2.5684 -3.4863
   81SLPC   C28 7548   6.417   0.553   3.702  0.7295  0.3084  0.1663
   81SLPC   H8R 7549   6.497   0.602   3.642  0.4705  1.9923  1.1186
   81SLPC   H8S 7550   6.454   0.457   3.743 -3.1472 -0.1985  2.9859
   81SLPC   C29 7551   6.384   0.645   3.819 -0.1773 -0.5252  0.1746
   81SLPC   H9R 7552   6.320   0.733   3.803 -1.1156 -0.7739  2.2031
   81SLPC  C210 7553   6.421   0.619   3.945  0.0894 -0.4538 -0.7842
   81SLPC  H10R 7554   6.396   0.691   4.023  2.3538 -1.1371  0.6815
   81SLPC  C211 7555   6.517   0.512   3.986 -0.3408  0.6822  1.0281
   81SLPC  H11R 7556   6.586   0.485   3.903 -1.3636  0.1930  0.3189
   81SLPC  H11S 7557   6.459   0.419   4.002 -1.7242  1.2840 -0.2783
   81SLPC  C212 7558   6.616   0.556   4.093  0.5596  0.1218 -0.4053
   81SLPC  H12R 7559   6.696   0.624   4.059 -0.0049  0.6591 -0.6880
   81SLPC  C213 7560   6.599   0.537   4.225  0.6737  0.2032 -0.4787
   81SLPC  H13R 7561   6.667   0.572   4.304 -1.0842  1.0924  0.7185
   81SLPC  C214 7562   6.484   0.460   4.278  0.3400  0.1929  0.3653
   81SLPC  H14R 7563   6.496   0.351   4.261  0.2140  0.1332  0.6463
   81SLPC  H14S 7564   6.383   0.487   4.241 -0.2325 -1.6721  0.4232
   81SLPC  C215 7565   6.473   0.481   4.427  0.2711 -0.1488 -0.1097
   81SLPC  H15R 7566   6.570   0.472   4.479  0.7705  2.5223 -0.4434
   81SLPC  H15S 7567   6.401   0.414   4.478 -1.0746  1.8764  0.7926
   81SLPC  C216 7568   6.414   0.618   4.459  0.3845  0.0674 -0.4247
   81SLPC  H16R 7569   6.317   0.634   4.408 -1.1896 -2.1246  1.6218
   81SLPC  H16S 7570   6.487   0.692   4.421  1.4636 -0.9376 -0.3595
   81SLPC  C217 7571   6.386   0.646   4.609  0.1828  0.3862  0.6255
   81SLPC  H17R 7572   6.333   0.742   4.626 -0.1167  0.5416 -1.0730
   81SLPC  H17S 7573   6.489   0.672   4.643  0.2685  2.3572 -0.9557
   81SLPC  C218 7574   6.332   0.534   4.697  0.2751 -0.1584 -0.5138
   81SLPC  H18R 7575   6.358   0.567   4.800 -2.3808 -0.0847  0.2051
   81SLPC  H18S 7576   6.375   0.432   4.683  0.9840 -0.2517  1.8718
   81SLPC  H18T 7577   6.222   0.521   4.692  0.2563 -1.1316  1.4798
   81SLPC   C33 7578   5.522   0.177   3.149 -0.0737 -0.4691  0.0917
   81SLPC   H3X 7579   5.452   0.139   3.072  1.4027 -0.2579 -1.3999
   81SLPC   H3Y 7580   5.474   0.166   3.249  2.4994 -0.9557  1.3643
   81SLPC   C34 7581   5.647   0.072   3.150  0.2295 -0.4033  0.1144
   81SLPC   H4X 7582   5.714   0.127   3.219 -0.7544  0.2507  0.5705
   81SLPC   H4Y 7583   5.696   0.063   3.050  0.8761  1.5776  0.2051
   81SLPC   C35 7584   5.597  -0.054   3.207  0.3188 -0.2774 -0.0012
   81SLPC   H5X 7585   5.517  -0.104   3.147  0.7004 -3.6353  2.0028
   81SLPC   H5Y 7586   5.550  -0.032   3.306  1.4995 -2.0417  1.0060
   81SLPC   C36 7587   5.700  -0.163   3.242  0.7801 -0.0170  0.4791
   81SLPC   H6X 7588   5.786  -0.120   3.298  0.1232  1.7658  0.2067
   81SLPC   H6Y 7589   5.746  -0.199   3.148  0.4215  1.8138 -0.4574
   81SLPC   C37 7590   5.649  -0.280   3.337  0.1489  0.9220 -0.1529
   81SLPC   H7X 7591   5.539  -0.294   3.322  0.1074  1.6679 -0.6174
   81SLPC   H7Y 7592   5.661  -0.228   3.434  0.9483 -0.2938  0.4099
   81SLPC   C38 7593   5.727  -0.405   3.338  0.6581  0.9298  0.0902
   81SLPC   H8X 7594   5.832  -0.369   3.343  0.4968  1.6426 -1.1764
   81SLPC   H8Y 7595   5.707  -0.451   3.238 -0.0186 -1.0589  1.0901
   81SLPC   C39 7596   5.692  -0.500   3.455 -0.0057 -0.1942  0.0077
   81SLPC   H9X 7597   5.764  -0.585   3.455 -0.5082 -0.6198  0.1395
   81SLPC   H9Y 7598   5.585  -0.528   3.444 -0.5228  1.4886  0.3483
   81SLPC  C310 7599   5.711  -0.436   3.594  0.6197 -0.0145 -0.0028
   81SLPC  H10X 7600   5.630  -0.368   3.628 -0.3089 -2.0043  2.0628
   81SLPC  H10Y 7601   5.802  -0.374   3.579  0.2946  0.3166 -0.6348
   81SLPC  C311 7602   5.731  -0.535   3.709 -0.2191 -0.5403 -0.0108
   81SLPC  H11X 7603   5.824  -0.593   3.690 -0.2346 -0.2059 -1.1924
   81SLPC  H11Y 7604   5.655  -0.616   3.701 -0.8657 -0.2425  2.3392
   81SLPC  C312 7605   5.725  -0.463   3.845  0.0818  0.4202  0.1772
   81SLPC  H12X 7606   5.631  -0.406   3.860 -0.4166  0.4184 -2.4286
   81SLPC  H12Y 7607   5.806  -0.388   3.853 -0.0117  0.5382  0.0099
   81SLPC  C313 7608   5.721  -0.552   3.972 -0.6876  0.5642 -0.1550
   81SLPC  H13X 7609   5.707  -0.488   4.062  0.6936  1.3492 -0.4650
   81SLPC  H13Y 7610   5.823  -0.594   3.979 -0.9798 -0.1686 -0.2160
   81SLPC  C314 7611   5.611  -0.660   3.973  0.4671  0.0701 -0.2237
   81SLPC  H14X 7612   5.607  -0.702   3.871  1.3471  2.5161 -1.3284
   81SLPC  H14Y 7613   5.511  -0.615   3.996  1.2047  2.3275 -1.1921
   81SLPC  C315 7614   5.639  -0.771   4.080 -0.0559  0.2244  0.1006
   81SLPC  H15X 7615   5.734  -0.821   4.051  1.1394  1.0576  2.2889
   81SLPC  H15Y 7616   5.561  -0.850   4.082  1.6618 -1.5734 -0.4824
   81SLPC  C316 7617   5.642  -0.720   4.228 -0.1769  1.1693  0.6631
   81SLPC  H16X 7618   5.542  -0.684   4.260 -1.4604 -2.6266  1.5178
   81SLPC  H16Y 7619   5.714  -0.636   4.231  0.9457  0.2348  0.7513
   81SLPC  C317 7620   5.684  -0.829   4.333 -0.1599  0.7646  0.2601
   81SLPC  H17X 7621   5.712  -0.781   4.429 -2.2594  0.1996  1.2332
   81SLPC  H17Y 7622   5.770  -0.880   4.286 -1.1153 -0.0192 -0.6967
   81SLPC  C318 7623   5.581  -0.934   4.362 -0.3433 -0.0837  0.2308
   81SLPC  H18X 7624   5.618  -1.005   4.440 -1.3657 -0.0853  0.7243
   81SLPC  H18Y 7625   5.563  -0.991   4.269 -1.0819  1.1659 -0.4111
   81SLPC  H18Z 7626   5.489  -0.888   4.403 -0.8744 -1.5285  0.7234
   82SLPC     N 7627   5.042   6.675   2.421 -0.8222 -0.9744 -0.0409
   82SLPC   C13 7628   5.162   6.755   2.468 -1.1069  0.4977 -0.9745
   82SLPC  H13A 7629   5.132   6.841   2.525 -2.2810  0.6735 -1.8160
   82SLPC  H13B 7630   5.229   6.684   2.516 -1.4264  0.8012 -0.0641
   82SLPC  H13C 7631   5.222   6.793   2.387  1.6311  0.1220  0.7516
   82SLPC   C14 7632   5.093   6.586   2.310  0.0316 -0.2170  0.1048
   82SLPC  H14A 7633   5.005   6.546   2.262  0.8761 -1.0214 -0.8094
   82SLPC  H14B 7634   5.151   6.640   2.236  1.8025 -1.6788  0.3665
   82SLPC  H14C 7635   5.160   6.509   2.345  2.2854  1.0598 -1.1473
   82SLPC   C15 7636   4.944   6.763   2.356 -0.2769  0.0135 -0.3290
   82SLPC  H15A 7637   4.898   6.839   2.418 -2.8993 -1.9607  0.3072
   82SLPC  H15B 7638   4.995   6.812   2.274  4.2966 -1.9949  1.0224
   82SLPC  H15C 7639   4.861   6.708   2.314  0.4703 -0.0075 -1.8741
   82SLPC   C12 7640   4.975   6.598   2.532  1.4065 -0.8596  0.1406
   82SLPC  H12A 7641   4.906   6.531   2.482 -0.4750  1.4642 -0.5568
   82SLPC  H12B 7642   4.916   6.665   2.593  0.6777 -2.7199  1.5651
   82SLPC   C11 7643   5.064   6.515   2.627  0.1635  0.4772 -0.1785
   82SLPC  H11A 7644   5.012   6.489   2.721  1.3045 -0.7397  0.1508
   82SLPC  H11B 7645   5.149   6.580   2.659  0.1146  1.2257 -1.4748
   82SLPC     P 7646   5.022   6.270   2.544  0.2772 -0.6416  0.1853
   82SLPC   O13 7647   4.879   6.313   2.546  0.0074 -0.7615  0.9075
   82SLPC   O14 7648   5.072   6.220   2.414  0.1384  0.5528  0.2942
   82SLPC   O12 7649   5.109   6.398   2.559  0.7002 -0.1467 -0.7362
   82SLPC   O11 7650   5.065   6.176   2.665  0.6045 -0.2264 -0.1543
   82SLPC    C1 7651   5.207   6.139   2.658 -0.2263  0.0145  0.1593
   82SLPC    HA 7652   5.224   6.087   2.562  0.8670  0.7316 -0.0479
   82SLPC    HB 7653   5.271   6.225   2.686 -1.0119  0.3352  1.0166
   82SLPC    C2 7654   5.254   6.023   2.757 -0.2146  0.3206  0.3604
   82SLPC    HS 7655   5.181   5.942   2.739  1.7883 -1.2506 -1.1513
   82SLPC   O21 7656   5.246   6.062   2.897  0.4235 -0.2053 -0.0784
   82SLPC   C21 7657   5.135   6.029   2.961  0.0844 -0.3628 -0.2002
   82SLPC   O22 7658   5.036   5.970   2.918 -0.2244 -0.2488  0.0317
   82SLPC   C22 7659   5.153   6.068   3.102 -0.5334  0.4225  0.5267
   82SLPC   H2R 7660   5.222   5.992   3.145  0.9140  1.0031 -0.6779
   82SLPC   H2S 7661   5.193   6.172   3.112  1.7752 -0.1836 -1.4461
   82SLPC    C3 7662   5.396   5.980   2.718 -0.6811 -0.2653  0.2450
   82SLPC    HX 7663   5.451   6.077   2.718 -1.8722  0.4245 -0.5421
   82SLPC    HY 7664   5.389   5.949   2.612 -1.3123  2.2498 -0.5308
   82SLPC   O31 7665   5.454   5.893   2.820  0.5241 -0.4831  0.2348
   82SLPC   C31 7666   5.415   5.766   2.800  0.4338 -0.0518  0.6497
   82SLPC   O32 7667   5.332   5.733   2.714 -0.0458  0.0281 -0.0298
   82SLPC   C32 7668   5.478   5.669   2.899  0.2056  1.3096  0.3795
   82SLPC   H2X 7669   5.586   5.695   2.896  0.3076  0.7949 -0.5985
   82SLPC   H2Y 7670   5.462   5.565   2.864 -2.3810  1.9477 -0.4814
   82SLPC   C23 7671   5.014   6.070   3.175 -0.0498  0.3944  0.1934
   82SLPC   H3R 7672   4.989   5.962   3.184  0.9463  0.1736  0.4838
   82SLPC   H3S 7673   4.930   6.120   3.121 -0.1011  0.1700  0.0641
   82SLPC   C24 7674   5.027   6.150   3.304  0.2442  0.7663 -0.0605
   82SLPC   H4R 7675   4.932   6.152   3.362  1.0643  0.1649  1.3456
   82SLPC   H4S 7676   5.057   6.257   3.294 -2.5399  2.0373  3.1344
   82SLPC   C25 7677   5.113   6.082   3.410 -0.3522  0.4556  0.4416
   82SLPC   H5R 7678   5.207   6.053   3.357 -1.3300  0.3839 -1.3292
   82SLPC   H5S 7679   5.058   5.990   3.438  0.2379 -1.6336 -4.2955
   82SLPC   C26 7680   5.133   6.156   3.538  0.1720 -0.3697 -0.6547
   82SLPC   H6R 7681   5.046   6.216   3.573 -0.3575 -1.0764 -0.7454
   82SLPC   H6S 7682   5.203   6.235   3.504 -0.5462 -0.1116 -1.5752
   82SLPC   C27 7683   5.193   6.079   3.653  1.0951 -0.5391  0.7693
   82SLPC   H7R 7684   5.292   6.036   3.624  2.2881  0.0330  3.6518
   82SLPC   H7S 7685   5.120   6.003   3.689  0.0143  0.6704  1.1930
   82SLPC   C28 7686   5.215   6.177   3.766  0.5967 -0.1182 -1.2869
   82SLPC   H8R 7687   5.123   6.235   3.790  1.7997  1.3990 -0.1290
   82SLPC   H8S 7688   5.290   6.255   3.741  1.0053 -0.5515 -1.4210
   82SLPC   C29 7689   5.262   6.109   3.888  0.3393 -0.2125 -0.5570
   82SLPC   H9R 7690   5.348   6.044   3.868  0.3934  0.4879 -2.9143
   82SLPC  C210 7691   5.205   6.112   4.012 -0.3137  0.5789 -0.0727
   82SLPC  H10R 7692   5.253   6.049   4.088  1.8134  0.1700 -1.6604
   82SLPC  C211 7693   5.088   6.182   4.064  0.0104 -0.2849 -0.1879
   82SLPC  H11R 7694   5.026   6.106   4.116 -0.4250 -0.1679 -0.5337
   82SLPC  H11S 7695   5.021   6.213   3.981  0.1141 -1.4711 -0.7365
   82SLPC  C212 7696   5.108   6.286   4.174  0.7218 -0.1972 -0.3832
   82SLPC  H12R 7697   5.077   6.386   4.140 -0.3657 -1.4100 -3.2784
   82SLPC  C213 7698   5.172   6.264   4.298  0.6441 -0.5588  0.1712
   82SLPC  H13R 7699   5.171   6.343   4.374 -1.6925  1.0315 -1.3720
   82SLPC  C214 7700   5.211   6.122   4.349  0.0731 -0.1804  0.1761
   82SLPC  H14R 7701   5.313   6.087   4.319 -0.8325 -1.5971 -1.4332
   82SLPC  H14S 7702   5.143   6.046   4.305 -0.1195 -0.6919  1.3160
   82SLPC  C215 7703   5.186   6.113   4.500 -0.0237  0.2236 -0.1690
   82SLPC  H15R 7704   5.159   6.009   4.527 -1.5384  0.8347  0.7609
   82SLPC  H15S 7705   5.105   6.184   4.525  0.4570  0.7878 -0.1813
   82SLPC  C216 7706   5.315   6.161   4.571  0.3487  0.2390 -0.2359
   82SLPC  H16R 7707   5.399   6.118   4.513 -0.5923  0.6867 -1.9725
   82SLPC  H16S 7708   5.323   6.115   4.672 -1.1636  0.7431  0.1302
   82SLPC  C217 7709   5.326   6.311   4.594  0.5467 -0.1803 -0.0307
   82SLPC  H17R 7710   5.320   6.370   4.500  1.7878  1.9058  1.1327
   82SLPC  H17S 7711   5.425   6.350   4.624  0.7241  0.7941 -1.7551
   82SLPC  C218 7712   5.223   6.365   4.704  0.7364 -0.9318  1.0572
   82SLPC  H18R 7713   5.204   6.470   4.670  2.0188 -1.6296 -2.1709
   82SLPC  H18S 7714   5.257   6.360   4.809  2.7603 -0.7541  0.4453
   82SLPC  H18T 7715   5.126   6.311   4.708  0.2627 -0.1347  0.6841
   82SLPC   C33 7716   5.413   5.694   3.036 -0.4240 -0.0621 -0.3064
   82SLPC   H3X 7717   5.420   5.795   3.082 -2.2644 -0.4969  1.0562
   82SLPC   H3Y 7718   5.470   5.628   3.104  1.8028  1.0628 -0.9764
   82SLPC   C34 7719   5.266   5.642   3.037  0.3222 -0.6183 -0.3209
   82SLPC   H4X 7720   5.244   5.534   3.027 -0.0667 -0.5915  0.1994
   82SLPC   H4Y 7721   5.211   5.685   2.951 -0.7189  0.0253  0.6236
   82SLPC   C35 7722   5.205   5.687   3.171 -0.1935  0.0141  0.1267
   82SLPC   H5X 7723   5.094   5.684   3.162 -0.0780 -0.5860 -1.4164
   82SLPC   H5Y 7724   5.232   5.793   3.191 -1.2145  0.3594 -0.2386
   82SLPC   C36 7725   5.246   5.601   3.287 -0.7850  0.1848 -0.9347
   82SLPC   H6X 7726   5.352   5.569   3.294 -0.4871  0.9974 -1.5375
   82SLPC   H6Y 7727   5.197   5.502   3.291 -0.3918 -0.0022  2.4107
   82SLPC   C37 7728   5.216   5.683   3.420  0.0662  0.1638 -0.3470
   82SLPC   H7X 7729   5.108   5.705   3.401 -0.4298 -1.1391  0.7438
   82SLPC   H7Y 7730   5.267   5.781   3.425  0.6516 -0.0469 -1.8676
   82SLPC   C38 7731   5.251   5.602   3.545 -0.0695 -0.1907 -0.9630
   82SLPC   H8X 7732   5.361   5.590   3.547  0.0012  0.4170  0.7836
   82SLPC   H8Y 7733   5.209   5.499   3.543 -1.4041  0.3200 -0.5844
   82SLPC   C39 7734   5.201   5.671   3.668 -0.6025 -0.8360 -0.0038
   82SLPC   H9X 7735   5.093   5.682   3.645 -0.2694  0.4585 -1.0892
   82SLPC   H9Y 7736   5.245   5.773   3.674 -1.3046 -0.5316 -0.0171
   82SLPC  C310 7737   5.205   5.602   3.804  1.0356  0.4218 -1.0358
   82SLPC  H10X 7738   5.273   5.515   3.801  1.2463  0.4754  1.0094
   82SLPC  H10Y 7739   5.101   5.565   3.819  0.9749  1.3073  1.1064
   82SLPC  C311 7740   5.249   5.704   3.913  1.3225 -0.0084 -0.7972
   82SLPC  H11X 7741   5.182   5.790   3.892 -0.3878 -1.1482 -0.2585
   82SLPC  H11Y 7742   5.354   5.727   3.887  1.8452  0.7370  1.6852
   82SLPC  C312 7743   5.229   5.650   4.053  0.7501  0.0823 -0.0546
   82SLPC  H12X 7744   5.294   5.561   4.044  2.1627  1.1520 -0.7667
   82SLPC  H12Y 7745   5.122   5.625   4.071  1.1930 -2.6758 -0.8718
   82SLPC  C313 7746   5.272   5.743   4.168  0.2729 -0.5762 -1.0426
   82SLPC  H13X 7747   5.210   5.833   4.186  0.1489 -1.1036  1.5058
   82SLPC  H13Y 7748   5.380   5.771   4.174  0.7207 -2.4115  2.8550
   82SLPC  C314 7749   5.250   5.664   4.301  0.2511  0.6069 -0.2738
   82SLPC  H14X 7750   5.326   5.583   4.311 -1.6504 -1.4427 -1.5051
   82SLPC  H14Y 7751   5.147   5.623   4.300  0.1100  0.8856  1.2678
   82SLPC  C315 7752   5.246   5.750   4.426  0.1310 -0.6437  0.0621
   82SLPC  H15X 7753   5.175   5.836   4.424  1.6166  0.6430 -2.4965
   82SLPC  H15Y 7754   5.349   5.790   4.428 -0.4744  0.9594  0.6942
   82SLPC  C316 7755   5.210   5.672   4.557 -0.0391 -0.2871  0.0470
   82SLPC  H16X 7756   5.099   5.674   4.572 -0.2807  1.6530 -1.6077
   82SLPC  H16Y 7757   5.235   5.733   4.646 -2.1477  0.4185  0.2251
   82SLPC  C317 7758   5.281   5.537   4.566 -0.7546  0.9169 -0.1206
   82SLPC  H17X 7759   5.388   5.536   4.537 -0.5378  0.8642  0.6525
   82SLPC  H17Y 7760   5.224   5.465   4.503 -1.2871  1.3431 -0.1353
   82SLPC  C318 7761   5.277   5.468   4.700 -0.0876  0.0955 -0.1403
   82SLPC  H18X 7762   5.292   5.360   4.682 -0.8697 -0.1510  0.6362
   82SLPC  H18Y 7763   5.175   5.484   4.742  0.0274  1.3968 -0.2953
   82SLPC  H18Z 7764   5.360   5.500   4.767  0.3886 -1.2272 -0.0810
   83SLPC     N 7765   1.280   0.153   2.235 -0.0032  0.0554  0.4601
   83SLPC   C13 7766   1.334   0.236   2.126 -0.6573  0.6094  0.5754
   83SLPC  H13A 7767   1.428   0.202   2.087 -1.6956  0.2544 -1.7624
   83SLPC  H13B 7768   1.272   0.255   2.040 -2.2211 -1.4075  1.1748
   83SLPC  H13C 7769   1.353   0.337   2.161 -0.1431  0.5051  0.5994
   83SLPC   C14 7770   1.270   0.018   2.186  0.3169  0.1998 -0.4454
   83SLPC  H14A 7771   1.364  -0.025   2.156  0.6679  0.5845  0.0819
   83SLPC  H14B 7772   1.234  -0.040   2.270  2.5964 -0.1147  0.3709
   83SLPC  H14C 7773   1.204   0.000   2.101 -0.9451  1.4740  0.2249
   83SLPC   C15 7774   1.151   0.190   2.287  0.2250  0.3033  0.1660
   83SLPC  H15A 7775   1.076   0.185   2.209 -1.8580  1.1815  1.9779
   83SLPC  H15B 7776   1.107   0.134   2.368 -2.2242  0.2874 -1.0621
   83SLPC  H15C 7777   1.137   0.293   2.316 -0.0441 -0.0520  1.3380
   83SLPC   C12 7778   1.389   0.152   2.346  0.7799  0.7388 -0.2603
   83SLPC  H12A 7779   1.476   0.092   2.323  1.7149  0.9212  2.4069
   83SLPC  H12B 7780   1.344   0.094   2.426 -0.0660  0.2150 -1.0877
   83SLPC   C11 7781   1.442   0.291   2.397  0.3085 -0.5623  0.8030
   83SLPC  H11A 7782   1.496   0.342   2.314  0.8856 -2.5770 -0.1257
   83SLPC  H11B 7783   1.521   0.280   2.474  1.2131  1.2190  0.1801
   83SLPC     P 7784   1.295   0.503   2.395 -0.1264 -0.0581  0.1822
   83SLPC   O13 7785   1.368   0.541   2.272  0.3965 -0.2068  0.0231
   83SLPC   O14 7786   1.147   0.503   2.374 -0.7062 -0.1911 -0.2697
   83SLPC   O12 7787   1.333   0.367   2.452  0.2392  0.0511 -0.0459
   83SLPC   O11 7788   1.330   0.602   2.512  0.0886  0.0449 -0.1029
   83SLPC    C1 7789   1.459   0.615   2.567 -0.2598  0.6656 -0.1704
   83SLPC    HA 7790   1.534   0.575   2.495  0.7681  3.7324 -0.9730
   83SLPC    HB 7791   1.491   0.719   2.591  0.9046  0.5517 -1.1055
   83SLPC    C2 7792   1.461   0.544   2.708  0.0120  0.0236  0.1464
   83SLPC    HS 7793   1.439   0.438   2.680 -0.8724  0.5910 -1.4389
   83SLPC   O21 7794   1.350   0.565   2.791  0.3178 -0.2832 -0.3677
   83SLPC   C21 7795   1.334   0.695   2.831  0.3832 -0.3321 -0.0838
   83SLPC   O22 7796   1.415   0.789   2.823  0.1215  0.2917  0.4171
   83SLPC   C22 7797   1.194   0.719   2.893 -0.5317  0.1381  0.0657
   83SLPC   H2R 7798   1.192   0.824   2.929  1.1986 -0.3755  1.8091
   83SLPC   H2S 7799   1.113   0.703   2.819  2.3244 -1.9227 -2.9034
   83SLPC    C3 7800   1.594   0.565   2.781 -0.4123  0.0126  0.1101
   83SLPC    HX 7801   1.618   0.673   2.766 -1.4549  0.2104 -0.2152
   83SLPC    HY 7802   1.663   0.510   2.714  0.5468  0.7897  0.4370
   83SLPC   O31 7803   1.595   0.534   2.925  0.0571 -0.0662 -0.1437
   83SLPC   C31 7804   1.580   0.414   2.957  0.4497 -0.0956  0.0873
   83SLPC   O32 7805   1.574   0.323   2.875  0.8103 -0.1987 -0.3720
   83SLPC   C32 7806   1.573   0.405   3.112 -0.0886  0.0680  0.0068
   83SLPC   H2X 7807   1.498   0.479   3.148 -0.7586  0.4994 -2.1439
   83SLPC   H2Y 7808   1.678   0.429   3.140  0.7076 -3.2490  0.2312
   83SLPC   C23 7809   1.155   0.615   3.001 -0.7340  0.3626  0.1314
   83SLPC   H3R 7810   1.198   0.516   2.974  1.4666  1.2710  0.0673
   83SLPC   H3S 7811   1.046   0.600   3.013 -0.2255 -2.8893  1.5355
   83SLPC   C24 7812   1.217   0.658   3.136 -0.0538  0.1021  0.7806
   83SLPC   H4R 7813   1.212   0.768   3.152 -0.5364  0.2429 -0.2835
   83SLPC   H4S 7814   1.321   0.618   3.143 -0.3669 -0.8176  0.3279
   83SLPC   C25 7815   1.153   0.591   3.260  0.3544 -0.5302 -0.3349
   83SLPC   H5R 7816   1.149   0.481   3.244 -1.8355 -0.7327  1.1675
   83SLPC   H5S 7817   1.049   0.628   3.275  0.5881 -0.5563  1.6154
   83SLPC   C26 7818   1.234   0.612   3.388 -0.6811 -0.1938 -0.0060
   83SLPC   H6R 7819   1.255   0.720   3.375 -0.8945 -0.3501 -1.8725
   83SLPC   H6S 7820   1.332   0.561   3.396 -0.6502 -0.2238 -0.5576
   83SLPC   C27 7821   1.147   0.583   3.518  0.4026  0.5415  0.2256
   83SLPC   H7R 7822   1.131   0.475   3.536  0.6791  0.8159  2.4205
   83SLPC   H7S 7823   1.045   0.626   3.511  1.0877  2.5047  1.5122
   83SLPC   C28 7824   1.205   0.642   3.644  0.2772 -0.1270  0.1725
   83SLPC   H8R 7825   1.232   0.750   3.639 -1.7335  0.4045 -0.0133
   83SLPC   H8S 7826   1.303   0.601   3.676  1.7622  3.2918  0.4459
   83SLPC   C29 7827   1.106   0.626   3.756  0.9570 -0.6104 -0.0866
   83SLPC   H9R 7828   1.024   0.698   3.738  2.4970  1.0463 -0.8265
   83SLPC  C210 7829   1.110   0.545   3.866 -0.2101 -0.3657 -0.3880
   83SLPC  H10R 7830   1.031   0.545   3.942 -0.0385  2.1666 -0.1154
   83SLPC  C211 7831   1.220   0.448   3.908  0.2656 -0.4360 -0.4341
   83SLPC  H11R 7832   1.311   0.449   3.844  1.3944 -2.1179  1.0361
   83SLPC  H11S 7833   1.192   0.342   3.889  0.7277 -0.4683 -0.9481
   83SLPC  C212 7834   1.238   0.458   4.059 -0.3448  0.5333  0.3045
   83SLPC  H12R 7835   1.241   0.566   4.081  0.8011  0.8415 -1.2447
   83SLPC  C213 7836   1.267   0.355   4.148  0.1018 -0.6356 -0.7124
   83SLPC  H13R 7837   1.263   0.379   4.255  0.0249 -0.4998 -0.7455
   83SLPC  C214 7838   1.281   0.201   4.130 -0.3456 -0.1732 -0.1918
   83SLPC  H14R 7839   1.278   0.175   4.022  2.9972  1.3827 -0.7751
   83SLPC  H14S 7840   1.187   0.153   4.164 -1.5768  1.0656 -1.6493
   83SLPC  C215 7841   1.414   0.151   4.204 -0.0739  0.0993 -0.6017
   83SLPC  H15R 7842   1.429   0.201   4.302  5.4209 -2.3764  0.1547
   83SLPC  H15S 7843   1.500   0.178   4.139  0.1720 -0.1268 -0.3686
   83SLPC  C216 7844   1.408   0.002   4.220  0.0674  0.4081 -0.0133
   83SLPC  H16R 7845   1.310  -0.034   4.258  0.6767 -0.0008  1.2164
   83SLPC  H16S 7846   1.479  -0.024   4.302  1.4182  0.7753 -1.0307
   83SLPC  C217 7847   1.461  -0.074   4.100  0.4394  0.9177  1.0587
   83SLPC  H17R 7848   1.444  -0.021   4.004  2.7354 -2.9066 -1.6992
   83SLPC  H17S 7849   1.402  -0.168   4.106  1.5413  0.2227  1.2679
   83SLPC  C218 7850   1.613  -0.106   4.103  0.6571 -0.4433  0.2834
   83SLPC  H18R 7851   1.638  -0.168   4.015  0.2525  0.1735 -0.2781
   83SLPC  H18S 7852   1.636  -0.170   4.190 -2.3110 -0.4516  1.1831
   83SLPC  H18T 7853   1.662  -0.007   4.100 -1.8935  1.0159  2.1969
   83SLPC   C33 7854   1.549   0.268   3.178  0.0302 -0.3707 -0.2119
   83SLPC   H3X 7855   1.648   0.221   3.195  1.3964  2.4694  0.2232
   83SLPC   H3Y 7856   1.491   0.205   3.107 -0.0277 -0.4118 -0.1287
   83SLPC   C34 7857   1.484   0.276   3.317 -0.2660  0.0601  0.2699
   83SLPC   H4X 7858   1.448   0.174   3.339 -1.7445  0.3514 -0.6630
   83SLPC   H4Y 7859   1.396   0.343   3.310 -0.3056  0.0056  0.2470
   83SLPC   C35 7860   1.571   0.320   3.436 -0.0831 -0.3588 -0.8836
   83SLPC   H5X 7861   1.649   0.244   3.456  1.4321  0.8274 -1.9850
   83SLPC   H5Y 7862   1.508   0.326   3.527  0.2033 -1.0347 -0.6422
   83SLPC   C36 7863   1.641   0.458   3.424  0.3729 -0.1937 -0.3963
   83SLPC   H6X 7864   1.568   0.542   3.422 -0.9552 -1.2969  0.2751
   83SLPC   H6Y 7865   1.708   0.463   3.335  2.1022  0.7467  0.8957
   83SLPC   C37 7866   1.722   0.514   3.548 -0.6311  1.1004  0.8224
   83SLPC   H7X 7867   1.774   0.426   3.592 -1.5724 -0.1856 -0.5154
   83SLPC   H7Y 7868   1.653   0.556   3.624 -2.1812  1.2549 -0.5821
   83SLPC   C38 7869   1.822   0.620   3.501 -0.7519 -0.4686 -0.1295
   83SLPC   H8X 7870   1.761   0.700   3.454  1.3476  0.7592 -0.8904
   83SLPC   H8Y 7871   1.899   0.593   3.426  1.6871 -0.2027  2.1249
   83SLPC   C39 7872   1.888   0.685   3.621 -0.4274  0.8276  0.0635
   83SLPC   H9X 7873   1.979   0.624   3.636 -0.3137  0.6600 -1.2113
   83SLPC   H9Y 7874   1.831   0.685   3.717 -0.2288 -1.2235  0.2296
   83SLPC  C310 7875   1.946   0.824   3.597  0.1843  0.7471 -0.7563
   83SLPC  H10X 7876   1.865   0.897   3.615 -1.4994 -1.1394 -0.2373
   83SLPC  H10Y 7877   1.954   0.829   3.486  0.2035  0.7285 -0.7560
   83SLPC  C311 7878   2.074   0.850   3.671  0.3504 -0.0716 -0.4047
   83SLPC  H11X 7879   2.128   0.926   3.609  0.2639  1.4808  1.3334
   83SLPC  H11Y 7880   2.144   0.764   3.677  1.1565  0.4921 -1.3860
   83SLPC  C312 7881   2.052   0.914   3.812 -0.0329  0.3589  0.0105
   83SLPC  H12X 7882   2.018   1.020   3.812  1.9782  1.0460 -0.0017
   83SLPC  H12Y 7883   2.146   0.925   3.870  0.0169  2.1428 -0.3645
   83SLPC  C313 7884   1.956   0.831   3.905 -0.4085 -0.9780  0.0229
   83SLPC  H13X 7885   1.967   0.721   3.889  0.1063 -0.8778 -0.3442
   83SLPC  H13Y 7886   1.851   0.845   3.871  0.6014 -1.1481 -3.5565
   83SLPC  C314 7887   1.957   0.866   4.054 -0.4124  0.2926 -0.2386
   83SLPC  H14X 7888   1.935   0.975   4.060  0.4925  0.7127 -3.2560
   83SLPC  H14Y 7889   2.057   0.854   4.101  0.0932  0.8344 -1.1591
   83SLPC  C315 7890   1.850   0.782   4.129  0.3632  0.2175 -0.4041
   83SLPC  H15X 7891   1.868   0.676   4.103  2.3463  0.2719  0.5698
   83SLPC  H15Y 7892   1.751   0.816   4.092  0.0972 -0.2337 -0.1099
   83SLPC  C316 7893   1.873   0.786   4.284  0.0661 -0.0850  0.2144
   83SLPC  H16X 7894   1.907   0.890   4.303 -0.3345  0.3644 -1.3730
   83SLPC  H16Y 7895   1.952   0.711   4.308 -0.6596  0.4977  5.5958
   83SLPC  C317 7896   1.743   0.754   4.355  0.4852 -0.2379  0.0865
   83SLPC  H17X 7897   1.720   0.652   4.318  0.6270 -1.2144  2.4703
   83SLPC  H17Y 7898   1.663   0.824   4.322  1.7928  3.6371  4.0416
   83SLPC  C318 7899   1.738   0.721   4.506  0.1592 -0.3347 -0.0734
   83SLPC  H18X 7900   1.808   0.636   4.523  1.5301  0.5460 -1.1452
   83SLPC  H18Y 7901   1.633   0.699   4.536 -0.1364  1.4279  0.3034
   83SLPC  H18Z 7902   1.768   0.805   4.572 -1.2935 -0.6797  1.0528
   84SLPC     N 7903   6.351   3.748   2.341  0.1739  0.3681  0.3485
   84SLPC   C13 7904   6.436   3.814   2.237 -0.3605  0.0948 -0.7343
   84SLPC  H13A 7905   6.475   3.739   2.170  0.9006  0.7110 -0.7012
   84SLPC  H13B 7906   6.382   3.894   2.189 -1.2140  0.4399  0.7210
   84SLPC  H13C 7907   6.523   3.850   2.290 -1.0574 -0.7925  1.1229
   84SLPC   C14 7908   6.431   3.636   2.399  0.5276 -0.0242  0.0102
   84SLPC  H14A 7909   6.522   3.667   2.447  1.0359 -1.0212 -0.2775
   84SLPC  H14B 7910   6.374   3.571   2.465  0.1325 -1.4718 -1.6816
   84SLPC  H14C 7911   6.462   3.566   2.322  1.4603 -0.0206  0.3772
   84SLPC   C15 7912   6.235   3.685   2.266  0.1640 -0.1121  0.3636
   84SLPC  H15A 7913   6.209   3.768   2.202  0.2909 -0.2202  0.1688
   84SLPC  H15B 7914   6.258   3.594   2.211  0.3052 -0.2100  0.5864
   84SLPC  H15C 7915   6.149   3.674   2.330 -1.1789  1.4899 -1.0620
   84SLPC   C12 7916   6.306   3.846   2.438  0.3737 -0.2096 -0.2773
   84SLPC  H12A 7917   6.218   3.901   2.409 -0.6241 -1.4240  0.3045
   84SLPC  H12B 7918   6.390   3.911   2.453  0.4451 -0.0971 -1.1031
   84SLPC   C11 7919   6.273   3.802   2.586 -0.0606  0.1658  0.2896
   84SLPC  H11A 7920   6.229   3.889   2.639 -3.7003 -0.7425 -0.8955
   84SLPC  H11B 7921   6.371   3.769   2.625  0.1273  0.4954  0.0953
   84SLPC     P 7922   6.016   3.742   2.577 -0.3931  0.2819  0.1511
   84SLPC   O13 7923   5.995   3.851   2.483 -0.4558  0.1539 -0.2027
   84SLPC   O14 7924   5.940   3.621   2.546 -0.9758  0.1526  0.6134
   84SLPC   O12 7925   6.174   3.700   2.584  0.5004  0.0251 -0.4335
   84SLPC   O11 7926   5.972   3.794   2.722 -0.2143 -0.1965  0.4556
   84SLPC    C1 7927   6.041   3.752   2.841 -0.5770  0.3468 -0.0426
   84SLPC    HA 7928   6.146   3.787   2.831  0.0783 -1.7614 -1.4833
   84SLPC    HB 7929   5.999   3.812   2.924  1.2320 -0.3923  1.4669
   84SLPC    C2 7930   6.025   3.603   2.858 -0.1572 -0.0596  0.0076
   84SLPC    HS 7931   6.062   3.546   2.770 -1.9967 -1.3921  0.0360
   84SLPC   O21 7932   5.884   3.578   2.887  0.0866  0.1598 -0.3750
   84SLPC   C21 7933   5.846   3.455   2.905 -0.1683  0.2796 -0.7966
   84SLPC   O22 7934   5.903   3.351   2.903 -0.1027  0.3921 -0.2609
   84SLPC   C22 7935   5.690   3.450   2.926  0.0086  0.0795  0.2241
   84SLPC   H2R 7936   5.665   3.555   2.900  3.3388  1.0017  0.2762
   84SLPC   H2S 7937   5.637   3.387   2.851 -3.7750  3.0155  0.1306
   84SLPC    C3 7938   6.111   3.551   2.976  0.2756 -0.3617 -0.0655
   84SLPC    HX 7939   6.210   3.602   2.970  1.1391 -1.8498  0.9520
   84SLPC    HY 7940   6.129   3.442   2.977  0.0752 -0.4510 -2.1751
   84SLPC   O31 7941   6.056   3.589   3.102  0.1920 -0.1552  0.2763
   84SLPC   C31 7942   6.086   3.706   3.165  0.0251  0.8341 -1.0485
   84SLPC   O32 7943   6.164   3.786   3.123  0.2606 -0.4099  0.3483
   84SLPC   C32 7944   6.019   3.707   3.302  0.2827 -0.6593 -0.2751
   84SLPC   H2X 7945   6.017   3.605   3.346  1.1376 -0.3331  0.5497
   84SLPC   H2Y 7946   5.911   3.714   3.277 -0.0476 -0.7139  1.0552
   84SLPC   C23 7947   5.659   3.392   3.067  0.1453  0.2473  0.7810
   84SLPC   H3R 7948   5.716   3.431   3.154 -0.7411 -0.8213  1.8690
   84SLPC   H3S 7949   5.673   3.282   3.070 -1.2223  0.0321  0.1025
   84SLPC   C24 7950   5.508   3.423   3.100  0.6180  0.5149  0.3186
   84SLPC   H4R 7951   5.442   3.376   3.023  1.3077  0.5751 -0.3196
   84SLPC   H4S 7952   5.502   3.534   3.090 -2.7857  0.6985  2.5169
   84SLPC   C25 7953   5.455   3.385   3.234  0.4350  0.1176  0.4126
   84SLPC   H5R 7954   5.348   3.415   3.237 -0.1176 -1.5879 -0.6073
   84SLPC   H5S 7955   5.509   3.437   3.315  0.9288  0.6508 -0.2451
   84SLPC   C26 7956   5.461   3.235   3.267  0.0561  0.2209  0.7705
   84SLPC   H6R 7957   5.567   3.202   3.280 -0.1471 -1.4347 -1.2736
   84SLPC   H6S 7958   5.416   3.187   3.178 -1.0046 -0.5439  1.6901
   84SLPC   C27 7959   5.383   3.183   3.388  0.3032 -0.9721  0.0578
   84SLPC   H7R 7960   5.394   3.072   3.392 -0.0352 -1.1439 -2.2868
   84SLPC   H7S 7961   5.276   3.207   3.373  0.3886  1.3319  2.3723
   84SLPC   C28 7962   5.415   3.254   3.524  0.0900 -0.1208  0.7245
   84SLPC   H8R 7963   5.384   3.361   3.521  0.7898  0.0748  0.0090
   84SLPC   H8S 7964   5.525   3.262   3.538 -0.0198  0.2569  1.4217
   84SLPC   C29 7965   5.346   3.183   3.634 -0.1839 -0.1033 -0.2140
   84SLPC   H9R 7966   5.417   3.118   3.688 -0.6044  1.2888  2.1815
   84SLPC  C210 7967   5.222   3.192   3.680  0.8626 -0.1854  0.6126
   84SLPC  H10R 7968   5.195   3.134   3.769 -1.0127 -0.0611  0.1696
   84SLPC  C211 7969   5.110   3.283   3.624  0.0808 -0.1212 -0.3895
   84SLPC  H11R 7970   5.135   3.343   3.534 -1.0218 -0.7083 -1.1178
   84SLPC  H11S 7971   5.104   3.357   3.707  0.2897 -2.0253  1.4125
   84SLPC  C212 7972   4.980   3.221   3.602 -0.3517  0.1948  0.2914
   84SLPC  H12R 7973   4.967   3.190   3.497  1.3555 -3.7796  1.0781
   84SLPC  C213 7974   4.892   3.196   3.698  0.0461 -0.4243 -0.3800
   84SLPC  H13R 7975   4.801   3.140   3.673 -1.2637  1.1297  0.7183
   84SLPC  C214 7976   4.916   3.218   3.842  0.9372  0.7870  0.6591
   84SLPC  H14R 7977   4.904   3.326   3.866 -0.3637  1.0913 -1.1499
   84SLPC  H14S 7978   5.014   3.188   3.884  0.2019  0.0229  1.8878
   84SLPC  C215 7979   4.824   3.133   3.932 -0.2393  0.4410  0.4922
   84SLPC  H15R 7980   4.842   3.027   3.903 -0.3681  0.4655  0.3216
   84SLPC  H15S 7981   4.718   3.165   3.925  0.0537  1.2617 -0.4924
   84SLPC  C216 7982   4.850   3.159   4.085 -0.8237  0.0277  0.2708
   84SLPC  H16R 7983   4.871   3.265   4.111  2.1585 -0.3266 -0.3455
   84SLPC  H16S 7984   4.947   3.111   4.110 -1.7625 -0.1345  4.2472
   84SLPC  C217 7985   4.741   3.104   4.177  0.5635  0.5928  0.1743
   84SLPC  H17R 7986   4.653   3.169   4.153  0.1156 -0.0411  0.0635
   84SLPC  H17S 7987   4.774   3.108   4.282  1.6107 -0.3913 -0.1053
   84SLPC  C218 7988   4.713   2.948   4.154 -0.0194  0.5052  0.3641
   84SLPC  H18R 7989   4.617   2.925   4.204 -1.7257  0.9092 -2.5178
   84SLPC  H18S 7990   4.796   2.887   4.196  2.3387  2.6853 -0.7907
   84SLPC  H18T 7991   4.697   2.932   4.045 -1.9705  3.3591  0.1071
   84SLPC   C33 7992   6.071   3.806   3.403  0.1607  0.4712 -0.9616
   84SLPC   H3X 7993   6.070   3.915   3.382  1.7446  1.0012  1.2487
   84SLPC   H3Y 7994   6.179   3.782   3.411  0.4166  1.0807 -2.3791
   84SLPC   C34 7995   6.004   3.798   3.544  0.7972 -0.7396 -0.4283
   84SLPC   H4X 7996   5.977   3.695   3.575 -0.9055 -0.1364  0.2361
   84SLPC   H4Y 7997   5.901   3.840   3.536  0.3701 -1.8548 -0.9268
   84SLPC   C35 7998   6.073   3.867   3.658  0.4909 -0.4213  0.3823
   84SLPC   H5X 7999   6.112   3.962   3.615  0.8473 -0.4151  0.7068
   84SLPC   H5Y 8000   6.164   3.815   3.696  0.2894  0.3230  1.9474
   84SLPC   C36 8001   5.985   3.892   3.786 -0.1842 -0.5583 -0.1398
   84SLPC   H6X 8002   5.894   3.952   3.761 -1.0401 -2.2376 -1.2559
   84SLPC   H6Y 8003   6.051   3.945   3.857 -1.9670  1.7357 -0.0940
   84SLPC   C37 8004   5.940   3.754   3.830  0.3230 -0.1286 -0.2951
   84SLPC   H7X 8005   6.022   3.680   3.840 -0.4754 -0.7702  2.3800
   84SLPC   H7Y 8006   5.862   3.729   3.755  1.2573 -0.1438 -1.2891
   84SLPC   C38 8007   5.885   3.754   3.972 -0.2938  0.2281 -0.1452
   84SLPC   H8X 8008   5.830   3.662   4.003 -0.4078  0.3097 -0.1066
   84SLPC   H8Y 8009   5.825   3.847   3.970  0.0804  0.4951  0.8671
   84SLPC   C39 8010   5.991   3.776   4.088 -0.3518  0.6462  0.4444
   84SLPC   H9X 8011   6.052   3.863   4.057 -0.0936  0.5848  0.7775
   84SLPC   H9Y 8012   6.043   3.679   4.103 -1.3655  0.2908  1.8607
   84SLPC  C310 8013   5.938   3.809   4.233  0.2610 -0.2061  0.2738
   84SLPC  H10X 8014   5.898   3.911   4.246  0.0287 -0.0625 -1.3341
   84SLPC  H10Y 8015   6.024   3.806   4.304  1.4439  1.3824 -1.0136
   84SLPC  C311 8016   5.830   3.698   4.263  0.4124 -0.3198 -0.8526
   84SLPC  H11X 8017   5.864   3.596   4.234 -1.2194 -1.3032  0.5250
   84SLPC  H11Y 8018   5.743   3.727   4.201 -1.3650  0.4064  1.8055
   84SLPC  C312 8019   5.787   3.694   4.413  0.2462  0.0074 -0.0555
   84SLPC  H12X 8020   5.752   3.791   4.455 -1.2839 -1.1847  1.5610
   84SLPC  H12Y 8021   5.865   3.643   4.474  0.2957 -1.1407 -1.0467
   84SLPC  C313 8022   5.665   3.598   4.411  0.1432 -0.2179  0.5535
   84SLPC  H13X 8023   5.709   3.496   4.407  2.9282  0.9261 -0.9589
   84SLPC  H13Y 8024   5.598   3.607   4.323 -0.2433 -1.6670  0.6794
   84SLPC  C314 8025   5.575   3.600   4.541  1.3514 -0.4210  0.1733
   84SLPC  H14X 8026   5.495   3.528   4.516  0.2688  0.0416  2.1293
   84SLPC  H14Y 8027   5.529   3.700   4.552 -0.1920 -1.1371  0.4154
   84SLPC  C315 8028   5.632   3.544   4.666 -0.2532 -0.1541 -0.0686
   84SLPC  H15X 8029   5.715   3.611   4.698 -0.9654  0.3222  0.8446
   84SLPC  H15Y 8030   5.665   3.438   4.671  0.4475  0.0877  0.6574
   84SLPC  C316 8031   5.535   3.552   4.789 -0.0472 -1.2227  0.0073
   84SLPC  H16X 8032   5.437   3.505   4.763  0.2794 -3.0084  1.7347
   84SLPC  H16Y 8033   5.507   3.659   4.799 -0.3250 -1.1695 -1.1633
   84SLPC  C317 8034   5.595   3.476   4.910 -0.0406  0.2869 -0.3877
   84SLPC  H17X 8035   5.668   3.544   4.959  0.5737 -1.4820  1.2506
   84SLPC  H17Y 8036   5.638   3.379   4.877 -0.2584 -0.7884  2.2295
   84SLPC  C318 8037   5.489   3.453   5.014  0.3150 -0.1281  1.0693
   84SLPC  H18X 8038   5.398   3.399   4.979  0.7930 -1.1911  1.4003
   84SLPC  H18Y 8039   5.443   3.549   5.045 -1.4255  0.8272 -3.5618
   84SLPC  H18Z 8040   5.532   3.403   5.104  0.2599 -3.2580 -0.4874
   85SLPC     N 8041   4.080   5.741   2.141 -0.2172  0.6158  0.2249
   85SLPC   C13 8042   4.185   5.636   2.089  0.0261 -0.8492  0.0318
   85SLPC  H13A 8043   4.272   5.699   2.074 -1.0639  1.6568  2.9962
   85SLPC  H13B 8044   4.204   5.559   2.163  1.0854 -0.9955 -0.3784
   85SLPC  H13C 8045   4.146   5.605   1.993  0.5235 -1.1021 -0.0883
   85SLPC   C14 8046   3.951   5.670   2.160  0.4232 -0.6721  0.6315
   85SLPC  H14A 8047   3.961   5.600   2.241  1.2848  1.0255  2.0631
   85SLPC  H14B 8048   3.877   5.744   2.186  1.1470  0.3499 -0.1244
   85SLPC  H14C 8049   3.924   5.636   2.061  1.3255 -2.3509  0.9332
   85SLPC   C15 8050   4.065   5.848   2.041 -0.3266 -0.0416 -0.3370
   85SLPC  H15A 8051   4.030   5.811   1.946 -0.2341  0.7703 -0.6953
   85SLPC  H15B 8052   3.997   5.926   2.073  2.1970  2.6678 -1.0452
   85SLPC  H15C 8053   4.161   5.892   2.015 -0.0311 -0.3632  0.1875
   85SLPC   C12 8054   4.120   5.797   2.274  0.4374 -0.0423 -1.1113
   85SLPC  H12A 8055   4.220   5.838   2.272 -0.2572  1.8041 -0.4558
   85SLPC  H12B 8056   4.123   5.716   2.345 -0.0265 -0.0790 -1.1323
   85SLPC   C11 8057   4.037   5.913   2.336 -0.5539 -0.4090  0.0776
   85SLPC  H11A 8058   4.070   5.910   2.442  1.3084 -2.1422 -0.4736
   85SLPC  H11B 8059   3.932   5.880   2.325 -0.7621  0.0605  0.6378
   85SLPC     P 8060   4.196   6.119   2.279  0.5397  0.1003 -0.3036
   85SLPC   O13 8061   4.300   6.020   2.299  0.3558  0.1318 -0.0188
   85SLPC   O14 8062   4.205   6.205   2.163  0.0330 -0.8448 -0.1703
   85SLPC   O12 8063   4.049   6.047   2.273 -0.1787  0.0060 -0.2099
   85SLPC   O11 8064   4.187   6.214   2.402 -0.5851  0.5507  0.4261
   85SLPC    C1 8065   4.078   6.292   2.432 -0.9284  0.3377  0.2232
   85SLPC    HA 8066   4.117   6.390   2.466  0.4216  0.4443 -1.5122
   85SLPC    HB 8067   4.013   6.320   2.346  1.2902 -0.8950 -1.9809
   85SLPC    C2 8068   3.998   6.246   2.554  1.0197 -0.5112  0.1185
   85SLPC    HS 8069   3.952   6.334   2.605 -2.1858 -2.2955  0.5310
   85SLPC   O21 8070   4.067   6.170   2.646  0.3311  0.1318 -0.2298
   85SLPC   C21 8071   4.157   6.240   2.709  0.1987  0.3109  0.8493
   85SLPC   O22 8072   4.188   6.358   2.692  0.0605 -0.3281  0.5192
   85SLPC   C22 8073   4.229   6.153   2.803  0.6360  0.2228 -0.4671
   85SLPC   H2R 8074   4.232   6.047   2.767 -2.6293 -0.4129  0.8398
   85SLPC   H2S 8075   4.334   6.189   2.798  0.2812  1.8327  2.0089
   85SLPC    C3 8076   3.866   6.172   2.522 -0.1477 -0.8518  0.0127
   85SLPC    HX 8077   3.873   6.066   2.489 -1.1989 -0.8117 -0.3716
   85SLPC    HY 8078   3.817   6.220   2.434 -0.4967  1.3599  1.3322
   85SLPC   O31 8079   3.776   6.193   2.631 -0.2396 -0.0732  0.1600
   85SLPC   C31 8080   3.772   6.092   2.714  0.1787  0.3484  0.1970
   85SLPC   O32 8081   3.802   5.975   2.696  0.1715  0.2981  0.4379
   85SLPC   C32 8082   3.731   6.140   2.848 -0.8081 -0.7472  0.2003
   85SLPC   H2X 8083   3.631   6.188   2.842 -0.0631  0.9243  0.7158
   85SLPC   H2Y 8084   3.797   6.224   2.875 -1.1405  0.2042 -1.7407
   85SLPC   C23 8085   4.160   6.159   2.938 -0.2780 -0.4566  0.1992
   85SLPC   H3R 8086   4.053   6.128   2.940 -0.3198 -0.6556 -2.2645
   85SLPC   H3S 8087   4.149   6.263   2.973  0.5755 -0.0152 -0.8016
   85SLPC   C24 8088   4.241   6.064   3.032  0.2442  0.0568  0.0194
   85SLPC   H4R 8089   4.349   6.082   3.013  0.1547  0.6352  0.0457
   85SLPC   H4S 8090   4.223   5.965   2.984 -0.4120  1.2762 -2.4046
   85SLPC   C25 8091   4.193   6.069   3.177 -0.2848 -0.0024 -0.2095
   85SLPC   H5R 8092   4.183   6.177   3.202 -1.2853 -0.5732  2.1844
   85SLPC   H5S 8093   4.091   6.026   3.187 -0.1370 -0.2228  0.3859
   85SLPC   C26 8094   4.304   6.026   3.272  0.0149 -0.0119  0.2266
   85SLPC   H6R 8095   4.395   6.069   3.226  1.1472 -1.1473  1.3054
   85SLPC   H6S 8096   4.318   5.916   3.263  0.7155  0.1273 -0.4147
   85SLPC   C27 8097   4.280   6.068   3.418  0.2919 -0.3776  0.2258
   85SLPC   H7R 8098   4.184   6.021   3.449 -0.9764  0.1530 -2.5506
   85SLPC   H7S 8099   4.262   6.177   3.413 -1.1346 -0.6260 -0.7893
   85SLPC   C28 8100   4.401   6.044   3.511  0.0513  0.7054  0.1119
   85SLPC   H8R 8101   4.489   6.065   3.446  0.8833 -0.5224  0.8019
   85SLPC   H8S 8102   4.407   5.936   3.536  1.9481  0.1804 -2.2490
   85SLPC   C29 8103   4.397   6.142   3.633 -0.8290 -0.7451  0.5084
   85SLPC   H9R 8104   4.445   6.241   3.627 -0.5093 -0.9032  0.4324
   85SLPC  C210 8105   4.336   6.108   3.745 -0.2012  0.5689 -0.7758
   85SLPC  H10R 8106   4.341   6.180   3.828  0.7250  0.4894 -0.7539
   85SLPC  C211 8107   4.276   5.977   3.768 -0.1206 -0.0974  0.0218
   85SLPC  H11R 8108   4.339   5.899   3.720  0.7953  0.2847  0.5962
   85SLPC  H11S 8109   4.177   5.978   3.717  0.2529  2.0683 -0.7363
   85SLPC  C212 8110   4.255   5.939   3.909  0.3201 -0.2531  0.0814
   85SLPC  H12R 8111   4.218   6.024   3.969 -1.2269  0.1431 -1.3485
   85SLPC  C213 8112   4.289   5.830   3.979 -0.4797  0.0511 -0.3553
   85SLPC  H13R 8113   4.255   5.822   4.083 -1.8079 -1.1872 -0.8335
   85SLPC  C214 8114   4.354   5.700   3.938 -0.1141  0.4678 -0.0293
   85SLPC  H14R 8115   4.352   5.697   3.827 -0.0035 -1.6372 -0.0087
   85SLPC  H14S 8116   4.289   5.618   3.975  1.4821 -1.0266 -0.4579
   85SLPC  C215 8117   4.499   5.684   3.993  0.2786 -0.3772  0.9070
   85SLPC  H15R 8118   4.569   5.767   3.971  3.2921 -2.8206  0.5767
   85SLPC  H15S 8119   4.541   5.593   3.945 -2.9721 -1.4391 -0.1663
   85SLPC  C216 8120   4.510   5.657   4.146 -0.5201  0.7540 -0.0210
   85SLPC  H16R 8121   4.470   5.750   4.193  0.4365  0.8141  0.6923
   85SLPC  H16S 8122   4.619   5.642   4.161 -0.5810  0.1505 -0.1773
   85SLPC  C217 8123   4.419   5.546   4.202  0.5786  0.6573  0.4347
   85SLPC  H17R 8124   4.435   5.460   4.134  0.0729  1.4205 -0.6837
   85SLPC  H17S 8125   4.318   5.588   4.184  0.9705  1.5401  0.2308
   85SLPC  C218 8126   4.433   5.508   4.349 -0.0877  0.5609  0.2466
   85SLPC  H18R 8127   4.371   5.424   4.388  1.5136 -1.1411 -0.7002
   85SLPC  H18S 8128   4.422   5.601   4.408  1.8598  0.9845  0.0076
   85SLPC  H18T 8129   4.530   5.458   4.365  0.7578  1.3815 -1.8921
   85SLPC   C33 8130   3.753   6.037   2.959 -0.1030  0.7222 -0.2459
   85SLPC   H3X 8131   3.860   6.010   2.949  0.0553  1.0951  0.4181
   85SLPC   H3Y 8132   3.700   5.940   2.948  1.0956 -0.1823  1.5354
   85SLPC   C34 8133   3.731   6.093   3.105  0.7177  0.7236  0.4331
   85SLPC   H4X 8134   3.623   6.106   3.130  1.0292 -1.1945  3.1504
   85SLPC   H4Y 8135   3.779   6.193   3.100 -0.9680  1.5256 -2.5118
   85SLPC   C35 8136   3.798   6.009   3.219  0.4589 -0.1247 -0.3608
   85SLPC   H5X 8137   3.890   5.956   3.187 -0.1214 -1.1316 -0.3989
   85SLPC   H5Y 8138   3.728   5.925   3.241 -1.0377  1.4065  1.0157
   85SLPC   C36 8139   3.824   6.098   3.338  0.1302 -0.2896  0.6032
   85SLPC   H6X 8140   3.729   6.154   3.356  0.7493  1.3696 -0.9674
   85SLPC   H6Y 8141   3.903   6.173   3.314 -1.2086  1.2069  0.7102
   85SLPC   C37 8142   3.861   6.041   3.479  0.3769 -0.4437  0.6021
   85SLPC   H7X 8143   3.944   5.971   3.454  0.6920  0.4849 -1.0927
   85SLPC   H7Y 8144   3.780   5.978   3.522  0.5020  1.2109  3.5457
   85SLPC   C38 8145   3.887   6.152   3.583  0.2282  0.8004 -0.4323
   85SLPC   H8X 8146   3.807   6.229   3.580 -1.3939 -0.7015  1.4295
   85SLPC   H8Y 8147   3.983   6.201   3.554 -0.1458  2.1521  0.5251
   85SLPC   C39 8148   3.894   6.091   3.720  0.0267  0.4549 -0.0360
   85SLPC   H9X 8149   3.978   6.138   3.776  0.9905 -2.2825  0.9961
   85SLPC   H9Y 8150   3.919   5.982   3.716  0.2500  0.5010  0.0911
   85SLPC  C310 8151   3.764   6.107   3.799 -0.2272 -0.1702 -0.4346
   85SLPC  H10X 8152   3.681   6.041   3.765 -0.3568 -0.2262 -0.0126
   85SLPC  H10Y 8153   3.729   6.213   3.796 -1.8084 -0.6848 -1.3259
   85SLPC  C311 8154   3.783   6.080   3.950  0.7098  0.5179  0.3771
   85SLPC  H11X 8155   3.883   6.106   3.990 -0.1257  2.6778  1.2073
   85SLPC  H11Y 8156   3.744   5.979   3.977 -0.8647  0.5983 -1.4034
   85SLPC  C312 8157   3.691   6.172   4.037 -0.5171 -0.1996  0.9735
   85SLPC  H12X 8158   3.587   6.136   4.021 -0.9588  0.9614  1.1330
   85SLPC  H12Y 8159   3.697   6.277   4.002  0.2985 -0.9221 -1.1730
   85SLPC  C313 8160   3.721   6.175   4.193  0.5046  0.1173  0.6555
   85SLPC  H13X 8161   3.655   6.251   4.241 -2.2484 -1.6516 -0.0594
   85SLPC  H13Y 8162   3.821   6.216   4.215  1.9394 -0.5192 -3.7193
   85SLPC  C314 8163   3.696   6.037   4.255  0.4998  0.9123 -0.5739
   85SLPC  H14X 8164   3.775   5.967   4.220 -0.3273 -0.6878  0.6806
   85SLPC  H14Y 8165   3.594   6.012   4.219  0.0243 -1.1377  1.9487
   85SLPC  C315 8166   3.698   6.037   4.410 -0.0693  1.0584 -0.2538
   85SLPC  H15X 8167   3.631   6.112   4.457  0.1222  1.0765 -0.0080
   85SLPC  H15Y 8168   3.804   6.064   4.428  0.5996 -0.8282 -1.1062
   85SLPC  C316 8169   3.668   5.898   4.461 -0.0908  0.0019 -0.0324
   85SLPC  H16X 8170   3.666   5.912   4.572  1.6098  1.7621 -0.1533
   85SLPC  H16Y 8171   3.750   5.826   4.441  1.4304  1.1874  1.5497
   85SLPC  C317 8172   3.525   5.843   4.430  0.6841  0.1397  0.5382
   85SLPC  H17X 8173   3.508   5.890   4.331 -1.5604  0.6610  1.1328
   85SLPC  H17Y 8174   3.460   5.895   4.503 -1.5461 -1.0119 -0.5269
   85SLPC  C318 8175   3.499   5.694   4.434 -0.4136 -0.1315 -0.1722
   85SLPC  H18X 8176   3.554   5.642   4.352 -0.1347 -0.9618  0.5320
   85SLPC  H18Y 8177   3.394   5.669   4.406 -0.0989 -1.0034 -0.6121
   85SLPC  H18Z 8178   3.523   5.645   4.530 -1.2592 -1.3754 -0.5674
   86SLPC     N 8179   5.162   3.889   2.072 -0.3487  0.2888 -0.3187
   86SLPC   C13 8180   5.136   3.794   1.949  0.1120  0.1620 -0.2606
   86SLPC  H13A 8181   5.188   3.832   1.862 -0.3560  0.7309 -0.2996
   86SLPC  H13B 8182   5.168   3.693   1.969 -0.1691  0.3171  1.0503
   86SLPC  H13C 8183   5.032   3.799   1.919 -0.4815 -2.8852  0.9073
   86SLPC   C14 8184   5.102   4.023   2.030  0.8866 -0.2480 -1.0763
   86SLPC  H14A 8185   5.153   4.047   1.938 -0.5299 -2.5015 -2.5167
   86SLPC  H14B 8186   4.997   4.011   2.009  0.6190 -0.2019  0.1504
   86SLPC  H14C 8187   5.130   4.097   2.105  3.7164 -2.4916  0.2819
   86SLPC   C15 8188   5.308   3.888   2.094  0.3053 -0.3045  0.4849
   86SLPC  H15A 8189   5.355   3.934   2.008  0.9561 -0.4476  0.7637
   86SLPC  H15B 8190   5.335   3.944   2.182 -0.7105  1.0739 -0.0375
   86SLPC  H15C 8191   5.346   3.788   2.104  0.5062 -0.1699  1.1109
   86SLPC   C12 8192   5.090   3.835   2.199  0.4477  0.2564  0.6293
   86SLPC  H12A 8193   5.130   3.736   2.211 -0.3781 -0.4141 -1.5387
   86SLPC  H12B 8194   4.985   3.827   2.174 -0.0395 -0.9146  2.8195
   86SLPC   C11 8195   5.102   3.916   2.326 -0.3671 -0.2562  0.2039
   86SLPC  H11A 8196   5.044   3.861   2.403 -0.2566  1.0034  1.2177
   86SLPC  H11B 8197   5.047   4.012   2.315 -1.5299 -1.0019 -0.7232
   86SLPC     P 8198   5.268   4.079   2.439 -0.1478  0.0274  0.0322
   86SLPC   O13 8199   5.408   4.081   2.477  0.2213 -0.2165  0.0848
   86SLPC   O14 8200   5.207   4.194   2.358 -0.0571  0.1984  0.1823
   86SLPC   O12 8201   5.237   3.948   2.362  0.1103 -0.2714 -0.0102
   86SLPC   O11 8202   5.181   4.055   2.568  0.0109  0.4735 -0.3076
   86SLPC    C1 8203   5.051   4.116   2.581 -0.4403  0.6040 -0.4985
   86SLPC    HA 8204   5.071   4.219   2.618 -3.4240  0.5531  1.6578
   86SLPC    HB 8205   4.984   4.122   2.493 -1.0213  1.3776 -0.0264
   86SLPC    C2 8206   4.988   4.046   2.706  0.2021  0.4636  0.0054
   86SLPC    HS 8207   4.955   3.946   2.670 -0.2247  0.5596  0.1320
   86SLPC   O21 8208   4.875   4.126   2.757  0.1894 -0.4399 -0.0678
   86SLPC   C21 8209   4.767   4.057   2.800 -0.5940 -0.1123  0.1663
   86SLPC   O22 8210   4.754   3.935   2.788 -0.3316 -0.0944  0.3298
   86SLPC   C22 8211   4.671   4.156   2.875  0.4792 -0.0849 -0.1057
   86SLPC   H2R 8212   4.604   4.181   2.791 -0.5235 -1.8709  0.1053
   86SLPC   H2S 8213   4.618   4.095   2.951  1.3198  0.4445  0.9295
   86SLPC    C3 8214   5.089   4.023   2.827  0.1290  0.2601 -0.1011
   86SLPC    HX 8215   5.136   4.120   2.852  0.1689  0.9893 -2.6792
   86SLPC    HY 8216   5.173   3.957   2.797  0.1804  0.1223  0.3349
   86SLPC   O31 8217   5.029   3.980   2.949  0.6045  0.2710  0.0255
   86SLPC   C31 8218   4.996   3.852   2.955  0.1648 -0.3990 -0.0168
   86SLPC   O32 8219   4.996   3.771   2.865  0.1552 -0.0126  0.4277
   86SLPC   C32 8220   4.944   3.816   3.093 -0.7969 -0.0887  0.2599
   86SLPC   H2X 8221   5.027   3.753   3.133  1.3834  0.7898 -2.5308
   86SLPC   H2Y 8222   4.854   3.754   3.076 -0.6579 -0.5812  1.2567
   86SLPC   C23 8223   4.734   4.286   2.939  0.0746 -0.1351  0.4635
   86SLPC   H3R 8224   4.652   4.357   2.962 -2.3435 -1.6575 -2.7423
   86SLPC   H3S 8225   4.803   4.342   2.872 -0.5346  0.1298  0.0494
   86SLPC   C24 8226   4.808   4.264   3.069 -0.2665  0.4928 -0.4104
   86SLPC   H4R 8227   4.892   4.192   3.054  1.5050  2.0439  1.4709
   86SLPC   H4S 8228   4.731   4.221   3.136  0.5092  1.8776  1.4406
   86SLPC   C25 8229   4.865   4.393   3.137  0.3212  0.4984  0.1558
   86SLPC   H5R 8230   4.796   4.479   3.119  1.6952  1.6658  0.2560
   86SLPC   H5S 8231   4.950   4.432   3.078  0.2059  0.4255 -0.0607
   86SLPC   C26 8232   4.903   4.375   3.286  0.2982 -0.0162  0.5227
   86SLPC   H6R 8233   4.833   4.305   3.336 -2.0868  1.9402  0.0708
   86SLPC   H6S 8234   4.890   4.474   3.334  1.3168  0.9632 -1.1105
   86SLPC   C27 8235   5.041   4.316   3.316 -0.8673  0.4812  0.2809
   86SLPC   H7R 8236   5.120   4.368   3.258 -1.6436  1.8413  0.4114
   86SLPC   H7S 8237   5.042   4.208   3.289 -1.7218  0.1932  1.3464
   86SLPC   C28 8238   5.067   4.338   3.467 -0.4753 -0.7242 -0.2914
   86SLPC   H8R 8239   5.034   4.434   3.512  2.0697  0.3173 -0.4983
   86SLPC   H8S 8240   5.176   4.331   3.488 -0.6832 -0.7300  0.8355
   86SLPC   C29 8241   4.989   4.239   3.554 -0.4334 -0.2547  0.2946
   86SLPC   H9R 8242   4.887   4.225   3.515 -1.4656  0.6308  2.5193
   86SLPC  C210 8243   5.037   4.176   3.655 -0.1695 -0.5754  0.5701
   86SLPC  H10R 8244   4.977   4.097   3.703  0.7464 -1.2115  0.6816
   86SLPC  C211 8245   5.170   4.185   3.724  0.6434  0.7855  0.7645
   86SLPC  H11R 8246   5.251   4.185   3.647  1.4932 -3.3922  1.4028
   86SLPC  H11S 8247   5.187   4.089   3.778 -0.7697 -0.4019 -0.8113
   86SLPC  C212 8248   5.190   4.307   3.811 -0.7702 -0.5235 -0.3654
   86SLPC  H12R 8249   5.141   4.399   3.777  0.7319 -0.0452 -1.3106
   86SLPC  C213 8250   5.245   4.319   3.934  1.1116 -0.1105  0.3084
   86SLPC  H13R 8251   5.255   4.418   3.981  0.1652 -0.1907  0.6946
   86SLPC  C214 8252   5.304   4.212   4.018  0.0287  0.4433  0.4323
   86SLPC  H14R 8253   5.302   4.110   3.974 -0.9424  1.1265 -1.2014
   86SLPC  H14S 8254   5.255   4.216   4.117 -0.4063  2.8510  0.1837
   86SLPC  C215 8255   5.455   4.245   4.044  0.1226 -0.3205 -1.1938
   86SLPC  H15R 8256   5.465   4.347   4.086 -0.4462 -1.8684  3.3890
   86SLPC  H15S 8257   5.516   4.234   3.952  2.1959 -2.1584  0.2743
   86SLPC  C216 8258   5.526   4.151   4.147 -0.0619  0.0809  0.3277
   86SLPC  H16R 8259   5.526   4.045   4.114  0.4070  0.2447 -0.2058
   86SLPC  H16S 8260   5.464   4.148   4.239 -0.6761 -0.8991 -0.1066
   86SLPC  C217 8261   5.672   4.191   4.180 -0.2282 -0.5124 -0.0203
   86SLPC  H17R 8262   5.724   4.115   4.240  0.7009  0.3644  0.3101
   86SLPC  H17S 8263   5.666   4.284   4.240  0.5852 -0.3012 -0.2587
   86SLPC  C218 8264   5.763   4.217   4.062 -0.5461 -0.2423 -0.5240
   86SLPC  H18R 8265   5.736   4.302   3.996 -1.3226  0.7111  0.9777
   86SLPC  H18S 8266   5.763   4.127   3.997  1.0599 -1.7317  1.4129
   86SLPC  H18T 8267   5.871   4.224   4.086  0.7639 -1.6889 -4.9297
   86SLPC   C33 8268   4.901   3.925   3.188 -0.0725 -0.3413  0.3777
   86SLPC   H3X 8269   4.825   3.988   3.137 -0.6479 -2.6598 -1.8326
   86SLPC   H3Y 8270   4.983   3.994   3.218 -0.1199  0.0282 -0.3228
   86SLPC   C34 8271   4.817   3.871   3.309  0.1116  0.0569 -0.4004
   86SLPC   H4X 8272   4.874   3.794   3.366  1.0206  0.0091 -1.3267
   86SLPC   H4Y 8273   4.729   3.815   3.272 -0.6606 -0.0988  1.5960
   86SLPC   C35 8274   4.768   3.975   3.412 -0.0114 -0.3371  0.8623
   86SLPC   H5X 8275   4.718   4.056   3.354 -2.7036 -0.3344  2.9947
   86SLPC   H5Y 8276   4.868   4.017   3.439 -0.0528  0.2984  0.0742
   86SLPC   C36 8277   4.688   3.922   3.526  0.6851  0.6060 -0.0136
   86SLPC   H6X 8278   4.747   3.840   3.570 -0.4295 -0.1034  0.2056
   86SLPC   H6Y 8279   4.585   3.888   3.499  1.0593 -0.6242  0.0719
   86SLPC   C37 8280   4.658   4.031   3.626  0.4140  0.2461 -0.2413
   86SLPC   H7X 8281   4.598   4.108   3.572  0.6977 -0.9618 -2.3940
   86SLPC   H7Y 8282   4.752   4.088   3.640  0.3555  1.0365 -2.5776
   86SLPC   C38 8283   4.581   3.985   3.753  0.5947  0.8936 -0.1406
   86SLPC   H8X 8284   4.485   3.936   3.727 -1.0151  4.9390 -2.7666
   86SLPC   H8Y 8285   4.564   4.084   3.801 -0.4486  0.1252  1.1575
   86SLPC   C39 8286   4.663   3.901   3.845  0.6276  0.1663  0.3735
   86SLPC   H9X 8287   4.648   3.793   3.820 -1.7690  0.7223 -0.8841
   86SLPC   H9Y 8288   4.612   3.903   3.943 -2.5295  0.2585 -1.1595
   86SLPC  C310 8289   4.804   3.938   3.859  0.4290 -0.0306  0.3779
   86SLPC  H10X 8290   4.817   4.049   3.864 -0.2075 -0.0133  2.2160
   86SLPC  H10Y 8291   4.859   3.900   3.770  0.6504 -2.6995  1.5855
   86SLPC  C311 8292   4.874   3.890   3.995  0.4163  0.1976  0.5355
   86SLPC  H11X 8293   4.903   3.782   3.996  0.4575  0.1795 -0.7800
   86SLPC  H11Y 8294   4.810   3.910   4.083 -0.7376  0.7926 -0.4181
   86SLPC  C312 8295   4.997   3.977   4.026 -0.3623 -0.1150  0.4594
   86SLPC  H12X 8296   4.955   4.080   4.020 -2.3883 -0.9063  0.3572
   86SLPC  H12Y 8297   5.077   3.971   3.949  1.5980  1.1904  2.2760
   86SLPC  C313 8298   5.065   3.960   4.166  0.6462 -0.6393  0.2346
   86SLPC  H13X 8299   4.988   3.930   4.239 -1.3217 -0.3780 -1.6373
   86SLPC  H13Y 8300   5.104   4.059   4.200 -0.5581 -0.3116  0.7278
   86SLPC  C314 8301   5.181   3.853   4.173  0.5925 -0.9134  0.5012
   86SLPC  H14X 8302   5.257   3.888   4.100  0.1017 -1.8290 -0.4634
   86SLPC  H14Y 8303   5.145   3.758   4.130  0.0278 -0.0602 -0.9769
   86SLPC  C315 8304   5.250   3.829   4.305  0.2739  0.1245  0.6025
   86SLPC  H15X 8305   5.313   3.919   4.322  1.4245 -0.6894  0.7546
   86SLPC  H15Y 8306   5.313   3.741   4.279  0.7520  1.0524 -1.6243
   86SLPC  C316 8307   5.151   3.795   4.426 -0.7193  0.2672 -0.2741
   86SLPC  H16X 8308   5.077   3.720   4.391 -1.2083  0.3278  0.5994
   86SLPC  H16Y 8309   5.088   3.884   4.447  1.2241  1.1597  2.3477
   86SLPC  C317 8310   5.229   3.738   4.546  0.0873 -0.2696  0.6523
   86SLPC  H17X 8311   5.290   3.813   4.600  1.2634 -0.4117 -0.4278
   86SLPC  H17Y 8312   5.304   3.667   4.504 -0.5794 -0.3773 -0.3953
   86SLPC  C318 8313   5.137   3.664   4.641 -0.1153 -1.4596 -1.0572
   86SLPC  H18X 8314   5.198   3.589   4.696  2.5073  0.7614 -0.6706
   86SLPC  H18Y 8315   5.057   3.611   4.586 -0.5402 -1.0540 -0.8413
   86SLPC  H18Z 8316   5.088   3.731   4.715  1.0341 -2.1337  0.3689
   87SLPC     N 8317   3.770   4.062   2.294 -0.0181  0.5286  0.1198
   87SLPC   C13 8318   3.709   3.946   2.216 -0.1862 -1.0219  0.7959
   87SLPC  H13A 8319   3.665   3.865   2.273 -0.8698 -0.8124  0.5624
   87SLPC  H13B 8320   3.627   3.989   2.162  1.3035 -1.4826 -2.0145
   87SLPC  H13C 8321   3.786   3.908   2.151  0.0803 -1.1406  1.1723
   87SLPC   C14 8322   3.656   4.114   2.379  0.7386  0.9463 -0.1303
   87SLPC  H14A 8323   3.689   4.193   2.445  0.3710  0.0095  1.2160
   87SLPC  H14B 8324   3.571   4.153   2.325  1.9202  2.9429 -0.6578
   87SLPC  H14C 8325   3.614   4.045   2.450  0.3067  0.4891 -0.8216
   87SLPC   C15 8326   3.805   4.177   2.206 -0.0665  0.4714 -0.2615
   87SLPC  H15A 8327   3.850   4.255   2.267  0.6553 -0.4573  0.4167
   87SLPC  H15B 8328   3.881   4.155   2.133 -0.4587 -0.0698 -0.5136
   87SLPC  H15C 8329   3.722   4.223   2.154  0.1269  0.9985 -0.1174
   87SLPC   C12 8330   3.888   4.009   2.373 -0.6898 -0.0154 -0.7409
   87SLPC  H12A 8331   3.852   3.937   2.445  0.3203 -0.2386 -0.4324
   87SLPC  H12B 8332   3.920   4.080   2.448 -1.6935 -0.1293 -0.1856
   87SLPC   C11 8333   4.002   3.944   2.289  0.1729 -0.1532  0.6219
   87SLPC  H11A 8334   4.048   4.017   2.219  1.8308 -1.0530  0.7067
   87SLPC  H11B 8335   3.951   3.862   2.234 -1.6331 -0.7753  3.0836
   87SLPC     P 8336   4.213   3.975   2.437 -0.1564  0.1800 -0.0122
   87SLPC   O13 8337   4.343   3.901   2.429 -0.2418 -0.7908  0.5612
   87SLPC   O14 8338   4.207   4.109   2.381 -0.2100 -0.2248 -1.0912
   87SLPC   O12 8339   4.097   3.882   2.380 -0.1332  0.4053 -0.1032
   87SLPC   O11 8340   4.178   3.983   2.590 -0.2781  0.5578  0.3064
   87SLPC    C1 8341   4.196   3.858   2.664 -0.0497  0.6668  0.2897
   87SLPC    HA 8342   4.136   3.770   2.633  1.1007  0.0298 -0.2164
   87SLPC    HB 8343   4.304   3.832   2.668 -0.1544 -0.4833 -2.1325
   87SLPC    C2 8344   4.173   3.880   2.820 -0.2957  0.3611  0.6949
   87SLPC    HS 8345   4.195   3.782   2.866 -1.4295 -0.0711  0.3489
   87SLPC   O21 8346   4.039   3.924   2.826 -0.1624 -0.7369  0.0447
   87SLPC   C21 8347   3.970   3.879   2.928 -0.2562 -0.1841 -0.2070
   87SLPC   O22 8348   4.013   3.814   3.020 -0.4687 -0.4059  0.7152
   87SLPC   C22 8349   3.821   3.929   2.912  0.0727  0.2603  0.1497
   87SLPC   H2R 8350   3.818   3.961   2.805  5.2732 -0.1224 -0.3853
   87SLPC   H2S 8351   3.775   3.830   2.930  1.3675 -0.2856  0.6037
   87SLPC    C3 8352   4.266   3.988   2.870  0.2162  0.3189  0.1476
   87SLPC    HX 8353   4.240   4.075   2.807  1.4345  0.3166 -0.3834
   87SLPC    HY 8354   4.375   3.968   2.858  0.0583 -2.5210  2.1644
   87SLPC   O31 8355   4.242   4.016   3.010 -0.1767 -0.4426  0.7566
   87SLPC   C31 8356   4.302   3.936   3.092  0.7561  0.3263  0.2243
   87SLPC   O32 8357   4.387   3.852   3.068 -0.5846  0.2386  0.2337
   87SLPC   C32 8358   4.252   3.972   3.230  0.6782 -0.5148  0.3997
   87SLPC   H2X 8359   4.153   4.019   3.212 -0.6413 -2.9049  0.8806
   87SLPC   H2Y 8360   4.316   4.047   3.281  0.2166  0.2013 -0.0643
   87SLPC   C23 8361   3.773   4.030   3.014 -0.1444 -0.4553  0.3551
   87SLPC   H3R 8362   3.678   4.072   2.974 -0.1456 -0.9852 -0.1937
   87SLPC   H3S 8363   3.848   4.111   3.030 -0.7000  0.2197 -0.4093
   87SLPC   C24 8364   3.735   3.979   3.151 -0.0368  0.2549  0.2826
   87SLPC   H4R 8365   3.815   3.929   3.210 -1.3698 -0.4597  1.5393
   87SLPC   H4S 8366   3.645   3.915   3.137 -0.2692  0.5257  0.5305
   87SLPC   C25 8367   3.693   4.095   3.249  0.1589  0.1148 -0.4280
   87SLPC   H5R 8368   3.607   4.146   3.201 -0.2049  0.7626  0.8526
   87SLPC   H5S 8369   3.782   4.160   3.263 -0.4048  0.7426  0.4140
   87SLPC   C26 8370   3.648   4.045   3.389 -0.3397 -0.4389 -0.1928
   87SLPC   H6R 8371   3.566   3.975   3.361 -1.4233  0.4593  0.6454
   87SLPC   H6S 8372   3.611   4.133   3.445  1.0616 -0.4253  0.7621
   87SLPC   C27 8373   3.758   3.976   3.461 -0.1511 -0.4222 -0.0835
   87SLPC   H7R 8374   3.856   4.028   3.449 -0.2710  0.5130  2.3657
   87SLPC   H7S 8375   3.756   3.867   3.443 -2.8579 -0.7419  1.6389
   87SLPC   C28 8376   3.734   3.972   3.614  0.4825  0.4578  0.3283
   87SLPC   H8R 8377   3.740   4.071   3.664  0.0416  0.9207 -0.5207
   87SLPC   H8S 8378   3.824   3.916   3.647  0.2515 -1.1390 -1.5627
   87SLPC   C29 8379   3.600   3.913   3.657 -0.7661  0.0097 -0.1719
   87SLPC   H9R 8380   3.510   3.950   3.607 -2.4921 -0.9739  2.0311
   87SLPC  C210 8381   3.565   3.811   3.732 -0.4719 -0.3850 -0.3951
   87SLPC  H10R 8382   3.459   3.786   3.746 -0.5041 -0.1502 -0.2063
   87SLPC  C211 8383   3.662   3.722   3.800 -0.1457  0.6490 -0.2081
   87SLPC  H11R 8384   3.771   3.738   3.788 -0.2054  0.9321 -0.3608
   87SLPC  H11S 8385   3.640   3.618   3.767  0.8038  0.4936 -0.3716
   87SLPC  C212 8386   3.641   3.712   3.950  1.0549 -0.2649 -0.4791
   87SLPC  H12R 8387   3.618   3.612   3.989 -0.5435  0.4626  0.5419
   87SLPC  C213 8388   3.640   3.814   4.036  0.7420 -0.3438  0.4263
   87SLPC  H13R 8389   3.612   3.800   4.141 -0.6991  2.5350  0.5079
   87SLPC  C214 8390   3.688   3.963   4.003  0.5096  0.5608 -0.3241
   87SLPC  H14R 8391   3.605   4.036   4.012  0.7368  0.9522 -1.2712
   87SLPC  H14S 8392   3.730   3.978   3.901 -0.7028  1.2722 -0.7404
   87SLPC  C215 8393   3.796   4.016   4.112  0.0686 -0.0074  0.9550
   87SLPC  H15R 8394   3.810   4.125   4.098  0.4028 -0.2682 -1.0397
   87SLPC  H15S 8395   3.888   3.959   4.086 -1.3829 -1.6635 -0.8589
   87SLPC  C216 8396   3.755   3.994   4.260 -0.3962  0.2141 -0.1704
   87SLPC  H16R 8397   3.760   3.886   4.289  0.0823  0.9416  2.7585
   87SLPC  H16S 8398   3.653   4.030   4.287 -0.7117 -0.5699 -0.2842
   87SLPC  C217 8399   3.857   4.060   4.350 -0.2694 -0.0801 -0.2870
   87SLPC  H17R 8400   3.865   4.165   4.315 -2.2085 -0.3819 -1.7855
   87SLPC  H17S 8401   3.953   4.006   4.332 -0.3468  0.2878 -1.9044
   87SLPC  C218 8402   3.832   4.050   4.500 -0.3276  0.4972  0.4080
   87SLPC  H18R 8403   3.802   3.949   4.536 -1.3752  1.3011  1.8800
   87SLPC  H18S 8404   3.749   4.118   4.526 -0.4994 -0.5201  2.7294
   87SLPC  H18T 8405   3.922   4.077   4.559 -1.1160  2.8308  0.6544
   87SLPC   C33 8406   4.216   3.844   3.317 -0.1878  0.6136 -0.6721
   87SLPC   H3X 8407   4.312   3.791   3.337 -1.0641  0.2916  3.5477
   87SLPC   H3Y 8408   4.149   3.782   3.253 -0.9277 -0.6065  1.2044
   87SLPC   C34 8409   4.166   3.859   3.462 -0.0135 -0.0722  0.2476
   87SLPC   H4X 8410   4.058   3.887   3.469  0.1869  1.4872 -1.7337
   87SLPC   H4Y 8411   4.229   3.942   3.500  2.4195 -0.5523 -2.3722
   87SLPC   C35 8412   4.192   3.741   3.553 -0.3979 -0.2075 -0.0742
   87SLPC   H5X 8413   4.297   3.707   3.542 -0.5401 -0.2750 -1.3070
   87SLPC   H5Y 8414   4.134   3.649   3.533  2.4785 -2.0031 -0.6463
   87SLPC   C36 8415   4.181   3.781   3.700 -0.0775 -0.0519  0.2606
   87SLPC   H6X 8416   4.076   3.814   3.716  0.0036  0.9875 -1.1614
   87SLPC   H6Y 8417   4.243   3.871   3.719  2.3593 -1.5942  0.1041
   87SLPC   C37 8418   4.209   3.670   3.796 -0.5192 -0.3773  0.3474
   87SLPC   H7X 8419   4.320   3.673   3.802 -0.5422 -0.7977  1.0064
   87SLPC   H7Y 8420   4.199   3.573   3.744  0.4479  0.1228 -0.8448
   87SLPC   C38 8421   4.141   3.677   3.942  0.3288  0.6717  1.0873
   87SLPC   H8X 8422   4.158   3.576   3.986 -1.7195  0.3919  1.3036
   87SLPC   H8Y 8423   4.030   3.680   3.939  0.3613  2.7775  0.2562
   87SLPC   C39 8424   4.189   3.782   4.038  0.1215  0.2688 -0.3947
   87SLPC   H9X 8425   4.120   3.866   4.011 -0.4261 -0.3712 -1.0332
   87SLPC   H9Y 8426   4.296   3.796   4.011  0.0074 -0.2962 -1.1988
   87SLPC  C310 8427   4.170   3.738   4.180 -0.2219 -0.2079 -0.0791
   87SLPC  H10X 8428   4.217   3.808   4.253  0.1324 -0.8562  0.3340
   87SLPC  H10Y 8429   4.228   3.646   4.206 -0.1413  0.6792  3.3355
   87SLPC  C311 8430   4.025   3.695   4.211 -0.1980  0.1605  0.1330
   87SLPC  H11X 8431   4.006   3.606   4.146 -0.9951  0.9566 -0.7646
   87SLPC  H11Y 8432   3.966   3.778   4.167  0.8382 -0.1211 -1.9374
   87SLPC  C312 8433   4.004   3.648   4.350 -0.5167 -0.0897 -0.0660
   87SLPC  H12X 8434   4.013   3.724   4.430  1.2304 -1.0145  0.6595
   87SLPC  H12Y 8435   4.086   3.578   4.377 -0.2062  0.5579  0.7074
   87SLPC  C313 8436   3.869   3.582   4.368 -0.0063  0.2293 -0.3274
   87SLPC  H13X 8437   3.873   3.491   4.304 -0.4298  0.9151 -1.3681
   87SLPC  H13Y 8438   3.795   3.649   4.318 -0.0960  0.3117 -0.0838
   87SLPC  C314 8439   3.837   3.546   4.516 -0.1045 -0.2606  0.8648
   87SLPC  H14X 8440   3.732   3.512   4.529 -0.0013 -1.5158 -1.1325
   87SLPC  H14Y 8441   3.850   3.638   4.577 -0.4928  0.0692  0.4638
   87SLPC  C315 8442   3.919   3.432   4.580 -0.3235 -0.3731  0.6365
   87SLPC  H15X 8443   4.030   3.443   4.571 -0.3448 -1.2082 -1.1556
   87SLPC  H15Y 8444   3.896   3.343   4.518 -0.3057 -0.2167  0.4025
   87SLPC  C316 8445   3.869   3.405   4.723  0.3179  0.2894 -0.0151
   87SLPC  H16X 8446   3.767   3.361   4.720  0.3441  0.0311  1.7528
   87SLPC  H16Y 8447   3.870   3.499   4.782 -0.0026  1.8527 -2.3758
   87SLPC  C317 8448   3.965   3.309   4.789 -0.2759  0.7080 -0.0675
   87SLPC  H17X 8449   4.060   3.366   4.804  1.4263 -1.5757 -1.4413
   87SLPC  H17Y 8450   3.984   3.224   4.720 -0.6313  0.0167  0.6600
   87SLPC  C318 8451   3.908   3.262   4.918  0.2971  0.1329 -0.4340
   87SLPC  H18X 8452   3.817   3.199   4.903  1.0820 -1.7272  2.0341
   87SLPC  H18Y 8453   3.887   3.357   4.971  1.2886  1.3734 -2.1501
   87SLPC  H18Z 8454   3.974   3.189   4.969 -1.1978 -1.4073 -0.6051
   88SLPC     N 8455   5.157   1.747   2.567 -0.6070 -0.4791  0.0319
   88SLPC   C13 8456   5.214   1.818   2.689 -0.1716  0.3476 -0.2230
   88SLPC  H13A 8457   5.179   1.766   2.778  1.9533 -1.4837 -0.3682
   88SLPC  H13B 8458   5.322   1.816   2.693 -0.1836 -0.6569 -0.1013
   88SLPC  H13C 8459   5.190   1.923   2.683  1.1188  0.6179 -0.8441
   88SLPC   C14 8460   5.187   1.598   2.576  0.7059 -0.6369 -0.4382
   88SLPC  H14A 8461   5.144   1.547   2.492  0.7885 -0.5177 -0.5521
   88SLPC  H14B 8462   5.292   1.577   2.568  1.0457  0.3684  0.8934
   88SLPC  H14C 8463   5.149   1.569   2.673  0.9646  2.1570  0.6124
   88SLPC   C15 8464   5.230   1.810   2.453  0.2032 -0.8607  0.3929
   88SLPC  H15A 8465   5.214   1.917   2.463  1.4520 -0.6012 -0.1428
   88SLPC  H15B 8466   5.338   1.818   2.462  0.2178  1.9956 -1.0770
   88SLPC  H15C 8467   5.215   1.768   2.355  2.9817  0.3851 -0.6913
   88SLPC   C12 8468   5.005   1.760   2.545  0.1547 -0.2304  0.3715
   88SLPC  H12A 8469   4.969   1.854   2.584  0.1896 -0.0102 -0.1217
   88SLPC  H12B 8470   4.961   1.681   2.604  0.2948 -2.3244 -2.1433
   88SLPC   C11 8471   4.959   1.749   2.394  1.5491 -0.2538 -0.1122
   88SLPC  H11A 8472   5.012   1.663   2.347 -0.3031 -1.7249  0.3793
   88SLPC  H11B 8473   4.975   1.839   2.330 -0.3115 -1.8034 -3.0086
   88SLPC     P 8474   4.754   1.576   2.400 -0.2937  0.2045 -0.2845
   88SLPC   O13 8475   4.606   1.586   2.380 -0.3372 -0.5918  0.1506
   88SLPC   O14 8476   4.833   1.494   2.301 -0.2251  0.1338  0.4865
   88SLPC   O12 8477   4.822   1.720   2.406  0.9420 -0.0529  0.6647
   88SLPC   O11 8478   4.782   1.523   2.546 -0.0237 -0.2950 -0.0051
   88SLPC    C1 8479   4.719   1.596   2.649  0.0102  0.2825  0.0612
   88SLPC    HA 8480   4.744   1.704   2.649 -0.2968  0.3711 -1.3363
   88SLPC    HB 8481   4.608   1.597   2.641 -0.2967  1.3120  3.1473
   88SLPC    C2 8482   4.754   1.542   2.791  0.6298  0.0407  0.1527
   88SLPC    HS 8483   4.661   1.544   2.853  0.9126  0.5137  0.5661
   88SLPC   O21 8484   4.850   1.625   2.855 -0.1828 -0.6912  0.6880
   88SLPC   C21 8485   4.812   1.743   2.888 -0.4776  0.3691 -0.8554
   88SLPC   O22 8486   4.704   1.791   2.858 -0.4752  0.3027  0.2089
   88SLPC   C22 8487   4.924   1.794   2.988 -0.5701 -0.2136  0.1512
   88SLPC   H2R 8488   4.994   1.715   3.022 -1.7430 -1.5268 -0.4013
   88SLPC   H2S 8489   4.974   1.877   2.935 -0.9373  0.0350  0.1888
   88SLPC    C3 8490   4.807   1.390   2.788  1.2609  0.0510 -0.4525
   88SLPC    HX 8491   4.913   1.388   2.753  1.4696 -2.6150  0.0686
   88SLPC    HY 8492   4.746   1.333   2.715 -1.1090  0.1779  1.3247
   88SLPC   O31 8493   4.793   1.328   2.919 -0.5560 -0.4705  0.0767
   88SLPC   C31 8494   4.880   1.359   3.010  0.1554 -0.4508 -0.2506
   88SLPC   O32 8495   4.982   1.426   2.996  0.2305  0.1951  0.2146
   88SLPC   C32 8496   4.829   1.292   3.130 -0.3196  0.4344 -0.3589
   88SLPC   H2X 8497   4.794   1.189   3.105  2.6067 -0.4949 -0.9310
   88SLPC   H2Y 8498   4.742   1.341   3.180 -2.1803 -1.3329 -1.6662
   88SLPC   C23 8499   4.851   1.858   3.120  0.2156 -0.1807 -0.4999
   88SLPC   H3R 8500   4.770   1.926   3.085  0.7574  0.4474 -0.5443
   88SLPC   H3S 8501   4.919   1.912   3.188 -0.2622 -1.4512  1.0556
   88SLPC   C24 8502   4.798   1.745   3.219 -0.0692 -0.1286  0.2176
   88SLPC   H4R 8503   4.885   1.685   3.253  1.1458  2.1001  1.1891
   88SLPC   H4S 8504   4.725   1.673   3.176 -0.6304  0.4724  0.1524
   88SLPC   C25 8505   4.729   1.800   3.346 -0.2402 -0.6491 -0.0224
   88SLPC   H5R 8506   4.673   1.887   3.307  1.5264  1.0044  0.9895
   88SLPC   H5S 8507   4.807   1.841   3.413  0.7150  1.1621 -2.1271
   88SLPC   C26 8508   4.640   1.706   3.439 -0.1114 -0.1913 -0.1397
   88SLPC   H6R 8509   4.546   1.687   3.383  0.8520 -1.9897 -1.2609
   88SLPC   H6S 8510   4.629   1.768   3.530  2.2888  0.6331 -0.3426
   88SLPC   C27 8511   4.683   1.561   3.468 -0.3414  0.9147 -0.8886
   88SLPC   H7R 8512   4.695   1.505   3.372  0.0292  0.5955 -0.6569
   88SLPC   H7S 8513   4.599   1.529   3.533  0.3611  2.3806  0.8169
   88SLPC   C28 8514   4.816   1.564   3.552 -0.0425 -0.1457 -0.1997
   88SLPC   H8R 8515   4.876   1.633   3.488 -1.4336  2.1483  0.8240
   88SLPC   H8S 8516   4.864   1.464   3.559  1.7618  0.6863 -0.1796
   88SLPC   C29 8517   4.793   1.619   3.693  0.0448 -0.0419 -0.4800
   88SLPC   H9R 8518   4.717   1.570   3.756  2.0837 -1.4075  1.0531
   88SLPC  C210 8519   4.837   1.734   3.748  0.4629  0.2131 -0.1064
   88SLPC  H10R 8520   4.820   1.755   3.854  0.1809  0.9308 -0.2816
   88SLPC  C211 8521   4.942   1.827   3.683  0.0836  0.1295  0.0559
   88SLPC  H11R 8522   4.897   1.895   3.608  0.9410 -0.7969 -1.3677
   88SLPC  H11S 8523   5.007   1.760   3.622  1.3294  1.0414  0.3464
   88SLPC  C212 8524   5.018   1.915   3.777 -0.7261 -0.0019 -0.7889
   88SLPC  H12R 8525   4.967   1.919   3.874 -1.3087  0.4897 -1.1108
   88SLPC  C213 8526   5.118   1.994   3.736  0.1329  0.1088 -0.1261
   88SLPC  H13R 8527   5.183   2.053   3.803  0.8603 -0.4054 -0.3659
   88SLPC  C214 8528   5.154   2.000   3.590  0.0039  0.9322 -0.2433
   88SLPC  H14R 8529   5.121   1.918   3.523 -1.3832 -0.8985  2.5235
   88SLPC  H14S 8530   5.265   1.996   3.598  0.1636  0.2081 -2.1867
   88SLPC  C215 8531   5.109   2.141   3.531 -0.0516 -0.2755 -0.6022
   88SLPC  H15R 8532   5.127   2.220   3.608  1.3011  2.5522 -3.5984
   88SLPC  H15S 8533   5.001   2.149   3.505  0.1255 -0.3703 -1.3955
   88SLPC  C216 8534   5.185   2.193   3.404  0.7565  0.9245  0.4741
   88SLPC  H16R 8535   5.289   2.221   3.432 -0.2436  2.0471  3.4481
   88SLPC  H16S 8536   5.127   2.283   3.376 -0.7730 -0.2538 -0.2922
   88SLPC  C217 8537   5.185   2.089   3.288  0.6006  0.0780  0.0669
   88SLPC  H17R 8538   5.081   2.091   3.249  0.4032  2.0163  0.5683
   88SLPC  H17S 8539   5.200   1.986   3.326  2.3221  0.1097 -0.4451
   88SLPC  C218 8540   5.292   2.113   3.181  0.0216  0.0638  0.1422
   88SLPC  H18R 8541   5.298   2.040   3.098  0.7248 -0.1951  0.4145
   88SLPC  H18S 8542   5.393   2.115   3.228 -0.6925  1.9389  1.7713
   88SLPC  H18T 8543   5.271   2.213   3.137  3.1060  0.7974  0.0866
   88SLPC   C33 8544   4.928   1.268   3.245  0.3626 -0.6754  0.8158
   88SLPC   H3X 8545   4.973   1.362   3.283  0.4111  0.6422 -2.2506
   88SLPC   H3Y 8546   5.019   1.225   3.198  0.3251  1.6705 -1.6768
   88SLPC   C34 8547   4.883   1.172   3.349  0.0563  1.4648 -0.5739
   88SLPC   H4X 8548   4.857   1.072   3.310 -2.6325  0.8928  2.2555
   88SLPC   H4Y 8549   4.791   1.211   3.398 -1.1708 -1.4697 -0.3637
   88SLPC   C35 8550   4.995   1.148   3.465  0.0821 -0.8249  0.9083
   88SLPC   H5X 8551   5.017   1.245   3.515 -1.7954 -0.0269  0.2812
   88SLPC   H5Y 8552   5.092   1.119   3.419 -0.1682 -0.7281  0.3144
   88SLPC   C36 8553   4.960   1.020   3.549  0.1731 -0.9196 -0.8224
   88SLPC   H6X 8554   4.938   0.929   3.490  0.9876 -2.1097  0.6397
   88SLPC   H6Y 8555   4.876   1.050   3.615  0.6306 -0.1463 -0.5726
   88SLPC   C37 8556   5.085   0.992   3.637  0.8741 -0.0207 -0.2681
   88SLPC   H7X 8557   5.129   1.087   3.674  1.0933 -0.0466 -0.4595
   88SLPC   H7Y 8558   5.167   0.957   3.571  1.2022  0.6888 -0.2496
   88SLPC   C38 8559   5.066   0.886   3.740 -0.4700 -0.4107  0.4849
   88SLPC   H8X 8560   5.036   0.799   3.679 -1.5805  1.7089 -2.2170
   88SLPC   H8Y 8561   4.982   0.897   3.812 -0.4610 -0.2290  0.4685
   88SLPC   C39 8562   5.187   0.846   3.833  0.4276 -0.3065  0.6334
   88SLPC   H9X 8563   5.273   0.793   3.787  0.4151 -0.2341  0.5267
   88SLPC   H9Y 8564   5.151   0.780   3.915 -3.6565  3.1512  2.0450
   88SLPC  C310 8565   5.245   0.969   3.903  0.2267 -0.3940  0.7298
   88SLPC  H10X 8566   5.265   1.050   3.830 -0.6493 -0.1414  0.7574
   88SLPC  H10Y 8567   5.337   0.930   3.952  0.8724 -0.6370 -0.6120
   88SLPC  C311 8568   5.143   1.029   4.000 -0.4135  0.6050 -0.6409
   88SLPC  H11X 8569   5.157   0.963   4.088  1.2806  1.5785 -0.1288
   88SLPC  H11Y 8570   5.040   1.032   3.958  0.0500  0.0525 -1.8615
   88SLPC  C312 8571   5.159   1.173   4.038 -0.1577  0.3112  0.6888
   88SLPC  H12X 8572   5.069   1.207   4.094  1.6227  2.2286  2.5504
   88SLPC  H12Y 8573   5.155   1.236   3.947 -0.6119  0.7951  1.0358
   88SLPC  C313 8574   5.274   1.202   4.126 -1.1917  0.1351  0.5562
   88SLPC  H13X 8575   5.301   1.310   4.127 -2.2224  0.4283 -0.3565
   88SLPC  H13Y 8576   5.362   1.156   4.076 -2.7001 -0.9876 -1.2012
   88SLPC  C314 8577   5.263   1.158   4.274  0.6273  0.2224  0.2386
   88SLPC  H14X 8578   5.272   1.047   4.271 -0.2465  0.1609 -0.7167
   88SLPC  H14Y 8579   5.162   1.190   4.307 -0.3462 -0.5960 -1.7275
   88SLPC  C315 8580   5.373   1.234   4.361  0.1021  0.4324  0.3436
   88SLPC  H15X 8581   5.382   1.340   4.326 -1.3340 -0.0522 -1.7204
   88SLPC  H15Y 8582   5.465   1.177   4.337 -0.2427  1.5536 -4.9890
   88SLPC  C316 8583   5.351   1.228   4.514  0.0650  0.3604 -0.3133
   88SLPC  H16X 8584   5.451   1.223   4.562 -0.0343  1.2176  0.0021
   88SLPC  H16Y 8585   5.288   1.139   4.539  0.6823  0.4609  1.8164
   88SLPC  C317 8586   5.285   1.355   4.584 -0.4230 -0.7371  0.8172
   88SLPC  H17X 8587   5.349   1.441   4.553  1.3349 -1.6997  1.6325
   88SLPC  H17Y 8588   5.302   1.343   4.693  1.3820 -0.2541  0.6206
   88SLPC  C318 8589   5.136   1.383   4.539 -0.2607  0.1519 -0.0089
   88SLPC  H18X 8590   5.084   1.285   4.542  1.2698 -0.6708  1.0356
   88SLPC  H18Y 8591   5.149   1.417   4.434 -0.0479  0.0231 -0.0256
   88SLPC  H18Z 8592   5.085   1.464   4.596 -1.1247  0.9598 -1.8321
   89SAPE     N 8593   0.732   6.313   7.233  0.3682  0.3897  0.4347
   89SAPE   HN1 8594   0.694   6.330   7.137  0.2472 -1.5730  0.0978
   89SAPE   HN2 8595   0.783   6.223   7.232 -1.2568 -0.5773 -0.3333
   89SAPE   HN3 8596   0.655   6.295   7.300  1.4992  0.1294  1.6973
   89SAPE   C12 8597   0.813   6.430   7.283 -0.1631 -0.5106  0.0948
   89SAPE  H12A 8598   0.862   6.402   7.379  2.3411  1.7267 -0.4111
   89SAPE  H12B 8599   0.738   6.509   7.299 -0.9775 -0.7428 -2.2273
   89SAPE   C11 8600   0.925   6.464   7.186  0.0985  0.0653  0.2314
   89SAPE  H11A 8601   0.958   6.566   7.216  1.4610 -0.2931 -0.0088
   89SAPE  H11B 8602   0.897   6.463   7.079  0.1705  1.4352  0.1849
   89SAPE     P 8603   1.088   6.267   7.124  0.2196  0.4946  0.1372
   89SAPE   O13 8604   1.214   6.213   7.184  0.4645  0.5582 -0.0019
   89SAPE   O14 8605   0.978   6.165   7.125  0.3278 -0.5730 -0.1638
   89SAPE   O12 8606   1.047   6.386   7.209  0.1916 -0.3401 -0.0748
   89SAPE   O11 8607   1.104   6.316   6.976  0.3448  0.2360  0.0696
   89SAPE    C1 8608   1.172   6.444   6.949  0.0411  0.7326 -0.1268
   89SAPE    HA 8609   1.112   6.530   6.985 -0.6990  0.4701 -0.7113
   89SAPE    HB 8610   1.267   6.453   7.007 -0.1424 -0.8628  0.4606
   89SAPE    C2 8611   1.210   6.468   6.803 -0.2818 -1.0474 -0.4434
   89SAPE    HS 8612   1.251   6.570   6.799  0.6005 -1.2311  2.2287
   89SAPE   O21 8613   1.099   6.441   6.716 -0.0016  0.2179 -0.2314
   89SAPE   C21 8614   1.004   6.535   6.712  0.2082 -0.2471 -0.2534
   89SAPE   O22 8615   1.027   6.641   6.767 -0.0728 -0.0558 -0.4004
   89SAPE   C22 8616   0.866   6.497   6.649 -1.1978  0.1095  0.6663
   89SAPE   H2R 8617   0.866   6.386   6.638 -0.5415  0.3005 -2.3832
   89SAPE   H2S 8618   0.793   6.539   6.720 -0.2390  0.4516  1.4624
   89SAPE    C3 8619   1.322   6.369   6.760  0.1214  0.0329 -0.1476
   89SAPE    HX 8620   1.296   6.273   6.810 -0.3019  0.5053  0.5512
   89SAPE    HY 8621   1.415   6.410   6.805  0.9720 -1.4266 -0.5174
   89SAPE   O31 8622   1.328   6.356   6.616  0.2308  0.1138 -0.0397
   89SAPE   C31 8623   1.382   6.460   6.555 -0.8707  0.1602  0.6027
   89SAPE   O32 8624   1.431   6.558   6.603 -0.0641 -0.6591  0.4540
   89SAPE   C32 8625   1.340   6.450   6.410 -0.5334 -0.2220 -0.2307
   89SAPE   H2X 8626   1.265   6.370   6.395 -1.7404  0.6618  0.9083
   89SAPE   H2Y 8627   1.425   6.428   6.341 -0.6618 -1.3403 -0.0486
   89SAPE   C23 8628   0.851   6.550   6.505 -0.0340 -0.1866 -0.2991
   89SAPE   H3R 8629   0.938   6.520   6.443  0.9181 -0.2814  1.0380
   89SAPE   H3S 8630   0.863   6.660   6.493  2.7445 -0.6479 -3.0623
   89SAPE   C24 8631   0.714   6.515   6.443  1.0328  0.0227 -0.2755
   89SAPE   H4R 8632   0.639   6.548   6.517  0.6449  0.5894 -0.9052
   89SAPE   H4S 8633   0.701   6.404   6.443 -0.4524  0.1687  0.5671
   89SAPE   C25 8634   0.690   6.560   6.300  0.1081  0.1599 -0.5725
   89SAPE   H5R 8635   0.763   6.518   6.229  0.1286 -1.6142  0.4403
   89SAPE   C26 8636   0.612   6.664   6.256 -0.3357  0.8023  0.1747
   89SAPE   H6R 8637   0.621   6.687   6.148  1.8183  2.1352  0.5742
   89SAPE   C27 8638   0.505   6.730   6.341  0.4328 -0.9040 -0.0636
   89SAPE   H7R 8639   0.484   6.669   6.432 -1.8906 -2.1670 -1.3694
   89SAPE   H7S 8640   0.412   6.722   6.281  0.5719 -3.1946 -0.0842
   89SAPE   C28 8641   0.535   6.875   6.375 -1.0312 -0.0238  0.4114
   89SAPE   H8R 8642   0.627   6.916   6.331  0.5267 -3.7356 -0.1488
   89SAPE   C29 8643   0.464   6.950   6.468 -0.0299  0.1789  0.7116
   89SAPE   H9R 8644   0.493   7.056   6.478  1.4532  0.0208 -1.3058
   89SAPE  C210 8645   0.335   6.903   6.529 -0.5363  0.4725 -0.4347
   89SAPE  H10R 8646   0.359   6.892   6.637  2.1810  0.4440 -0.9737
   89SAPE  H10S 8647   0.306   6.800   6.497 -0.5533  0.6791 -1.1101
   89SAPE  C211 8648   0.212   6.988   6.513  0.5621  0.2628 -0.3452
   89SAPE  H11R 8649   0.173   7.015   6.612 -2.2219  1.1751 -1.5953
   89SAPE  C212 8650   0.133   7.006   6.403 -0.4740  0.9335 -0.5145
   89SAPE  H12R 8651   0.046   7.071   6.413  0.2909  1.8159  0.6550
   89SAPE  C213 8652   0.164   6.953   6.263 -0.0594  0.3833 -0.8761
   89SAPE  H13R 8653   0.087   6.881   6.229 -0.0108 -0.2076  0.2221
   89SAPE  H13S 8654   0.255   6.890   6.265 -1.9136 -2.4360  0.1009
   89SAPE  C214 8655   0.192   7.058   6.160 -1.0394 -0.0985  0.2590
   89SAPE  H14R 8656   0.193   7.155   6.212 -1.0725 -0.1954  0.4407
   89SAPE  C215 8657   0.208   7.038   6.027  0.4611  0.2351 -0.4235
   89SAPE  H15R 8658   0.207   7.122   5.956  1.0772 -0.2406 -1.0038
   89SAPE  C216 8659   0.186   6.899   5.972 -0.4435 -0.3100  0.0478
   89SAPE  H16R 8660   0.146   6.906   5.868  1.6018 -0.7934 -0.8087
   89SAPE  H16S 8661   0.116   6.836   6.030 -0.9227 -1.1296 -1.3738
   89SAPE  C217 8662   0.322   6.841   5.960 -1.1393  0.3808  0.1856
   89SAPE  H17R 8663   0.312   6.733   5.934  2.3405  0.4342 -2.1334
   89SAPE  H17S 8664   0.383   6.852   6.052 -1.6501  1.1547  0.4395
   89SAPE  C218 8665   0.408   6.908   5.846 -0.3169  0.3897  0.4388
   89SAPE  H18R 8666   0.440   7.009   5.879  1.6737 -0.0853  0.1019
   89SAPE  H18S 8667   0.361   6.905   5.745  0.5142 -2.7413  0.0208
   89SAPE  C219 8668   0.541   6.828   5.831  0.5349 -0.3285 -0.7008
   89SAPE  H19R 8669   0.506   6.723   5.838 -1.6361  0.3529 -0.3957
   89SAPE  H19S 8670   0.621   6.844   5.906 -0.1002 -0.7017  0.0669
   89SAPE  C220 8671   0.604   6.858   5.697  0.0906  0.0408  0.6092
   89SAPE  H20R 8672   0.672   6.945   5.687  1.0899 -0.6573  1.0510
   89SAPE  H20S 8673   0.538   6.858   5.608 -0.9179  1.4329  1.3291
   89SAPE  H20T 8674   0.686   6.783   5.688  0.2342  0.2299  0.3306
   89SAPE   C33 8675   1.280   6.572   6.341  0.0463 -0.4867 -0.1636
   89SAPE   H3X 8676   1.347   6.659   6.327 -0.5042 -0.0552 -0.1892
   89SAPE   H3Y 8677   1.196   6.603   6.407  0.8143  0.0268  0.5953
   89SAPE   C34 8678   1.231   6.529   6.202  0.6361  0.1997  0.1098
   89SAPE   H4X 8679   1.135   6.474   6.214  0.2394  0.8989  0.1568
   89SAPE   H4Y 8680   1.308   6.471   6.146  1.7884  0.9835  0.8363
   89SAPE   C35 8681   1.223   6.651   6.117 -0.2583 -1.0571  0.3381
   89SAPE   H5X 8682   1.322   6.682   6.077 -0.2069 -2.3200 -0.5636
   89SAPE   H5Y 8683   1.183   6.730   6.184 -0.7611 -0.7558 -0.3077
   89SAPE   C36 8684   1.130   6.650   5.997  1.0050  0.5621 -0.4044
   89SAPE   H6X 8685   1.027   6.648   6.039  0.6628 -1.0929 -1.2071
   89SAPE   H6Y 8686   1.147   6.559   5.936 -2.0186 -1.1261  1.0163
   89SAPE   C37 8687   1.148   6.773   5.902 -0.4962  0.3096 -0.3967
   89SAPE   H7X 8688   1.253   6.785   5.868 -0.3896  0.0823 -0.1507
   89SAPE   H7Y 8689   1.120   6.863   5.960 -0.0033  0.9138 -1.0891
   89SAPE   C38 8690   1.047   6.794   5.785 -0.4591 -0.2342 -0.1639
   89SAPE   H8X 8691   1.040   6.898   5.747 -1.9564  0.4204  1.7080
   89SAPE   H8Y 8692   0.946   6.771   5.826 -0.7344  1.4148  0.1510
   89SAPE   C39 8693   1.076   6.698   5.660  0.3681 -1.0265  0.3351
   89SAPE   H9X 8694   1.047   6.596   5.694 -1.4240 -0.4973  0.5255
   89SAPE   H9Y 8695   1.186   6.705   5.650  0.1605  2.0391 -0.8118
   89SAPE  C310 8696   1.011   6.738   5.522  0.1113 -0.3077  0.4690
   89SAPE  H10X 8697   1.071   6.821   5.481 -0.2814 -0.0965  0.3185
   89SAPE  H10Y 8698   0.908   6.777   5.534 -1.0576 -2.6085 -1.2172
   89SAPE  C311 8699   1.007   6.623   5.420 -0.2095 -0.3793 -0.0764
   89SAPE  H11X 8700   0.973   6.532   5.474 -2.0779  0.2177 -0.1729
   89SAPE  H11Y 8701   1.107   6.611   5.374  1.4669  0.8093  2.9522
   89SAPE  C312 8702   0.887   6.638   5.323  0.5072 -0.2351  0.4622
   89SAPE  H12X 8703   0.790   6.621   5.374  0.2004  1.6606  0.5841
   89SAPE  H12Y 8704   0.883   6.548   5.258 -2.8020  0.1527 -0.0366
   89SAPE  C313 8705   0.877   6.779   5.247 -0.2519  0.5841 -0.0111
   89SAPE  H13X 8706   0.889   6.861   5.321  0.9860  1.8141 -1.4978
   89SAPE  H13Y 8707   0.782   6.798   5.192 -0.6719 -0.9230  0.1661
   89SAPE  C314 8708   0.979   6.772   5.135 -0.1336  0.5450  0.6673
   89SAPE  H14X 8709   0.938   6.727   5.041  3.1448  1.2731 -1.2654
   89SAPE  H14Y 8710   1.076   6.728   5.166 -1.6584 -1.7348  2.5877
   89SAPE  C315 8711   1.011   6.923   5.102 -0.3141  0.1995 -0.7626
   89SAPE  H15X 8712   1.025   6.978   5.197 -2.4967 -1.5105  0.6435
   89SAPE  H15Y 8713   0.918   6.967   5.062 -0.3848  1.0559  0.2963
   89SAPE  C316 8714   1.136   6.942   5.013 -0.0657  0.2075  0.1448
   89SAPE  H16X 8715   1.228   6.887   5.043  0.0699  0.9693  1.1747
   89SAPE  H16Y 8716   1.171   7.047   5.020  0.0379  0.1906 -0.1199
   89SAPE  C317 8717   1.110   6.908   4.860  0.0114  0.1951 -0.6143
   89SAPE  H17X 8718   1.043   6.981   4.810 -1.8898 -0.8279  0.3052
   89SAPE  H17Y 8719   1.063   6.808   4.855  2.0371 -1.0692  2.3552
   89SAPE  C318 8720   1.245   6.883   4.787  0.3991  0.6510 -0.2880
   89SAPE  H18X 8721   1.234   6.865   4.678 -1.4083  0.3411 -0.0816
   89SAPE  H18Y 8722   1.290   6.790   4.830 -1.0452  0.7533  1.5600
   89SAPE  H18Z 8723   1.321   6.964   4.797  1.8190 -0.7683  0.9404
   90SAPE     N 8724   5.747   5.256   6.815 -1.0275  0.1843 -0.0407
   90SAPE   HN1 8725   5.818   5.325   6.846 -0.6172 -0.6947  1.0517
   90SAPE   HN2 8726   5.673   5.316   6.773  0.5601  2.3161  0.0342
   90SAPE   HN3 8727   5.715   5.196   6.894 -0.1429 -2.2893 -1.4666
   90SAPE   C12 8728   5.816   5.157   6.720 -0.6563 -0.1079 -0.0692
   90SAPE  H12A 8729   5.736   5.112   6.658 -1.0951  0.1222  0.3223
   90SAPE  H12B 8730   5.875   5.080   6.774  2.5350  2.0207 -0.2513
   90SAPE   C11 8731   5.907   5.225   6.614  0.3366  0.0784  0.5686
   90SAPE  H11A 8732   5.955   5.141   6.560  0.6567  0.7849 -0.2779
   90SAPE  H11B 8733   5.995   5.277   6.659  1.3440 -1.9242  1.0120
   90SAPE     P 8734   5.776   5.274   6.389  0.4696  0.4641 -0.0476
   90SAPE   O13 8735   5.777   5.125   6.377  0.7495 -0.4804  0.7408
   90SAPE   O14 8736   5.645   5.336   6.358  0.1114 -0.1834  0.4056
   90SAPE   O12 8737   5.833   5.321   6.532 -0.1767  0.2308 -0.5997
   90SAPE   O11 8738   5.892   5.326   6.294  0.9291  0.2927  0.0411
   90SAPE    C1 8739   5.911   5.463   6.261 -0.0196  0.1724  0.2005
   90SAPE    HA 8740   5.856   5.540   6.319 -0.1209 -0.0162  0.3557
   90SAPE    HB 8741   6.019   5.485   6.271  0.3657 -1.7484  0.6610
   90SAPE    C2 8742   5.881   5.497   6.116  0.2524  0.1758 -0.0675
   90SAPE    HS 8743   5.881   5.608   6.104  1.5279  0.4509  1.9202
   90SAPE   O21 8744   5.754   5.450   6.074 -0.7590  0.2202 -0.2543
   90SAPE   C21 8745   5.652   5.519   6.122  0.6804  0.4463  0.1621
   90SAPE   O22 8746   5.652   5.611   6.198  0.4648 -0.0338 -0.3427
   90SAPE   C22 8747   5.514   5.457   6.071  0.1005 -0.0743  0.5026
   90SAPE   H2R 8748   5.525   5.350   6.044  1.1160  0.1182  0.1226
   90SAPE   H2S 8749   5.442   5.473   6.154  0.2613  0.1929  0.5928
   90SAPE    C3 8750   5.992   5.424   6.036  0.1573 -0.7703 -0.1528
   90SAPE    HX 8751   5.979   5.313   6.041  2.7846 -1.2494 -1.9547
   90SAPE    HY 8752   6.092   5.445   6.079  1.8036  2.1861 -4.7412
   90SAPE   O31 8753   5.989   5.470   5.899  0.9853 -0.1556  0.2881
   90SAPE   C31 8754   5.905   5.403   5.816 -0.0733 -0.0497 -0.5649
   90SAPE   O32 8755   5.851   5.299   5.833  0.3511 -0.8633 -0.0158
   90SAPE   C32 8756   5.904   5.473   5.682  0.0067  0.8843  0.7748
   90SAPE   H2X 8757   6.008   5.512   5.672  1.4552 -2.0269  2.9960
   90SAPE   H2Y 8758   5.833   5.558   5.690 -1.6239 -0.1607 -1.4620
   90SAPE   C23 8759   5.460   5.536   5.951  0.2441 -0.5224  0.0735
   90SAPE   H3R 8760   5.461   5.645   5.972  0.1170 -0.7119  1.1216
   90SAPE   H3S 8761   5.360   5.498   5.922  0.6617 -2.2696  0.7381
   90SAPE   C24 8762   5.548   5.509   5.834 -0.2617  0.3094  0.0175
   90SAPE   H4R 8763   5.563   5.399   5.825 -0.1070  0.4618 -1.8689
   90SAPE   H4S 8764   5.654   5.542   5.843 -0.5172  1.2650 -0.4742
   90SAPE   C25 8765   5.495   5.563   5.704 -0.7286  0.0287  0.0435
   90SAPE   H5R 8766   5.522   5.667   5.677  0.3700 -0.2740 -0.0628
   90SAPE   C26 8767   5.415   5.489   5.620 -0.7779 -0.4967 -0.6169
   90SAPE   H6R 8768   5.380   5.528   5.524 -0.8404  1.9395  0.3180
   90SAPE   C27 8769   5.373   5.350   5.653  0.0249 -0.5389 -0.1044
   90SAPE   H7R 8770   5.263   5.360   5.642 -0.0944 -2.1524 -0.5730
   90SAPE   H7S 8771   5.387   5.315   5.757  0.7386 -0.2615 -0.1052
   90SAPE   C28 8772   5.407   5.232   5.566 -0.6886 -0.1158  0.2530
   90SAPE   H8R 8773   5.510   5.193   5.568 -1.3606 -2.0099  0.6707
   90SAPE   C29 8774   5.321   5.155   5.497  0.4380  0.1138  0.4013
   90SAPE   H9R 8775   5.355   5.065   5.443  0.6560 -0.3173  1.2434
   90SAPE  C210 8776   5.171   5.180   5.489  0.5228 -1.3392 -0.6105
   90SAPE  H10R 8777   5.134   5.211   5.589  1.5505  1.7162 -1.0800
   90SAPE  H10S 8778   5.106   5.095   5.458 -1.0980 -0.7099  0.9075
   90SAPE  C211 8779   5.131   5.301   5.410 -0.5958  0.1324  0.0724
   90SAPE  H11R 8780   5.214   5.372   5.405  2.0244 -2.3840  3.3868
   90SAPE  C212 8781   5.016   5.309   5.343  0.2322 -0.1268 -0.2064
   90SAPE  H12R 8782   4.991   5.394   5.278  1.1110 -0.1126 -0.5360
   90SAPE  C213 8783   4.897   5.212   5.341  0.5163  0.1667 -0.3555
   90SAPE  H13R 8784   4.895   5.145   5.429  0.8020  1.0214  0.3111
   90SAPE  H13S 8785   4.912   5.148   5.251 -3.0674  0.8693 -1.6198
   90SAPE  C214 8786   4.763   5.283   5.322 -0.3492 -0.5789  0.3738
   90SAPE  H14R 8787   4.766   5.375   5.261 -0.5756 -0.8110  0.0079
   90SAPE  C215 8788   4.639   5.267   5.383  0.2750  0.4923  0.0945
   90SAPE  H15R 8789   4.552   5.332   5.371 -0.5994 -0.4856  0.9253
   90SAPE  C216 8790   4.611   5.151   5.485  0.8549  1.0145  0.8580
   90SAPE  H16R 8791   4.647   5.061   5.431 -0.2056  0.6961  0.6590
   90SAPE  H16S 8792   4.501   5.136   5.486  0.4866  2.6000 -2.5410
   90SAPE  C217 8793   4.670   5.167   5.629 -0.3000 -0.4349  0.9230
   90SAPE  H17R 8794   4.780   5.178   5.620 -0.5548  0.9661 -1.6708
   90SAPE  H17S 8795   4.646   5.074   5.685 -1.3881 -0.0204  1.1562
   90SAPE  C218 8796   4.606   5.279   5.711 -0.1333  0.3464  0.3972
   90SAPE  H18R 8797   4.497   5.268   5.699 -0.2660  0.4455  1.4839
   90SAPE  H18S 8798   4.637   5.375   5.664 -1.4669 -0.2460 -1.8627
   90SAPE  C219 8799   4.639   5.275   5.861  0.9325  0.5442 -0.3439
   90SAPE  H19R 8800   4.750   5.285   5.858  0.7900  2.0045 -1.6059
   90SAPE  H19S 8801   4.624   5.174   5.905 -0.4438  0.7606 -0.2883
   90SAPE  C220 8802   4.573   5.390   5.934 -0.3078 -0.3176 -0.0507
   90SAPE  H20R 8803   4.605   5.406   6.039 -1.0444 -0.0391  0.1392
   90SAPE  H20S 8804   4.462   5.385   5.926 -0.6609  0.0574  3.2023
   90SAPE  H20T 8805   4.609   5.477   5.875  0.1675 -0.9103 -0.6520
   90SAPE   C33 8806   5.858   5.394   5.557 -0.0946 -0.0985 -0.0131
   90SAPE   H3X 8807   5.757   5.352   5.578  0.1890  0.1116  1.9765
   90SAPE   H3Y 8808   5.922   5.303   5.556 -0.3187 -0.3017  1.6632
   90SAPE   C34 8809   5.869   5.481   5.430  0.3556  0.1959 -0.4004
   90SAPE   H4X 8810   5.869   5.413   5.342  2.2943  0.8921 -0.9856
   90SAPE   H4Y 8811   5.965   5.535   5.441 -0.4813  1.5088  0.8837
   90SAPE   C35 8812   5.758   5.594   5.412  0.1344  0.3876 -0.1135
   90SAPE   H5X 8813   5.787   5.676   5.482 -3.9236  0.9717  1.1429
   90SAPE   H5Y 8814   5.652   5.562   5.422  0.2965 -0.2987 -0.5209
   90SAPE   C36 8815   5.769   5.661   5.276 -0.5182 -0.0091 -0.0251
   90SAPE   H6X 8816   5.754   5.581   5.199 -0.3142  1.1909 -1.3446
   90SAPE   H6Y 8817   5.865   5.713   5.261 -0.3895 -0.2756 -0.1512
   90SAPE   C37 8818   5.665   5.770   5.269 -0.7233  1.0352 -0.2629
   90SAPE   H7X 8819   5.699   5.857   5.328 -1.0195  0.2493  1.1141
   90SAPE   H7Y 8820   5.565   5.737   5.307  0.5790 -1.6023  1.1838
   90SAPE   C38 8821   5.634   5.826   5.128 -0.4415 -0.4556  0.2298
   90SAPE   H8X 8822   5.726   5.884   5.103 -0.9176  0.6874  1.0640
   90SAPE   H8Y 8823   5.551   5.898   5.142  0.0573  0.2883 -0.5674
   90SAPE   C39 8824   5.609   5.719   5.025  0.2676 -0.8724 -0.1776
   90SAPE   H9X 8825   5.533   5.653   5.073 -0.9998  1.6545  1.5292
   90SAPE   H9Y 8826   5.701   5.657   5.022 -0.1273 -1.6085  1.5445
   90SAPE  C310 8827   5.541   5.771   4.903 -0.4722  0.1689  0.6183
   90SAPE  H10X 8828   5.436   5.799   4.925 -1.2458 -3.7356  2.8191
   90SAPE  H10Y 8829   5.523   5.682   4.839 -0.7611  0.4959  0.2345
   90SAPE  C311 8830   5.627   5.872   4.818 -0.0503  0.2805  0.2516
   90SAPE  H11X 8831   5.657   5.960   4.879 -0.1677  0.6464 -0.2176
   90SAPE  H11Y 8832   5.573   5.906   4.728  0.4205  0.3338 -0.0107
   90SAPE  C312 8833   5.761   5.809   4.764 -0.2185  0.8453  0.9093
   90SAPE  H12X 8834   5.725   5.726   4.700  0.6087  0.5657  0.8010
   90SAPE  H12Y 8835   5.820   5.742   4.830 -2.2152 -2.4572 -0.4174
   90SAPE  C313 8836   5.851   5.894   4.669  0.5740  0.6602  0.3568
   90SAPE  H13X 8837   5.788   5.981   4.640  2.0389  1.5372 -0.3341
   90SAPE  H13Y 8838   5.870   5.833   4.578  0.5023  0.0546  0.7455
   90SAPE  C314 8839   5.990   5.924   4.734  0.9223  0.0591  0.1063
   90SAPE  H14X 8840   6.055   5.835   4.723  1.3172  0.1848  1.3160
   90SAPE  H14Y 8841   5.967   5.924   4.843  0.2788 -1.0218 -0.0195
   90SAPE  C315 8842   6.042   6.063   4.693 -0.3501 -0.0073 -0.1820
   90SAPE  H15X 8843   6.038   6.083   4.584  2.9520  1.4553 -0.1626
   90SAPE  H15Y 8844   6.147   6.068   4.730 -0.2964  0.2600 -0.3752
   90SAPE  C316 8845   5.974   6.177   4.771  0.5002 -0.2387 -0.4022
   90SAPE  H16X 8846   5.975   6.139   4.876  0.4926 -1.8022 -0.9464
   90SAPE  H16Y 8847   5.872   6.188   4.730  0.4167 -1.5620 -0.6004
   90SAPE  C317 8848   6.051   6.305   4.757  0.0704 -0.1566  0.2111
   90SAPE  H17X 8849   6.052   6.327   4.648  1.8044 -1.1158  0.0029
   90SAPE  H17Y 8850   6.154   6.271   4.778  0.1162  0.0712  0.3626
   90SAPE  C318 8851   6.012   6.418   4.845  0.2994  0.3573 -0.0299
   90SAPE  H18X 8852   6.023   6.389   4.952  0.9912  1.3370  0.1806
   90SAPE  H18Y 8853   5.903   6.436   4.834 -0.2385  0.0214  3.4390
   90SAPE  H18Z 8854   6.065   6.509   4.811 -0.9270  0.4969 -1.6940
   91SAPE     N 8855   1.702   0.223   6.977  0.1415  0.0866  0.2571
   91SAPE   HN1 8856   1.645   0.166   6.911 -1.0574  0.3246  1.0636
   91SAPE   HN2 8857   1.732   0.308   6.925  0.4963 -1.1682 -1.7251
   91SAPE   HN3 8858   1.784   0.173   7.016 -0.8332 -1.7918  0.0082
   91SAPE   C12 8859   1.599   0.267   7.072 -0.3378 -1.3152 -0.3096
   91SAPE  H12A 8860   1.527   0.340   7.030  0.0048 -1.0851 -0.4985
   91SAPE  H12B 8861   1.650   0.315   7.158  0.1523  2.7665 -2.6189
   91SAPE   C11 8862   1.514   0.151   7.133 -0.2966  0.1318  0.2171
   91SAPE  H11A 8863   1.455   0.195   7.217 -0.7431  0.2115 -0.1325
   91SAPE  H11B 8864   1.576   0.076   7.187 -0.5357  0.8226  1.4904
   91SAPE     P 8865   1.336  -0.039   7.053 -0.0298 -0.2566  0.0036
   91SAPE   O13 8866   1.382  -0.153   6.967  0.4546 -0.7629  0.3525
   91SAPE   O14 8867   1.337  -0.061   7.201  0.6660 -0.2504  0.7183
   91SAPE   O12 8868   1.439   0.077   7.034 -0.1760  0.0938  0.5013
   91SAPE   O11 8869   1.193   0.014   7.011 -1.1473  0.3614  0.3538
   91SAPE    C1 8870   1.179   0.150   6.958  0.1477 -0.1615 -0.0226
   91SAPE    HA 8871   1.070   0.168   6.943  0.5005  2.6751  0.1360
   91SAPE    HB 8872   1.217   0.228   7.027 -1.1129 -0.8338  1.5003
   91SAPE    C2 8873   1.234   0.169   6.818 -0.2867  0.4918  0.1462
   91SAPE    HS 8874   1.345   0.167   6.826 -0.3126 -1.7932  0.4147
   91SAPE   O21 8875   1.189   0.293   6.762 -0.3521 -0.0021  0.6800
   91SAPE   C21 8876   1.257   0.401   6.793  0.3441  0.9282 -0.0815
   91SAPE   O22 8877   1.344   0.414   6.878  0.4946  0.2753 -0.6023
   91SAPE   C22 8878   1.214   0.513   6.707  0.4534 -0.9628  0.4604
   91SAPE   H2R 8879   1.254   0.501   6.604 -1.1959  0.6597 -0.4308
   91SAPE   H2S 8880   1.103   0.506   6.699  0.4268  1.0779 -2.5897
   91SAPE    C3 8881   1.192   0.056   6.724  0.9409 -0.9601  0.1589
   91SAPE    HX 8882   1.082   0.051   6.737  0.9139 -1.6018 -0.2517
   91SAPE    HY 8883   1.226  -0.046   6.753 -2.0251 -1.8566  0.8737
   91SAPE   O31 8884   1.221   0.086   6.586 -0.3693  0.0425  0.0559
   91SAPE   C31 8885   1.343   0.047   6.553  0.5753 -0.4346  0.2483
   91SAPE   O32 8886   1.423  -0.011   6.624 -0.3454  0.0587  0.1810
   91SAPE   C32 8887   1.369   0.089   6.408  0.3783 -0.2479 -0.0262
   91SAPE   H2X 8888   1.357   0.200   6.402 -0.7228 -0.3287  0.5751
   91SAPE   H2Y 8889   1.286   0.048   6.347  1.8214 -1.0180 -1.5717
   91SAPE   C23 8890   1.236   0.659   6.764 -0.1865  0.0940  0.7882
   91SAPE   H3R 8891   1.344   0.676   6.785  0.9978 -3.8812 -1.2439
   91SAPE   H3S 8892   1.190   0.672   6.865 -0.7666  0.2685  0.5070
   91SAPE   C24 8893   1.181   0.770   6.668  0.0381  0.5477 -0.2086
   91SAPE   H4R 8894   1.238   0.764   6.572 -0.3013 -1.3417 -0.3331
   91SAPE   H4S 8895   1.203   0.874   6.698  0.3626  0.8525 -1.4243
   91SAPE   C25 8896   1.034   0.744   6.634  0.7319 -1.1622 -1.1165
   91SAPE   H5R 8897   0.967   0.734   6.720  1.5582 -1.0998 -0.4534
   91SAPE   C26 8898   0.984   0.722   6.513  0.6107 -0.6438  0.1564
   91SAPE   H6R 8899   0.883   0.679   6.505  0.5568 -0.4538 -0.2053
   91SAPE   C27 8900   1.047   0.730   6.377 -0.4476 -0.6613 -0.7522
   91SAPE   H7R 8901   1.110   0.638   6.371  0.8796  0.1861 -0.3858
   91SAPE   H7S 8902   1.107   0.822   6.366 -2.0004  0.3779 -0.7749
   91SAPE   C28 8903   0.962   0.729   6.253 -0.0883 -0.5538 -0.6205
   91SAPE   H8R 8904   0.855   0.738   6.278 -0.3805 -1.8461 -1.3162
   91SAPE   C29 8905   1.001   0.724   6.128  0.5065 -0.7793 -0.3776
   91SAPE   H9R 8906   0.921   0.737   6.053  0.8760 -1.2431 -0.8650
   91SAPE  C210 8907   1.140   0.717   6.071  0.0762 -0.7291  0.1307
   91SAPE  H10R 8908   1.133   0.636   5.995 -0.2857  1.8659 -2.8519
   91SAPE  H10S 8909   1.212   0.680   6.147  0.2852 -0.1633  0.2184
   91SAPE  C211 8910   1.192   0.846   6.005  0.3141  0.5223  0.7657
   91SAPE  H11R 8911   1.217   0.927   6.075 -0.6439  1.5209 -0.0205
   91SAPE  C212 8912   1.205   0.876   5.876 -0.2256 -0.0479  0.1091
   91SAPE  H12R 8913   1.251   0.974   5.858  0.1219 -0.2292 -0.0009
   91SAPE  C213 8914   1.168   0.795   5.754  0.2787  0.3612 -0.3798
   91SAPE  H13R 8915   1.167   0.686   5.778  1.4400  0.2049 -0.9791
   91SAPE  H13S 8916   1.246   0.813   5.677 -1.1636 -1.9466 -2.5349
   91SAPE  C214 8917   1.029   0.833   5.693 -1.0979 -0.1368  0.8014
   91SAPE  H14R 8918   0.948   0.855   5.764  0.2970 -0.0704  2.4213
   91SAPE  C215 8919   1.010   0.838   5.558 -0.8786 -0.0722  0.2999
   91SAPE  H15R 8920   0.915   0.888   5.534  0.6687  2.7218 -0.4187
   91SAPE  C216 8921   1.112   0.799   5.450  0.2088 -1.0396 -0.1976
   91SAPE  H16R 8922   1.122   0.689   5.447  1.4618 -0.9502  0.1037
   91SAPE  H16S 8923   1.215   0.836   5.470  0.5365 -0.8235 -2.0761
   91SAPE  C217 8924   1.069   0.838   5.317 -0.1206 -0.5621  0.1338
   91SAPE  H17R 8925   1.026   0.941   5.312 -1.6578 -1.1588  0.5471
   91SAPE  H17S 8926   0.996   0.764   5.277  0.5554 -0.7830 -0.7168
   91SAPE  C218 8927   1.186   0.830   5.215  0.0955 -0.4666  0.0381
   91SAPE  H18R 8928   1.189   0.721   5.195  1.2800 -0.3587 -0.4622
   91SAPE  H18S 8929   1.279   0.876   5.257  0.5197 -1.1306 -0.1559
   91SAPE  C219 8930   1.156   0.884   5.073 -0.2213  1.0676 -0.0847
   91SAPE  H19R 8931   1.133   0.992   5.082  1.2032  1.2437  2.8191
   91SAPE  H19S 8932   1.066   0.834   5.032 -0.7849  0.0352  2.2106
   91SAPE  C220 8933   1.280   0.873   4.986  0.0325  0.0445  0.2364
   91SAPE  H20R 8934   1.307   0.769   4.958  0.5643  0.4361 -0.7877
   91SAPE  H20S 8935   1.368   0.918   5.036  0.9718 -1.9076  0.4206
   91SAPE  H20T 8936   1.257   0.931   4.894 -0.2687  1.6949  1.3085
   91SAPE   C33 8937   1.507   0.044   6.363  0.6171  0.5005  0.0920
   91SAPE   H3X 8938   1.505  -0.065   6.341 -0.0352  0.2092  1.5008
   91SAPE   H3Y 8939   1.589   0.068   6.434  0.1720  1.5512  0.2713
   91SAPE   C34 8940   1.551   0.115   6.236 -0.4319  0.0947 -0.3842
   91SAPE   H4X 8941   1.659   0.090   6.228 -0.2866  0.7141 -0.3683
   91SAPE   H4Y 8942   1.538   0.223   6.258  2.4754  0.2493  1.0642
   91SAPE   C35 8943   1.488   0.077   6.108  0.2740  0.1590  0.5282
   91SAPE   H5X 8944   1.378   0.087   6.114  0.4562  1.3373  3.5681
   91SAPE   H5Y 8945   1.526  -0.022   6.074 -0.0489 -0.6016  2.2504
   91SAPE   C36 8946   1.541   0.169   5.993  0.1117 -0.8592  0.1249
   91SAPE   H6X 8947   1.503   0.139   5.893 -2.3687 -1.3473  1.1478
   91SAPE   H6Y 8948   1.651   0.157   5.994  0.2601  0.0401 -1.6990
   91SAPE   C37 8949   1.510   0.321   6.013  0.3018  0.4908  0.4872
   91SAPE   H7X 8950   1.554   0.370   5.923  0.2730 -0.2382  0.0619
   91SAPE   H7Y 8951   1.562   0.368   6.099 -2.2993  3.0063  0.8351
   91SAPE   C38 8952   1.361   0.345   6.014  0.1227 -0.2732 -0.3347
   91SAPE   H8X 8953   1.334   0.452   6.008  1.1286 -0.0127 -0.3605
   91SAPE   H8Y 8954   1.336   0.315   6.118 -0.4765 -1.7534 -0.8753
   91SAPE   C39 8955   1.277   0.276   5.903 -0.1571  0.0086  0.0957
   91SAPE   H9X 8956   1.170   0.300   5.917 -0.5967 -2.3507  1.4300
   91SAPE   H9Y 8957   1.280   0.165   5.909  0.8081 -0.1286 -2.0171
   91SAPE  C310 8958   1.325   0.317   5.758 -0.0943 -0.2689 -0.0593
   91SAPE  H10X 8959   1.427   0.282   5.729  0.9845  1.5320  1.3911
   91SAPE  H10Y 8960   1.335   0.427   5.764 -3.0359  0.2914 -2.7461
   91SAPE  C311 8961   1.214   0.272   5.660 -0.0235 -0.3120  0.2408
   91SAPE  H11X 8962   1.114   0.271   5.709 -1.2400 -0.2171 -2.1168
   91SAPE  H11Y 8963   1.237   0.172   5.618 -2.4634  0.2709 -2.7885
   91SAPE  C312 8964   1.211   0.358   5.536 -0.1076  0.3225 -0.0638
   91SAPE  H12X 8965   1.226   0.467   5.548  0.2116  0.1821  0.9251
   91SAPE  H12Y 8966   1.117   0.342   5.480 -2.5782  1.9980  3.2579
   91SAPE  C313 8967   1.307   0.303   5.425  0.1174  0.4808 -0.4575
   91SAPE  H13X 8968   1.277   0.200   5.395 -0.0656  0.6756 -0.9611
   91SAPE  H13Y 8969   1.410   0.287   5.464  0.3317  0.2803 -1.0739
   91SAPE  C314 8970   1.306   0.390   5.298 -0.0431 -0.2760  0.0870
   91SAPE  H14X 8971   1.386   0.350   5.233 -0.5540  0.5050 -1.0637
   91SAPE  H14Y 8972   1.331   0.496   5.321 -1.6351 -0.0027  0.6837
   91SAPE  C315 8973   1.179   0.388   5.206  0.1111  0.7995  0.3146
   91SAPE  H15X 8974   1.105   0.443   5.269 -0.5797 -1.0959  1.2235
   91SAPE  H15Y 8975   1.143   0.283   5.203  1.1503  0.4528 -0.5135
   91SAPE  C316 8976   1.205   0.434   5.063 -0.1785  0.3836  0.0088
   91SAPE  H16X 8977   1.273   0.355   5.025 -0.8209 -1.9412  3.3563
   91SAPE  H16Y 8978   1.255   0.534   5.068  0.1352  0.3743 -1.9390
   91SAPE  C317 8979   1.071   0.448   4.988 -0.0772 -0.0416  0.5764
   91SAPE  H17X 8980   1.005   0.495   5.064 -1.9967 -1.3028 -0.2626
   91SAPE  H17Y 8981   1.020   0.357   4.953 -0.8976 -0.1193  1.9135
   91SAPE  C318 8982   1.092   0.525   4.857  0.3559 -0.6679  0.0140
   91SAPE  H18X 8983   0.995   0.527   4.802 -0.0902 -0.9413  0.7592
   91SAPE  H18Y 8984   1.180   0.484   4.804 -0.0407 -0.3856 -0.8658
   91SAPE  H18Z 8985   1.110   0.634   4.871  0.8337 -0.4239 -2.2127
   92SAPE     N 8986   4.269   4.743   6.951 -0.1578  0.4736 -0.1715
   92SAPE   HN1 8987   4.236   4.839   6.973  1.1779  0.6501  1.2208
   92SAPE   HN2 8988   4.292   4.704   7.044  0.1499  1.3531  0.1343
   92SAPE   HN3 8989   4.351   4.763   6.890  1.7503 -0.5204  1.9205
   92SAPE   C12 8990   4.174   4.665   6.865  0.9682  0.0971 -0.1034
   92SAPE  H12A 8991   4.206   4.559   6.869  0.0571 -0.2285 -1.0164
   92SAPE  H12B 8992   4.174   4.704   6.761  1.6056 -0.6521 -0.3889
   92SAPE   C11 8993   4.028   4.682   6.921 -0.4866  0.4477 -0.0799
   92SAPE  H11A 8994   4.029   4.656   7.029 -0.9024 -0.1470 -0.2168
   92SAPE  H11B 8995   3.955   4.621   6.863  0.4207 -0.3726 -0.3769
   92SAPE     P 8996   3.860   4.896   6.864 -0.1812 -0.4090  0.1606
   92SAPE   O13 8997   3.746   4.845   6.942  0.9198  0.4245 -0.4566
   92SAPE   O14 8998   3.895   5.037   6.866  0.2583  0.0707  0.4804
   92SAPE   O12 8999   3.991   4.820   6.903  0.2643 -0.1331 -0.5338
   92SAPE   O11 9000   3.838   4.860   6.713 -0.3769  0.1056 -0.3056
   92SAPE    C1 9001   3.801   4.724   6.669 -0.2844 -0.3723 -0.0647
   92SAPE    HA 9002   3.890   4.661   6.648 -0.5213 -0.2896 -1.3892
   92SAPE    HB 9003   3.739   4.675   6.747  0.7897 -1.2832  0.2542
   92SAPE    C2 9004   3.723   4.727   6.539 -0.2814  0.4224 -0.3095
   92SAPE    HS 9005   3.697   4.623   6.511 -1.2552  0.9252 -1.3610
   92SAPE   O21 9006   3.787   4.795   6.432 -0.3529 -0.1551 -0.0777
   92SAPE   C21 9007   3.877   4.724   6.363  0.2570 -0.3868  0.2858
   92SAPE   O22 9008   3.899   4.606   6.385  0.2637  0.3487  0.2945
   92SAPE   C22 9009   3.963   4.811   6.272 -0.7012  0.0580 -0.0919
   92SAPE   H2R 9010   3.903   4.900   6.244 -0.3129  0.4864  0.4187
   92SAPE   H2S 9011   4.061   4.839   6.316  0.3274 -0.4032 -1.9498
   92SAPE    C3 9012   3.585   4.795   6.574 -0.7922  0.0497  0.5040
   92SAPE    HX 9013   3.617   4.887   6.627 -1.5284  0.3284  0.4721
   92SAPE    HY 9014   3.533   4.727   6.645 -0.4147 -0.4678  0.2863
   92SAPE   O31 9015   3.507   4.821   6.458 -0.1839  0.7948 -0.1642
   92SAPE   C31 9016   3.407   4.913   6.469 -0.8138  0.9119 -0.6448
   92SAPE   O32 9017   3.364   4.950   6.578 -0.5265 -0.1175 -0.2208
   92SAPE   C32 9018   3.356   4.944   6.332 -0.0617 -0.3535  0.3010
   92SAPE   H2X 9019   3.381   4.854   6.272  0.7873  0.1035 -0.0539
   92SAPE   H2Y 9020   3.407   5.035   6.293  0.3060 -1.2773 -1.4564
   92SAPE   C23 9021   3.988   4.745   6.132 -0.3438 -0.6698  0.2468
   92SAPE   H3R 9022   4.044   4.650   6.133  0.3501 -0.2650  1.3603
   92SAPE   H3S 9023   4.047   4.813   6.067 -1.2893  0.4996  0.5649
   92SAPE   C24 9024   3.864   4.718   6.047 -0.2382 -0.8835  0.1752
   92SAPE   H4R 9025   3.796   4.653   6.107 -1.2400 -0.2231 -0.2140
   92SAPE   H4S 9026   3.895   4.652   5.964  0.3915  0.5918 -0.7991
   92SAPE   C25 9027   3.781   4.835   6.002 -0.3487  0.4855  0.3774
   92SAPE   H5R 9028   3.752   4.909   6.079 -1.2766 -0.0889  0.5951
   92SAPE   C26 9029   3.724   4.842   5.881 -0.4056 -0.4640 -0.1619
   92SAPE   H6R 9030   3.651   4.925   5.874 -0.3311 -0.2730  1.0924
   92SAPE   C27 9031   3.732   4.752   5.762  0.4003  0.7768  0.1705
   92SAPE   H7R 9032   3.632   4.731   5.718 -0.0519  1.2468  0.9350
   92SAPE   H7S 9033   3.746   4.646   5.794  0.7743  0.9759  0.6884
   92SAPE   C28 9034   3.833   4.794   5.655 -0.3279 -0.0402  0.7714
   92SAPE   H8R 9035   3.931   4.821   5.697 -0.7806  1.3287  0.9931
   92SAPE   C29 9036   3.820   4.785   5.518  0.2369  0.2205 -0.9582
   92SAPE   H9R 9037   3.901   4.823   5.454  1.0741  0.0438 -0.0287
   92SAPE  C210 9038   3.695   4.737   5.438  0.4245  0.4287  0.3447
   92SAPE  H10R 9039   3.603   4.743   5.500 -0.3417 -0.7803 -0.6098
   92SAPE  H10S 9040   3.695   4.628   5.414  0.5428  0.4540  0.2279
   92SAPE  C211 9041   3.666   4.822   5.313 -0.3148 -0.0237  0.5916
   92SAPE  H11R 9042   3.589   4.900   5.325  1.3393  1.9167 -0.6736
   92SAPE  C212 9043   3.716   4.798   5.189  0.0497  0.1459 -0.9524
   92SAPE  H12R 9044   3.685   4.861   5.104  1.3254  1.7772 -0.2412
   92SAPE  C213 9045   3.817   4.695   5.149 -0.5379 -0.5982 -0.1541
   92SAPE  H13R 9046   3.772   4.619   5.082  0.9797 -1.2127 -0.5224
   92SAPE  H13S 9047   3.870   4.647   5.234  0.0211  0.8936  0.3867
   92SAPE  C214 9048   3.926   4.778   5.071  0.0911 -0.2030 -0.1741
   92SAPE  H14R 9049   3.994   4.840   5.131 -0.1144 -1.0887  1.0050
   92SAPE  C215 9050   3.948   4.782   4.940 -0.4707  0.2734  0.1562
   92SAPE  H15R 9051   4.032   4.848   4.911  0.2128  0.1212  1.7247
   92SAPE  C216 9052   3.889   4.707   4.817  0.2799 -0.0415  0.1079
   92SAPE  H16R 9053   3.868   4.604   4.853 -0.4169  0.5505  1.4715
   92SAPE  H16S 9054   3.966   4.699   4.737  0.0253 -0.3186 -0.1101
   92SAPE  C217 9055   3.763   4.768   4.752 -0.4068 -0.1759 -0.0765
   92SAPE  H17R 9056   3.770   4.879   4.760  0.3272 -0.2016 -0.3074
   92SAPE  H17S 9057   3.672   4.745   4.811  0.5160 -0.9818  1.0716
   92SAPE  C218 9058   3.731   4.728   4.607  0.2036 -0.4561  0.5129
   92SAPE  H18R 9059   3.689   4.626   4.591 -0.8381  0.3927 -2.8202
   92SAPE  H18S 9060   3.827   4.715   4.553  0.0302 -1.4190  0.4079
   92SAPE  C219 9061   3.645   4.838   4.539  0.2467 -0.0305  0.3958
   92SAPE  H19R 9062   3.554   4.845   4.603 -0.1381  0.9055 -0.2319
   92SAPE  H19S 9063   3.614   4.803   4.438 -1.9921  1.0109  0.6606
   92SAPE  C220 9064   3.705   4.979   4.515  0.4355 -0.4035 -0.1417
   92SAPE  H20R 9065   3.627   5.055   4.491 -0.9807 -2.1962 -1.4937
   92SAPE  H20S 9066   3.771   4.994   4.427 -0.5657  2.4139 -0.5275
   92SAPE  H20T 9067   3.760   5.012   4.606  1.2494  1.2007 -1.1645
   92SAPE   C33 9068   3.199   4.959   6.333 -1.0258 -0.0837 -0.1136
   92SAPE   H3X 9069   3.174   5.041   6.404 -0.9703 -0.2603  0.1127
   92SAPE   H3Y 9070   3.157   4.860   6.363 -2.2419  0.1074 -1.1321
   92SAPE   C34 9071   3.140   4.988   6.200 -0.1416 -0.3358  0.4078
   92SAPE   H4X 9072   3.032   5.013   6.213 -0.1454 -1.2677  2.5640
   92SAPE   H4Y 9073   3.143   4.901   6.131 -2.4410  0.5362 -0.9053
   92SAPE   C35 9074   3.212   5.105   6.127  0.3457  0.4097 -0.1291
   92SAPE   H5X 9075   3.308   5.065   6.088  0.8132  1.3071  0.0703
   92SAPE   H5Y 9076   3.218   5.190   6.199 -0.2113 -0.0235  0.4379
   92SAPE   C36 9077   3.126   5.149   6.000  0.1436  0.2904 -0.0643
   92SAPE   H6X 9078   3.021   5.170   6.030  0.9344  1.2841  2.2903
   92SAPE   H6Y 9079   3.115   5.059   5.936 -2.0736 -0.3678  1.1181
   92SAPE   C37 9080   3.175   5.279   5.929  0.0057 -0.1303 -0.1215
   92SAPE   H7X 9081   3.264   5.249   5.871 -0.6084  1.1525 -1.8232
   92SAPE   H7Y 9082   3.200   5.351   6.010 -1.3220  0.6506 -0.3729
   92SAPE   C38 9083   3.075   5.350   5.834  0.1068 -1.2163  0.4208
   92SAPE   H8X 9084   3.124   5.439   5.788 -1.0320 -0.5131  0.5365
   92SAPE   H8Y 9085   2.998   5.401   5.895 -0.1028  0.2447 -0.9692
   92SAPE   C39 9086   3.013   5.252   5.737  0.4288  0.6557 -0.4042
   92SAPE   H9X 9087   2.959   5.175   5.797 -0.7028 -0.0038 -2.1815
   92SAPE   H9Y 9088   3.099   5.201   5.688  0.4125 -1.3724  1.4894
   92SAPE  C310 9089   2.923   5.322   5.635  0.3272  0.6477 -0.2244
   92SAPE  H10X 9090   2.962   5.422   5.607  2.8670 -0.0416  0.5684
   92SAPE  H10Y 9091   2.822   5.339   5.677 -1.2271 -1.4799 -2.7906
   92SAPE  C311 9092   2.917   5.243   5.498 -0.5029  0.1551  0.4680
   92SAPE  H11X 9093   2.831   5.273   5.434 -0.8519 -1.0400  0.3603
   92SAPE  H11Y 9094   2.902   5.137   5.526 -1.8359  0.9490  3.0773
   92SAPE  C312 9095   3.048   5.250   5.424  0.0408  0.3421  0.2020
   92SAPE  H12X 9096   3.045   5.161   5.357  1.8785  1.3426 -1.3336
   92SAPE  H12Y 9097   3.128   5.244   5.501 -1.1215  1.4600  1.5409
   92SAPE  C313 9098   3.069   5.378   5.335  0.2676 -0.4766 -0.5323
   92SAPE  H13X 9099   3.090   5.460   5.408  0.5790 -1.0142 -0.0151
   92SAPE  H13Y 9100   2.973   5.382   5.280 -0.0190 -0.3002 -0.0205
   92SAPE  C314 9101   3.180   5.364   5.227  0.4147 -0.9591 -0.6370
   92SAPE  H14X 9102   3.184   5.259   5.193 -0.9695 -2.1000  2.3330
   92SAPE  H14Y 9103   3.283   5.383   5.263  0.7227 -1.7605 -1.0718
   92SAPE  C315 9104   3.149   5.468   5.116  0.4644 -0.5389 -0.6382
   92SAPE  H15X 9105   3.065   5.425   5.057  2.4659 -2.4134 -2.2425
   92SAPE  H15Y 9106   3.235   5.476   5.047  0.0216  0.9784 -1.0531
   92SAPE  C316 9107   3.117   5.616   5.157 -0.2846 -0.2159  0.5319
   92SAPE  H16X 9108   3.201   5.641   5.225  2.6947 -2.5554 -2.0188
   92SAPE  H16Y 9109   3.021   5.630   5.211 -0.1613  0.6030  0.5561
   92SAPE  C317 9110   3.136   5.726   5.046 -0.3467  0.8972  0.0417
   92SAPE  H17X 9111   3.075   5.689   4.960 -0.1909  1.0785 -0.1454
   92SAPE  H17Y 9112   3.240   5.731   5.009 -0.9815  1.7907 -1.7679
   92SAPE  C318 9113   3.100   5.863   5.087  0.1675 -1.1126  0.2644
   92SAPE  H18X 9114   2.991   5.885   5.090  0.6143  1.5106 -0.4471
   92SAPE  H18Y 9115   3.139   5.943   5.021 -1.6593 -1.1822 -0.9830
   92SAPE  H18Z 9116   3.140   5.889   5.188 -1.3220  2.9446 -0.0235
   93SAPE     N 9117   5.394   0.572   6.748  0.0520  0.1122 -0.0118
   93SAPE   HN1 9118   5.466   0.497   6.753  0.0764  0.2290  2.2306
   93SAPE   HN2 9119   5.409   0.634   6.830  1.0938 -0.6489  0.4074
   93SAPE   HN3 9120   5.301   0.538   6.778 -0.4225 -0.3187 -1.8431
   93SAPE   C12 9121   5.396   0.643   6.616 -0.1924  0.6336 -0.4197
   93SAPE  H12A 9122   5.500   0.681   6.606  0.2841  0.0305  1.7768
   93SAPE  H12B 9123   5.323   0.726   6.626 -0.3841  0.4385 -0.1789
   93SAPE   C11 9124   5.360   0.544   6.494  0.0677 -0.0188  0.1728
   93SAPE  H11A 9125   5.454   0.485   6.480 -0.2979 -0.9575  1.5023
   93SAPE  H11B 9126   5.336   0.603   6.403 -3.7372 -1.2652  0.2259
   93SAPE     P 9127   5.111   0.479   6.463  0.0245  0.3268  0.1667
   93SAPE   O13 9128   5.012   0.390   6.529 -0.1319 -0.1320  0.0214
   93SAPE   O14 9129   5.070   0.623   6.456  0.3087 -0.1135  0.0350
   93SAPE   O12 9130   5.256   0.458   6.527  0.3421 -0.4323 -0.1099
   93SAPE   O11 9131   5.133   0.419   6.321 -0.0092  0.9065 -0.3066
   93SAPE    C1 9132   5.179   0.295   6.278 -0.3541  0.5821 -0.1019
   93SAPE    HA 9133   5.281   0.298   6.234 -0.5100  0.6911 -0.4589
   93SAPE    HB 9134   5.204   0.229   6.364 -1.3606  1.7863  1.1571
   93SAPE    C2 9135   5.067   0.217   6.201 -0.2968  0.3249  0.5260
   93SAPE    HS 9136   5.117   0.123   6.171  2.2064  2.1335 -1.4442
   93SAPE   O21 9137   5.023   0.273   6.073 -0.0752  0.0580 -0.1068
   93SAPE   C21 9138   5.125   0.284   5.989 -0.2612  0.0957  0.2986
   93SAPE   O22 9139   5.226   0.219   5.993 -0.6250 -0.4907 -0.0008
   93SAPE   C22 9140   5.095   0.387   5.888 -0.0298 -0.2400 -0.0883
   93SAPE   H2R 9141   4.985   0.386   5.873  0.1016  0.4767 -1.2521
   93SAPE   H2S 9142   5.123   0.485   5.933  0.0010 -1.4220  2.6402
   93SAPE    C3 9143   4.940   0.185   6.283  0.1797  0.9916  0.0100
   93SAPE    HX 9144   4.867   0.267   6.294 -1.8740 -0.5214 -1.5706
   93SAPE    HY 9145   4.958   0.151   6.387 -0.1720 -0.6245 -0.4164
   93SAPE   O31 9146   4.884   0.067   6.219  0.1382 -0.1031 -0.8317
   93SAPE   C31 9147   4.774   0.092   6.153 -0.3666  0.4570  0.3755
   93SAPE   O32 9148   4.712   0.197   6.155  0.0380  0.3733  0.2962
   93SAPE   C32 9149   4.736  -0.027   6.067  0.4626 -0.0086 -0.2609
   93SAPE   H2X 9150   4.684  -0.097   6.136 -0.4950  0.9731  0.0500
   93SAPE   H2Y 9151   4.828  -0.076   6.029  0.3002  0.6179 -1.4819
   93SAPE   C23 9152   5.172   0.397   5.748  0.2660 -0.3431  0.0108
   93SAPE   H3R 9153   5.135   0.311   5.687  1.6331  0.0651 -1.4647
   93SAPE   H3S 9154   5.282   0.396   5.761  0.4373 -0.9352 -1.3335
   93SAPE   C24 9155   5.120   0.524   5.679 -0.0877 -0.9722  0.7716
   93SAPE   H4R 9156   5.009   0.527   5.693 -0.0229 -0.3080  1.2462
   93SAPE   H4S 9157   5.147   0.526   5.572  0.1932 -0.9665  0.8412
   93SAPE   C25 9158   5.191   0.652   5.733 -0.2752 -0.4027  0.0288
   93SAPE   H5R 9159   5.162   0.687   5.833 -0.2867  1.6585 -0.6497
   93SAPE   C26 9160   5.291   0.726   5.672  0.5549 -0.9676  0.0381
   93SAPE   H6R 9161   5.334   0.818   5.716  1.6548 -0.5111 -1.8727
   93SAPE   C27 9162   5.346   0.701   5.531 -0.1431 -0.1056  0.1556
   93SAPE   H7R 9163   5.397   0.792   5.493  0.1322 -0.8886 -1.4195
   93SAPE   H7S 9164   5.260   0.684   5.462 -1.2515  2.6068  0.7441
   93SAPE   C28 9165   5.443   0.577   5.530  0.4308 -0.2994 -1.2514
   93SAPE   H8R 9166   5.399   0.488   5.485  1.6731 -1.0314 -1.0689
   93SAPE   C29 9167   5.569   0.581   5.579  0.0345 -0.4035  0.0143
   93SAPE   H9R 9168   5.632   0.491   5.591  1.1248  0.2271 -0.8046
   93SAPE  C210 9169   5.636   0.710   5.613  0.1078  0.4922 -0.2203
   93SAPE  H10R 9170   5.569   0.786   5.659  1.2085  2.0110 -1.0266
   93SAPE  H10S 9171   5.664   0.761   5.518  0.6867  1.5874  0.5222
   93SAPE  C211 9172   5.760   0.691   5.696 -0.0260 -0.1735  0.1722
   93SAPE  H11R 9173   5.847   0.741   5.652  0.1439 -1.9503 -1.6162
   93SAPE  C212 9174   5.756   0.654   5.823  0.7793  0.1888 -0.1026
   93SAPE  H12R 9175   5.852   0.633   5.872  0.4782 -0.0786  0.3820
   93SAPE  C213 9176   5.632   0.599   5.894  0.1119  0.2941 -0.5569
   93SAPE  H13R 9177   5.590   0.510   5.843 -2.0909 -1.2121  3.3919
   93SAPE  H13S 9178   5.549   0.672   5.900 -0.1000 -0.0546  2.9645
   93SAPE  C214 9179   5.658   0.561   6.040 -0.2428 -0.3803  0.4130
   93SAPE  H14R 9180   5.764   0.538   6.058  0.1866  1.3399  0.2333
   93SAPE  C215 9181   5.569   0.568   6.138  0.0551  0.2591  0.1786
   93SAPE  H15R 9182   5.604   0.551   6.241 -2.7550 -0.4587  1.0988
   93SAPE  C216 9183   5.422   0.609   6.122  0.0291 -0.2018  0.3280
   93SAPE  H16R 9184   5.364   0.541   6.188 -0.1117 -0.6288 -0.2311
   93SAPE  H16S 9185   5.380   0.595   6.020  0.1165  2.7518 -0.2012
   93SAPE  C217 9186   5.395   0.748   6.161  0.1188  0.1004  0.1889
   93SAPE  H17R 9187   5.455   0.816   6.097 -0.8191 -1.5287 -2.5889
   93SAPE  H17S 9188   5.435   0.761   6.264  1.5509  1.6335 -0.5195
   93SAPE  C218 9189   5.245   0.790   6.171  0.2022  0.3769  0.4187
   93SAPE  H18R 9190   5.193   0.712   6.231  0.6870  1.3441  2.1604
   93SAPE  H18S 9191   5.200   0.791   6.070 -1.9781 -2.5041  1.2038
   93SAPE  C219 9192   5.207   0.928   6.233 -0.0784 -0.9957  0.6446
   93SAPE  H19R 9193   5.099   0.929   6.259 -1.6241 -1.3082 -4.5416
   93SAPE  H19S 9194   5.238   1.005   6.159 -2.2205 -1.1357 -0.4870
   93SAPE  C220 9195   5.285   0.959   6.367 -0.3581 -0.4552  0.0932
   93SAPE  H20R 9196   5.260   0.877   6.438  0.7885 -0.5378  0.4261
   93SAPE  H20S 9197   5.250   1.055   6.408  0.5558 -0.3410  0.6276
   93SAPE  H20T 9198   5.395   0.961   6.351 -0.0330 -2.5963  1.6758
   93SAPE   C33 9199   4.640  -0.010   5.949  0.0151  0.7186 -0.3672
   93SAPE   H3X 9200   4.576   0.080   5.963 -3.2805 -0.9125 -3.4862
   93SAPE   H3Y 9201   4.577  -0.096   5.919 -2.3986  2.6742 -1.2792
   93SAPE   C34 9202   4.725   0.003   5.825  0.5134 -0.4250 -0.5344
   93SAPE   H4X 9203   4.763  -0.096   5.791  1.0070  0.2829 -2.1843
   93SAPE   H4Y 9204   4.805   0.074   5.852  2.1784 -1.2669 -2.8573
   93SAPE   C35 9205   4.652   0.073   5.707  0.8233  0.7364  0.5452
   93SAPE   H5X 9206   4.639   0.177   5.744  2.3728  1.2304 -0.2391
   93SAPE   H5Y 9207   4.545   0.047   5.692  0.1956  2.7416  1.2305
   93SAPE   C36 9208   4.727   0.055   5.575  0.3665 -0.2940 -0.3138
   93SAPE   H6X 9209   4.728  -0.055   5.555 -0.3517 -0.1688 -1.0989
   93SAPE   H6Y 9210   4.834   0.086   5.574  0.8855 -1.8878  1.2262
   93SAPE   C37 9211   4.646   0.126   5.461 -0.2455 -0.1842  0.2781
   93SAPE   H7X 9212   4.662   0.230   5.496  2.7602 -0.3967 -0.2362
   93SAPE   H7Y 9213   4.539   0.098   5.473 -0.6975  1.0326 -0.7413
   93SAPE   C38 9214   4.707   0.099   5.324  0.3619  0.5297  0.1054
   93SAPE   H8X 9215   4.698  -0.008   5.296 -2.6026  0.8557 -0.5775
   93SAPE   H8Y 9216   4.813   0.131   5.323 -0.1840  2.4522  0.0504
   93SAPE   C39 9217   4.652   0.181   5.203  0.1073  0.3119  0.5118
   93SAPE   H9X 9218   4.545   0.152   5.194 -0.4726  1.1013  3.6003
   93SAPE   H9Y 9219   4.713   0.151   5.115 -0.5954  3.1222 -1.0738
   93SAPE  C310 9220   4.643   0.331   5.226  0.6784 -0.3268  0.7645
   93SAPE  H10X 9221   4.742   0.377   5.250  0.4371  0.9999 -0.6188
   93SAPE  H10Y 9222   4.582   0.356   5.316 -1.8163 -2.3219 -0.2616
   93SAPE  C311 9223   4.589   0.413   5.107 -0.1362  0.5579 -0.2016
   93SAPE  H11X 9224   4.630   0.374   5.011  0.0321 -0.3633  0.2403
   93SAPE  H11Y 9225   4.617   0.520   5.115 -2.2144  1.3800 -2.3665
   93SAPE  C312 9226   4.441   0.401   5.099 -0.1986 -0.3425 -0.0874
   93SAPE  H12X 9227   4.399   0.426   5.199  0.3959 -3.4922  1.0899
   93SAPE  H12Y 9228   4.407   0.301   5.064  2.0996 -0.4847 -2.1295
   93SAPE  C313 9229   4.379   0.502   4.997  0.0569  0.4698 -0.2223
   93SAPE  H13X 9230   4.409   0.604   5.031  0.4422  0.4611 -0.5294
   93SAPE  H13Y 9231   4.268   0.503   4.994  0.0327 -0.1820  0.3457
   93SAPE  C314 9232   4.424   0.495   4.851  0.1707 -0.2078 -0.3289
   93SAPE  H14X 9233   4.532   0.524   4.852  0.0823  0.1223 -0.1538
   93SAPE  H14Y 9234   4.376   0.577   4.793  2.4960  1.8611  0.4833
   93SAPE  C315 9235   4.410   0.353   4.786  0.0035 -0.2268  0.0395
   93SAPE  H15X 9236   4.461   0.276   4.848  1.0636  1.1339  0.9257
   93SAPE  H15Y 9237   4.468   0.355   4.691  0.7775  0.7719  0.5112
   93SAPE  C316 9238   4.264   0.303   4.772  0.8332 -0.0478  0.4057
   93SAPE  H16X 9239   4.218   0.388   4.719  2.5814  1.1947  0.7903
   93SAPE  H16Y 9240   4.213   0.285   4.869  0.2502 -0.4534  0.0270
   93SAPE  C317 9241   4.257   0.169   4.690 -0.1409  0.6045 -0.7172
   93SAPE  H17X 9242   4.330   0.098   4.735 -1.9903 -1.8243 -1.3527
   93SAPE  H17Y 9243   4.282   0.200   4.586  1.2196  0.6393 -0.3974
   93SAPE  C318 9244   4.117   0.100   4.700  0.1559 -0.9382  0.4734
   93SAPE  H18X 9245   4.131   0.023   4.621  1.8298  0.4883 -0.6831
   93SAPE  H18Y 9246   4.034   0.161   4.659  0.9267 -1.1818 -1.5449
   93SAPE  H18Z 9247   4.111   0.053   4.800  0.5265 -0.5346  0.6882
   94SAPE     N 9248   6.317   1.325   7.028 -0.4753  0.1350  0.5486
   94SAPE   HN1 9249   6.305   1.403   7.095 -0.2580  1.2658 -0.6672
   94SAPE   HN2 9250   6.413   1.324   6.986  0.2699 -0.5791  2.2020
   94SAPE   HN3 9251   6.238   1.323   6.960 -1.8659 -1.4451  2.1236
   94SAPE   C12 9252   6.305   1.202   7.088  0.7276  0.9363 -0.5581
   94SAPE  H12A 9253   6.214   1.207   7.152  1.7120  0.7060  0.9127
   94SAPE  H12B 9254   6.390   1.183   7.158  0.3708 -1.8100 -0.7782
   94SAPE   C11 9255   6.299   1.090   6.976  0.2261  0.1875 -0.2201
   94SAPE  H11A 9256   6.218   1.114   6.904  0.5044  1.3452 -0.1574
   94SAPE  H11B 9257   6.267   0.991   7.016  2.7242 -1.0522 -1.1196
   94SAPE     P 9258   6.475   0.954   6.824  0.2237 -0.1857 -0.3643
   94SAPE   O13 9259   6.614   0.902   6.853  0.5611 -0.2700 -0.1159
   94SAPE   O14 9260   6.363   0.858   6.833 -0.5780  0.4966  0.1765
   94SAPE   O12 9261   6.428   1.084   6.906  0.0787 -0.0069  0.1662
   94SAPE   O11 9262   6.497   1.007   6.681  0.4633  0.1218  0.1707
   94SAPE    C1 9263   6.492   1.143   6.642  0.3289  0.1493 -0.5259
   94SAPE    HA 9264   6.537   1.201   6.726 -2.0391  2.3682 -0.6658
   94SAPE    HB 9265   6.558   1.159   6.554 -1.3590  2.9167 -1.4337
   94SAPE    C2 9266   6.347   1.193   6.628  0.2981 -0.6267  0.3384
   94SAPE    HS 9267   6.289   1.165   6.719 -0.7505  0.2250 -0.0397
   94SAPE   O21 9268   6.290   1.135   6.509 -0.4022 -0.5025  0.5022
   94SAPE   C21 9269   6.163   1.118   6.507 -0.4420 -0.1283 -0.6226
   94SAPE   O22 9270   6.091   1.144   6.605 -0.2557  0.4318  0.3483
   94SAPE   C22 9271   6.122   1.094   6.370 -0.0574 -0.3653  0.6718
   94SAPE   H2R 9272   6.017   1.130   6.372  0.4033  1.1142 -0.2293
   94SAPE   H2S 9273   6.187   1.158   6.307 -0.0005 -1.2412 -0.1981
   94SAPE    C3 9274   6.337   1.352   6.618  0.5385 -0.5979 -0.2234
   94SAPE    HX 9275   6.390   1.395   6.706 -1.0328  1.8221 -0.3610
   94SAPE    HY 9276   6.231   1.381   6.633  0.4020 -0.8482 -0.6971
   94SAPE   O31 9277   6.367   1.395   6.490 -0.1631 -0.2143  0.0513
   94SAPE   C31 9278   6.424   1.523   6.486  0.3034 -0.5204  0.2802
   94SAPE   O32 9279   6.444   1.592   6.580 -0.6812  0.5649  0.1032
   94SAPE   C32 9280   6.441   1.553   6.334  0.3156  0.1924  0.1630
   94SAPE   H2X 9281   6.419   1.467   6.267 -0.2641 -0.7835  1.5728
   94SAPE   H2Y 9282   6.549   1.570   6.315  0.4816 -0.7289  0.2471
   94SAPE   C23 9283   6.130   0.947   6.321  0.8311  0.8154  0.0705
   94SAPE   H3R 9284   6.076   0.878   6.388  2.2822  0.9498  1.4341
   94SAPE   H3S 9285   6.233   0.913   6.346 -0.6546 -2.3983  2.5045
   94SAPE   C24 9286   6.080   0.937   6.178 -0.5857 -0.2616  0.8250
   94SAPE   H4R 9287   5.987   0.995   6.161 -0.6465 -0.2029  1.3319
   94SAPE   H4S 9288   6.046   0.834   6.154 -4.4583  0.9888  0.1371
   94SAPE   C25 9289   6.190   0.976   6.087 -0.2448  0.0046 -0.1990
   94SAPE   H5R 9290   6.255   1.058   6.122 -0.7161  0.9579 -1.4546
   94SAPE   C26 9291   6.211   0.943   5.958  0.2030 -0.0798 -0.6395
   94SAPE   H6R 9292   6.309   0.967   5.914  0.5535  0.2044  0.2572
   94SAPE   C27 9293   6.137   0.842   5.873  0.0850  0.0671 -0.0487
   94SAPE   H7R 9294   6.100   0.759   5.936  0.9589  0.8986  1.6391
   94SAPE   H7S 9295   6.205   0.792   5.800  1.8733 -0.2308  1.7270
   94SAPE   C28 9296   6.032   0.920   5.803 -0.4562  0.2175  0.0850
   94SAPE   H8R 9297   5.942   0.932   5.865  1.2246 -1.3527  3.0367
   94SAPE   C29 9298   6.036   0.974   5.679  0.3037 -0.8587  0.1678
   94SAPE   H9R 9299   5.945   1.025   5.645  0.9022  0.4573  0.4690
   94SAPE  C210 9300   6.147   0.967   5.572 -0.3931 -0.3002 -0.7860
   94SAPE  H10R 9301   6.245   0.940   5.618 -0.9933 -2.7438 -0.8213
   94SAPE  H10S 9302   6.156   1.067   5.526 -0.8440 -0.5785 -1.4975
   94SAPE  C211 9303   6.106   0.862   5.480 -0.4348  0.2381  0.2122
   94SAPE  H11R 9304   6.011   0.890   5.431 -1.0995 -1.3958  0.4991
   94SAPE  C212 9305   6.172   0.749   5.442  0.3682  0.3619 -0.5993
   94SAPE  H12R 9306   6.134   0.689   5.358 -0.5349 -0.4616  0.3801
   94SAPE  C213 9307   6.312   0.709   5.486 -0.7406  0.1892 -0.6248
   94SAPE  H13R 9308   6.297   0.627   5.560 -0.5412 -0.9541 -1.8194
   94SAPE  H13S 9309   6.371   0.788   5.537 -0.3825  0.6427 -1.7234
   94SAPE  C214 9310   6.386   0.659   5.364  0.3265 -0.5435  0.0441
   94SAPE  H14R 9311   6.363   0.554   5.339 -0.9315 -0.1336 -0.6059
   94SAPE  C215 9312   6.475   0.720   5.279 -0.7646 -0.1383  0.4133
   94SAPE  H15R 9313   6.521   0.654   5.205  0.1156  1.0032 -0.0804
   94SAPE  C216 9314   6.535   0.857   5.299 -0.2822  0.9353 -0.2444
   94SAPE  H16R 9315   6.641   0.851   5.331 -0.1840  0.2988 -0.6674
   94SAPE  H16S 9316   6.480   0.914   5.377  0.2853 -0.9896  1.6473
   94SAPE  C217 9317   6.535   0.936   5.168  0.3858  0.3264 -0.2464
   94SAPE  H17R 9318   6.431   0.947   5.129 -0.6220  0.3121  2.2104
   94SAPE  H17S 9319   6.595   0.878   5.094 -0.4857 -1.9140  0.7076
   94SAPE  C218 9320   6.594   1.083   5.180 -0.1772  0.9877  0.2927
   94SAPE  H18R 9321   6.586   1.142   5.086  2.1415 -0.8030 -1.1356
   94SAPE  H18S 9322   6.703   1.066   5.176 -0.3548 -0.0355 -0.8213
   94SAPE  C219 9323   6.561   1.158   5.305  0.6758  0.3512 -0.1926
   94SAPE  H19R 9324   6.584   1.097   5.396 -0.4246 -1.0823 -0.8334
   94SAPE  H19S 9325   6.451   1.166   5.318  0.4281 -2.0284 -0.2961
   94SAPE  C220 9326   6.623   1.300   5.309 -0.1410 -0.4744  0.0925
   94SAPE  H20R 9327   6.729   1.299   5.343 -0.1684  1.0237  0.3162
   94SAPE  H20S 9328   6.567   1.363   5.381 -1.4425 -0.5374 -0.8365
   94SAPE  H20T 9329   6.611   1.354   5.213 -0.7934 -0.4763  0.1669
   94SAPE   C33 9330   6.358   1.677   6.293 -0.2842  0.2695 -0.3324
   94SAPE   H3X 9331   6.404   1.761   6.348 -2.9245  1.4624  0.2297
   94SAPE   H3Y 9332   6.253   1.666   6.327  0.2218 -0.8612  0.9233
   94SAPE   C34 9333   6.373   1.700   6.144  0.6923  0.1321  0.0934
   94SAPE   H4X 9334   6.291   1.757   6.096 -0.4567 -1.2952  0.2964
   94SAPE   H4Y 9335   6.369   1.598   6.101  2.0286 -0.1184  0.5253
   94SAPE   C35 9336   6.505   1.777   6.104 -0.0188 -0.2094  0.2970
   94SAPE   H5X 9337   6.582   1.707   6.144 -1.0198 -1.0125  0.8705
   94SAPE   H5Y 9338   6.500   1.875   6.156  1.6181 -0.4414  0.9720
   94SAPE   C36 9339   6.538   1.788   5.957  0.6567  0.6096  0.6137
   94SAPE   H6X 9340   6.553   1.684   5.919  1.7666  0.4720  1.3907
   94SAPE   H6Y 9341   6.624   1.855   5.940 -1.0241  2.9893  0.9926
   94SAPE   C37 9342   6.423   1.868   5.882 -0.4193 -0.5544 -0.4320
   94SAPE   H7X 9343   6.425   1.973   5.918 -3.6160 -0.7774  0.7060
   94SAPE   H7Y 9344   6.326   1.817   5.900 -0.5938  0.2591  1.0907
   94SAPE   C38 9345   6.453   1.885   5.730  0.1464  0.3610  0.2310
   94SAPE   H8X 9346   6.428   1.787   5.684  0.4858  1.6708 -3.0429
   94SAPE   H8Y 9347   6.562   1.900   5.715 -0.0699  1.3994 -0.4402
   94SAPE   C39 9348   6.377   2.000   5.665 -0.3273 -0.6055  0.1181
   94SAPE   H9X 9349   6.406   2.097   5.711 -0.4377 -0.2549 -0.5391
   94SAPE   H9Y 9350   6.269   1.993   5.688 -0.8684 -1.0663 -2.2584
   94SAPE  C310 9351   6.374   2.008   5.511 -0.3041  0.7806  0.4850
   94SAPE  H10X 9352   6.307   1.928   5.471  0.7280 -0.1777  0.6198
   94SAPE  H10Y 9353   6.475   1.989   5.467  0.3038 -0.6720  2.3516
   94SAPE  C311 9354   6.331   2.145   5.460  0.1441 -0.8603  0.1364
   94SAPE  H11X 9355   6.421   2.198   5.497 -1.0654  1.2551  0.1623
   94SAPE  H11Y 9356   6.246   2.191   5.514  2.4121  3.1947  0.6745
   94SAPE  C312 9357   6.312   2.161   5.309  0.3978 -0.2682 -0.1008
   94SAPE  H12X 9358   6.231   2.092   5.276 -1.0425 -0.1428  2.8452
   94SAPE  H12Y 9359   6.398   2.113   5.258  0.5619  1.4833 -1.5566
   94SAPE  C313 9360   6.312   2.301   5.242 -0.0152  0.2654 -0.7317
   94SAPE  H13X 9361   6.387   2.354   5.306 -0.4653  0.7295 -0.5840
   94SAPE  H13Y 9362   6.216   2.346   5.275 -0.0959 -0.9339  0.7876
   94SAPE  C314 9363   6.344   2.290   5.097  0.0084 -0.4827  0.0055
   94SAPE  H14X 9364   6.285   2.209   5.049 -1.3180  1.0667 -1.0464
   94SAPE  H14Y 9365   6.453   2.271   5.094  0.1647  0.4634 -0.9471
   94SAPE  C315 9366   6.323   2.426   5.021 -0.3096  0.2068  0.0915
   94SAPE  H15X 9367   6.230   2.478   5.054 -0.9448 -0.2920 -0.8546
   94SAPE  H15Y 9368   6.304   2.385   4.919 -1.1970 -1.4286  0.8750
   94SAPE  C316 9369   6.447   2.521   5.022  0.1147  0.2175 -0.0040
   94SAPE  H16X 9370   6.483   2.515   5.127  2.5387  0.2733 -0.7621
   94SAPE  H16Y 9371   6.411   2.624   5.004 -1.1645 -0.1144  0.5736
   94SAPE  C317 9372   6.552   2.488   4.922 -0.0400 -0.1163 -0.0610
   94SAPE  H17X 9373   6.551   2.380   4.897 -0.6156  0.3120 -2.0374
   94SAPE  H17Y 9374   6.656   2.512   4.952 -0.7867  2.9718  0.4241
   94SAPE  C318 9375   6.518   2.565   4.786  0.0519  0.1989  0.0745
   94SAPE  H18X 9376   6.582   2.528   4.703 -2.4711 -1.1148 -1.4408
   94SAPE  H18Y 9377   6.543   2.671   4.805 -1.7469  0.4345  1.3862
   94SAPE  H18Z 9378   6.412   2.554   4.754  0.4008  0.7396 -1.3469
   95SAPE     N 9379   0.080   1.520   7.237 -0.9417 -0.1754 -0.2257
   95SAPE   HN1 9380  -0.012   1.567   7.227 -1.7818 -1.7427 -0.2873
   95SAPE   HN2 9381   0.094   1.478   7.331 -0.1855 -0.7942 -0.5995
   95SAPE   HN3 9382   0.163   1.578   7.213  1.5434 -2.1259  2.8530
   95SAPE   C12 9383   0.082   1.415   7.129 -0.6675 -0.8071  0.1311
   95SAPE  H12A 9384   0.036   1.322   7.168 -0.2154 -1.0613  0.0638
   95SAPE  H12B 9385   0.188   1.397   7.104 -0.3815 -1.1628  1.5468
   95SAPE   C11 9386   0.016   1.462   7.001 -0.3013 -0.1109  0.4414
   95SAPE  H11A 9387   0.029   1.380   6.927 -1.9359  1.5780 -1.8664
   95SAPE  H11B 9388   0.066   1.550   6.955  1.1308 -1.0896  0.0542
   95SAPE     P 9389  -0.226   1.505   6.925 -0.0577 -0.0982 -0.1673
   95SAPE   O13 9390  -0.312   1.383   6.909  0.2447 -0.2280  0.2861
   95SAPE   O14 9391  -0.300   1.631   6.960 -0.1130  0.0790  0.1276
   95SAPE   O12 9392  -0.119   1.484   7.038  0.2834  0.2230  0.0978
   95SAPE   O11 9393  -0.133   1.531   6.798 -0.1201  0.6903 -0.5203
   95SAPE    C1 9394  -0.112   1.438   6.696  0.1978  0.4322  0.0436
   95SAPE    HA 9395  -0.057   1.349   6.732  0.4970  0.8008  0.5092
   95SAPE    HB 9396  -0.209   1.408   6.652  0.3645 -0.3814  0.2199
   95SAPE    C2 9397  -0.024   1.498   6.581 -0.5629 -0.0787 -0.0433
   95SAPE    HS 9398   0.083   1.506   6.610  0.2565 -0.5172 -2.7322
   95SAPE   O21 9399  -0.077   1.621   6.535  0.4224  0.0681  0.7044
   95SAPE   C21 9400   0.009   1.711   6.497  0.0085  0.4690 -0.0326
   95SAPE   O22 9401   0.131   1.705   6.501 -0.2348  0.1656 -0.0578
   95SAPE   C22 9402  -0.071   1.826   6.437 -0.5394  0.2748 -0.2545
   95SAPE   H2R 9403  -0.101   1.796   6.334 -0.5989 -0.2993 -0.0736
   95SAPE   H2S 9404  -0.168   1.841   6.490  0.5142  0.5941  1.6460
   95SAPE    C3 9405  -0.028   1.391   6.465  0.3504  0.1128 -0.7290
   95SAPE    HX 9406  -0.131   1.382   6.425  0.0456  0.6110 -0.0819
   95SAPE    HY 9407  -0.004   1.301   6.526  2.2164  1.3745  0.4994
   95SAPE   O31 9408   0.077   1.410   6.368 -0.1546  0.1255 -0.8549
   95SAPE   C31 9409   0.031   1.488   6.265 -0.1274 -0.4045  0.1623
   95SAPE   O32 9410  -0.084   1.528   6.255  0.3146 -0.5891 -0.3771
   95SAPE   C32 9411   0.150   1.534   6.189 -0.1415 -0.2279  0.1692
   95SAPE   H2X 9412   0.230   1.461   6.164 -0.2775 -0.8533  1.4983
   95SAPE   H2Y 9413   0.196   1.617   6.247 -0.6587  0.5186 -0.4667
   95SAPE   C23 9414   0.001   1.961   6.418 -0.7936  0.5959  1.0987
   95SAPE   H3R 9415   0.084   1.963   6.344 -0.3786 -1.4380  1.4596
   95SAPE   H3S 9416   0.045   1.985   6.517  2.2007 -1.2527  0.3391
   95SAPE   C24 9417  -0.098   2.076   6.381  0.1207  0.2765  0.1831
   95SAPE   H4R 9418  -0.022   2.155   6.371  0.6607 -0.1838  0.5685
   95SAPE   H4S 9419  -0.159   2.098   6.472 -2.2880 -2.8580 -0.4760
   95SAPE   C25 9420  -0.190   2.046   6.260  0.0977  0.4759 -0.1273
   95SAPE   H5R 9421  -0.287   2.009   6.297  2.0680 -1.5848  3.4781
   95SAPE   C26 9422  -0.139   2.045   6.132  0.1204  0.5009  0.7342
   95SAPE   H6R 9423  -0.205   2.022   6.047  0.5595  0.4177  0.4167
   95SAPE   C27 9424  -0.006   2.087   6.094 -0.5790  0.1461  0.1412
   95SAPE   H7R 9425   0.062   2.111   6.178 -1.5524 -0.6300  1.1700
   95SAPE   H7S 9426  -0.004   2.185   6.040 -0.4143  0.1186  0.0967
   95SAPE   C28 9427   0.055   1.977   6.019 -0.4079  0.3005 -0.0346
   95SAPE   H8R 9428   0.063   1.884   6.076 -0.8496  0.5443  0.4257
   95SAPE   C29 9429   0.089   1.974   5.885  0.4810  0.3184  0.2678
   95SAPE   H9R 9430   0.137   1.889   5.835 -1.5905 -0.7612  0.0019
   95SAPE  C210 9431   0.078   2.087   5.789  0.5174  0.6384  0.2692
   95SAPE  H10R 9432   0.168   2.080   5.725  0.5090  0.3702  0.2839
   95SAPE  H10S 9433   0.085   2.181   5.847 -2.5219  1.7274 -0.9120
   95SAPE  C211 9434  -0.059   2.088   5.722 -0.3534  0.4445  1.3957
   95SAPE  H11R 9435  -0.147   2.074   5.786  0.2744 -3.1705  1.6962
   95SAPE  C212 9436  -0.082   2.106   5.591  0.4670 -0.4169 -0.2983
   95SAPE  H12R 9437  -0.186   2.120   5.560  0.5718  1.2649 -0.0150
   95SAPE  C213 9438   0.024   2.139   5.480 -0.1588 -1.2664 -0.0457
   95SAPE  H13R 9439   0.016   2.069   5.394 -1.1796  0.5643 -1.5302
   95SAPE  H13S 9440   0.127   2.138   5.522 -0.1096 -0.4404 -0.1234
   95SAPE  C214 9441  -0.007   2.278   5.441 -0.1969 -0.6444  0.4728
   95SAPE  H14R 9442  -0.038   2.344   5.523 -2.4449 -0.6297 -0.3306
   95SAPE  C215 9443  -0.020   2.326   5.316  0.5277 -0.8866  0.6937
   95SAPE  H15R 9444  -0.055   2.430   5.304 -2.4297 -1.7130  1.3896
   95SAPE  C216 9445   0.012   2.268   5.179 -0.0301 -0.3958  0.1364
   95SAPE  H16R 9446  -0.076   2.260   5.111 -0.5176 -1.4994  0.8642
   95SAPE  H16S 9447   0.049   2.164   5.176 -0.0816 -0.5063  2.0273
   95SAPE  C217 9448   0.112   2.357   5.105  0.1255  0.0635 -0.1092
   95SAPE  H17R 9449   0.087   2.465   5.109  0.0797  0.0209  3.0592
   95SAPE  H17S 9450   0.106   2.329   4.997 -0.4990  2.3117 -0.7137
   95SAPE  C218 9451   0.261   2.339   5.147 -0.0039  0.1714  0.4495
   95SAPE  H18R 9452   0.284   2.372   5.251  1.1961 -0.6307  0.4611
   95SAPE  H18S 9453   0.315   2.416   5.087 -0.7207 -0.5454 -1.1674
   95SAPE  C219 9454   0.312   2.197   5.146 -0.3335 -0.0096  0.1283
   95SAPE  H19R 9455   0.277   2.153   5.051 -2.2136  0.1798  0.6942
   95SAPE  H19S 9456   0.269   2.150   5.237 -1.0425  0.9514  0.3054
   95SAPE  C220 9457   0.463   2.206   5.137  0.5590  0.1974 -0.0717
   95SAPE  H20R 9458   0.503   2.106   5.113  2.2221  1.1585 -1.5081
   95SAPE  H20S 9459   0.519   2.241   5.226  0.6059 -0.8824  0.3345
   95SAPE  H20T 9460   0.493   2.279   5.059  0.2119  0.3615 -0.0569
   95SAPE   C33 9461   0.102   1.589   6.052  0.2037  0.6830 -0.2420
   95SAPE   H3X 9462   0.179   1.643   5.993 -0.3438  0.7789 -0.8771
   95SAPE   H3Y 9463   0.023   1.665   6.068 -2.0501 -1.4893 -0.3894
   95SAPE   C34 9464   0.033   1.483   5.965 -0.4730 -0.2247  0.4534
   95SAPE   H4X 9465  -0.045   1.415   6.008 -0.0275 -1.5378 -0.7367
   95SAPE   H4Y 9466   0.118   1.427   5.922 -0.9814 -1.0583  0.4972
   95SAPE   C35 9467  -0.038   1.545   5.841 -1.0507 -0.2971  0.3402
   95SAPE   H5X 9468  -0.110   1.622   5.875  2.0733  2.8341  0.4280
   95SAPE   H5Y 9469  -0.090   1.458   5.796  1.8683 -1.5472 -0.9041
   95SAPE   C36 9470   0.055   1.607   5.735 -0.1661 -0.2605 -0.5316
   95SAPE   H6X 9471   0.100   1.527   5.672 -0.7298 -0.6463 -0.4496
   95SAPE   H6Y 9472   0.138   1.663   5.784  1.6958 -1.7425 -1.8670
   95SAPE   C37 9473  -0.021   1.704   5.648 -0.2120  0.6339  0.3101
   95SAPE   H7X 9474   0.048   1.771   5.592  0.6160 -0.8374 -0.4810
   95SAPE   H7Y 9475  -0.068   1.779   5.715 -1.3277  1.3620 -1.2314
   95SAPE   C38 9476  -0.111   1.633   5.546 -0.4700 -0.1106 -0.3381
   95SAPE   H8X 9477  -0.183   1.576   5.609  1.8632 -1.8472  0.8922
   95SAPE   H8Y 9478  -0.068   1.562   5.472 -1.9536 -0.5476 -0.8245
   95SAPE   C39 9479  -0.183   1.733   5.453  0.2651  0.0815 -0.3792
   95SAPE   H9X 9480  -0.116   1.783   5.379  0.5888  0.5016  0.1963
   95SAPE   H9Y 9481  -0.230   1.806   5.522  2.0192  0.1945  0.7323
   95SAPE  C310 9482  -0.293   1.663   5.365 -0.1229  0.1707 -0.2810
   95SAPE  H10X 9483  -0.371   1.621   5.432  0.8734  0.4478  1.1057
   95SAPE  H10Y 9484  -0.242   1.579   5.313  1.2104  0.6981  0.1358
   95SAPE  C311 9485  -0.337   1.755   5.251 -0.0320 -0.0904 -0.4066
   95SAPE  H11X 9486  -0.247   1.776   5.189 -0.3234 -2.5959 -1.8343
   95SAPE  H11Y 9487  -0.364   1.851   5.301 -0.0820 -1.1515  1.7002
   95SAPE  C312 9488  -0.447   1.693   5.168 -0.3165  0.0860 -0.3665
   95SAPE  H12X 9489  -0.544   1.690   5.222  0.2448  1.2593  0.7557
   95SAPE  H12Y 9490  -0.423   1.587   5.146 -0.6090 -0.2009  0.6222
   95SAPE  C313 9491  -0.475   1.757   5.028 -0.0556 -0.4815 -0.1674
   95SAPE  H13X 9492  -0.528   1.692   4.956 -3.5166  2.8488 -0.9337
   95SAPE  H13Y 9493  -0.376   1.775   4.981 -0.3191 -0.3609 -0.6696
   95SAPE  C314 9494  -0.559   1.883   5.044 -0.5378 -0.3282 -0.0651
   95SAPE  H14X 9495  -0.486   1.963   5.070  1.0777 -1.5020 -0.8070
   95SAPE  H14Y 9496  -0.632   1.865   5.125 -1.6873 -0.8381 -1.1717
   95SAPE  C315 9497  -0.634   1.939   4.915  0.0615 -0.4095 -0.4740
   95SAPE  H15X 9498  -0.726   1.998   4.936 -0.8376 -1.5579 -1.0406
   95SAPE  H15Y 9499  -0.663   1.845   4.862  2.6032 -0.7177 -1.4841
   95SAPE  C316 9500  -0.546   2.009   4.815  0.0326  0.0241  0.0316
   95SAPE  H16X 9501  -0.468   1.940   4.775 -0.4473 -0.2720 -0.4078
   95SAPE  H16Y 9502  -0.495   2.092   4.869 -1.9316  1.5924 -0.4150
   95SAPE  C317 9503  -0.621   2.074   4.701 -0.5907 -0.2322  0.3784
   95SAPE  H17X 9504  -0.698   2.146   4.736 -1.5163 -1.4028  0.8657
   95SAPE  H17Y 9505  -0.677   1.997   4.643 -0.7645 -0.9670  1.4841
   95SAPE  C318 9506  -0.528   2.154   4.611  0.0492  0.3324 -0.4872
   95SAPE  H18X 9507  -0.477   2.225   4.680  1.7798 -1.2044 -0.1276
   95SAPE  H18Y 9508  -0.574   2.216   4.531 -0.3435 -1.0076 -1.3254
   95SAPE  H18Z 9509  -0.450   2.098   4.556  1.3462  1.4471  0.1701
   96SAPE     N 9510   5.074   3.457   7.077 -0.1935 -0.4798  0.4186
   96SAPE   HN1 9511   5.174   3.486   7.088 -0.1008  0.8622 -2.9019
   96SAPE   HN2 9512   5.022   3.542   7.107  1.3630  0.0017  1.9484
   96SAPE   HN3 9513   5.048   3.373   7.133 -0.0185 -1.1287 -0.4406
   96SAPE   C12 9514   5.040   3.446   6.926 -0.1557  0.5500  0.1437
   96SAPE  H12A 9515   4.953   3.377   6.922 -1.6417  2.4036 -1.1716
   96SAPE  H12B 9516   5.124   3.390   6.878 -0.4962  0.2319 -0.0904
   96SAPE   C11 9517   5.004   3.573   6.850  0.3261 -0.0542  0.5280
   96SAPE  H11A 9518   4.987   3.565   6.740 -2.1743 -0.8582  0.9072
   96SAPE  H11B 9519   5.101   3.628   6.853 -0.0874  0.7277 -0.0182
   96SAPE     P 9520   4.897   3.762   6.992 -0.0923 -0.1345 -0.0981
   96SAPE   O13 9521   4.764   3.828   6.998 -0.3544  0.3203 -0.5521
   96SAPE   O14 9522   4.957   3.705   7.120 -0.1123 -0.1232  0.3852
   96SAPE   O12 9523   4.894   3.640   6.898 -0.2632 -0.4223 -0.3075
   96SAPE   O11 9524   5.005   3.863   6.931 -0.2297  0.1412 -0.1555
   96SAPE    C1 9525   4.964   3.977   6.851  0.2307  0.3505 -0.7950
   96SAPE    HA 9526   4.856   3.969   6.826 -0.1620 -2.1513  1.2511
   96SAPE    HB 9527   4.984   4.071   6.907 -2.1227  0.2876  0.2759
   96SAPE    C2 9528   5.037   3.991   6.719 -0.2339  0.2940  0.1820
   96SAPE    HS 9529   4.989   4.072   6.661  0.1604  0.7261  0.4478
   96SAPE   O21 9530   5.039   3.871   6.640  0.1614  0.9474 -0.3349
   96SAPE   C21 9531   4.933   3.819   6.589 -0.0753 -0.5421  0.4762
   96SAPE   O22 9532   4.819   3.871   6.601 -0.7959  0.4030 -0.4811
   96SAPE   C22 9533   4.967   3.701   6.501  0.5788  0.2931 -0.3360
   96SAPE   H2R 9534   5.072   3.672   6.523  1.2450  1.9508 -1.1729
   96SAPE   H2S 9535   4.893   3.620   6.523  0.6607 -0.0655 -1.3366
   96SAPE    C3 9536   5.185   4.028   6.748  0.1997  0.0660 -0.7635
   96SAPE    HX 9537   5.242   3.952   6.805  1.0445  0.0367 -1.6223
   96SAPE    HY 9538   5.175   4.117   6.813 -1.2183 -0.5844 -0.0286
   96SAPE   O31 9539   5.263   4.053   6.630  0.2211  0.2275  0.2873
   96SAPE   C31 9540   5.230   4.150   6.548  0.7687 -0.1945  0.0243
   96SAPE   O32 9541   5.124   4.218   6.558  0.0302 -0.3686  0.3598
   96SAPE   C32 9542   5.327   4.172   6.436 -0.2051 -0.4222  0.2217
   96SAPE   H2X 9543   5.386   4.078   6.431 -2.2092 -1.6900 -2.1236
   96SAPE   H2Y 9544   5.404   4.243   6.473  0.0800 -0.6318  0.0320
   96SAPE   C23 9545   4.978   3.750   6.360  0.4989 -0.4983 -0.1796
   96SAPE   H3R 9546   5.018   3.667   6.299  0.3012 -0.7927  0.0886
   96SAPE   H3S 9547   5.047   3.837   6.364  0.1168 -0.1757 -0.3993
   96SAPE   C24 9548   4.854   3.808   6.292  0.1341  0.2210 -0.1231
   96SAPE   H4R 9549   4.894   3.853   6.198 -2.5814  0.2747 -1.3520
   96SAPE   H4S 9550   4.820   3.889   6.360  1.1586  1.0972 -0.6280
   96SAPE   C25 9551   4.736   3.716   6.272 -0.2570 -0.1139  0.1158
   96SAPE   H5R 9552   4.696   3.656   6.355 -1.0267  1.5834  1.0235
   96SAPE   C26 9553   4.683   3.699   6.147 -0.1833  0.2156  0.0637
   96SAPE   H6R 9554   4.599   3.627   6.145 -1.2327  1.4107 -0.0873
   96SAPE   C27 9555   4.725   3.788   6.031  0.0709  0.5891  0.2372
   96SAPE   H7R 9556   4.826   3.757   5.996 -1.3886 -3.0438 -1.2481
   96SAPE   H7S 9557   4.723   3.893   6.066  1.3691  0.4372  0.8027
   96SAPE   C28 9558   4.627   3.799   5.916 -0.1618  0.0596  0.1082
   96SAPE   H8R 9559   4.522   3.779   5.945 -0.4271  0.6917 -0.3794
   96SAPE   C29 9560   4.645   3.801   5.784 -0.1261  0.3932 -1.0317
   96SAPE   H9R 9561   4.558   3.817   5.719  1.6848  1.9229 -3.2547
   96SAPE  C210 9562   4.785   3.818   5.719 -1.2295 -1.1943  0.2113
   96SAPE  H10R 9563   4.860   3.863   5.787 -0.4042  1.0309 -2.0339
   96SAPE  H10S 9564   4.766   3.897   5.643 -0.5113 -1.2902 -0.0754
   96SAPE  C211 9565   4.838   3.695   5.649  0.2452 -0.2391 -1.1254
   96SAPE  H11R 9566   4.854   3.609   5.716  0.1977  0.1725 -0.5838
   96SAPE  C212 9567   4.895   3.682   5.528  0.0371  0.1724 -1.0479
   96SAPE  H12R 9568   4.920   3.581   5.494  1.0297  0.1820 -0.3509
   96SAPE  C213 9569   4.889   3.790   5.424 -0.0582  0.2776 -0.1798
   96SAPE  H13R 9570   4.848   3.887   5.460  1.6117  1.0338 -0.2143
   96SAPE  H13S 9571   4.820   3.759   5.343 -1.9144  0.2090  1.3650
   96SAPE  C214 9572   5.023   3.819   5.367  0.3806 -0.1167  0.5203
   96SAPE  H14R 9573   5.114   3.798   5.425 -1.3155 -2.0271  2.6967
   96SAPE  C215 9574   5.048   3.834   5.233  0.2825  0.4077 -0.4473
   96SAPE  H15R 9575   5.153   3.848   5.205  1.6265 -0.5597  3.4421
   96SAPE  C216 9576   4.949   3.824   5.119 -0.3344  0.0654 -0.4400
   96SAPE  H16R 9577   4.875   3.905   5.134  1.4068  1.6111  0.2210
   96SAPE  H16S 9578   4.910   3.720   5.126 -0.5222  0.1071 -0.8416
   96SAPE  C217 9579   5.022   3.865   4.986  0.5945  0.3832 -0.1468
   96SAPE  H17R 9580   4.958   3.848   4.897 -0.0074  0.5806  0.2419
   96SAPE  H17S 9581   5.116   3.806   4.978  0.6802  0.5673 -0.5541
   96SAPE  C218 9582   5.054   4.017   4.984  0.3075  0.1731  0.3829
   96SAPE  H18R 9583   5.109   4.053   5.073  0.1624  0.9857  0.1561
   96SAPE  H18S 9584   4.959   4.076   4.982 -0.7769 -1.5183 -0.3367
   96SAPE  C219 9585   5.117   4.056   4.851  0.9637 -0.2700  0.5974
   96SAPE  H19R 9586   5.195   3.980   4.831  0.2279 -0.5271 -1.5191
   96SAPE  H19S 9587   5.173   4.151   4.841  0.1292  0.0137 -2.2401
   96SAPE  C220 9588   5.042   4.056   4.727  0.3517 -0.4061 -0.2149
   96SAPE  H20R 9589   5.121   4.069   4.650  0.5678  1.5401  0.2740
   96SAPE  H20S 9590   4.975   4.143   4.707 -1.9229 -2.2463 -1.0521
   96SAPE  H20T 9591   4.978   3.967   4.716 -3.8006  2.5575 -3.1886
   96SAPE   C33 9592   5.263   4.207   6.298 -0.4007 -0.3317  0.5266
   96SAPE   H3X 9593   5.345   4.231   6.227 -0.3174 -3.5758 -0.6531
   96SAPE   H3Y 9594   5.205   4.301   6.298  0.6737  0.3695 -1.0363
   96SAPE   C34 9595   5.187   4.085   6.232 -0.1902 -0.5738 -0.2105
   96SAPE   H4X 9596   5.111   4.056   6.308 -0.4408 -1.1581 -0.6777
   96SAPE   H4Y 9597   5.254   4.001   6.201 -0.3872 -0.8914  0.2050
   96SAPE   C35 9598   5.104   4.141   6.123 -0.2106 -0.9213  0.1860
   96SAPE   H5X 9599   5.048   4.229   6.160 -1.2947 -0.7564 -1.6614
   96SAPE   H5Y 9600   5.026   4.068   6.091 -2.8462  1.9317 -0.3290
   96SAPE   C36 9601   5.172   4.189   5.996  0.4693 -0.1681  0.7153
   96SAPE   H6X 9602   5.242   4.106   5.975 -1.0308 -0.6883 -3.0088
   96SAPE   H6Y 9603   5.230   4.283   6.008  0.8484 -0.2708 -0.2151
   96SAPE   C37 9604   5.077   4.195   5.880 -0.4236  0.2712  0.1457
   96SAPE   H7X 9605   4.980   4.246   5.896  0.0471  1.4807 -0.7112
   96SAPE   H7Y 9606   5.050   4.092   5.848  1.3547 -0.2625  0.2059
   96SAPE   C38 9607   5.158   4.262   5.760 -0.1993  0.5175 -0.3794
   96SAPE   H8X 9608   5.244   4.195   5.737 -0.8793  0.1330 -1.9126
   96SAPE   H8Y 9609   5.198   4.362   5.785  0.0574  0.5890 -1.0552
   96SAPE   C39 9610   5.084   4.274   5.628  0.3665 -0.3297 -0.3686
   96SAPE   H9X 9611   5.030   4.371   5.631  2.0072  0.7443 -2.4455
   96SAPE   H9Y 9612   5.014   4.190   5.609  0.8880 -0.4640 -1.8623
   96SAPE  C310 9613   5.177   4.280   5.506 -0.2375 -0.1722  0.3384
   96SAPE  H10X 9614   5.223   4.181   5.488  0.3904  0.1228  0.3286
   96SAPE  H10Y 9615   5.257   4.352   5.530  0.0321 -0.5102  0.4639
   96SAPE  C311 9616   5.097   4.310   5.378 -0.1274 -0.4200  0.1812
   96SAPE  H11X 9617   5.073   4.418   5.391  0.7116 -0.0860 -0.8828
   96SAPE  H11Y 9618   5.007   4.245   5.376 -1.2118  1.0507 -0.6280
   96SAPE  C312 9619   5.175   4.297   5.244  0.0490  0.4805 -0.2454
   96SAPE  H12X 9620   5.095   4.306   5.167  1.2443 -0.2795 -1.6288
   96SAPE  H12Y 9621   5.218   4.195   5.232 -3.3939 -1.1412  0.0973
   96SAPE  C313 9622   5.279   4.406   5.224 -0.0367 -0.4757 -0.5810
   96SAPE  H13X 9623   5.361   4.388   5.297  0.8181 -0.0956 -1.4314
   96SAPE  H13Y 9624   5.238   4.507   5.244 -2.1211 -1.2785 -0.4458
   96SAPE  C314 9625   5.352   4.403   5.091  0.1343 -0.4521 -0.5798
   96SAPE  H14X 9626   5.279   4.423   5.010 -0.3732  0.0785  0.0067
   96SAPE  H14Y 9627   5.403   4.304   5.082  0.9899  0.0469 -1.3389
   96SAPE  C315 9628   5.458   4.519   5.084  0.4181 -0.2751 -0.0570
   96SAPE  H15X 9629   5.522   4.516   5.175  1.3661  0.8988 -0.6567
   96SAPE  H15Y 9630   5.406   4.617   5.083 -2.3648 -1.6622 -0.4911
   96SAPE  C316 9631   5.543   4.503   4.959 -0.1702  0.1695  0.1892
   96SAPE  H16X 9632   5.472   4.517   4.875  0.8505  1.0568 -0.5682
   96SAPE  H16Y 9633   5.582   4.399   4.963  2.0807  0.9892  1.5659
   96SAPE  C317 9634   5.647   4.613   4.939  0.8539  0.3267  0.2177
   96SAPE  H17X 9635   5.690   4.624   5.041  0.2451  0.5582  0.4544
   96SAPE  H17Y 9636   5.602   4.710   4.912 -2.7417 -0.6774  2.0136
   96SAPE  C318 9637   5.764   4.581   4.847 -0.6627 -0.3408 -0.0200
   96SAPE  H18X 9638   5.732   4.565   4.742 -2.1139  1.4369  0.0956
   96SAPE  H18Y 9639   5.814   4.486   4.875  0.0083  0.0904  0.2695
   96SAPE  H18Z 9640   5.841   4.661   4.854 -0.5335 -0.4669 -0.0035
   97SAPE     N 9641   4.091   6.807   6.875  0.0444 -0.2530  0.5411
   97SAPE   HN1 9642   4.096   6.908   6.898 -2.8889 -0.5575  3.1654
   97SAPE   HN2 9643   4.157   6.783   6.799 -0.8196 -2.6817  0.4501
   97SAPE   HN3 9644   3.996   6.781   6.842  0.4264 -2.8146  1.1695
   97SAPE   C12 9645   4.116   6.722   6.994 -0.3665 -0.1278 -0.0488
   97SAPE  H12A 9646   4.028   6.740   7.060  0.3669 -0.0606  0.9451
   97SAPE  H12B 9647   4.202   6.763   7.052 -1.7867  0.1397  1.9716
   97SAPE   C11 9648   4.138   6.581   6.948  0.3164  0.1262  0.1866
   97SAPE  H11A 9649   4.139   6.516   7.038 -0.8825 -0.1294  0.0272
   97SAPE  H11B 9650   4.233   6.563   6.893  0.2674  0.9696 -0.1924
   97SAPE     P 9651   4.027   6.401   6.806  0.3338  0.2703 -0.1875
   97SAPE   O13 9652   4.085   6.305   6.904  0.3622  0.1611 -0.7604
   97SAPE   O14 9653   3.891   6.387   6.756 -0.3237  0.5190 -0.5985
   97SAPE   O12 9654   4.027   6.548   6.867 -0.7360 -0.3165  0.1907
   97SAPE   O11 9655   4.131   6.414   6.688 -0.3548  0.7179  0.4125
   97SAPE    C1 9656   4.119   6.537   6.612  0.5979  0.2632 -0.1051
   97SAPE    HA 9657   4.037   6.606   6.640  1.6913  2.1745 -1.4078
   97SAPE    HB 9658   4.210   6.601   6.618  0.3665  0.5268  0.7502
   97SAPE    C2 9659   4.105   6.498   6.459  0.3507  0.2241  0.5490
   97SAPE    HS 9660   4.103   6.586   6.391  3.1938 -0.9589 -1.2711
   97SAPE   O21 9661   3.980   6.426   6.443 -0.6386  0.3082  0.5480
   97SAPE   C21 9662   3.873   6.506   6.425 -0.3228  0.5920  0.4274
   97SAPE   O22 9663   3.873   6.623   6.443 -0.2046  0.6841  0.2843
   97SAPE   C22 9664   3.762   6.418   6.376 -0.3142 -0.4758 -0.3800
   97SAPE   H2R 9665   3.785   6.310   6.392 -1.9014 -0.9488 -1.0418
   97SAPE   H2S 9666   3.682   6.436   6.451  0.3161  2.1757 -0.2431
   97SAPE    C3 9667   4.222   6.410   6.415 -0.6761 -0.4030 -0.5885
   97SAPE    HX 9668   4.242   6.324   6.483 -0.0478 -1.3521 -1.9283
   97SAPE    HY 9669   4.314   6.470   6.436  0.0914 -0.9247 -2.2296
   97SAPE   O31 9670   4.215   6.361   6.281 -0.0925  0.0176  0.8592
   97SAPE   C31 9671   4.166   6.235   6.264 -0.3801  0.1453 -0.5528
   97SAPE   O32 9672   4.122   6.164   6.352 -0.0146  0.7355  0.2737
   97SAPE   C32 9673   4.170   6.208   6.114 -0.2607  0.4604  0.3953
   97SAPE   H2X 9674   4.250   6.266   6.064 -1.9522  1.5626 -1.2021
   97SAPE   H2Y 9675   4.074   6.246   6.074 -0.0331 -0.9834 -1.6894
   97SAPE   C23 9676   3.709   6.456   6.233 -0.4638 -0.8861 -0.9322
   97SAPE   H3R 9677   3.673   6.560   6.221 -2.0383 -1.4666 -1.6330
   97SAPE   H3S 9678   3.621   6.388   6.226 -0.5427 -0.8176 -0.6370
   97SAPE   C24 9679   3.805   6.411   6.121 -0.3399 -0.2003 -0.5283
   97SAPE   H4R 9680   3.745   6.388   6.030 -0.6500  1.4586 -0.7889
   97SAPE   H4S 9681   3.839   6.312   6.157 -0.0927 -1.1885 -3.2840
   97SAPE   C25 9682   3.922   6.515   6.110  0.0297 -0.0196 -0.2158
   97SAPE   H5R 9683   4.008   6.510   6.178 -0.9860 -2.4335  1.0262
   97SAPE   C26 9684   3.929   6.584   6.000 -0.4204  0.0895  0.3002
   97SAPE   H6R 9685   4.017   6.649   5.991  0.4243 -0.9837  0.6419
   97SAPE   C27 9686   3.835   6.597   5.880  0.0112 -0.4245 -0.6014
   97SAPE   H7R 9687   3.731   6.589   5.921 -0.1069  0.8591 -0.6163
   97SAPE   H7S 9688   3.839   6.509   5.812 -0.5225 -1.0616  0.1543
   97SAPE   C28 9689   3.859   6.720   5.799 -0.3071 -0.0032 -1.0158
   97SAPE   H8R 9690   3.854   6.816   5.852  0.0303 -0.1147 -0.7834
   97SAPE   C29 9691   3.884   6.720   5.670 -0.2067  0.2796  0.3746
   97SAPE   H9R 9692   3.909   6.817   5.625  2.1742 -0.4503 -0.0089
   97SAPE  C210 9693   3.892   6.598   5.580 -0.4146 -0.0049 -0.6306
   97SAPE  H10R 9694   3.794   6.546   5.578  0.5758 -1.9757 -0.3123
   97SAPE  H10S 9695   3.952   6.518   5.627  0.1754  1.5424  1.4008
   97SAPE  C211 9696   3.932   6.622   5.438  0.3413 -0.6121  0.4164
   97SAPE  H11R 9697   4.006   6.699   5.413 -0.0723 -0.0593  0.8564
   97SAPE  C212 9698   3.875   6.550   5.336  0.3994  0.1342  0.5523
   97SAPE  H12R 9699   3.892   6.575   5.230 -0.1163  0.7253  0.6011
   97SAPE  C213 9700   3.779   6.432   5.338  0.7360  0.5169  0.3209
   97SAPE  H13R 9701   3.677   6.475   5.333  1.1017  1.2292 -1.4671
   97SAPE  H13S 9702   3.789   6.370   5.430 -0.5938 -1.1491 -0.5941
   97SAPE  C214 9703   3.797   6.340   5.222  0.5130  0.1568 -0.0543
   97SAPE  H14R 9704   3.865   6.254   5.231 -0.1577 -0.3412  0.3496
   97SAPE  C215 9705   3.730   6.362   5.105  0.5581 -0.5501  0.2725
   97SAPE  H15R 9706   3.748   6.298   5.018 -0.7477 -0.4308 -0.1090
   97SAPE  C216 9707   3.635   6.471   5.070  0.1505  0.1338  0.3127
   97SAPE  H16R 9708   3.604   6.538   5.153  0.5724 -2.7956  3.0680
   97SAPE  H16S 9709   3.543   6.424   5.031  0.3038 -1.1168  1.3857
   97SAPE  C217 9710   3.688   6.555   4.950 -0.7646  0.1286 -0.4045
   97SAPE  H17R 9711   3.697   6.478   4.870 -0.2787  1.3324 -1.5524
   97SAPE  H17S 9712   3.789   6.596   4.968 -0.9308  0.8737 -1.0773
   97SAPE  C218 9713   3.586   6.661   4.903 -0.5051 -0.1628  0.1111
   97SAPE  H18R 9714   3.510   6.666   4.985 -0.5348 -2.8617  0.3629
   97SAPE  H18S 9715   3.535   6.619   4.814  1.1791 -2.3235  0.0859
   97SAPE  C219 9716   3.650   6.806   4.888  0.4261 -0.2550  0.2698
   97SAPE  H19R 9717   3.673   6.844   4.990 -0.1727 -2.7862  1.4175
   97SAPE  H19S 9718   3.574   6.875   4.847  1.8887  2.2940  1.5622
   97SAPE  C220 9719   3.769   6.806   4.798 -0.1239  0.2083  0.1333
   97SAPE  H20R 9720   3.861   6.753   4.831 -1.5029 -1.7120  1.1235
   97SAPE  H20S 9721   3.818   6.906   4.790  0.8559 -0.1818  0.9860
   97SAPE  H20T 9722   3.737   6.763   4.700  0.1177 -1.1699  0.6313
   97SAPE   C33 9723   4.191   6.058   6.075  0.2068  0.0649  0.0678
   97SAPE   H3X 9724   4.162   6.025   5.973 -1.0477 -1.4729  0.8577
   97SAPE   H3Y 9725   4.125   5.992   6.136  1.1611 -0.8088  0.1738
   97SAPE   C34 9726   4.335   6.003   6.089  0.2727  1.1577  0.0663
   97SAPE   H4X 9727   4.337   5.893   6.072  2.9790  1.3510 -1.4900
   97SAPE   H4Y 9728   4.365   6.025   6.193  1.4839  0.1666 -0.0483
   97SAPE   C35 9729   4.445   6.058   5.998 -0.1089 -0.2909  0.0779
   97SAPE   H5X 9730   4.541   6.008   6.022 -1.0280 -2.3828 -0.3626
   97SAPE   H5Y 9731   4.459   6.167   6.015 -1.0987  0.1971 -1.8715
   97SAPE   C36 9732   4.413   6.046   5.847  0.0747 -0.4775  0.0348
   97SAPE   H6X 9733   4.494   6.100   5.793 -0.7640  0.4350 -0.3489
   97SAPE   H6Y 9734   4.321   6.101   5.819  0.0193 -1.4682 -1.8909
   97SAPE   C37 9735   4.411   5.905   5.791  0.2990  0.0473  0.7746
   97SAPE   H7X 9736   4.314   5.857   5.813 -0.9520  1.3944 -1.4282
   97SAPE   H7Y 9737   4.475   5.844   5.859 -0.4136  2.1528  3.5185
   97SAPE   C38 9738   4.448   5.902   5.636 -0.8237  0.2681 -0.1481
   97SAPE   H8X 9739   4.488   5.803   5.606 -0.4928  0.2655  0.2912
   97SAPE   H8Y 9740   4.519   5.983   5.610  0.1272  0.0505  1.6210
   97SAPE   C39 9741   4.325   5.925   5.553 -0.0561 -0.2807  0.3357
   97SAPE   H9X 9742   4.273   6.022   5.573  0.0144 -0.4471  1.3747
   97SAPE   H9Y 9743   4.250   5.844   5.565  1.0555 -1.7601 -2.0038
   97SAPE  C310 9744   4.356   5.924   5.399  0.7510  0.5978 -0.1262
   97SAPE  H10X 9745   4.411   5.829   5.379 -0.2412 -0.2979  1.1705
   97SAPE  H10Y 9746   4.427   6.006   5.377  3.6609 -1.0443  2.3314
   97SAPE  C311 9747   4.232   5.937   5.316 -0.4546  0.4742 -0.2379
   97SAPE  H11X 9748   4.167   6.021   5.349  0.9014  1.1257  0.8384
   97SAPE  H11Y 9749   4.164   5.849   5.322 -2.1704  1.8151  1.2176
   97SAPE  C312 9750   4.247   5.961   5.169 -0.1900 -0.0243  0.1614
   97SAPE  H12X 9751   4.303   5.878   5.122  0.1611  0.9614 -1.2063
   97SAPE  H12Y 9752   4.304   6.055   5.156  0.7088 -0.4462  0.9894
   97SAPE  C313 9753   4.117   5.990   5.096  0.8824  0.3023 -0.5197
   97SAPE  H13X 9754   4.067   6.079   5.140  0.6381 -0.4149  0.6923
   97SAPE  H13Y 9755   4.053   5.901   5.108 -0.2978  1.1072 -0.7087
   97SAPE  C314 9756   4.143   6.017   4.947  0.1124 -0.0551 -0.2681
   97SAPE  H14X 9757   4.229   5.955   4.913 -0.2771  1.3270 -4.2319
   97SAPE  H14Y 9758   4.189   6.116   4.928 -1.3175  0.9755  1.3618
   97SAPE  C315 9759   4.012   6.002   4.859  0.4863  0.5223  0.1545
   97SAPE  H15X 9760   3.963   5.908   4.891  0.5019  1.3123  2.7533
   97SAPE  H15Y 9761   4.040   5.983   4.754 -0.8007  0.4040 -0.1782
   97SAPE  C316 9762   3.908   6.123   4.867  0.1236  0.4718 -0.3403
   97SAPE  H16X 9763   3.955   6.220   4.840  0.9343  0.0843 -0.3466
   97SAPE  H16Y 9764   3.863   6.132   4.968 -1.3253 -0.8999 -0.8146
   97SAPE  C317 9765   3.803   6.101   4.759 -0.1841  0.4825 -0.4674
   97SAPE  H17X 9766   3.738   6.018   4.796 -1.0118  0.8502 -1.0612
   97SAPE  H17Y 9767   3.849   6.069   4.663  1.8384 -3.2495  1.4829
   97SAPE  C318 9768   3.708   6.220   4.739  0.8382  0.0663 -0.5358
   97SAPE  H18X 9769   3.658   6.254   4.832  0.9389  0.7604 -0.7269
   97SAPE  H18Y 9770   3.627   6.205   4.664  1.5381 -0.4134 -1.2157
   97SAPE  H18Z 9771   3.757   6.312   4.700  1.4549 -0.0941 -0.1428
   98SAPE     N 9772   3.471   6.428   6.807 -0.0084  0.7215 -0.0759
   98SAPE   HN1 9773   3.444   6.394   6.713  0.6379 -2.0170  0.6119
   98SAPE   HN2 9774   3.568   6.465   6.804  0.4371 -0.1212  2.0033
   98SAPE   HN3 9775   3.464   6.345   6.870  1.1514  0.5348 -0.1676
   98SAPE   C12 9776   3.367   6.528   6.854 -0.2795  0.5208 -0.1008
   98SAPE  H12A 9777   3.407   6.625   6.816  2.1942 -0.3281  0.1554
   98SAPE  H12B 9778   3.377   6.529   6.965 -1.2728 -2.2633  0.0870
   98SAPE   C11 9779   3.233   6.475   6.810  0.5956 -0.8370  0.8781
   98SAPE  H11A 9780   3.225   6.485   6.700  0.7046  2.0640  1.0545
   98SAPE  H11B 9781   3.164   6.551   6.853  2.9621  2.2990 -0.4600
   98SAPE     P 9782   3.056   6.303   6.887  0.3183  0.1010  0.4734
   98SAPE   O13 9783   3.059   6.157   6.906  0.0752 -0.3998 -0.2400
   98SAPE   O14 9784   3.000   6.382   7.002  0.3516 -0.2236  0.4358
   98SAPE   O12 9785   3.204   6.345   6.857  0.2775 -0.2828 -0.2767
   98SAPE   O11 9786   2.976   6.343   6.757 -0.0394 -0.5751  0.4914
   98SAPE    C1 9787   3.012   6.278   6.634  0.1596  1.1350  0.1353
   98SAPE    HA 9788   3.116   6.297   6.601  0.5813 -1.9132 -0.5921
   98SAPE    HB 9789   3.016   6.168   6.627  0.1956  1.2239 -2.4560
   98SAPE    C2 9790   2.919   6.308   6.516  0.6313 -0.0202  0.4217
   98SAPE    HS 9791   2.959   6.265   6.422 -0.1100  2.3950 -1.0742
   98SAPE   O21 9792   2.916   6.446   6.503 -0.3348  0.5468 -0.2138
   98SAPE   C21 9793   3.017   6.507   6.445 -0.1108  0.2550  0.0321
   98SAPE   O22 9794   3.118   6.450   6.405 -0.5688 -0.8109  0.2723
   98SAPE   C22 9795   2.986   6.655   6.432  0.2837 -0.6160 -0.0540
   98SAPE   H2R 9796   2.890   6.662   6.376 -0.4894  0.8384  1.3760
   98SAPE   H2S 9797   2.965   6.708   6.527 -0.1330 -2.0233  0.6740
   98SAPE    C3 9798   2.781   6.256   6.551  0.2160 -0.2165 -0.2549
   98SAPE    HX 9799   2.741   6.286   6.650 -1.4126  0.2200 -1.0032
   98SAPE    HY 9800   2.775   6.145   6.540 -1.8549 -0.0356 -1.5554
   98SAPE   O31 9801   2.690   6.297   6.450 -0.6346  0.1021  0.2928
   98SAPE   C31 9802   2.616   6.404   6.479  0.1704 -0.0544  0.1101
   98SAPE   O32 9803   2.628   6.471   6.583 -0.1365  0.3207 -0.2373
   98SAPE   C32 9804   2.513   6.428   6.367 -1.1955  0.0416  0.1256
   98SAPE   H2X 9805   2.448   6.516   6.388 -0.0140  1.1089 -0.5796
   98SAPE   H2Y 9806   2.446   6.339   6.356 -1.3103  0.1355  0.0627
   98SAPE   C23 9807   3.103   6.729   6.358  0.1738  0.1528 -0.2976
   98SAPE   H3R 9808   3.117   6.688   6.255  2.3678  0.3883 -0.1366
   98SAPE   H3S 9809   3.199   6.712   6.411  0.4189  0.9165 -0.4843
   98SAPE   C24 9810   3.069   6.882   6.344  0.5199  1.4956  0.4988
   98SAPE   H4R 9811   3.043   6.919   6.446 -0.3492 -2.0154  1.7014
   98SAPE   H4S 9812   2.986   6.903   6.274 -0.4112  0.0896  1.1192
   98SAPE   C25 9813   3.191   6.956   6.301  0.1551 -0.6514  0.1270
   98SAPE   H5R 9814   3.238   7.001   6.389  1.2509 -1.1928 -0.1610
   98SAPE   C26 9815   3.223   6.999   6.180  0.4937 -0.2262 -0.6257
   98SAPE   H6R 9816   3.323   7.044   6.173  0.2379  0.1548 -2.0496
   98SAPE   C27 9817   3.161   6.964   6.044  0.9889  0.2877 -0.2238
   98SAPE   H7R 9818   3.183   7.037   5.964  0.0494  0.0345 -0.7184
   98SAPE   H7S 9819   3.052   6.970   6.061  0.8485  0.9694 -1.3083
   98SAPE   C28 9820   3.201   6.826   6.000  0.0886 -0.0868 -0.5947
   98SAPE   H8R 9821   3.228   6.753   6.079 -2.5308 -2.1514 -1.4506
   98SAPE   C29 9822   3.198   6.772   5.879  0.4554 -0.4148  0.3208
   98SAPE   H9R 9823   3.237   6.671   5.864  0.6462 -0.2054 -0.6551
   98SAPE  C210 9824   3.162   6.849   5.750  0.5802 -0.5301 -0.6924
   98SAPE  H10R 9825   3.147   6.957   5.770  1.2912  0.1097 -3.3206
   98SAPE  H10S 9826   3.066   6.810   5.709  0.3948 -0.1221 -0.6435
   98SAPE  C211 9827   3.281   6.835   5.658  0.1564 -0.0717 -0.6881
   98SAPE  H11R 9828   3.373   6.853   5.716 -0.9682  0.5725  0.9596
   98SAPE  C212 9829   3.290   6.825   5.524  0.4066 -0.2823 -0.8296
   98SAPE  H12R 9830   3.391   6.838   5.481  0.7397  1.5001  0.3719
   98SAPE  C213 9831   3.168   6.813   5.427 -0.6186  0.5455  0.2029
   98SAPE  H13R 9832   3.088   6.781   5.497  2.8678 -1.9496  3.4543
   98SAPE  H13S 9833   3.176   6.724   5.362 -1.3582  1.1676 -0.7575
   98SAPE  C214 9834   3.134   6.947   5.366 -1.2328 -0.1186  0.1909
   98SAPE  H14R 9835   3.160   7.026   5.438  2.6688 -0.5664 -0.5123
   98SAPE  C215 9836   3.074   6.967   5.249 -0.0386 -0.3668 -0.5495
   98SAPE  H15R 9837   3.039   7.068   5.223 -0.4316 -0.7658 -1.6266
   98SAPE  C216 9838   3.036   6.865   5.142  0.6091 -0.4772 -0.4470
   98SAPE  H16R 9839   2.947   6.903   5.088 -0.4393 -0.9597  0.8982
   98SAPE  H16S 9840   3.003   6.773   5.194 -1.0504 -0.2835 -1.1223
   98SAPE  C217 9841   3.154   6.831   5.048 -0.1128 -0.9983 -0.0306
   98SAPE  H17R 9842   3.233   6.778   5.105  1.0855 -2.3170 -2.7430
   98SAPE  H17S 9843   3.199   6.918   4.997 -1.0959  0.3444  1.3009
   98SAPE  C218 9844   3.106   6.732   4.939 -0.3642  0.4739 -0.4291
   98SAPE  H18R 9845   3.067   6.795   4.856 -0.6006 -0.7042 -1.2424
   98SAPE  H18S 9846   3.029   6.660   4.973  0.5747 -0.4091 -0.1050
   98SAPE  C219 9847   3.227   6.661   4.874 -0.3926  0.4576  0.5634
   98SAPE  H19R 9848   3.293   6.612   4.950  0.5022 -0.3338 -0.6903
   98SAPE  H19S 9849   3.294   6.737   4.829  0.4703 -0.3964  0.3672
   98SAPE  C220 9850   3.188   6.554   4.769  0.6520 -0.7849 -0.6773
   98SAPE  H20R 9851   3.275   6.552   4.700  0.7718 -0.0998 -0.5453
   98SAPE  H20S 9852   3.097   6.592   4.718  1.0456  0.3922 -0.5317
   98SAPE  H20T 9853   3.166   6.458   4.820 -1.5342  0.5853  1.1374
   98SAPE   C33 9854   2.591   6.464   6.231 -0.1980  0.6295 -0.4054
   98SAPE   H3X 9855   2.516   6.430   6.156  0.5683 -2.4062  0.0863
   98SAPE   H3Y 9856   2.678   6.395   6.227  0.1485  1.0327  0.0703
   98SAPE   C34 9857   2.629   6.608   6.217 -0.3037 -0.5895 -0.2340
   98SAPE   H4X 9858   2.692   6.655   6.295 -1.5719  0.2460  0.3169
   98SAPE   H4Y 9859   2.534   6.666   6.211 -1.5295 -2.1569  2.4901
   98SAPE   C35 9860   2.704   6.635   6.081  0.2842 -0.4197  0.0154
   98SAPE   H5X 9861   2.643   6.608   5.992  2.4588  0.1106 -1.7331
   98SAPE   H5Y 9862   2.797   6.576   6.092 -1.0155 -2.4547  0.6546
   98SAPE   C36 9863   2.739   6.779   6.050 -0.1473 -0.6674 -0.4643
   98SAPE   H6X 9864   2.803   6.821   6.130 -0.1558 -1.5004  0.0018
   98SAPE   H6Y 9865   2.644   6.838   6.051  0.7846  0.9249  1.9704
   98SAPE   C37 9866   2.797   6.795   5.905  0.1826  0.1988 -0.6427
   98SAPE   H7X 9867   2.889   6.734   5.897 -0.7602 -1.1509 -1.8113
   98SAPE   H7Y 9868   2.818   6.903   5.894  1.7584 -0.1174 -0.9058
   98SAPE   C38 9869   2.712   6.738   5.781 -0.5254 -0.1101  1.0495
   98SAPE   H8X 9870   2.617   6.794   5.764 -0.8102 -0.6193  0.9521
   98SAPE   H8Y 9871   2.694   6.630   5.797  2.4775 -1.4582 -2.9381
   98SAPE   C39 9872   2.792   6.752   5.648 -0.4052 -0.5367  0.3486
   98SAPE   H9X 9873   2.886   6.697   5.666  0.6363  1.3651  0.9647
   98SAPE   H9Y 9874   2.826   6.856   5.628 -0.1480 -0.9292 -1.4792
   98SAPE  C310 9875   2.706   6.701   5.522  0.2910 -0.8168 -0.1694
   98SAPE  H10X 9876   2.604   6.744   5.533  1.1913  1.1127  1.1076
   98SAPE  H10Y 9877   2.706   6.590   5.518  3.5414 -0.9931  1.2869
   98SAPE  C311 9878   2.770   6.763   5.397 -0.3666  0.4481 -1.0055
   98SAPE  H11X 9879   2.870   6.716   5.381  0.6343  1.6340  1.2875
   98SAPE  H11Y 9880   2.793   6.869   5.419  2.2091 -0.1486 -0.4569
   98SAPE  C312 9881   2.681   6.758   5.272  0.1061  0.0661 -0.3408
   98SAPE  H12X 9882   2.734   6.801   5.185  0.2400 -0.3350 -0.4591
   98SAPE  H12Y 9883   2.593   6.821   5.297  0.4934 -0.0476  1.3955
   98SAPE  C313 9884   2.636   6.615   5.239  0.2458  0.1530 -0.2801
   98SAPE  H13X 9885   2.535   6.618   5.192 -0.6236 -2.7519  1.1447
   98SAPE  H13Y 9886   2.619   6.556   5.332 -0.2914 -0.3955 -0.7183
   98SAPE  C314 9887   2.724   6.534   5.141  0.3891 -0.6541 -0.4400
   98SAPE  H14X 9888   2.811   6.512   5.206  0.0962  0.7294  0.4709
   98SAPE  H14Y 9889   2.759   6.604   5.062  0.2281 -0.3211 -0.2191
   98SAPE  C315 9890   2.666   6.397   5.096 -0.6739  0.9543 -0.0286
   98SAPE  H15X 9891   2.558   6.415   5.076 -0.8884 -0.4666 -0.2642
   98SAPE  H15Y 9892   2.671   6.321   5.176 -1.0379  0.6469 -0.2980
   98SAPE  C316 9893   2.729   6.364   4.951  0.2665 -0.1318 -0.5327
   98SAPE  H16X 9894   2.839   6.366   4.966  0.2687  0.6566 -0.5991
   98SAPE  H16Y 9895   2.700   6.442   4.878 -0.5263 -1.1067 -1.2963
   98SAPE  C317 9896   2.679   6.237   4.884  0.4076  0.1268 -0.2073
   98SAPE  H17X 9897   2.707   6.147   4.943 -1.2415 -0.5538 -0.4111
   98SAPE  H17Y 9898   2.725   6.232   4.783 -2.1326  0.8202 -1.4785
   98SAPE  C318 9899   2.527   6.240   4.868 -0.3894 -1.2212  0.8233
   98SAPE  H18X 9900   2.488   6.157   4.805  2.0004 -2.9511  1.4840
   98SAPE  H18Y 9901   2.503   6.335   4.816  1.4888  0.5136  2.9242
   98SAPE  H18Z 9902   2.480   6.241   4.968  1.2245  1.1552  1.6478
   99SAPE     N 9903   5.485   5.838   6.302 -0.0333 -0.5641 -0.3914
   99SAPE   HN1 9904   5.540   5.906   6.357 -1.6067  0.3329  0.1480
   99SAPE   HN2 9905   5.533   5.746   6.295 -1.5235 -1.3925 -0.2640
   99SAPE   HN3 9906   5.481   5.885   6.209  0.5684  1.1653  0.4070
   99SAPE   C12 9907   5.355   5.815   6.371 -0.3772 -0.2939 -0.1134
   99SAPE  H12A 9908   5.320   5.917   6.398  2.4466  0.8351 -0.3111
   99SAPE  H12B 9909   5.371   5.758   6.466 -1.1339  0.1280  0.2778
   99SAPE   C11 9910   5.258   5.742   6.271  0.0907 -0.1781 -0.6187
   99SAPE  H11A 9911   5.300   5.656   6.215  0.6923 -0.4346  0.2168
   99SAPE  H11B 9912   5.231   5.821   6.197 -0.7821 -0.5031 -0.6602
   99SAPE     P 9913   5.113   5.557   6.391 -0.1656 -0.7365  0.0218
   99SAPE   O13 9914   5.237   5.481   6.384 -0.4243 -0.1970 -0.3767
   99SAPE   O14 9915   5.045   5.560   6.526 -0.0496  0.2997  0.4180
   99SAPE   O12 9916   5.135   5.703   6.342 -0.6816 -0.6314  0.8336
   99SAPE   O11 9917   5.008   5.493   6.293  0.4165 -0.7340 -0.3881
   99SAPE    C1 9918   4.994   5.514   6.152  0.2467 -0.5277  0.5431
   99SAPE    HA 9919   4.887   5.496   6.128  0.3504  0.4193 -0.7266
   99SAPE    HB 9920   5.021   5.615   6.115 -1.6647  0.2860  1.2543
   99SAPE    C2 9921   5.066   5.407   6.070 -0.2989 -0.4802 -0.4177
   99SAPE    HS 9922   5.175   5.429   6.068 -0.5648  1.3988  1.6404
   99SAPE   O21 9923   5.016   5.401   5.935  0.5756  0.1305  0.2563
   99SAPE   C21 9924   5.027   5.506   5.855 -0.0047  0.3249  0.0998
   99SAPE   O22 9925   5.082   5.615   5.870  0.4223 -0.0749 -0.4704
   99SAPE   C22 9926   4.983   5.466   5.712 -0.1521  0.3265 -0.6514
   99SAPE   H2R 9927   5.043   5.374   5.694 -1.6567 -1.1378  1.3720
   99SAPE   H2S 9928   4.877   5.435   5.713  0.1363 -0.7065 -0.3204
   99SAPE    C3 9929   5.057   5.263   6.133  0.1048  0.0866  0.8467
   99SAPE    HX 9930   4.954   5.220   6.132  0.9441 -2.0293  0.3602
   99SAPE    HY 9931   5.085   5.269   6.241 -1.5525  0.9025  1.2728
   99SAPE   O31 9932   5.133   5.169   6.049  0.0516 -0.1415  0.3307
   99SAPE   C31 9933   5.260   5.158   6.090 -0.6512 -0.5046 -0.3719
   99SAPE   O32 9934   5.317   5.231   6.171 -0.3987 -0.2920 -0.4741
   99SAPE   C32 9935   5.320   5.046   6.008  0.6889  0.2913  0.9379
   99SAPE   H2X 9936   5.319   4.956   6.072 -0.9902 -1.4700 -1.3604
   99SAPE   H2Y 9937   5.429   5.067   5.999  1.2637 -2.8384 -0.8958
   99SAPE   C23 9938   5.001   5.569   5.603 -0.4941 -0.7984 -0.5333
   99SAPE   H3R 9939   4.992   5.518   5.505 -1.1908  0.8987 -1.4088
   99SAPE   H3S 9940   5.101   5.617   5.611  0.1387 -2.0839 -0.5909
   99SAPE   C24 9941   4.887   5.685   5.620 -0.2571  0.5809  0.3792
   99SAPE   H4R 9942   4.906   5.738   5.716 -1.8119  2.7348 -0.4284
   99SAPE   H4S 9943   4.790   5.632   5.620 -0.5130  1.0454  0.1172
   99SAPE   C25 9944   4.891   5.794   5.528 -0.0666  0.2002  0.0236
   99SAPE   H5R 9945   4.973   5.867   5.538  0.3275  0.1674 -2.3156
   99SAPE   C26 9946   4.812   5.806   5.419 -0.0604  0.5118 -0.2110
   99SAPE   H6R 9947   4.837   5.894   5.358 -0.0760  1.6038  1.3077
   99SAPE   C27 9948   4.705   5.711   5.372 -0.5677 -0.0591  0.1537
   99SAPE   H7R 9949   4.612   5.763   5.340  0.9208  1.0384 -2.6311
   99SAPE   H7S 9950   4.669   5.643   5.453 -1.8268 -2.0871 -1.9914
   99SAPE   C28 9951   4.763   5.640   5.253  0.4179  0.4012  0.1756
   99SAPE   H8R 9952   4.872   5.651   5.239  0.3950  0.7591  0.2905
   99SAPE   C29 9953   4.689   5.590   5.147  0.4492 -0.1808 -0.3888
   99SAPE   H9R 9954   4.732   5.542   5.058  1.3802 -2.3977  1.1807
   99SAPE  C210 9955   4.541   5.581   5.134  0.0700  0.1061  0.3394
   99SAPE  H10R 9956   4.505   5.666   5.073  2.8820  0.4183 -1.0467
   99SAPE  H10S 9957   4.485   5.586   5.230 -0.4377 -2.7195  0.2951
   99SAPE  C211 9958   4.499   5.452   5.072  0.1384  0.2063 -0.7508
   99SAPE  H11R 9959   4.488   5.358   5.127 -0.3224  0.0154 -1.1681
   99SAPE  C212 9960   4.477   5.429   4.941 -0.4660 -0.0936 -0.0984
   99SAPE  H12R 9961   4.439   5.331   4.909 -1.6856  0.3802 -0.1653
   99SAPE  C213 9962   4.492   5.532   4.832  0.0753  0.0041 -0.1466
   99SAPE  H13R 9963   4.553   5.621   4.859 -0.6240  0.9049 -1.4594
   99SAPE  H13S 9964   4.391   5.573   4.809 -0.9735 -2.0508  0.5970
   99SAPE  C214 9965   4.551   5.480   4.704  0.3408  0.5793  0.4556
   99SAPE  H14R 9966   4.482   5.451   4.623  0.5579  1.3538 -0.0125
   99SAPE  C215 9967   4.681   5.449   4.684  0.2671  0.2919 -0.2025
   99SAPE  H15R 9968   4.698   5.392   4.591  0.2339 -0.3835  0.1965
   99SAPE  C216 9969   4.800   5.480   4.777 -0.0533 -0.0975 -0.5211
   99SAPE  H16R 9970   4.765   5.532   4.869 -1.1151 -0.5645 -0.6381
   99SAPE  H16S 9971   4.875   5.547   4.731  1.1606 -0.3753  0.9834
   99SAPE  C217 9972   4.873   5.350   4.821 -0.4470 -0.3562 -0.9119
   99SAPE  H17R 9973   4.937   5.318   4.736  3.8020  2.6071  0.8037
   99SAPE  H17S 9974   4.808   5.264   4.846  0.7262 -0.9817  0.0778
   99SAPE  C218 9975   4.978   5.367   4.936  0.5495  0.4314 -0.4297
   99SAPE  H18R 9976   4.928   5.405   5.027  1.6748 -1.0113  0.8480
   99SAPE  H18S 9977   5.051   5.449   4.915 -0.0565  0.6630 -1.7004
   99SAPE  C219 9978   5.045   5.225   4.965  0.3052 -0.7289  0.1135
   99SAPE  H19R 9979   5.045   5.176   4.865  1.4751  0.6765 -0.6129
   99SAPE  H19S 9980   4.979   5.171   5.036 -0.4077  2.0471  1.7032
   99SAPE  C220 9981   5.180   5.236   5.035  0.0286  0.5120  0.2264
   99SAPE  H20R 9982   5.254   5.257   4.954  1.6110 -1.6849  0.9812
   99SAPE  H20S 9983   5.211   5.137   5.076 -0.4568 -1.2595 -3.2888
   99SAPE  H20T 9984   5.184   5.312   5.116  1.1237  0.9554 -0.2172
   99SAPE   C33 9985   5.268   5.026   5.869  0.0103 -0.3050 -0.1312
   99SAPE   H3X 9986   5.347   4.982   5.805 -1.7792 -0.1977 -2.5557
   99SAPE   H3Y 9987   5.249   5.121   5.813 -1.8016 -1.4787 -1.6602
   99SAPE   C34 9988   5.145   4.930   5.882  0.3637  0.4117  0.3394
   99SAPE   H4X 9989   5.063   4.982   5.936  1.0463  0.4799  1.3379
   99SAPE   H4Y 9990   5.176   4.844   5.946 -0.4859 -1.1523 -1.2409
   99SAPE   C35 9991   5.098   4.878   5.748 -0.3935 -0.1677 -0.0611
   99SAPE   H5X 9992   5.190   4.847   5.695  0.6024  2.5088 -0.0732
   99SAPE   H5Y 9993   5.058   4.960   5.685 -0.0479  1.6830  1.9990
   99SAPE   C36 9994   5.000   4.763   5.740  0.1048  0.0783 -0.8521
   99SAPE   H6X 9995   4.901   4.777   5.789  0.5671 -0.3099  0.2353
   99SAPE   H6Y 9996   5.028   4.673   5.799 -1.5164  0.2684  0.2765
   99SAPE   C37 9997   4.974   4.732   5.591 -0.5808 -0.5024  0.8587
   99SAPE   H7X 9998   4.937   4.628   5.590  0.0138 -0.7188 -0.2688
   99SAPE   H7Y 9999   5.073   4.729   5.539 -2.3551  2.6352 -3.3066
   99SAPE   C3810000   4.887   4.833   5.505 -0.2101 -0.4391  0.0784
   99SAPE   H8X10001   4.939   4.932   5.504  3.2698 -2.0887 -1.8855
   99SAPE   H8Y10002   4.784   4.840   5.546 -0.5269  0.6643 -0.8403
   99SAPE   C3910003   4.881   4.792   5.352  0.3698  0.2109 -0.2079
   99SAPE   H9X10004   4.796   4.852   5.312  0.4973  0.5184 -0.0276
   99SAPE   H9Y10005   4.854   4.684   5.349 -2.1123  0.5319  3.6711
   99SAPE  C31010006   5.014   4.804   5.273  0.7752  0.1590 -0.7239
   99SAPE  H10X10007   5.086   4.725   5.303  0.6619 -0.4050 -1.8662
   99SAPE  H10Y10008   5.067   4.901   5.279  1.5245 -0.1682 -1.7373
   99SAPE  C31110009   4.988   4.788   5.122 -0.2337  0.2090  0.3520
   99SAPE  H11X10010   4.921   4.868   5.084 -0.4763 -0.2209 -0.1495
   99SAPE  H11Y10011   4.941   4.689   5.106 -1.0541  0.8076 -1.2649
   99SAPE  C31210012   5.113   4.798   5.035  0.0543  0.0489 -0.3741
   99SAPE  H12X10013   5.195   4.753   5.095  1.4977  2.0566 -0.7490
   99SAPE  H12Y10014   5.139   4.906   5.028 -1.8186  0.6827  1.6178
   99SAPE  C31310015   5.112   4.724   4.903  0.3292 -0.2735  0.4419
   99SAPE  H13X10016   5.023   4.759   4.847 -0.3640 -2.4084  0.1172
   99SAPE  H13Y10017   5.081   4.620   4.925 -0.7181 -0.5156 -1.8707
   99SAPE  C31410018   5.249   4.729   4.826 -0.3020  0.6781  0.6794
   99SAPE  H14X10019   5.248   4.648   4.749  1.7272  1.1167  0.1216
   99SAPE  H14Y10020   5.334   4.718   4.897 -0.6243 -2.3403  0.7337
   99SAPE  C31510021   5.273   4.861   4.762  0.1559  0.0888  0.2777
   99SAPE  H15X10022   5.316   4.929   4.840 -2.4531  2.0350  0.1570
   99SAPE  H15Y10023   5.172   4.898   4.735  0.2505 -0.3965 -0.7758
   99SAPE  C31610024   5.366   4.865   4.645 -0.0630 -0.2362  0.8003
   99SAPE  H16X10025   5.371   4.968   4.603  0.1867 -0.2354  0.8320
   99SAPE  H16Y10026   5.321   4.809   4.560 -1.4641  2.8452 -0.6584
   99SAPE  C31710027   5.506   4.802   4.667  0.2706 -0.4072 -0.3141
   99SAPE  H17X10028   5.559   4.760   4.579  1.8511  0.8287 -0.0057
   99SAPE  H17Y10029   5.505   4.722   4.743  1.9669  0.5222  0.7622
   99SAPE  C31810030   5.605   4.905   4.736  0.3580  0.2256 -0.0147
   99SAPE  H18X10031   5.638   4.982   4.662 -1.7920  0.2166 -1.0591
   99SAPE  H18Y10032   5.689   4.849   4.782  1.0334 -0.8082 -2.3227
   99SAPE  H18Z10033   5.555   4.955   4.821  0.6982  0.7566 -0.1192
  100SAPE     N10034   2.147   3.325   6.859 -0.4137 -0.3432  0.2432
  100SAPE   HN110035   2.050   3.300   6.885 -0.2868  0.3043  1.3763
  100SAPE   HN210036   2.219   3.250   6.859  3.5446  3.0559 -1.2658
  100SAPE   HN310037   2.180   3.395   6.928  1.7994  0.0785 -1.1398
  100SAPE   C1210038   2.148   3.381   6.720 -0.3946  0.0823 -0.8251
  100SAPE  H12A10039   2.062   3.451   6.710 -0.6828 -0.3628 -1.4856
  100SAPE  H12B10040   2.139   3.293   6.653  0.8519  0.9989 -2.2712
  100SAPE   C1110041   2.275   3.457   6.684  0.7902  0.2061 -0.2072
  100SAPE  H11A10042   2.247   3.491   6.582  0.3886  0.1578 -0.1134
  100SAPE  H11B10043   2.363   3.391   6.693  1.4267  1.2470  1.9692
  100SAPE     P10044   2.263   3.715   6.727  0.1516 -0.1590  0.1289
  100SAPE   O1310045   2.126   3.751   6.727 -0.1340 -0.2346 -0.0162
  100SAPE   O1410046   2.353   3.795   6.806 -0.3249 -0.4988  0.1830
  100SAPE   O1210047   2.276   3.566   6.772 -0.1088 -0.2172  0.0427
  100SAPE   O1110048   2.325   3.709   6.576 -0.0042 -0.1043 -0.5842
  100SAPE    C110049   2.337   3.824   6.485  0.1849 -0.1426 -0.4304
  100SAPE    HA10050   2.250   3.847   6.421  1.0886  0.2494 -1.5483
  100SAPE    HB10051   2.354   3.915   6.545 -0.3430 -1.1501  1.3335
  100SAPE    C210052   2.461   3.807   6.394 -0.4720 -0.5017 -0.8480
  100SAPE    HS10053   2.474   3.899   6.333 -0.5902  1.4342  1.8671
  100SAPE   O2110054   2.437   3.679   6.327 -0.1007  0.1896 -0.0415
  100SAPE   C2110055   2.371   3.694   6.208  0.1084 -0.2095 -0.3273
  100SAPE   O2210056   2.348   3.803   6.157  0.6138 -0.5328  0.0719
  100SAPE   C2210057   2.346   3.554   6.151  0.4370  0.2361 -0.5057
  100SAPE   H2R10058   2.419   3.484   6.198 -0.3232  0.9891  1.9665
  100SAPE   H2S10059   2.246   3.534   6.193  0.3217  0.5261 -0.6405
  100SAPE    C310060   2.589   3.805   6.493  0.3496  0.1275  0.5467
  100SAPE    HX10061   2.565   3.707   6.541 -0.5877  0.0255 -0.0944
  100SAPE    HY10062   2.584   3.885   6.570 -3.9787  0.7595 -0.1519
  100SAPE   O3110063   2.711   3.813   6.416  0.0803  0.6585 -0.7893
  100SAPE   C3110064   2.753   3.706   6.342 -0.1243 -0.0773 -0.5551
  100SAPE   O3210065   2.695   3.604   6.337 -0.1827  0.1201 -0.3142
  100SAPE   C3210066   2.883   3.744   6.257  0.0949  0.4339  0.0057
  100SAPE   H2X10067   2.972   3.702   6.309 -0.1785 -0.1772 -0.0113
  100SAPE   H2Y10068   2.898   3.855   6.258 -1.5118  0.6943 -1.5179
  100SAPE   C2310069   2.357   3.539   5.996  0.1423 -0.2286 -0.0503
  100SAPE   H3R10070   2.295   3.618   5.949  0.0913 -1.0259 -1.3669
  100SAPE   H3S10071   2.315   3.438   5.974  1.8534 -1.1576  0.7395
  100SAPE   C2410072   2.494   3.537   5.928  0.3827  0.0613  0.0586
  100SAPE   H4R10073   2.534   3.640   5.932  0.8970 -0.0334 -1.8099
  100SAPE   H4S10074   2.484   3.527   5.818  0.0239 -0.2223  0.1139
  100SAPE   C2510075   2.590   3.444   5.999 -0.3707  0.1841  0.1928
  100SAPE   H5R10076   2.611   3.476   6.102 -0.8899  1.8091 -0.1747
  100SAPE   C2610077   2.624   3.328   5.949 -0.8881  0.6414 -0.6565
  100SAPE   H6R10078   2.674   3.262   6.021  0.4830  0.5462 -1.6695
  100SAPE   C2710079   2.596   3.250   5.819 -0.0101  0.4248 -0.2792
  100SAPE   H7R10080   2.688   3.257   5.757  0.7134  0.1029  0.7284
  100SAPE   H7S10081   2.513   3.293   5.759  2.0410  2.8118 -1.6321
  100SAPE   C2810082   2.576   3.106   5.855  0.4954 -0.3374 -0.0026
  100SAPE   H8R10083   2.574   3.086   5.963 -1.9903  1.2178  0.3052
  100SAPE   C2910084   2.547   3.013   5.766  0.4227 -0.0449  0.4960
  100SAPE   H9R10085   2.548   2.908   5.801 -0.8560 -0.5348 -0.8278
  100SAPE  C21010086   2.543   3.033   5.615  0.3235 -0.6118  0.6803
  100SAPE  H10R10087   2.548   3.142   5.594  0.8994 -0.4069  1.7749
  100SAPE  H10S10088   2.449   2.998   5.570 -0.3072 -0.3428  1.7414
  100SAPE  C21110089   2.665   2.959   5.556 -0.5242  0.0905 -0.0319
  100SAPE  H11R10090   2.749   2.927   5.618  0.7032  1.5291 -0.8844
  100SAPE  C21210091   2.666   2.931   5.424 -0.2350  0.1788  0.3250
  100SAPE  H12R10092   2.756   2.887   5.379  0.1007 -1.0345  2.0842
  100SAPE  C21310093   2.561   2.955   5.320  0.2613  0.0702  0.1772
  100SAPE  H13R10094   2.467   2.937   5.377  2.0165  1.5807  3.8668
  100SAPE  H13S10095   2.578   2.882   5.238 -1.5570 -0.5521  0.3131
  100SAPE  C21410096   2.532   3.095   5.272 -0.0599  0.3400 -0.0521
  100SAPE  H14R10097   2.570   3.165   5.348  1.5870 -0.7016  0.1343
  100SAPE  C21510098   2.470   3.142   5.161  0.3457 -0.3902  0.2533
  100SAPE  H15R10099   2.465   3.251   5.152  0.1271 -0.5427 -1.9682
  100SAPE  C21610100   2.425   3.051   5.043  0.0383 -0.5874 -0.1423
  100SAPE  H16R10101   2.469   2.950   5.032 -1.2996 -1.1060 -1.0465
  100SAPE  H16S10102   2.444   3.103   4.946 -0.3370 -1.3600 -0.6412
  100SAPE  C21710103   2.270   3.036   5.054  0.0704 -0.5374 -1.0574
  100SAPE  H17R10104   2.226   3.134   5.028 -1.2547 -0.9200 -0.3685
  100SAPE  H17S10105   2.241   3.025   5.160  1.3339  3.4833 -0.1620
  100SAPE  C21810106   2.209   2.915   4.988  0.0919 -0.0137  0.1983
  100SAPE  H18R10107   2.258   2.829   5.039  0.7177 -0.3731 -0.9800
  100SAPE  H18S10108   2.217   2.915   4.877  2.5728 -1.8446  0.2922
  100SAPE  C21910109   2.059   2.904   5.020  0.1418 -0.0851 -0.3381
  100SAPE  H19R10110   2.009   2.992   4.974  1.0775 -1.0341 -3.3968
  100SAPE  H19S10111   2.051   2.921   5.129 -0.2648  0.9275 -0.5191
  100SAPE  C22010112   1.989   2.773   4.980 -0.1609 -0.9191 -0.1150
  100SAPE  H20R10113   1.878   2.776   4.991 -0.5261 -0.9737 -3.0049
  100SAPE  H20S10114   2.023   2.687   5.042 -0.0385  0.0346  1.1775
  100SAPE  H20T10115   1.996   2.751   4.871 -0.5968 -0.7161 -0.1857
  100SAPE   C3310116   2.864   3.695   6.108  0.4575 -0.0168 -0.0715
  100SAPE   H3X10117   2.759   3.718   6.079 -0.0507 -1.9692  0.1023
  100SAPE   H3Y10118   2.876   3.585   6.112 -0.6800 -0.1218  0.8413
  100SAPE   C3410119   2.960   3.767   6.010  0.1132  0.2151  0.1355
  100SAPE   H4X10120   3.063   3.759   6.050 -0.3790  0.4963  1.5174
  100SAPE   H4Y10121   2.938   3.875   6.025  0.9401  0.3781  0.2204
  100SAPE   C3510122   2.941   3.728   5.864 -0.4533  0.2937 -0.6521
  100SAPE   H5X10123   2.835   3.699   5.847 -0.7796  1.2941 -0.3939
  100SAPE   H5Y10124   2.999   3.636   5.843 -0.2597 -0.1103  1.4160
  100SAPE   C3610125   2.979   3.837   5.772  0.0619  0.0988 -0.0179
  100SAPE   H6X10126   3.085   3.869   5.772  1.0253 -2.6482 -2.4839
  100SAPE   H6Y10127   2.918   3.928   5.792  1.6595  1.7269 -2.1281
  100SAPE   C3710128   2.957   3.794   5.630 -0.5769  0.1085 -0.7940
  100SAPE   H7X10129   2.853   3.758   5.617  0.3371 -2.6783 -0.9838
  100SAPE   H7Y10130   3.015   3.704   5.602  1.9836  1.0494  1.1038
  100SAPE   C3810131   2.977   3.902   5.526 -0.4077 -0.2653 -0.2189
  100SAPE   H8X10132   3.079   3.945   5.533  0.1328 -1.6924  1.6017
  100SAPE   H8Y10133   2.898   3.976   5.550 -0.1982 -0.2630  0.4925
  100SAPE   C3910134   2.955   3.856   5.379  0.4198 -0.1280  0.1610
  100SAPE   H9X10135   2.869   3.787   5.380  0.0813  0.2137 -1.7546
  100SAPE   H9Y10136   3.045   3.802   5.343 -0.6986 -1.7527 -0.2772
  100SAPE  C31010137   2.927   3.980   5.291  0.1448  0.1898  0.4711
  100SAPE  H10X10138   3.003   4.059   5.313  0.5466 -0.0496 -0.0350
  100SAPE  H10Y10139   2.825   4.016   5.316  0.2926 -0.3851  2.0286
  100SAPE  C31110140   2.937   3.946   5.144 -0.4529  1.1845 -0.2731
  100SAPE  H11X10141   2.855   3.881   5.107  0.2108 -0.5664  1.1909
  100SAPE  H11Y10142   3.033   3.892   5.129 -1.3946 -0.4825 -0.5694
  100SAPE  C31210143   2.921   4.075   5.056 -0.1609 -0.5749  1.2284
  100SAPE  H12X10144   2.996   4.155   5.072 -0.6481 -0.1574  1.4499
  100SAPE  H12Y10145   2.829   4.128   5.087 -1.0102 -0.3576 -1.4262
  100SAPE  C31310146   2.900   4.047   4.902 -0.2969  0.0393 -0.8579
  100SAPE  H13X10147   2.850   4.136   4.858 -0.9298  0.2831  0.3139
  100SAPE  H13Y10148   2.840   3.955   4.888 -1.4856  0.7249 -0.4721
  100SAPE  C31410149   3.039   4.019   4.833 -0.3723 -1.0854  0.5852
  100SAPE  H14X10150   3.071   3.916   4.861  0.6476 -0.6764  0.9589
  100SAPE  H14Y10151   3.111   4.098   4.864  0.6829 -2.5523  2.0489
  100SAPE  C31510152   3.017   4.002   4.680  0.1628 -0.2872  0.0640
  100SAPE  H15X10153   3.113   3.962   4.641 -0.4768 -1.0660 -0.7643
  100SAPE  H15Y10154   2.997   4.103   4.639 -1.7296 -0.5120  0.3548
  100SAPE  C31610155   2.909   3.907   4.627  0.0925  0.4941 -0.4977
  100SAPE  H16X10156   2.815   3.934   4.680  0.9360 -1.2584  2.0882
  100SAPE  H16Y10157   2.931   3.805   4.666 -0.8011  1.6784  3.5956
  100SAPE  C31710158   2.883   3.915   4.474  0.4827 -0.6582 -0.4591
  100SAPE  H17X10159   2.975   3.923   4.412  1.6623  1.2649  1.4206
  100SAPE  H17Y10160   2.838   4.014   4.449  0.7833 -0.6955 -1.1811
  100SAPE  C31810161   2.805   3.796   4.430 -0.2766 -0.4398 -0.8603
  100SAPE  H18X10162   2.837   3.707   4.487  0.5104  1.2878  1.5460
  100SAPE  H18Y10163   2.785   3.777   4.322 -1.2438 -2.3137 -0.3863
  100SAPE  H18Z10164   2.701   3.808   4.467  0.9830  2.0725  2.3748
  101SAPE     N10165   1.174   3.331   7.209 -0.8232  0.2959 -0.3194
  101SAPE   HN110166   1.151   3.401   7.136  0.2120 -1.1613 -2.1260
  101SAPE   HN210167   1.259   3.369   7.254 -0.2190 -1.1530 -0.1753
  101SAPE   HN310168   1.200   3.244   7.159  0.4631  0.9221 -0.7891
  101SAPE   C1210169   1.057   3.285   7.291 -0.3255  0.2572 -0.0260
  101SAPE  H12A10170   1.030   3.369   7.358  2.0350  1.8523 -0.9309
  101SAPE  H12B10171   1.094   3.199   7.352  1.5518  0.9528 -0.1257
  101SAPE   C1110172   0.942   3.241   7.203 -0.3716  0.3662 -0.0229
  101SAPE  H11A10173   0.875   3.187   7.273  0.7503  0.3550  1.0756
  101SAPE  H11B10174   0.975   3.177   7.118  0.4849 -0.1810  0.7018
  101SAPE     P10175   0.748   3.307   7.058 -0.0774 -0.5368  0.2912
  101SAPE   O1310176   0.727   3.162   7.068 -0.2332  0.1059 -0.2612
  101SAPE   O1410177   0.624   3.391   7.081  0.3661  0.3215  0.1643
  101SAPE   O1210178   0.868   3.355   7.151 -0.1051  0.4447  0.7217
  101SAPE   O1110179   0.792   3.342   6.909  0.0584 -0.1087 -0.6417
  101SAPE    C110180   0.935   3.353   6.884 -0.7223  0.0103  0.2539
  101SAPE    HA10181   0.989   3.436   6.935  0.2267  1.0789 -2.3137
  101SAPE    HB10182   0.980   3.256   6.914 -0.0186 -0.1725 -1.2886
  101SAPE    C210183   0.963   3.359   6.734  0.0765  0.5180 -0.0502
  101SAPE    HS10184   1.062   3.311   6.720 -0.3713 -0.9821  1.4989
  101SAPE   O2110185   0.952   3.501   6.689 -0.3400  0.0702 -0.6275
  101SAPE   C2110186   1.052   3.580   6.716 -0.3728 -0.5547 -0.2811
  101SAPE   O2210187   1.156   3.554   6.778 -0.3797 -0.5676 -0.0328
  101SAPE   C2210188   1.029   3.710   6.644  0.6153  0.0352 -0.3546
  101SAPE   H2R10189   1.033   3.681   6.537 -0.8475 -1.4043 -0.0515
  101SAPE   H2S10190   0.925   3.745   6.662  0.2118 -0.3553 -1.8236
  101SAPE    C310191   0.873   3.262   6.647  0.3267 -0.3167 -0.7698
  101SAPE    HX10192   0.763   3.278   6.651  0.4404  1.3043 -2.7699
  101SAPE    HY10193   0.880   3.156   6.680  0.4521 -0.5233 -1.4331
  101SAPE   O3110194   0.916   3.268   6.509 -0.3884  0.4843 -0.7323
  101SAPE   C3110195   0.835   3.341   6.426  0.4167 -0.4542  0.0576
  101SAPE   O3210196   0.733   3.397   6.463  0.5046  0.1598  0.1311
  101SAPE   C3210197   0.887   3.343   6.282  0.0247 -0.2207 -0.2078
  101SAPE   H2X10198   0.923   3.240   6.263  1.3909  0.3925 -1.0984
  101SAPE   H2Y10199   0.970   3.415   6.262 -1.7010  1.6175 -1.1433
  101SAPE   C2310200   1.131   3.822   6.683 -0.3109 -0.2041 -0.3231
  101SAPE   H3R10201   1.235   3.782   6.685 -1.4278 -3.4110  2.2877
  101SAPE   H3S10202   1.105   3.841   6.790 -3.9325  0.1231 -1.1509
  101SAPE   C2410203   1.120   3.949   6.590  0.0217  0.5449 -0.4849
  101SAPE   H4R10204   1.134   3.916   6.485  0.9143  1.0389 -0.5303
  101SAPE   H4S10205   1.209   4.010   6.619 -1.3577  1.7654  1.3629
  101SAPE   C2510206   0.993   4.029   6.618 -0.5950 -0.3491  0.1764
  101SAPE   H5R10207   1.011   4.066   6.720  0.7857 -2.2400  0.6896
  101SAPE   C2610208   0.901   4.066   6.528 -0.0630 -0.6713 -0.2871
  101SAPE   H6R10209   0.808   4.114   6.562  0.1176 -2.2802  2.8793
  101SAPE   C2710210   0.893   4.025   6.390  0.1718  0.2432 -0.2235
  101SAPE   H7R10211   0.994   4.041   6.346 -0.7643  1.2049 -2.1476
  101SAPE   H7S10212   0.832   4.099   6.334  0.4974  0.1071 -0.7634
  101SAPE   C2810213   0.844   3.880   6.376 -0.3624  0.5807  0.0194
  101SAPE   H8R10214   0.804   3.827   6.464 -0.1613  1.6445  0.7685
  101SAPE   C2910215   0.845   3.812   6.259 -0.3622  0.4289 -0.1961
  101SAPE   H9R10216   0.809   3.709   6.255 -0.8984  0.6594 -1.9897
  101SAPE  C21010217   0.911   3.866   6.131 -0.2281  0.6862 -0.2143
  101SAPE  H10R10218   0.879   3.973   6.132 -2.7598 -0.0017  0.3027
  101SAPE  H10S10219   0.860   3.825   6.041 -1.8520  1.6818  0.2050
  101SAPE  C21110220   1.061   3.858   6.117  0.2582 -0.1775 -0.1648
  101SAPE  H11R10221   1.109   3.780   6.177  1.4732  2.9004  3.2301
  101SAPE  C21210222   1.126   3.939   6.030 -0.4764 -0.3400 -0.7920
  101SAPE  H12R10223   1.233   3.928   6.007 -0.0679  0.3002  0.7207
  101SAPE  C21310224   1.067   4.038   5.929  0.0111 -0.3852 -0.6491
  101SAPE  H13R10225   0.958   4.018   5.934 -0.0113  0.0681  2.4637
  101SAPE  H13S10226   1.102   4.012   5.826 -1.3905 -1.6671 -0.8449
  101SAPE  C21410227   1.084   4.177   5.969  0.6415  0.7811  0.0464
  101SAPE  H14R10228   1.045   4.197   6.069  0.4869  2.0467 -0.2558
  101SAPE  C21510229   1.126   4.276   5.891  0.1821  0.2718 -0.5310
  101SAPE  H15R10230   1.129   4.378   5.933  1.2949  0.3033 -0.6617
  101SAPE  C21610231   1.175   4.263   5.746  0.4200  0.5460 -0.9702
  101SAPE  H16R10232   1.111   4.195   5.687  1.4369 -2.9408  1.5880
  101SAPE  H16S10233   1.279   4.224   5.737  1.1205  2.2993 -1.0205
  101SAPE  C21710234   1.176   4.398   5.677  0.5396 -0.7629  0.0591
  101SAPE  H17R10235   1.268   4.455   5.703 -0.2470  0.8772 -0.6018
  101SAPE  H17S10236   1.082   4.453   5.698  1.4393 -0.0986  2.6804
  101SAPE  C21810237   1.203   4.384   5.528  0.3280 -0.0806  0.0295
  101SAPE  H18R10238   1.132   4.316   5.476  2.5148 -2.1060 -0.4983
  101SAPE  H18S10239   1.304   4.340   5.526  0.5259  0.3742 -0.0937
  101SAPE  C21910240   1.204   4.512   5.449  0.1029  1.0676 -0.1222
  101SAPE  H19R10241   1.278   4.579   5.499  1.6165 -0.3472 -0.4204
  101SAPE  H19S10242   1.101   4.555   5.450 -0.8260 -0.9760  1.5909
  101SAPE  C22010243   1.253   4.495   5.303 -0.7093  1.0352 -0.5313
  101SAPE  H20R10244   1.277   4.590   5.251  1.5369  0.7464 -0.1246
  101SAPE  H20S10245   1.185   4.425   5.250 -1.2995  0.5748  0.7860
  101SAPE  H20T10246   1.352   4.444   5.304 -0.9864  0.4745  1.0752
  101SAPE   C3310247   0.766   3.377   6.188 -0.7380  0.0622  1.1378
  101SAPE   H3X10248   0.741   3.486   6.183 -1.1930 -0.0953 -0.7230
  101SAPE   H3Y10249   0.678   3.314   6.212  0.2310 -2.0629 -0.5449
  101SAPE   C3410250   0.786   3.340   6.038  0.2145  0.2717 -0.2521
  101SAPE   H4X10251   0.801   3.230   6.028  0.2066  0.3384 -1.1024
  101SAPE   H4Y10252   0.877   3.393   6.003 -0.0563  0.7649 -0.2138
  101SAPE   C3510253   0.668   3.366   5.947  0.6779 -0.7920  0.1402
  101SAPE   H5X10254   0.638   3.470   5.969  0.0815 -0.7477 -0.8125
  101SAPE   H5Y10255   0.577   3.303   5.962  0.3547 -0.9404 -2.0575
  101SAPE   C3610256   0.708   3.343   5.796  0.5215 -0.2114 -0.2384
  101SAPE   H6X10257   0.788   3.411   5.760 -0.9283  1.4919 -0.3823
  101SAPE   H6Y10258   0.617   3.376   5.742 -0.3323 -1.3554  0.4416
  101SAPE   C3710259   0.731   3.196   5.771  0.6360  0.1860  0.1438
  101SAPE   H7X10260   0.645   3.144   5.820 -0.8010  0.0991 -2.2837
  101SAPE   H7Y10261   0.817   3.170   5.836 -1.1792  1.1956  3.1594
  101SAPE   C3810262   0.739   3.169   5.623 -0.7603 -0.0341  0.8807
  101SAPE   H8X10263   0.835   3.216   5.589 -1.4996  1.1629  0.3806
  101SAPE   H8Y10264   0.655   3.224   5.576 -1.3327 -0.8868  0.8861
  101SAPE   C3910265   0.741   3.020   5.579  0.3823  0.0174  0.8985
  101SAPE   H9X10266   0.644   2.984   5.620  0.3745 -0.4785  0.4458
  101SAPE   H9Y10267   0.818   2.954   5.624  1.2937  0.6717  0.3100
  101SAPE  C31010268   0.723   2.993   5.434 -0.3858  0.1357  0.6506
  101SAPE  H10X10269   0.635   3.045   5.392  1.5944  2.9561 -0.3499
  101SAPE  H10Y10270   0.716   2.884   5.411 -0.1439  0.8650 -3.6449
  101SAPE  C31110271   0.828   3.057   5.353 -0.3398  0.2363 -0.5475
  101SAPE  H11X10272   0.930   3.038   5.393 -0.6704 -2.8661 -0.8847
  101SAPE  H11Y10273   0.813   3.166   5.361 -1.5656 -0.0325  1.2607
  101SAPE  C31210274   0.814   3.033   5.204  0.4229  0.5575 -0.1133
  101SAPE  H12X10275   0.864   3.116   5.151  1.8701 -0.4733 -0.4134
  101SAPE  H12Y10276   0.704   3.036   5.186 -0.2882  3.9317  3.4658
  101SAPE  C31310277   0.858   2.902   5.142  0.8738  0.5725  0.1890
  101SAPE  H13X10278   0.801   2.817   5.186 -0.5258  0.3403 -1.9217
  101SAPE  H13Y10279   0.966   2.881   5.161 -0.2939 -3.0879  4.8595
  101SAPE  C31410280   0.834   2.899   4.986  1.1694  0.2828 -0.8227
  101SAPE  H14X10281   0.882   2.990   4.944  1.7610  0.3517 -0.0211
  101SAPE  H14Y10282   0.725   2.902   4.965  0.9680 -0.4533  0.0460
  101SAPE  C31510283   0.869   2.761   4.932  0.2097  0.1849  0.1870
  101SAPE  H15X10284   0.837   2.753   4.826  3.3870  0.1940 -0.8923
  101SAPE  H15Y10285   0.823   2.683   4.996  2.0648  0.2797  1.7258
  101SAPE  C31610286   1.020   2.719   4.925  1.1625  0.3893  0.1799
  101SAPE  H16X10287   1.072   2.690   5.019 -2.4169 -1.5074  1.7592
  101SAPE  H16Y10288   1.061   2.814   4.884  0.3310  0.7234  0.0991
  101SAPE  C31710289   1.037   2.602   4.835  0.2181 -0.1779  0.9778
  101SAPE  H17X10290   1.120   2.618   4.762  0.3941 -0.5261  1.0992
  101SAPE  H17Y10291   0.940   2.594   4.782  1.6955 -1.7952 -1.7448
  101SAPE  C31810292   1.054   2.471   4.905  0.1589 -0.1598 -0.9832
  101SAPE  H18X10293   1.056   2.383   4.837 -3.0872  0.4005 -1.9734
  101SAPE  H18Y10294   0.977   2.457   4.984 -0.6439 -0.1671 -1.7514
  101SAPE  H18Z10295   1.153   2.473   4.956 -0.2644  0.3674 -0.1765
  102SAPE     N10296   1.183   4.005   7.446  1.1340  0.0673 -0.3760
  102SAPE   HN110297   1.281   4.001   7.478  0.9517 -0.0670  0.1745
  102SAPE   HN210298   1.135   4.089   7.483  0.0136  0.0940 -1.8050
  102SAPE   HN310299   1.139   3.924   7.494  0.8362  0.0560 -0.6649
  102SAPE   C1210300   1.155   3.994   7.299  0.3216 -0.3845  0.4201
  102SAPE  H12A10301   1.178   4.088   7.245 -0.5824  0.8328  2.0707
  102SAPE  H12B10302   1.046   3.976   7.284  0.6509 -0.5115 -2.4672
  102SAPE   C1110303   1.235   3.883   7.231 -0.4308 -0.2335  0.2214
  102SAPE  H11A10304   1.207   3.876   7.124 -1.2778 -0.4877  0.4586
  102SAPE  H11B10305   1.213   3.789   7.285 -1.3345 -0.7403 -0.9935
  102SAPE     P10306   1.501   3.821   7.199  0.7003  0.1951  0.1497
  102SAPE   O1310307   1.619   3.901   7.174 -0.5517 -0.2654  0.5293
  102SAPE   O1410308   1.517   3.705   7.297  0.4428  0.2858 -0.0872
  102SAPE   O1210309   1.377   3.913   7.247  0.0021 -0.3011  0.1244
  102SAPE   O1110310   1.451   3.764   7.059  0.3208  0.6324  0.3523
  102SAPE    C110311   1.420   3.845   6.946  0.2670 -0.2642 -0.3509
  102SAPE    HA10312   1.337   3.804   6.885 -1.2036  1.9059  0.0805
  102SAPE    HB10313   1.372   3.942   6.970  1.6122  0.1170  0.9357
  102SAPE    C210314   1.545   3.859   6.864  0.3289 -0.3396  0.0682
  102SAPE    HS10315   1.627   3.902   6.924 -0.0157  1.4000 -0.6306
  102SAPE   O2110316   1.514   3.956   6.762 -0.2966  0.1064 -0.1612
  102SAPE   C2110317   1.626   4.008   6.712 -0.3166 -0.1815  0.0433
  102SAPE   O2210318   1.741   3.995   6.749 -0.5577  0.4244 -0.2071
  102SAPE   C2210319   1.603   4.101   6.595 -0.3137  0.6383 -0.1848
  102SAPE   H2R10320   1.494   4.100   6.571 -0.0079 -0.5607 -1.6632
  102SAPE   H2S10321   1.635   4.201   6.633  1.7073  0.2645 -0.8275
  102SAPE    C310322   1.582   3.720   6.802  0.5496 -0.2791 -0.7733
  102SAPE    HX10323   1.567   3.648   6.885  2.0034 -0.0159 -0.2533
  102SAPE    HY10324   1.691   3.716   6.785  1.2255 -0.8694  2.8643
  102SAPE   O3110325   1.502   3.677   6.686 -0.2302  0.7372  0.1241
  102SAPE   C3110326   1.458   3.551   6.692 -0.4368  0.6837  0.2672
  102SAPE   O3210327   1.468   3.471   6.788 -0.5057 -0.4240 -0.5790
  102SAPE   C3210328   1.402   3.516   6.548 -0.0537  0.8545  0.7312
  102SAPE   H2X10329   1.484   3.525   6.474 -1.8149 -3.8541 -2.2545
  102SAPE   H2Y10330   1.324   3.595   6.547 -2.3030 -1.1711  2.8537
  102SAPE   C2310331   1.697   4.043   6.477 -0.4468 -0.1063  0.1802
  102SAPE   H3R10332   1.803   4.042   6.511  0.5855 -2.2079 -2.6415
  102SAPE   H3S10333   1.695   4.118   6.395  0.2287  1.5520  1.6255
  102SAPE   C2410334   1.654   3.894   6.441  0.2782  0.0005  0.4126
  102SAPE   H4R10335   1.693   3.831   6.524  0.1579 -2.5374 -1.3568
  102SAPE   H4S10336   1.709   3.858   6.352 -2.8210 -0.5275 -1.4286
  102SAPE   C2510337   1.502   3.868   6.426 -0.0122 -0.4059 -0.2322
  102SAPE   H5R10338   1.443   3.841   6.515 -0.7995 -0.2962 -0.7139
  102SAPE   C2610339   1.446   3.851   6.305  0.4586  0.5922  0.2960
  102SAPE   H6R10340   1.344   3.812   6.296  0.2280  0.6302  2.4117
  102SAPE   C2710341   1.513   3.868   6.171 -0.2028 -0.3377 -0.4207
  102SAPE   H7R10342   1.616   3.908   6.183 -0.6553  1.0702 -0.9868
  102SAPE   H7S10343   1.451   3.943   6.117 -2.2732 -0.2335  1.9688
  102SAPE   C2810344   1.525   3.742   6.081 -0.0789  0.1095  0.2249
  102SAPE   H8R10345   1.550   3.659   6.149  1.0787  1.3359  1.3482
  102SAPE   C2910346   1.507   3.713   5.951 -0.1731 -0.3762 -0.1875
  102SAPE   H9R10347   1.519   3.613   5.907  2.0515  0.2396 -1.1118
  102SAPE  C21010348   1.463   3.813   5.842  0.1199  0.8972  0.3126
  102SAPE  H10R10349   1.487   3.918   5.868 -0.3338  0.8072  1.1309
  102SAPE  H10S10350   1.352   3.812   5.831  0.2207  0.5950 -0.8186
  102SAPE  C21110351   1.532   3.765   5.713  0.0324  0.2528 -0.5721
  102SAPE  H11R10352   1.634   3.725   5.717 -0.4808 -1.6547 -3.2526
  102SAPE  C21210353   1.471   3.774   5.589 -0.4246 -0.2317  0.3044
  102SAPE  H12R10354   1.535   3.739   5.507  1.9967 -0.8567  2.3262
  102SAPE  C21310355   1.338   3.833   5.548 -0.4063 -0.3251 -0.1664
  102SAPE  H13R10356   1.264   3.809   5.627 -1.3132  0.3795 -0.7934
  102SAPE  H13S10357   1.302   3.783   5.456  1.3145  0.5465 -1.3884
  102SAPE  C21410358   1.319   3.978   5.519 -0.2938  0.2747  0.4902
  102SAPE  H14R10359   1.273   4.043   5.594  1.3840  0.7593  1.1581
  102SAPE  C21510360   1.370   4.044   5.417 -0.6376  0.2212 -0.0302
  102SAPE  H15R10361   1.370   4.153   5.407  1.9278  0.2663 -0.0236
  102SAPE  C21610362   1.444   3.988   5.300 -0.5003  1.2281 -0.2067
  102SAPE  H16R10363   1.455   3.878   5.308 -0.3608  1.1772 -0.9678
  102SAPE  H16S10364   1.546   4.032   5.290  0.5674 -1.2271 -0.6473
  102SAPE  C21710365   1.372   4.002   5.166  0.1241 -0.1191  0.0207
  102SAPE  H17R10366   1.432   3.962   5.082  0.4883  0.8315 -0.1835
  102SAPE  H17S10367   1.351   4.109   5.143 -0.8202 -0.2314  0.3126
  102SAPE  C21810368   1.231   3.941   5.167 -0.2430 -0.3018 -0.3310
  102SAPE  H18R10369   1.162   3.986   5.241 -0.3009 -0.5457 -0.2355
  102SAPE  H18S10370   1.238   3.840   5.213  1.2976  0.9546  2.4312
  102SAPE  C21910371   1.168   3.961   5.020 -0.0173  0.8785  0.4360
  102SAPE  H19R10372   1.077   3.898   5.020  0.1057  0.6420  2.2589
  102SAPE  H19S10373   1.239   3.916   4.948 -1.2455  1.0789 -0.9464
  102SAPE  C22010374   1.139   4.099   4.969 -0.6991 -0.1936  0.1091
  102SAPE  H20R10375   1.211   4.184   4.979  1.0712 -1.4574 -1.2453
  102SAPE  H20S10376   1.052   4.125   5.032 -0.9095 -1.8678  0.5305
  102SAPE  H20T10377   1.100   4.107   4.865 -2.0070  1.1593  0.6698
  102SAPE   C3310378   1.331   3.382   6.525 -0.5779 -0.2038  0.0601
  102SAPE   H3X10379   1.222   3.387   6.546 -0.9908  1.2870 -2.0500
  102SAPE   H3Y10380   1.375   3.303   6.589  0.3729  0.2723  0.0160
  102SAPE   C3410381   1.334   3.333   6.380 -0.6850 -0.2128  1.1161
  102SAPE   H4X10382   1.246   3.269   6.358  0.2501 -1.2138  0.1645
  102SAPE   H4Y10383   1.427   3.276   6.356 -1.0746 -0.3230 -0.2484
  102SAPE   C3510384   1.302   3.451   6.284 -0.2424  0.0269 -0.2828
  102SAPE   H5X10385   1.389   3.521   6.279  1.5366 -2.1214 -0.6467
  102SAPE   H5Y10386   1.209   3.498   6.322 -0.3939 -0.0710 -0.5277
  102SAPE   C3610387   1.279   3.419   6.135 -0.4339 -0.7076  0.2966
  102SAPE   H6X10388   1.208   3.335   6.127 -0.1844 -0.7746 -1.7143
  102SAPE   H6Y10389   1.370   3.400   6.073 -1.7013  0.4911 -2.0651
  102SAPE   C3710390   1.216   3.539   6.060 -0.1844 -0.5288 -0.5265
  102SAPE   H7X10391   1.284   3.625   6.076 -0.9588  0.2875 -1.5084
  102SAPE   H7Y10392   1.117   3.565   6.102 -0.7534  0.1495 -2.1899
  102SAPE   C3810393   1.188   3.512   5.912 -0.5995 -0.8109 -0.2307
  102SAPE   H8X10394   1.131   3.417   5.920  0.0866 -1.0777  3.8505
  102SAPE   H8Y10395   1.284   3.495   5.859 -0.4464 -1.1096  0.1353
  102SAPE   C3910396   1.115   3.629   5.839 -0.1396  0.8976  0.1401
  102SAPE   H9X10397   1.182   3.718   5.841  0.6911  0.2892  0.3739
  102SAPE   H9Y10398   1.026   3.654   5.899 -0.6471 -0.0141 -0.2124
  102SAPE  C31010399   1.059   3.592   5.704 -0.2626  0.6399  0.9759
  102SAPE  H10X10400   1.015   3.490   5.712  0.8162 -0.0881 -1.4252
  102SAPE  H10Y10401   1.146   3.582   5.636  0.7509 -0.5249  2.3730
  102SAPE  C31110402   0.942   3.685   5.661 -0.0229 -0.1441 -0.1756
  102SAPE  H11X10403   0.972   3.792   5.655 -1.6307  0.3704  0.4906
  102SAPE  H11Y10404   0.864   3.673   5.739 -0.8286  0.6648 -0.8349
  102SAPE  C31210405   0.877   3.636   5.531 -0.4235  0.1254  0.2098
  102SAPE  H12X10406   0.781   3.686   5.505  0.3964  1.1448 -1.0139
  102SAPE  H12Y10407   0.864   3.527   5.547 -1.2246  0.4202  1.7422
  102SAPE  C31310408   0.970   3.656   5.406 -0.1798 -0.0068 -0.3314
  102SAPE  H13X10409   1.062   3.593   5.412 -0.4740 -0.6038 -1.7321
  102SAPE  H13Y10410   1.015   3.757   5.396  0.7768 -0.5221 -1.4897
  102SAPE  C31410411   0.905   3.617   5.279  0.2934 -0.0295 -0.5053
  102SAPE  H14X10412   0.824   3.691   5.259  2.7075  3.2331  0.8733
  102SAPE  H14Y10413   0.868   3.513   5.292 -1.1115  0.2894 -1.7040
  102SAPE  C31510414   0.996   3.611   5.158 -0.3645  0.1861 -0.2696
  102SAPE  H15X10415   1.091   3.556   5.179 -0.5313  0.5710  1.7550
  102SAPE  H15Y10416   1.022   3.710   5.115 -0.8990  0.0534 -0.8988
  102SAPE  C31610417   0.940   3.528   5.044  0.1428 -0.2964  0.3935
  102SAPE  H16X10418   0.845   3.574   5.008 -0.3453 -1.3619  0.2706
  102SAPE  H16Y10419   0.912   3.427   5.081  1.5870 -1.2601 -1.0465
  102SAPE  C31710420   1.040   3.519   4.928  0.5582 -0.2834 -0.7775
  102SAPE  H17X10421   1.006   3.434   4.864 -0.6859 -0.7872  0.4996
  102SAPE  H17Y10422   1.134   3.474   4.967 -0.0828 -0.5874  0.4438
  102SAPE  C31810423   1.070   3.646   4.856 -0.6131  0.0676 -0.0092
  102SAPE  H18X10424   1.118   3.625   4.758 -1.5398 -0.0963 -0.4336
  102SAPE  H18Y10425   1.157   3.693   4.907 -0.6772  1.8752 -1.4598
  102SAPE  H18Z10426   0.999   3.731   4.862  0.8745  1.3325  0.4663
  103SAPE     N10427   6.208   6.489   2.216 -0.6533 -0.7563 -0.6109
  103SAPE   HN110428   6.174   6.548   2.137  0.6485  2.1849  0.8697
  103SAPE   HN210429   6.226   6.550   2.298  0.2449 -1.0318 -0.5981
  103SAPE   HN310430   6.298   6.451   2.182  0.5254  1.1324  0.2371
  103SAPE   C1210431   6.118   6.387   2.268 -0.7545  0.4734 -0.3761
  103SAPE  H12A10432   6.173   6.317   2.335 -1.1557 -0.7465 -1.2942
  103SAPE  H12B10433   6.071   6.333   2.183  0.0307  0.6734 -0.9548
  103SAPE   C1110434   6.003   6.456   2.341 -0.4136 -0.1630  0.1372
  103SAPE  H11A10435   6.036   6.497   2.439  0.2591 -0.6679  0.1320
  103SAPE  H11B10436   5.943   6.374   2.385  0.8604 -0.8004  0.7627
  103SAPE     P10437   5.777   6.580   2.256 -0.0704 -0.3972 -0.1113
  103SAPE   O1310438   5.745   6.687   2.157 -0.6187 -0.2341  0.5322
  103SAPE   O1410439   5.710   6.453   2.239  0.3873 -0.1732  0.0033
  103SAPE   O1210440   5.934   6.551   2.255  0.2077 -0.3848 -0.2994
  103SAPE   O1110441   5.735   6.628   2.402  0.1806  0.1855 -0.3642
  103SAPE    C110442   5.771   6.755   2.453 -0.2634 -0.8298  0.3857
  103SAPE    HA10443   5.850   6.813   2.400 -0.8631 -0.8635 -0.5846
  103SAPE    HB10444   5.684   6.824   2.445  0.9787  1.1751  2.7206
  103SAPE    C210445   5.827   6.741   2.601  0.1236 -0.2450  0.3484
  103SAPE    HS10446   5.917   6.675   2.597 -0.1173 -0.6372  1.1447
  103SAPE   O2110447   5.726   6.684   2.687  0.2310  0.2563 -0.1513
  103SAPE   C2110448   5.757   6.573   2.753  0.7346  0.1469  0.4984
  103SAPE   O2210449   5.870   6.527   2.767  0.2527 -0.3515  0.0048
  103SAPE   C2210450   5.634   6.509   2.820  0.3085 -0.4653 -0.6341
  103SAPE   H2R10451   5.604   6.580   2.900  2.1431  1.7741 -1.8076
  103SAPE   H2S10452   5.553   6.506   2.744 -0.7256  1.9318  0.2726
  103SAPE    C310453   5.871   6.879   2.666  0.0535 -0.5070  0.2466
  103SAPE    HX10454   5.778   6.937   2.648  0.9710  1.0370  0.3374
  103SAPE    HY10455   5.951   6.938   2.616  0.8642 -0.5500  1.4635
  103SAPE   O3110456   5.878   6.881   2.814  0.1393  0.2357 -0.5795
  103SAPE   C3110457   5.995   6.844   2.855 -0.1899  0.5337  0.2264
  103SAPE   O3210458   6.092   6.828   2.781 -0.6001  0.2025 -0.7342
  103SAPE   C3210459   5.983   6.804   3.003  0.2985  0.0667  0.0224
  103SAPE   H2X10460   5.891   6.742   3.006  1.2293 -1.3352  2.1003
  103SAPE   H2Y10461   5.982   6.894   3.068  1.4623  1.2123 -1.4843
  103SAPE   C2310462   5.660   6.379   2.894  0.6386 -0.0806 -0.1898
  103SAPE   H3R10463   5.759   6.376   2.944  1.3099 -0.7773 -1.4992
  103SAPE   H3S10464   5.673   6.314   2.805  1.7953 -0.5570  0.3015
  103SAPE   C2410465   5.547   6.332   2.981  0.1409  0.1802  0.1373
  103SAPE   H4R10466   5.553   6.400   3.069  2.4367  1.8909 -1.2087
  103SAPE   H4S10467   5.578   6.237   3.029  0.9137  0.4821  0.2469
  103SAPE   C2510468   5.410   6.325   2.925 -0.9436  0.1560 -1.5267
  103SAPE   H5R10469   5.408   6.252   2.843  1.9294 -1.4760 -0.2955
  103SAPE   C2610470   5.292   6.376   2.965  0.1646 -0.3265  0.2506
  103SAPE   H6R10471   5.209   6.368   2.893  0.8557 -2.0674 -0.4079
  103SAPE   C2710472   5.256   6.460   3.089 -0.3934  0.1558  0.2417
  103SAPE   H7R10473   5.333   6.434   3.165  0.7764 -2.8510 -1.7851
  103SAPE   H7S10474   5.161   6.437   3.143 -1.1455  0.8346 -0.7557
  103SAPE   C2810475   5.278   6.609   3.057  0.1649 -0.5051  0.0799
  103SAPE   H8R10476   5.326   6.625   2.960  1.2963 -1.3718  0.4754
  103SAPE   C2910477   5.225   6.714   3.127  0.5377 -0.1645 -0.7331
  103SAPE   H9R10478   5.270   6.814   3.111  1.3387 -0.7603 -2.5535
  103SAPE  C21010479   5.159   6.692   3.266 -0.3701  0.4394 -0.5727
  103SAPE  H10R10480   5.195   6.596   3.310  1.2727  1.1729 -0.2626
  103SAPE  H10S10481   5.055   6.653   3.260  0.1737 -0.9119 -1.8523
  103SAPE  C21110482   5.167   6.815   3.360  0.6933  0.2420 -0.2050
  103SAPE  H11R10483   5.102   6.899   3.333  1.7710  0.7607 -1.2573
  103SAPE  C21210484   5.249   6.818   3.466  0.2824 -0.1138  0.2667
  103SAPE  H12R10485   5.260   6.912   3.522  0.1781 -0.8108  1.5010
  103SAPE  C21310486   5.341   6.715   3.515 -0.1405  0.9252  0.2454
  103SAPE  H13R10487   5.444   6.754   3.527 -0.1533  0.9034  0.4273
  103SAPE  H13S10488   5.353   6.641   3.432  0.7604 -0.4240  1.5340
  103SAPE  C21410489   5.320   6.634   3.637  0.1909 -0.1603  0.6000
  103SAPE  H14R10490   5.315   6.524   3.632 -1.1185 -0.0857 -0.4071
  103SAPE  C21510491   5.323   6.674   3.760  0.2255  0.4591 -0.6352
  103SAPE  H15R10492   5.296   6.606   3.842  1.3878  0.9924  0.2323
  103SAPE  C21610493   5.334   6.814   3.808  0.0603 -0.8724 -0.4566
  103SAPE  H16R10494   5.233   6.860   3.809  0.4729  0.1085 -1.5310
  103SAPE  H16S10495   5.385   6.870   3.727 -0.6155 -1.0588 -1.0157
  103SAPE  C21710496   5.421   6.819   3.933 -0.2693 -0.2691  0.2436
  103SAPE  H17R10497   5.460   6.920   3.955  1.7930 -1.1429  0.8661
  103SAPE  H17S10498   5.512   6.756   3.926  0.5732  0.8616  0.7541
  103SAPE  C21810499   5.338   6.777   4.055  0.0331 -0.3607  0.1539
  103SAPE  H18R10500   5.230   6.754   4.041  0.2076 -0.0757 -1.9791
  103SAPE  H18S10501   5.333   6.867   4.119 -1.2998 -1.2172  1.3240
  103SAPE  C21910502   5.397   6.665   4.136  0.2873  0.6122 -0.5993
  103SAPE  H19R10503   5.350   6.650   4.236 -0.4657  1.0756 -0.8705
  103SAPE  H19S10504   5.501   6.693   4.162  0.9486 -0.4157 -2.0192
  103SAPE  C22010505   5.418   6.527   4.066  0.0907 -0.0492 -0.1473
  103SAPE  H20R10506   5.315   6.502   4.032 -0.2177 -0.4944  1.0702
  103SAPE  H20S10507   5.453   6.446   4.132 -2.0940  1.0725  2.6168
  103SAPE  H20T10508   5.488   6.540   3.980  0.9975 -1.1066  0.4247
  103SAPE   C3310509   6.096   6.712   3.042  0.2940  0.0340  0.2173
  103SAPE   H3X10510   6.194   6.763   3.033  1.1408 -1.6570 -0.6469
  103SAPE   H3Y10511   6.091   6.634   2.963 -3.7969  1.1095 -0.8057
  103SAPE   C3410512   6.068   6.658   3.182  0.0513 -0.1023  0.3747
  103SAPE   H4X10513   5.970   6.607   3.175 -0.9599  1.9510 -2.4986
  103SAPE   H4Y10514   6.061   6.739   3.258  1.3193  0.6306 -0.2287
  103SAPE   C3510515   6.184   6.562   3.222  0.5098 -0.2497  0.1355
  103SAPE   H5X10516   6.274   6.583   3.160 -0.4956  0.3954 -1.1657
  103SAPE   H5Y10517   6.153   6.457   3.202 -0.2671 -0.2760  1.3955
  103SAPE   C3610518   6.224   6.580   3.366 -0.1264 -0.0221 -0.4840
  103SAPE   H6X10519   6.264   6.682   3.386  1.4236 -0.9236  1.3327
  103SAPE   H6Y10520   6.309   6.513   3.392  0.5349  1.0641  0.2265
  103SAPE   C3710521   6.113   6.541   3.467 -0.4691  0.3961  0.1207
  103SAPE   H7X10522   6.102   6.431   3.462  1.8078  0.1358 -0.0418
  103SAPE   H7Y10523   6.012   6.587   3.453 -1.1546 -1.7016 -2.7322
  103SAPE   C3810524   6.168   6.575   3.615  0.3902  0.3802  0.6296
  103SAPE   H8X10525   6.188   6.684   3.625 -1.1479  0.8110 -0.4995
  103SAPE   H8Y10526   6.268   6.528   3.626  2.6479  4.3630 -0.6941
  103SAPE   C3910527   6.087   6.524   3.735 -0.5222 -0.2501  0.5699
  103SAPE   H9X10528   6.066   6.416   3.718 -1.3576 -0.4141  2.3736
  103SAPE   H9Y10529   5.999   6.589   3.756  0.3313  2.2892 -2.8640
  103SAPE  C31010530   6.166   6.532   3.863  0.1816  0.1125  0.3840
  103SAPE  H10X10531   6.187   6.640   3.880 -0.2100  0.5697 -1.6813
  103SAPE  H10Y10532   6.265   6.489   3.838  0.2968  1.7603 -2.4165
  103SAPE  C31110533   6.086   6.472   3.983 -0.4027 -0.1253  0.5476
  103SAPE  H11X10534   6.075   6.362   3.970  0.0621 -0.0754 -0.2889
  103SAPE  H11Y10535   5.983   6.514   3.981 -0.2403  0.2643  0.0247
  103SAPE  C31210536   6.153   6.483   4.121 -0.0935 -0.7134  0.2776
  103SAPE  H12X10537   6.158   6.591   4.147 -0.0394 -1.0750  1.8774
  103SAPE  H12Y10538   6.255   6.439   4.120  0.7869  1.2091  0.9066
  103SAPE  C31310539   6.074   6.412   4.233  0.2548  0.0492 -0.3165
  103SAPE  H13X10540   6.140   6.401   4.322  2.1472  0.3369 -1.6063
  103SAPE  H13Y10541   6.059   6.308   4.197  1.7792  0.0063 -0.9425
  103SAPE  C31410542   5.943   6.491   4.276 -0.2766  0.2106 -0.1306
  103SAPE  H14X10543   5.875   6.414   4.319 -0.2665 -0.9644 -2.0798
  103SAPE  H14Y10544   5.886   6.523   4.186  0.1109 -0.6391 -0.6870
  103SAPE  C31510545   5.965   6.602   4.383 -0.9184  0.4418 -0.0346
  103SAPE  H15X10546   6.021   6.693   4.350  2.4466 -0.9973  1.2023
  103SAPE  H15Y10547   6.033   6.569   4.464  0.0759  1.1660 -0.5403
  103SAPE  C31610548   5.828   6.647   4.438  0.3303 -0.5803  0.9870
  103SAPE  H16X10549   5.766   6.678   4.352  2.4635 -2.7221 -1.5103
  103SAPE  H16Y10550   5.852   6.740   4.494 -2.1822  1.5159 -1.1522
  103SAPE  C31710551   5.754   6.552   4.533 -0.1774 -0.2962  0.0966
  103SAPE  H17X10552   5.811   6.543   4.628  1.5340  0.3761 -0.8193
  103SAPE  H17Y10553   5.744   6.449   4.491  3.2717 -0.1307 -1.5417
  103SAPE  C31810554   5.613   6.613   4.569 -0.0218  0.3220 -0.0892
  103SAPE  H18X10555   5.613   6.708   4.626 -0.4628 -1.4577  3.0979
  103SAPE  H18Y10556   5.553   6.540   4.628  1.2643  0.7596  1.8496
  103SAPE  H18Z10557   5.558   6.625   4.473 -2.0686 -0.5528  0.9243
  104SAPE     N10558   6.561   0.993   2.142 -0.2990 -0.6164  0.3108
  104SAPE   HN110559   6.665   0.997   2.139 -0.3081 -0.9651 -1.5899
  104SAPE   HN210560   6.517   0.905   2.108  0.0373 -1.7352  2.5754
  104SAPE   HN310561   6.529   1.069   2.079 -0.8405 -0.2922  0.9596
  104SAPE   C1210562   6.529   1.025   2.282  0.2379 -0.0542 -0.6121
  104SAPE  H12A10563   6.418   1.018   2.291  0.3040  1.7324  3.4274
  104SAPE  H12B10564   6.562   1.130   2.296 -1.7553  0.7147 -1.2692
  104SAPE   C1110565   6.596   0.930   2.378  0.0069 -0.6465  0.5354
  104SAPE  H11A10566   6.535   0.840   2.400  1.0089 -1.2356  0.9884
  104SAPE  H11B10567   6.591   0.991   2.472 -1.0621 -1.0891  0.7784
  104SAPE     P10568   6.854   0.917   2.443  0.0478  0.2646  0.2506
  104SAPE   O1310569   6.965   0.850   2.375 -0.2876 -0.2078 -0.1815
  104SAPE   O1410570   6.869   1.064   2.460  0.0637 -0.0352  0.3845
  104SAPE   O1210571   6.726   0.892   2.348 -0.1464  0.1308  0.4467
  104SAPE   O1110572   6.807   0.836   2.572 -0.0555 -0.1715 -0.0272
  104SAPE    C110573   6.879   0.853   2.690 -0.1430  0.5353  0.0208
  104SAPE    HA10574   6.984   0.883   2.668 -0.6666  1.3323 -1.5621
  104SAPE    HB10575   6.826   0.931   2.748 -0.5250  1.1238 -1.0946
  104SAPE    C210576   6.892   0.719   2.773  0.4716  0.3306 -1.2471
  104SAPE    HS10577   6.941   0.637   2.717 -2.0516 -3.4971  1.6478
  104SAPE   O2110578   6.750   0.686   2.801  0.3279 -0.3030  0.0485
  104SAPE   C2110579   6.737   0.559   2.836 -0.3880 -0.3242 -0.1427
  104SAPE   O2210580   6.829   0.476   2.834 -0.7360  0.1951 -0.4154
  104SAPE   C2210581   6.599   0.534   2.884  0.8105 -0.2724  0.3149
  104SAPE   H2R10582   6.556   0.634   2.909  2.8195  0.5546  0.6669
  104SAPE   H2S10583   6.547   0.491   2.796  3.1352 -1.4188 -0.5809
  104SAPE    C310584   6.977   0.742   2.912  0.1978  0.3126 -0.8649
  104SAPE    HX10585   6.921   0.817   2.972 -0.8468  0.0724 -1.5284
  104SAPE    HY10586   7.080   0.770   2.881  1.5732 -0.3564  2.5786
  104SAPE   O3110587   6.994   0.611   2.985  0.4148 -0.2124  0.1312
  104SAPE   C3110588   7.014   0.633   3.115  0.5948  0.8163  0.1935
  104SAPE   O3210589   7.044   0.733   3.172  0.2273 -0.4686 -0.2090
  104SAPE   C3210590   7.010   0.491   3.177  0.0400  0.3722 -0.5261
  104SAPE   H2X10591   7.036   0.423   3.093  0.2324  0.9884 -0.9691
  104SAPE   H2Y10592   6.907   0.471   3.212  0.1369 -1.3600 -1.0954
  104SAPE   C2310593   6.579   0.446   3.010 -0.7315 -0.2202  0.0640
  104SAPE   H3R10594   6.641   0.488   3.093  0.1891  0.2443 -0.8347
  104SAPE   H3S10595   6.615   0.343   2.987 -0.9893 -0.7143  1.7162
  104SAPE   C2410596   6.436   0.426   3.075  0.1335 -0.4737  0.3317
  104SAPE   H4R10597   6.387   0.524   3.096 -0.5366 -0.4357 -1.2802
  104SAPE   H4S10598   6.456   0.381   3.175 -1.1726 -1.3518  0.2134
  104SAPE   C2510599   6.347   0.343   2.987 -0.5276  0.1246 -0.1898
  104SAPE   H5R10600   6.338   0.359   2.878 -0.7545 -1.4140 -0.4204
  104SAPE   C2610601   6.261   0.254   3.030  0.2395 -0.2097 -0.1666
  104SAPE   H6R10602   6.213   0.189   2.955  0.6467 -0.9936  0.2273
  104SAPE   C2710603   6.229   0.217   3.171  0.2239  0.0427 -0.1898
  104SAPE   H7R10604   6.297   0.261   3.247 -0.9091  2.5620 -0.5328
  104SAPE   H7S10605   6.236   0.109   3.195  1.3039 -0.5402 -2.7967
  104SAPE   C2810606   6.094   0.280   3.191  0.9106  0.1272 -0.6986
  104SAPE   H8R10607   6.069   0.365   3.126 -1.0004 -1.1969 -1.7782
  104SAPE   C2910608   6.002   0.246   3.282 -0.3713  0.0342 -0.4494
  104SAPE   H9R10609   5.898   0.282   3.274 -1.6296 -3.3444 -1.0634
  104SAPE  C21010610   6.014   0.125   3.376  0.7078  0.5562 -0.2555
  104SAPE  H10R10611   6.066   0.040   3.327 -0.1376  0.4351 -0.9779
  104SAPE  H10S10612   5.916   0.091   3.415  1.0148  2.1816  2.1302
  104SAPE  C21110613   6.109   0.158   3.484  0.1266 -0.5178 -0.8924
  104SAPE  H11R10614   6.195   0.221   3.457  0.3849 -0.8471 -0.8319
  104SAPE  C21210615   6.111   0.113   3.609 -0.1937  0.0250  0.2636
  104SAPE  H12R10616   6.193   0.145   3.676 -0.4654 -0.0036  0.6135
  104SAPE  C21310617   6.009   0.020   3.675  0.4511 -0.1161 -0.1513
  104SAPE  H13R10618   6.060  -0.039   3.753 -0.8336  1.2273  1.7989
  104SAPE  H13S10619   5.961  -0.045   3.598  0.9731 -0.1889 -0.4157
  104SAPE  C21410620   5.886   0.088   3.733  0.1507 -0.0143 -0.4324
  104SAPE  H14R10621   5.842   0.154   3.657  3.0305  4.1676  1.1949
  104SAPE  C21510622   5.833   0.066   3.858 -0.6303 -0.7612  0.5331
  104SAPE  H15R10623   5.735   0.109   3.882 -0.6941 -1.3419  1.3581
  104SAPE  C21610624   5.895  -0.014   3.969  0.0402  0.2015  0.1468
  104SAPE  H16R10625   6.003  -0.022   3.944  0.3735 -2.0893  1.8969
  104SAPE  H16S10626   5.858  -0.118   3.982 -0.2153  0.1748 -0.7449
  104SAPE  C21710627   5.872   0.065   4.101  0.1889  0.3198  0.0100
  104SAPE  H17R10628   5.906   0.170   4.096 -0.0756  0.4330  0.5770
  104SAPE  H17S10629   5.931   0.011   4.178  1.4441 -1.8202 -2.2784
  104SAPE  C21810630   5.724   0.056   4.138  0.8626  0.3962  0.4461
  104SAPE  H18R10631   5.686  -0.048   4.138  1.8801  0.0166  0.5158
  104SAPE  H18S10632   5.655   0.106   4.066 -3.5140 -2.7578  2.0071
  104SAPE  C21910633   5.718   0.114   4.276  0.1315  0.3086 -0.1221
  104SAPE  H19R10634   5.751   0.220   4.273 -0.6683  0.6048  0.9653
  104SAPE  H19S10635   5.780   0.054   4.346  1.3028  1.0822 -0.4592
  104SAPE  C22010636   5.572   0.100   4.331  0.2029 -0.3201 -0.0568
  104SAPE  H20R10637   5.568   0.158   4.425 -0.0011 -0.8246  0.2531
  104SAPE  H20S10638   5.544  -0.005   4.357 -1.3696 -0.1616 -0.9880
  104SAPE  H20T10639   5.499   0.143   4.259 -0.8116 -0.0394  1.1022
  104SAPE   C3310640   7.112   0.481   3.291  0.0080  0.2816 -0.7641
  104SAPE   H3X10641   7.084   0.555   3.369  0.7312  0.4405 -0.6453
  104SAPE   H3Y10642   7.211   0.511   3.251 -0.7293  1.7465 -1.5823
  104SAPE   C3410643   7.115   0.347   3.352 -0.1505 -1.0035 -0.2756
  104SAPE   H4X10644   7.164   0.275   3.283  1.0830  0.0710 -0.5514
  104SAPE   H4Y10645   7.016   0.314   3.391 -0.6979  1.8773  1.0699
  104SAPE   C3510646   7.198   0.339   3.488 -0.5146  0.3572  0.2814
  104SAPE   H5X10647   7.174   0.420   3.560 -0.7133  1.5127 -1.0402
  104SAPE   H5Y10648   7.305   0.346   3.460 -0.7650 -0.0324 -0.8705
  104SAPE   C3610649   7.181   0.203   3.567  0.1087 -0.0490 -1.1812
  104SAPE   H6X10650   7.246   0.200   3.656  0.4476  1.2352 -1.3682
  104SAPE   H6Y10651   7.216   0.115   3.508  0.0839 -0.9466  0.1210
  104SAPE   C3710652   7.043   0.158   3.609 -0.1330  0.1040  0.0449
  104SAPE   H7X10653   7.053   0.066   3.670 -1.2080 -1.6320 -2.2551
  104SAPE   H7Y10654   6.973   0.138   3.526 -1.3849  0.1950  1.0376
  104SAPE   C3810655   6.975   0.267   3.705  0.2325 -0.1024 -0.2009
  104SAPE   H8X10656   6.883   0.214   3.739  0.7768 -1.2730 -0.4833
  104SAPE   H8Y10657   6.944   0.351   3.640 -1.1959  0.6034  1.3189
  104SAPE   C3910658   7.058   0.317   3.826 -0.8568  0.6189 -0.5924
  104SAPE   H9X10659   7.009   0.414   3.851 -3.1984 -0.2086 -1.6695
  104SAPE   H9Y10660   7.163   0.331   3.792 -0.1561 -0.1569  1.1500
  104SAPE  C31010661   7.059   0.229   3.954 -0.2250 -0.6023  0.7284
  104SAPE  H10X10662   7.129   0.285   4.020 -2.9211  0.6157  2.7651
  104SAPE  H10Y10663   7.106   0.129   3.941  0.4100 -0.3801  1.2387
  104SAPE  C31110664   6.925   0.226   4.031 -0.3031  0.1659  0.6540
  104SAPE  H11X10665   6.846   0.197   3.958 -0.0432 -6.0127  2.2527
  104SAPE  H11Y10666   6.911   0.330   4.066 -2.9755  0.1906 -0.2568
  104SAPE  C31210667   6.928   0.115   4.137  0.1568 -0.9990 -0.3991
  104SAPE  H12X10668   7.027   0.112   4.187  1.1398  2.3580 -1.8940
  104SAPE  H12Y10669   6.924   0.021   4.077 -1.0113 -0.0106 -1.9621
  104SAPE  C31310670   6.807   0.123   4.233 -0.3503  0.6914  0.5939
  104SAPE  H13X10671   6.804   0.017   4.266  2.1051  0.4554  0.2874
  104SAPE  H13Y10672   6.716   0.148   4.174 -0.3424  2.6226  1.3379
  104SAPE  C31410673   6.821   0.203   4.353 -0.1641  0.3338 -0.4539
  104SAPE  H14X10674   6.825   0.311   4.328 -1.3218  0.8042  1.2731
  104SAPE  H14Y10675   6.915   0.165   4.399 -0.2370  0.1455 -0.4562
  104SAPE  C31510676   6.701   0.185   4.447 -0.0285 -0.0370  0.6281
  104SAPE  H15X10677   6.664   0.081   4.431 -2.5958  0.6876  1.4502
  104SAPE  H15Y10678   6.625   0.250   4.399  1.5585  0.3919 -1.4429
  104SAPE  C31610679   6.715   0.211   4.598  0.5461 -0.3231  0.1188
  104SAPE  H16X10680   6.737   0.317   4.621 -1.5227 -0.0806  1.1716
  104SAPE  H16Y10681   6.798   0.145   4.634  0.2401 -1.3571 -1.0080
  104SAPE  C31710682   6.591   0.173   4.683  0.1180  0.2629 -0.0141
  104SAPE  H17X10683   6.579   0.065   4.658  2.1922 -0.3988  1.5566
  104SAPE  H17Y10684   6.510   0.242   4.651 -1.0344 -1.5995 -1.3499
  104SAPE  C31810685   6.615   0.172   4.828 -0.0776 -0.2659  0.4975
  104SAPE  H18X10686   6.704   0.110   4.852  1.0120 -0.7886 -3.9023
  104SAPE  H18Y10687   6.526   0.128   4.877 -0.4554  1.2604  1.2447
  104SAPE  H18Z10688   6.616   0.278   4.860  0.7012 -0.3002  0.6007
  105SAPE     N10689   0.972   0.268   2.740 -0.2682  0.3707 -0.3119
  105SAPE   HN110690   0.996   0.237   2.836 -0.4981  1.4652  0.1221
  105SAPE   HN210691   0.935   0.365   2.749 -1.9749 -0.1855 -0.8658
  105SAPE   HN310692   0.892   0.210   2.707  0.6806  0.1468 -2.4045
  105SAPE   C1210693   1.099   0.266   2.652 -0.1316  0.5231  0.0478
  105SAPE  H12A10694   1.178   0.321   2.707  0.8670 -2.3711  1.7436
  105SAPE  H12B10695   1.073   0.298   2.549 -0.4681 -1.6845 -0.6057
  105SAPE   C1110696   1.159   0.124   2.635 -0.0771 -0.2931 -0.7173
  105SAPE  H11A10697   1.182   0.081   2.735 -0.5226 -3.1102 -1.7504
  105SAPE  H11B10698   1.256   0.133   2.581  0.8244 -5.3270 -0.4192
  105SAPE     P10699   1.111  -0.115   2.542 -0.0427  0.1218  0.4661
  105SAPE   O1310700   1.001  -0.183   2.474 -0.8692  0.5998  0.1996
  105SAPE   O1410701   1.241  -0.111   2.470 -0.1757  0.3803 -0.2496
  105SAPE   O1210702   1.071   0.037   2.567  0.3025 -0.6247 -0.2649
  105SAPE   O1110703   1.131  -0.175   2.686 -0.0119  0.0285 -0.2101
  105SAPE    C110704   1.018  -0.195   2.779 -0.7181  0.2013  0.1510
  105SAPE    HA10705   0.954  -0.104   2.778  1.4993  1.8325 -1.6029
  105SAPE    HB10706   0.953  -0.280   2.747 -0.1213 -1.1211  2.2154
  105SAPE    C210707   1.064  -0.232   2.928  0.1075 -0.3576 -0.5579
  105SAPE    HS10708   1.052  -0.138   2.986  1.2375 -0.9463  0.6678
  105SAPE   O2110709   1.204  -0.268   2.916 -0.0200 -0.1677 -0.1985
  105SAPE   C2110710   1.291  -0.170   2.939  0.1730  0.5243  0.5224
  105SAPE   O2210711   1.267  -0.052   2.945 -0.0037 -0.1448  0.6180
  105SAPE   C2210712   1.429  -0.225   2.921  0.6436  0.0454  0.0255
  105SAPE   H2R10713   1.423  -0.331   2.954  1.6573  0.5531  1.9789
  105SAPE   H2S10714   1.440  -0.214   2.811 -0.0371 -0.2862 -0.0811
  105SAPE    C310715   0.971  -0.340   3.002  0.3961 -0.5252  0.1691
  105SAPE    HX10716   0.999  -0.435   2.954 -1.4349 -0.6951 -0.6564
  105SAPE    HY10717   0.867  -0.312   2.973  0.8053  0.8640 -0.0715
  105SAPE   O3110718   0.990  -0.321   3.149  0.2985  0.3324  0.1605
  105SAPE   C3110719   1.075  -0.410   3.200  0.1787  0.4461  0.0749
  105SAPE   O3210720   1.129  -0.501   3.138  0.5446 -0.5717 -0.1033
  105SAPE   C3210721   1.104  -0.372   3.355  0.3136 -0.6616 -0.2588
  105SAPE   H2X10722   1.130  -0.264   3.355  1.1182 -0.8147  1.9368
  105SAPE   H2Y10723   1.196  -0.418   3.397 -0.1979 -0.7781  0.7553
  105SAPE   C2310724   1.539  -0.145   2.988 -0.5035  0.5624 -0.7232
  105SAPE   H3R10725   1.550  -0.043   2.945  2.1865 -0.0737 -1.7762
  105SAPE   H3S10726   1.642  -0.186   2.975 -0.2789 -0.3575  2.9539
  105SAPE   C2410727   1.511  -0.127   3.141 -0.2919  0.0993 -0.5369
  105SAPE   H4R10728   1.459  -0.218   3.177 -1.3035  1.7100  2.4367
  105SAPE   H4S10729   1.446  -0.037   3.150  1.7661  1.5749  0.3618
  105SAPE   C2510730   1.622  -0.105   3.243  0.4584  0.0289  0.7621
  105SAPE   H5R10731   1.719  -0.069   3.205  1.0497  0.5724  2.6356
  105SAPE   C2610732   1.619  -0.109   3.379 -0.4224  0.3731  0.7373
  105SAPE   H6R10733   1.710  -0.087   3.436 -0.3264  1.6434  0.1296
  105SAPE   C2710734   1.495  -0.155   3.459 -0.4098 -0.7408  0.2945
  105SAPE   H7R10735   1.443  -0.229   3.393 -2.2414  1.4518 -0.8503
  105SAPE   H7S10736   1.426  -0.068   3.468 -0.4284 -0.4314 -2.0609
  105SAPE   C2810737   1.521  -0.219   3.590 -0.4402 -0.8719 -0.4442
  105SAPE   H8R10738   1.496  -0.326   3.593 -0.4466 -0.8572  0.1520
  105SAPE   C2910739   1.557  -0.163   3.707  0.2584  0.0317  0.2069
  105SAPE   H9R10740   1.566  -0.222   3.799  1.5126 -2.9284 -1.6470
  105SAPE  C21010741   1.594  -0.019   3.737  0.3973  0.2234 -0.3770
  105SAPE  H10R10742   1.657   0.016   3.652  1.9926  0.9005  1.0525
  105SAPE  H10S10743   1.652  -0.020   3.831  0.6000  1.6669 -0.4707
  105SAPE  C21110744   1.480   0.076   3.750 -0.8349  0.5775  0.2382
  105SAPE  H11R10745   1.378   0.037   3.736 -0.6042 -1.4660  3.2957
  105SAPE  C21210746   1.487   0.198   3.792 -0.2998 -0.3942 -0.6105
  105SAPE  H12R10747   1.398   0.262   3.800  1.9767  2.9368  0.6157
  105SAPE  C21310748   1.618   0.267   3.826  0.4111  1.3255 -0.1304
  105SAPE  H13R10749   1.653   0.313   3.731  0.1249 -0.6628 -1.2426
  105SAPE  H13S10750   1.693   0.192   3.860 -0.3107  0.3129 -0.7151
  105SAPE  C21410751   1.602   0.373   3.934  0.8270 -0.1573  0.6845
  105SAPE  H14R10752   1.496   0.387   3.962  0.6895 -1.9418  1.1867
  105SAPE  C21510753   1.697   0.419   4.015  0.6033  0.5408 -0.3463
  105SAPE  H15R10754   1.668   0.504   4.079  0.1769 -0.3688  0.7134
  105SAPE  C21610755   1.842   0.387   4.006 -0.4042 -1.2115  0.5360
  105SAPE  H16R10756   1.890   0.471   3.951 -0.3331 -1.1525  0.6869
  105SAPE  H16S10757   1.855   0.297   3.942 -1.8381 -0.6423 -0.6255
  105SAPE  C21710758   1.924   0.378   4.137 -0.6312  0.0833 -0.2889
  105SAPE  H17R10759   1.906   0.473   4.193  0.7043  0.3526 -0.3004
  105SAPE  H17S10760   2.034   0.383   4.123 -0.6591  0.3892 -0.4110
  105SAPE  C21810761   1.878   0.265   4.230 -0.0702  0.6293 -0.6332
  105SAPE  H18R10762   1.777   0.299   4.260  0.6336  1.4298  0.9734
  105SAPE  H18S10763   1.943   0.280   4.320 -1.7553  0.3825  0.6801
  105SAPE  C21910764   1.898   0.123   4.178 -1.2010  0.4364 -0.1453
  105SAPE  H19R10765   1.832   0.100   4.092 -1.9160 -3.2185  1.1643
  105SAPE  H19S10766   1.857   0.052   4.253  1.2881 -1.3394 -0.3023
  105SAPE  C22010767   2.046   0.085   4.146 -0.2766  0.6664  0.0857
  105SAPE  H20R10768   2.098   0.167   4.092 -1.7403  0.5213 -1.6294
  105SAPE  H20S10769   2.045  -0.009   4.087 -1.6300 -0.6373  2.0512
  105SAPE  H20T10770   2.100   0.084   4.243 -0.6039  1.9080  0.3047
  105SAPE   C3310771   0.978  -0.397   3.446 -0.2122 -0.0353 -0.2782
  105SAPE   H3X10772   0.952  -0.504   3.430 -0.5790  0.1497 -0.9323
  105SAPE   H3Y10773   0.895  -0.332   3.412 -1.3002 -0.7315  0.9424
  105SAPE   C3410774   1.016  -0.372   3.587  0.6593  0.3286 -0.5334
  105SAPE   H4X10775   0.928  -0.346   3.650  2.2419 -0.0287  2.0147
  105SAPE   H4Y10776   1.090  -0.290   3.604  1.6190 -0.6611  0.2567
  105SAPE   C3510777   1.093  -0.482   3.656 -0.5060 -0.0226 -0.1348
  105SAPE   H5X10778   1.194  -0.491   3.610 -1.1269 -0.5051 -1.4367
  105SAPE   H5Y10779   1.046  -0.579   3.630  2.2057 -2.0691  1.9335
  105SAPE   C3610780   1.107  -0.462   3.811  0.1144 -0.0481 -0.0810
  105SAPE   H6X10781   1.165  -0.370   3.831 -1.1388  0.4635  1.3283
  105SAPE   H6Y10782   1.164  -0.543   3.862 -2.2987 -0.9844  1.2959
  105SAPE   C3710783   0.981  -0.447   3.898  0.2131  0.7128  0.4769
  105SAPE   H7X10784   0.930  -0.546   3.900 -1.2548  1.4252 -0.2623
  105SAPE   H7Y10785   0.908  -0.377   3.853  2.2147  1.8722 -1.1352
  105SAPE   C3810786   1.023  -0.407   4.044 -0.0344 -0.4420 -0.1053
  105SAPE   H8X10787   1.112  -0.461   4.083 -0.5134  0.3558  2.2865
  105SAPE   H8Y10788   0.932  -0.420   4.107 -1.9018  0.4628 -2.4675
  105SAPE   C3910789   1.047  -0.252   4.048 -0.4538  0.6756 -0.3195
  105SAPE   H9X10790   0.951  -0.212   4.008  0.1692  0.9532 -1.5846
  105SAPE   H9Y10791   1.132  -0.224   3.983  0.3431  1.0732  0.8530
  105SAPE  C31010792   1.058  -0.188   4.190  0.3347  0.0848  0.2756
  105SAPE  H10X10793   1.099  -0.085   4.180  0.3613  0.3038  2.2536
  105SAPE  H10Y10794   1.143  -0.240   4.240  0.5187  1.5422  1.5612
  105SAPE  C31110795   0.928  -0.190   4.265 -0.0702 -1.0286  0.0365
  105SAPE  H11X10796   0.893  -0.295   4.268  1.1210 -1.4932 -1.1429
  105SAPE  H11Y10797   0.850  -0.130   4.214  2.5567  2.5896 -0.1158
  105SAPE  C31210798   0.937  -0.142   4.413 -0.3802  0.2057  0.2979
  105SAPE  H12X10799   0.957  -0.033   4.421 -0.6538  0.1544  1.9815
  105SAPE  H12Y10800   1.018  -0.204   4.457 -0.3974 -0.4840 -0.6192
  105SAPE  C31310801   0.802  -0.161   4.487 -0.4299 -0.0487 -0.8054
  105SAPE  H13X10802   0.808  -0.268   4.517 -0.2790 -0.1143 -1.0678
  105SAPE  H13Y10803   0.713  -0.156   4.419 -1.5767 -1.7333  0.4949
  105SAPE  C31410804   0.792  -0.084   4.615 -0.1452 -0.0862  0.0489
  105SAPE  H14X10805   0.791   0.027   4.609 -3.0426 -0.0267  0.0826
  105SAPE  H14Y10806   0.876  -0.123   4.676  0.2356 -1.0968 -1.0794
  105SAPE  C31510807   0.663  -0.115   4.698 -0.4101 -0.4045 -0.4803
  105SAPE  H15X10808   0.646  -0.224   4.710 -1.2114 -0.3161 -0.7503
  105SAPE  H15Y10809   0.578  -0.077   4.638 -2.9587 -1.3794  2.2948
  105SAPE  C31610810   0.675  -0.057   4.847 -0.5665  0.6333  0.4383
  105SAPE  H16X10811   0.703   0.050   4.832  0.8636 -0.0976 -3.2041
  105SAPE  H16Y10812   0.753  -0.107   4.908 -0.6390  0.9444  0.7945
  105SAPE  C31710813   0.539  -0.063   4.924 -0.5901  0.2625  0.5115
  105SAPE  H17X10814   0.457  -0.034   4.854  0.4229  0.2232 -0.7284
  105SAPE  H17Y10815   0.561   0.024   4.988  3.1307  2.3489 -3.1366
  105SAPE  C31810816   0.510  -0.185   5.011 -0.3809 -1.3300  0.3181
  105SAPE  H18X10817   0.504  -0.272   4.942  1.0030 -1.8140  0.7671
  105SAPE  H18Y10818   0.419  -0.178   5.073 -1.6591  0.8249 -1.6483
  105SAPE  H18Z10819   0.593  -0.196   5.085  0.5114  2.3415  0.0601
  106SAPE     N10820   2.615   2.084   2.000  0.0959  0.3460  0.1092
  106SAPE   HN110821   2.670   2.090   2.089 -1.0371  0.2174  0.8380
  106SAPE   HN210822   2.649   2.011   1.934  0.9676 -0.6408  1.5823
  106SAPE   HN310823   2.614   2.177   1.954  0.0565  0.5440  0.5067
  106SAPE   C1210824   2.480   2.038   2.037  0.1829  0.0395 -0.3704
  106SAPE  H12A10825   2.415   2.009   1.952 -1.1302  0.4120  0.4677
  106SAPE  H12B10826   2.431   2.120   2.095 -1.6871  0.6531 -2.6794
  106SAPE   C1110827   2.484   1.916   2.130 -0.2576  0.7915  0.4266
  106SAPE  H11A10828   2.534   1.833   2.075 -0.1927  0.4773  0.9521
  106SAPE  H11B10829   2.384   1.872   2.151  0.3651  0.2353  2.4313
  106SAPE     P10830   2.500   2.003   2.373 -0.2406 -0.0542  0.3041
  106SAPE   O1310831   2.615   2.056   2.454  0.2112  0.4686 -0.1129
  106SAPE   O1410832   2.397   2.103   2.336  0.2282  0.5920 -0.0479
  106SAPE   O1210833   2.563   1.944   2.240  0.4792 -0.9156 -0.7259
  106SAPE   O1110834   2.433   1.894   2.454  0.3428  0.0921 -0.2704
  106SAPE    C110835   2.311   1.900   2.540  0.1482 -0.4053  0.0514
  106SAPE    HA10836   2.230   1.951   2.484 -0.9276  0.5064  2.3008
  106SAPE    HB10837   2.279   1.794   2.551  0.6166 -0.6386 -0.7123
  106SAPE    C210838   2.315   1.974   2.678 -0.4034 -0.0471  0.3512
  106SAPE    HS10839   2.362   2.071   2.652  1.3394 -0.8329  0.4393
  106SAPE   O2110840   2.400   1.888   2.758 -0.1588 -0.0048  0.5548
  106SAPE   C2110841   2.505   1.947   2.818  0.7554  0.8176  0.0554
  106SAPE   O2210842   2.521   2.066   2.814 -0.3585  0.4518 -0.3062
  106SAPE   C2210843   2.591   1.849   2.892  0.1239  0.5664  0.1298
  106SAPE   H2R10844   2.623   1.775   2.815 -2.1649  0.0160 -0.3696
  106SAPE   H2S10845   2.678   1.901   2.938  2.1037 -0.9741 -1.6510
  106SAPE    C310846   2.185   2.004   2.753  0.5131  0.1912 -0.3011
  106SAPE    HX10847   2.131   1.907   2.764  0.7060  0.1417  0.2185
  106SAPE    HY10848   2.128   2.075   2.689  0.7641  0.9913  0.3458
  106SAPE   O3110849   2.216   2.063   2.883  0.4550 -0.1714  0.1876
  106SAPE   C3110850   2.250   2.193   2.877 -0.6387  0.3464 -0.4690
  106SAPE   O3210851   2.258   2.261   2.780  0.4919  0.0513 -0.0206
  106SAPE   C3210852   2.300   2.236   3.019  0.5364 -0.3992 -0.2481
  106SAPE   H2X10853   2.388   2.304   3.013  0.9657 -0.8977  0.2758
  106SAPE   H2Y10854   2.346   2.143   3.059  1.6816  0.2060 -0.1284
  106SAPE   C2310855   2.510   1.785   3.016  0.0097  0.6955 -0.1535
  106SAPE   H3R10856   2.577   1.711   3.064 -0.1627 -0.4228 -1.5866
  106SAPE   H3S10857   2.428   1.720   2.978  2.0807 -1.7541 -0.7433
  106SAPE   C2410858   2.459   1.888   3.126  0.2584 -0.8590  0.6070
  106SAPE   H4R10859   2.434   1.838   3.222 -1.0043 -1.3932  0.0249
  106SAPE   H4S10860   2.364   1.934   3.091  1.8915  0.7966 -1.9946
  106SAPE   C2510861   2.559   1.998   3.142 -1.0502  0.0846 -0.8301
  106SAPE   H5R10862   2.574   2.063   3.055  0.2511  0.7501 -0.1321
  106SAPE   C2610863   2.614   2.030   3.264 -0.0874  0.1080 -0.2271
  106SAPE   H6R10864   2.675   2.121   3.273  1.7594 -1.0972  0.1143
  106SAPE   C2710865   2.590   1.967   3.400  0.7881 -0.4348  0.1380
  106SAPE   H7R10866   2.482   1.942   3.404  0.6395  0.1287 -0.3152
  106SAPE   H7S10867   2.602   2.044   3.478 -0.6603  1.1316 -1.1009
  106SAPE   C2810868   2.676   1.845   3.433  0.2305 -0.4805  0.5709
  106SAPE   H8R10869   2.752   1.829   3.355 -0.2806 -0.8801  0.1482
  106SAPE   C2910870   2.678   1.770   3.543  0.3712  0.2502 -0.7099
  106SAPE   H9R10871   2.756   1.693   3.555  1.3063  1.2802  0.0499
  106SAPE  C21010872   2.575   1.785   3.659 -0.0282  0.1292 -0.4163
  106SAPE  H10R10873   2.575   1.894   3.684  2.3926  0.0641  0.1443
  106SAPE  H10S10874   2.618   1.745   3.753 -0.0303  0.5216 -0.2431
  106SAPE  C21110875   2.437   1.720   3.637 -0.3290 -0.0673 -0.5795
  106SAPE  H11R10876   2.404   1.732   3.532 -1.2216 -1.2464 -0.4555
  106SAPE  C21210877   2.356   1.663   3.726  0.7938 -0.0148 -0.1421
  106SAPE  H12R10878   2.261   1.620   3.689  0.3496  1.2512 -0.5455
  106SAPE  C21310879   2.384   1.662   3.875 -0.4709  0.2283 -0.3368
  106SAPE  H13R10880   2.490   1.632   3.890 -0.8021 -0.8054  0.0591
  106SAPE  H13S10881   2.326   1.577   3.918 -0.8217  1.3067  1.4395
  106SAPE  C21410882   2.346   1.784   3.952  0.4466  0.7757  0.1185
  106SAPE  H14R10883   2.267   1.848   3.909  0.5793 -0.0999 -1.5045
  106SAPE  C21510884   2.414   1.825   4.059 -0.0884  0.0053 -0.9070
  106SAPE  H15R10885   2.385   1.918   4.110  1.8616 -0.1805  0.6881
  106SAPE  C21610886   2.527   1.756   4.136 -0.2716 -0.5051 -0.2340
  106SAPE  H16R10887   2.546   1.652   4.102 -1.6385 -0.8774  0.0789
  106SAPE  H16S10888   2.503   1.761   4.245 -1.2374 -0.9858 -0.4121
  106SAPE  C21710889   2.655   1.842   4.111  0.3416  0.5272  0.5280
  106SAPE  H17R10890   2.620   1.946   4.124 -0.6579  0.0700  1.8264
  106SAPE  H17S10891   2.681   1.853   4.004  1.4155  1.7997  0.9098
  106SAPE  C21810892   2.768   1.809   4.200  0.0698  0.7221 -0.3518
  106SAPE  H18R10893   2.824   1.716   4.179 -0.1073  0.3692  0.7025
  106SAPE  H18S10894   2.744   1.783   4.305 -0.8688  0.0768 -0.7139
  106SAPE  C21910895   2.876   1.922   4.203 -0.2772  0.3576 -0.5703
  106SAPE  H19R10896   2.828   2.013   4.244 -0.4008 -0.5103  1.3054
  106SAPE  H19S10897   2.902   1.949   4.099  4.4443  1.3385  0.6434
  106SAPE  C22010898   3.002   1.891   4.285  0.0135 -0.5506 -0.4984
  106SAPE  H20R10899   3.088   1.946   4.239 -0.7574  0.8106 -0.3778
  106SAPE  H20S10900   3.040   1.787   4.285 -2.7262 -1.6177 -0.7592
  106SAPE  H20T10901   2.979   1.930   4.387 -1.8356  1.3374 -1.5558
  106SAPE   C3310902   2.187   2.291   3.105  0.3318  0.4637  0.0258
  106SAPE   H3X10903   2.094   2.232   3.116 -1.0761  2.7990  1.3785
  106SAPE   H3Y10904   2.152   2.393   3.080  0.0128  0.1244 -0.9670
  106SAPE   C3410905   2.231   2.297   3.252  0.3539  0.0283 -0.5876
  106SAPE   H4X10906   2.328   2.351   3.261  1.3547 -1.2612 -2.9279
  106SAPE   H4Y10907   2.263   2.200   3.297 -0.7146  1.0755  2.6827
  106SAPE   C3510908   2.118   2.347   3.337  0.4839 -0.8620  0.0934
  106SAPE   H5X10909   2.026   2.288   3.317  0.7545 -0.5958 -2.3254
  106SAPE   H5Y10910   2.085   2.447   3.301  1.8130 -0.0885  0.9372
  106SAPE   C3610911   2.148   2.363   3.487  0.4222 -0.2305  0.0857
  106SAPE   H6X10912   2.074   2.434   3.530  0.2627  0.9584 -2.0189
  106SAPE   H6Y10913   2.253   2.398   3.497  1.1947 -2.8264  2.8430
  106SAPE   C3710914   2.138   2.231   3.567 -0.0324 -0.0360 -0.4825
  106SAPE   H7X10915   2.185   2.143   3.518  2.2422  0.6767  0.2937
  106SAPE   H7Y10916   2.031   2.209   3.587 -0.3696  1.7205 -0.2627
  106SAPE   C3810917   2.219   2.231   3.699 -0.6907 -0.5051 -0.1609
  106SAPE   H8X10918   2.191   2.316   3.766 -0.4350 -0.8257  0.3585
  106SAPE   H8Y10919   2.327   2.223   3.678 -0.3681  1.0178  0.7109
  106SAPE   C3910920   2.201   2.118   3.804  0.3068  0.1359  0.7410
  106SAPE   H9X10921   2.268   2.133   3.891  0.4384  0.2480  0.6215
  106SAPE   H9Y10922   2.243   2.026   3.758 -0.6476  0.3761 -0.6699
  106SAPE  C31010923   2.056   2.104   3.851 -0.2680  0.0924  0.2399
  106SAPE  H10X10924   1.981   2.082   3.772 -0.6177  3.3713 -0.4794
  106SAPE  H10Y10925   2.019   2.202   3.888  0.9029  0.2817  0.9713
  106SAPE  C31110926   2.031   1.999   3.956 -0.2371 -0.0128 -0.2531
  106SAPE  H11X10927   2.052   1.902   3.906  0.9039 -0.9220  1.8630
  106SAPE  H11Y10928   1.927   2.006   3.994  0.0482 -1.1390  0.7915
  106SAPE  C31210929   2.120   2.020   4.088  0.7446  0.1459  0.0290
  106SAPE  H12X10930   2.093   2.122   4.125 -0.2431  0.1700 -0.6998
  106SAPE  H12Y10931   2.230   2.027   4.075  0.5890  1.9786 -0.6629
  106SAPE  C31310932   2.078   1.926   4.198  0.1576  0.5673  0.0953
  106SAPE  H13X10933   2.097   1.825   4.155  0.1464  1.4848 -2.1761
  106SAPE  H13Y10934   1.970   1.914   4.222  0.1224 -2.4747 -1.1375
  106SAPE  C31410935   2.156   1.936   4.328 -0.5221 -0.6542  0.3707
  106SAPE  H14X10936   2.150   2.045   4.349  0.8315  0.0379 -2.3512
  106SAPE  H14Y10937   2.262   1.907   4.307  0.3380  1.4413  1.5281
  106SAPE  C31510938   2.103   1.839   4.438 -0.2689 -1.1058  0.7409
  106SAPE  H15X10939   2.116   1.739   4.392  2.6990 -0.5848  0.2142
  106SAPE  H15Y10940   1.995   1.854   4.461 -0.5596 -1.4528 -0.3745
  106SAPE  C31610941   2.183   1.833   4.568  0.8567 -0.1761  1.0566
  106SAPE  H16X10942   2.291   1.822   4.544  1.0859  1.7960  1.0536
  106SAPE  H16Y10943   2.153   1.746   4.630 -0.2162 -0.4181  0.2156
  106SAPE  C31710944   2.189   1.957   4.652 -0.4919  0.2632 -0.4088
  106SAPE  H17X10945   2.090   1.996   4.683  0.4197  1.3690  1.2967
  106SAPE  H17Y10946   2.236   2.045   4.604  2.6895  0.2812  2.3465
  106SAPE  C31810947   2.271   1.945   4.784  0.6771  0.5129  0.4894
  106SAPE  H18X10948   2.344   1.863   4.771  0.4640  0.6340 -1.9158
  106SAPE  H18Y10949   2.220   1.907   4.875  1.2109  0.0553  0.5979
  106SAPE  H18Z10950   2.321   2.041   4.813  0.1462  0.8179  0.4067
  107SAPE     N10951   5.913   1.475   2.691  0.1170  0.1721  0.4650
  107SAPE   HN110952   5.999   1.530   2.707 -0.5591  0.9494  1.5460
  107SAPE   HN210953   5.834   1.535   2.722  0.2202  2.4057 -2.9874
  107SAPE   HN310954   5.913   1.386   2.745  0.6592 -0.9809 -1.3365
  107SAPE   C1210955   5.886   1.436   2.551 -0.0755 -0.5227  0.7962
  107SAPE  H12A10956   5.789   1.382   2.550 -0.7576  0.6218 -0.7151
  107SAPE  H12B10957   5.961   1.367   2.507 -0.1956 -0.5609  0.6467
  107SAPE   C1110958   5.872   1.563   2.462 -0.4116  0.3938 -0.7210
  107SAPE  H11A10959   5.850   1.534   2.357  2.2200 -1.2683 -0.9128
  107SAPE  H11B10960   5.973   1.609   2.458 -0.6523  0.9206 -0.7859
  107SAPE     P10961   5.616   1.657   2.472  0.4326 -0.6823 -0.3588
  107SAPE   O1310962   5.589   1.723   2.339 -1.0093 -0.4505  0.0111
  107SAPE   O1410963   5.558   1.524   2.502 -0.1141 -0.0885  0.6139
  107SAPE   O1210964   5.775   1.654   2.510  0.3534 -0.2608  0.0004
  107SAPE   O1110965   5.555   1.764   2.573  0.2189  0.7062  0.2308
  107SAPE    C110966   5.600   1.898   2.584  0.0737  0.1709  0.3382
  107SAPE    HA10967   5.657   1.933   2.495  1.7086  1.3058  1.7482
  107SAPE    HB10968   5.504   1.954   2.591  0.1781  0.3886  0.0792
  107SAPE    C210969   5.692   1.904   2.700  0.3150  0.2045 -0.3947
  107SAPE    HS10970   5.774   1.830   2.682 -0.1198  0.0294 -1.7760
  107SAPE   O2110971   5.614   1.875   2.823 -0.2511  0.1216  0.2410
  107SAPE   C2110972   5.623   1.750   2.865 -0.5468 -0.4640  0.0216
  107SAPE   O2210973   5.710   1.666   2.827  0.1758 -0.1910 -0.5788
  107SAPE   C2210974   5.501   1.726   2.955  0.2001 -0.0244 -0.7770
  107SAPE   H2R10975   5.466   1.827   2.984 -1.4342 -0.7670 -0.0101
  107SAPE   H2S10976   5.415   1.679   2.903 -1.2949  0.1927  1.3638
  107SAPE    C310977   5.745   2.052   2.712 -0.0785 -0.3138 -0.1353
  107SAPE    HX10978   5.659   2.122   2.702 -0.1468 -0.3108  0.4564
  107SAPE    HY10979   5.814   2.069   2.626 -0.4020  0.9117 -0.1713
  107SAPE   O3110980   5.811   2.068   2.841 -0.6973  0.1792 -0.1705
  107SAPE   C3110981   5.737   2.096   2.949  0.0859  0.7373  0.0658
  107SAPE   O3210982   5.621   2.124   2.953 -0.1723  0.2042 -0.1393
  107SAPE   C3210983   5.819   2.056   3.072  0.2897 -0.4144  0.1414
  107SAPE   H2X10984   5.872   2.146   3.111  1.8091 -1.2736  0.0919
  107SAPE   H2Y10985   5.889   1.975   3.046 -1.3188 -1.4769 -1.0745
  107SAPE   C2310986   5.524   1.637   3.076 -0.3111 -0.1343  0.3027
  107SAPE   H3R10987   5.625   1.652   3.121 -0.2283 -0.5172  0.2437
  107SAPE   H3S10988   5.520   1.529   3.053  0.9722 -0.1908  0.3047
  107SAPE   C2410989   5.431   1.667   3.196 -0.7676  0.2325  0.2770
  107SAPE   H4R10990   5.433   1.775   3.220  1.6751  0.6368 -1.3540
  107SAPE   H4S10991   5.480   1.608   3.277 -0.1919  1.1397  0.6043
  107SAPE   C2510992   5.290   1.620   3.175  0.3129 -0.4808  0.7560
  107SAPE   H5R10993   5.255   1.630   3.072 -0.9909  0.8868  1.2985
  107SAPE   C2610994   5.202   1.608   3.272 -0.1488  0.3422 -0.4662
  107SAPE   H6R10995   5.097   1.588   3.245 -0.2361 -0.1632  0.2038
  107SAPE   C2710996   5.230   1.607   3.421  0.4568  0.6607 -0.5451
  107SAPE   H7R10997   5.172   1.687   3.472 -1.3494 -0.2752 -1.0564
  107SAPE   H7S10998   5.339   1.630   3.432  0.4887  1.1207 -1.6903
  107SAPE   C2810999   5.227   1.466   3.484 -0.3070 -0.1625 -0.1337
  107SAPE   H8R11000   5.221   1.380   3.416 -2.7128 -0.4050  0.2886
  107SAPE   C2911001   5.210   1.443   3.617 -0.4194 -0.0139  0.3432
  107SAPE   H9R11002   5.208   1.340   3.656 -1.1757  0.9518  3.1679
  107SAPE  C21011003   5.201   1.553   3.722  1.1450  0.2330 -0.1867
  107SAPE  H10R11004   5.092   1.560   3.743  1.2558 -1.7183  1.3721
  107SAPE  H10S11005   5.236   1.646   3.672 -1.1056  0.1815 -2.0143
  107SAPE  C21111006   5.277   1.532   3.852  0.3406 -0.3882 -0.3872
  107SAPE  H11R11007   5.375   1.487   3.828  0.2003 -1.2204  0.5740
  107SAPE  C21211008   5.256   1.560   3.983  0.0634  0.6637  0.3867
  107SAPE  H12R11009   5.334   1.556   4.060  0.7115 -1.3238 -0.3174
  107SAPE  C21311010   5.123   1.608   4.032  0.2898 -0.6627  0.6172
  107SAPE  H13R11011   5.097   1.551   4.124 -0.5182 -1.1277  0.1101
  107SAPE  H13S11012   5.039   1.602   3.960 -0.8647 -0.6572  1.9136
  107SAPE  C21411013   5.123   1.753   4.067  0.2112 -0.2145 -0.2087
  107SAPE  H14R11014   5.187   1.815   4.003 -1.2514  0.5042 -1.0230
  107SAPE  C21511015   5.055   1.804   4.177  0.3281  0.3557  0.6158
  107SAPE  H15R11016   5.056   1.912   4.199 -1.3892  0.4215  0.5197
  107SAPE  C21611017   4.971   1.726   4.276  0.2233  0.7659 -0.2011
  107SAPE  H16R11018   4.951   1.619   4.254  1.2921  0.6630 -0.7011
  107SAPE  H16S11019   4.865   1.758   4.266  0.2797  1.4882  1.1754
  107SAPE  C21711020   5.019   1.746   4.414 -0.6777  0.1264  0.1837
  107SAPE  H17R11021   5.041   1.853   4.437  4.0194 -0.7938  0.8269
  107SAPE  H17S11022   5.121   1.703   4.424 -0.7962 -0.4363 -0.9145
  107SAPE  C21811023   4.916   1.705   4.523 -0.6119 -0.2458  0.3057
  107SAPE  H18R11024   4.923   1.594   4.516  1.0117 -0.1251 -0.4574
  107SAPE  H18S11025   4.809   1.721   4.499 -0.5780 -1.2225 -0.5848
  107SAPE  C21911026   4.950   1.754   4.659 -0.8692 -0.4116 -0.1852
  107SAPE  H19R11027   5.057   1.733   4.677 -1.4995 -3.7526  0.2290
  107SAPE  H19S11028   4.907   1.689   4.738 -0.6561 -3.4743 -2.4331
  107SAPE  C22011029   4.921   1.899   4.690 -0.3362 -0.4804  0.3595
  107SAPE  H20R11030   4.812   1.919   4.686 -0.1433  0.5854  0.2010
  107SAPE  H20S11031   4.965   1.970   4.617  0.3519  2.1395  3.1421
  107SAPE  H20T11032   4.954   1.916   4.795 -2.6502  0.3823  1.0035
  107SAPE   C3311033   5.725   2.007   3.186 -0.0245 -0.2843 -0.2188
  107SAPE   H3X11034   5.658   1.921   3.166 -1.3108  0.2841  1.3655
  107SAPE   H3Y11035   5.655   2.081   3.230 -0.6770 -1.0160 -0.0122
  107SAPE   C3411036   5.814   1.950   3.300  0.0954  0.0428  0.0614
  107SAPE   H4X11037   5.868   2.039   3.339 -0.4914  0.5549 -0.2794
  107SAPE   H4Y11038   5.905   1.906   3.253 -0.0328 -0.1498 -0.0042
  107SAPE   C3511039   5.749   1.852   3.400  0.2544  0.8967 -0.4180
  107SAPE   H5X11040   5.832   1.802   3.455 -1.0346 -0.3828  0.4378
  107SAPE   H5Y11041   5.695   1.764   3.358  0.8420 -0.4453  1.4778
  107SAPE   C3611042   5.670   1.934   3.492 -0.2382 -0.2633  0.2933
  107SAPE   H6X11043   5.590   1.988   3.437  0.4784  0.6445  0.1261
  107SAPE   H6Y11044   5.737   2.003   3.548  2.9905 -2.0760 -1.0234
  107SAPE   C3711045   5.585   1.855   3.594  0.4020 -0.0796 -0.0207
  107SAPE   H7X11046   5.539   1.765   3.548 -0.5031 -0.0790  0.8528
  107SAPE   H7Y11047   5.505   1.923   3.630  0.8036  0.2330  0.2873
  107SAPE   C3811048   5.675   1.817   3.716 -0.2078 -0.4275  1.1521
  107SAPE   H8X11049   5.712   1.913   3.759  2.2810 -0.4920 -0.6473
  107SAPE   H8Y11050   5.765   1.763   3.680  0.3237  0.9429  0.3685
  107SAPE   C3911051   5.606   1.740   3.831  0.1536 -0.5604  0.5009
  107SAPE   H9X11052   5.574   1.641   3.793  1.3940 -0.9582  0.4509
  107SAPE   H9Y11053   5.522   1.804   3.867 -0.7587 -2.6084  2.2594
  107SAPE  C31011054   5.710   1.721   3.946  0.0036  0.5353  0.2875
  107SAPE  H10X11055   5.755   1.816   3.980 -0.4652  0.1575  2.0746
  107SAPE  H10Y11056   5.798   1.658   3.921  0.9206  2.3032 -1.1558
  107SAPE  C31111057   5.630   1.657   4.058 -0.2052  0.2979 -0.5048
  107SAPE  H11X11058   5.578   1.567   4.018 -1.9441  1.2645 -0.5242
  107SAPE  H11Y11059   5.565   1.744   4.082  0.5810  1.2609 -1.7449
  107SAPE  C31211060   5.722   1.644   4.183 -0.5096 -0.1302  1.3201
  107SAPE  H12X11061   5.755   1.744   4.218  0.8938  0.3866 -1.2382
  107SAPE  H12Y11062   5.823   1.603   4.161 -0.5802  1.2629 -2.2156
  107SAPE  C31311063   5.658   1.570   4.295 -0.2698  0.3479 -0.2056
  107SAPE  H13X11064   5.728   1.571   4.381  0.7145  0.8054 -0.9801
  107SAPE  H13Y11065   5.642   1.464   4.268 -2.4012  0.0787  1.8503
  107SAPE  C31411066   5.516   1.617   4.342  0.1772  0.1330 -0.3003
  107SAPE  H14X11067   5.467   1.546   4.412  0.2962 -0.8081 -1.1544
  107SAPE  H14Y11068   5.454   1.644   4.255 -0.2085 -1.0277 -0.4082
  107SAPE  C31511069   5.532   1.739   4.432 -0.2167 -0.6430 -0.8302
  107SAPE  H15X11070   5.593   1.819   4.385  0.4422 -1.0493 -0.6770
  107SAPE  H15Y11071   5.597   1.710   4.516  1.5691 -2.0209 -2.5841
  107SAPE  C31611072   5.400   1.793   4.482  0.2746  0.2888 -1.0609
  107SAPE  H16X11073   5.331   1.711   4.511 -2.8240  3.2926  0.8010
  107SAPE  H16Y11074   5.349   1.830   4.390  0.7714  1.3025 -0.9526
  107SAPE  C31711075   5.404   1.905   4.585 -0.1372 -0.1499  0.4858
  107SAPE  H17X11076   5.468   1.982   4.537  1.3509 -2.3847 -1.3339
  107SAPE  H17Y11077   5.469   1.864   4.666  0.4088 -0.2564  0.0043
  107SAPE  C31811078   5.275   1.962   4.634  0.2574  0.3653 -0.4236
  107SAPE  H18X11079   5.200   1.976   4.553 -2.6899 -1.3155  1.8217
  107SAPE  H18Y11080   5.287   2.062   4.681 -2.0796  1.4910 -2.0233
  107SAPE  H18Z11081   5.216   1.902   4.707  2.2883  0.3893  1.3309
  108SAPE     N11082   2.609   5.655   2.738  0.2588  0.2995  0.4621
  108SAPE   HN111083   2.557   5.571   2.769  1.7276 -1.2271 -0.9979
  108SAPE   HN211084   2.633   5.639   2.638  0.3958 -0.7873  0.6641
  108SAPE   HN311085   2.694   5.672   2.795  1.9104 -0.2733 -1.6960
  108SAPE   C1211086   2.514   5.774   2.739 -0.2283  0.0284  0.0626
  108SAPE  H12A11087   2.573   5.864   2.712 -0.8364  0.2850 -0.4238
  108SAPE  H12B11088   2.479   5.773   2.845 -2.1754 -1.4058 -0.5355
  108SAPE   C1111089   2.406   5.755   2.633  0.5991  0.4786 -0.7477
  108SAPE  H11A11090   2.437   5.752   2.526 -1.3279 -0.1503 -1.3278
  108SAPE  H11B11091   2.331   5.836   2.647  0.2964  0.0148  0.3742
  108SAPE     P11092   2.210   5.589   2.591  0.6793  0.0635 -0.2088
  108SAPE   O1311093   2.103   5.695   2.607  0.1915 -0.1937  0.4188
  108SAPE   O1411094   2.259   5.557   2.459  0.4719  0.7756  0.5922
  108SAPE   O1211095   2.341   5.626   2.665  0.4884  0.4459  0.1118
  108SAPE   O1111096   2.171   5.454   2.661  0.3596  0.4180 -0.0378
  108SAPE    C111097   2.077   5.438   2.771 -0.7472  0.8478  0.4706
  108SAPE    HA11098   1.999   5.517   2.771 -0.1217  1.5107 -0.8694
  108SAPE    HB11099   2.018   5.345   2.766 -2.7425  2.1008 -0.6406
  108SAPE    C211100   2.163   5.445   2.906 -0.3232 -0.2569 -0.0271
  108SAPE    HS11101   2.195   5.552   2.904 -1.0086 -0.0156  0.8909
  108SAPE   O2111102   2.280   5.363   2.912 -0.1062 -0.0980 -0.2892
  108SAPE   C2111103   2.397   5.419   2.957 -0.2961  0.6047 -0.2342
  108SAPE   O2211104   2.417   5.535   2.975 -0.3909 -0.2505  0.0584
  108SAPE   C2211105   2.498   5.302   2.989  0.6275  0.5619  0.6223
  108SAPE   H2R11106   2.459   5.206   2.950  1.0334  0.8952 -0.6643
  108SAPE   H2S11107   2.587   5.323   2.926  0.5052  1.1436  0.6303
  108SAPE    C311108   2.071   5.426   3.030 -0.3015 -0.3040 -0.0266
  108SAPE    HX11109   2.021   5.328   3.020 -1.1605  0.0354  0.8087
  108SAPE    HY11110   1.998   5.510   3.030  1.2874  1.2224  2.3815
  108SAPE   O3111111   2.139   5.438   3.158  0.1135 -0.0218  0.4336
  108SAPE   C3111112   2.158   5.564   3.202  0.6764  0.8737  1.0094
  108SAPE   O3211113   2.114   5.667   3.146 -0.3900  0.2766 -0.1648
  108SAPE   C3211114   2.254   5.562   3.317  0.2153  0.0046  0.0439
  108SAPE   H2X11115   2.343   5.500   3.297 -0.3825 -0.9749  0.3370
  108SAPE   H2Y11116   2.199   5.503   3.393  1.7770 -2.8245 -0.8956
  108SAPE   C2311117   2.545   5.282   3.135  0.1235 -0.0301 -0.1833
  108SAPE   H3R11118   2.521   5.376   3.188  1.5690  0.5433 -0.5061
  108SAPE   H3S11119   2.656   5.287   3.131  0.2398 -1.2523  0.6864
  108SAPE   C2411120   2.476   5.161   3.206 -0.5282 -0.7263 -0.3208
  108SAPE   H4R11121   2.527   5.132   3.300 -0.7111 -2.2226 -0.6691
  108SAPE   H4S11122   2.508   5.077   3.142  3.4582 -0.6700  1.2971
  108SAPE   C2511123   2.325   5.173   3.225  0.1876 -0.3456 -0.0014
  108SAPE   H5R11124   2.266   5.219   3.145  0.6711  0.2518 -0.0253
  108SAPE   C2611125   2.246   5.118   3.320  0.0199  0.1750 -0.7679
  108SAPE   H6R11126   2.137   5.125   3.309 -0.0594  0.7991  0.2957
  108SAPE   C2711127   2.288   5.018   3.424  0.1105 -0.3380 -0.7731
  108SAPE   H7R11128   2.221   5.026   3.511 -2.1522 -0.0028 -2.4515
  108SAPE   H7S11129   2.385   5.040   3.474 -0.2556  0.5214 -0.4198
  108SAPE   C2811130   2.261   4.880   3.367 -0.3197  0.1371 -0.9530
  108SAPE   H8R11131   2.263   4.872   3.257  1.2089 -0.2729 -0.9229
  108SAPE   C2911132   2.199   4.772   3.427  0.3457 -0.1855 -1.1555
  108SAPE   H9R11133   2.192   4.679   3.369  1.6657 -1.0058 -0.0709
  108SAPE  C21011134   2.144   4.770   3.571 -0.4574  0.5067  0.0236
  108SAPE  H10R11135   2.037   4.801   3.567  0.0175  2.1417 -1.3537
  108SAPE  H10S11136   2.194   4.847   3.633 -0.3607  0.3690  0.1168
  108SAPE  C21111137   2.159   4.637   3.648  0.3400  0.3813  0.5065
  108SAPE  H11R11138   2.246   4.579   3.615 -1.4464 -0.7382 -2.6775
  108SAPE  C21211139   2.068   4.589   3.738  0.1516  0.1062  0.2424
  108SAPE  H12R11140   2.081   4.486   3.776 -1.6863 -0.0834  0.4344
  108SAPE  C21311141   1.942   4.658   3.784  0.2401  0.4582 -0.2573
  108SAPE  H13R11142   1.861   4.584   3.767  2.5763 -2.0194 -1.2855
  108SAPE  H13S11143   1.918   4.745   3.719 -0.8514  2.1657  2.2564
  108SAPE  C21411144   1.953   4.697   3.928 -0.1490 -1.0164 -0.4566
  108SAPE  H14R11145   2.037   4.766   3.945 -1.1737 -0.1010  1.1257
  108SAPE  C21511146   1.860   4.681   4.033  0.0947 -0.2939  0.2650
  108SAPE  H15R11147   1.899   4.706   4.133  1.1485  0.8860 -0.4177
  108SAPE  C21611148   1.739   4.593   4.019  0.0861 -0.0216  0.1058
  108SAPE  H16R11149   1.766   4.487   4.040  1.2835  0.6116  1.8884
  108SAPE  H16S11150   1.691   4.597   3.918 -1.1110  0.7834  0.6876
  108SAPE  C21711151   1.630   4.651   4.124 -0.4590 -0.5914 -0.0059
  108SAPE  H17R11152   1.618   4.759   4.101  0.7124 -0.4158  0.1258
  108SAPE  H17S11153   1.685   4.647   4.221 -1.3665 -2.1317  0.4808
  108SAPE  C21811154   1.507   4.570   4.136  0.5928  0.5970  0.4761
  108SAPE  H18R11155   1.525   4.471   4.183 -1.6400  0.0662  0.3097
  108SAPE  H18S11156   1.464   4.552   4.035  1.3540  0.1613  0.2212
  108SAPE  C21911157   1.399   4.649   4.209 -0.2830 -0.0222 -0.6335
  108SAPE  H19R11158   1.301   4.596   4.203  0.1723 -1.2811  1.8634
  108SAPE  H19S11159   1.382   4.750   4.166  1.3835  0.0562 -1.1607
  108SAPE  C22011160   1.432   4.670   4.362 -0.4009  0.7842 -0.1792
  108SAPE  H20R11161   1.475   4.578   4.406 -0.4736  0.6557 -0.3712
  108SAPE  H20S11162   1.343   4.694   4.424 -1.7660 -0.1487 -1.6833
  108SAPE  H20T11163   1.506   4.751   4.377  0.3960 -0.2702  1.8606
  108SAPE   C3311164   2.296   5.703   3.361 -0.3361  0.3154  0.2515
  108SAPE   H3X11165   2.229   5.787   3.332  1.2748  1.0501 -1.5834
  108SAPE   H3Y11166   2.389   5.735   3.309 -0.4374  0.3282  0.0756
  108SAPE   C3411167   2.316   5.709   3.511 -0.8495  0.0652 -0.2320
  108SAPE   H4X11168   2.356   5.811   3.529  1.1489 -0.7663  0.3030
  108SAPE   H4Y11169   2.395   5.640   3.548  1.7327 -0.3069 -5.5509
  108SAPE   C3511170   2.187   5.689   3.587  0.3694  0.3411 -0.1357
  108SAPE   H5X11171   2.102   5.739   3.536 -1.0001 -2.5179 -0.8598
  108SAPE   H5Y11172   2.151   5.586   3.610 -0.2903  0.6660  0.3417
  108SAPE   C3611173   2.197   5.759   3.729 -0.4557 -0.3670 -0.2145
  108SAPE   H6X11174   2.175   5.867   3.721 -0.2964 -0.1453  1.8863
  108SAPE   H6Y11175   2.299   5.749   3.772  0.0670  2.3441 -0.6596
  108SAPE   C3711176   2.097   5.699   3.837  0.5160 -0.2974 -0.1693
  108SAPE   H7X11177   2.092   5.589   3.820 -1.6725 -0.1490 -0.7642
  108SAPE   H7Y11178   1.995   5.736   3.816  0.6325  1.7533  2.3676
  108SAPE   C3811179   2.139   5.745   3.976 -0.0285  0.1893 -0.3101
  108SAPE   H8X11180   2.060   5.763   4.052  1.6882  2.1505  1.1490
  108SAPE   H8Y11181   2.187   5.843   3.959 -1.1738  0.6973 -0.6575
  108SAPE   C3911182   2.221   5.642   4.054  0.3194 -0.4516 -0.5447
  108SAPE   H9X11183   2.320   5.624   4.007  0.2646  0.0959 -0.8862
  108SAPE   H9Y11184   2.169   5.545   4.064  0.6137 -0.5008  0.5677
  108SAPE  C31011185   2.264   5.699   4.190 -0.3035 -0.5573  0.2551
  108SAPE  H10X11186   2.183   5.743   4.252  1.6661  1.8335  1.2942
  108SAPE  H10Y11187   2.335   5.781   4.166  0.0837 -1.0141 -0.1713
  108SAPE  C31111188   2.342   5.590   4.269  0.0416 -0.4973  0.8074
  108SAPE  H11X11189   2.415   5.538   4.203 -1.7753  0.2922 -1.9740
  108SAPE  H11Y11190   2.264   5.513   4.288  0.5573 -0.6834  2.2943
  108SAPE  C31211191   2.391   5.645   4.405 -0.1996 -0.2162  0.4745
  108SAPE  H12X11192   2.302   5.672   4.466  1.3250  1.9663  1.8426
  108SAPE  H12Y11193   2.447   5.739   4.389  2.6165 -1.6958  0.9533
  108SAPE  C31311194   2.477   5.542   4.482  0.2678 -0.8534  0.0442
  108SAPE  H13X11195   2.561   5.513   4.416  0.4617 -1.2259  0.4505
  108SAPE  H13Y11196   2.410   5.454   4.497 -1.8802  0.3643 -1.7797
  108SAPE  C31411197   2.536   5.600   4.611  0.5818 -0.0515  0.1419
  108SAPE  H14X11198   2.519   5.515   4.682 -2.7266 -1.2108 -1.7838
  108SAPE  H14Y11199   2.468   5.684   4.639 -0.0054 -0.3595 -0.3311
  108SAPE  C31511200   2.687   5.639   4.604  0.6528 -0.5114 -0.2719
  108SAPE  H15X11201   2.698   5.709   4.519 -0.7500  0.1906  0.0865
  108SAPE  H15Y11202   2.756   5.555   4.581  1.1415 -0.1151 -0.2622
  108SAPE  C31611203   2.736   5.695   4.738 -0.4987  0.7605 -0.5512
  108SAPE  H16X11204   2.844   5.717   4.732  0.0877 -1.3021  1.1898
  108SAPE  H16Y11205   2.738   5.602   4.800 -0.0717  0.9329 -0.3072
  108SAPE  C31711206   2.670   5.813   4.807  0.6695  0.2792  0.9342
  108SAPE  H17X11207   2.572   5.782   4.851  1.3750 -1.5792  1.2981
  108SAPE  H17Y11208   2.663   5.904   4.744 -1.7590 -0.5039 -0.0267
  108SAPE  C31811209   2.742   5.864   4.930 -1.2517 -0.3291  0.1837
  108SAPE  H18X11210   2.673   5.929   4.987 -1.2875  1.8809 -2.1710
  108SAPE  H18Y11211   2.838   5.915   4.907 -0.3027 -1.5936  1.1687
  108SAPE  H18Z11212   2.765   5.780   4.999 -0.4490 -0.4530 -0.2209
  109SAPE     N11213   1.449   5.208   2.260  1.0260 -0.2101 -0.5050
  109SAPE   HN111214   1.542   5.254   2.273  0.1294  1.8033 -0.8761
  109SAPE   HN211215   1.457   5.131   2.191  1.3094 -2.7563  2.1610
  109SAPE   HN311216   1.379   5.279   2.232 -0.8910 -2.1326 -0.7765
  109SAPE   C1211217   1.405   5.139   2.387 -0.1245 -0.2573 -0.1333
  109SAPE  H12A11218   1.319   5.071   2.373  0.3729 -0.5932 -1.7893
  109SAPE  H12B11219   1.374   5.216   2.460 -0.2289 -0.1696 -0.2682
  109SAPE   C1111220   1.522   5.053   2.436  0.4883 -0.1270  0.3484
  109SAPE  H11A11221   1.562   4.982   2.360 -0.4648 -0.3255  0.0221
  109SAPE  H11B11222   1.496   4.989   2.523  1.1044  0.0490  0.6643
  109SAPE     P11223   1.764   5.084   2.525 -0.2970  0.0074  0.1192
  109SAPE   O1311224   1.816   4.981   2.430  0.0899 -0.9727  0.1811
  109SAPE   O1411225   1.862   5.188   2.548 -0.3175 -0.1146  0.2577
  109SAPE   O1211226   1.629   5.146   2.473  0.2431 -0.5915 -0.5073
  109SAPE   O1111227   1.725   5.013   2.664  0.5203 -0.0511 -1.0473
  109SAPE    C111228   1.666   5.074   2.778  0.0154 -0.4082 -0.1961
  109SAPE    HA11229   1.616   5.169   2.749  2.6249  1.6430  1.5527
  109SAPE    HB11230   1.602   5.001   2.832  0.3026 -0.2246  0.4023
  109SAPE    C211231   1.765   5.117   2.886 -0.6309  0.5121 -0.8363
  109SAPE    HS11232   1.828   5.195   2.839  0.3255 -1.8267 -3.7606
  109SAPE   O2111233   1.839   4.999   2.929 -0.1698  0.1290  0.0822
  109SAPE   C2111234   1.970   4.988   2.893  0.3019 -0.0555  0.3685
  109SAPE   O2211235   2.041   5.072   2.835  0.4270  0.2862 -0.0584
  109SAPE   C2211236   2.021   4.858   2.949 -0.2073 -0.5683 -0.7317
  109SAPE   H2R11237   2.028   4.861   3.060  0.8202  0.3730 -0.8106
  109SAPE   H2S11238   1.946   4.781   2.922  0.2335 -2.0281  1.8217
  109SAPE    C311239   1.688   5.187   2.991 -0.3850  0.6947 -0.0017
  109SAPE    HX11240   1.617   5.109   3.026  0.1550  0.4041  0.4607
  109SAPE    HY11241   1.626   5.271   2.951  0.3322  0.4071 -1.8447
  109SAPE   O3111242   1.776   5.233   3.097 -0.0936 -0.0302 -0.2574
  109SAPE   C3111243   1.711   5.248   3.209 -0.3875 -0.4810  0.1725
  109SAPE   O3211244   1.595   5.220   3.224  0.3066 -1.0496 -0.1808
  109SAPE   C3211245   1.810   5.295   3.318  0.5141 -0.1440 -0.1445
  109SAPE   H2X11246   1.788   5.402   3.336  1.3041  0.4971 -2.6498
  109SAPE   H2Y11247   1.913   5.282   3.278 -0.0417  0.8982 -2.0070
  109SAPE   C2311248   2.156   4.825   2.891  0.5682 -0.2889  0.0620
  109SAPE   H3R11249   2.228   4.905   2.918  0.5823 -1.0132  2.4029
  109SAPE   H3S11250   2.153   4.798   2.784 -1.1424  1.2809 -0.3450
  109SAPE   C2411251   2.217   4.710   2.969  0.6840 -0.5437  0.0684
  109SAPE   H4R11252   2.132   4.639   2.964 -0.4161  0.7216  0.5026
  109SAPE   H4S11253   2.232   4.736   3.076 -1.4405  1.0422  0.0414
  109SAPE   C2511254   2.337   4.634   2.924 -1.6136 -1.0438  0.0127
  109SAPE   H5R11255   2.310   4.546   2.864  1.1215 -2.2697  0.4078
  109SAPE   C2611256   2.462   4.634   2.985 -0.1228  0.1321 -0.5910
  109SAPE   H6R11257   2.549   4.584   2.939  0.7101  2.1367 -1.3290
  109SAPE   C2711258   2.493   4.720   3.107 -0.3231 -0.2056 -0.2413
  109SAPE   H7R11259   2.446   4.673   3.196  1.5537 -0.7507  0.5051
  109SAPE   H7S11260   2.455   4.824   3.102 -0.1620 -0.1566 -0.4233
  109SAPE   C2811261   2.643   4.720   3.125  1.0749 -0.0717 -0.4834
  109SAPE   H8R11262   2.682   4.807   3.070 -0.8578  0.2838 -1.4021
  109SAPE   C2911263   2.725   4.642   3.202  1.0273 -0.3066  0.6666
  109SAPE   H9R11264   2.832   4.668   3.201  1.4679 -2.0159 -0.0872
  109SAPE  C21011265   2.675   4.512   3.266 -0.2953  0.0814  0.4816
  109SAPE  H10R11266   2.700   4.432   3.193  1.1780  1.6748 -0.8575
  109SAPE  H10S11267   2.567   4.525   3.286 -0.5101  1.7153 -1.3593
  109SAPE  C21111268   2.751   4.483   3.387 -0.3202 -0.1163 -0.0988
  109SAPE  H11R11269   2.837   4.417   3.373  0.7090  1.4905 -1.6987
  109SAPE  C21211270   2.725   4.509   3.514  0.5122  0.5739  0.8244
  109SAPE  H12R11271   2.801   4.488   3.590  1.6134  0.3783 -0.3057
  109SAPE  C21311272   2.605   4.583   3.566 -0.3995 -0.1736 -0.1881
  109SAPE  H13R11273   2.577   4.529   3.659 -0.3067 -1.5140 -0.9131
  109SAPE  H13S11274   2.517   4.563   3.500 -1.1883 -0.2789  0.8751
  109SAPE  C21411275   2.637   4.726   3.578 -0.5082  0.2195 -0.0393
  109SAPE  H14R11276   2.697   4.766   3.495  0.7652 -1.5297 -0.0171
  109SAPE  C21511277   2.612   4.806   3.682 -0.5994  0.7598  0.0938
  109SAPE  H15R11278   2.632   4.914   3.673  2.5825  0.1086 -2.9275
  109SAPE  C21611279   2.537   4.762   3.813  0.1971 -1.2643 -0.3630
  109SAPE  H16R11280   2.610   4.735   3.892 -0.9317  1.7732  1.9290
  109SAPE  H16S11281   2.466   4.680   3.791 -1.0962 -0.2325 -0.1922
  109SAPE  C21711282   2.457   4.883   3.865 -0.6462 -0.2331  0.3708
  109SAPE  H17R11283   2.389   4.910   3.782  0.2986 -1.0526 -0.7022
  109SAPE  H17S11284   2.531   4.965   3.877  1.2644 -1.2976 -2.9072
  109SAPE  C21811285   2.376   4.859   3.992 -0.5880 -0.2859 -0.4418
  109SAPE  H18R11286   2.298   4.784   3.964  1.1167 -1.8472 -1.2296
  109SAPE  H18S11287   2.328   4.953   4.026  2.6041  2.4278 -2.7903
  109SAPE  C21911288   2.468   4.815   4.105  0.7929  1.0940 -0.2051
  109SAPE  H19R11289   2.562   4.874   4.104  2.9710 -2.0585 -2.5200
  109SAPE  H19S11290   2.486   4.707   4.086 -1.5673  0.4716  0.7446
  109SAPE  C22011291   2.403   4.815   4.240  0.1666  1.0776 -0.1343
  109SAPE  H20R11292   2.317   4.746   4.235  0.9457 -0.1393  1.9942
  109SAPE  H20S11293   2.363   4.911   4.280  2.2722  1.1842  1.9876
  109SAPE  H20T11294   2.466   4.774   4.322  2.3987  3.3249 -0.5882
  109SAPE   C3311295   1.797   5.209   3.444  0.0594  0.3395 -0.1427
  109SAPE   H3X11296   1.814   5.102   3.421 -0.1667  0.2872 -0.0751
  109SAPE   H3Y11297   1.693   5.207   3.483  0.5016 -3.0544  1.1685
  109SAPE   C3411298   1.890   5.247   3.555  0.1760 -0.0366  0.0585
  109SAPE   H4X11299   1.893   5.351   3.593  1.5863 -0.5836  1.5787
  109SAPE   H4Y11300   1.987   5.228   3.503  0.4530  2.1317 -0.3188
  109SAPE   C3511301   1.877   5.151   3.676  0.4039  0.5511 -0.6949
  109SAPE   H5X11302   1.885   5.045   3.644  2.3902  0.8388 -1.2757
  109SAPE   H5Y11303   1.773   5.163   3.712  0.7369 -1.2071  0.9589
  109SAPE   C3611304   1.974   5.163   3.795  0.1460 -0.0050  0.4812
  109SAPE   H6X11305   1.981   5.270   3.826  0.2522 -0.0877  0.7488
  109SAPE   H6Y11306   2.076   5.147   3.755  0.0327 -1.4538  0.7021
  109SAPE   C3711307   1.952   5.069   3.918 -0.3848 -0.4981  0.4207
  109SAPE   H7X11308   1.969   4.966   3.881  0.9520 -1.0129  2.3327
  109SAPE   H7Y11309   1.847   5.066   3.953 -0.6761 -0.2614 -0.3897
  109SAPE   C3811310   2.046   5.078   4.034 -0.2517  0.5774  0.4851
  109SAPE   H8X11311   2.050   5.178   4.082 -1.0938  1.1192 -0.5400
  109SAPE   H8Y11312   2.146   5.085   3.987  0.4926  1.2106  2.0929
  109SAPE   C3911313   2.047   4.972   4.148 -0.4072 -0.6801  0.0346
  109SAPE   H9X11314   2.141   4.991   4.203 -0.3449  1.1366 -0.6342
  109SAPE   H9Y11315   2.052   4.869   4.107 -1.6114 -0.9311  0.4514
  109SAPE  C31011316   1.920   4.963   4.226 -0.2878 -0.4903 -0.6848
  109SAPE  H10X11317   1.838   4.915   4.169 -0.7206 -1.1638  0.4650
  109SAPE  H10Y11318   1.889   5.069   4.239  1.1024 -0.2814  1.4421
  109SAPE  C31111319   1.936   4.889   4.368  0.0586 -0.0210 -0.4134
  109SAPE  H11X11320   1.971   4.968   4.437  3.5426 -0.5041 -1.4257
  109SAPE  H11Y11321   2.018   4.815   4.358  0.3790  0.2242  0.3455
  109SAPE  C31211322   1.812   4.820   4.420 -0.8011 -0.6725 -0.1255
  109SAPE  H12X11323   1.797   4.737   4.348  0.9363 -0.2720 -0.9932
  109SAPE  H12Y11324   1.730   4.895   4.417  0.9203  1.2772  0.0216
  109SAPE  C31311325   1.838   4.751   4.547 -0.3935  0.2715 -0.3591
  109SAPE  H13X11326   1.840   4.828   4.628  2.9157 -0.3117  0.2698
  109SAPE  H13Y11327   1.937   4.701   4.549 -0.2652  0.5047 -0.8884
  109SAPE  C31411328   1.740   4.640   4.594  0.1602 -0.2085 -0.5962
  109SAPE  H14X11329   1.739   4.567   4.510  2.8086  1.1110 -1.9180
  109SAPE  H14Y11330   1.637   4.677   4.611  1.2947  1.6798  3.2538
  109SAPE  C31511331   1.795   4.567   4.714  0.3337 -0.6192  0.4534
  109SAPE  H15X11332   1.832   4.635   4.794 -2.3498  0.8323  0.5731
  109SAPE  H15Y11333   1.883   4.507   4.682 -0.1393 -0.9335 -0.2926
  109SAPE  C31611334   1.698   4.457   4.761  0.3830 -0.2186 -0.1449
  109SAPE  H16X11335   1.670   4.396   4.672  1.3565 -0.9628  0.0412
  109SAPE  H16Y11336   1.604   4.497   4.804  0.1127 -2.3584  1.4554
  109SAPE  C31711337   1.765   4.362   4.855 -1.0823  0.0914  0.0644
  109SAPE  H17X11338   1.820   4.407   4.942 -0.2352  0.6862 -0.7546
  109SAPE  H17Y11339   1.855   4.320   4.805 -0.3891  1.1197  0.4168
  109SAPE  C31811340   1.683   4.251   4.925 -0.4547  0.1492 -0.3247
  109SAPE  H18X11341   1.745   4.177   4.980 -0.4706  1.0800  1.0033
  109SAPE  H18Y11342   1.621   4.187   4.860  0.0971 -1.8062  0.9910
  109SAPE  H18Z11343   1.613   4.298   4.998  0.4633 -0.0584  0.7240
  110SAPE     N11344   0.439   1.744   2.579  0.1708 -0.2156  0.2983
  110SAPE   HN111345   0.536   1.705   2.573 -0.5807 -2.3707  1.0747
  110SAPE   HN211346   0.382   1.659   2.560 -0.6046 -0.1572  2.1873
  110SAPE   HN311347   0.430   1.819   2.508 -0.4327 -0.4977  0.0710
  110SAPE   C1211348   0.416   1.806   2.716 -0.3175  0.1571 -0.1101
  110SAPE  H12A11349   0.485   1.892   2.729 -1.5890  1.0699  0.9958
  110SAPE  H12B11350   0.441   1.725   2.787 -1.7272 -0.3615 -0.1686
  110SAPE   C1111351   0.272   1.841   2.748 -0.0398 -0.2787 -0.0637
  110SAPE  H11A11352   0.238   1.908   2.665 -0.1090 -2.1621 -1.6323
  110SAPE  H11B11353   0.273   1.885   2.849 -1.1122 -1.8518  0.6776
  110SAPE     P11354   0.044   1.735   2.789 -0.6295  0.0071 -0.0150
  110SAPE   O1311355   0.009   1.877   2.788 -0.4769  0.7419  0.4003
  110SAPE   O1411356  -0.030   1.656   2.685  0.2995  0.3350 -0.1428
  110SAPE   O1211357   0.195   1.719   2.749  0.7608  0.6923  0.3965
  110SAPE   O1111358   0.030   1.667   2.928 -0.2586 -0.2998  0.0456
  110SAPE    C111359   0.110   1.546   2.951  0.6128 -0.3952 -0.1043
  110SAPE    HA11360   0.066   1.469   2.885  0.6220  0.3905 -1.0540
  110SAPE    HB11361   0.215   1.559   2.917  0.3915 -0.9940 -1.0507
  110SAPE    C211362   0.105   1.509   3.097  0.2632 -0.9357 -0.6218
  110SAPE    HS11363   0.163   1.415   3.108 -0.9454 -1.6025  0.3069
  110SAPE   O2111364  -0.027   1.491   3.144 -0.7022  0.0060  0.2995
  110SAPE   C2111365  -0.068   1.362   3.126  0.1109  1.5729  0.3298
  110SAPE   O2211366  -0.005   1.275   3.071  0.4836 -0.7056 -0.0590
  110SAPE   C2211367  -0.206   1.337   3.181  0.0315  0.4026  0.0130
  110SAPE   H2R11368  -0.278   1.411   3.140  1.3097  1.5140 -0.2809
  110SAPE   H2S11369  -0.251   1.239   3.153  1.6180 -1.3325  3.0256
  110SAPE    C311370   0.175   1.614   3.194  0.3138 -0.5023 -0.5128
  110SAPE    HX11371   0.261   1.658   3.139  1.0108 -0.3506  0.6621
  110SAPE    HY11372   0.102   1.697   3.203 -0.4035 -1.0993 -0.7438
  110SAPE   O3111373   0.203   1.573   3.330  0.2018 -0.2481  0.2587
  110SAPE   C3111374   0.323   1.507   3.340  0.0430 -0.7414  0.0272
  110SAPE   O3211375   0.413   1.507   3.258  0.2609 -0.6359 -0.5279
  110SAPE   C3211376   0.325   1.436   3.477 -0.0436 -0.1388  0.2166
  110SAPE   H2X11377   0.270   1.340   3.475 -3.1720  1.4892 -3.1827
  110SAPE   H2Y11378   0.264   1.501   3.543 -0.6178  0.6160 -1.0191
  110SAPE   C2311379  -0.207   1.349   3.336 -0.2619  0.2613  0.6855
  110SAPE   H3R11380  -0.120   1.297   3.379 -0.1901  1.5114  2.1457
  110SAPE   H3S11381  -0.295   1.294   3.374 -1.5943  1.1317 -0.9777
  110SAPE   C2411382  -0.206   1.497   3.378  0.4273  0.4016  0.1226
  110SAPE   H4R11383  -0.283   1.550   3.318  0.5135  1.0698  0.5918
  110SAPE   H4S11384  -0.105   1.541   3.372  0.5943  0.2825  1.5302
  110SAPE   C2511385  -0.241   1.503   3.516 -0.9214 -0.7654 -1.0740
  110SAPE   H5R11386  -0.315   1.424   3.535  0.2938 -1.8308 -0.5953
  110SAPE   C2611387  -0.196   1.586   3.618  0.3399  0.1609 -0.0534
  110SAPE   H6R11388  -0.220   1.566   3.723  1.3201  1.5448  0.4620
  110SAPE   C2711389  -0.096   1.697   3.600  0.2033 -0.2163  0.3313
  110SAPE   H7R11390  -0.041   1.686   3.504  1.2162  1.2802  0.7147
  110SAPE   H7S11391  -0.021   1.689   3.681 -0.7946  0.9999  1.4166
  110SAPE   C2811392  -0.156   1.837   3.608 -0.1511  0.0951 -0.0493
  110SAPE   H8R11393  -0.198   1.882   3.517 -0.7845  0.8122  0.5807
  110SAPE   C2911394  -0.168   1.918   3.713 -0.1129  0.3730  0.9642
  110SAPE   H9R11395  -0.200   2.022   3.698  4.8672  2.2576  1.4803
  110SAPE  C21011396  -0.118   1.894   3.857  1.9466  0.4442  0.3444
  110SAPE  H10R11397  -0.009   1.914   3.851  1.9114  0.6869  0.5165
  110SAPE  H10S11398  -0.142   1.791   3.893  0.4312  0.5646 -0.2349
  110SAPE  C21111399  -0.178   1.987   3.960  0.3853 -0.8960 -0.4106
  110SAPE  H11R11400  -0.250   2.064   3.930  0.4974 -1.3283 -1.8954
  110SAPE  C21211401  -0.157   1.977   4.092  0.5130 -0.2111 -0.5371
  110SAPE  H12R11402  -0.213   2.044   4.158 -2.2029 -2.6192 -0.2209
  110SAPE  C21311403  -0.066   1.879   4.160  0.3218 -0.1929  0.7885
  110SAPE  H13R11404   0.017   1.841   4.095 -1.6884 -0.7571 -1.6186
  110SAPE  H13S11405  -0.133   1.793   4.185 -1.5482  0.7282 -0.7404
  110SAPE  C21411406   0.000   1.937   4.284  0.5659  0.2805  0.7265
  110SAPE  H14R11407   0.040   2.038   4.267 -0.9547  0.9831  1.1674
  110SAPE  C21511408  -0.008   1.881   4.404 -0.2130 -0.3417 -0.7284
  110SAPE  H15R11409   0.062   1.928   4.475 -1.5710  1.7619 -0.6949
  110SAPE  C21611410  -0.083   1.759   4.448  0.0268 -0.5927  0.5657
  110SAPE  H16R11411  -0.005   1.689   4.486  1.3140  0.6890  0.3950
  110SAPE  H16S11412  -0.106   1.697   4.358  0.8695  0.1072 -0.1573
  110SAPE  C21711413  -0.215   1.786   4.528 -0.6323  0.6361  0.3440
  110SAPE  H17R11414  -0.270   1.862   4.469 -1.7008 -0.9387 -0.7672
  110SAPE  H17S11415  -0.182   1.832   4.624 -0.8443  1.2339  0.1337
  110SAPE  C21811416  -0.289   1.653   4.554 -0.0996  0.0059  0.0739
  110SAPE  H18R11417  -0.209   1.586   4.593 -0.5194 -0.0410  0.8779
  110SAPE  H18S11418  -0.320   1.614   4.455  1.4187 -1.5192  0.1373
  110SAPE  C21911419  -0.398   1.657   4.660  0.8284 -0.2210  0.5341
  110SAPE  H19R11420  -0.484   1.723   4.640 -1.4179 -3.3266 -0.8986
  110SAPE  H19S11421  -0.348   1.703   4.748  1.9490 -0.9624  0.3172
  110SAPE  C22011422  -0.448   1.523   4.714  0.0592 -0.3568  0.1168
  110SAPE  H20R11423  -0.481   1.472   4.621  1.7717  1.0547 -1.3442
  110SAPE  H20S11424  -0.539   1.529   4.777  2.2292  0.5391  3.4175
  110SAPE  H20T11425  -0.367   1.457   4.752  0.2039  0.0491  0.5200
  110SAPE   C3311426   0.461   1.440   3.540  1.0413  0.1255 -0.0627
  110SAPE   H3X11427   0.495   1.545   3.553  0.9495 -0.0502  1.8541
  110SAPE   H3Y11428   0.532   1.374   3.486  0.2784  0.2338 -1.2497
  110SAPE   C3411429   0.440   1.390   3.686  0.1732 -0.4081 -0.4158
  110SAPE   H4X11430   0.401   1.286   3.690  1.2126 -0.7691  1.5379
  110SAPE   H4Y11431   0.376   1.458   3.747  1.2008  0.9177 -0.7776
  110SAPE   C3511432   0.576   1.365   3.761  0.0572 -0.6659  0.6287
  110SAPE   H5X11433   0.616   1.465   3.786  1.2901 -1.0935  0.4141
  110SAPE   H5Y11434   0.638   1.304   3.691  1.9525 -0.5735  2.1410
  110SAPE   C3611435   0.565   1.274   3.879  0.2466 -0.0408 -0.8229
  110SAPE   H6X11436   0.547   1.177   3.829  0.8830 -0.5522 -0.0759
  110SAPE   H6Y11437   0.485   1.319   3.942  1.3753  0.4243  0.3240
  110SAPE   C3711438   0.703   1.278   3.962  0.2978 -0.1488 -0.8353
  110SAPE   H7X11439   0.725   1.380   3.999 -0.8927 -0.2462  0.2347
  110SAPE   H7Y11440   0.773   1.252   3.880  1.1775 -1.6075  0.3234
  110SAPE   C3811441   0.715   1.182   4.080  0.4667 -0.0811  0.5114
  110SAPE   H8X11442   0.818   1.160   4.116  0.4606 -1.0288 -0.0191
  110SAPE   H8Y11443   0.684   1.080   4.047 -1.3812  0.8637 -0.8411
  110SAPE   C3911444   0.649   1.223   4.202  0.4808 -0.3603  0.1093
  110SAPE   H9X11445   0.562   1.279   4.164  1.4858 -0.8991 -3.3401
  110SAPE   H9Y11446   0.719   1.289   4.257  1.4211 -0.5992 -0.7595
  110SAPE  C31011447   0.603   1.114   4.299 -0.3579 -0.5285  0.4403
  110SAPE  H10X11448   0.682   1.038   4.318 -0.9223 -1.8872 -2.3012
  110SAPE  H10Y11449   0.518   1.061   4.253  0.5701 -2.2124  0.5900
  110SAPE  C31111450   0.558   1.175   4.430  0.3355 -0.2098  0.0297
  110SAPE  H11X11451   0.471   1.242   4.412  0.1844 -0.7688 -1.5676
  110SAPE  H11Y11452   0.633   1.241   4.478 -0.6276  0.0853  1.1815
  110SAPE  C31211453   0.498   1.075   4.531 -0.4333 -0.1961  0.1308
  110SAPE  H12X11454   0.432   1.008   4.472  0.7789 -0.0665 -1.4402
  110SAPE  H12Y11455   0.430   1.134   4.598 -0.9019 -1.8304  1.1556
  110SAPE  C31311456   0.601   0.995   4.616  0.5616  0.8450  0.5762
  110SAPE  H13X11457   0.695   1.052   4.636 -0.1903  1.4863  2.5650
  110SAPE  H13Y11458   0.628   0.916   4.543 -1.9242 -0.6661  1.1900
  110SAPE  C31411459   0.546   0.940   4.745 -0.1118  0.0455  0.7344
  110SAPE  H14X11460   0.515   1.024   4.811  1.4358  2.6454 -1.6341
  110SAPE  H14Y11461   0.626   0.884   4.797  1.6144  0.5100 -1.2977
  110SAPE  C31511462   0.448   0.825   4.717  0.5563 -0.2126  1.2990
  110SAPE  H15X11463   0.500   0.733   4.681  0.8332  0.6842 -0.7196
  110SAPE  H15Y11464   0.383   0.852   4.632  0.7723 -0.7598  0.9515
  110SAPE  C31611465   0.362   0.786   4.837  0.5056 -0.0721  0.7781
  110SAPE  H16X11466   0.293   0.702   4.814 -0.3820  1.0204 -0.7162
  110SAPE  H16Y11467   0.289   0.865   4.868 -1.7582 -1.7066 -0.0627
  110SAPE  C31711468   0.436   0.759   4.968  0.0337  0.0636  0.0439
  110SAPE  H17X11469   0.374   0.709   5.045 -1.5401 -1.7006 -2.2529
  110SAPE  H17Y11470   0.487   0.850   5.007 -0.0172  0.8328 -1.5790
  110SAPE  C31811471   0.544   0.654   4.944 -0.3354 -0.1339 -0.3675
  110SAPE  H18X11472   0.494   0.571   4.890 -0.9615 -1.0033  1.4692
  110SAPE  H18Y11473   0.587   0.616   5.039 -0.7152 -0.0353 -0.1536
  110SAPE  H18Z11474   0.626   0.699   4.884  0.7360 -2.7635 -0.9942
  111SAPE     N11475   6.566   1.838   2.685 -0.3646  0.1296 -0.1593
  111SAPE   HN111476   6.633   1.916   2.675 -1.7474  1.2719 -0.8391
  111SAPE   HN211477   6.470   1.874   2.704 -0.3116  0.7831 -1.1049
  111SAPE   HN311478   6.591   1.778   2.766  0.2908 -0.1337 -0.5466
  111SAPE   C1211479   6.566   1.767   2.557 -0.4875  0.3280 -0.0096
  111SAPE  H12A11480   6.674   1.756   2.531 -1.1641  0.2156 -3.2063
  111SAPE  H12B11481   6.516   1.821   2.474 -1.3665 -0.2126  0.1538
  111SAPE   C1111482   6.507   1.628   2.572  0.0710  0.5876  0.0121
  111SAPE  H11A11483   6.575   1.566   2.633  0.0295  0.7281  0.2041
  111SAPE  H11B11484   6.493   1.583   2.472  1.4978  0.9753 -0.3723
  111SAPE     P11485   6.277   1.523   2.602  0.2205 -0.1877  0.3933
  111SAPE   O1311486   6.253   1.538   2.457  0.2826 -0.1795  0.0867
  111SAPE   O1411487   6.308   1.388   2.655  0.7630 -0.3749 -0.1084
  111SAPE   O1211488   6.386   1.626   2.644 -0.4256  0.8631 -0.4889
  111SAPE   O1111489   6.157   1.579   2.685 -0.2152 -0.0514  0.3219
  111SAPE    C111490   6.147   1.720   2.719 -0.5122  0.3955  0.1781
  111SAPE    HA11491   6.224   1.782   2.669 -1.9991  0.9769 -1.5038
  111SAPE    HB11492   6.053   1.759   2.675 -0.6316 -0.0210  0.0626
  111SAPE    C211493   6.161   1.743   2.864  0.0938  0.6291 -0.1228
  111SAPE    HS11494   6.259   1.701   2.896 -0.8862  0.6148  3.3295
  111SAPE   O2111495   6.056   1.672   2.945  0.5674 -0.1436 -0.0177
  111SAPE   C2111496   6.089   1.611   3.054  0.3213  0.0351  0.1265
  111SAPE   O2211497   6.203   1.575   3.086 -0.1013 -0.1636  0.5743
  111SAPE   C2211498   5.958   1.592   3.134  0.3465 -0.2491 -0.9229
  111SAPE   H2R11499   5.908   1.691   3.149  1.1538  0.2705 -1.5943
  111SAPE   H2S11500   5.893   1.522   3.078 -1.4580 -0.2246  1.0232
  111SAPE    C311501   6.157   1.897   2.901  0.2275  0.8348  0.8308
  111SAPE    HX11502   6.056   1.939   2.882  1.0652  2.2470 -0.6629
  111SAPE    HY11503   6.230   1.951   2.837  1.8398 -1.4513  0.5962
  111SAPE   O3111504   6.176   1.916   3.037 -0.3677  0.2281 -0.0482
  111SAPE   C3111505   6.309   1.911   3.082  0.2704 -0.6776  0.0646
  111SAPE   O3211506   6.406   1.867   3.020 -0.3048  0.7054  0.2116
  111SAPE   C3211507   6.321   1.974   3.233  0.4732  0.2914  0.2328
  111SAPE   H2X11508   6.307   2.083   3.225 -0.3774  0.2386  0.8644
  111SAPE   H2Y11509   6.430   1.960   3.251  0.6233 -0.5211 -1.1651
  111SAPE   C2311510   5.975   1.525   3.271  0.0606  0.1204 -0.1931
  111SAPE   H3R11511   6.028   1.429   3.258 -0.7920 -0.1186 -2.1860
  111SAPE   H3S11512   5.870   1.494   3.293  0.5192 -2.3255 -1.1583
  111SAPE   C2411513   6.046   1.597   3.370 -0.3213  0.6243 -0.2260
  111SAPE   H4R11514   6.020   1.704   3.358 -2.9168  0.1031  0.2680
  111SAPE   H4S11515   6.156   1.595   3.352 -0.2214  2.7750 -0.0982
  111SAPE   C2511516   6.011   1.557   3.510  0.2403 -0.5873  0.5394
  111SAPE   H5R11517   5.902   1.564   3.523 -0.0449 -0.6035 -1.5200
  111SAPE   C2611518   6.089   1.485   3.606  0.1303 -0.1355  0.5758
  111SAPE   H6R11519   6.043   1.466   3.704 -0.0293 -0.8753  0.3634
  111SAPE   C2711520   6.232   1.451   3.593  0.2442 -1.0984 -0.1014
  111SAPE   H7R11521   6.254   1.409   3.492 -1.8337  0.4713 -1.2833
  111SAPE   H7S11522   6.250   1.366   3.663 -1.1692 -1.1874  0.1886
  111SAPE   C2811523   6.302   1.585   3.621 -0.3198  0.2481  0.2228
  111SAPE   H8R11524   6.339   1.641   3.534 -0.6930  1.7847  1.0244
  111SAPE   C2911525   6.312   1.639   3.745 -0.1879  0.6559 -0.0523
  111SAPE   H9R11526   6.368   1.733   3.758 -0.3824  0.9155 -1.0488
  111SAPE  C21011527   6.254   1.596   3.879 -0.3750  0.6790 -0.7003
  111SAPE  H10R11528   6.338   1.602   3.951 -1.5472 -2.0924  1.0637
  111SAPE  H10S11529   6.230   1.488   3.872  1.5239  0.1645  0.0896
  111SAPE  C21111530   6.124   1.651   3.926  0.1288  0.2807  0.0425
  111SAPE  H11R11531   6.034   1.614   3.875  0.0688 -0.3427  0.5878
  111SAPE  C21211532   6.104   1.741   4.032  0.6355 -0.2556 -0.2170
  111SAPE  H12R11533   6.003   1.780   4.052  0.6564 -0.7297  0.9140
  111SAPE  C21311534   6.223   1.810   4.099  0.2508 -0.0311 -0.2074
  111SAPE  H13R11535   6.312   1.745   4.113  0.5620  0.3196 -0.5366
  111SAPE  H13S11536   6.200   1.844   4.202 -2.5720  0.2743 -0.8565
  111SAPE  C21411537   6.270   1.929   4.013 -0.3040  0.6399  0.0309
  111SAPE  H14R11538   6.262   1.913   3.905 -1.7353 -1.3925  0.3844
  111SAPE  C21511539   6.319   2.047   4.058  0.0726  0.1965 -0.0016
  111SAPE  H15R11540   6.347   2.123   3.983 -3.6321  1.7596 -0.0447
  111SAPE  C21611541   6.320   2.093   4.199 -0.7355 -0.5786 -0.5344
  111SAPE  H16R11542   6.411   2.155   4.212 -0.3766 -1.1857 -0.0933
  111SAPE  H16S11543   6.336   2.017   4.279 -0.4270  1.7719  1.7786
  111SAPE  C21711544   6.200   2.174   4.234 -0.4538  0.5490 -0.1735
  111SAPE  H17R11545   6.182   2.257   4.162 -1.6726  0.9141  0.5233
  111SAPE  H17S11546   6.213   2.224   4.332  0.9476  0.5742 -0.3574
  111SAPE  C21811547   6.072   2.085   4.239  0.7154 -0.0477  0.5797
  111SAPE  H18R11548   6.102   1.999   4.303 -3.2899 -1.5720  0.6806
  111SAPE  H18S11549   6.040   2.047   4.139 -2.0360 -1.8031  1.9834
  111SAPE  C21911550   5.950   2.132   4.319  0.7030  0.7830 -0.5421
  111SAPE  H19R11551   5.936   2.240   4.297  1.0317  1.1511  0.9436
  111SAPE  H19S11552   5.981   2.118   4.424  2.4561 -2.9525 -1.3922
  111SAPE  C22011553   5.818   2.070   4.268 -0.0662  0.0728 -0.5339
  111SAPE  H20R11554   5.727   2.123   4.303  1.1407  1.3783  0.7883
  111SAPE  H20S11555   5.798   1.968   4.305 -0.6789  1.0432  2.0733
  111SAPE  H20T11556   5.819   2.072   4.157  2.9506 -1.5839 -0.6606
  111SAPE   C3311557   6.218   1.909   3.331 -0.4128 -0.6416  0.3683
  111SAPE   H3X11558   6.268   1.816   3.366  1.2628 -0.1339 -0.5657
  111SAPE   H3Y11559   6.119   1.886   3.286 -0.0483  0.0725 -0.8364
  111SAPE   C3411560   6.191   1.982   3.463  0.8095 -0.6689 -0.5604
  111SAPE   H4X11561   6.135   2.075   3.440 -0.8521 -1.4557  0.1867
  111SAPE   H4Y11562   6.290   2.013   3.503  0.9475  0.1889 -1.5127
  111SAPE   C3511563   6.091   1.912   3.562  0.6485  0.1469  0.0768
  111SAPE   H5X11564   6.136   1.810   3.570 -1.7213 -0.8449  2.3795
  111SAPE   H5Y11565   5.991   1.893   3.517  0.7605 -1.5384  0.4417
  111SAPE   C3611566   6.080   1.979   3.699  0.5708 -0.4747  0.0703
  111SAPE   H6X11567   6.183   2.003   3.732  0.3529 -0.7339  0.9410
  111SAPE   H6Y11568   6.016   1.925   3.771  0.0150  1.5504  1.1783
  111SAPE   C3711569   6.014   2.121   3.691 -0.1731  0.1072 -0.5651
  111SAPE   H7X11570   5.909   2.099   3.661 -0.0432 -2.2513  0.5328
  111SAPE   H7Y11571   6.080   2.184   3.628  1.3462 -3.1749 -2.5218
  111SAPE   C3811572   5.986   2.192   3.820 -0.1931  0.6191 -0.0779
  111SAPE   H8X11573   6.089   2.212   3.857 -0.2985  0.1498  0.4765
  111SAPE   H8Y11574   5.930   2.122   3.886  1.5199 -1.8006 -1.0387
  111SAPE   C3911575   5.922   2.332   3.811  0.1838  0.6682 -0.2511
  111SAPE   H9X11576   5.824   2.310   3.763  0.3059 -1.3959  0.3412
  111SAPE   H9Y11577   5.971   2.403   3.741  0.2900 -1.9276 -2.9995
  111SAPE  C31011578   5.931   2.408   3.943 -0.4347  0.1686  0.3182
  111SAPE  H10X11579   6.034   2.441   3.967 -0.3258  0.0064  0.0734
  111SAPE  H10Y11580   5.907   2.339   4.027  3.3161 -2.4677 -0.5116
  111SAPE  C31111581   5.828   2.528   3.959  0.3486  0.3515 -0.6745
  111SAPE  H11X11582   5.723   2.498   3.940 -0.6020  1.2416  2.5284
  111SAPE  H11Y11583   5.849   2.613   3.891  0.5177  1.7087  1.0062
  111SAPE  C31211584   5.813   2.590   4.102  0.5574  0.5952 -0.5086
  111SAPE  H12X11585   5.746   2.679   4.106  0.6297  0.6100  1.4166
  111SAPE  H12Y11586   5.910   2.610   4.152 -0.2509 -0.5114  1.6386
  111SAPE  C31311587   5.756   2.484   4.202 -0.3281 -0.6413 -0.0126
  111SAPE  H13X11588   5.814   2.390   4.205  0.1334 -0.3428  1.0431
  111SAPE  H13Y11589   5.652   2.472   4.166 -0.7960  0.4287  0.9208
  111SAPE  C31411590   5.749   2.539   4.351 -0.1366  0.0620 -0.4618
  111SAPE  H14X11591   5.832   2.613   4.352  1.4891 -1.6588  0.9690
  111SAPE  H14Y11592   5.759   2.463   4.431 -1.1875  1.9990  1.6413
  111SAPE  C31511593   5.618   2.611   4.364  0.4850  0.0797  0.8470
  111SAPE  H15X11594   5.540   2.531   4.359 -1.2386  1.5532  2.5743
  111SAPE  H15Y11595   5.600   2.677   4.277  0.9584 -1.5666 -0.5529
  111SAPE  C31611596   5.581   2.680   4.499 -0.0918 -0.3554  0.4067
  111SAPE  H16X11597   5.484   2.732   4.490 -0.1698 -0.8357 -2.2967
  111SAPE  H16Y11598   5.656   2.762   4.510  1.8941 -1.9335 -0.5156
  111SAPE  C31711599   5.594   2.592   4.624 -0.1138 -0.1420 -0.7024
  111SAPE  H17X11600   5.694   2.545   4.626  0.3850  0.7863 -2.2508
  111SAPE  H17Y11601   5.528   2.503   4.614  1.9574 -2.1416  1.9295
  111SAPE  C31811602   5.569   2.664   4.759 -0.2989 -0.0561  0.1906
  111SAPE  H18X11603   5.644   2.744   4.772  0.3886 -1.1372  3.7627
  111SAPE  H18Y11604   5.563   2.590   4.842 -0.1445 -0.7463 -0.3994
  111SAPE  H18Z11605   5.466   2.705   4.763  0.1694  1.1911  4.9048
  112SAPE     N11606   2.108   3.377   2.258  0.4862 -0.3117 -0.3131
  112SAPE   HN111607   2.074   3.405   2.164 -0.7003  0.7782  0.4093
  112SAPE   HN211608   2.029   3.373   2.326  1.3541  2.3910  0.9941
  112SAPE   HN311609   2.180   3.440   2.299  0.7775 -0.5091 -0.5170
  112SAPE   C1211610   2.170   3.247   2.255  0.7484  0.4127 -0.0628
  112SAPE  H12A11611   2.275   3.257   2.220  1.3517 -2.2373  0.7390
  112SAPE  H12B11612   2.108   3.183   2.189  0.1898  0.8535  0.0308
  112SAPE   C1111613   2.176   3.175   2.392  0.4477  0.1271 -0.6059
  112SAPE  H11A11614   2.235   3.243   2.457  1.3815  0.6320 -1.9323
  112SAPE  H11B11615   2.222   3.074   2.392 -0.6710 -0.4650  2.0378
  112SAPE     P11616   1.953   3.046   2.451 -0.6457  0.1618  0.2130
  112SAPE   O1311617   1.827   3.080   2.524  0.1182  0.0383  0.1123
  112SAPE   O1411618   1.935   2.987   2.312  0.0186  0.2514 -0.3633
  112SAPE   O1211619   2.050   3.172   2.455  0.2224 -0.6445 -0.7161
  112SAPE   O1111620   2.033   2.940   2.537 -0.2769  0.9178  1.0555
  112SAPE    C111621   2.082   2.967   2.666 -0.1081  0.3797 -0.0045
  112SAPE    HA11622   2.169   3.035   2.661 -0.8440  1.5685  1.9195
  112SAPE    HB11623   2.001   3.023   2.718 -1.7608 -1.6249 -0.2689
  112SAPE    C211624   2.115   2.842   2.746 -0.2668  0.1188  0.0354
  112SAPE    HS11625   2.190   2.780   2.693 -1.4893 -0.9331 -0.5107
  112SAPE   O2111626   1.990   2.767   2.764 -0.1945 -0.2896  0.1689
  112SAPE   C2111627   2.004   2.643   2.793 -0.3253  0.0403  0.2996
  112SAPE   O2211628   2.106   2.578   2.785  0.0646  0.2468  0.3879
  112SAPE   C2211629   1.869   2.579   2.823  0.4404 -0.7719  0.2163
  112SAPE   H2R11630   1.797   2.659   2.850  2.6795  1.0997  0.9145
  112SAPE   H2S11631   1.845   2.532   2.725 -0.5015  2.5144 -1.2444
  112SAPE    C311632   2.175   2.881   2.886  0.3572 -0.3102  0.5478
  112SAPE    HX11633   2.201   2.783   2.931 -0.4774 -2.3699 -3.0575
  112SAPE    HY11634   2.087   2.916   2.944 -0.3037 -0.6986 -0.1900
  112SAPE   O3111635   2.277   2.981   2.881 -0.1449  0.2166 -0.1722
  112SAPE   C3111636   2.346   2.980   2.997  0.3382  0.1873  0.2356
  112SAPE   O3211637   2.324   2.905   3.087  0.2854 -0.0697 -0.6117
  112SAPE   C3211638   2.452   3.097   2.986 -0.1971 -0.1840 -0.0769
  112SAPE   H2X11639   2.389   3.185   2.958  1.2016  1.0335  0.4667
  112SAPE   H2Y11640   2.520   3.071   2.901  0.2614 -0.8942  0.4954
  112SAPE   C2311641   1.875   2.470   2.937  0.4819 -0.3932  0.1250
  112SAPE   H3R11642   1.954   2.400   2.901  0.4232  0.2125 -1.2350
  112SAPE   H3S11643   1.777   2.417   2.938 -0.4128  1.1702 -0.6431
  112SAPE   C2411644   1.898   2.545   3.073  0.4709  0.7416  0.2396
  112SAPE   H4R11645   2.003   2.583   3.080  2.2583 -3.1174 -2.0340
  112SAPE   H4S11646   1.885   2.466   3.151 -2.9456  0.1165 -0.7977
  112SAPE   C2511647   1.802   2.656   3.108 -0.2526 -0.3725 -0.4977
  112SAPE   H5R11648   1.755   2.716   3.029  0.5654 -0.0061 -0.7187
  112SAPE   C2611649   1.778   2.682   3.240  0.7918 -0.0266 -0.2894
  112SAPE   H6R11650   1.723   2.773   3.265  1.2385 -0.8586  4.5606
  112SAPE   C2711651   1.831   2.616   3.365 -0.8162  0.2480  0.1053
  112SAPE   H7R11652   1.909   2.669   3.423  0.5037 -0.1560 -1.2415
  112SAPE   H7S11653   1.882   2.520   3.339 -1.1509  0.2825 -0.7304
  112SAPE   C2811654   1.715   2.583   3.453  0.0589  0.4261 -0.5429
  112SAPE   H8R11655   1.628   2.536   3.406  0.6112 -2.6390  1.1421
  112SAPE   C2911656   1.715   2.582   3.588 -1.2002 -0.6586  0.4395
  112SAPE   H9R11657   1.627   2.551   3.646 -0.8020  0.3657  1.6445
  112SAPE  C21011658   1.830   2.612   3.684 -0.0448 -0.9594 -0.9942
  112SAPE  H10R11659   1.900   2.693   3.658  0.9112 -0.1715  3.2835
  112SAPE  H10S11660   1.891   2.519   3.677  1.4734 -0.0769 -0.0166
  112SAPE  C21111661   1.788   2.644   3.825  0.2906  0.4018 -0.2870
  112SAPE  H11R11662   1.733   2.738   3.817  0.4586  0.4638 -0.7536
  112SAPE  C21211663   1.818   2.586   3.949  0.5296 -0.4089  0.3328
  112SAPE  H12R11664   1.775   2.634   4.038 -0.0664 -0.6336  0.1711
  112SAPE  C21311665   1.894   2.459   3.972  0.0797 -0.4179 -1.1362
  112SAPE  H13R11666   1.867   2.389   3.890 -0.6817  1.5470 -2.6397
  112SAPE  H13S11667   1.845   2.416   4.063 -0.3953 -0.6610 -1.4996
  112SAPE  C21411668   2.042   2.477   3.997 -0.0888 -0.1184 -0.1373
  112SAPE  H14R11669   2.105   2.487   3.907  1.5209 -0.7515  0.8810
  112SAPE  C21511670   2.112   2.458   4.110 -0.2646 -0.1319  0.1660
  112SAPE  H15R11671   2.222   2.463   4.106 -0.3142  3.2424  0.1435
  112SAPE  C21611672   2.047   2.450   4.242  0.3871 -0.0882  0.0340
  112SAPE  H16R11673   1.982   2.359   4.237 -1.0828  0.8398  1.2999
  112SAPE  H16S11674   1.981   2.535   4.270  0.4854 -0.0541  0.1611
  112SAPE  C21711675   2.133   2.439   4.372 -0.6634  0.6162 -0.6325
  112SAPE  H17R11676   2.197   2.349   4.357 -0.5385  0.8296 -1.3986
  112SAPE  H17S11677   2.065   2.416   4.457 -1.1990 -0.0889 -1.2381
  112SAPE  C21811678   2.226   2.556   4.410  1.0938  0.3773  0.9570
  112SAPE  H18R11679   2.156   2.640   4.391 -0.0190  0.1666  3.7305
  112SAPE  H18S11680   2.305   2.552   4.331 -0.1124  1.0547 -0.3369
  112SAPE  C21911681   2.269   2.549   4.555  0.2446  0.1871  0.2096
  112SAPE  H19R11682   2.178   2.547   4.618  0.5465  1.5485  0.7234
  112SAPE  H19S11683   2.307   2.650   4.584  1.3777 -0.5261  1.3128
  112SAPE  C22011684   2.368   2.438   4.605 -0.5327 -0.1991  0.0168
  112SAPE  H20R11685   2.462   2.436   4.546 -0.6124  0.0692 -0.1218
  112SAPE  H20S11686   2.335   2.334   4.587  0.0154 -0.5021  0.6969
  112SAPE  H20T11687   2.405   2.455   4.709  0.0658 -0.3648 -0.1632
  112SAPE   C3311688   2.526   3.133   3.119 -0.0930  0.1520  0.0802
  112SAPE   H3X11689   2.463   3.113   3.208  1.9923 -0.3419  1.5028
  112SAPE   H3Y11690   2.553   3.241   3.114 -1.8754  0.5796 -2.7091
  112SAPE   C3411691   2.648   3.045   3.131 -0.5979 -0.7876 -0.7303
  112SAPE   H4X11692   2.702   3.058   3.034  1.1351 -1.6198  0.0785
  112SAPE   H4Y11693   2.615   2.939   3.136 -0.7586 -0.6740  0.9258
  112SAPE   C3511694   2.747   3.085   3.249  0.9548  0.0276 -0.1663
  112SAPE   H5X11695   2.699   3.082   3.349 -0.1560  1.2476 -0.6300
  112SAPE   H5Y11696   2.783   3.188   3.228 -0.0632  0.0772 -1.8683
  112SAPE   C3611697   2.875   2.999   3.259  0.2546 -0.8536  0.6695
  112SAPE   H6X11698   2.907   3.001   3.152 -0.1757  2.8345  0.4863
  112SAPE   H6Y11699   2.858   2.891   3.275 -1.4451 -1.0835 -2.0225
  112SAPE   C3711700   2.983   3.036   3.361  0.0800 -0.5360  0.6862
  112SAPE   H7X11701   2.989   3.146   3.349 -1.2818 -0.5487 -0.2706
  112SAPE   H7Y11702   3.074   2.980   3.331 -1.0413 -1.5722 -0.9275
  112SAPE   C3811703   2.958   2.998   3.502  0.2702 -0.4400  0.2079
  112SAPE   H8X11704   2.978   2.889   3.511  0.6521 -0.4987 -1.1991
  112SAPE   H8Y11705   2.855   3.020   3.537 -0.8980 -1.3774 -2.4570
  112SAPE   C3911706   3.044   3.075   3.604  0.7720 -0.2157  0.1494
  112SAPE   H9X11707   3.045   3.181   3.572 -3.9806  0.3235  1.0337
  112SAPE   H9Y11708   3.145   3.029   3.595  0.8103 -0.3331  1.0949
  112SAPE  C31011709   2.989   3.058   3.739 -0.5078  1.1136 -0.1788
  112SAPE  H10X11710   2.948   2.956   3.751  1.0378  0.4858  0.0039
  112SAPE  H10Y11711   2.911   3.134   3.762 -0.8862  0.7924 -0.3866
  112SAPE  C31111712   3.092   3.090   3.844  0.1256  0.5489 -0.3159
  112SAPE  H11X11713   3.175   3.161   3.821  1.1078 -0.1834  0.7843
  112SAPE  H11Y11714   3.145   2.996   3.871 -1.4314 -0.0596  0.7516
  112SAPE  C31211715   3.033   3.135   3.979 -0.9053  0.0381  0.1154
  112SAPE  H12X11716   2.952   3.061   3.996 -1.4442  0.2980 -1.1721
  112SAPE  H12Y11717   2.986   3.235   3.968  1.6496  1.2124 -0.9712
  112SAPE  C31311718   3.122   3.124   4.103 -0.2988 -0.2297 -0.0563
  112SAPE  H13X11719   3.202   3.200   4.110  1.1118 -1.7235  0.4566
  112SAPE  H13Y11720   3.180   3.029   4.104  0.2000  0.0532  2.4830
  112SAPE  C31411721   3.050   3.140   4.235  0.8475  0.1288 -0.6062
  112SAPE  H14X11722   2.960   3.074   4.234  0.7573  0.2523 -1.2363
  112SAPE  H14Y11723   3.014   3.241   4.263  1.4806  0.0411  0.5482
  112SAPE  C31511724   3.132   3.079   4.356  0.4506 -0.8332  0.0011
  112SAPE  H15X11725   3.231   3.129   4.364 -0.6318  1.7819 -1.5581
  112SAPE  H15Y11726   3.153   2.975   4.326 -1.2011 -0.3293 -3.3725
  112SAPE  C31611727   3.058   3.102   4.492 -0.5061 -0.3255 -0.0194
  112SAPE  H16X11728   2.960   3.050   4.495 -0.5776 -0.1614  0.5536
  112SAPE  H16Y11729   3.040   3.207   4.525 -0.3139 -0.5400  0.8042
  112SAPE  C31711730   3.133   3.023   4.606 -0.8989  0.7471  0.1540
  112SAPE  H17X11731   3.143   3.076   4.703  3.2899 -0.3956  0.5347
  112SAPE  H17Y11732   3.236   3.013   4.568 -0.9014  1.8786 -0.1734
  112SAPE  C31811733   3.095   2.871   4.617 -1.2319  0.2590  0.3576
  112SAPE  H18X11734   2.984   2.867   4.625 -1.3547  2.2242 -0.0217
  112SAPE  H18Y11735   3.156   2.822   4.697 -1.5215 -0.8665 -0.0845
  112SAPE  H18Z11736   3.106   2.825   4.516 -3.0968  0.6998 -0.0955
  113SAPE     N11737   3.248   0.448   2.696 -0.1787  0.1840 -0.1687
  113SAPE   HN111738   3.330   0.418   2.640 -0.0848 -1.4346  0.7890
  113SAPE   HN211739   3.181   0.501   2.636  1.1250  1.3536 -0.6410
  113SAPE   HN311740   3.273   0.514   2.772 -0.1333 -1.2249  1.0815
  113SAPE   C1211741   3.177   0.331   2.763 -0.0143 -0.3094 -0.2632
  113SAPE  H12A11742   3.073   0.362   2.786 -0.1687 -1.0524  0.0842
  113SAPE  H12B11743   3.236   0.311   2.855  0.2865  3.3866  0.5001
  113SAPE   C1111744   3.170   0.204   2.675  0.0948  0.2382 -0.1722
  113SAPE  H11A11745   3.127   0.113   2.722 -2.2037  0.7869 -1.0522
  113SAPE  H11B11746   3.272   0.174   2.641  0.0821 -1.0971  0.8778
  113SAPE     P11747   2.941   0.219   2.539 -0.0511  0.0785  0.5107
  113SAPE   O1311748   2.878   0.348   2.577  0.5355 -0.0433  0.2207
  113SAPE   O1411749   2.901   0.165   2.405 -0.1820  0.2967  0.2825
  113SAPE   O1211750   3.100   0.242   2.557 -0.2167  0.1306  0.7215
  113SAPE   O1111751   2.914   0.108   2.651  0.1869  0.2683 -0.2188
  113SAPE    C111752   2.800   0.100   2.724  0.3935 -0.5038  0.1832
  113SAPE    HA11753   2.723   0.175   2.695  0.1722 -0.7369  0.1664
  113SAPE    HB11754   2.750   0.002   2.707 -0.0860 -0.0233 -1.3008
  113SAPE    C211755   2.815   0.141   2.873  0.2155 -0.0066  0.0787
  113SAPE    HS11756   2.892   0.221   2.878 -1.5991  1.7828  0.4502
  113SAPE   O2111757   2.860   0.025   2.938  0.1793  0.4295 -0.2122
  113SAPE   C2111758   2.963   0.030   3.022  0.3115 -0.1026 -1.0570
  113SAPE   O2211759   3.031   0.130   3.044  0.8210  0.3749  0.4467
  113SAPE   C2211760   2.978  -0.103   3.099 -0.1214 -0.0250  0.2804
  113SAPE   H2R11761   2.875  -0.123   3.137 -0.0010  0.5763  0.9484
  113SAPE   H2S11762   3.015  -0.172   3.021  0.1689 -0.0650  0.4511
  113SAPE    C311763   2.675   0.175   2.931  0.1055  0.0149 -0.2966
  113SAPE    HX11764   2.622   0.077   2.930  1.0614 -0.5054 -0.2732
  113SAPE    HY11765   2.626   0.256   2.872  1.2612  0.2304 -0.9848
  113SAPE   O3111766   2.690   0.226   3.070  0.1983  0.1731  0.1732
  113SAPE   C3111767   2.566   0.260   3.114 -0.4100  0.6196  0.4680
  113SAPE   O3211768   2.462   0.254   3.048 -0.1679 -0.3497  0.2219
  113SAPE   C3211769   2.578   0.297   3.263 -0.2156  0.2409 -0.3155
  113SAPE   H2X11770   2.612   0.403   3.257 -2.2987  1.0815  1.3536
  113SAPE   H2Y11771   2.646   0.224   3.314  0.5093  2.2854  1.8304
  113SAPE   C2311772   3.072  -0.101   3.215 -0.3541 -0.0490 -0.4969
  113SAPE   H3R11773   3.035  -0.043   3.302  0.8529 -1.8306  1.3153
  113SAPE   H3S11774   3.172  -0.069   3.180 -0.0925  0.6173  0.8009
  113SAPE   C2411775   3.095  -0.253   3.254 -0.3452  0.0286  0.3385
  113SAPE   H4R11776   3.150  -0.305   3.173 -1.7155 -0.6739 -0.1793
  113SAPE   H4S11777   2.991  -0.293   3.262  0.2740 -1.3936  2.0077
  113SAPE   C2511778   3.174  -0.258   3.383  0.1363 -0.0080 -0.0790
  113SAPE   H5R11779   3.281  -0.278   3.362  0.5876 -1.5088  3.1510
  113SAPE   C2611780   3.131  -0.225   3.507  0.2604  0.0277 -0.1837
  113SAPE   H6R11781   3.200  -0.227   3.593 -0.7872 -2.6867  0.6961
  113SAPE   C2711782   2.995  -0.186   3.551  0.3491 -0.1560  0.5196
  113SAPE   H7R11783   2.966  -0.090   3.503  0.7817 -0.3017 -0.0398
  113SAPE   H7S11784   3.002  -0.156   3.658 -0.4957  0.0665  0.5243
  113SAPE   C2811785   2.885  -0.285   3.550  0.4435  0.5568 -0.1899
  113SAPE   H8R11786   2.841  -0.312   3.453  0.5080  0.1002 -0.0976
  113SAPE   C2911787   2.845  -0.355   3.659  1.0287 -0.0329  0.1698
  113SAPE   H9R11788   2.769  -0.434   3.649  0.7093  0.1873  0.7942
  113SAPE  C21011789   2.911  -0.345   3.795  0.0289  0.0979 -0.2467
  113SAPE  H10R11790   3.019  -0.320   3.799  0.4506 -1.7723  2.6685
  113SAPE  H10S11791   2.903  -0.443   3.847 -0.6279  0.3958  0.2342
  113SAPE  C21111792   2.854  -0.238   3.882  0.9817 -0.9351  0.5134
  113SAPE  H11R11793   2.780  -0.178   3.827  2.9617 -0.6396 -2.0182
  113SAPE  C21211794   2.890  -0.199   4.005  0.1678  0.2277  0.3150
  113SAPE  H12R11795   2.847  -0.110   4.053 -0.8661  0.4220 -0.8985
  113SAPE  C21311796   2.997  -0.257   4.092  0.0715  0.6732 -0.8029
  113SAPE  H13R11797   3.036  -0.173   4.153  1.0006 -1.9987  2.6000
  113SAPE  H13S11798   3.075  -0.309   4.033  0.6825 -1.7064  1.8926
  113SAPE  C21411799   2.945  -0.366   4.187 -0.1246 -0.0111  0.1114
  113SAPE  H14R11800   2.932  -0.468   4.148  0.5530 -0.4253  0.9530
  113SAPE  C21511801   2.943  -0.347   4.319  0.0810 -0.1539  0.0205
  113SAPE  H15R11802   2.914  -0.434   4.379  1.7171 -0.0383  1.0534
  113SAPE  C21611803   2.979  -0.214   4.391  0.0779  0.0533  0.3167
  113SAPE  H16R11804   2.936  -0.197   4.492  2.9778  0.6435  1.5529
  113SAPE  H16S11805   2.941  -0.130   4.329 -1.1887 -0.2247  0.6791
  113SAPE  C21711806   3.126  -0.189   4.413 -1.1492  0.6919  0.5442
  113SAPE  H17R11807   3.173  -0.207   4.314 -0.5943 -1.0507  1.0997
  113SAPE  H17S11808   3.195  -0.243   4.482 -0.1187  0.1447 -0.8700
  113SAPE  C21811809   3.167  -0.045   4.432  0.3740  0.3593  0.1690
  113SAPE  H18R11810   3.120  -0.006   4.525 -0.9349  1.2400 -0.8378
  113SAPE  H18S11811   3.122   0.016   4.352  0.2665 -0.2629 -0.2574
  113SAPE  C21911812   3.319  -0.020   4.437  0.2336  0.8010  0.6388
  113SAPE  H19R11813   3.358  -0.022   4.334 -0.7070  0.1767  0.2843
  113SAPE  H19S11814   3.377  -0.103   4.483  0.0371  1.2169  1.6771
  113SAPE  C22011815   3.351   0.122   4.491  0.4612 -0.5441 -0.3404
  113SAPE  H20R11816   3.369   0.133   4.600  1.0565  0.4343 -0.5202
  113SAPE  H20S11817   3.269   0.190   4.460  1.4966  0.1643 -1.6127
  113SAPE  H20T11818   3.443   0.156   4.437  1.4179 -2.1758  0.1818
  113SAPE   C3311819   2.441   0.287   3.336  0.0294 -0.5843  0.1397
  113SAPE   H3X11820   2.405   0.182   3.338 -0.6735 -0.3409  0.4749
  113SAPE   H3Y11821   2.368   0.350   3.281 -1.2681 -1.4313  0.8465
  113SAPE   C3411822   2.446   0.358   3.472 -0.4539 -0.1798  0.2517
  113SAPE   H4X11823   2.501   0.454   3.462  1.3768 -1.1341  0.7039
  113SAPE   H4Y11824   2.519   0.299   3.531  0.3657 -0.0493 -0.6114
  113SAPE   C3511825   2.313   0.383   3.547 -0.2417 -0.0332  0.0342
  113SAPE   H5X11826   2.266   0.283   3.540  1.9832 -1.4647  3.5295
  113SAPE   H5Y11827   2.252   0.458   3.492 -1.9626 -2.7741 -2.0516
  113SAPE   C3611828   2.343   0.432   3.687 -0.3169  0.2123  0.6138
  113SAPE   H6X11829   2.412   0.518   3.673 -0.7620  0.8384  2.0845
  113SAPE   H6Y11830   2.386   0.355   3.755  0.3946 -1.5565 -1.7197
  113SAPE   C3711831   2.218   0.479   3.761  0.6623 -0.1839 -0.0749
  113SAPE   H7X11832   2.141   0.398   3.762  1.4044 -0.9348  1.9195
  113SAPE   H7Y11833   2.178   0.570   3.712  0.6108 -0.0978  0.1264
  113SAPE   C3811834   2.245   0.518   3.910  0.2475  0.8521 -0.5020
  113SAPE   H8X11835   2.303   0.612   3.916  0.2175  0.9492 -1.5668
  113SAPE   H8Y11836   2.155   0.549   3.968  1.5511  1.7518  1.1252
  113SAPE   C3911837   2.316   0.406   3.990  0.1001 -0.1798 -0.3964
  113SAPE   H9X11838   2.420   0.396   3.952  0.0486 -0.7006 -0.4151
  113SAPE   H9Y11839   2.256   0.314   3.972 -1.3087  0.6119  0.1034
  113SAPE  C31011840   2.316   0.428   4.139 -0.2821  0.0462  0.4137
  113SAPE  H10X11841   2.327   0.333   4.194  0.9206 -0.3160 -0.4135
  113SAPE  H10Y11842   2.219   0.468   4.176 -0.5187  1.3527 -1.4846
  113SAPE  C31111843   2.435   0.503   4.195  0.0327 -0.2939  0.3743
  113SAPE  H11X11844   2.455   0.597   4.139 -1.7849  0.2283  0.5131
  113SAPE  H11Y11845   2.524   0.439   4.178 -2.0600 -2.8085 -2.1699
  113SAPE  C31211846   2.421   0.535   4.345  0.1382 -0.0923  0.3845
  113SAPE  H12X11847   2.364   0.457   4.401 -1.3367 -0.3652 -1.3750
  113SAPE  H12Y11848   2.364   0.630   4.351  0.3077  0.4652 -3.5956
  113SAPE  C31311849   2.551   0.564   4.423 -0.5597 -0.3012 -0.9178
  113SAPE  H13X11850   2.620   0.478   4.414  1.3329  0.7142  2.1704
  113SAPE  H13Y11851   2.519   0.569   4.530 -1.0507  3.0082 -1.1060
  113SAPE  C31411852   2.622   0.694   4.368  0.1823 -0.1853  0.2276
  113SAPE  H14X11853   2.558   0.785   4.376  0.2818 -0.2671  2.9646
  113SAPE  H14Y11854   2.630   0.678   4.258 -3.6971 -0.3420 -0.1518
  113SAPE  C31511855   2.756   0.720   4.436 -0.1967 -0.9886 -0.2052
  113SAPE  H15X11856   2.814   0.625   4.445 -1.0348 -1.5617 -0.6726
  113SAPE  H15Y11857   2.718   0.738   4.539 -0.5305 -3.0873  0.0897
  113SAPE  C31611858   2.848   0.834   4.369  1.0148 -0.1505  0.1620
  113SAPE  H16X11859   2.773   0.913   4.348  0.9889 -0.5616 -1.3558
  113SAPE  H16Y11860   2.888   0.790   4.276 -0.9379 -1.9836  0.1221
  113SAPE  C31711861   2.952   0.882   4.461  0.1825 -0.0867 -1.3163
  113SAPE  H17X11862   2.913   0.953   4.538 -0.1417 -0.4927 -1.0983
  113SAPE  H17Y11863   3.023   0.946   4.404 -0.7698  2.3398  0.0769
  113SAPE  C31811864   3.026   0.769   4.532 -0.3600 -0.2591 -0.1623
  113SAPE  H18X11865   2.963   0.729   4.615 -2.4651  1.2280 -0.9759
  113SAPE  H18Y11866   3.113   0.819   4.581 -0.5013 -0.7419  0.6046
  113SAPE  H18Z11867   3.060   0.690   4.461  0.4939  0.1534 -0.2339
  114SAPE     N11868   6.526   1.304   2.772 -0.0623 -0.5972  0.1581
  114SAPE   HN111869   6.446   1.331   2.712  1.4131  1.5665 -0.9684
  114SAPE   HN211870   6.529   1.384   2.838 -0.9134 -0.0285 -0.4639
  114SAPE   HN311871   6.615   1.310   2.719 -0.3788  0.0961 -0.3077
  114SAPE   C1211872   6.505   1.170   2.824 -0.1325 -0.2610 -0.1135
  114SAPE  H12A11873   6.410   1.173   2.881  0.8526  1.4022  1.5355
  114SAPE  H12B11874   6.579   1.148   2.903 -0.9763  2.1195  1.4354
  114SAPE   C1111875   6.517   1.064   2.717  0.2788 -0.4645  0.9171
  114SAPE  H11A11876   6.521   0.966   2.770  0.9526 -1.6352 -1.1682
  114SAPE  H11B11877   6.611   1.079   2.661 -0.4926 -0.8376 -0.5156
  114SAPE     P11878   6.285   1.002   2.615  0.0570  0.7946 -0.0172
  114SAPE   O1311879   6.178   1.090   2.562 -0.3512 -0.2461 -0.2713
  114SAPE   O1411880   6.323   0.875   2.547 -0.0270 -0.6730 -0.0689
  114SAPE   O1211881   6.412   1.092   2.627 -0.1957  0.4924 -0.4455
  114SAPE   O1111882   6.265   0.961   2.766  0.2459 -0.2142 -0.2825
  114SAPE    C111883   6.136   0.923   2.813 -1.4096  0.1664  0.0493
  114SAPE    HA11884   6.064   1.008   2.807 -0.1849  1.3014  0.7837
  114SAPE    HB11885   6.098   0.838   2.753 -2.1788  2.2932 -2.6706
  114SAPE    C211886   6.149   0.883   2.958  0.4247 -0.1141  0.0342
  114SAPE    HS11887   6.048   0.843   2.983 -0.1968  0.2928 -1.6596
  114SAPE   O2111888   6.194   0.990   3.037  0.0576  0.0462 -0.4634
  114SAPE   C2111889   6.105   1.082   3.089 -0.4726  0.6483 -0.8136
  114SAPE   O2211890   5.985   1.066   3.087  0.3430  0.9096  0.0453
  114SAPE   C2211891   6.177   1.193   3.156  0.6665 -0.2144  0.3736
  114SAPE   H2R11892   6.283   1.188   3.125  0.8688 -0.5473  1.0933
  114SAPE   H2S11893   6.138   1.287   3.111 -1.8297 -2.1706 -1.9278
  114SAPE    C311894   6.242   0.762   2.964 -0.2250 -0.1869 -0.6608
  114SAPE    HX11895   6.328   0.786   2.898  0.6082 -1.3168 -0.0166
  114SAPE    HY11896   6.201   0.665   2.928  0.3824 -1.1668  1.1682
  114SAPE   O3111897   6.282   0.737   3.099 -0.6878  0.2945 -0.2565
  114SAPE   C3111898   6.400   0.788   3.133 -0.1844  0.1036  0.1710
  114SAPE   O3211899   6.468   0.868   3.072  0.1328 -0.7083 -0.2274
  114SAPE   C3211900   6.438   0.740   3.274  0.9970  0.1523  0.6340
  114SAPE   H2X11901   6.375   0.653   3.298 -0.6107  0.6842 -1.3659
  114SAPE   H2Y11902   6.386   0.816   3.336 -0.0204 -0.9479  1.1659
  114SAPE   C2311903   6.161   1.206   3.310  0.2248 -0.4989  0.2724
  114SAPE   H3R11904   6.053   1.200   3.335 -0.0385  0.4690 -0.5765
  114SAPE   H3S11905   6.190   1.311   3.331  1.1839 -0.6736 -0.1227
  114SAPE   C2411906   6.233   1.107   3.401  0.6207 -0.8581 -0.2046
  114SAPE   H4R11907   6.190   1.006   3.382 -1.4184  0.0385 -0.6053
  114SAPE   H4S11908   6.211   1.146   3.503  0.0297  1.8551 -1.2933
  114SAPE   C2511909   6.379   1.110   3.375 -0.5941 -0.0918 -0.3102
  114SAPE   H5R11910   6.413   1.130   3.273  2.0797  0.8812  0.7003
  114SAPE   C2611911   6.473   1.063   3.460  0.0019  0.1551  0.5406
  114SAPE   H6R11912   6.579   1.066   3.429 -0.8924  0.3983 -2.8097
  114SAPE   C2711913   6.460   1.004   3.601 -0.0668  0.0836 -0.2420
  114SAPE   H7R11914   6.539   0.933   3.635  0.3260  1.9136  3.1359
  114SAPE   H7S11915   6.369   0.940   3.602  0.9261 -1.3574 -0.1725
  114SAPE   C2811916   6.437   1.113   3.710  0.0344  0.1261  0.1842
  114SAPE   H8R11917   6.412   1.209   3.664  3.7064 -0.2194 -3.0787
  114SAPE   C2911918   6.461   1.108   3.840  0.3292 -0.3225 -0.6998
  114SAPE   H9R11919   6.438   1.194   3.904 -2.1494  0.0040 -1.9218
  114SAPE  C21011920   6.510   0.987   3.919  0.2558 -0.0964  0.8359
  114SAPE  H10R11921   6.621   0.990   3.915  0.2438 -0.2592 -3.0056
  114SAPE  H10S11922   6.481   0.894   3.865 -2.0772  0.5147  0.9659
  114SAPE  C21111923   6.456   0.986   4.058  0.4197  0.4753  0.1352
  114SAPE  H11R11924   6.371   0.917   4.066 -0.6988  1.6302 -1.2830
  114SAPE  C21211925   6.508   1.044   4.168  0.1885  1.0014  0.4206
  114SAPE  H12R11926   6.471   1.027   4.270  0.1542 -1.4208  0.0615
  114SAPE  C21311927   6.623   1.138   4.170 -0.2363  0.4984  0.3627
  114SAPE  H13R11928   6.681   1.140   4.075  1.5272 -0.7526  1.3548
  114SAPE  H13S11929   6.699   1.097   4.241 -2.5782 -1.9903  1.6000
  114SAPE  C21411930   6.576   1.273   4.212  0.0380  0.2479  0.0670
  114SAPE  H14R11931   6.475   1.298   4.175  0.3868  2.3771  0.4174
  114SAPE  C21511932   6.634   1.354   4.306 -0.1843  0.2985  0.2156
  114SAPE  H15R11933   6.577   1.439   4.345  0.4141  0.8254 -0.0507
  114SAPE  C21611934   6.765   1.335   4.381 -0.2324 -0.3006 -0.7181
  114SAPE  H16R11935   6.813   1.433   4.400  0.1772 -0.5142 -0.6518
  114SAPE  H16S11936   6.839   1.272   4.328  0.1546 -0.0029 -0.5298
  114SAPE  C21711937   6.741   1.289   4.528 -1.0187  0.3059 -0.8645
  114SAPE  H17R11938   6.709   1.183   4.522  1.3608 -0.4929 -0.5704
  114SAPE  H17S11939   6.662   1.339   4.588 -1.0314 -2.7002  1.9298
  114SAPE  C21811940   6.871   1.274   4.616 -0.6002  0.6239  0.1468
  114SAPE  H18R11941   6.916   1.373   4.637  0.2322  0.3885 -0.4733
  114SAPE  H18S11942   6.944   1.206   4.567 -0.6296  0.4213  0.3826
  114SAPE  C21911943   6.833   1.210   4.752 -0.5988 -0.6757 -0.5537
  114SAPE  H19R11944   6.766   1.122   4.743 -0.3269 -1.0900  1.0916
  114SAPE  H19S11945   6.776   1.287   4.806  1.0301 -0.3623  0.8017
  114SAPE  C22011946   6.968   1.179   4.818  0.3482 -0.1759 -0.2428
  114SAPE  H20R11947   6.951   1.137   4.919 -0.8817 -1.1840 -0.8358
  114SAPE  H20S11948   7.036   1.267   4.820  0.6462 -0.2281 -3.2858
  114SAPE  H20T11949   7.021   1.101   4.759  0.4876  0.9978 -1.7360
  114SAPE   C3311950   6.586   0.734   3.286 -0.2381 -0.4430 -0.5154
  114SAPE   H3X11951   6.629   0.837   3.281 -1.3516  0.0103 -1.1958
  114SAPE   H3Y11952   6.640   0.672   3.211  1.1950  0.9361 -0.6744
  114SAPE   C3411953   6.636   0.676   3.424 -0.2229  0.4294  0.2045
  114SAPE   H4X11954   6.572   0.586   3.436 -1.6640  0.8803 -3.0121
  114SAPE   H4Y11955   6.613   0.762   3.491 -1.3925 -0.0633  0.4524
  114SAPE   C3511956   6.784   0.648   3.436  0.2992  0.5435 -0.0646
  114SAPE   H5X11957   6.837   0.744   3.418 -0.5552  1.3905  1.6575
  114SAPE   H5Y11958   6.823   0.577   3.360  2.2315  0.2938  1.0774
  114SAPE   C3611959   6.828   0.610   3.572 -0.0916 -0.5231 -0.5028
  114SAPE   H6X11960   6.933   0.573   3.578 -0.3946 -1.1444  1.9503
  114SAPE   H6Y11961   6.762   0.533   3.617  1.9985 -1.6071  0.8807
  114SAPE   C3711962   6.818   0.724   3.681  0.2209  0.3285 -0.5637
  114SAPE   H7X11963   6.716   0.770   3.680 -0.1935 -0.5792 -1.3920
  114SAPE   H7Y11964   6.884   0.807   3.648  1.7951 -0.2983  0.8703
  114SAPE   C3811965   6.863   0.681   3.822 -0.3904  0.4854  0.3896
  114SAPE   H8X11966   6.950   0.614   3.804 -1.1950  0.0973 -2.7212
  114SAPE   H8Y11967   6.783   0.615   3.860 -1.0223  0.5821 -0.7482
  114SAPE   C3911968   6.904   0.782   3.922  0.1870 -0.5378  0.4805
  114SAPE   H9X11969   6.822   0.849   3.955 -0.3789 -0.2466 -1.3973
  114SAPE   H9Y11970   6.990   0.845   3.890 -0.2717  1.1518  2.3621
  114SAPE  C31011971   6.962   0.721   4.044  0.1854  0.0482 -0.5766
  114SAPE  H10X11972   7.052   0.664   4.016 -0.4282 -0.2409 -2.0494
  114SAPE  H10Y11973   6.904   0.640   4.094  0.4391  0.1660 -0.0782
  114SAPE  C31111974   7.023   0.819   4.147 -0.0516  0.0184  0.3525
  114SAPE  H11X11975   7.098   0.887   4.101 -2.2275  1.6776 -0.9112
  114SAPE  H11Y11976   7.073   0.754   4.221 -0.2719 -0.0584  0.4343
  114SAPE  C31211977   6.918   0.902   4.211 -0.0185 -0.3565 -0.3422
  114SAPE  H12X11978   6.824   0.845   4.230 -0.8824  1.3657  0.7166
  114SAPE  H12Y11979   6.890   0.978   4.135 -2.4791  1.1785  1.9410
  114SAPE  C31311980   6.961   0.987   4.330 -0.1395  0.3589  0.3381
  114SAPE  H13X11981   6.882   1.053   4.373 -0.2301 -0.4465  1.4482
  114SAPE  H13Y11982   7.048   1.047   4.296  0.9810 -2.0319 -1.2373
  114SAPE  C31411983   7.005   0.899   4.453 -0.5813 -0.9491  0.6383
  114SAPE  H14X11984   7.082   0.960   4.505  0.1090 -1.0156 -0.2913
  114SAPE  H14Y11985   7.063   0.809   4.421  2.7507  0.9339  0.9416
  114SAPE  C31511986   6.881   0.877   4.540  0.3072  0.1762  0.7291
  114SAPE  H15X11987   6.800   0.846   4.470 -0.2284  0.1362  1.3623
  114SAPE  H15Y11988   6.840   0.969   4.588 -1.1580  0.5646 -1.1154
  114SAPE  C31611989   6.897   0.772   4.658 -0.1691 -0.3279 -0.1240
  114SAPE  H16X11990   6.951   0.835   4.732  0.8221 -0.1262 -0.9949
  114SAPE  H16Y11991   6.958   0.686   4.623  0.3753 -0.0611  0.1609
  114SAPE  C31711992   6.762   0.730   4.714 -0.3053  0.5263 -1.1024
  114SAPE  H17X11993   6.783   0.662   4.800 -0.3883  0.7559 -0.8987
  114SAPE  H17Y11994   6.708   0.661   4.647 -0.6744  0.9009 -1.1934
  114SAPE  C31811995   6.665   0.846   4.753  0.2625  0.0329 -0.7509
  114SAPE  H18X11996   6.599   0.806   4.833  1.9861 -1.6368 -0.0997
  114SAPE  H18Y11997   6.591   0.878   4.676 -2.4134  0.6396  1.8669
  114SAPE  H18Z11998   6.722   0.931   4.797 -0.0913 -0.4095  0.6242
  115SAPE     N11999   4.729   1.989   2.348 -0.0647  0.1047  0.0456
  115SAPE   HN112000   4.777   1.900   2.324  0.4610  1.0785 -2.9747
  115SAPE   HN212001   4.700   2.032   2.257  0.7176 -1.7738 -1.1679
  115SAPE   HN312002   4.789   2.059   2.396  1.5909  0.0287 -1.7807
  115SAPE   C1212003   4.617   1.952   2.438 -0.8314  0.9705 -0.1504
  115SAPE  H12A12004   4.652   1.923   2.540  3.4655  1.4172 -1.3066
  115SAPE  H12B12005   4.555   1.868   2.400 -1.9058  0.9628  1.5252
  115SAPE   C1112006   4.534   2.072   2.449 -0.5709  0.1415  0.3012
  115SAPE  H11A12007   4.449   2.041   2.513 -0.5448 -0.6632 -0.0396
  115SAPE  H11B12008   4.486   2.088   2.350  0.5965 -2.1896 -0.7170
  115SAPE     P12009   4.599   2.324   2.434 -0.2768  0.4551  0.1126
  115SAPE   O1312010   4.695   2.417   2.503 -0.2992  0.3119  0.3988
  115SAPE   O1412011   4.628   2.295   2.288  1.0504  0.3364 -0.4185
  115SAPE   O1212012   4.584   2.190   2.518  0.9791  0.4149  0.0160
  115SAPE   O1112013   4.447   2.374   2.455 -0.5798 -0.5277 -0.1946
  115SAPE    C112014   4.375   2.351   2.576  0.9373 -0.3815 -0.0634
  115SAPE    HA12015   4.273   2.388   2.552  1.1706 -0.6497 -1.5532
  115SAPE    HB12016   4.353   2.245   2.605 -0.3526 -0.6085 -1.7292
  115SAPE    C212017   4.423   2.439   2.697 -0.0442  0.0505 -0.3646
  115SAPE    HS12018   4.533   2.424   2.698 -0.2401 -1.5923 -1.0344
  115SAPE   O2112019   4.368   2.388   2.818 -0.1954 -0.0808 -0.1948
  115SAPE   C2112020   4.409   2.448   2.925  0.2063 -0.3608 -0.2792
  115SAPE   O2212021   4.494   2.537   2.928  0.3133 -0.3977 -0.1189
  115SAPE   C2212022   4.332   2.403   3.048  0.2105  0.0629 -0.0180
  115SAPE   H2R12023   4.223   2.404   3.028 -0.5798  0.5265  3.6777
  115SAPE   H2S12024   4.365   2.300   3.073  0.6169 -0.0631 -1.0244
  115SAPE    C312025   4.401   2.588   2.661  0.2477  0.2958 -0.3019
  115SAPE    HX12026   4.411   2.603   2.552 -1.8249  0.4599 -0.5094
  115SAPE    HY12027   4.488   2.641   2.706  1.5682 -1.5766 -0.5396
  115SAPE   O3112028   4.270   2.623   2.706  0.4874 -0.4150 -0.8390
  115SAPE   C3112029   4.216   2.720   2.646 -0.3683 -0.3978 -0.3112
  115SAPE   O3212030   4.270   2.794   2.565  0.4679  0.4993  0.9437
  115SAPE   C3212031   4.075   2.731   2.690  0.9271 -0.4572  0.1684
  115SAPE   H2X12032   4.028   2.641   2.644 -0.7073  0.5879 -0.2739
  115SAPE   H2Y12033   4.031   2.823   2.647 -0.1630 -0.9305  0.2381
  115SAPE   C2312034   4.348   2.513   3.152  0.4220  0.3079 -0.7060
  115SAPE   H3R12035   4.312   2.613   3.119  0.5584  1.6147  2.7056
  115SAPE   H3S12036   4.457   2.516   3.176 -0.1505  1.9497  2.0322
  115SAPE   C2412037   4.277   2.477   3.283 -0.1486 -0.3558  0.9856
  115SAPE   H4R12038   4.325   2.390   3.333  2.2007 -0.3516 -1.0589
  115SAPE   H4S12039   4.169   2.453   3.272  0.1405 -0.8824 -1.0109
  115SAPE   C2512040   4.294   2.594   3.376 -0.3084 -0.8980  0.1458
  115SAPE   H5R12041   4.313   2.689   3.323 -0.2593 -0.8586  0.2355
  115SAPE   C2612042   4.310   2.590   3.509 -0.0363  1.0886  0.5554
  115SAPE   H6R12043   4.341   2.676   3.570  0.6540  0.8332  0.5691
  115SAPE   C2712044   4.302   2.459   3.587 -0.2681 -0.5846 -0.4243
  115SAPE   H7R12045   4.406   2.434   3.615  0.5293  1.1893 -1.6111
  115SAPE   H7S12046   4.269   2.365   3.538  0.6471 -1.4979  0.6624
  115SAPE   C2812047   4.215   2.482   3.705  0.1531 -0.0070  0.1797
  115SAPE   H8R12048   4.135   2.557   3.709 -1.8392 -2.0560  2.2311
  115SAPE   C2912049   4.213   2.389   3.806  0.1957  0.3429  0.3665
  115SAPE   H9R12050   4.128   2.394   3.876 -0.2261  1.1443 -0.1880
  115SAPE  C21012051   4.305   2.266   3.818  0.2710  0.2835 -0.5255
  115SAPE  H10R12052   4.394   2.298   3.875 -2.3640 -1.4321  5.3306
  115SAPE  H10S12053   4.342   2.226   3.721  0.4927 -0.6552 -0.0673
  115SAPE  C21112054   4.257   2.159   3.916 -0.2950 -0.0099 -0.0492
  115SAPE  H11R12055   4.212   2.076   3.860  0.1930  1.0437 -2.1174
  115SAPE  C21212056   4.262   2.161   4.051 -0.2727 -0.4601  0.6495
  115SAPE  H12R12057   4.212   2.080   4.106 -1.1376 -0.0107  0.5397
  115SAPE  C21312058   4.306   2.270   4.137 -0.6850 -0.2839 -0.2110
  115SAPE  H13R12059   4.326   2.358   4.072  2.3245 -0.3774  0.4210
  115SAPE  H13S12060   4.402   2.229   4.178 -0.9771 -0.3417  0.4284
  115SAPE  C21412061   4.210   2.304   4.245 -0.0328  0.0452  0.0620
  115SAPE  H14R12062   4.114   2.343   4.208 -0.6972 -2.3583 -0.9039
  115SAPE  C21512063   4.227   2.293   4.379  0.3856 -0.3275 -0.3679
  115SAPE  H15R12064   4.143   2.317   4.447  1.0850 -0.2796  0.5022
  115SAPE  C21612065   4.339   2.248   4.466 -1.4554  0.1143 -0.6390
  115SAPE  H16R12066   4.364   2.334   4.532 -0.4160 -0.5747 -0.1104
  115SAPE  H16S12067   4.418   2.212   4.396 -1.6583  0.5311 -1.0867
  115SAPE  C21712068   4.300   2.134   4.558  0.0835  0.0159 -0.8943
  115SAPE  H17R12069   4.210   2.169   4.612  0.2674 -0.2811 -0.3903
  115SAPE  H17S12070   4.381   2.128   4.634 -0.7234 -1.4723 -0.1210
  115SAPE  C21812071   4.292   2.003   4.476  0.3218 -0.5032  0.1937
  115SAPE  H18R12072   4.379   1.979   4.411  0.3725 -2.0625  0.7904
  115SAPE  H18S12073   4.206   2.008   4.406  1.1604 -0.1567 -0.8321
  115SAPE  C21912074   4.270   1.885   4.562  0.3034  0.3030 -0.5928
  115SAPE  H19R12075   4.271   1.802   4.488  0.4749  0.2292 -0.5094
  115SAPE  H19S12076   4.169   1.885   4.607 -0.0562 -1.8623 -1.2925
  115SAPE  C22012077   4.382   1.844   4.660 -0.2110 -0.6031  0.3163
  115SAPE  H20R12078   4.475   1.827   4.602 -1.5539 -0.6311 -1.9317
  115SAPE  H20S12079   4.353   1.747   4.707 -2.4027 -1.5878 -2.7744
  115SAPE  H20T12080   4.395   1.924   4.736 -1.3984 -0.3262  0.2528
  115SAPE   C3312081   4.055   2.736   2.837  0.0367 -1.4744 -0.8355
  115SAPE   H3X12082   4.118   2.659   2.888  1.7004  0.9160  0.9200
  115SAPE   H3Y12083   3.949   2.728   2.868 -0.4927  0.4417 -1.9501
  115SAPE   C3412084   4.109   2.872   2.892 -0.6534 -0.4913  0.2115
  115SAPE   H4X12085   4.034   2.950   2.868 -1.6681 -1.1134  1.2449
  115SAPE   H4Y12086   4.206   2.906   2.850 -0.1564 -1.1494  0.7974
  115SAPE   C3512087   4.115   2.856   3.044  0.3408 -0.0728 -0.2196
  115SAPE   H5X12088   4.184   2.779   3.086  0.8878  0.3800 -0.2847
  115SAPE   H5Y12089   4.012   2.836   3.081  0.1404  1.7435  0.3174
  115SAPE   C3612090   4.140   2.995   3.100 -0.7311  0.0845  0.2096
  115SAPE   H6X12091   4.076   3.080   3.069  0.1106  1.2138  1.4330
  115SAPE   H6Y12092   4.242   3.018   3.062 -1.0134 -0.6270 -1.0056
  115SAPE   C3712093   4.167   2.989   3.253 -0.2448  0.0602 -0.0167
  115SAPE   H7X12094   4.179   3.094   3.287  3.2813 -0.2825  0.1401
  115SAPE   H7Y12095   4.263   2.934   3.268 -0.5531 -0.5681 -0.2989
  115SAPE   C3812096   4.071   2.918   3.349  0.0945  0.0759 -0.3980
  115SAPE   H8X12097   4.055   2.817   3.305 -1.6215 -0.9900  2.4114
  115SAPE   H8Y12098   3.974   2.971   3.338  0.5466  0.5226 -2.9665
  115SAPE   C3912099   4.135   2.923   3.494  0.6627  0.5122  0.4721
  115SAPE   H9X12100   4.152   3.030   3.519  2.2207  0.1513  1.0417
  115SAPE   H9Y12101   4.231   2.867   3.495 -0.9503 -2.4297  1.2926
  115SAPE  C31012102   4.041   2.862   3.602 -0.7404  0.5937 -0.0714
  115SAPE  H10X12103   3.988   2.769   3.573 -1.1960  0.5913  0.7344
  115SAPE  H10Y12104   3.963   2.938   3.623 -2.6456 -1.7572  2.0369
  115SAPE  C31112105   4.107   2.833   3.737  0.4905 -0.3294 -0.1286
  115SAPE  H11X12106   4.139   2.931   3.778  0.4264  1.0430 -3.1068
  115SAPE  H11Y12107   4.191   2.763   3.718 -0.8344 -1.4949 -2.1130
  115SAPE  C31212108   4.013   2.778   3.840  0.4110  0.7372 -0.4424
  115SAPE  H12X12109   3.983   2.676   3.809  0.4254  0.2471  1.0953
  115SAPE  H12Y12110   3.915   2.831   3.852 -0.4609 -0.2339 -2.5964
  115SAPE  C31312111   4.079   2.770   3.975  0.2452 -0.3632 -0.5265
  115SAPE  H13X12112   4.098   2.873   4.012 -1.0632  0.1127 -1.1212
  115SAPE  H13Y12113   4.180   2.724   3.975 -0.0082 -0.9367 -1.1243
  115SAPE  C31412114   3.996   2.707   4.090  0.0414  0.1825  0.1396
  115SAPE  H14X12115   3.970   2.606   4.051 -1.2777  0.5168  0.0970
  115SAPE  H14Y12116   3.902   2.765   4.101  0.5345  0.8327  1.0441
  115SAPE  C31512117   4.066   2.670   4.222 -0.5894 -1.2763 -0.3304
  115SAPE  H15X12118   4.163   2.619   4.202 -0.4647 -1.4949  0.7697
  115SAPE  H15Y12119   3.995   2.598   4.269 -0.3805 -1.0115  0.4038
  115SAPE  C31612120   4.065   2.801   4.303 -0.4168 -0.3722  0.1694
  115SAPE  H16X12121   3.958   2.821   4.328  0.3154  1.3536  2.2570
  115SAPE  H16Y12122   4.109   2.881   4.240 -0.3044 -0.4248  0.1815
  115SAPE  C31712123   4.153   2.775   4.429 -0.9966 -0.1896 -0.5483
  115SAPE  H17X12124   4.248   2.732   4.392 -1.8909 -1.0036 -1.9575
  115SAPE  H17Y12125   4.097   2.707   4.497  0.7099  0.2905  1.4528
  115SAPE  C31812126   4.203   2.901   4.507  0.3512  0.1574 -0.0894
  115SAPE  H18X12127   4.288   2.952   4.457  0.9581 -1.0197 -0.2932
  115SAPE  H18Y12128   4.237   2.863   4.606 -0.9701 -1.9462 -0.3677
  115SAPE  H18Z12129   4.116   2.970   4.519 -0.2215 -0.3922 -0.9391
  116SAPE     N12130   4.303   3.227   2.425  0.3225  0.2882 -0.3011
  116SAPE   HN112131   4.267   3.199   2.331  2.3360 -2.2215 -0.4384
  116SAPE   HN212132   4.262   3.323   2.426 -3.0994 -0.9957 -1.5149
  116SAPE   HN312133   4.407   3.234   2.426  0.4483 -0.8087  2.5091
  116SAPE   C1212134   4.251   3.137   2.530  0.0436 -0.2828  0.5416
  116SAPE  H12A12135   4.316   3.047   2.525  2.0568  1.1052  0.7266
  116SAPE  H12B12136   4.146   3.106   2.508 -1.8731  5.2485  0.4277
  116SAPE   C1112137   4.256   3.209   2.665 -0.4441  0.6312 -0.0935
  116SAPE  H11A12138   4.360   3.240   2.686  0.1711 -1.0891 -0.4104
  116SAPE  H11B12139   4.229   3.125   2.732 -0.5107 -1.1383 -2.2094
  116SAPE     P12140   4.161   3.442   2.750  0.1175 -0.3283  0.1233
  116SAPE   O1312141   4.246   3.536   2.676 -0.1399  0.3618  0.3436
  116SAPE   O1412142   4.022   3.485   2.779 -0.0655  0.6791  0.2440
  116SAPE   O1212143   4.155   3.306   2.667  0.1864  0.4525 -0.3248
  116SAPE   O1112144   4.231   3.405   2.885  0.2519 -0.3991  0.1624
  116SAPE    C112145   4.253   3.504   2.992  0.2625  0.4054 -0.5764
  116SAPE    HA12146   4.340   3.569   2.967  0.1164  0.6156 -0.5399
  116SAPE    HB12147   4.172   3.580   3.003  1.8264  2.1184 -0.3683
  116SAPE    C212148   4.296   3.433   3.125 -0.1362 -0.2662  0.2145
  116SAPE    HS12149   4.348   3.516   3.179 -1.5048  1.7852 -1.4475
  116SAPE   O2112150   4.385   3.323   3.108  1.2683 -0.7850  0.4263
  116SAPE   C2112151   4.497   3.348   3.042 -0.0622  0.1958 -0.5453
  116SAPE   O2212152   4.555   3.457   3.038  0.7302 -0.8320  0.5337
  116SAPE   C2212153   4.555   3.214   2.993 -0.5277  0.1757 -0.4121
  116SAPE   H2R12154   4.626   3.184   3.072 -1.8123  1.1596  1.1733
  116SAPE   H2S12155   4.471   3.142   3.005  0.2303 -0.9945 -1.8140
  116SAPE    C312156   4.169   3.389   3.209 -0.1244  0.0737 -0.4940
  116SAPE    HX12157   4.186   3.324   3.297 -2.8395 -0.2231 -0.1138
  116SAPE    HY12158   4.122   3.323   3.133  1.2752  1.6311 -2.8437
  116SAPE   O3112159   4.080   3.496   3.255 -0.3166  0.4324 -0.0861
  116SAPE   C3112160   3.954   3.476   3.241  0.3598 -0.5514  0.3577
  116SAPE   O3212161   3.901   3.382   3.185 -0.5096  0.4874  0.6947
  116SAPE   C3212162   3.881   3.610   3.295  0.0704  0.3506  0.8582
  116SAPE   H2X12163   3.856   3.657   3.197  0.9181  0.2197  0.5726
  116SAPE   H2Y12164   3.959   3.669   3.347  0.2008  0.0440  1.0135
  116SAPE   C2312165   4.635   3.222   2.864  0.2514  0.2453 -0.1395
  116SAPE   H3R12166   4.694   3.315   2.856  0.8223  0.0841  1.6883
  116SAPE   H3S12167   4.559   3.229   2.784  1.0543 -1.8706 -1.1862
  116SAPE   C2412168   4.731   3.104   2.847 -0.6800  0.6281 -0.4107
  116SAPE   H4R12169   4.800   3.106   2.934  0.6501  0.8709 -1.4466
  116SAPE   H4S12170   4.797   3.142   2.766  1.0927  1.4476  1.3148
  116SAPE   C2512171   4.671   2.963   2.828 -0.0805 -0.0971 -0.6012
  116SAPE   H5R12172   4.627   2.955   2.728 -0.2301 -0.2204 -0.5255
  116SAPE   C2612173   4.652   2.864   2.914  0.3838  0.5415 -0.3044
  116SAPE   H6R12174   4.610   2.767   2.885 -1.9475  0.3385  3.1141
  116SAPE   C2712175   4.701   2.862   3.061 -0.1796 -0.1976  0.6476
  116SAPE   H7R12176   4.707   2.961   3.111 -1.7473  0.7388 -0.8743
  116SAPE   H7S12177   4.805   2.826   3.074  0.6261  1.7570 -0.0470
  116SAPE   C2812178   4.607   2.784   3.154 -0.1767 -0.2802  0.3058
  116SAPE   H8R12179   4.536   2.712   3.109 -2.8179  1.9565  0.6144
  116SAPE   C2912180   4.601   2.800   3.287 -0.2782 -0.6851 -0.3767
  116SAPE   H9R12181   4.533   2.740   3.349  0.2482 -1.5264 -0.6050
  116SAPE  C21012182   4.678   2.895   3.379  0.4450 -0.8031 -0.1927
  116SAPE  H10R12183   4.757   2.946   3.321  0.1492 -1.7120 -1.4412
  116SAPE  H10S12184   4.723   2.829   3.457 -0.4207  1.5530  2.4793
  116SAPE  C21112185   4.591   3.000   3.438  0.0202  0.4639 -0.2276
  116SAPE  H11R12186   4.554   3.077   3.368 -1.6531 -2.1881 -2.4527
  116SAPE  C21212187   4.549   2.997   3.561  0.1740  0.1236 -0.2980
  116SAPE  H12R12188   4.477   3.070   3.601  0.6911  1.0998 -1.0877
  116SAPE  C21312189   4.578   2.882   3.656 -1.0394  0.4035  0.4797
  116SAPE  H13R12190   4.687   2.867   3.671 -0.6523  2.2745 -0.2320
  116SAPE  H13S12191   4.541   2.784   3.619 -0.2002 -0.3824  1.6246
  116SAPE  C21412192   4.525   2.917   3.796  0.3354 -0.1049  0.0763
  116SAPE  H14R12193   4.538   3.024   3.819  2.1223 -0.3671  0.4227
  116SAPE  C21512194   4.490   2.828   3.894  0.6396 -0.1899 -0.8745
  116SAPE  H15R12195   4.470   2.862   3.997 -0.6778  3.4135 -2.1761
  116SAPE  C21612196   4.489   2.679   3.895 -0.7429  0.3606  0.1976
  116SAPE  H16R12197   4.562   2.651   3.817 -1.3946 -2.4037  0.4805
  116SAPE  H16S12198   4.386   2.637   3.887 -1.1807  1.7269 -2.4712
  116SAPE  C21712199   4.545   2.620   4.029  0.4456 -0.0835  0.1973
  116SAPE  H17R12200   4.639   2.676   4.047 -0.7932  1.9317  0.7571
  116SAPE  H17S12201   4.567   2.514   4.003  2.2418  0.5948 -1.2779
  116SAPE  C21812202   4.448   2.630   4.148 -0.1419  0.9895 -0.0457
  116SAPE  H18R12203   4.345   2.595   4.122 -0.8079  0.8063  2.5036
  116SAPE  H18S12204   4.439   2.738   4.169  0.0979  0.2586  5.3532
  116SAPE  C21912205   4.493   2.559   4.275  1.0222  0.0229  0.7772
  116SAPE  H19R12206   4.501   2.449   4.261 -1.0802 -0.1432  0.5982
  116SAPE  H19S12207   4.413   2.578   4.350  2.2265  1.3687  1.7705
  116SAPE  C22012208   4.626   2.606   4.329  0.0070 -0.4139 -0.2670
  116SAPE  H20R12209   4.611   2.708   4.369 -0.5193 -0.9198  0.8843
  116SAPE  H20S12210   4.707   2.622   4.255 -0.7832  2.3754 -0.6194
  116SAPE  H20T12211   4.650   2.532   4.409 -2.8196 -0.3161  0.7898
  116SAPE   C3312212   3.750   3.576   3.366  0.1013  1.2559  0.0874
  116SAPE   H3X12213   3.692   3.489   3.328 -0.4680  0.5403  2.4315
  116SAPE   H3Y12214   3.684   3.665   3.363 -0.6607  0.6918 -0.3845
  116SAPE   C3412215   3.769   3.557   3.518  0.1290  0.3718 -0.0616
  116SAPE   H4X12216   3.672   3.534   3.566  2.2062 -1.9374  3.4880
  116SAPE   H4Y12217   3.800   3.657   3.556 -0.5066  0.5598 -0.0260
  116SAPE   C3512218   3.860   3.443   3.555 -0.9292 -0.3019  0.3521
  116SAPE   H5X12219   3.963   3.460   3.516 -1.2138 -1.6887 -1.1089
  116SAPE   H5Y12220   3.821   3.347   3.516 -0.2813 -1.1497  1.7156
  116SAPE   C3612221   3.882   3.448   3.705  0.3446  0.1198 -0.4704
  116SAPE   H6X12222   3.779   3.449   3.747  0.4826  1.8445 -0.0746
  116SAPE   H6Y12223   3.925   3.546   3.736 -1.3483  0.6479  0.3481
  116SAPE   C3712224   3.968   3.330   3.748 -0.0951 -0.6972 -0.1007
  116SAPE   H7X12225   4.074   3.360   3.736 -0.3415  1.1460  1.7076
  116SAPE   H7Y12226   3.949   3.235   3.694 -0.4789 -0.9404  0.4491
  116SAPE   C3812227   3.927   3.295   3.894 -0.4748  0.2695  0.2080
  116SAPE   H8X12228   3.818   3.274   3.888 -0.1579 -1.1537 -2.7800
  116SAPE   H8Y12229   3.948   3.387   3.951  5.0254 -0.6075  0.1068
  116SAPE   C3912230   3.996   3.169   3.943 -0.8083  0.1185  0.2861
  116SAPE   H9X12231   4.104   3.196   3.949 -0.8001  0.5411 -1.2961
  116SAPE   H9Y12232   3.983   3.092   3.864 -1.5480  1.7375 -1.2410
  116SAPE  C31012233   3.948   3.115   4.082 -0.3322 -0.2735  0.1735
  116SAPE  H10X12234   3.988   3.013   4.102 -0.1485 -0.7979 -2.5119
  116SAPE  H10Y12235   3.837   3.109   4.081 -0.3698  0.3880 -0.7650
  116SAPE  C31112236   3.984   3.203   4.198  0.5952 -0.6125 -0.6767
  116SAPE  H11X12237   3.930   3.156   4.283  0.5699  0.3117 -0.1589
  116SAPE  H11Y12238   3.951   3.309   4.193 -1.5650 -1.2814 -1.4243
  116SAPE  C31212239   4.131   3.194   4.235 -0.2963 -0.0062  0.4483
  116SAPE  H12X12240   4.189   3.198   4.140 -3.5617 -0.6597 -1.7355
  116SAPE  H12Y12241   4.143   3.099   4.290 -2.2610  0.9260  2.6928
  116SAPE  C31312242   4.182   3.300   4.344  0.1905  0.3564  0.2283
  116SAPE  H13X12243   4.130   3.297   4.442  1.1327  0.0319  0.7301
  116SAPE  H13Y12244   4.167   3.399   4.295  2.0308  0.1256 -0.8944
  116SAPE  C31412245   4.331   3.271   4.368  0.4610  0.7544 -0.2919
  116SAPE  H14X12246   4.387   3.244   4.276  1.0388  2.1504 -0.3875
  116SAPE  H14Y12247   4.337   3.186   4.438  0.1684  2.1771  1.5237
  116SAPE  C31512248   4.406   3.387   4.425  0.3369 -0.7093 -0.5179
  116SAPE  H15X12249   4.391   3.471   4.355  0.9719 -1.0813 -1.1172
  116SAPE  H15Y12250   4.516   3.369   4.432  0.2505 -0.6702  2.0972
  116SAPE  C31612251   4.349   3.440   4.561  0.3483  0.0896 -0.3731
  116SAPE  H16X12252   4.338   3.356   4.633 -0.6572  1.3159  0.9832
  116SAPE  H16Y12253   4.248   3.482   4.547  0.9682  2.4984  1.5034
  116SAPE  C31712254   4.448   3.546   4.620  0.5347 -0.0631  0.1070
  116SAPE  H17X12255   4.452   3.639   4.559 -1.2112 -0.2780 -0.3816
  116SAPE  H17Y12256   4.549   3.499   4.623  0.6128  0.1186  0.3072
  116SAPE  C31812257   4.436   3.592   4.763  0.1939 -0.7019  0.0464
  116SAPE  H18X12258   4.329   3.618   4.767  0.3807 -0.0789  1.2986
  116SAPE  H18Y12259   4.509   3.666   4.800 -0.7396 -0.5225  1.5812
  116SAPE  H18Z12260   4.449   3.501   4.826  0.2886 -0.5290  0.2777
  117SOPE     N12261   1.577   6.696   6.784  0.3485 -0.6859 -0.3842
  117SOPE   HN112262   1.530   6.655   6.700 -1.3766 -0.2773  0.3446
  117SOPE   HN212263   1.500   6.696   6.853 -0.6450  0.9148 -1.4340
  117SOPE   HN312264   1.597   6.796   6.765 -0.2293 -0.3695  0.6139
  117SOPE   C1212265   1.705   6.618   6.788  0.2581 -0.3570  0.2151
  117SOPE  H12A12266   1.671   6.512   6.783  1.3330 -0.6942 -0.1639
  117SOPE  H12B12267   1.759   6.632   6.884 -0.3230 -2.3819  0.8874
  117SOPE   C1112268   1.789   6.651   6.668 -0.2271 -0.2181 -0.2258
  117SOPE  H11A12269   1.723   6.632   6.580 -2.9736  1.7695  1.2424
  117SOPE  H11B12270   1.875   6.581   6.658  0.2367  0.3992 -0.6173
  117SOPE     P12271   1.984   6.811   6.724  0.0061 -0.0589 -0.1068
  117SOPE   O1312272   2.009   6.748   6.857 -0.0441 -0.2781  0.1803
  117SOPE   O1412273   2.024   6.953   6.704  0.2721  0.2905 -0.1901
  117SOPE   O1212274   1.838   6.785   6.669  0.1598  0.2106  0.0643
  117SOPE   O1112275   2.063   6.723   6.620  0.2541 -0.3270  0.1653
  117SOPE    C112276   2.041   6.729   6.477 -0.6029 -0.1936 -0.5825
  117SOPE    HA12277   1.944   6.775   6.450  0.3485  1.2783 -1.6556
  117SOPE    HB12278   2.051   6.629   6.429  1.9028 -0.4177  0.2230
  117SOPE    C212279   2.138   6.839   6.415 -0.3681  0.7776  0.1361
  117SOPE    HS12280   2.105   6.935   6.461 -0.9266  0.4571  0.4275
  117SOPE   O2112281   2.123   6.831   6.273  0.5924 -0.3032 -0.0607
  117SOPE   C2112282   2.016   6.895   6.220 -0.0754 -0.1523 -0.0697
  117SOPE   O2212283   1.938   6.963   6.282  0.3077 -0.4538 -0.3098
  117SOPE   C2212284   2.011   6.873   6.072 -0.0197  0.0805 -0.0677
  117SOPE   H2R12285   1.948   6.782   6.061  1.6757 -1.2012  0.4610
  117SOPE   H2S12286   2.109   6.846   6.027 -0.7287 -2.4419 -0.2507
  117SOPE    C312287   2.287   6.804   6.447 -0.1135 -0.0646 -0.6781
  117SOPE    HX12288   2.310   6.697   6.427 -1.6683 -0.9045  1.5826
  117SOPE    HY12289   2.311   6.806   6.555 -0.2360 -2.7748 -0.5300
  117SOPE   O3112290   2.383   6.878   6.381  0.1842 -1.0190 -0.4248
  117SOPE   C3112291   2.393   7.006   6.424 -0.0127  0.2443  0.4909
  117SOPE   O3212292   2.334   7.050   6.524 -0.5549  0.6309  0.3152
  117SOPE   C3212293   2.482   7.097   6.339 -0.5564 -0.1577 -0.3134
  117SOPE   H2X12294   2.579   7.048   6.318 -1.0618 -0.8021 -1.1711
  117SOPE   H2Y12295   2.506   7.187   6.400 -0.2698  0.4854 -1.3559
  117SOPE   C2312296   1.963   6.998   5.987 -0.2284 -0.1686  0.5478
  117SOPE   H3R12297   2.036   7.082   5.988  1.5995 -1.7009  0.4904
  117SOPE   H3S12298   1.865   7.030   6.029 -0.6427  1.5206 -1.5160
  117SOPE   C2412299   1.942   6.955   5.832 -0.5678 -0.4041 -0.5676
  117SOPE   H4R12300   2.046   6.940   5.795 -0.8621  0.2448 -1.6782
  117SOPE   H4S12301   1.898   6.853   5.840 -1.8799  0.2392  1.2060
  117SOPE   C2512302   1.864   7.062   5.751  0.0738  0.1637  0.6699
  117SOPE   H5R12303   1.755   7.049   5.763 -0.0184 -1.1470 -1.1059
  117SOPE   H5S12304   1.900   7.162   5.784  0.6770  0.7364 -1.5437
  117SOPE   C2612305   1.892   7.046   5.599 -0.5285 -0.4800 -0.2915
  117SOPE   H6R12306   2.001   7.030   5.586  0.8471  2.8339  4.5066
  117SOPE   H6S12307   1.838   6.953   5.569 -0.0346  0.0644 -3.2125
  117SOPE   C2712308   1.828   7.160   5.516  0.2729  0.2384  0.2172
  117SOPE   H7R12309   1.742   7.210   5.566  0.7972  2.1856 -0.7030
  117SOPE   H7S12310   1.910   7.235   5.510  0.9151 -0.3364  1.4174
  117SOPE   C2812311   1.786   7.111   5.375  0.4316  0.4834 -0.4522
  117SOPE   H8R12312   1.876   7.060   5.334  0.0952  0.2985 -0.9712
  117SOPE   H8S12313   1.709   7.032   5.389  0.9551 -0.0583 -0.5715
  117SOPE   C2912314   1.730   7.216   5.282 -0.6883 -0.3659  0.1154
  117SOPE   H9112315   1.648   7.274   5.326  0.2427  0.1604  1.2245
  117SOPE  C21012316   1.765   7.243   5.152 -0.2001 -0.2653  0.0495
  117SOPE  H10112317   1.735   7.342   5.115  1.2398  1.6193  3.4763
  117SOPE  C21112318   1.883   7.189   5.081 -0.1248  0.3758 -0.3724
  117SOPE  H11R12319   1.866   7.079   5.083 -1.8268  0.6250  0.7167
  117SOPE  H11S12320   1.971   7.196   5.149 -0.9231  1.4065  0.5925
  117SOPE  C21212321   1.909   7.255   4.944 -0.0143  0.5083 -0.2397
  117SOPE  H12R12322   2.019   7.256   4.929 -0.1676 -1.3753 -2.0500
  117SOPE  H12S12323   1.870   7.359   4.940 -1.0586  0.1301 -0.2122
  117SOPE  C21312324   1.839   7.179   4.840 -0.2225  0.1446  0.3457
  117SOPE  H13R12325   1.734   7.155   4.868 -1.4165 -1.6240 -4.7044
  117SOPE  H13S12326   1.885   7.078   4.830 -2.6237 -0.9123 -0.6594
  117SOPE  C21412327   1.834   7.257   4.710  0.7380  0.3474 -0.2027
  117SOPE  H14R12328   1.940   7.276   4.681  0.1597 -0.4875 -3.2793
  117SOPE  H14S12329   1.772   7.349   4.725 -0.7094 -0.7771  0.9780
  117SOPE  C21512330   1.771   7.186   4.584  0.3020 -0.0943  0.4785
  117SOPE  H15R12331   1.841   7.102   4.559  2.3794  1.6908 -0.0222
  117SOPE  H15S12332   1.783   7.261   4.504 -0.6591  0.5178  0.8924
  117SOPE  C21612333   1.623   7.139   4.606 -0.1076  0.3207  0.5432
  117SOPE  H16R12334   1.595   7.115   4.711 -1.8484 -0.3403 -0.0438
  117SOPE  H16S12335   1.602   7.048   4.547  0.5975  1.2569 -1.2420
  117SOPE  C21712336   1.520   7.244   4.559 -0.2273  0.6921 -0.1705
  117SOPE  H17R12337   1.545   7.294   4.462  2.1224  0.0808  0.0601
  117SOPE  H17S12338   1.528   7.329   4.630  1.4128  0.7953 -0.4472
  117SOPE  C21812339   1.370   7.196   4.560 -0.8480 -0.7209  0.3895
  117SOPE  H18R12340   1.336   7.221   4.663  2.7990  0.3295  1.5046
  117SOPE  H18S12341   1.369   7.086   4.546 -0.0490 -0.5836 -0.8702
  117SOPE  H18T12342   1.313   7.239   4.476 -0.2596  0.0630  0.3858
  117SOPE   C3312343   2.416   7.151   6.211 -0.0949  0.9434 -0.0681
  117SOPE   H3X12344   2.492   7.221   6.169  2.4130 -1.1507  0.7048
  117SOPE   H3Y12345   2.320   7.204   6.225 -0.5444  0.2731 -0.5298
  117SOPE   C3412346   2.395   7.041   6.109  0.3136  0.7303 -0.2324
  117SOPE   H4X12347   2.301   6.990   6.137  0.9063 -0.3752 -0.1893
  117SOPE   H4Y12348   2.461   6.956   6.134  0.5175  1.6671  2.9274
  117SOPE   C3512349   2.401   7.070   5.958 -0.1026 -0.3526  0.4380
  117SOPE   H5X12350   2.490   7.132   5.935 -1.0149 -0.4066 -4.2995
  117SOPE   H5Y12351   2.322   7.140   5.924  1.0132 -0.4234 -2.6303
  117SOPE   C3612352   2.384   6.943   5.875  0.0792  0.4757  0.3817
  117SOPE   H6X12353   2.290   6.891   5.905  0.3818 -0.6982 -0.6525
  117SOPE   H6Y12354   2.471   6.879   5.899  0.9297  0.1765 -2.9866
  117SOPE   C3712355   2.397   6.951   5.715 -0.4653  0.2141 -0.1690
  117SOPE   H7X12356   2.412   6.846   5.681  3.0106  0.7186 -0.4845
  117SOPE   H7Y12357   2.494   7.000   5.694 -0.3813 -0.2026 -0.7803
  117SOPE   C3812358   2.296   7.024   5.646  0.2509  0.7846  0.6190
  117SOPE   H8X12359   2.280   7.124   5.691  0.2190  0.9732  0.1937
  117SOPE   H8Y12360   2.211   6.952   5.659 -0.3154  1.6727  2.0844
  117SOPE   C3912361   2.330   7.038   5.497  0.6045 -0.5238  0.5171
  117SOPE   H9X12362   2.379   6.946   5.459 -0.7890 -0.5686 -1.2981
  117SOPE   H9Y12363   2.400   7.123   5.483  0.2574 -0.1962  0.7418
  117SOPE  C31012364   2.206   7.066   5.410  0.0324  0.2257 -0.1235
  117SOPE  H10X12365   2.171   7.167   5.440  0.1829  1.3411 -3.3174
  117SOPE  H10Y12366   2.131   6.985   5.415  1.0300 -0.7226 -0.0603
  117SOPE  C31112367   2.241   7.076   5.261 -0.1778  0.0973  0.2232
  117SOPE  H11X12368   2.340   7.126   5.254  0.8994 -1.8401  0.5772
  117SOPE  H11Y12369   2.173   7.150   5.214  1.0529  1.0877 -0.0285
  117SOPE  C31212370   2.228   6.945   5.172 -0.2054 -0.1043  0.3709
  117SOPE  H12X12371   2.123   6.910   5.169 -0.5818  0.9529  0.5732
  117SOPE  H12Y12372   2.302   6.874   5.215  1.4299  0.7130 -0.9738
  117SOPE  C31312373   2.258   6.979   5.027 -0.1700 -0.3744 -0.3982
  117SOPE  H13X12374   2.354   7.035   5.025 -1.2690  1.6134 -1.2173
  117SOPE  H13Y12375   2.185   7.056   4.994 -0.4061  1.2330  3.3386
  117SOPE  C31412376   2.263   6.858   4.933 -0.4597  0.6056 -0.5551
  117SOPE  H14X12377   2.159   6.837   4.900 -0.4227  0.3718 -0.5241
  117SOPE  H14Y12378   2.310   6.770   4.981  3.2752  3.2014  1.0675
  117SOPE  C31512379   2.343   6.891   4.809  0.3577 -0.2277  1.0939
  117SOPE  H15X12380   2.369   6.803   4.748  0.7200  1.2708 -1.0110
  117SOPE  H15Y12381   2.432   6.948   4.845  0.3585  2.1494 -2.2412
  117SOPE  C31612382   2.273   6.995   4.728  0.0134 -0.7552  0.7539
  117SOPE  H16X12383   2.333   7.082   4.696  0.1298 -1.1067 -0.0050
  117SOPE  H16Y12384   2.199   7.054   4.786  0.4349  0.5574 -0.0140
  117SOPE  C31712385   2.189   6.932   4.612 -0.5016  0.4088  0.3259
  117SOPE  H17X12386   2.128   6.848   4.650 -0.8068 -0.1845 -1.3793
  117SOPE  H17Y12387   2.264   6.891   4.541  0.2281  1.3274  0.5392
  117SOPE  C31812388   2.115   7.041   4.537 -0.3082  0.8789  0.2922
  117SOPE  H18X12389   2.051   7.003   4.455  2.2197 -2.9585 -0.2079
  117SOPE  H18Y12390   2.187   7.113   4.493  0.2071  0.7999  0.9860
  117SOPE  H18Z12391   2.048   7.100   4.603 -0.4482  1.9178 -0.7556
  118SOPE     N12392   5.490   2.951   7.341  0.3701 -0.0110 -0.0277
  118SOPE   HN112393   5.553   2.960   7.258  1.1400  2.7212  0.7519
  118SOPE   HN212394   5.395   2.984   7.312 -0.6412 -1.8779  0.9853
  118SOPE   HN312395   5.519   3.005   7.425 -0.1192 -1.3396  1.0286
  118SOPE   C1212396   5.470   2.800   7.376 -0.3885 -0.6364  0.4826
  118SOPE  H12A12397   5.414   2.765   7.287  0.3653 -0.5220 -0.0474
  118SOPE  H12B12398   5.411   2.792   7.469  0.8402  2.2246  1.6130
  118SOPE   C1112399   5.607   2.730   7.384 -0.9899  0.4199 -0.6307
  118SOPE  H11A12400   5.571   2.625   7.383 -0.7477  0.3349 -0.5193
  118SOPE  H11B12401   5.650   2.760   7.482  1.0946 -3.4345 -0.1682
  118SOPE     P12402   5.838   2.790   7.296  0.1194 -0.0697 -0.1636
  118SOPE   O1312403   5.883   2.681   7.384  0.0429 -0.5028 -0.0057
  118SOPE   O1412404   5.848   2.928   7.348  0.4302  0.0473 -0.1001
  118SOPE   O1212405   5.688   2.767   7.267  0.2480  0.0406  0.3912
  118SOPE   O1112406   5.900   2.777   7.152  0.3224  0.5670 -0.1843
  118SOPE    C112407   5.878   2.889   7.063  0.1245  0.4336  0.2123
  118SOPE    HA12408   5.923   2.983   7.101  2.8583 -0.9670  0.6509
  118SOPE    HB12409   5.770   2.900   7.038 -0.0578 -0.4764  0.5583
  118SOPE    C212410   5.944   2.865   6.921  0.4926 -0.0294  0.1972
  118SOPE    HS12411   5.969   2.967   6.885 -1.4304  0.0087 -1.1906
  118SOPE   O2112412   5.840   2.813   6.830 -0.4573  0.1577  0.4112
  118SOPE   C2112413   5.743   2.899   6.791 -0.3521 -0.1721  0.3470
  118SOPE   O2212414   5.754   3.018   6.793  0.0962  0.0416 -0.2426
  118SOPE   C2212415   5.632   2.818   6.732  0.3297  0.3945  0.0201
  118SOPE   H2R12416   5.551   2.886   6.697 -1.2985 -1.3033  0.3840
  118SOPE   H2S12417   5.591   2.745   6.804  1.3692 -0.5621 -0.3359
  118SOPE    C312418   6.068   2.785   6.921 -0.3339  0.0384 -0.1581
  118SOPE    HX12419   6.053   2.690   6.977  1.7839 -0.0405  0.3389
  118SOPE    HY12420   6.136   2.835   6.993 -1.3021  0.4836  0.4664
  118SOPE   O3112421   6.136   2.776   6.790 -0.0860 -0.2031  0.5257
  118SOPE   C3112422   6.114   2.671   6.727  0.3983  0.0100  0.2867
  118SOPE   O3212423   6.043   2.576   6.770  0.3112  0.3671  0.0414
  118SOPE   C3212424   6.189   2.677   6.594 -0.9711  0.2993 -0.6136
  118SOPE   H2X12425   6.201   2.576   6.550  0.4645 -0.2413  0.9078
  118SOPE   H2Y12426   6.298   2.694   6.607 -1.1796  1.6856 -0.4940
  118SOPE   C2312427   5.684   2.748   6.606  0.5067 -0.7546 -0.0496
  118SOPE   H3R12428   5.751   2.665   6.638 -0.6114 -1.2832  0.9499
  118SOPE   H3S12429   5.755   2.815   6.552  2.0849 -2.9203 -0.8028
  118SOPE   C2412430   5.574   2.707   6.512 -0.3011 -0.2108 -0.4337
  118SOPE   H4R12431   5.504   2.633   6.557  2.6665 -0.8592  3.6726
  118SOPE   H4S12432   5.518   2.794   6.471 -0.2294  0.0846  0.0894
  118SOPE   C2512433   5.611   2.634   6.383 -0.6731 -0.2297  0.2685
  118SOPE   H5R12434   5.680   2.691   6.317 -1.0669  1.1767  1.0280
  118SOPE   H5S12435   5.673   2.546   6.410  0.3371 -1.2383 -4.4215
  118SOPE   C2612436   5.492   2.603   6.290 -0.2486  0.1424  0.5520
  118SOPE   H6R12437   5.426   2.535   6.349  2.4597 -2.1496  1.1600
  118SOPE   H6S12438   5.433   2.692   6.259 -1.7408 -1.0624 -0.2107
  118SOPE   C2712439   5.551   2.539   6.162  0.0594 -0.0587  0.0196
  118SOPE   H7R12440   5.624   2.615   6.128 -0.6243  0.9154  0.6757
  118SOPE   H7S12441   5.601   2.444   6.193 -1.3547 -0.6665  0.5429
  118SOPE   C2812442   5.448   2.528   6.044  0.1301 -0.0388 -0.3299
  118SOPE   H8R12443   5.354   2.476   6.071 -0.6995  2.6391  2.5716
  118SOPE   H8S12444   5.412   2.630   6.017 -0.7381 -0.5095 -1.0061
  118SOPE   C2912445   5.518   2.470   5.926 -0.1604 -1.0174 -0.5343
  118SOPE   H9112446   5.627   2.462   5.928 -0.1466 -0.8018 -0.4843
  118SOPE  C21012447   5.458   2.422   5.818  0.1593  0.5522 -0.0130
  118SOPE  H10112448   5.529   2.391   5.740  1.9369  2.0944  0.8908
  118SOPE  C21112449   5.312   2.402   5.789  1.2112  0.8810  0.0665
  118SOPE  H11R12450   5.248   2.407   5.879 -1.2955  0.9710 -1.6337
  118SOPE  H11S12451   5.293   2.301   5.747  0.8603 -0.0348  2.2859
  118SOPE  C21212452   5.254   2.512   5.696  0.3238  1.0909 -0.5116
  118SOPE  H12R12453   5.255   2.603   5.761  0.9215  1.7353 -1.4035
  118SOPE  H12S12454   5.150   2.485   5.670  0.5779  1.5977 -2.1490
  118SOPE  C21312455   5.325   2.538   5.567 -0.8532  0.0440  0.6676
  118SOPE  H13R12456   5.394   2.458   5.532 -1.1497  0.4500 -0.9332
  118SOPE  H13S12457   5.400   2.617   5.589 -1.3067  0.0312  2.4131
  118SOPE  C21412458   5.226   2.571   5.451  0.1890  0.4522 -0.3174
  118SOPE  H14R12459   5.166   2.663   5.462 -1.8943 -0.2012 -4.2558
  118SOPE  H14S12460   5.155   2.486   5.437  0.6613  0.2031 -1.2970
  118SOPE  C21512461   5.292   2.582   5.310  0.2735  0.8772  0.3418
  118SOPE  H15R12462   5.339   2.485   5.282 -0.4696  0.2005  1.3740
  118SOPE  H15S12463   5.369   2.662   5.319  0.8544  0.2258  1.4301
  118SOPE  C21612464   5.185   2.617   5.207 -0.2193 -0.2159  0.0416
  118SOPE  H16R12465   5.125   2.705   5.239  0.9636  0.8425 -0.5732
  118SOPE  H16S12466   5.117   2.531   5.187 -0.8558  0.1609  0.5747
  118SOPE  C21712467   5.245   2.641   5.068 -0.4737 -0.4159 -0.3464
  118SOPE  H17R12468   5.304   2.553   5.032 -0.7164 -1.1654  1.0326
  118SOPE  H17S12469   5.306   2.733   5.077 -0.5490 -0.1363 -2.2694
  118SOPE  C21812470   5.138   2.685   4.965 -0.4599 -0.0428  0.3607
  118SOPE  H18R12471   5.176   2.749   4.883 -0.1087 -0.8312 -0.1023
  118SOPE  H18S12472   5.065   2.755   5.012  0.1535  1.4583 -0.8466
  118SOPE  H18T12473   5.097   2.589   4.925  0.0627 -0.4176  0.7081
  118SOPE   C3312474   6.124   2.787   6.509  0.4367  0.0224 -0.1983
  118SOPE   H3X12475   6.117   2.875   6.577  1.4299  0.1879 -0.2904
  118SOPE   H3Y12476   6.021   2.761   6.478  0.5830 -0.2918 -0.4193
  118SOPE   C3412477   6.204   2.823   6.387 -0.0965 -0.4816 -0.0076
  118SOPE   H4X12478   6.143   2.877   6.312  0.3099  0.3944  0.2781
  118SOPE   H4Y12479   6.235   2.733   6.329  0.1802 -0.0774 -0.4978
  118SOPE   C3512480   6.333   2.912   6.414  0.9715  0.1386 -0.3806
  118SOPE   H5X12481   6.400   2.856   6.482 -0.4089  0.8486  1.6762
  118SOPE   H5Y12482   6.306   3.010   6.458 -2.4339 -0.1325 -1.5574
  118SOPE   C3612483   6.401   2.942   6.281  0.1247  0.4100  0.1551
  118SOPE   H6X12484   6.345   3.027   6.236 -0.2411 -0.5814 -1.3263
  118SOPE   H6Y12485   6.385   2.856   6.213 -0.0746  2.9557 -3.3287
  118SOPE   C3712486   6.549   2.971   6.304  0.0672 -1.0231 -0.7998
  118SOPE   H7X12487   6.583   2.896   6.378 -0.5003 -0.7149 -0.2113
  118SOPE   H7Y12488   6.563   3.075   6.340 -1.3643 -1.3285  0.8313
  118SOPE   C3812489   6.651   2.957   6.181 -0.1787 -0.6788 -0.0831
  118SOPE   H8X12490   6.624   2.861   6.131  0.4182 -1.7441  1.5412
  118SOPE   H8Y12491   6.758   2.950   6.211  0.0625 -3.2523 -1.2420
  118SOPE   C3912492   6.643   3.071   6.079 -0.1711  0.0013  0.2477
  118SOPE   H9X12493   6.648   3.159   6.146 -0.2010 -0.0907  0.3715
  118SOPE   H9Y12494   6.546   3.064   6.025  0.7000 -0.6552 -1.3141
  118SOPE  C31012495   6.759   3.063   5.975 -0.3815 -0.5992  0.7181
  118SOPE  H10X12496   6.745   2.971   5.913  1.9367  0.6143 -1.8244
  118SOPE  H10Y12497   6.859   3.053   6.023  0.5660 -2.8619 -1.5166
  118SOPE  C31112498   6.772   3.180   5.873 -0.0292  0.5756 -0.9047
  118SOPE  H11X12499   6.847   3.152   5.796 -0.5708 -3.6449 -0.1272
  118SOPE  H11Y12500   6.805   3.274   5.923 -1.7019  1.2569 -1.0221
  118SOPE  C31212501   6.633   3.207   5.797 -0.3601  0.2233  0.1141
  118SOPE  H12X12502   6.650   3.285   5.720  1.6334 -0.4176 -0.1558
  118SOPE  H12Y12503   6.552   3.227   5.870 -0.3236 -1.4128  0.6580
  118SOPE  C31312504   6.590   3.084   5.716 -0.1786  0.4508  0.8183
  118SOPE  H13X12505   6.489   3.105   5.673  0.1539  0.8365  0.2103
  118SOPE  H13Y12506   6.581   2.986   5.768 -0.6832  1.0691  1.9105
  118SOPE  C31412507   6.692   3.045   5.608  0.1897 -0.2722 -0.3612
  118SOPE  H14X12508   6.649   2.957   5.556  0.4374  0.2299 -1.4521
  118SOPE  H14Y12509   6.790   3.030   5.657 -0.1280  1.3094  0.8462
  118SOPE  C31512510   6.714   3.144   5.490 -0.8295  1.0526 -0.0371
  118SOPE  H15X12511   6.770   3.231   5.531  1.9428 -0.6454  0.0008
  118SOPE  H15Y12512   6.615   3.171   5.447 -0.2435  4.1744  0.2747
  118SOPE  C31612513   6.798   3.081   5.378  0.0051 -1.0072  0.5459
  118SOPE  H16X12514   6.756   3.000   5.314  1.8628 -0.4200 -1.5564
  118SOPE  H16Y12515   6.900   3.061   5.416  0.3615  0.8237  0.6722
  118SOPE  C31712516   6.828   3.203   5.287  0.8271  0.4175 -0.0389
  118SOPE  H17X12517   6.880   3.282   5.345  0.0167  1.1192 -0.2465
  118SOPE  H17Y12518   6.733   3.247   5.249 -0.2961 -2.3984 -0.7562
  118SOPE  C31812519   6.913   3.165   5.168  0.0443  0.0972 -0.0260
  118SOPE  H18X12520   6.857   3.092   5.106 -1.3557 -1.2584  2.6692
  118SOPE  H18Y12521   7.000   3.105   5.200 -0.5793 -0.4205  0.7423
  118SOPE  H18Z12522   6.936   3.253   5.103 -1.2917  0.4146 -0.1010
  119SOPE     N12523   6.318   2.437   7.110  0.2161  0.1651 -0.2420
  119SOPE   HN112524   6.275   2.433   7.205 -3.0385  1.0736 -1.5198
  119SOPE   HN212525   6.413   2.395   7.110  0.8170  1.4570 -0.9413
  119SOPE   HN312526   6.317   2.540   7.092 -0.2554  0.3704  0.8673
  119SOPE   C1212527   6.240   2.373   6.998 -0.0768  0.2562 -0.0336
  119SOPE  H12A12528   6.177   2.450   6.947 -1.3121 -0.2967  0.6099
  119SOPE  H12B12529   6.160   2.306   7.038 -0.2161 -0.4454 -1.4165
  119SOPE   C1112530   6.328   2.283   6.905 -0.2291 -0.0829  0.2550
  119SOPE  H11A12531   6.409   2.342   6.857 -1.3256 -0.9603 -2.8878
  119SOPE  H11B12532   6.280   2.241   6.814  3.6980 -3.5710 -0.5128
  119SOPE     P12533   6.329   2.039   7.003  0.5046 -0.1105 -0.1654
  119SOPE   O1312534   6.315   2.007   7.144 -0.0672 -0.5501  0.2886
  119SOPE   O1412535   6.421   1.954   6.930  0.3077 -0.0780  0.0701
  119SOPE   O1212536   6.383   2.182   6.989 -0.6402 -0.2442  0.4897
  119SOPE   O1112537   6.178   2.044   6.938  0.0411 -0.4444  0.0638
  119SOPE    C112538   6.132   1.932   6.855  0.6283 -0.2166  0.2489
  119SOPE    HA12539   6.027   1.905   6.879  1.2497 -1.1879  2.0652
  119SOPE    HB12540   6.188   1.838   6.877  1.4725 -0.4616 -2.5538
  119SOPE    C212541   6.131   1.960   6.697 -0.7827  0.2889 -0.3832
  119SOPE    HS12542   6.232   2.001   6.677 -1.3078  1.2678 -1.1833
  119SOPE   O2112543   6.025   2.057   6.663 -0.0651  0.2322  0.8546
  119SOPE   C2112544   6.062   2.167   6.603 -0.0373  0.5712 -0.6290
  119SOPE   O2212545   6.173   2.201   6.565 -0.1195 -0.1419  0.0328
  119SOPE   C2212546   5.936   2.247   6.589  0.2281  0.0189  0.2451
  119SOPE   H2R12547   5.903   2.264   6.694 -2.8697 -0.0355 -0.6290
  119SOPE   H2S12548   5.868   2.181   6.530  0.5206 -0.4593  0.4382
  119SOPE    C312549   6.110   1.827   6.617  0.5347 -0.0510  0.2891
  119SOPE    HX12550   6.023   1.768   6.653  0.0232  1.6114  1.9478
  119SOPE    HY12551   6.201   1.765   6.633 -0.5108 -1.6732  0.1682
  119SOPE   O3112552   6.109   1.861   6.475 -0.4811 -0.4390  0.1090
  119SOPE   C3112553   5.994   1.866   6.409  0.2257  0.4125 -0.0936
  119SOPE   O3212554   5.885   1.848   6.459  0.0863 -0.1405 -0.1955
  119SOPE   C3212555   6.002   1.884   6.262  0.7078  0.2209  0.1300
  119SOPE   H2X12556   5.893   1.886   6.239  0.8968 -1.7996 -1.2259
  119SOPE   H2Y12557   6.033   1.793   6.206 -1.0065 -0.3783  0.0891
  119SOPE   C2312558   5.953   2.380   6.509 -0.8438 -0.6142 -0.7539
  119SOPE   H3R12559   6.039   2.433   6.555  0.2188 -1.2231 -1.9787
  119SOPE   H3S12560   5.861   2.438   6.532 -2.0244 -3.3517  2.1869
  119SOPE   C2412561   5.973   2.366   6.367 -0.0351  0.0343  0.6179
  119SOPE   H4R12562   6.063   2.303   6.347 -0.4326 -0.4275  0.2504
  119SOPE   H4S12563   5.885   2.314   6.323  0.4431  0.1455 -0.5145
  119SOPE   C2512564   6.006   2.502   6.310  0.4819 -0.4721  1.3259
  119SOPE   H5R12565   5.912   2.561   6.317  0.3929 -0.2890 -0.6203
  119SOPE   H5S12566   6.090   2.551   6.363  0.4443 -0.6877  1.5838
  119SOPE   C2612567   6.047   2.502   6.158  0.1962  0.4573 -0.1970
  119SOPE   H6R12568   6.081   2.607   6.147  2.4942 -0.1955  0.1126
  119SOPE   H6S12569   6.134   2.433   6.149  0.5061  0.9138 -0.7267
  119SOPE   C2712570   5.932   2.462   6.070 -1.0120  0.2289 -0.2234
  119SOPE   H7R12571   5.901   2.361   6.102 -1.9220  0.4086 -0.5143
  119SOPE   H7S12572   5.846   2.522   6.107 -0.5787  0.4656  0.4275
  119SOPE   C2812573   5.945   2.491   5.922  0.0136 -0.3740  0.2055
  119SOPE   H8R12574   5.855   2.547   5.889 -0.3434 -0.7576  0.5266
  119SOPE   H8S12575   6.031   2.557   5.895  0.1028 -0.7649 -0.5035
  119SOPE   C2912576   5.956   2.368   5.835  0.3091 -0.3805 -0.4287
  119SOPE   H9112577   6.020   2.290   5.879  1.2138  1.1747  1.1254
  119SOPE  C21012578   5.886   2.339   5.719  0.5148  0.2607 -0.0590
  119SOPE  H10112579   5.911   2.247   5.664  1.8993  0.2835  0.4737
  119SOPE  C21112580   5.796   2.444   5.651 -0.1248 -0.3383  0.0610
  119SOPE  H11R12581   5.755   2.533   5.704 -1.6463  0.8541 -2.8591
  119SOPE  H11S12582   5.701   2.395   5.619 -1.0897  2.8049 -2.4709
  119SOPE  C21212583   5.849   2.505   5.523 -0.2226  0.2409 -0.3321
  119SOPE  H12R12584   5.921   2.581   5.559  0.6753 -0.3144 -0.9079
  119SOPE  H12S12585   5.770   2.572   5.485  1.1475  1.1905 -1.6409
  119SOPE  C21312586   5.904   2.412   5.418 -0.4362  0.3103  0.7201
  119SOPE  H13R12587   5.968   2.338   5.473 -0.7534  0.5773  1.4634
  119SOPE  H13S12588   5.953   2.475   5.341  1.4604 -0.1819  1.4666
  119SOPE  C21412589   5.802   2.319   5.351  0.1358 -0.4736 -0.6212
  119SOPE  H14R12590   5.706   2.368   5.323 -0.0997  0.4802  1.5969
  119SOPE  H14S12591   5.767   2.250   5.432  3.8914 -1.3809  0.4436
  119SOPE  C21512592   5.867   2.237   5.248  0.1277  0.6727 -0.1468
  119SOPE  H15R12593   5.795   2.157   5.220  1.2834  0.0951 -1.6345
  119SOPE  H15S12594   5.967   2.194   5.269  0.9054  2.8759  0.9667
  119SOPE  C21612595   5.877   2.303   5.103 -0.1266  0.6933  0.5291
  119SOPE  H16R12596   5.929   2.401   5.097  2.2598 -0.5588 -1.4814
  119SOPE  H16S12597   5.772   2.324   5.076  0.0074 -0.4467 -1.0171
  119SOPE  C21712598   5.943   2.207   5.005 -0.6370 -0.0955 -0.0224
  119SOPE  H17R12599   5.894   2.107   4.995  0.5216 -0.6377 -0.4506
  119SOPE  H17S12600   6.042   2.169   5.039 -0.6640 -0.2244 -0.0839
  119SOPE  C21812601   5.944   2.260   4.866  0.0024 -0.1579 -0.4717
  119SOPE  H18R12602   5.991   2.360   4.861 -0.7597  0.2210 -0.1408
  119SOPE  H18S12603   5.838   2.260   4.834 -0.7743 -2.3571  1.7476
  119SOPE  H18T12604   6.007   2.188   4.810  3.7846 -0.4168  3.5156
  119SOPE   C3312605   6.086   2.020   6.222  0.5298  1.0255  0.3548
  119SOPE   H3X12606   6.193   1.994   6.236  0.3406 -0.3618 -0.5666
  119SOPE   H3Y12607   6.061   2.097   6.299 -0.8988  2.3670 -1.3708
  119SOPE   C3412608   6.041   2.064   6.078  0.0479 -0.4524 -0.9051
  119SOPE   H4X12609   6.103   2.145   6.035  0.1071  0.1162  0.2130
  119SOPE   H4Y12610   5.940   2.107   6.096  1.7478  3.2928  0.7677
  119SOPE   C3512611   6.042   1.942   5.986  0.1668  0.6753 -0.1642
  119SOPE   H5X12612   5.961   1.870   6.012  0.2743  1.0170  1.1889
  119SOPE   H5Y12613   6.142   1.894   5.985  0.8023  1.8694  1.6824
  119SOPE   C3612614   6.010   1.982   5.841 -0.4135 -0.6326  0.9484
  119SOPE   H6X12615   6.088   2.048   5.797  1.0265 -2.0557  1.2843
  119SOPE   H6Y12616   5.924   2.050   5.821 -0.3163 -0.6605  0.3972
  119SOPE   C3712617   6.006   1.863   5.737 -0.4731  0.1244  0.0992
  119SOPE   H7X12618   5.936   1.783   5.771  1.5009 -1.4223  0.6999
  119SOPE   H7Y12619   6.105   1.814   5.725  0.4360  1.3700  2.0107
  119SOPE   C3812620   5.956   1.916   5.601  0.1953  0.3235  0.2902
  119SOPE   H8X12621   6.027   1.992   5.563  0.1945  0.7820  1.1815
  119SOPE   H8Y12622   5.854   1.960   5.613 -0.5025 -0.9426 -0.7581
  119SOPE   C3912623   5.956   1.809   5.487 -0.8207 -0.0182 -0.1973
  119SOPE   H9X12624   5.876   1.735   5.508 -2.9751  2.3086  0.3712
  119SOPE   H9Y12625   6.050   1.751   5.489 -1.2837 -0.8216 -1.1036
  119SOPE  C31012626   5.929   1.856   5.345 -0.2762  0.2418  0.1853
  119SOPE  H10X12627   5.982   1.947   5.310  1.7180 -1.2219 -0.8769
  119SOPE  H10Y12628   5.824   1.892   5.345  0.1958  1.7984 -1.4374
  119SOPE  C31112629   5.942   1.744   5.251 -0.2524  0.5953 -0.1924
  119SOPE  H11X12630   5.873   1.660   5.274 -0.7644  1.0901  0.1062
  119SOPE  H11Y12631   6.044   1.702   5.262  0.1145  1.6804  0.8168
  119SOPE  C31212632   5.926   1.783   5.102  0.1088  0.3987  0.1448
  119SOPE  H12X12633   6.000   1.717   5.052  0.6360  0.8548  0.3102
  119SOPE  H12Y12634   5.967   1.884   5.079 -3.1628  2.4815  2.5486
  119SOPE  C31312635   5.785   1.768   5.041 -0.0085  0.2075 -0.4312
  119SOPE  H13X12636   5.709   1.837   5.084 -1.3628 -0.9958 -0.7944
  119SOPE  H13Y12637   5.742   1.670   5.073 -0.7101  0.9271  0.9095
  119SOPE  C31412638   5.795   1.785   4.886  0.5580 -0.0130 -0.1199
  119SOPE  H14X12639   5.779   1.891   4.859  2.5209  0.5816  0.8756
  119SOPE  H14Y12640   5.708   1.724   4.852  0.9350 -1.6366  1.6268
  119SOPE  C31512641   5.918   1.731   4.817 -0.4617  0.7100  0.0031
  119SOPE  H15X12642   5.927   1.631   4.865  0.3176  0.2602 -1.0489
  119SOPE  H15Y12643   6.001   1.795   4.851 -0.4537  1.0900 -0.7145
  119SOPE  C31612644   5.929   1.715   4.663 -0.0120 -0.6199  0.1904
  119SOPE  H16X12645   5.910   1.817   4.623 -0.2608  0.0504  1.9409
  119SOPE  H16Y12646   5.843   1.650   4.635  0.5800 -1.0257 -0.7448
  119SOPE  C31712647   6.067   1.683   4.607 -0.0369  0.9000  0.0690
  119SOPE  H17X12648   6.091   1.588   4.659  0.9485  1.2209  0.2286
  119SOPE  H17Y12649   6.128   1.763   4.654 -0.4857  0.3263  1.7036
  119SOPE  C31812650   6.086   1.672   4.463 -0.0176  0.3748 -0.4575
  119SOPE  H18X12651   6.189   1.634   4.442 -1.0554 -2.1284 -1.4721
  119SOPE  H18Y12652   6.069   1.766   4.406 -2.9463 -0.6693 -1.4939
  119SOPE  H18Z12653   6.021   1.590   4.428  1.6077 -1.4303  0.5248
  120SOPE     N12654   6.638   5.351   7.160 -0.0207  0.5090 -0.1494
  120SOPE   HN112655   6.559   5.416   7.142 -0.8668 -0.7030 -0.9998
  120SOPE   HN212656   6.591   5.266   7.196  0.8610  0.6782  1.4811
  120SOPE   HN312657   6.693   5.382   7.243 -1.2234 -0.0685  0.9062
  120SOPE   C1212658   6.732   5.344   7.038  0.9251  0.0972 -0.4104
  120SOPE  H12A12659   6.838   5.318   7.059  0.8844  0.1263 -0.1730
  120SOPE  H12B12660   6.733   5.448   6.999 -0.4752  0.6324  0.8736
  120SOPE   C1112661   6.680   5.244   6.924 -0.1100 -0.0546 -0.0644
  120SOPE  H11A12662   6.660   5.145   6.972  2.3205 -0.2746  0.6314
  120SOPE  H11B12663   6.758   5.246   6.846 -0.1087  1.0118 -0.0475
  120SOPE     P12664   6.530   5.337   6.735 -0.2375 -0.0688 -0.1133
  120SOPE   O1312665   6.639   5.429   6.693  0.4006 -0.0447  0.0844
  120SOPE   O1412666   6.392   5.391   6.718  0.7250  0.1838  0.3673
  120SOPE   O1212667   6.550   5.296   6.881 -0.1622  0.2668  0.3022
  120SOPE   O1112668   6.537   5.204   6.658  0.1245  0.2987 -0.7247
  120SOPE    C112669   6.466   5.085   6.689 -0.0318 -0.3084  0.1299
  120SOPE    HA12670   6.368   5.096   6.638  0.1604  0.2315 -0.1308
  120SOPE    HB12671   6.440   5.074   6.797 -0.2284 -1.6231 -0.0311
  120SOPE    C212672   6.542   4.959   6.632  0.4533 -0.2078  0.1910
  120SOPE    HS12673   6.650   4.967   6.657 -0.1047  0.8463  2.6326
  120SOPE   O2112674   6.529   4.964   6.488 -0.7416 -0.5004  0.3243
  120SOPE   C2112675   6.604   4.875   6.419 -0.1231  0.1378 -0.5591
  120SOPE   O2212676   6.713   4.832   6.454 -0.3436  0.5833  0.2231
  120SOPE   C2212677   6.517   4.838   6.304  0.9540  0.1408  0.1703
  120SOPE   H2R12678   6.499   4.918   6.229  1.2948  0.3422  0.3005
  120SOPE   H2S12679   6.422   4.795   6.343  1.1845 -1.1219 -0.5816
  120SOPE    C312680   6.482   4.833   6.697  0.5925 -0.6433 -0.5131
  120SOPE    HX12681   6.376   4.841   6.667 -0.1218 -2.3954  1.3886
  120SOPE    HY12682   6.487   4.848   6.807  3.6103  3.0369 -0.9013
  120SOPE   O3112683   6.539   4.707   6.662 -0.6845 -0.1698 -0.5599
  120SOPE   C3112684   6.457   4.614   6.603  0.1330 -0.4644  0.4115
  120SOPE   O3212685   6.347   4.640   6.553 -0.8062  0.1283 -0.3323
  120SOPE   C3212686   6.527   4.473   6.583  0.2123  0.0890 -0.4911
  120SOPE   H2X12687   6.504   4.449   6.477 -1.0772 -0.5298 -0.0940
  120SOPE   H2Y12688   6.463   4.403   6.641 -1.6138  2.3980  0.4887
  120SOPE   C2312689   6.586   4.716   6.225  0.3768 -0.1451 -0.1039
  120SOPE   H3R12690   6.573   4.619   6.278  1.5761 -0.1465  0.2174
  120SOPE   H3S12691   6.695   4.734   6.212  0.4395 -1.8333 -2.4458
  120SOPE   C2412692   6.518   4.721   6.084  0.5969 -0.1269  0.5407
  120SOPE   H4R12693   6.415   4.680   6.086  0.4910  0.1404  0.7261
  120SOPE   H4S12694   6.517   4.823   6.039 -1.5208 -1.1833 -2.0631
  120SOPE   C2512695   6.607   4.653   5.986  0.1226 -0.5136 -0.7217
  120SOPE   H5R12696   6.704   4.706   5.974 -0.5593  0.8233 -0.5346
  120SOPE   H5S12697   6.627   4.549   6.019 -1.9213 -0.2734  1.5994
  120SOPE   C2612698   6.558   4.635   5.840 -0.1350 -0.2551  0.2366
  120SOPE   H6R12699   6.469   4.568   5.841  0.1613 -0.8034 -2.5125
  120SOPE   H6S12700   6.521   4.735   5.807  0.2481 -0.2310 -0.1378
  120SOPE   C2712701   6.660   4.591   5.729 -0.2138  0.3017  0.5899
  120SOPE   H7R12702   6.746   4.662   5.724  0.3144 -0.2444  1.5424
  120SOPE   H7S12703   6.703   4.492   5.754 -0.1122  0.1198 -0.2770
  120SOPE   C2812704   6.596   4.564   5.587 -0.8496  0.3683 -0.3185
  120SOPE   H8R12705   6.676   4.515   5.528 -0.6267  0.8425 -0.4144
  120SOPE   H8S12706   6.512   4.493   5.604 -1.4932  0.9279 -1.0572
  120SOPE   C2912707   6.557   4.700   5.526  0.6502 -0.4847  0.0548
  120SOPE   H9112708   6.515   4.777   5.592  0.5061  0.6285 -1.2881
  120SOPE  C21012709   6.570   4.739   5.400 -0.2446  0.2294 -0.6203
  120SOPE  H10112710   6.518   4.834   5.379  1.7115  1.4697 -0.0921
  120SOPE  C21112711   6.644   4.662   5.287  0.5331 -0.2011 -0.6787
  120SOPE  H11R12712   6.581   4.610   5.211 -2.2721  1.7505  0.1543
  120SOPE  H11S12713   6.706   4.580   5.329 -0.2789 -1.1875 -1.3618
  120SOPE  C21212714   6.733   4.758   5.195  0.8988  0.4064  0.1905
  120SOPE  H12R12715   6.804   4.814   5.260 -1.4907  2.0790  1.5066
  120SOPE  H12S12716   6.659   4.824   5.145  0.3677  0.0923  0.5574
  120SOPE  C21312717   6.807   4.677   5.084 -0.0899  0.1463  0.2917
  120SOPE  H13R12718   6.803   4.570   5.110 -1.2525 -1.1561 -4.2339
  120SOPE  H13S12719   6.914   4.707   5.088 -0.1423  0.4547 -0.3763
  120SOPE  C21412720   6.747   4.684   4.942  1.2423  0.6787  0.0133
  120SOPE  H14R12721   6.756   4.789   4.906 -1.8134  0.0144 -3.3014
  120SOPE  H14S12722   6.643   4.649   4.963  1.4816 -0.7880 -1.1118
  120SOPE  C21512723   6.805   4.591   4.835 -0.5107  0.4210  0.3429
  120SOPE  H15R12724   6.906   4.629   4.807  0.6034 -1.5147  1.5664
  120SOPE  H15S12725   6.738   4.596   4.746  1.7952  0.4725 -1.4961
  120SOPE  C21612726   6.828   4.451   4.885 -0.4077  0.0438 -0.6418
  120SOPE  H16R12727   6.723   4.415   4.895 -0.2409 -0.4563 -0.6703
  120SOPE  H16S12728   6.876   4.442   4.984 -3.8620  0.2200  1.2040
  120SOPE  C21712729   6.907   4.369   4.785 -0.8037 -0.6925  0.2863
  120SOPE  H17R12730   7.016   4.394   4.788 -0.4825 -2.0338  0.5038
  120SOPE  H17S12731   6.877   4.402   4.684  0.6167 -0.8376 -0.2075
  120SOPE  C21812732   6.880   4.218   4.805  0.2901 -0.7039 -0.1783
  120SOPE  H18R12733   6.920   4.180   4.901  1.3959  2.1693  0.6013
  120SOPE  H18S12734   6.933   4.163   4.724  1.0604  0.1969 -0.3001
  120SOPE  H18T12735   6.771   4.198   4.805 -0.3172  2.0918  1.5900
  120SOPE   C3312736   6.683   4.458   6.622 -0.3891  0.3308  0.4805
  120SOPE   H3X12737   6.693   4.460   6.732  0.4370  0.5441  0.4104
  120SOPE   H3Y12738   6.743   4.538   6.574 -1.0936  0.2666 -0.5378
  120SOPE   C3412739   6.741   4.324   6.580 -0.5010  0.6677  0.1896
  120SOPE   H4X12740   6.691   4.243   6.638  0.1372 -0.7728 -1.1903
  120SOPE   H4Y12741   6.847   4.312   6.612 -1.1549 -0.5161  2.0999
  120SOPE   C3512742   6.731   4.291   6.430  0.4388 -0.7026  0.0116
  120SOPE   H5X12743   6.745   4.382   6.369  1.8269 -1.4300 -0.8171
  120SOPE   H5Y12744   6.633   4.241   6.413 -0.0191  0.3046 -0.3731
  120SOPE   C3612745   6.842   4.191   6.388  0.1045  0.0587 -0.4949
  120SOPE   H6X12746   6.831   4.100   6.450 -1.0687  0.2059 -0.4679
  120SOPE   H6Y12747   6.939   4.229   6.427  1.1285 -1.6220 -1.3294
  120SOPE   C3712748   6.846   4.161   6.240  0.1998 -0.6361  0.1237
  120SOPE   H7X12749   6.874   4.253   6.184  1.3839  0.0772  1.8155
  120SOPE   H7Y12750   6.746   4.132   6.200 -0.7997 -0.9515  2.6947
  120SOPE   C3812751   6.949   4.060   6.207  0.5620 -0.0927  0.7873
  120SOPE   H8X12752   6.939   3.969   6.269  0.7571 -0.8801 -0.3053
  120SOPE   H8Y12753   7.051   4.097   6.231  0.2040  1.0513  0.6338
  120SOPE   C3912754   6.943   4.041   6.056 -0.0477 -1.4406  0.4541
  120SOPE   H9X12755   6.933   4.142   6.012 -3.2942 -0.6993  2.4750
  120SOPE   H9Y12756   6.847   3.988   6.038 -3.3937  4.1894 -0.7343
  120SOPE  C31012757   7.060   3.957   6.010 -0.4150  0.8063  0.5579
  120SOPE  H10X12758   7.062   3.863   6.068  1.5384  0.5464  0.1323
  120SOPE  H10Y12759   7.153   4.014   6.031 -0.3767  0.4683  1.3108
  120SOPE  C31112760   7.041   3.951   5.855  0.2994  0.2680  0.7569
  120SOPE  H11X12761   7.054   4.052   5.810  0.6401 -0.5819 -1.1734
  120SOPE  H11Y12762   6.941   3.906   5.837  0.7353 -0.3082 -0.3514
  120SOPE  C31212763   7.148   3.861   5.779  0.1270 -0.4130 -0.1460
  120SOPE  H12X12764   7.132   3.755   5.811 -0.4067 -0.3556 -0.2098
  120SOPE  H12Y12765   7.250   3.889   5.813 -0.0690 -0.8664  0.8838
  120SOPE  C31312766   7.128   3.863   5.625  0.1134 -0.1150  0.2815
  120SOPE  H13X12767   7.119   3.969   5.595 -0.2874 -0.0341  0.6804
  120SOPE  H13Y12768   7.029   3.814   5.609  0.4399  0.0268 -3.0209
  120SOPE  C31412769   7.238   3.798   5.543 -0.2692  0.2177 -0.3768
  120SOPE  H14X12770   7.235   3.689   5.566  0.7378  0.4784  1.1334
  120SOPE  H14Y12771   7.339   3.840   5.563 -0.3762  0.4881 -0.4060
  120SOPE  C31512772   7.213   3.800   5.392  0.6021 -0.3220 -0.4073
  120SOPE  H15X12773   7.235   3.904   5.360  2.0365  0.5150  2.8978
  120SOPE  H15Y12774   7.108   3.769   5.370 -0.8047  3.1955  0.6058
  120SOPE  C31612775   7.309   3.701   5.324  0.1821  0.0445 -0.1702
  120SOPE  H16X12776   7.275   3.673   5.222 -3.1309  2.0184  0.2431
  120SOPE  H16Y12777   7.329   3.606   5.378  1.8177  1.5010  1.9415
  120SOPE  C31712778   7.445   3.767   5.294  0.3609  0.2222  0.2002
  120SOPE  H17X12779   7.502   3.688   5.240  1.3586  0.1826  1.2634
  120SOPE  H17Y12780   7.494   3.803   5.387  0.1029  1.4526 -0.1236
  120SOPE  C31812781   7.438   3.878   5.194  0.8067 -0.3934 -1.3506
  120SOPE  H18X12782   7.337   3.901   5.153  1.0073  1.0854 -1.0585
  120SOPE  H18Y12783   7.506   3.872   5.106  0.2488  0.4937 -1.8575
  120SOPE  H18Z12784   7.458   3.973   5.246  1.2046 -0.5370 -1.2403
  121SOPE     N12785   2.688   2.453   7.271  0.1397 -0.2875 -0.0376
  121SOPE   HN112786   2.646   2.427   7.179 -0.8775 -0.8052  0.5649
  121SOPE   HN212787   2.717   2.360   7.305  0.0644 -1.8851 -3.8772
  121SOPE   HN312788   2.617   2.493   7.335 -0.2440 -3.2142  1.5204
  121SOPE   C1212789   2.786   2.563   7.235  0.3927  0.0347  0.5008
  121SOPE  H12A12790   2.830   2.600   7.331  0.4213 -2.0686  1.3541
  121SOPE  H12B12791   2.722   2.641   7.188 -1.2337 -0.8849  1.1305
  121SOPE   C1112792   2.892   2.507   7.143  0.1651  0.0567 -0.5625
  121SOPE  H11A12793   2.953   2.584   7.092  2.3410 -2.4917 -2.0125
  121SOPE  H11B12794   2.843   2.456   7.057 -3.3778 -0.3570  1.4803
  121SOPE     P12795   2.965   2.265   7.205  0.4340 -0.0944  0.1256
  121SOPE   O1312796   2.850   2.223   7.289 -0.2227  0.2570 -0.2836
  121SOPE   O1412797   3.088   2.197   7.248  0.0074 -1.1581  0.2541
  121SOPE   O1212798   2.980   2.417   7.220 -0.1215  0.2889 -0.1315
  121SOPE   O1112799   2.938   2.241   7.049  0.1391  0.2592  0.2771
  121SOPE    C112800   3.030   2.285   6.946  0.1126 -0.7676 -0.1522
  121SOPE    HA12801   3.121   2.223   6.933  0.2000 -0.4145 -1.3553
  121SOPE    HB12802   3.064   2.391   6.954  1.1355 -0.8996 -2.1391
  121SOPE    C212803   2.955   2.296   6.809 -0.2399  0.1996 -0.0392
  121SOPE    HS12804   2.881   2.378   6.822 -1.3246 -0.8476  0.6176
  121SOPE   O2112805   2.900   2.167   6.769  0.3494 -0.0543 -0.4076
  121SOPE   C2112806   2.780   2.140   6.826 -0.2189 -0.0651  0.0213
  121SOPE   O2212807   2.724   2.196   6.912 -0.6086 -0.2348 -0.8850
  121SOPE   C2212808   2.711   2.023   6.759 -0.5529  0.4055 -0.2463
  121SOPE   H2R12809   2.668   1.948   6.829 -2.2396 -0.5191 -2.1719
  121SOPE   H2S12810   2.780   1.960   6.700  1.7653  0.6102  2.0636
  121SOPE    C312811   3.047   2.343   6.697 -0.3610 -0.2837  0.3551
  121SOPE    HX12812   3.146   2.292   6.702  0.6570  1.7170  2.5929
  121SOPE    HY12813   3.062   2.448   6.729 -2.0977  0.0190  0.2610
  121SOPE   O3112814   2.983   2.331   6.565 -0.4790  0.0250  0.4621
  121SOPE   C3112815   3.035   2.247   6.483  0.2878 -0.0638  1.0404
  121SOPE   O3212816   3.138   2.189   6.489 -0.2694 -0.5292 -1.1445
  121SOPE   C3212817   2.936   2.221   6.366  0.0849 -0.0247  0.0515
  121SOPE   H2X12818   2.866   2.305   6.346  0.3911  0.1368 -0.3628
  121SOPE   H2Y12819   2.877   2.130   6.390 -1.4497  1.3739  1.8325
  121SOPE   C2312820   2.591   2.072   6.673  0.5286 -0.5671  0.3473
  121SOPE   H3R12821   2.532   2.131   6.746  1.7732 -0.1565  1.0508
  121SOPE   H3S12822   2.538   1.984   6.631 -1.2688  0.8103 -0.3850
  121SOPE   C2412823   2.634   2.164   6.563 -0.5113  0.0512 -0.7184
  121SOPE   H4R12824   2.612   2.265   6.603  2.1337 -0.1282  1.4650
  121SOPE   H4S12825   2.740   2.173   6.534 -1.0231  1.7560 -2.2947
  121SOPE   C2512826   2.552   2.127   6.438  0.3135 -0.2105  0.0166
  121SOPE   H5R12827   2.572   2.022   6.405 -0.9691 -1.7377  3.5668
  121SOPE   H5S12828   2.448   2.134   6.476 -0.2439 -0.0630 -1.4664
  121SOPE   C2612829   2.563   2.235   6.332  1.0185 -0.1279  0.8324
  121SOPE   H6R12830   2.535   2.332   6.378  0.6639  0.3594 -0.3856
  121SOPE   H6S12831   2.667   2.238   6.292  0.6412 -0.9679 -0.2763
  121SOPE   C2712832   2.453   2.205   6.226  0.0685 -0.3034 -0.4504
  121SOPE   H7R12833   2.373   2.156   6.286  0.9725  0.8862  1.8394
  121SOPE   H7S12834   2.404   2.295   6.183 -1.8722 -1.7798 -1.4991
  121SOPE   C2812835   2.508   2.114   6.106  0.3177 -0.0890 -0.1113
  121SOPE   H8R12836   2.593   2.174   6.067  0.3061  0.1038  0.1583
  121SOPE   H8S12837   2.546   2.016   6.142  0.5417 -0.0435 -0.2201
  121SOPE   C2912838   2.395   2.098   6.008 -0.5454  0.1303 -0.4635
  121SOPE   H9112839   2.295   2.088   6.053 -1.3728 -3.0256 -2.6563
  121SOPE  C21012840   2.407   2.074   5.870  0.0753 -0.7020 -0.2875
  121SOPE  H10112841   2.316   2.068   5.808 -0.5560  0.9244  0.4223
  121SOPE  C21112842   2.534   2.072   5.794 -0.2952  0.6330 -0.1730
  121SOPE  H11R12843   2.606   1.993   5.826 -0.1069  1.4198  1.4506
  121SOPE  H11S12844   2.593   2.165   5.811  1.1359 -0.3552  0.5284
  121SOPE  C21212845   2.503   2.052   5.643 -0.5597 -0.1885  0.9777
  121SOPE  H12R12846   2.429   2.123   5.602 -0.4723 -0.9383 -0.5300
  121SOPE  H12S12847   2.463   1.950   5.627 -0.6285  0.2217 -1.8675
  121SOPE  C21312848   2.631   2.053   5.560 -0.2879 -0.4604  0.1792
  121SOPE  H13R12849   2.664   1.948   5.545  0.8809 -0.1569  0.4682
  121SOPE  H13S12850   2.710   2.114   5.609 -1.5152  3.2042 -2.0052
  121SOPE  C21412851   2.616   2.112   5.417 -0.2099 -0.1155 -0.0670
  121SOPE  H14R12852   2.579   2.216   5.423 -0.0822 -0.0993  0.4671
  121SOPE  H14S12853   2.545   2.058   5.351 -1.0678  0.3836  0.4441
  121SOPE  C21512854   2.752   2.136   5.338  0.2640  0.0380 -0.3405
  121SOPE  H15R12855   2.817   2.049   5.363 -0.7187 -0.8951 -0.9475
  121SOPE  H15S12856   2.806   2.230   5.364  0.3705  0.1951 -1.1182
  121SOPE  C21612857   2.736   2.129   5.186 -0.7685 -0.1281 -0.3385
  121SOPE  H16R12858   2.688   2.033   5.157 -1.1833  0.3535 -1.2865
  121SOPE  H16S12859   2.838   2.131   5.142 -0.3591 -2.1577  0.4463
  121SOPE  C21712860   2.653   2.245   5.138 -0.6143 -0.3292 -0.6958
  121SOPE  H17R12861   2.658   2.344   5.188  0.0331 -0.6484 -0.1160
  121SOPE  H17S12862   2.551   2.206   5.157 -0.4342 -0.0772  0.8838
  121SOPE  C21812863   2.682   2.276   4.989 -0.0554  0.0163  0.5256
  121SOPE  H18R12864   2.762   2.352   4.979  1.1062 -1.3932 -1.9984
  121SOPE  H18S12865   2.597   2.305   4.923  1.6656  1.4898 -1.1613
  121SOPE  H18T12866   2.721   2.183   4.943 -0.9541 -1.0640  1.8610
  121SOPE   C3312867   3.004   2.196   6.229 -0.0944  0.7127  0.7095
  121SOPE   H3X12868   3.055   2.097   6.229 -1.2096  0.0995 -0.6746
  121SOPE   H3Y12869   3.085   2.271   6.211  0.1379  0.4579  0.6818
  121SOPE   C3412870   2.905   2.196   6.113  0.1975 -0.5557  0.4080
  121SOPE   H4X12871   2.858   2.296   6.121 -0.3779 -0.9375  2.2048
  121SOPE   H4Y12872   2.827   2.117   6.116 -0.5447  0.1672  0.3022
  121SOPE   C3512873   2.979   2.187   5.973 -0.5556  0.2155  0.2314
  121SOPE   H5X12874   3.037   2.093   5.967 -1.4044 -0.3054  0.1328
  121SOPE   H5Y12875   3.060   2.262   5.986  0.6079 -1.1840  1.3552
  121SOPE   C3612876   2.895   2.211   5.849  0.6057  0.2705  0.5607
  121SOPE   H6X12877   2.813   2.136   5.853 -0.5005  1.4243  0.0460
  121SOPE   H6Y12878   2.952   2.177   5.760  0.7784 -1.6391  1.3407
  121SOPE   C3712879   2.848   2.360   5.815 -0.4340  0.2477  0.1639
  121SOPE   H7X12880   2.929   2.432   5.839 -0.6443  0.3902  0.4516
  121SOPE   H7Y12881   2.762   2.373   5.883  0.2326  1.4567  0.8151
  121SOPE   C3812882   2.801   2.390   5.671  0.3649  0.0371  0.0741
  121SOPE   H8X12883   2.704   2.337   5.659 -0.0609  0.1690  2.5053
  121SOPE   H8Y12884   2.874   2.331   5.611  2.5387 -0.2099  2.7880
  121SOPE   C3912885   2.808   2.538   5.658 -0.6138  0.0441  0.2586
  121SOPE   H9X12886   2.905   2.572   5.698 -0.8866  0.7145  0.3555
  121SOPE   H9Y12887   2.728   2.583   5.720 -0.4332  0.6654  0.0523
  121SOPE  C31012888   2.820   2.583   5.510  0.0578  0.2284  1.2907
  121SOPE  H10X12889   2.830   2.693   5.512  1.8053  0.1066  2.7724
  121SOPE  H10Y12890   2.730   2.555   5.451  0.8194  2.8948 -1.3887
  121SOPE  C31112891   2.935   2.514   5.427 -0.3400 -0.5511 -0.9168
  121SOPE  H11X12892   2.935   2.405   5.447 -1.1394 -0.1597  1.5695
  121SOPE  H11Y12893   3.025   2.569   5.463 -0.7716  0.6088 -1.5462
  121SOPE  C31212894   2.928   2.537   5.273  0.0145 -0.1741 -0.5275
  121SOPE  H12X12895   2.860   2.454   5.243  0.0686 -0.1425 -0.7356
  121SOPE  H12Y12896   3.029   2.529   5.229  1.2308 -0.1127  2.0671
  121SOPE  C31312897   2.862   2.666   5.232  0.0711  0.2982  0.3838
  121SOPE  H13X12898   2.911   2.749   5.286 -1.2849  0.8067  0.8945
  121SOPE  H13Y12899   2.754   2.676   5.257 -0.7754  1.3614 -3.1358
  121SOPE  C31412900   2.872   2.689   5.083  0.3062 -0.1507 -0.4398
  121SOPE  H14X12901   2.861   2.587   5.041  2.5311  0.5493 -2.9852
  121SOPE  H14Y12902   2.980   2.703   5.063  1.2375 -0.7198  3.4561
  121SOPE  C31512903   2.792   2.800   5.015 -0.1446  0.9752  0.1383
  121SOPE  H15X12904   2.809   2.898   5.064 -2.4400  0.9626  1.0872
  121SOPE  H15Y12905   2.685   2.772   5.025 -0.2326  1.2563 -0.0153
  121SOPE  C31612906   2.827   2.807   4.867 -0.5917 -0.4553  0.5240
  121SOPE  H16X12907   2.850   2.708   4.823  2.4505  0.3384  0.1093
  121SOPE  H16Y12908   2.919   2.864   4.842 -1.6952  1.2881  0.2064
  121SOPE  C31712909   2.710   2.877   4.783 -0.2934  0.1650 -0.1535
  121SOPE  H17X12910   2.740   2.902   4.679 -1.0626 -1.6151 -0.8391
  121SOPE  H17Y12911   2.682   2.975   4.828  0.8375  0.2447  0.4149
  121SOPE  C31812912   2.580   2.800   4.776 -0.1181 -0.1201  0.6200
  121SOPE  H18X12913   2.503   2.861   4.725  0.7972  1.8031  1.4314
  121SOPE  H18Y12914   2.545   2.752   4.870  1.2507  0.5137  1.4911
  121SOPE  H18Z12915   2.596   2.708   4.716 -4.3248  0.0356 -1.0746
  122SOPE     N12916   1.463   2.651   7.155  0.0745  0.1810 -0.9795
  122SOPE   HN112917   1.479   2.672   7.055 -1.9095 -0.6175 -1.5007
  122SOPE   HN212918   1.490   2.738   7.205  0.1955  0.2140 -1.1009
  122SOPE   HN312919   1.519   2.567   7.182  0.6084  0.4800 -1.1514
  122SOPE   C1212920   1.315   2.635   7.176 -0.5691 -0.3271 -0.0371
  122SOPE  H12A12921   1.291   2.649   7.284  0.3698 -0.0501  0.1417
  122SOPE  H12B12922   1.294   2.534   7.135  5.2637 -0.8763 -2.5562
  122SOPE   C1112923   1.245   2.744   7.097  0.7393 -0.3586 -0.2086
  122SOPE  H11A12924   1.138   2.736   7.123  0.5448 -0.3052 -0.9609
  122SOPE  H11B12925   1.249   2.726   6.987  0.1732  1.1368 -0.4973
  122SOPE     P12926   1.302   2.996   7.032 -0.4904 -0.0274 -0.3233
  122SOPE   O1312927   1.293   3.124   7.107  0.4407 -0.1369 -0.0540
  122SOPE   O1412928   1.194   2.972   6.936 -0.4991  0.0784 -0.0467
  122SOPE   O1212929   1.295   2.873   7.128  0.4138  0.4194 -0.6272
  122SOPE   O1112930   1.448   2.986   6.975 -0.3563 -0.1727  0.3684
  122SOPE    C112931   1.499   3.093   6.894 -0.0238 -0.8384  0.6982
  122SOPE    HA12932   1.541   3.172   6.960 -3.1735  0.7822  0.9584
  122SOPE    HB12933   1.428   3.141   6.822  2.9775  0.7339 -1.4806
  122SOPE    C212934   1.611   3.031   6.795 -0.4673 -0.1672 -0.3372
  122SOPE    HS12935   1.657   3.103   6.724  2.4022 -2.9978 -1.5793
  122SOPE   O2112936   1.568   2.923   6.722 -0.1698 -0.1317  0.0126
  122SOPE   C2112937   1.468   2.949   6.637 -0.3550 -0.5799  0.8586
  122SOPE   O2212938   1.421   3.059   6.621  0.7902  0.5279 -0.2571
  122SOPE   C2212939   1.421   2.822   6.554 -0.4807 -0.5084 -0.2348
  122SOPE   H2R12940   1.369   2.762   6.632 -1.2277  0.2493 -0.1312
  122SOPE   H2S12941   1.521   2.777   6.533  1.7112  3.6734  0.1218
  122SOPE    C312942   1.736   2.987   6.889  0.2246 -0.2583 -0.0470
  122SOPE    HX12943   1.706   2.897   6.945  1.9156 -0.7839  0.0683
  122SOPE    HY12944   1.759   3.070   6.960  1.2232 -0.5966  0.0444
  122SOPE   O3112945   1.845   2.950   6.803 -0.7777 -0.0877  0.4248
  122SOPE   C3112946   1.928   3.047   6.767 -1.0520 -0.5390 -0.5962
  122SOPE   O3212947   1.941   3.154   6.822 -0.3959 -0.3097  0.6463
  122SOPE   C3212948   2.010   3.004   6.649 -0.0501  0.4187  0.6036
  122SOPE   H2X12949   2.073   2.916   6.673 -1.8736 -1.0703  0.1291
  122SOPE   H2Y12950   2.082   3.089   6.640 -0.0728  0.6910  2.6295
  122SOPE   C2312951   1.325   2.855   6.432 -1.1309  0.1162  0.6509
  122SOPE   H3R12952   1.247   2.928   6.460 -0.6755  1.5781 -1.6695
  122SOPE   H3S12953   1.270   2.764   6.398 -2.2741  0.6303  1.0754
  122SOPE   C2412954   1.397   2.905   6.311 -0.2315  0.2173 -0.0810
  122SOPE   H4R12955   1.464   2.990   6.334 -0.2418  0.1946  0.0326
  122SOPE   H4S12956   1.458   2.826   6.262  1.9734  2.6355 -1.4504
  122SOPE   C2512957   1.292   2.957   6.210  0.3788  0.2557 -0.4991
  122SOPE   H5R12958   1.241   2.864   6.177  3.0143 -1.2623 -0.5987
  122SOPE   H5S12959   1.216   3.026   6.251 -0.3999 -0.5639 -0.5221
  122SOPE   C2612960   1.355   3.033   6.101  0.3776  0.0843  0.2406
  122SOPE   H6R12961   1.395   3.120   6.157 -0.9348 -0.5319  2.2490
  122SOPE   H6S12962   1.436   2.978   6.048  0.1677  0.3050 -0.3229
  122SOPE   C2712963   1.253   3.079   5.988  0.1845 -0.3123  0.0975
  122SOPE   H7R12964   1.163   3.112   6.043 -0.9234 -2.0490 -0.5988
  122SOPE   H7S12965   1.292   3.168   5.933 -1.0707 -0.1402 -0.5643
  122SOPE   C2812966   1.219   2.966   5.886  0.1210 -0.9736 -0.3755
  122SOPE   H8R12967   1.307   2.942   5.822  0.8487  0.5248  0.0004
  122SOPE   H8S12968   1.196   2.873   5.942 -3.0491 -0.7820 -1.1859
  122SOPE   C2912969   1.104   2.986   5.793 -0.9973 -0.1071 -0.3509
  122SOPE   H9112970   1.038   2.898   5.790  0.0388 -1.0264  1.6493
  122SOPE  C21012971   1.082   3.089   5.715 -0.0311  0.3781  0.9403
  122SOPE  H10112972   1.001   3.089   5.641 -0.1256  2.3390  0.9708
  122SOPE  C21112973   1.180   3.202   5.692 -0.1597 -0.3817 -0.2531
  122SOPE  H11R12974   1.274   3.175   5.744 -0.0310 -0.3759 -0.4788
  122SOPE  H11S12975   1.145   3.298   5.735 -1.0183  0.7437 -3.1683
  122SOPE  C21212976   1.204   3.229   5.542 -0.8864 -0.9423  0.0733
  122SOPE  H12R12977   1.279   3.311   5.537 -0.0989 -1.5401  1.4018
  122SOPE  H12S12978   1.112   3.264   5.491  0.5279  1.2847 -1.0779
  122SOPE  C21312979   1.266   3.109   5.462 -1.0138 -0.6286  0.0984
  122SOPE  H13R12980   1.205   3.018   5.479 -1.8497  0.2689  2.3674
  122SOPE  H13S12981   1.355   3.093   5.527 -0.9241  1.5522  0.5887
  122SOPE  C21412982   1.312   3.122   5.316  0.1721  0.1546  0.2893
  122SOPE  H14R12983   1.340   3.021   5.280  0.4105  0.8955 -1.7497
  122SOPE  H14S12984   1.401   3.190   5.313  0.8446 -0.7251 -2.5002
  122SOPE  C21512985   1.197   3.175   5.231  0.8678  0.1075  0.4161
  122SOPE  H15R12986   1.154   3.268   5.273  1.9147  0.3921  0.8960
  122SOPE  H15S12987   1.113   3.103   5.244  2.1357 -1.7391 -1.0863
  122SOPE  C21612988   1.217   3.189   5.084  0.2039  0.0273  0.0346
  122SOPE  H16R12989   1.137   3.238   5.026  0.1392  2.4244  2.0004
  122SOPE  H16S12990   1.225   3.082   5.053 -1.0197 -1.5327  4.3779
  122SOPE  C21712991   1.355   3.258   5.049 -0.0839  0.3394  0.0241
  122SOPE  H17R12992   1.433   3.187   5.085 -1.9483 -2.3453 -0.8559
  122SOPE  H17S12993   1.356   3.354   5.105  0.1048 -0.6561  1.8245
  122SOPE  C21812994   1.387   3.282   4.902 -0.6121 -0.1017 -0.5591
  122SOPE  H18R12995   1.298   3.329   4.855 -1.3961 -1.8796 -0.9460
  122SOPE  H18S12996   1.415   3.186   4.854 -0.8098 -0.3382 -0.1963
  122SOPE  H18T12997   1.468   3.358   4.893 -0.8300  0.1344 -0.5158
  122SOPE   C3312998   1.935   3.003   6.513 -0.3791 -0.1069  0.1937
  122SOPE   H3X12999   1.996   3.000   6.420  0.4731  1.1639  0.6859
  122SOPE   H3Y13000   1.877   3.097   6.509 -1.0164 -0.3563  2.4991
  122SOPE   C3413001   1.831   2.891   6.494 -0.0754  0.4905 -0.0176
  122SOPE   H4X13002   1.769   2.882   6.587  0.9658  0.5565  0.6986
  122SOPE   H4Y13003   1.889   2.796   6.484 -0.1634  0.6345 -2.2197
  122SOPE   C3513004   1.738   2.922   6.379 -0.1888  0.4122 -1.0175
  122SOPE   H5X13005   1.678   3.012   6.402 -1.8982 -1.2554  1.6689
  122SOPE   H5Y13006   1.664   2.840   6.366 -0.9900  1.2164 -1.6996
  122SOPE   C3613007   1.814   2.938   6.247  0.1480 -0.0185  0.2292
  122SOPE   H6X13008   1.901   2.869   6.245 -1.3502 -1.9740  0.0578
  122SOPE   H6Y13009   1.847   3.042   6.225  1.7673 -0.9855 -2.3075
  122SOPE   C3713010   1.733   2.899   6.119 -0.2179 -0.1574  0.2943
  122SOPE   H7X13011   1.772   2.947   6.026 -0.8154  0.1633  0.2080
  122SOPE   H7Y13012   1.635   2.948   6.132 -0.5413 -0.5284 -0.6708
  122SOPE   C3813013   1.706   2.750   6.110 -0.3004 -0.0006  0.7316
  122SOPE   H8X13014   1.650   2.708   6.196 -2.2018 -0.5233 -0.7140
  122SOPE   H8Y13015   1.803   2.696   6.117 -2.4597 -3.9916  4.2775
  122SOPE   C3913016   1.627   2.720   5.986 -0.1788  0.0136 -0.5696
  122SOPE   H9X13017   1.528   2.770   5.991 -0.8208 -1.2413 -0.1535
  122SOPE   H9Y13018   1.603   2.611   5.993 -1.7842  0.3919  0.3388
  122SOPE  C31013019   1.691   2.762   5.851 -0.7069  0.2726 -0.3982
  122SOPE  H10X13020   1.799   2.738   5.863 -0.6780  0.2670 -0.6621
  122SOPE  H10Y13021   1.694   2.872   5.834  0.8081  0.4184  0.5832
  122SOPE  C31113022   1.645   2.685   5.727  0.3117  0.1243  0.1442
  122SOPE  H11X13023   1.661   2.578   5.754 -1.6826 -0.2041  0.1788
  122SOPE  H11Y13024   1.716   2.716   5.648  2.4902 -1.6703  1.2942
  122SOPE  C31213025   1.501   2.720   5.694 -0.8312 -0.2094  0.1422
  122SOPE  H12X13026   1.516   2.827   5.665  3.6481 -0.9083 -0.9070
  122SOPE  H12Y13027   1.431   2.713   5.780 -1.9006 -0.3593 -0.7083
  122SOPE  C31313028   1.433   2.635   5.588 -0.4556 -0.0747  0.9636
  122SOPE  H13X13029   1.446   2.528   5.616  2.8159 -0.1787 -0.4808
  122SOPE  H13Y13030   1.489   2.646   5.493 -2.2569 -2.9063 -0.5415
  122SOPE  C31413031   1.288   2.672   5.555 -0.4927  0.2764  1.1376
  122SOPE  H14X13032   1.272   2.770   5.507  0.3164  0.2800  0.8671
  122SOPE  H14Y13033   1.232   2.684   5.651 -1.6696  1.4367  0.3384
  122SOPE  C31513034   1.230   2.564   5.465 -0.3345  0.3051 -0.0033
  122SOPE  H15X13035   1.235   2.464   5.513 -1.2751  0.1040 -0.3078
  122SOPE  H15Y13036   1.302   2.561   5.380  1.3738  1.9446  1.2979
  122SOPE  C31613037   1.081   2.586   5.427 -0.9716 -0.3222  0.0385
  122SOPE  H16X13038   1.055   2.514   5.346 -1.6466  0.9449 -0.9095
  122SOPE  H16Y13039   1.062   2.685   5.380  0.1070 -0.0163  0.2280
  122SOPE  C31713040   0.971   2.569   5.539  0.1362 -0.5526 -0.3330
  122SOPE  H17X13041   1.001   2.637   5.621 -2.8077 -1.1806  1.3848
  122SOPE  H17Y13042   0.987   2.469   5.585  0.1401 -0.8537 -0.9776
  122SOPE  C31813043   0.826   2.615   5.500  0.6742 -0.1576 -0.6226
  122SOPE  H18X13044   0.825   2.723   5.471 -1.8699  0.3081  0.8983
  122SOPE  H18Y13045   0.758   2.598   5.585 -0.2659 -0.4569 -1.4205
  122SOPE  H18Z13046   0.790   2.562   5.410 -0.3628  1.0553 -0.9515
  123SOPE     N13047   0.881   5.767   2.455  0.0792 -0.1227  0.0576
  123SOPE   HN113048   0.874   5.871   2.449  2.0000  0.0781  0.5994
  123SOPE   HN213049   0.898   5.721   2.364 -3.4731  0.0705 -0.8503
  123SOPE   HN313050   0.787   5.735   2.484  0.3722 -0.2075  0.9666
  123SOPE   C1213051   0.990   5.730   2.553  0.2956 -0.2342  0.4647
  123SOPE  H12A13052   0.944   5.687   2.644 -1.5510 -0.5573 -0.5608
  123SOPE  H12B13053   1.050   5.820   2.579  2.3223 -0.9022 -1.5623
  123SOPE   C1113054   1.084   5.627   2.494  0.7371 -0.5027 -0.2204
  123SOPE  H11A13055   1.155   5.594   2.573 -0.4861  2.5650  2.3923
  123SOPE  H11B13056   1.147   5.684   2.423  0.8644  1.0555  1.0919
  123SOPE     P13057   1.108   5.404   2.368 -0.3707  0.2957  0.3849
  123SOPE   O1313058   1.233   5.455   2.301  0.2177  0.1988  0.8798
  123SOPE   O1413059   1.025   5.327   2.275  0.1412 -0.3147 -0.3957
  123SOPE   O1213060   1.014   5.521   2.425 -0.5474 -0.5540  0.6573
  123SOPE   O1113061   1.158   5.322   2.487  0.1324 -0.3158 -0.4025
  123SOPE    C113062   1.082   5.214   2.550 -0.1682 -1.0509  0.0481
  123SOPE    HA13063   1.131   5.118   2.525 -0.2358 -0.4716 -2.5964
  123SOPE    HB13064   0.980   5.210   2.506 -1.2810  3.8107  1.4742
  123SOPE    C213065   1.083   5.233   2.703 -0.7499 -0.0119 -0.4545
  123SOPE    HS13066   1.038   5.142   2.748  0.9067  0.6102  2.8438
  123SOPE   O2113067   1.008   5.348   2.738 -0.1083  0.7735 -0.0985
  123SOPE   C2113068   0.964   5.343   2.865 -0.4297 -0.6557  1.3790
  123SOPE   O2213069   0.972   5.245   2.933  0.1446  0.0807 -0.5174
  123SOPE   C2213070   0.898   5.481   2.902 -0.2098  0.4142  0.1249
  123SOPE   H2R13071   0.790   5.482   2.879 -0.0916  1.8121 -0.4890
  123SOPE   H2S13072   0.941   5.556   2.832  1.4188 -0.3817  0.2167
  123SOPE    C313073   1.233   5.239   2.745 -0.9586 -0.2225 -0.2392
  123SOPE    HX13074   1.273   5.338   2.715  0.8445 -0.0183  2.5008
  123SOPE    HY13075   1.292   5.172   2.679 -0.9527  1.4604 -2.0184
  123SOPE   O3113076   1.264   5.227   2.884  0.2618 -0.0401 -0.1380
  123SOPE   C3113077   1.277   5.105   2.938 -0.1350 -0.2050  0.6639
  123SOPE   O3213078   1.271   5.003   2.875 -0.0451 -0.1426 -0.1159
  123SOPE   C3213079   1.300   5.116   3.090 -0.4436 -0.3504 -0.3963
  123SOPE   H2X13080   1.326   5.221   3.113  0.4148 -0.1973 -1.9220
  123SOPE   H2Y13081   1.385   5.049   3.117 -1.9827 -3.1693 -2.1015
  123SOPE   C2313082   0.916   5.532   3.043  0.4503  0.3265  0.8964
  123SOPE   H3R13083   0.841   5.475   3.104  1.0167 -2.5772 -0.9017
  123SOPE   H3S13084   0.898   5.641   3.047  1.1581  0.4325  1.3428
  123SOPE   C2413085   1.055   5.513   3.105  0.1301 -0.0468 -0.0169
  123SOPE   H4R13086   1.052   5.548   3.210 -0.4108 -2.1764  0.7276
  123SOPE   H4S13087   1.094   5.410   3.118  0.3360  0.2720  2.2695
  123SOPE   C2513088   1.158   5.597   3.034  0.2129  0.2960 -0.0940
  123SOPE   H5R13089   1.171   5.573   2.926 -1.5393  1.3020 -0.5814
  123SOPE   H5S13090   1.144   5.707   3.038 -1.8012  0.0821  0.1061
  123SOPE   C2613091   1.285   5.563   3.106 -0.4909 -0.1825  0.7605
  123SOPE   H6R13092   1.267   5.550   3.215 -1.0052  0.7231  0.7920
  123SOPE   H6S13093   1.325   5.463   3.080  1.1681  0.6186  0.1003
  123SOPE   C2713094   1.391   5.668   3.104  0.1495 -0.2227 -0.0078
  123SOPE   H7R13095   1.375   5.704   3.000  0.1683 -2.6680 -0.9320
  123SOPE   H7S13096   1.363   5.745   3.179 -0.0093 -0.8261  0.5679
  123SOPE   C2813097   1.528   5.612   3.131 -0.4632 -0.1977  0.2249
  123SOPE   H8R13098   1.551   5.524   3.067  0.2216  0.7141 -0.8187
  123SOPE   H8S13099   1.593   5.694   3.094  0.6444 -0.5434  1.3300
  123SOPE   C2913100   1.547   5.590   3.278  0.1133 -0.1894 -0.0890
  123SOPE   H9113101   1.472   5.523   3.322 -1.8067  2.3743  0.8153
  123SOPE  C21013102   1.630   5.664   3.363  0.4158  0.7656 -0.5444
  123SOPE  H10113103   1.650   5.623   3.464 -0.8465 -1.0167 -0.9558
  123SOPE  C21113104   1.719   5.765   3.311 -0.0188  0.0954  0.0543
  123SOPE  H11R13105   1.662   5.855   3.280 -0.7970 -0.7083 -0.8968
  123SOPE  H11S13106   1.784   5.744   3.223  0.1889 -2.2497  0.6983
  123SOPE  C21213107   1.810   5.809   3.431 -0.4447 -0.3635 -0.1271
  123SOPE  H12R13108   1.866   5.899   3.398  1.8378 -1.4659  0.5642
  123SOPE  H12S13109   1.873   5.719   3.447  0.4175 -0.0627 -1.6707
  123SOPE  C21313110   1.729   5.849   3.554  0.1276 -0.1813  0.3152
  123SOPE  H13R13111   1.686   5.756   3.596 -0.2369 -0.7289 -1.1926
  123SOPE  H13S13112   1.647   5.920   3.530 -0.4123  0.7302  4.1684
  123SOPE  C21413113   1.822   5.917   3.657  0.2094  0.3329 -0.3482
  123SOPE  H14R13114   1.854   6.016   3.620  0.0013  0.5247 -0.0213
  123SOPE  H14S13115   1.909   5.852   3.681 -0.0209 -0.8435 -2.4223
  123SOPE  C21513116   1.748   5.953   3.788 -0.5001 -0.1707  0.0072
  123SOPE  H15R13117   1.689   5.869   3.831 -0.8805 -0.0155 -0.2098
  123SOPE  H15S13118   1.687   6.045   3.772 -0.1532  0.6603  2.8828
  123SOPE  C21613119   1.849   6.003   3.894 -0.4442 -0.6222 -0.2556
  123SOPE  H16R13120   1.893   6.101   3.868  0.2596 -1.0207 -0.5750
  123SOPE  H16S13121   1.928   5.928   3.914 -0.4996 -0.3887  0.9364
  123SOPE  C21713122   1.770   6.034   4.023 -0.1551  0.3971 -0.4274
  123SOPE  H17R13123   1.700   5.951   4.049  1.1505  0.2591  3.3786
  123SOPE  H17S13124   1.699   6.116   4.002 -2.1916  0.3068  4.6368
  123SOPE  C21813125   1.865   6.061   4.136 -0.3644 -0.2294  0.0296
  123SOPE  H18R13126   1.934   5.975   4.145  0.0914  0.2071  0.8060
  123SOPE  H18S13127   1.811   6.091   4.228 -0.9857  0.6716 -0.6050
  123SOPE  H18T13128   1.928   6.147   4.106 -2.4243  0.2493 -3.6389
  123SOPE   C3313129   1.168   5.101   3.171 -0.2948 -0.3749  0.1075
  123SOPE   H3X13130   1.141   4.995   3.189  0.4305 -0.3794  1.2228
  123SOPE   H3Y13131   1.089   5.152   3.111  0.6591  2.1768  0.8647
  123SOPE   C3413132   1.178   5.174   3.309  0.6014 -0.4192 -0.4709
  123SOPE   H4X13133   1.088   5.151   3.369  1.3392  1.0002  1.3073
  123SOPE   H4Y13134   1.179   5.284   3.294  3.8950 -0.1076  1.1108
  123SOPE   C3513135   1.309   5.132   3.379  0.2609  0.4676  0.4962
  123SOPE   H5X13136   1.395   5.184   3.331  0.1677 -0.0602 -0.2668
  123SOPE   H5Y13137   1.322   5.026   3.348  0.6492  1.1290 -1.7883
  123SOPE   C3613138   1.316   5.161   3.520 -0.9304  0.1531 -0.0523
  123SOPE   H6X13139   1.402   5.099   3.554 -0.7056  0.0591 -0.7695
  123SOPE   H6Y13140   1.225   5.123   3.571 -0.8046 -0.2503 -0.1265
  123SOPE   C3713141   1.350   5.310   3.552  0.3087  0.6113 -0.0630
  123SOPE   H7X13142   1.263   5.378   3.537  0.9522  0.9035 -3.0355
  123SOPE   H7Y13143   1.415   5.338   3.466 -0.9320 -0.4297 -1.3928
  123SOPE   C3813144   1.435   5.318   3.685 -0.1001 -0.2903  0.0260
  123SOPE   H8X13145   1.520   5.246   3.684 -0.4432 -0.7187  0.8870
  123SOPE   H8Y13146   1.375   5.291   3.774 -0.8060 -1.6661 -0.8424
  123SOPE   C3913147   1.491   5.459   3.706 -0.2216 -0.7567 -1.1279
  123SOPE   H9X13148   1.408   5.530   3.728  0.9491 -0.1199  1.7082
  123SOPE   H9Y13149   1.540   5.497   3.614  1.1471 -0.2034 -0.2075
  123SOPE  C31013150   1.581   5.460   3.830 -0.4364  0.1072  0.3478
  123SOPE  H10X13151   1.676   5.406   3.811 -0.4674 -1.0012  2.9003
  123SOPE  H10Y13152   1.533   5.391   3.902 -1.2833 -1.6280 -1.7958
  123SOPE  C31113153   1.626   5.594   3.891 -0.7714 -0.7839  0.5573
  123SOPE  H11X13154   1.543   5.647   3.942 -0.8662  1.0162 -1.3207
  123SOPE  H11Y13155   1.661   5.654   3.804 -1.4866  0.0076  0.7964
  123SOPE  C31213156   1.753   5.571   3.977 -0.0417  0.1751  0.1422
  123SOPE  H12X13157   1.799   5.667   4.008  1.1336 -0.5924  0.8689
  123SOPE  H12Y13158   1.840   5.521   3.929 -0.6937  0.7064 -1.6832
  123SOPE  C31313159   1.728   5.488   4.110 -0.3194 -0.5491  0.2104
  123SOPE  H13X13160   1.665   5.402   4.078 -0.7299 -0.6597  1.2749
  123SOPE  H13Y13161   1.658   5.553   4.167 -1.2398  0.5034 -1.9894
  123SOPE  C31413162   1.862   5.464   4.179  0.0914 -0.2235  0.0977
  123SOPE  H14X13163   1.889   5.566   4.213 -0.6726  0.0328 -0.0392
  123SOPE  H14Y13164   1.941   5.426   4.111  0.7250 -2.0183  1.7647
  123SOPE  C31513165   1.850   5.368   4.294 -0.5487  0.0895 -0.8988
  123SOPE  H15X13166   1.815   5.274   4.247  0.6509 -1.2560  0.7659
  123SOPE  H15Y13167   1.773   5.410   4.363 -0.2918 -1.1155  0.1505
  123SOPE  C31613168   1.987   5.340   4.362 -0.3062 -0.4769  0.0399
  123SOPE  H16X13169   2.050   5.430   4.384  0.7371 -0.5722 -2.2585
  123SOPE  H16Y13170   2.041   5.266   4.300  0.2056 -2.0978  2.2940
  123SOPE  C31713171   1.967   5.268   4.499 -0.0090  0.6833 -0.1200
  123SOPE  H17X13172   1.916   5.171   4.480  0.7450  0.2399  0.0707
  123SOPE  H17Y13173   1.905   5.329   4.568  0.0217 -0.9607  1.4491
  123SOPE  C31813174   2.107   5.231   4.565 -0.6155 -0.5503 -0.6122
  123SOPE  H18X13175   2.192   5.213   4.496  0.0081 -4.1473  0.8832
  123SOPE  H18Y13176   2.084   5.136   4.617 -1.1202 -0.3009 -0.3730
  123SOPE  H18Z13177   2.137   5.314   4.633 -0.4610 -1.0801 -0.0290
  124SOPE     N13178   3.198   2.700   2.181 -0.2527  0.0329  0.0662
  124SOPE   HN113179   3.288   2.739   2.213 -0.2853 -1.2125  1.7775
  124SOPE   HN213180   3.222   2.657   2.089  1.3489 -0.2320  0.5803
  124SOPE   HN313181   3.135   2.776   2.148  0.6234  0.2423 -1.2055
  124SOPE   C1213182   3.149   2.586   2.267 -0.0026  0.0875 -0.1698
  124SOPE  H12A13183   3.238   2.527   2.295 -0.8447  0.2007  3.1724
  124SOPE  H12B13184   3.081   2.524   2.205  0.1023 -0.6239  0.4077
  124SOPE   C1113185   3.077   2.640   2.391  0.0063  0.6547 -0.5209
  124SOPE  H11A13186   3.161   2.691   2.443  0.1191  0.6078 -0.6555
  124SOPE  H11B13187   3.047   2.549   2.447  2.0224 -0.1873 -0.7250
  124SOPE     P13188   2.824   2.701   2.371  0.1717 -0.1336 -0.0283
  124SOPE   O1313189   2.801   2.570   2.306 -0.2410  0.1166  0.1436
  124SOPE   O1413190   2.754   2.817   2.311  0.0421  0.1601 -0.2393
  124SOPE   O1213191   2.976   2.732   2.361  0.2285 -0.6603 -0.0664
  124SOPE   O1113192   2.796   2.684   2.522  0.5427 -0.1385  0.2267
  124SOPE    C113193   2.803   2.566   2.598 -0.0451 -0.2146  0.1929
  124SOPE    HA13194   2.870   2.491   2.552  0.4652  1.3778 -1.8004
  124SOPE    HB13195   2.702   2.522   2.614  0.2342 -1.1271 -0.5200
  124SOPE    C213196   2.867   2.605   2.739 -0.4408  0.3579 -0.0563
  124SOPE    HS13197   2.803   2.679   2.791 -3.6591 -2.8832  0.9984
  124SOPE   O2113198   3.009   2.640   2.744  0.2905  0.2989 -0.1141
  124SOPE   C2113199   3.052   2.734   2.826  0.1703 -0.4345  0.1536
  124SOPE   O2213200   2.976   2.816   2.880  0.1576  0.2278 -0.5120
  124SOPE   C2213201   3.198   2.703   2.861  0.0382  0.1198  0.4280
  124SOPE   H2R13202   3.265   2.706   2.773  0.2376  4.5510  0.5287
  124SOPE   H2S13203   3.206   2.603   2.910  1.0482 -0.4090 -0.7765
  124SOPE    C313204   2.848   2.479   2.840 -0.1362  0.2481  1.2322
  124SOPE    HX13205   2.903   2.392   2.799  0.2401  0.1972  1.8431
  124SOPE    HY13206   2.737   2.467   2.832 -0.2367  2.0140 -1.9651
  124SOPE   O3113207   2.881   2.518   2.971  0.4215  0.1636  0.4861
  124SOPE   C3113208   2.896   2.421   3.054 -0.1059 -0.6846  0.7964
  124SOPE   O3213209   2.884   2.304   3.031 -0.0873 -0.1637  0.0070
  124SOPE   C3213210   2.921   2.485   3.194 -0.7898  0.2640 -0.3703
  124SOPE   H2X13211   2.883   2.589   3.186  0.7040  0.7800 -1.0229
  124SOPE   H2Y13212   3.031   2.477   3.206 -0.6708 -1.1545 -2.0131
  124SOPE   C2313213   3.270   2.803   2.965  0.5875 -0.2807 -0.2969
  124SOPE   H3R13214   3.187   2.841   3.028  0.1897  3.2255 -2.6253
  124SOPE   H3S13215   3.308   2.893   2.912 -1.0315  1.8924  1.9799
  124SOPE   C2413216   3.372   2.721   3.045  0.5795 -1.1825 -0.0148
  124SOPE   H4R13217   3.340   2.616   3.062  0.7508 -1.4553 -1.2934
  124SOPE   H4S13218   3.466   2.729   2.986  0.6571 -0.8679  0.1504
  124SOPE   C2513219   3.391   2.787   3.190  0.1216 -0.4871  0.6686
  124SOPE   H5R13220   3.498   2.768   3.216  0.7111  1.8221  0.1346
  124SOPE   H5S13221   3.377   2.896   3.177  2.0652 -0.5283 -3.1792
  124SOPE   C2613222   3.306   2.712   3.299  0.4534 -0.4132  0.6751
  124SOPE   H6R13223   3.199   2.711   3.268  0.5055 -3.1471  0.3455
  124SOPE   H6S13224   3.337   2.605   3.305  1.8529 -0.0647  0.1292
  124SOPE   C2713225   3.333   2.777   3.432 -0.6919 -0.1314  0.1927
  124SOPE   H7R13226   3.439   2.811   3.439 -1.0278  0.8328  0.7921
  124SOPE   H7S13227   3.281   2.875   3.440  2.2275  1.5276  0.5328
  124SOPE   C2813228   3.295   2.680   3.550 -0.3380 -0.3226  0.5773
  124SOPE   H8R13229   3.357   2.591   3.525  0.3123  0.4526 -0.7155
  124SOPE   H8S13230   3.332   2.732   3.641 -1.3743  0.9782  0.2814
  124SOPE   C2913231   3.147   2.666   3.556  0.2212 -0.0225 -0.4728
  124SOPE   H9113232   3.090   2.645   3.464 -3.4900 -0.2714  1.7194
  124SOPE  C21013233   3.070   2.661   3.672 -0.6660  0.1399  0.0935
  124SOPE  H10113234   2.962   2.650   3.655 -0.6158  1.5519 -1.4164
  124SOPE  C21113235   3.116   2.678   3.818 -0.2568  0.4220  0.7443
  124SOPE  H11R13236   3.057   2.759   3.867 -0.5640  0.5921  0.1201
  124SOPE  H11S13237   3.219   2.719   3.815  0.0201 -0.2827  0.4886
  124SOPE  C21213238   3.136   2.545   3.890  0.0446  0.2134 -0.5873
  124SOPE  H12R13239   3.196   2.555   3.983 -0.6863 -2.9548  0.3377
  124SOPE  H12S13240   3.194   2.485   3.818  1.1532  1.1216 -0.4731
  124SOPE  C21313241   3.003   2.471   3.929 -0.2551 -0.0480 -0.5051
  124SOPE  H13R13242   2.981   2.405   3.843  1.5143  0.3669 -1.3321
  124SOPE  H13S13243   2.929   2.552   3.948 -0.8434 -1.3308  3.7617
  124SOPE  C21413244   3.016   2.367   4.053 -0.1531  0.3222 -0.3690
  124SOPE  H14R13245   2.916   2.323   4.069 -0.2759  0.0805 -1.6831
  124SOPE  H14S13246   3.050   2.422   4.144  1.4680  1.1652 -1.4405
  124SOPE  C21513247   3.110   2.252   4.017 -0.2185  0.5954  0.1482
  124SOPE  H15R13248   3.118   2.174   4.097 -0.3851  0.2627 -0.1585
  124SOPE  H15S13249   3.212   2.294   4.007 -0.7425  1.9203  0.1733
  124SOPE  C21613250   3.088   2.170   3.883 -0.2495  0.0160 -0.3474
  124SOPE  H16R13251   3.149   2.077   3.883 -1.3672 -0.8798  2.9058
  124SOPE  H16S13252   3.112   2.237   3.798 -0.5431 -0.9403 -1.1957
  124SOPE  C21713253   2.945   2.120   3.853  0.4281  0.3624  0.8102
  124SOPE  H17R13254   2.890   2.198   3.797 -0.2384 -1.4923 -1.2875
  124SOPE  H17S13255   2.880   2.085   3.936 -1.0417  0.3991 -0.2909
  124SOPE  C21813256   2.949   2.007   3.747  0.0306  0.1998 -0.8625
  124SOPE  H18R13257   3.022   1.930   3.782  0.9695  1.2940 -0.3421
  124SOPE  H18S13258   2.969   2.040   3.643  3.0701 -0.4093 -0.5605
  124SOPE  H18T13259   2.851   1.955   3.753 -0.1146  0.6158  1.5065
  124SOPE   C3313260   2.859   2.391   3.307  0.6165  0.5153  0.9004
  124SOPE   H3X13261   2.901   2.290   3.291 -1.4425 -0.0614 -1.4910
  124SOPE   H3Y13262   2.751   2.372   3.287  0.2271  0.3134  2.8930
  124SOPE   C3413263   2.890   2.434   3.452 -0.2401  0.2376  0.4980
  124SOPE   H4X13264   2.840   2.532   3.470 -0.2959 -0.0848  2.2101
  124SOPE   H4Y13265   2.999   2.454   3.463 -0.1072  1.5256 -2.2189
  124SOPE   C3513266   2.838   2.338   3.559 -0.4227  0.2064 -0.4466
  124SOPE   H5X13267   2.866   2.371   3.661 -3.2934 -1.7826  1.1333
  124SOPE   H5Y13268   2.891   2.241   3.546  0.8323  0.6421  1.1148
  124SOPE   C3613269   2.684   2.309   3.557  0.7776 -0.0316 -1.0085
  124SOPE   H6X13270   2.650   2.273   3.457 -0.9861  0.1787 -0.5049
  124SOPE   H6Y13271   2.639   2.406   3.585 -0.3693 -1.1436  1.2141
  124SOPE   C3713272   2.626   2.229   3.678  0.2917  0.1094  0.7067
  124SOPE   H7X13273   2.686   2.139   3.701  1.3554 -0.6193 -3.9635
  124SOPE   H7Y13274   2.523   2.190   3.662 -0.3523  1.4438  1.4534
  124SOPE   C3813275   2.619   2.320   3.804 -0.5427 -0.5423 -0.6300
  124SOPE   H8X13276   2.564   2.417   3.796  0.0361 -0.2436 -1.0891
  124SOPE   H8Y13277   2.718   2.347   3.846 -0.8451 -1.0422  0.4124
  124SOPE   C3913278   2.551   2.234   3.914 -0.8412  0.0989 -0.6728
  124SOPE   H9X13279   2.612   2.141   3.914  0.6669  0.9030  3.2160
  124SOPE   H9Y13280   2.444   2.219   3.886 -1.1146  1.5132 -0.4684
  124SOPE  C31013281   2.574   2.307   4.042  0.3469 -0.4196  0.5096
  124SOPE  H10X13282   2.525   2.406   4.035  0.8140 -0.3305 -3.2931
  124SOPE  H10Y13283   2.683   2.325   4.051  0.4293 -1.1222  1.0750
  124SOPE  C31113284   2.527   2.228   4.163 -0.4099 -0.8648  0.1946
  124SOPE  H11X13285   2.552   2.122   4.143  2.8758  0.0128 -1.0625
  124SOPE  H11Y13286   2.417   2.236   4.173 -0.1437  0.8915  2.4950
  124SOPE  C31213287   2.583   2.277   4.302 -0.0284  0.4477 -0.4249
  124SOPE  H12X13288   2.564   2.387   4.306 -1.9576  0.2178 -1.7706
  124SOPE  H12Y13289   2.693   2.270   4.287 -0.0258  1.3199 -0.9013
  124SOPE  C31313290   2.543   2.203   4.426 -0.2170  0.1876 -0.1127
  124SOPE  H13X13291   2.433   2.186   4.436 -0.4665  0.2360 -2.4273
  124SOPE  H13Y13292   2.575   2.257   4.518 -0.5989 -0.9799  0.7363
  124SOPE  C31413293   2.604   2.061   4.429 -0.0083  0.3542 -0.4618
  124SOPE  H14X13294   2.714   2.063   4.420  0.1671  1.6888  1.5069
  124SOPE  H14Y13295   2.566   1.992   4.350  0.6863 -0.0508 -0.4547
  124SOPE  C31513296   2.571   1.991   4.564 -0.4322  0.5386 -0.9533
  124SOPE  H15X13297   2.461   1.998   4.574 -0.2624  2.0370  0.0907
  124SOPE  H15Y13298   2.608   2.044   4.654 -2.1341  2.6055 -1.4086
  124SOPE  C31613299   2.611   1.838   4.570 -0.7563 -0.6747 -0.0407
  124SOPE  H16X13300   2.596   1.785   4.473  0.0431 -0.7001 -0.1568
  124SOPE  H16Y13301   2.548   1.790   4.648  1.0945  0.2661  2.1172
  124SOPE  C31713302   2.761   1.822   4.607 -0.3129  0.5146 -1.0827
  124SOPE  H17X13303   2.802   1.903   4.671  0.4683  0.8453 -1.9677
  124SOPE  H17Y13304   2.824   1.849   4.520  1.3954 -0.8575 -0.3358
  124SOPE  C31813305   2.812   1.679   4.651  0.7829  0.0022  0.6327
  124SOPE  H18X13306   2.738   1.625   4.715  0.1951  0.0750  0.0225
  124SOPE  H18Y13307   2.907   1.695   4.706  1.3554  4.3338 -1.2360
  124SOPE  H18Z13308   2.821   1.611   4.564 -0.3304  0.4292  0.1664
  125SOPE     N13309   4.641   6.303   2.418  0.0885  0.3549  0.2461
  125SOPE   HN113310   4.724   6.317   2.478  0.4934 -0.7659 -0.0278
  125SOPE   HN213311   4.642   6.217   2.359 -2.4615  1.1249 -1.0901
  125SOPE   HN313312   4.637   6.386   2.355 -2.6894 -0.6556 -1.0664
  125SOPE   C1213313   4.512   6.297   2.486 -0.4866 -1.0002  0.0722
  125SOPE  H12A13314   4.492   6.196   2.528 -1.0178 -0.4259  1.2171
  125SOPE  H12B13315   4.433   6.323   2.412 -1.1009  1.2390  1.4369
  125SOPE   C1113316   4.510   6.416   2.584  0.2884  0.1391 -0.1021
  125SOPE  H11A13317   4.591   6.436   2.657  0.7956  2.1187 -1.1230
  125SOPE  H11B13318   4.427   6.403   2.656 -0.8268 -0.1015 -1.3875
  125SOPE     P13319   4.576   6.628   2.439 -0.0875  0.1235 -0.2470
  125SOPE   O1313320   4.504   6.754   2.407 -0.2974  0.1277 -0.1694
  125SOPE   O1413321   4.641   6.554   2.325  0.1219  0.0496 -0.2384
  125SOPE   O1213322   4.475   6.535   2.516 -0.5938 -0.2392  0.5216
  125SOPE   O1113323   4.688   6.657   2.549 -0.2156  0.2444 -0.0641
  125SOPE    C113324   4.662   6.751   2.657 -0.1508  0.0376 -0.6266
  125SOPE    HA13325   4.559   6.737   2.696 -0.3213  1.3175 -0.5689
  125SOPE    HB13326   4.684   6.853   2.617  0.1097  0.0102 -0.5533
  125SOPE    C213327   4.744   6.730   2.789  0.2860  0.1126 -0.3354
  125SOPE    HS13328   4.691   6.798   2.859 -0.6458 -0.2624 -0.6585
  125SOPE   O2113329   4.878   6.781   2.771  0.0227 -0.3688  0.5117
  125SOPE   C2113330   4.945   6.847   2.868  0.4234  0.0561  0.4147
  125SOPE   O2213331   4.905   6.863   2.985  0.4215  0.0147  0.6059
  125SOPE   C2213332   5.074   6.904   2.809  0.6076  0.2092  0.0681
  125SOPE   H2R13333   5.045   6.947   2.710  0.0250  1.2024  0.6566
  125SOPE   H2S13334   5.137   6.818   2.776 -3.2919 -1.9729 -2.4517
  125SOPE    C313335   4.730   6.602   2.857  0.0270 -0.4714  0.2895
  125SOPE    HX13336   4.797   6.601   2.946  0.5662  0.1867 -0.0965
  125SOPE    HY13337   4.775   6.526   2.789 -2.2162 -1.1110 -0.5443
  125SOPE   O3113338   4.600   6.562   2.874  0.7530 -0.1291 -0.1625
  125SOPE   C3113339   4.543   6.595   2.994 -0.0267  0.2887  0.3383
  125SOPE   O3213340   4.591   6.653   3.087 -0.0327  0.0617  0.4010
  125SOPE   C3213341   4.398   6.548   2.983 -0.4430 -0.2510 -0.2539
  125SOPE   H2X13342   4.400   6.437   2.986 -2.0385 -0.3723 -1.7603
  125SOPE   H2Y13343   4.358   6.594   2.890  2.6943 -0.2740 -1.7297
  125SOPE   C2313344   5.148   7.022   2.877  0.2727 -0.4224 -0.4205
  125SOPE   H3R13345   5.228   7.068   2.816 -0.3671  1.1122 -0.1353
  125SOPE   H3S13346   5.190   6.991   2.976 -0.7607  0.9251  0.4782
  125SOPE   C2413347   5.052   7.146   2.896 -0.4923 -0.1532 -0.8660
  125SOPE   H4R13348   5.005   7.182   2.801  0.3913 -2.0632 -2.0871
  125SOPE   H4S13349   4.958   7.128   2.952 -0.5210  0.1037 -0.8308
  125SOPE   C2513350   5.134   7.263   2.955 -0.4503 -0.2333 -0.3722
  125SOPE   H5R13351   5.214   7.284   2.881 -0.7995 -0.7522 -0.9164
  125SOPE   H5S13352   5.069   7.353   2.961  0.9565  0.7246  3.2943
  125SOPE   C2613353   5.195   7.241   3.096 -0.7995 -0.1698  0.2567
  125SOPE   H6R13354   5.281   7.170   3.090 -0.3451  0.1866  2.1642
  125SOPE   H6S13355   5.244   7.336   3.123 -1.1172  0.1039 -0.1116
  125SOPE   C2713356   5.110   7.194   3.206  0.7031 -0.2714  0.4631
  125SOPE   H7R13357   5.020   7.256   3.226 -0.0758 -1.1016 -0.3875
  125SOPE   H7S13358   5.064   7.097   3.177 -1.0445  1.1686 -1.9188
  125SOPE   C2813359   5.185   7.161   3.343 -0.1923 -0.2166  0.4529
  125SOPE   H8R13360   5.103   7.120   3.406  0.6502  1.0716  2.4480
  125SOPE   H8S13361   5.252   7.075   3.323 -0.2514 -0.1166 -0.1998
  125SOPE   C2913362   5.252   7.277   3.407  0.4058 -0.3010  0.3112
  125SOPE   H9113363   5.262   7.366   3.344 -0.6879  0.1366  0.7381
  125SOPE  C21013364   5.290   7.297   3.539  0.5144 -0.8465  0.0334
  125SOPE  H10113365   5.340   7.389   3.574  0.8206 -0.9711 -0.0814
  125SOPE  C21113366   5.265   7.200   3.652  0.4659  0.8153 -0.5052
  125SOPE  H11R13367   5.241   7.102   3.605 -1.1043  1.8079 -1.9071
  125SOPE  H11S13368   5.168   7.230   3.697 -0.1829 -2.3288  0.3976
  125SOPE  C21213369   5.371   7.188   3.760  0.4381 -0.9353  0.7336
  125SOPE  H12R13370   5.479   7.187   3.731  0.3124 -2.8147  0.2544
  125SOPE  H12S13371   5.345   7.105   3.829  0.6797 -0.0876  1.8925
  125SOPE  C21313372   5.365   7.317   3.850  0.2472  0.3050 -0.2087
  125SOPE  H13R13373   5.260   7.323   3.885 -0.1578 -1.3502 -1.0407
  125SOPE  H13S13374   5.387   7.410   3.793  0.6626 -0.3901 -1.2019
  125SOPE  C21413375   5.452   7.314   3.970 -0.4293 -0.4599  0.7495
  125SOPE  H14R13376   5.562   7.319   3.954 -0.4730 -0.4713  0.4362
  125SOPE  H14S13377   5.442   7.220   4.029  1.6552 -0.2447  1.5429
  125SOPE  C21513378   5.430   7.424   4.070  1.0262 -0.0939  0.1387
  125SOPE  H15R13379   5.323   7.418   4.099  0.9896  1.0101  0.2960
  125SOPE  H15S13380   5.424   7.525   4.023 -1.7200 -0.0298  0.4494
  125SOPE  C21613381   5.525   7.421   4.186  0.0012  0.4714 -1.0315
  125SOPE  H16R13382   5.626   7.435   4.142  0.4590 -1.4020 -0.6581
  125SOPE  H16S13383   5.514   7.320   4.231 -0.9085 -0.3097 -2.8886
  125SOPE  C21713384   5.509   7.520   4.307 -0.5107 -0.5972  0.5352
  125SOPE  H17R13385   5.601   7.522   4.369 -1.4585  0.8332  1.9580
  125SOPE  H17S13386   5.423   7.492   4.373 -0.5923  1.2892  1.2703
  125SOPE  C21813387   5.487   7.663   4.257 -0.7113  0.4536 -0.5153
  125SOPE  H18R13388   5.392   7.675   4.201 -0.3055 -0.5403 -1.4284
  125SOPE  H18S13389   5.566   7.682   4.181 -1.5278  0.3034 -1.4212
  125SOPE  H18T13390   5.504   7.736   4.339  1.5597 -1.8720  1.2570
  125SOPE   C3313391   4.307   6.584   3.102  0.3238  0.5900 -0.4504
  125SOPE   H3X13392   4.204   6.567   3.065 -0.2249 -0.3708  1.3840
  125SOPE   H3Y13393   4.324   6.689   3.136 -1.7490  1.0684 -0.7454
  125SOPE   C3413394   4.337   6.490   3.225 -0.5565 -0.6709  0.4342
  125SOPE   H4X13395   4.444   6.506   3.250 -1.2267  0.4110  2.9727
  125SOPE   H4Y13396   4.330   6.387   3.185  0.1338 -0.9507  1.0208
  125SOPE   C3513397   4.245   6.505   3.338 -0.1427  0.5825  0.2798
  125SOPE   H5X13398   4.188   6.411   3.349 -0.9551  1.0853  0.4318
  125SOPE   H5Y13399   4.167   6.582   3.320 -0.2608  0.1842 -1.0180
  125SOPE   C3613400   4.325   6.547   3.465  0.0219 -0.0799  0.5423
  125SOPE   H6X13401   4.392   6.631   3.436  0.6557 -0.7816 -0.0667
  125SOPE   H6Y13402   4.388   6.460   3.492 -0.1419 -0.0297  1.0804
  125SOPE   C3713403   4.234   6.583   3.582 -0.3316 -0.0649 -0.3850
  125SOPE   H7X13404   4.187   6.488   3.615  1.2039 -0.6903  0.0605
  125SOPE   H7Y13405   4.151   6.647   3.544  0.0000 -0.3091 -1.5557
  125SOPE   C3813406   4.295   6.660   3.699  0.5352 -0.3130 -0.0994
  125SOPE   H8X13407   4.206   6.684   3.760  0.2049 -1.0102 -0.3022
  125SOPE   H8Y13408   4.354   6.752   3.678  0.5597 -0.4148 -0.4828
  125SOPE   C3913409   4.397   6.571   3.787  0.4860  0.2373 -0.2190
  125SOPE   H9X13410   4.470   6.514   3.726  3.1636  2.7046  0.4701
  125SOPE   H9Y13411   4.325   6.496   3.826  0.8236  0.6020  1.1705
  125SOPE  C31013412   4.474   6.645   3.902 -0.4199  0.3007 -0.3007
  125SOPE  H10X13413   4.531   6.727   3.853 -1.2931  1.1295  0.0524
  125SOPE  H10Y13414   4.548   6.579   3.952  0.0909  0.4715 -0.8042
  125SOPE  C31113415   4.383   6.707   4.015 -0.2348 -0.0222 -0.5131
  125SOPE  H11X13416   4.324   6.613   4.025  1.7835 -1.6708 -2.7937
  125SOPE  H11Y13417   4.320   6.787   3.971 -1.9802 -1.8676 -1.5518
  125SOPE  C31213418   4.459   6.729   4.144  0.2880  0.0260 -0.4574
  125SOPE  H12X13419   4.536   6.809   4.135 -0.5456  0.6441 -2.6798
  125SOPE  H12Y13420   4.506   6.641   4.192  3.6796  2.1148  0.3808
  125SOPE  C31313421   4.363   6.786   4.255  0.7331  0.6149 -0.2160
  125SOPE  H13X13422   4.281   6.712   4.262  2.8988 -1.9356 -0.0952
  125SOPE  H13Y13423   4.318   6.880   4.218 -0.3244 -0.3063 -1.3572
  125SOPE  C31413424   4.413   6.802   4.396  0.6774 -0.5182 -1.1285
  125SOPE  H14X13425   4.448   6.705   4.436  3.0009  1.4468  2.0839
  125SOPE  H14Y13426   4.336   6.844   4.464 -1.3160 -1.2045 -2.8317
  125SOPE  C31513427   4.540   6.889   4.400  0.4525  0.4619  0.1427
  125SOPE  H15X13428   4.514   6.996   4.387  0.5549  0.4604 -0.0815
  125SOPE  H15Y13429   4.609   6.846   4.324  0.6026  0.6160  0.1906
  125SOPE  C31613430   4.613   6.880   4.538  0.4489 -0.4043 -0.0410
  125SOPE  H16X13431   4.634   6.781   4.583 -1.4886  0.7597  3.9372
  125SOPE  H16Y13432   4.541   6.914   4.615 -0.2989 -1.7067 -0.1259
  125SOPE  C31713433   4.744   6.961   4.565  0.5956  0.3554  0.3425
  125SOPE  H17X13434   4.722   7.069   4.553  0.6744  0.1746 -1.9112
  125SOPE  H17Y13435   4.832   6.926   4.506  1.5399 -0.8965  2.3824
  125SOPE  C31813436   4.784   6.938   4.709 -0.4143  0.1064 -0.4778
  125SOPE  H18X13437   4.695   6.956   4.772  0.0370  1.3457 -0.1517
  125SOPE  H18Y13438   4.856   7.015   4.744  0.4014 -0.0036 -1.8585
  125SOPE  H18Z13439   4.837   6.843   4.727  2.1502  1.7488  1.2567
  126SOPE     N13440   0.908   4.679   2.645 -0.3418  0.2296 -0.3525
  126SOPE   HN113441   0.911   4.690   2.541  1.9033 -0.4317 -0.4021
  126SOPE   HN213442   0.983   4.739   2.683  0.3968 -0.2853 -0.9665
  126SOPE   HN313443   0.917   4.578   2.668 -0.0225  0.4429  0.4969
  126SOPE   C1213444   0.775   4.730   2.710  0.2723 -0.1956 -0.3993
  126SOPE  H12A13445   0.771   4.841   2.709 -1.4804 -0.2185  0.5427
  126SOPE  H12B13446   0.772   4.706   2.818 -2.2692 -2.2197 -0.8100
  126SOPE   C1113447   0.655   4.668   2.647  0.5493  1.0728 -0.5720
  126SOPE  H11A13448   0.646   4.699   2.541  2.0017  0.1968 -0.9756
  126SOPE  H11B13449   0.563   4.700   2.700  1.5158 -0.4990  2.3103
  126SOPE     P13450   0.584   4.415   2.591  0.1122  0.1738 -0.0549
  126SOPE   O1313451   0.649   4.288   2.570 -0.1592  0.0667 -0.4822
  126SOPE   O1413452   0.502   4.472   2.482 -0.2523  0.1617 -0.2322
  126SOPE   O1213453   0.677   4.527   2.657  0.1759  0.1912 -0.3720
  126SOPE   O1113454   0.484   4.393   2.708 -0.0008  0.3457 -0.0813
  126SOPE    C113455   0.514   4.354   2.841 -0.2329 -0.6232  0.0463
  126SOPE    HA13456   0.612   4.302   2.851  0.0495 -0.0812  0.1343
  126SOPE    HB13457   0.443   4.273   2.869 -0.8109 -0.0862  0.1708
  126SOPE    C213458   0.495   4.474   2.940 -0.4209  0.0735 -0.3422
  126SOPE    HS13459   0.592   4.528   2.944  0.6400 -1.7650 -0.3551
  126SOPE   O2113460   0.461   4.424   3.078 -0.0409  0.0396 -0.0740
  126SOPE   C2113461   0.557   4.355   3.136 -0.1615  0.5347 -0.3376
  126SOPE   O2213462   0.668   4.331   3.088  0.0308 -0.6185  0.6557
  126SOPE   C2213463   0.493   4.295   3.265 -1.0580  0.3639 -0.3187
  126SOPE   H2R13464   0.397   4.245   3.240 -0.9748 -0.6262  1.1990
  126SOPE   H2S13465   0.474   4.374   3.341 -0.8221  0.4210 -0.3197
  126SOPE    C313466   0.380   4.570   2.911  0.0992  0.6656 -0.5175
  126SOPE    HX13467   0.286   4.510   2.917 -0.1538  1.1937  1.2464
  126SOPE    HY13468   0.389   4.614   2.809 -1.3395  0.7127 -0.6446
  126SOPE   O3113469   0.386   4.670   3.015  0.0234 -0.3459  0.0778
  126SOPE   C3113470   0.262   4.731   3.036 -0.2795  0.0759  0.1733
  126SOPE   O3213471   0.160   4.712   2.968 -0.0927 -0.3210 -0.1238
  126SOPE   C3213472   0.284   4.855   3.116  0.1351 -0.1266 -0.3952
  126SOPE   H2X13473   0.196   4.917   3.091 -1.0173 -2.3526 -2.1946
  126SOPE   H2Y13474   0.371   4.910   3.072  0.6000 -0.5729 -0.0421
  126SOPE   C2313475   0.570   4.177   3.330  0.0075  0.4381 -0.5436
  126SOPE   H3R13476   0.680   4.191   3.335  0.1614 -0.0214 -2.1872
  126SOPE   H3S13477   0.558   4.083   3.272 -0.4024  0.3984 -0.3976
  126SOPE   C2413478   0.524   4.142   3.474 -0.4353  0.2122  0.3134
  126SOPE   H4R13479   0.415   4.152   3.491 -0.1105  2.8215  1.3545
  126SOPE   H4S13480   0.542   4.032   3.470  0.8899  0.4227 -0.0579
  126SOPE   C2513481   0.620   4.199   3.589 -0.8505  0.2615  1.0351
  126SOPE   H5R13482   0.725   4.199   3.554 -0.8301  2.1447  1.0013
  126SOPE   H5S13483   0.588   4.303   3.611 -0.7776  0.3073  0.9190
  126SOPE   C2613484   0.605   4.133   3.726  0.9368 -0.2871  0.0723
  126SOPE   H6R13485   0.499   4.155   3.753  0.4708  2.8039 -3.4238
  126SOPE   H6S13486   0.632   4.025   3.727  0.3662 -0.4430  1.6269
  126SOPE   C2713487   0.705   4.194   3.823 -0.8454 -0.0773  0.0872
  126SOPE   H7R13488   0.805   4.203   3.777 -0.5913 -0.5682  0.5367
  126SOPE   H7S13489   0.682   4.301   3.845  0.3026  0.1435  0.2588
  126SOPE   C2813490   0.724   4.136   3.963 -0.1315  0.2158 -0.0019
  126SOPE   H8R13491   0.742   4.027   3.958  0.8969  0.1105  3.4837
  126SOPE   H8S13492   0.814   4.189   4.002  0.4638 -0.5330 -0.3340
  126SOPE   C2913493   0.609   4.163   4.053 -0.0875  0.6724  0.0351
  126SOPE   H9113494   0.527   4.091   4.043 -1.2043  1.6480  1.7011
  126SOPE  C21013495   0.592   4.263   4.148 -0.1236 -0.2628 -0.4144
  126SOPE  H10113496   0.501   4.252   4.210 -1.1679  0.2130 -1.8109
  126SOPE  C21113497   0.679   4.379   4.181  0.3652 -0.6031 -0.0531
  126SOPE  H11R13498   0.616   4.467   4.155  0.2668  0.1851  2.6168
  126SOPE  H11S13499   0.767   4.377   4.113  1.1201 -0.6760  0.9111
  126SOPE  C21213500   0.737   4.394   4.333  0.6235 -0.4293 -0.0227
  126SOPE  H12R13501   0.770   4.500   4.345 -0.2664  0.0214 -1.3359
  126SOPE  H12S13502   0.818   4.320   4.345  1.1928  0.1494 -0.2613
  126SOPE  C21313503   0.620   4.376   4.429 -0.2555  0.0842 -0.3137
  126SOPE  H13R13504   0.562   4.283   4.412 -1.3886  1.1822 -3.0132
  126SOPE  H13S13505   0.543   4.454   4.410 -1.7464 -0.8321  1.6301
  126SOPE  C21413506   0.647   4.398   4.578 -0.0165 -0.5237 -0.2865
  126SOPE  H14R13507   0.708   4.490   4.564  0.0959 -0.4836  0.4192
  126SOPE  H14S13508   0.693   4.305   4.618  3.7358  0.2616 -2.2427
  126SOPE  C21513509   0.520   4.443   4.651 -0.3094  0.3484 -0.0196
  126SOPE  H15R13510   0.467   4.350   4.679  1.5258 -1.0950 -1.1025
  126SOPE  H15S13511   0.444   4.496   4.589  0.4094 -0.3904 -1.5855
  126SOPE  C21613512   0.531   4.526   4.779 -0.5095 -0.4051  0.2426
  126SOPE  H16R13513   0.595   4.615   4.763 -0.2357 -0.9419 -1.9667
  126SOPE  H16S13514   0.589   4.463   4.850 -3.1377 -1.5025  1.5565
  126SOPE  C21713515   0.397   4.560   4.849  0.2844 -0.1214 -0.3830
  126SOPE  H17R13516   0.349   4.462   4.867 -0.4368  0.0776 -1.0997
  126SOPE  H17S13517   0.337   4.617   4.774  0.1169 -2.9146 -2.5281
  126SOPE  C21813518   0.400   4.635   4.988 -0.1898  0.4914  0.1899
  126SOPE  H18R13519   0.440   4.572   5.071  2.2688  1.9849  0.2379
  126SOPE  H18S13520   0.295   4.661   5.012 -0.5847  3.1635 -3.5603
  126SOPE  H18T13521   0.469   4.722   4.985 -0.1590  0.5153  1.3028
  126SOPE   C3313522   0.287   4.833   3.270  0.6322  0.5678 -0.6011
  126SOPE   H3X13523   0.200   4.766   3.289 -0.7459  1.8586 -2.0952
  126SOPE   H3Y13524   0.272   4.932   3.319  1.7470 -0.7252  2.6313
  126SOPE   C3413525   0.417   4.772   3.316 -0.3578  0.4966  0.5835
  126SOPE   H4X13526   0.497   4.839   3.278  0.9964 -1.2733  0.2204
  126SOPE   H4Y13527   0.424   4.676   3.261 -1.2333  1.2843 -0.9796
  126SOPE   C3513528   0.437   4.777   3.469  0.5930 -0.7732  0.0363
  126SOPE   H5X13529   0.363   4.701   3.502  0.0654  0.6421  2.4281
  126SOPE   H5Y13530   0.405   4.877   3.507  1.7388  0.3305 -1.7693
  126SOPE   C3613531   0.583   4.750   3.509 -0.4052  0.3841  0.2163
  126SOPE   H6X13532   0.641   4.845   3.508  2.2092 -1.1151 -0.4102
  126SOPE   H6Y13533   0.629   4.688   3.429 -0.0180 -0.8330  1.3457
  126SOPE   C3713534   0.608   4.693   3.652  0.4451 -0.4903 -0.1747
  126SOPE   H7X13535   0.718   4.679   3.658  0.4968  0.3313  3.9210
  126SOPE   H7Y13536   0.542   4.604   3.661 -3.4582  2.3313  3.0433
  126SOPE   C3813537   0.573   4.784   3.766 -0.1363 -0.5410  0.2793
  126SOPE   H8X13538   0.473   4.828   3.749  0.5874  1.5649  1.2191
  126SOPE   H8Y13539   0.640   4.870   3.784 -0.0827 -0.0657 -1.9858
  126SOPE   C3913540   0.556   4.693   3.882  0.3359 -0.0133  0.5467
  126SOPE   H9X13541   0.645   4.626   3.883 -0.0418 -0.6997 -2.3312
  126SOPE   H9Y13542   0.471   4.626   3.857 -0.7391  0.0960  3.5078
  126SOPE  C31013543   0.539   4.763   4.018 -0.0910  0.2178 -0.6210
  126SOPE  H10X13544   0.558   4.698   4.107  2.9342  1.5621 -0.1503
  126SOPE  H10Y13545   0.441   4.813   4.035 -0.6517 -1.6293  2.2967
  126SOPE  C31113546   0.648   4.868   4.053  0.0257  0.2304 -0.4514
  126SOPE  H11X13547   0.627   4.959   3.992  2.1688 -0.3401 -2.1822
  126SOPE  H11Y13548   0.747   4.829   4.020 -0.3475  0.6110 -2.0939
  126SOPE  C31213549   0.633   4.921   4.199 -0.2618 -0.3428  0.4036
  126SOPE  H12X13550   0.525   4.945   4.203  0.0583  1.7145 -1.6454
  126SOPE  H12Y13551   0.707   5.003   4.207 -0.0788 -0.3201 -1.1902
  126SOPE  C31313552   0.665   4.809   4.303 -0.4484 -0.8369  0.0538
  126SOPE  H13X13553   0.768   4.770   4.285  0.0072  0.7455 -0.9654
  126SOPE  H13Y13554   0.589   4.728   4.294 -0.6814 -0.5287 -0.8580
  126SOPE  C31413555   0.681   4.863   4.444 -0.4564 -0.2029  0.4905
  126SOPE  H14X13556   0.772   4.927   4.436 -0.6448  0.0463  0.3393
  126SOPE  H14Y13557   0.707   4.782   4.515  0.0750 -1.5778 -1.2017
  126SOPE  C31513558   0.553   4.932   4.491  0.2992 -0.0180  0.2095
  126SOPE  H15X13559   0.470   4.863   4.463  1.0857 -0.4284 -1.1873
  126SOPE  H15Y13560   0.537   5.032   4.447 -2.8026  0.2055  1.6085
  126SOPE  C31613561   0.550   4.945   4.640  0.0042 -0.0831 -0.6342
  126SOPE  H16X13562   0.561   4.843   4.683  0.9130  0.6673  1.0233
  126SOPE  H16Y13563   0.451   4.984   4.671  0.7816  1.0607  0.5293
  126SOPE  C31713564   0.667   5.029   4.694  0.3922 -0.0099 -0.1917
  126SOPE  H17X13565   0.641   5.137   4.684 -2.6599 -0.7408 -1.0263
  126SOPE  H17Y13566   0.759   5.016   4.633  0.5075 -0.6183  0.1051
  126SOPE  C31813567   0.695   5.001   4.844 -1.0318 -0.6145 -0.1270
  126SOPE  H18X13568   0.765   5.082   4.875 -0.9596 -0.7129 -0.0319
  126SOPE  H18Y13569   0.736   4.899   4.860  3.2865  0.7428 -1.0769
  126SOPE  H18Z13570   0.600   5.017   4.898 -1.6766  0.8048 -1.6008
  127SOPE     N13571   6.610   4.644   2.306 -0.0745 -0.5571 -0.4812
  127SOPE   HN113572   6.541   4.704   2.257  0.4800 -0.4081 -1.0960
  127SOPE   HN213573   6.695   4.605   2.259  1.1210  1.7762 -0.3966
  127SOPE   HN313574   6.553   4.561   2.334  0.4255 -0.8611 -0.3386
  127SOPE   C1213575   6.663   4.719   2.433  0.3391  0.7244 -0.0610
  127SOPE  H12A13576   6.736   4.789   2.388  0.5445 -0.5089 -1.7673
  127SOPE  H12B13577   6.713   4.641   2.494 -2.3171 -1.8643 -0.9326
  127SOPE   C1113578   6.549   4.781   2.510 -0.0770 -0.7007 -0.4620
  127SOPE  H11A13579   6.597   4.823   2.601  0.3326 -1.4744 -0.3140
  127SOPE  H11B13580   6.481   4.701   2.547 -1.1128  1.5200  2.9058
  127SOPE     P13581   6.528   5.042   2.445 -0.2576  0.0835 -0.0062
  127SOPE   O1313582   6.444   5.119   2.353  0.5683 -0.3036 -0.5193
  127SOPE   O1413583   6.672   5.055   2.419 -0.0997  0.2253 -0.2540
  127SOPE   O1213584   6.485   4.891   2.442 -0.1997  0.0359  0.0792
  127SOPE   O1113585   6.502   5.093   2.596  0.3558  0.0594 -0.8498
  127SOPE    C113586   6.365   5.105   2.634 -0.8703 -0.2309 -0.3682
  127SOPE    HA13587   6.296   5.043   2.573 -0.8155 -1.5256  0.8404
  127SOPE    HB13588   6.330   5.208   2.610 -0.1356  0.3038  0.7792
  127SOPE    C213589   6.359   5.063   2.780 -0.5665 -0.5500 -0.3622
  127SOPE    HS13590   6.252   5.083   2.802 -0.5459 -1.5355  0.6948
  127SOPE   O2113591   6.446   5.139   2.860  0.5804 -0.4867 -0.5642
  127SOPE   C2113592   6.410   5.151   2.987  0.4360 -0.0762 -0.3106
  127SOPE   O2213593   6.322   5.093   3.045  0.0724  0.6312 -0.4307
  127SOPE   C2213594   6.502   5.256   3.058  0.2841 -0.0237  0.3436
  127SOPE   H2R13595   6.484   5.351   3.003 -1.7704  0.9608  2.5140
  127SOPE   H2S13596   6.608   5.226   3.045  0.3019  1.1716 -3.5884
  127SOPE    C313597   6.389   4.910   2.800  0.3522  0.6546  0.7862
  127SOPE    HX13598   6.499   4.908   2.816  0.5002 -0.6614 -0.2646
  127SOPE    HY13599   6.354   4.856   2.710 -0.3365 -1.0393  2.0268
  127SOPE   O3113600   6.325   4.848   2.914  0.6975  0.0611  0.5478
  127SOPE   C3113601   6.200   4.802   2.902  0.2990 -0.4617 -1.0008
  127SOPE   O3213602   6.132   4.812   2.798  0.2756  0.2588 -0.1411
  127SOPE   C3213603   6.158   4.771   3.045 -0.2075  0.1381  0.6277
  127SOPE   H2X13604   6.102   4.860   3.082 -0.3700  0.1304  0.4002
  127SOPE   H2Y13605   6.239   4.737   3.114  0.4935  3.0784  1.3753
  127SOPE   C2313606   6.454   5.259   3.205 -0.2833 -0.3817 -0.5073
  127SOPE   H3R13607   6.455   5.164   3.264 -0.3412 -0.2598 -0.3078
  127SOPE   H3S13608   6.348   5.292   3.200 -0.0454  0.7992  1.2653
  127SOPE   C2413609   6.519   5.376   3.280  0.5454 -0.9963  0.2855
  127SOPE   H4R13610   6.616   5.363   3.332  0.4642 -0.6567  0.5249
  127SOPE   H4S13611   6.527   5.452   3.199 -1.2097 -1.8085 -0.6957
  127SOPE   C2513612   6.425   5.429   3.393  0.0578 -0.3099 -0.0977
  127SOPE   H5R13613   6.332   5.477   3.356 -0.3635  1.1873  2.6046
  127SOPE   H5S13614   6.373   5.351   3.453 -3.9302  1.4866 -0.8799
  127SOPE   C2613615   6.493   5.530   3.489  0.4193 -0.3009 -0.4031
  127SOPE   H6R13616   6.417   5.574   3.556 -0.4016  0.1616 -1.6169
  127SOPE   H6S13617   6.564   5.471   3.552  1.0887 -0.3798 -1.2159
  127SOPE   C2713618   6.572   5.643   3.422 -0.0096 -0.0762 -0.1124
  127SOPE   H7R13619   6.647   5.593   3.356 -1.1377 -0.6230 -1.0104
  127SOPE   H7S13620   6.499   5.702   3.362  0.0332  2.0881  1.7923
  127SOPE   C2813621   6.649   5.729   3.528 -0.0238  0.5745 -0.4490
  127SOPE   H8R13622   6.714   5.650   3.573 -0.5738  0.7013  0.6056
  127SOPE   H8S13623   6.708   5.802   3.469 -0.7688  1.4114 -0.1770
  127SOPE   C2913624   6.549   5.804   3.617 -0.4671 -0.1655  0.1335
  127SOPE   H9113625   6.464   5.841   3.558 -2.1076 -1.0551  1.8545
  127SOPE  C21013626   6.545   5.820   3.748 -0.5661  0.2499 -0.5759
  127SOPE  H10113627   6.466   5.887   3.786 -0.5623  0.2361 -0.5444
  127SOPE  C21113628   6.638   5.762   3.857 -0.5740  0.2779 -0.5102
  127SOPE  H11R13629   6.667   5.837   3.934  1.0027 -0.6646 -0.1524
  127SOPE  H11S13630   6.734   5.742   3.805 -0.5447  0.2539 -0.4472
  127SOPE  C21213631   6.592   5.630   3.918 -0.4495  0.5028 -0.2303
  127SOPE  H12R13632   6.576   5.564   3.829  2.7566 -0.5810 -0.1398
  127SOPE  H12S13633   6.499   5.657   3.972 -0.5530 -0.4439  0.0764
  127SOPE  C21313634   6.698   5.568   4.012 -0.3907 -0.2549 -0.0829
  127SOPE  H13R13635   6.787   5.547   3.949  0.6460  0.9561  0.9163
  127SOPE  H13S13636   6.674   5.464   4.043  1.4696 -0.8392 -0.4673
  127SOPE  C21413637   6.721   5.630   4.152  0.5073  0.0601 -1.0294
  127SOPE  H14R13638   6.621   5.616   4.198  0.8773 -0.3746 -0.3403
  127SOPE  H14S13639   6.756   5.735   4.163  0.8773 -0.2934  2.2429
  127SOPE  C21513640   6.817   5.548   4.227  0.2856  0.3051  0.1560
  127SOPE  H15R13641   6.902   5.541   4.156  0.3958  0.5235  0.2666
  127SOPE  H15S13642   6.779   5.444   4.241 -1.9793  1.0685  0.0569
  127SOPE  C21613643   6.864   5.631   4.355 -0.3012 -0.2010 -0.2732
  127SOPE  H16R13644   6.882   5.736   4.325  1.8262 -1.4356 -4.0027
  127SOPE  H16S13645   6.962   5.585   4.380  0.2988  0.1494 -1.8768
  127SOPE  C21713646   6.783   5.617   4.487  0.2049  0.5761 -0.2567
  127SOPE  H17R13647   6.675   5.610   4.463 -0.0075  0.8214  0.6055
  127SOPE  H17S13648   6.802   5.714   4.536 -0.0498  1.5560 -1.9985
  127SOPE  C21813649   6.833   5.499   4.566 -0.0682  0.5192  0.1199
  127SOPE  H18R13650   6.807   5.407   4.509  0.2671 -0.9031  2.1292
  127SOPE  H18S13651   6.782   5.496   4.664  1.4481  1.0899  0.9609
  127SOPE  H18T13652   6.944   5.489   4.577 -0.3704 -1.2710  2.1720
  127SOPE   C3313653   6.057   4.650   3.044 -0.2354 -0.3628  0.8165
  127SOPE   H3X13654   6.107   4.560   3.003 -0.0704  0.1852 -0.1976
  127SOPE   H3Y13655   5.969   4.667   2.979 -1.3361 -1.0059  2.0672
  127SOPE   C3413656   5.989   4.598   3.175 -0.9540 -0.8311 -0.5325
  127SOPE   H4X13657   5.929   4.510   3.144 -1.3346 -1.4134  1.6868
  127SOPE   H4Y13658   5.936   4.678   3.230 -0.7781 -0.2616 -1.1668
  127SOPE   C3513659   6.090   4.541   3.271 -0.4244  0.5605 -0.3622
  127SOPE   H5X13660   6.041   4.502   3.363  0.4275  0.7250  0.1694
  127SOPE   H5Y13661   6.160   4.613   3.318  1.4702 -1.4970  0.1489
  127SOPE   C3613662   6.170   4.415   3.223 -0.2551  0.2496  0.3187
  127SOPE   H6X13663   6.259   4.446   3.163 -0.7720  1.2624  0.0584
  127SOPE   H6Y13664   6.113   4.341   3.164  0.1367 -2.6032  3.2207
  127SOPE   C3713665   6.235   4.336   3.340  0.9438  0.8840  0.4884
  127SOPE   H7X13666   6.157   4.330   3.419 -0.1993  0.3689 -0.6519
  127SOPE   H7Y13667   6.322   4.390   3.385  1.3346 -0.4118  1.3630
  127SOPE   C3813668   6.291   4.200   3.295 -0.1425 -0.2281  0.2684
  127SOPE   H8X13669   6.376   4.220   3.227  0.5025  0.5467  1.2762
  127SOPE   H8Y13670   6.218   4.138   3.239 -0.5197 -0.3150  0.8489
  127SOPE   C3913671   6.336   4.121   3.416 -0.4314  0.2586 -0.2053
  127SOPE   H9X13672   6.252   4.106   3.486  1.0492  0.0805  1.6107
  127SOPE   H9Y13673   6.408   4.187   3.469 -1.4010  0.5115  0.8288
  127SOPE  C31013674   6.412   3.991   3.380  0.6502 -0.4010  0.0257
  127SOPE  H10X13675   6.470   4.019   3.290 -1.2373 -0.7009 -1.3443
  127SOPE  H10Y13676   6.332   3.919   3.352  2.1017 -2.1997  0.3161
  127SOPE  C31113677   6.505   3.925   3.484  0.1123 -0.3215  0.4602
  127SOPE  H11X13678   6.594   3.984   3.514  1.7574 -2.5531  0.1621
  127SOPE  H11Y13679   6.549   3.835   3.436 -0.8814  0.5777 -2.3742
  127SOPE  C31213680   6.431   3.870   3.612 -0.7464  0.1135  0.2530
  127SOPE  H12X13681   6.494   3.801   3.671 -0.9743  1.1786  1.7913
  127SOPE  H12Y13682   6.342   3.811   3.579  0.7044 -0.8285 -2.2291
  127SOPE  C31313683   6.386   3.983   3.711 -0.3257 -0.0841  0.5050
  127SOPE  H13X13684   6.295   4.039   3.683 -0.6064 -0.4841  0.6111
  127SOPE  H13Y13685   6.462   4.061   3.689 -1.5994  0.8865 -0.6345
  127SOPE  C31413686   6.394   3.929   3.854 -0.5292 -0.5256  1.1588
  127SOPE  H14X13687   6.489   3.875   3.874 -1.0367 -1.7914  0.2678
  127SOPE  H14Y13688   6.316   3.854   3.879 -0.0690 -1.5404 -0.3469
  127SOPE  C31513689   6.383   4.043   3.961 -0.3767  0.1410 -0.2527
  127SOPE  H15X13690   6.280   4.085   3.958  0.0968  1.5849  1.6044
  127SOPE  H15Y13691   6.454   4.123   3.930  0.8128 -0.2262  1.3735
  127SOPE  C31613692   6.417   3.991   4.103 -0.2089  0.1899 -0.3248
  127SOPE  H16X13693   6.527   3.979   4.099 -0.4423 -2.4313 -0.5672
  127SOPE  H16Y13694   6.371   3.893   4.131  0.8489 -0.5921 -1.2359
  127SOPE  C31713695   6.372   4.076   4.221 -0.2845  0.5371  0.5081
  127SOPE  H17X13696   6.264   4.096   4.207 -0.7710 -0.0480  3.0403
  127SOPE  H17Y13697   6.420   4.175   4.203 -0.2868  0.3512 -0.5880
  127SOPE  C31813698   6.405   4.023   4.362  0.4280 -0.1879 -0.1859
  127SOPE  H18X13699   6.511   3.994   4.376  0.0628 -1.9482 -0.7518
  127SOPE  H18Y13700   6.346   3.936   4.398  0.0395  0.1611  0.0296
  127SOPE  H18Z13701   6.387   4.105   4.434  2.2816 -1.3510  1.7319
  128SOPE     N13702   4.568   4.871   2.348  0.4319  0.4677  0.0631
  128SOPE   HN113703   4.610   4.850   2.441  0.9728  0.5293 -0.1640
  128SOPE   HN213704   4.571   4.786   2.288  0.9824  1.0774 -0.7830
  128SOPE   HN313705   4.631   4.944   2.308  1.3649 -1.6694 -2.6955
  128SOPE   C1213706   4.422   4.917   2.355  0.3032  0.4078  0.1021
  128SOPE  H12A13707   4.389   4.913   2.249  0.4292  1.8195 -0.0094
  128SOPE  H12B13708   4.428   5.021   2.394 -2.1275 -0.0143  1.8506
  128SOPE   C1113709   4.341   4.819   2.440 -0.4610  0.2055  0.0166
  128SOPE  H11A13710   4.232   4.842   2.439 -0.0907  2.3069 -2.8047
  128SOPE  H11B13711   4.381   4.839   2.542  1.3115  0.7132 -0.7520
  128SOPE     P13712   4.278   4.564   2.428 -0.1498 -0.1570 -0.2795
  128SOPE   O1313713   4.352   4.438   2.410 -0.8087  0.1760 -0.3168
  128SOPE   O1413714   4.148   4.585   2.361  0.5445 -0.2949 -0.2592
  128SOPE   O1213715   4.372   4.684   2.404  0.3674 -0.3000  0.2712
  128SOPE   O1113716   4.238   4.571   2.585  0.1751  0.2367  0.2596
  128SOPE    C113717   4.324   4.529   2.691  0.2154  0.2732 -0.0937
  128SOPE    HA13718   4.356   4.615   2.754  0.7829  1.2037 -1.6063
  128SOPE    HB13719   4.419   4.485   2.653 -1.2334 -0.5964 -3.0273
  128SOPE    C213720   4.253   4.422   2.780  0.1476 -0.3105 -0.4621
  128SOPE    HS13721   4.206   4.348   2.711  0.2812 -1.7900  0.9693
  128SOPE   O2113722   4.162   4.489   2.866  0.6286 -0.0920 -0.4325
  128SOPE   C2113723   4.064   4.417   2.911  0.4054  0.3794 -0.0463
  128SOPE   O2213724   4.042   4.298   2.884 -0.0696 -0.3756  0.1146
  128SOPE   C2213725   3.971   4.519   2.983  0.2756  0.0455 -0.1154
  128SOPE   H2R13726   3.879   4.458   3.000  0.0006  0.2081 -0.9738
  128SOPE   H2S13727   3.955   4.603   2.913 -2.8053 -1.5234 -1.5216
  128SOPE    C313728   4.361   4.350   2.869 -0.4424  0.3142 -0.3544
  128SOPE    HX13729   4.444   4.329   2.798 -0.0226  0.7279  0.0089
  128SOPE    HY13730   4.337   4.250   2.911  0.4780  0.9021  1.7202
  128SOPE   O3113731   4.409   4.433   2.974  0.1601  0.3880 -0.2836
  128SOPE   C3113732   4.426   4.370   3.093  0.3352 -0.3345  0.7111
  128SOPE   O3213733   4.399   4.254   3.119 -0.5899  0.8580 -0.2372
  128SOPE   C3213734   4.481   4.464   3.197 -0.0933  0.0819  0.8738
  128SOPE   H2X13735   4.423   4.557   3.213  0.2715  0.2099  1.4815
  128SOPE   H2Y13736   4.579   4.506   3.166 -0.9289  0.6218 -1.2242
  128SOPE   C2313737   4.038   4.558   3.113 -0.0562 -0.6262  0.1255
  128SOPE   H3R13738   3.987   4.650   3.149 -1.1714 -0.9727 -0.5143
  128SOPE   H3S13739   4.143   4.588   3.093 -0.0611  0.3839  1.5196
  128SOPE   C2413740   4.026   4.450   3.220  0.3433  0.2741  0.0848
  128SOPE   H4R13741   3.922   4.413   3.207  0.4749  0.9050 -4.3470
  128SOPE   H4S13742   4.091   4.365   3.192  0.4766 -0.0088  1.1824
  128SOPE   C2513743   4.065   4.498   3.360 -0.1470  0.6210 -0.4444
  128SOPE   H5R13744   4.163   4.547   3.346 -0.1971  1.0030  0.4730
  128SOPE   H5S13745   3.996   4.566   3.415  1.0368  0.3686  1.4668
  128SOPE   C2613746   4.091   4.382   3.459  0.7005  0.1010  0.2627
  128SOPE   H6R13747   3.994   4.330   3.479  2.1388 -1.6706  3.4945
  128SOPE   H6S13748   4.148   4.305   3.404 -0.9970  1.3858 -3.6271
  128SOPE   C2713749   4.148   4.422   3.595 -0.0179  0.0346 -0.2728
  128SOPE   H7R13750   4.234   4.492   3.585 -0.2342  0.3135 -0.2138
  128SOPE   H7S13751   4.080   4.493   3.648  0.7364  0.9409 -0.4779
  128SOPE   C2813752   4.193   4.314   3.693  0.2023 -0.2979  0.3313
  128SOPE   H8R13753   4.272   4.246   3.654 -0.0500 -1.1074  1.2042
  128SOPE   H8S13754   4.241   4.376   3.771 -0.6314  0.1449  0.5041
  128SOPE   C2913755   4.091   4.224   3.744  0.3684  0.5590 -0.1250
  128SOPE   H9113756   4.053   4.161   3.662  2.7036 -1.6403  0.3573
  128SOPE  C21013757   4.037   4.209   3.868 -0.3184 -0.4844  0.2859
  128SOPE  H10113758   3.973   4.120   3.879 -1.9245  0.5098 -0.5427
  128SOPE  C21113759   4.083   4.285   3.994  0.4705 -0.5530  0.1053
  128SOPE  H11R13760   3.994   4.295   4.059  0.6122 -1.3285  0.4377
  128SOPE  H11S13761   4.108   4.391   3.974  1.0051 -0.6656  0.1441
  128SOPE  C21213762   4.193   4.211   4.072 -0.1484 -1.2528  0.4073
  128SOPE  H12R13763   4.145   4.115   4.101 -0.8503 -0.7953  0.7932
  128SOPE  H12S13764   4.222   4.262   4.167  0.2328 -1.8021  0.5900
  128SOPE  C21313765   4.328   4.195   4.001 -0.1591  0.4559  0.9827
  128SOPE  H13R13766   4.353   4.282   3.937  1.2525  0.9797  2.1930
  128SOPE  H13S13767   4.330   4.105   3.937  0.5758  1.9303 -1.1886
  128SOPE  C21413768   4.448   4.183   4.094 -0.4216  0.4036 -0.5522
  128SOPE  H14R13769   4.459   4.276   4.153  1.5821 -1.6237  2.6015
  128SOPE  H14S13770   4.534   4.174   4.023  0.8984  2.4353  0.7085
  128SOPE  C21513771   4.466   4.074   4.202  0.0361 -0.3922 -0.2033
  128SOPE  H15R13772   4.452   3.973   4.157 -2.1261 -0.1056 -0.3015
  128SOPE  H15S13773   4.380   4.100   4.267  1.9443  2.9034  1.2531
  128SOPE  C21613774   4.597   4.087   4.281 -0.0556 -0.1371 -0.3752
  128SOPE  H16R13775   4.619   4.187   4.324  2.1077  0.0206 -1.6995
  128SOPE  H16S13776   4.684   4.069   4.214 -1.4665 -2.2387 -1.7466
  128SOPE  C21713777   4.618   3.993   4.400  0.6584 -0.1962 -0.6576
  128SOPE  H17R13778   4.592   3.892   4.361 -3.0302 -0.4269  1.8301
  128SOPE  H17S13779   4.533   4.026   4.464  1.5713 -1.2709  1.1822
  128SOPE  C21813780   4.747   4.008   4.465 -0.6692  0.1793  0.2956
  128SOPE  H18R13781   4.832   3.945   4.430 -0.2766 -0.2253  1.8699
  128SOPE  H18S13782   4.742   3.991   4.575 -1.4660  0.7134  0.3506
  128SOPE  H18T13783   4.786   4.112   4.458  0.7724 -0.4500 -2.0400
  128SOPE   C3313784   4.497   4.392   3.329  1.1352 -0.1033 -0.2108
  128SOPE   H3X13785   4.559   4.300   3.316  0.0523 -1.1017  1.2947
  128SOPE   H3Y13786   4.404   4.353   3.376  0.7793 -0.9680 -1.5884
  128SOPE   C3413787   4.583   4.475   3.430  0.5087 -0.8130  0.1645
  128SOPE   H4X13788   4.538   4.576   3.430 -1.6828 -1.6909 -1.7471
  128SOPE   H4Y13789   4.685   4.492   3.389  0.0083  1.0742 -0.3767
  128SOPE   C3513790   4.600   4.409   3.567  0.1963 -0.5583  0.2644
  128SOPE   H5X13791   4.644   4.307   3.557  0.7032 -0.2796 -0.5162
  128SOPE   H5Y13792   4.509   4.397   3.629 -0.4431 -0.5487 -0.6502
  128SOPE   C3613793   4.701   4.487   3.657  0.3957  0.4718  0.2602
  128SOPE   H6X13794   4.681   4.597   3.659 -1.4430  0.2245 -1.2706
  128SOPE   H6Y13795   4.806   4.472   3.622  0.0272  0.1680 -0.7588
  128SOPE   C3713796   4.703   4.430   3.803  0.6516 -0.4182  0.0431
  128SOPE   H7X13797   4.689   4.320   3.794  1.4501 -0.5392  0.1907
  128SOPE   H7Y13798   4.613   4.466   3.858 -0.4593 -1.6872 -0.8745
  128SOPE   C3813799   4.818   4.481   3.880  0.8183 -0.1510 -0.5196
  128SOPE   H8X13800   4.789   4.576   3.928  1.0562 -0.7173  0.7871
  128SOPE   H8Y13801   4.909   4.497   3.818  0.2534 -0.6136 -1.5118
  128SOPE   C3913802   4.854   4.381   3.988 -0.5502  0.0414  0.1258
  128SOPE   H9X13803   4.900   4.289   3.946  0.0452  0.6278 -0.5269
  128SOPE   H9Y13804   4.758   4.342   4.029 -1.1306  0.0606 -1.1620
  128SOPE  C31013805   4.940   4.451   4.088 -0.3357  0.3055  0.7043
  128SOPE  H10X13806   4.888   4.531   4.144  0.4875  0.9825  0.5205
  128SOPE  H10Y13807   5.023   4.502   4.035 -1.2386 -1.2272 -2.4723
  128SOPE  C31113808   4.993   4.356   4.201 -0.1363  0.1663  0.3830
  128SOPE  H11X13809   5.057   4.276   4.159  2.8256  3.7907 -2.7294
  128SOPE  H11Y13810   4.908   4.306   4.253 -0.4974 -0.4222 -0.7389
  128SOPE  C31213811   5.079   4.440   4.295 -0.3490 -0.0784 -0.7058
  128SOPE  H12X13812   5.011   4.523   4.325  0.0732 -0.5576  1.7704
  128SOPE  H12Y13813   5.168   4.483   4.242 -0.6787  0.5040 -0.8038
  128SOPE  C31313814   5.129   4.363   4.412 -0.3810  0.4422 -0.4566
  128SOPE  H13X13815   5.182   4.273   4.376  2.3351  1.1026  1.5653
  128SOPE  H13Y13816   5.056   4.315   4.480  1.8050 -0.4702  1.3660
  128SOPE  C31413817   5.240   4.447   4.484  0.1094 -0.0681 -0.0828
  128SOPE  H14X13818   5.190   4.541   4.514  0.5151  0.1664 -0.1392
  128SOPE  H14Y13819   5.318   4.463   4.407 -0.5126 -0.8464 -0.8914
  128SOPE  C31513820   5.325   4.387   4.596 -0.1654 -0.0636 -0.0965
  128SOPE  H15X13821   5.251   4.348   4.669 -1.4134  1.7673 -0.3256
  128SOPE  H15Y13822   5.382   4.474   4.634 -2.2872  2.7194 -2.7719
  128SOPE  C31613823   5.434   4.288   4.546 -0.1109  0.0015 -0.3039
  128SOPE  H16X13824   5.489   4.328   4.458  0.1095  0.5119  0.0631
  128SOPE  H16Y13825   5.379   4.195   4.519 -0.5529 -0.0288  0.6427
  128SOPE  C31713826   5.535   4.258   4.659 -0.8175 -0.1431  0.1274
  128SOPE  H17X13827   5.480   4.213   4.744  0.5485 -3.0008 -0.3922
  128SOPE  H17Y13828   5.593   4.349   4.682  1.3676 -1.3449 -0.3751
  128SOPE  C31813829   5.642   4.154   4.609 -0.2489 -0.1150  0.1109
  128SOPE  H18X13830   5.708   4.183   4.524  1.5213 -1.2882  1.0144
  128SOPE  H18Y13831   5.587   4.071   4.560  1.1316  0.7270 -3.1117
  128SOPE  H18Z13832   5.696   4.106   4.693 -3.7775  0.7408  3.1138
  129OSM      N13833   3.672   2.476   7.154 -0.8308  0.8186 -0.2354
  129OSM    C1513834   3.606   2.580   7.072  0.0742 -0.3993 -0.1069
  129OSM   H15A13835   3.646   2.678   7.090  2.3599 -1.7318  2.9621
  129OSM   H15B13836   3.507   2.593   7.113 -0.0039  2.6284 -1.0424
  129OSM   H15C13837   3.607   2.557   6.966 -1.1721 -1.7219  0.1397
  129OSM    C1413838   3.649   2.500   7.303  0.7483 -0.5866 -0.5409
  129OSM   H14A13839   3.683   2.596   7.336  0.6109 -0.9546  0.7178
  129OSM   H14B13840   3.702   2.423   7.358  1.4087  0.0832 -0.2221
  129OSM   H14C13841   3.545   2.491   7.330  0.1100 -0.0247 -2.6369
  129OSM    C1313842   3.622   2.336   7.123  0.3407  0.0525  0.1685
  129OSM   H13A13843   3.515   2.342   7.109  0.4365 -0.6268 -0.9409
  129OSM   H13B13844   3.652   2.263   7.197 -0.9376 -0.8989 -0.2204
  129OSM   H13C13845   3.663   2.296   7.031 -0.7625 -0.6137 -0.0564
  129OSM    C1213846   3.820   2.470   7.135 -0.3771 -0.0299  0.6070
  129OSM   H12A13847   3.836   2.462   7.028  0.8129 -3.0091  0.9013
  129OSM   H12B13848   3.855   2.373   7.166 -1.5943 -0.6459  0.1455
  129OSM    C1113849   3.911   2.570   7.190  0.4054  0.4163 -0.3335
  129OSM   H11A13850   3.917   2.556   7.300  4.1527 -2.3829 -0.6758
  129OSM   H11B13851   3.863   2.669   7.176 -1.6931 -0.6858 -1.3582
  129OSM      P13852   4.111   2.694   7.093 -0.1133  0.2165 -0.5759
  129OSM    O1313853   4.059   2.786   7.193  0.2184  0.1934  0.1108
  129OSM    O1413854   4.258   2.668   7.088 -0.0771  0.2294 -0.0793
  129OSM    O1113855   4.055   2.742   6.950  0.0788  0.4309 -0.4283
  129OSM    O1213856   4.039   2.556   7.131  0.0880 -0.0468 -0.0743
  129OSM    C1S13857   4.130   2.727   6.830 -0.1922  0.3811  0.5422
  129OSM    H1S13858   4.216   2.658   6.841  0.1849  0.4472 -1.5234
  129OSM    H1T13859   4.169   2.821   6.785 -2.5330  0.9386 -0.5202
  129OSM     NF13860   4.123   2.635   6.588  0.4096 -0.1539 -0.1424
  129OSM    HNF13861   4.116   2.682   6.500 -1.5654 -0.9430 -0.4827
  129OSM    C2S13862   4.049   2.666   6.713  0.1280 -0.2794  0.0725
  129OSM    H2S13863   4.015   2.567   6.751  0.1619 -0.1689  0.3975
  129OSM    C3S13864   3.924   2.748   6.691 -0.1765  0.0204  0.1042
  129OSM    H3S13865   3.952   2.852   6.667  2.0165 -0.5969 -0.2054
  129OSM     O313866   3.840   2.742   6.807  0.0773 -0.6591  0.1666
  129OSM    HO313867   3.895   2.704   6.875  0.3087 -0.5243  0.0546
  129OSM    C4S13868   3.847   2.693   6.573 -0.4039 -0.5521 -0.7627
  129OSM    H4S13869   3.895   2.705   6.475  2.9706 -0.7016  0.7521
  129OSM    C5S13870   3.719   2.640   6.571 -1.2098 -0.4068  0.5166
  129OSM    H5S13871   3.652   2.628   6.657 -2.3747 -4.0356 -0.6775
  129OSM    C6S13872   3.638   2.609   6.449  0.9198  0.2555  0.3500
  129OSM    H6S13873   3.540   2.662   6.447  0.4443 -0.5751  0.7331
  129OSM    H6T13874   3.610   2.502   6.463  1.6268 -0.2780 -1.8604
  129OSM    C7S13875   3.714   2.631   6.315 -1.1845  0.1925 -0.0255
  129OSM    H7S13876   3.788   2.548   6.317 -0.2061  1.0166 -0.9289
  129OSM    H7T13877   3.773   2.726   6.312  0.1266 -0.6111 -0.7191
  129OSM    C8S13878   3.629   2.619   6.184  0.0085  2.0079  0.1511
  129OSM    H8S13879   3.567   2.710   6.174 -1.4112  0.9614 -1.1544
  129OSM    H8T13880   3.574   2.523   6.196  1.3163  1.0257 -1.4169
  129OSM    C9S13881   3.718   2.606   6.059 -0.6754  0.0984 -0.4349
  129OSM    H9S13882   3.770   2.508   6.067  0.2498  0.5254 -0.9819
  129OSM    H9T13883   3.785   2.694   6.069 -1.1100  0.2368  1.8571
  129OSM   C10S13884   3.644   2.621   5.925 -0.0384  0.0274 -0.3673
  129OSM   H10S13885   3.555   2.685   5.941  0.6742  1.1413 -0.7092
  129OSM   H10T13886   3.612   2.521   5.891  2.0053 -0.9160  0.3045
  129OSM   C11S13887   3.743   2.680   5.825  0.4965  0.0513 -0.6683
  129OSM   H11S13888   3.839   2.624   5.821  2.2347  2.9053 -3.5299
  129OSM   H11T13889   3.774   2.784   5.849  1.0185  0.0859 -1.4459
  129OSM   C12S13890   3.704   2.661   5.681  0.5059 -0.5950 -0.7988
  129OSM   H12S13891   3.614   2.719   5.654  2.8741  3.0519 -1.6483
  129OSM   H12T13892   3.698   2.552   5.659  0.5156 -1.3981  2.6354
  129OSM   C13S13893   3.810   2.716   5.585 -0.0222  0.1293  0.2890
  129OSM   H13S13894   3.909   2.675   5.613  0.0991  0.0629 -0.2290
  129OSM   H13T13895   3.807   2.827   5.587 -0.9047  0.1138  0.8090
  129OSM   C14S13896   3.787   2.675   5.438 -0.0365  0.9621 -0.3847
  129OSM   H14S13897   3.700   2.733   5.402 -1.0876  0.1884  0.8021
  129OSM   H14T13898   3.766   2.570   5.409  1.3166  1.0683 -1.9124
  129OSM   C15S13899   3.906   2.704   5.348 -0.3721 -0.2801 -0.7430
  129OSM   H15S13900   3.998   2.658   5.389 -0.2181  0.1944 -0.5458
  129OSM   H15T13901   3.927   2.813   5.357  0.0363 -0.4570  0.8413
  129OSM   C16S13902   3.882   2.668   5.209 -0.0761 -0.2345  0.5955
  129OSM   H16S13903   3.802   2.730   5.162  0.5039 -0.5374 -0.8404
  129OSM   H16T13904   3.853   2.562   5.197 -0.2606 -0.2174  0.8967
  129OSM   C17S13905   4.008   2.699   5.123 -0.5189 -0.2588  0.0756
  129OSM   H17S13906   4.101   2.663   5.171  1.4153  4.6266  0.5930
  129OSM   H17T13907   4.028   2.808   5.127  2.6699 -0.6941 -1.0833
  129OSM   C18S13908   3.994   2.636   4.988 -0.5792  0.0311 -0.4562
  129OSM   H18S13909   4.003   2.526   5.000  1.8900  0.0686 -1.3209
  129OSM   H18T13910   4.080   2.667   4.926  0.0489 -0.8680 -0.0678
  129OSM   H18U13911   3.902   2.673   4.939  1.5919  2.9368 -2.7340
  129OSM    C1F13912   4.228   2.558   6.585 -0.0256  0.3165 -0.0980
  129OSM     OF13913   4.260   2.497   6.684  0.2346 -0.0720  0.4073
  129OSM    C2F13914   4.316   2.563   6.462  0.1777 -0.3221  0.4351
  129OSM    H2F13915   4.377   2.655   6.464 -0.6497  0.2322  2.1623
  129OSM    H2G13916   4.253   2.566   6.370  2.1736 -0.0909 -0.9768
  129OSM    C3F13917   4.402   2.439   6.437 -0.3279 -0.5492  0.1190
  129OSM    H3F13918   4.337   2.352   6.410 -1.6673  0.6305 -0.5818
  129OSM    H3G13919   4.450   2.417   6.535  1.2042  0.6281 -0.3362
  129OSM    C4F13920   4.527   2.461   6.341  0.2569 -0.0199 -0.3291
  129OSM    H4F13921   4.600   2.381   6.370 -2.0824 -3.2489 -2.5869
  129OSM    H4G13922   4.584   2.556   6.338  0.2446  0.2159  2.9395
  129OSM    C5F13923   4.482   2.421   6.200  0.0466 -0.1644  0.1100
  129OSM    H5F13924   4.409   2.497   6.164 -1.2557 -2.1643 -1.6811
  129OSM    H5G13925   4.434   2.321   6.197  1.3264 -0.7798 -0.3858
  129OSM    C6F13926   4.595   2.414   6.107 -0.1778 -0.4546 -0.2350
  129OSM    H6F13927   4.668   2.332   6.124  1.2230  0.6458 -0.7057
  129OSM    H6G13928   4.652   2.510   6.114 -1.8673  0.4991  2.0256
  129OSM    C7F13929   4.545   2.394   5.961 -0.1032  0.2345  0.0520
  129OSM    H7F13930   4.458   2.458   5.935 -1.2620 -0.8257  1.1494
  129OSM    H7G13931   4.514   2.288   5.946 -1.4838  0.6871 -0.4815
  129OSM    C8F13932   4.658   2.424   5.856 -0.3384  0.0316 -0.3979
  129OSM    H8F13933   4.738   2.349   5.873  0.5038  0.0266 -3.6441
  129OSM    H8G13934   4.699   2.526   5.875  0.7290 -0.5712  0.6850
  129OSM    C9F13935   4.608   2.416   5.718  1.0940  0.8697  0.3953
  129OSM    H9F13936   4.530   2.490   5.695  1.6833  1.0086 -1.2721
  129OSM   C10F13937   4.648   2.342   5.614 -0.3162 -0.3330 -0.3007
  129OSM   H10F13938   4.610   2.352   5.511  0.0933 -2.6326 -0.7280
  129OSM   C11F13939   4.768   2.247   5.612  0.2304 -0.2340  0.0982
  129OSM   H11F13940   4.731   2.156   5.560 -1.1763 -0.6403  1.7208
  129OSM   H11G13941   4.802   2.213   5.712 -0.6147 -0.6099  0.2713
  129OSM   C12F13942   4.889   2.296   5.527  0.8283 -0.4518 -0.2071
  129OSM   H12F13943   4.963   2.214   5.527  2.3785  0.9035 -0.2431
  129OSM   H12G13944   4.931   2.381   5.585  0.4001 -0.1911 -0.2715
  129OSM   C13F13945   4.849   2.335   5.385 -1.0093 -0.2568 -0.1228
  129OSM   H13F13946   4.941   2.358   5.326 -2.7171  2.3986 -1.9342
  129OSM   H13G13947   4.797   2.433   5.390 -0.3293  0.0704  0.6927
  129OSM   C14F13948   4.762   2.238   5.305  0.6088  0.0240  0.0561
  129OSM   H14F13949   4.683   2.191   5.367 -0.2518  1.0138 -0.2639
  129OSM   H14G13950   4.818   2.147   5.276 -2.8559 -2.2054 -0.2963
  129OSM   C15F13951   4.706   2.309   5.180 -0.5786  0.0817  0.7840
  129OSM   H15F13952   4.772   2.388   5.137 -0.5006 -0.1801  0.4140
  129OSM   H15G13953   4.607   2.348   5.212 -0.9640 -0.4482  0.2613
  129OSM   C16F13954   4.692   2.200   5.073 -0.2194  0.0718 -0.5690
  129OSM   H16F13955   4.644   2.107   5.111 -1.4306  1.1542  0.6515
  129OSM   H16G13956   4.798   2.181   5.049 -0.2013 -0.6793  0.0860
  129OSM   C17F13957   4.607   2.229   4.944 -0.4229 -0.1639  0.6709
  129OSM   H17F13958   4.656   2.315   4.895 -0.0022 -0.5743  0.3586
  129OSM   H17G13959   4.500   2.244   4.972 -0.6363 -1.1368  0.4086
  129OSM   C18F13960   4.610   2.109   4.839 -0.0428 -0.3136 -0.0775
  129OSM   H18F13961   4.714   2.076   4.817 -0.1169  0.2726 -1.4599
  129OSM   H18G13962   4.569   2.145   4.742  1.4682 -1.7699 -1.3117
  129OSM   H18H13963   4.553   2.020   4.874  2.0900 -0.9577  2.0020
  130OSM      N13964   3.825   3.595   7.313  0.3236  0.1402 -0.5093
  130OSM    C1513965   3.845   3.714   7.224  0.1633 -0.6004 -0.1974
  130OSM   H15A13966   3.855   3.806   7.279  1.3185 -1.4222  1.0301
  130OSM   H15B13967   3.759   3.720   7.159  0.6871 -1.2094 -0.9652
  130OSM   H15C13968   3.930   3.704   7.158  0.1007 -0.2653 -0.3268
  130OSM    C1413969   3.938   3.589   7.412 -0.1991 -0.7398  0.0422
  130OSM   H14A13970   3.957   3.673   7.477  0.6509 -0.7749 -0.1446
  130OSM   H14B13971   4.029   3.574   7.356  0.2492  2.3036 -0.1765
  130OSM   H14C13972   3.940   3.499   7.473  0.3336 -0.9547 -0.2847
  130OSM    C1313973   3.695   3.617   7.385  0.8167 -0.3632  0.0874
  130OSM   H13A13974   3.607   3.590   7.329 -0.2319  0.6352  1.1890
  130OSM   H13B13975   3.694   3.723   7.405  0.5619 -0.3993  0.2771
  130OSM   H13C13976   3.683   3.564   7.479 -0.4018  1.8478  1.2665
  130OSM    C1213977   3.814   3.470   7.225  0.8223 -0.0788  0.1276
  130OSM   H12A13978   3.741   3.492   7.149  0.9925 -2.4592 -0.8016
  130OSM   H12B13979   3.783   3.385   7.284 -2.2772  1.4397  0.8733
  130OSM    C1113980   3.946   3.434   7.143 -0.1375 -0.9402 -0.1870
  130OSM   H11A13981   3.963   3.517   7.072  2.3263 -3.0943 -2.3045
  130OSM   H11B13982   3.923   3.341   7.086  2.1342 -0.0204 -2.7842
  130OSM      P13983   4.120   3.300   7.282  0.4405  0.1122 -0.0600
  130OSM    O1313984   4.205   3.322   7.402 -0.1114 -0.2166  0.0616
  130OSM    O1413985   4.008   3.206   7.295 -0.9025  0.0029 -0.3862
  130OSM    O1113986   4.216   3.243   7.165  0.3794 -0.3028 -0.2203
  130OSM    O1213987   4.062   3.432   7.224  0.2892  0.1545 -0.1360
  130OSM    C1S13988   4.252   3.325   7.046 -0.1834  0.3576 -0.4671
  130OSM    H1S13989   4.317   3.410   7.077 -0.8859  0.9087 -0.4971
  130OSM    H1T13990   4.161   3.367   6.998 -0.6469 -1.8366 -1.6383
  130OSM     NF13991   4.340   3.343   6.823 -0.1581 -0.8575  0.0342
  130OSM    HNF13992   4.269   3.332   6.753  0.2578  0.3317 -0.6053
  130OSM    C2S13993   4.328   3.250   6.932  0.8869  1.0300 -1.1928
  130OSM    H2S13994   4.424   3.215   6.976 -0.4282 -1.6263 -0.1790
  130OSM    C3S13995   4.236   3.126   6.900 -0.3378  0.6757 -0.1904
  130OSM    H3S13996   4.141   3.168   6.861 -1.8745 -2.3361  0.0026
  130OSM     O313997   4.204   3.037   7.011  0.5313 -0.6167  0.1672
  130OSM    HO313998   4.235   3.097   7.079 -0.1286  1.5950 -1.3733
  130OSM    C4S13999   4.303   3.044   6.782  0.3046 -0.1848  0.0905
  130OSM    H4S14000   4.255   3.052   6.684 -2.0480 -2.1455  0.9946
  130OSM    C5S14001   4.417   2.966   6.802  0.2463  0.4839 -0.0368
  130OSM    H5S14002   4.458   2.967   6.904 -1.4185  1.4405  0.6666
  130OSM    C6S14003   4.505   2.893   6.705 -0.0728  0.4861  0.7345
  130OSM    H6S14004   4.504   2.782   6.715 -1.3787  0.6116  2.5724
  130OSM    H6T14005   4.609   2.925   6.726  0.0140  0.3963  0.4462
  130OSM    C7S14006   4.485   2.942   6.558  0.4332  0.7459  0.2009
  130OSM    H7S14007   4.486   3.052   6.541 -0.3479  0.4215 -2.4918
  130OSM    H7T14008   4.382   2.925   6.520 -1.0712  2.0572  3.3653
  130OSM    C8S14009   4.592   2.873   6.462  0.5337  0.1140  0.4768
  130OSM    H8S14010   4.599   2.766   6.488  0.5835 -0.1638 -0.6153
  130OSM    H8T14011   4.693   2.919   6.472  0.4861  1.3755 -3.1069
  130OSM    C9S14012   4.557   2.880   6.310 -0.1647  0.6779  0.0774
  130OSM    H9S14013   4.512   2.981   6.295  0.9836  0.9875 -1.6124
  130OSM    H9T14014   4.487   2.799   6.283  1.7528 -1.6181  1.6209
  130OSM   C10S14015   4.681   2.865   6.220 -0.0023 -0.2158  0.1990
  130OSM   H10S14016   4.708   2.758   6.227  1.5229  0.0104 -1.4736
  130OSM   H10T14017   4.775   2.915   6.250 -0.1769  0.2247  0.0253
  130OSM   C11S14018   4.662   2.894   6.070 -0.0132  0.6510 -0.4875
  130OSM   H11S14019   4.595   2.817   6.026 -0.4118  0.2005  0.8785
  130OSM   H11T14020   4.758   2.884   6.014  0.8608  1.1925  0.8728
  130OSM   C12S14021   4.608   3.036   6.027  0.3400 -0.2736 -0.0118
  130OSM   H12S14022   4.684   3.106   6.069  2.8617 -2.6195 -0.3953
  130OSM   H12T14023   4.515   3.052   6.085 -1.2008 -0.9554 -2.1780
  130OSM   C13S14024   4.588   3.032   5.875  0.3032  0.3703  0.1683
  130OSM   H13S14025   4.487   2.988   5.862  0.6365 -0.2410 -0.4321
  130OSM   H13T14026   4.663   2.971   5.821 -0.7171  0.7044 -1.6920
  130OSM   C14S14027   4.593   3.166   5.805 -0.6034  0.7663 -1.5847
  130OSM   H14S14028   4.674   3.234   5.839 -1.0558  0.0056  1.2811
  130OSM   H14T14029   4.501   3.226   5.818 -0.2258  1.1568 -0.5313
  130OSM   C15S14030   4.612   3.146   5.657 -0.0630  0.3677 -0.2704
  130OSM   H15S14031   4.530   3.075   5.632 -1.9415  2.3396 -0.0292
  130OSM   H15T14032   4.705   3.091   5.632  0.4712  1.0950  0.0577
  130OSM   C16S14033   4.601   3.276   5.573  0.0550 -0.0073  0.1834
  130OSM   H16S14034   4.665   3.357   5.616  0.3572  0.5662 -1.2752
  130OSM   H16T14035   4.497   3.313   5.576  0.2349  0.7296 -1.3180
  130OSM   C17S14036   4.642   3.244   5.433 -0.4111  0.2905  0.0775
  130OSM   H17S14037   4.578   3.169   5.383 -0.9524  2.5241 -2.8333
  130OSM   H17T14038   4.742   3.198   5.427 -1.2361 -1.5052 -0.6382
  130OSM   C18S14039   4.629   3.360   5.337 -0.2854  0.0661  0.6865
  130OSM   H18S14040   4.520   3.382   5.336 -0.1348  0.8454  0.8926
  130OSM   H18T14041   4.662   3.329   5.236  2.9316 -0.9003  1.9336
  130OSM   H18U14042   4.690   3.449   5.365  1.0914 -0.3953 -0.7351
  130OSM    C1F14043   4.432   3.437   6.806  0.0108 -1.1415 -0.9184
  130OSM     OF14044   4.516   3.468   6.891  0.1107  0.4130  0.0303
  130OSM    C2F14045   4.409   3.515   6.687 -0.3946  0.3348  0.1649
  130OSM    H2F14046   4.391   3.623   6.708 -2.9161 -0.2993  1.5667
  130OSM    H2G14047   4.324   3.485   6.623 -2.5045  1.5473  2.2383
  130OSM    C3F14048   4.540   3.531   6.603  0.9162 -0.0127 -0.2209
  130OSM    H3F14049   4.612   3.577   6.674  0.1038 -0.4180  0.8780
  130OSM    H3G14050   4.517   3.611   6.528  1.3361  0.9498  0.6529
  130OSM    C4F14051   4.599   3.408   6.540 -0.0433  0.5849 -0.1397
  130OSM    H4F14052   4.624   3.334   6.619 -1.7990 -1.8400 -1.6996
  130OSM    H4G14053   4.684   3.441   6.477 -0.4960  0.6694 -0.7077
  130OSM    C5F14054   4.510   3.320   6.442 -0.0937 -1.0505  0.5894
  130OSM    H5F14055   4.414   3.303   6.495 -2.5760 -0.0693 -3.1925
  130OSM    H5G14056   4.560   3.223   6.421 -1.0576 -1.2554 -0.9238
  130OSM    C6F14057   4.462   3.394   6.320  0.1804 -0.4404 -0.2903
  130OSM    H6F14058   4.547   3.406   6.249  0.2418  0.9242 -0.0199
  130OSM    H6G14059   4.444   3.500   6.349  2.6426 -0.0223 -0.0942
  130OSM    C7F14060   4.341   3.324   6.262 -0.3720 -0.0123 -0.1082
  130OSM    H7F14061   4.258   3.328   6.336 -1.8820 -1.9616 -1.6100
  130OSM    H7G14062   4.352   3.219   6.228  1.0416  0.7288 -2.0931
  130OSM    C8F14063   4.289   3.405   6.134  0.5265  0.4588 -0.0393
  130OSM    H8F14064   4.278   3.512   6.161  0.0779  0.5917 -0.7077
  130OSM    H8G14065   4.185   3.368   6.119 -0.1287  0.1498  4.0919
  130OSM    C9F14066   4.391   3.390   6.020  1.1098  0.2507  0.5343
  130OSM    H9F14067   4.468   3.314   6.039 -0.7446 -2.0594 -0.7341
  130OSM   C10F14068   4.389   3.464   5.907  0.0654  0.4204  0.2218
  130OSM   H10F14069   4.447   3.449   5.815 -1.6509  1.3810 -1.0633
  130OSM   C11F14070   4.285   3.565   5.878  0.2316 -0.1636 -0.6451
  130OSM   H11F14071   4.338   3.659   5.853  0.1868  0.0947  0.2171
  130OSM   H11G14072   4.213   3.586   5.960 -2.1817 -3.7950 -1.5729
  130OSM   C12F14073   4.193   3.529   5.760  0.4626 -0.0628  0.3048
  130OSM   H12F14074   4.105   3.595   5.762  1.1704  0.8855  1.2982
  130OSM   H12G14075   4.165   3.422   5.773  2.8408 -0.7065  0.5852
  130OSM   C13F14076   4.265   3.540   5.622  0.3630 -0.5617 -0.5868
  130OSM   H13F14077   4.195   3.493   5.549 -0.1349 -1.9974  0.7693
  130OSM   H13G14078   4.361   3.485   5.621  1.3894  1.1552 -1.3056
  130OSM   C14F14079   4.303   3.682   5.587  0.5761  0.1080  0.0158
  130OSM   H14F14080   4.371   3.737   5.656 -0.7750 -0.7179  2.1078
  130OSM   H14G14081   4.213   3.747   5.585  1.4047  1.2840 -0.9015
  130OSM   C15F14082   4.359   3.689   5.443 -0.2154 -0.5587  0.0119
  130OSM   H15F14083   4.269   3.712   5.383  0.4825 -0.7393 -1.1290
  130OSM   H15G14084   4.388   3.585   5.415 -3.1011 -1.1202 -1.2777
  130OSM   C16F14085   4.465   3.796   5.432  0.0150  0.0848 -0.4474
  130OSM   H16F14086   4.561   3.772   5.484 -0.6939 -0.4950  0.6459
  130OSM   H16G14087   4.435   3.896   5.468 -1.4828  0.8872 -3.6320
  130OSM   C17F14088   4.501   3.827   5.283  0.2695  0.7518  0.4220
  130OSM   H17F14089   4.579   3.905   5.276  1.4649 -0.6060 -2.7240
  130OSM   H17G14090   4.412   3.868   5.229 -1.5784 -1.3187  1.7302
  130OSM   C18F14091   4.568   3.706   5.207 -0.1732  0.2385 -0.5164
  130OSM   H18F14092   4.600   3.738   5.105  2.1949  0.6305  0.2963
  130OSM   H18G14093   4.491   3.628   5.192 -0.1129  0.4199 -1.8984
  130OSM   H18H14094   4.652   3.662   5.264 -0.5733 -0.9767 -0.8367
  131OSM      N14095   4.255   0.719   6.951 -0.5174 -0.5643  0.0502
  131OSM    C1514096   4.295   0.822   6.849  0.2562 -0.2881 -0.0608
  131OSM   H15A14097   4.378   0.886   6.873 -0.7516  1.4353 -0.9920
  131OSM   H15B14098   4.216   0.891   6.825  0.3706 -0.1430 -0.0239
  131OSM   H15C14099   4.323   0.783   6.752  2.6076  4.3226 -1.5495
  131OSM    C1414100   4.383   0.640   6.974 -0.2993 -0.3652  0.3262
  131OSM   H14A14101   4.417   0.597   6.881  0.7734 -0.5466  0.7874
  131OSM   H14B14102   4.359   0.553   7.033 -1.2525  0.4843  1.2464
  131OSM   H14C14103   4.461   0.693   7.027 -0.9077  1.2909 -0.3566
  131OSM    C1314104   4.196   0.785   7.071 -0.1382  0.1754  0.4809
  131OSM   H13A14105   4.183   0.706   7.144 -0.5723  0.3549  0.5976
  131OSM   H13B14106   4.096   0.824   7.058 -1.5163 -2.5219  2.0333
  131OSM   H13C14107   4.262   0.855   7.120  1.0115 -1.7486  1.8156
  131OSM    C1214108   4.157   0.621   6.888 -0.4613 -0.6662 -0.7620
  131OSM   H12A14109   4.205   0.565   6.809 -0.7757  1.0607 -2.2621
  131OSM   H12B14110   4.084   0.679   6.834  0.7277  1.2884 -0.3814
  131OSM    C1114111   4.084   0.517   6.975  0.7003 -0.3077 -0.2806
  131OSM   H11A14112   4.000   0.470   6.920 -0.4597 -0.4936  1.5532
  131OSM   H11B14113   4.027   0.561   7.060  0.0426  1.0683 -1.4000
  131OSM      P14114   4.215   0.296   6.928 -0.2044  0.0362  0.2441
  131OSM    O1314115   4.352   0.252   6.956 -0.0070 -0.3913  0.3601
  131OSM    O1414116   4.102   0.195   6.948 -0.7217 -0.4953  0.0726
  131OSM    O1114117   4.202   0.351   6.777 -0.3197 -0.0858 -0.4545
  131OSM    O1214118   4.182   0.426   7.021  0.0129  0.1091  0.0334
  131OSM    C1S14119   4.228   0.269   6.666 -0.4996 -0.1051  0.2328
  131OSM    H1S14120   4.152   0.190   6.654  0.4977 -1.2700  1.2321
  131OSM    H1T14121   4.326   0.216   6.670  0.3021  1.0353 -2.0288
  131OSM     NF14122   4.221   0.267   6.425  0.4637  0.6763  1.0204
  131OSM    HNF14123   4.312   0.243   6.393  0.4400  0.9342  0.7495
  131OSM    C2S14124   4.227   0.354   6.542 -0.9021 -0.3616 -0.0196
  131OSM    H2S14125   4.135   0.416   6.536 -0.7787  0.0951  1.8806
  131OSM    C3S14126   4.343   0.465   6.546  0.0193  0.5848 -0.3273
  131OSM    H3S14127   4.435   0.404   6.549 -1.5268 -1.9648 -1.1234
  131OSM     O314128   4.334   0.558   6.657  0.5377  0.7189 -0.0567
  131OSM    HO314129   4.280   0.513   6.723 -0.0188  1.4355 -0.0089
  131OSM    C4S14130   4.344   0.549   6.411  0.9157 -0.4986 -0.0616
  131OSM    H4S14131   4.361   0.488   6.321  1.0625 -0.8213  0.1802
  131OSM    C5S14132   4.329   0.683   6.396 -0.2508  0.0507 -1.1011
  131OSM    H5S14133   4.335   0.752   6.481  0.2444  1.2581 -2.0728
  131OSM    C6S14134   4.326   0.758   6.267 -0.2927 -0.9803  0.8343
  131OSM    H6S14135   4.402   0.839   6.263 -1.1749 -0.1961 -1.0280
  131OSM    H6T14136   4.236   0.823   6.265  1.3908  1.4745 -0.8078
  131OSM    C7S14137   4.334   0.684   6.135  0.1141  0.0994 -0.1099
  131OSM    H7S14138   4.265   0.598   6.129  1.4596 -0.9757 -0.6483
  131OSM    H7T14139   4.437   0.646   6.120 -0.7591 -1.8721 -1.4586
  131OSM    C8S14140   4.304   0.773   6.011  0.4696 -0.2786  0.0884
  131OSM    H8S14141   4.381   0.853   6.009 -0.0014  0.2023  0.7367
  131OSM    H8T14142   4.212   0.832   6.031  2.1374  2.4526  0.1986
  131OSM    C9S14143   4.294   0.700   5.877 -0.3501  0.2704  0.4967
  131OSM    H9S14144   4.216   0.621   5.882 -0.5409  0.3551 -0.7411
  131OSM    H9T14145   4.390   0.646   5.863 -0.7532 -0.1456 -0.8818
  131OSM   C10S14146   4.270   0.789   5.759  0.7881 -0.2503 -0.6067
  131OSM   H10S14147   4.347   0.870   5.762  2.5696 -1.8712 -0.3859
  131OSM   H10T14148   4.167   0.830   5.767  0.7850 -0.5195  1.0110
  131OSM   C11S14149   4.269   0.713   5.626  0.3944  0.8864  0.0621
  131OSM   H11S14150   4.226   0.613   5.647  2.4289 -0.3437 -1.2776
  131OSM   H11T14151   4.376   0.706   5.595  0.2725  1.5074 -0.5215
  131OSM   C12S14152   4.205   0.784   5.510  0.9474  0.0640 -0.2127
  131OSM   H12S14153   4.254   0.883   5.499  2.9239 -0.6394  1.4789
  131OSM   H12T14154   4.096   0.799   5.526  0.2977 -1.1385 -2.9091
  131OSM   C13S14155   4.219   0.734   5.367 -0.3827  0.0551 -0.0121
  131OSM   H13S14156   4.163   0.638   5.356 -2.7811  1.1507  1.6725
  131OSM   H13T14157   4.326   0.717   5.342 -1.2979 -1.6755 -3.4191
  131OSM   C14S14158   4.163   0.822   5.261 -0.0957 -0.3298 -0.9418
  131OSM   H14S14159   4.215   0.920   5.266 -0.3509 -0.1901 -0.9716
  131OSM   H14T14160   4.056   0.841   5.286  0.2166  2.4125 -1.3713
  131OSM   C15S14161   4.168   0.764   5.118 -0.0485 -0.3957  0.2422
  131OSM   H15S14162   4.104   0.675   5.104  1.8722 -2.0567  1.4687
  131OSM   H15T14163   4.275   0.751   5.090 -0.4354 -1.4878 -0.7740
  131OSM   C16S14164   4.123   0.872   5.010  0.5985 -0.0836  0.3123
  131OSM   H16S14165   4.022   0.906   5.041  0.5302 -0.4973  0.5507
  131OSM   H16T14166   4.096   0.826   4.912  0.8821 -0.1976  0.2868
  131OSM   C17S14167   4.221   0.987   5.001 -0.4832  0.6290  0.8972
  131OSM   H17S14168   4.328   0.957   4.999 -0.6175  0.1437  0.6965
  131OSM   H17T14169   4.202   1.054   5.087  3.3458  1.4761  1.2587
  131OSM   C18S14170   4.193   1.074   4.871  0.7326 -0.2737 -0.1464
  131OSM   H18S14171   4.264   1.159   4.861 -0.9508  1.1793 -0.1452
  131OSM   H18T14172   4.091   1.117   4.869 -0.1527 -2.1110  2.0938
  131OSM   H18U14173   4.198   1.003   4.785  0.4180  1.3175 -1.5282
  131OSM    C1F14174   4.115   0.191   6.392  0.0949  0.6454  0.2173
  131OSM     OF14175   4.006   0.193   6.454  0.1167 -0.0476 -0.1050
  131OSM    C2F14176   4.134   0.101   6.269  0.4182 -0.2694  0.3802
  131OSM    H2F14177   4.039   0.043   6.257  0.6316 -0.6212  0.3778
  131OSM    H2G14178   4.227   0.043   6.285  2.2533  2.4748  0.3711
  131OSM    C3F14179   4.148   0.191   6.147 -0.0912 -0.5969 -0.2874
  131OSM    H3F14180   4.234   0.262   6.152 -1.0579  0.5918 -0.0703
  131OSM    H3G14181   4.066   0.265   6.132  0.3719 -0.4466 -2.4174
  131OSM    C4F14182   4.159   0.110   6.008  0.9549  0.5310 -0.9836
  131OSM    H4F14183   4.071   0.042   6.013  0.6704  0.9282  3.2107
  131OSM    H4G14184   4.249   0.045   6.014 -0.4570 -1.4794 -0.4465
  131OSM    C5F14185   4.155   0.195   5.886  0.4360  0.5176 -0.4308
  131OSM    H5F14186   4.067   0.262   5.891 -0.2473 -0.2893 -1.4025
  131OSM    H5G14187   4.135   0.129   5.799 -1.5362  2.7671 -1.8104
  131OSM    C6F14188   4.285   0.269   5.865  0.6140 -0.8591  0.8453
  131OSM    H6F14189   4.369   0.196   5.869  0.4890 -0.9531  3.1071
  131OSM    H6G14190   4.295   0.343   5.948  1.7962 -0.8587  0.7193
  131OSM    C7F14191   4.287   0.341   5.727  0.4719  0.5441 -0.4878
  131OSM    H7F14192   4.369   0.415   5.727  0.5112  0.5004 -0.2869
  131OSM    H7G14193   4.185   0.386   5.719 -0.3649 -1.0350  0.7466
  131OSM    C8F14194   4.315   0.258   5.608  0.5642  0.8584  0.1276
  131OSM    H8F14195   4.242   0.174   5.614  0.7020  0.8080  1.3210
  131OSM    H8G14196   4.418   0.216   5.612  0.4774  0.5593 -0.6059
  131OSM    C9F14197   4.284   0.338   5.479 -0.6231  0.4219 -0.1818
  131OSM    H9F14198   4.357   0.417   5.457 -0.4732  0.9516  1.9422
  131OSM   C10F14199   4.170   0.339   5.412  0.7177  0.3613 -0.3765
  131OSM   H10F14200   4.164   0.397   5.318 -0.5573  1.5663  0.3981
  131OSM   C11F14201   4.045   0.254   5.448  0.3707  0.4483 -0.1562
  131OSM   H11F14202   3.954   0.302   5.407 -0.9421 -2.0921 -0.4097
  131OSM   H11G14203   4.036   0.238   5.558 -1.2050  2.5618  0.0861
  131OSM   C12F14204   4.041   0.115   5.379  0.3976 -0.2430  0.6063
  131OSM   H12F14205   3.954   0.061   5.423 -1.2867  1.4148 -0.5504
  131OSM   H12G14206   4.127   0.053   5.413  0.8836  0.0937 -0.0014
  131OSM   C13F14207   4.013   0.121   5.223  1.1602  0.7833 -1.1508
  131OSM   H13F14208   4.031   0.225   5.190 -0.6994  1.8881  1.0048
  131OSM   H13G14209   3.906   0.107   5.198  1.2391 -0.6181 -0.8081
  131OSM   C14F14210   4.072   0.006   5.142 -0.3010 -0.2814  0.3233
  131OSM   H14F14211   4.015   0.001   5.046 -1.7964  0.1414  1.1438
  131OSM   H14G14212   4.055  -0.087   5.200 -0.1871 -1.0412 -0.8299
  131OSM   C15F14213   4.222   0.034   5.113 -0.1534 -0.3068 -0.2726
  131OSM   H15F14214   4.274   0.036   5.210 -0.5539 -0.0260 -0.0618
  131OSM   H15G14215   4.220   0.136   5.069 -0.4874  0.9275  2.4627
  131OSM   C16F14216   4.287  -0.058   5.021  0.1936  0.3428  0.3674
  131OSM   H16F14217   4.236  -0.065   4.923  2.4995 -2.3015 -0.7787
  131OSM   H16G14218   4.278  -0.163   5.056  0.0802  0.4413  0.6360
  131OSM   C17F14219   4.435  -0.037   4.984 -0.5615 -0.4045 -0.1535
  131OSM   H17F14220   4.499  -0.047   5.074  0.9332 -1.9206 -1.3219
  131OSM   H17G14221   4.447   0.064   4.939 -0.8736 -1.3452 -2.5001
  131OSM   C18F14222   4.486  -0.126   4.879  0.4777  0.1205  0.4542
  131OSM   H18F14223   4.591  -0.110   4.848  0.4297 -0.2502  0.0968
  131OSM   H18G14224   4.419  -0.114   4.791 -1.7418 -3.0354  1.4966
  131OSM   H18H14225   4.467  -0.231   4.912  2.5474 -0.7781 -1.0023
  132OSM      N14226   6.814   0.143   6.915 -0.2410 -0.5261  0.8893
  132OSM    C1514227   6.833   0.233   7.027 -0.4649 -0.8442 -0.5266
  132OSM   H15A14228   6.743   0.246   7.085  0.6781  0.5278  1.0088
  132OSM   H15B14229   6.857   0.333   6.996 -1.6720 -0.3849 -0.0129
  132OSM   H15C14230   6.907   0.185   7.090 -0.8418 -2.1088 -1.0129
  132OSM    C1414231   6.952   0.102   6.877 -0.1548  0.1641 -0.4071
  132OSM   H14A14232   7.013   0.173   6.824  1.7604 -0.3753  0.9583
  132OSM   H14B14233   6.946   0.021   6.807 -0.1845  0.6849 -1.0178
  132OSM   H14C14234   7.010   0.071   6.962 -1.9377  1.1791  1.2717
  132OSM    C1314235   6.756   0.016   6.967  0.5568  0.6215 -0.1024
  132OSM   H13A14236   6.798  -0.006   7.065  0.5810  1.2579  0.0366
  132OSM   H13B14237   6.783  -0.072   6.911 -0.7384  0.2762 -0.2131
  132OSM   H13C14238   6.649   0.025   6.959  0.5622  0.7298 -0.0583
  132OSM    C1214239   6.728   0.205   6.803 -0.5490  1.2739 -0.7327
  132OSM   H12A14240   6.728   0.126   6.730 -3.6108 -0.9293  1.4311
  132OSM   H12B14241   6.781   0.294   6.770 -0.5848  1.6648  0.2133
  132OSM    C1114242   6.574   0.227   6.828 -0.3533 -0.2637 -0.1836
  132OSM   H11A14243   6.535   0.126   6.853 -0.7421 -0.5296 -1.7622
  132OSM   H11B14244   6.521   0.259   6.736 -0.3229 -2.5458 -1.0611
  132OSM      P14245   6.584   0.469   6.924 -0.0182  0.1475 -0.3342
  132OSM    O1314246   6.479   0.545   6.995 -0.9215 -0.6984 -0.0707
  132OSM    O1414247   6.719   0.499   6.965  0.0380  0.0337 -0.2122
  132OSM    O1114248   6.562   0.491   6.775 -0.1959  0.0711  0.1592
  132OSM    O1214249   6.551   0.312   6.943 -0.1174 -0.2983  0.4656
  132OSM    C1S14250   6.628   0.588   6.693  0.1472  0.2142 -0.1303
  132OSM    H1S14251   6.738   0.573   6.695  0.1190 -0.2649 -1.5818
  132OSM    H1T14252   6.610   0.694   6.720 -2.5014  0.1973 -1.5531
  132OSM     NF14253   6.717   0.628   6.463 -0.1581 -0.0951  0.3447
  132OSM    HNF14254   6.713   0.725   6.441 -0.8910 -0.3565 -0.7465
  132OSM    C2S14255   6.596   0.580   6.544 -0.0046  0.1097 -0.2195
  132OSM    H2S14256   6.579   0.475   6.511  0.5853 -0.0539 -0.0190
  132OSM    C3S14257   6.457   0.647   6.523 -0.3421 -0.0906 -0.1448
  132OSM    H3S14258   6.452   0.746   6.572 -0.4925 -0.9996  1.7834
  132OSM     O314259   6.344   0.568   6.570 -0.8883 -0.2094 -0.3634
  132OSM    HO314260   6.394   0.499   6.615  1.6315  0.4877 -1.8910
  132OSM    C4S14261   6.437   0.665   6.377 -0.1055 -0.7479  1.4643
  132OSM    H4S14262   6.467   0.766   6.346  0.9137 -2.1570 -2.7405
  132OSM    C5S14263   6.365   0.593   6.290  0.2495 -0.0214  0.0047
  132OSM    H5S14264   6.307   0.511   6.335 -0.7492  0.2855 -0.6823
  132OSM    C6S14265   6.332   0.628   6.150 -0.4936  0.0146  0.3932
  132OSM    H6S14266   6.251   0.703   6.154  1.3838  2.2834 -1.0469
  132OSM    H6T14267   6.312   0.534   6.094  0.0242  0.2481 -0.1986
  132OSM    C7S14268   6.454   0.686   6.071 -0.0622  0.0341  0.1321
  132OSM    H7S14269   6.496   0.777   6.119  1.6012 -0.5033 -0.2243
  132OSM    H7T14270   6.405   0.710   5.975  1.5427 -1.7136 -1.1911
  132OSM    C8S14271   6.576   0.595   6.040 -0.8985 -0.4197  0.4789
  132OSM    H8S14272   6.546   0.511   5.973  0.7905 -1.3751  0.8538
  132OSM    H8T14273   6.617   0.548   6.132  0.4747 -1.3861 -0.5828
  132OSM    C9S14274   6.697   0.660   5.969 -0.0052  0.3921  0.6144
  132OSM    H9S14275   6.721   0.749   6.031  2.5403  0.8230 -0.8511
  132OSM    H9T14276   6.664   0.685   5.866  1.0648 -0.4139  0.0514
  132OSM   C10S14277   6.822   0.565   5.974  0.4370  0.8818 -0.5297
  132OSM   H10S14278   6.823   0.489   5.893 -0.3364  0.1947  0.0982
  132OSM   H10T14279   6.807   0.502   6.063 -2.0900 -1.1081 -2.2246
  132OSM   C11S14280   6.952   0.639   5.969  0.2447 -0.5056  0.2120
  132OSM   H11S14281   6.972   0.686   6.068  2.4155  1.5821 -1.1062
  132OSM   H11T14282   6.948   0.720   5.893 -0.4624  0.4922  1.2814
  132OSM   C12S14283   7.070   0.559   5.915  0.2433  0.1911  0.3545
  132OSM   H12S14284   7.102   0.486   5.992  1.1759 -0.8242 -0.9583
  132OSM   H12T14285   7.154   0.632   5.907  0.4475 -0.1872 -1.1841
  132OSM   C13S14286   7.051   0.492   5.779 -0.3301 -0.6055 -0.4192
  132OSM   H13S14287   7.024   0.564   5.700  0.9707  0.6322  0.2115
  132OSM   H13T14288   6.972   0.415   5.793  0.1624 -1.2414 -1.0884
  132OSM   C14S14289   7.175   0.424   5.728 -0.0118  0.1389 -0.0239
  132OSM   H14S14290   7.192   0.338   5.796 -2.1160  1.9163  2.9676
  132OSM   H14T14291   7.267   0.485   5.740  0.9414 -0.5886 -2.7843
  132OSM   C15S14292   7.164   0.365   5.594  0.5852 -0.6759  0.0957
  132OSM   H15S14293   7.055   0.354   5.578 -0.0265  1.5739  2.0540
  132OSM   H15T14294   7.213   0.265   5.590  1.5058 -0.1891 -3.1253
  132OSM   C16S14295   7.230   0.462   5.497  0.8523  0.1320  0.1389
  132OSM   H16S14296   7.333   0.481   5.536  1.3432 -1.1346 -0.4743
  132OSM   H16T14297   7.192   0.566   5.496 -3.9587 -1.3628 -2.9810
  132OSM   C17S14298   7.230   0.410   5.354  0.1309  1.2950 -0.3102
  132OSM   H17S14299   7.123   0.406   5.327  0.2622 -0.5095 -0.6890
  132OSM   H17T14300   7.268   0.305   5.354  0.9838  1.5433  1.9533
  132OSM   C18S14301   7.304   0.508   5.252 -0.2750  1.4633 -0.2113
  132OSM   H18S14302   7.253   0.607   5.259 -1.8085  0.6712  0.2712
  132OSM   H18T14303   7.302   0.464   5.150 -0.1364 -1.5578  0.9833
  132OSM   H18U14304   7.408   0.529   5.285 -0.3691  0.5000  0.7369
  132OSM    C1F14305   6.833   0.565   6.459  0.5797  0.0186  0.4957
  132OSM     OF14306   6.842   0.448   6.496  0.5622  0.6472  0.4990
  132OSM    C2F14307   6.943   0.640   6.398  0.1417 -0.0475  0.2231
  132OSM    H2F14308   6.948   0.741   6.444  1.7657  0.7130 -1.5109
  132OSM    H2G14309   6.939   0.647   6.287  0.1939 -0.3422  0.2022
  132OSM    C3F14310   7.082   0.577   6.431  0.4520 -0.2440 -1.0456
  132OSM    H3F14311   7.077   0.467   6.445  0.7020  0.0167  1.7002
  132OSM    H3G14312   7.119   0.611   6.530 -0.2679 -1.7234 -0.2403
  132OSM    C4F14313   7.187   0.608   6.318 -0.2994  0.3740 -0.4224
  132OSM    H4F14314   7.150   0.577   6.217 -0.1857  0.1403 -0.3946
  132OSM    H4G14315   7.280   0.549   6.334  0.5563  1.6110 -0.7465
  132OSM    C5F14316   7.238   0.749   6.326 -0.0586 -0.4590 -0.0564
  132OSM    H5F14317   7.293   0.750   6.423 -1.3411 -1.1518  0.7088
  132OSM    H5G14318   7.154   0.822   6.320  0.6266  0.4015  0.5304
  132OSM    C6F14319   7.340   0.774   6.219  0.2543 -0.2713 -0.2442
  132OSM    H6F14320   7.289   0.766   6.120  3.1018  0.1371 -1.8819
  132OSM    H6G14321   7.420   0.696   6.222 -0.9168 -1.7132 -2.8132
  132OSM    C7F14322   7.390   0.913   6.234  0.0805 -0.4501  0.0106
  132OSM    H7F14323   7.471   0.910   6.309  0.2021  1.0547 -0.0181
  132OSM    H7G14324   7.323   0.989   6.279  0.2208 -1.0359  1.2474
  132OSM    C8F14325   7.456   0.979   6.113  0.6242  0.2928  0.4116
  132OSM    H8F14326   7.495   1.080   6.138  0.5658  0.0065  1.7062
  132OSM    H8G14327   7.362   0.990   6.054  0.1800  0.7000  1.1840
  132OSM    C9F14328   7.550   0.890   6.036  0.1321 -0.1230  0.1629
  132OSM    H9F14329   7.598   0.809   6.093  1.1594  0.6038  0.3453
  132OSM   C10F14330   7.570   0.903   5.904 -0.3972 -0.3118 -0.5213
  132OSM   H10F14331   7.632   0.821   5.865  0.1334 -0.2651  0.1920
  132OSM   C11F14332   7.516   0.994   5.794  0.5430  0.7361 -0.4830
  132OSM   H11F14333   7.601   1.052   5.752  0.9888  1.0013  0.7352
  132OSM   H11G14334   7.443   1.062   5.842  1.0380  2.8536 -2.5450
  132OSM   C12F14335   7.459   0.915   5.675 -0.4457  0.0733  0.4448
  132OSM   H12F14336   7.401   0.825   5.703 -0.7471 -0.6758 -2.3582
  132OSM   H12G14337   7.542   0.875   5.614  0.7937  2.2496  0.6002
  132OSM   C13F14338   7.367   0.999   5.583 -0.7155  0.4630  0.2280
  132OSM   H13F14339   7.444   1.063   5.533 -0.7733  0.5375  0.2341
  132OSM   H13G14340   7.296   1.063   5.639 -2.6543 -0.4804 -1.0428
  132OSM   C14F14341   7.277   0.907   5.489 -0.0969 -1.3739  0.1138
  132OSM   H14F14342   7.231   0.833   5.558 -1.5273 -0.4418  0.2217
  132OSM   H14G14343   7.338   0.852   5.415 -0.9348  0.9280 -2.4741
  132OSM   C15F14344   7.175   0.973   5.387 -0.5657  0.1019 -0.4759
  132OSM   H15F14345   7.220   1.034   5.306 -0.9869  1.5845  0.3819
  132OSM   H15G14346   7.111   1.047   5.439 -1.4047 -0.2559 -0.9853
  132OSM   C16F14347   7.094   0.866   5.308  0.1772  0.7205  0.4048
  132OSM   H16F14348   7.064   0.787   5.381  1.5319  0.9791  1.2683
  132OSM   H16G14349   7.162   0.815   5.236 -0.2000 -0.3071  0.7539
  132OSM   C17F14350   6.975   0.915   5.221  0.3475  0.0629  0.3936
  132OSM   H17F14351   6.992   1.010   5.166  0.8174  0.4890  1.2341
  132OSM   H17G14352   6.893   0.933   5.294  0.2157 -2.5748  0.9984
  132OSM   C18F14353   6.928   0.817   5.118 -0.1744  0.1313  0.0122
  132OSM   H18F14354   6.918   0.721   5.174  0.4010  0.8044  1.3155
  132OSM   H18G14355   6.991   0.805   5.027 -0.0603  0.8862 -0.0165
  132OSM   H18H14356   6.828   0.842   5.079 -0.0396 -0.3477 -0.6650
  133OSM      N14357   3.653   1.434   7.401  0.5610 -0.6633 -0.4287
  133OSM    C1514358   3.564   1.421   7.521  0.3458  0.3164  0.7657
  133OSM   H15A14359   3.519   1.323   7.517 -0.8251  0.8851 -1.8387
  133OSM   H15B14360   3.480   1.488   7.514 -1.9000 -2.2991  0.8210
  133OSM   H15C14361   3.614   1.438   7.615  1.2505  0.4090  0.2887
  133OSM    C1414362   3.697   1.580   7.394 -0.4205 -0.6509  0.3406
  133OSM   H14A14363   3.616   1.650   7.384  1.4463  1.5744 -0.1467
  133OSM   H14B14364   3.748   1.594   7.299  0.7256  2.5970  1.3187
  133OSM   H14C14365   3.768   1.607   7.471  1.1077  1.4880 -1.6553
  133OSM    C1314366   3.771   1.332   7.403 -0.0838  0.7178 -0.5922
  133OSM   H13A14367   3.842   1.349   7.482 -0.5000  2.3278 -0.5321
  133OSM   H13B14368   3.818   1.343   7.306 -2.1169 -0.0739 -1.7282
  133OSM   H13C14369   3.728   1.233   7.412 -0.2723  0.8856  0.4547
  133OSM    C1214370   3.565   1.409   7.277  0.2403  0.3656  0.2638
  133OSM   H12A14371   3.483   1.478   7.272 -1.4506 -1.4979  1.0780
  133OSM   H12B14372   3.518   1.314   7.297  1.0096  0.1962  1.3642
  133OSM    C1114373   3.628   1.403   7.140 -0.4636 -0.8031  0.2219
  133OSM   H11A14374   3.684   1.497   7.124  1.0181 -1.2267  2.6160
  133OSM   H11B14375   3.546   1.402   7.064  0.6836  1.1895 -1.1417
  133OSM      P14376   3.843   1.302   7.043  0.1579 -0.2281 -0.3564
  133OSM    O1314377   3.941   1.363   7.133 -0.4267  0.3550 -0.6603
  133OSM    O1414378   3.876   1.167   6.989  0.4887 -0.0472 -0.1791
  133OSM    O1114379   3.793   1.405   6.929  0.0220 -0.4417  0.3775
  133OSM    O1214380   3.713   1.287   7.126  0.2103  0.1009 -0.4737
  133OSM    C1S14381   3.861   1.507   6.865  0.2990 -0.0048 -0.0130
  133OSM    H1S14382   3.972   1.501   6.858  0.1382 -2.0112 -1.7046
  133OSM    H1T14383   3.837   1.601   6.920 -2.8584 -0.2096 -0.8678
  133OSM     NF14384   3.874   1.651   6.671  0.2533 -0.8780  0.3072
  133OSM    HNF14385   3.824   1.737   6.673  1.3637 -0.0758 -2.2396
  133OSM    C2S14386   3.802   1.541   6.727 -0.0554 -0.0054  0.6512
  133OSM    H2S14387   3.806   1.455   6.657 -1.0545 -0.9048  1.6789
  133OSM    C3S14388   3.649   1.565   6.743  0.1375  0.8661  0.5102
  133OSM    H3S14389   3.641   1.617   6.842  1.0305 -1.1873  1.7220
  133OSM     O314390   3.567   1.449   6.760  0.5460 -0.0141  0.1963
  133OSM    HO314391   3.619   1.377   6.797  2.2798  1.7870  1.5109
  133OSM    C4S14392   3.596   1.643   6.633 -0.2452  0.6843 -0.3736
  133OSM    H4S14393   3.584   1.749   6.663  2.2844  0.4569  1.8371
  133OSM    C5S14394   3.555   1.599   6.515  0.2011 -0.4947 -0.8313
  133OSM    H5S14395   3.559   1.491   6.495  0.1180 -0.8046  0.7258
  133OSM    C6S14396   3.482   1.688   6.408 -0.0138  0.6676 -0.3913
  133OSM    H6S14397   3.496   1.798   6.416 -0.9960  0.8445 -0.8986
  133OSM    H6T14398   3.372   1.673   6.406 -0.2347  2.0394  0.1717
  133OSM    C7S14399   3.521   1.637   6.259  0.6957  0.5364  0.7025
  133OSM    H7S14400   3.465   1.542   6.241 -0.5584  1.1325  1.2953
  133OSM    H7T14401   3.631   1.620   6.254  0.4657 -0.9119 -0.3116
  133OSM    C8S14402   3.465   1.737   6.155 -0.1561  0.0181 -0.1339
  133OSM    H8S14403   3.508   1.724   6.053  1.6386  1.2162  0.4129
  133OSM    H8T14404   3.515   1.836   6.167  0.3046 -0.2563  0.2570
  133OSM    C9S14405   3.314   1.751   6.149 -0.2297  0.3862  0.0403
  133OSM    H9S14406   3.276   1.753   6.253  2.3852  2.2324  1.0650
  133OSM    H9T14407   3.271   1.664   6.095 -2.0482 -0.2169  2.2966
  133OSM   C10S14408   3.264   1.878   6.073 -0.0942  0.2673  0.0376
  133OSM   H10S14409   3.308   1.975   6.106  1.7501  0.1011 -1.7845
  133OSM   H10T14410   3.154   1.895   6.080 -0.1020  0.4296 -0.4849
  133OSM   C11S14411   3.307   1.873   5.923 -0.2221 -0.4842 -0.2829
  133OSM   H11S14412   3.296   1.768   5.887  2.1943 -0.1731 -2.2067
  133OSM   H11T14413   3.412   1.904   5.907 -0.6871  0.3108 -2.0492
  133OSM   C12S14414   3.219   1.968   5.839 -0.1094  0.8423 -0.8695
  133OSM   H12S14415   3.233   2.066   5.890  3.1877  1.1705 -2.1466
  133OSM   H12T14416   3.116   1.929   5.851  0.1092  0.5025  0.0363
  133OSM   C13S14417   3.264   1.975   5.696  0.0042  0.2119  0.0829
  133OSM   H13S14418   3.240   1.879   5.644 -1.1035  0.5374 -0.0266
  133OSM   H13T14419   3.372   1.994   5.681 -0.4043  1.4485 -1.5386
  133OSM   C14S14420   3.201   2.091   5.618  0.2927  0.1975  0.3926
  133OSM   H14S14421   3.235   2.184   5.668  0.6180  2.0018 -2.9464
  133OSM   H14T14422   3.091   2.091   5.630  0.2293  2.1269  0.1567
  133OSM   C15S14423   3.227   2.092   5.466  0.0468 -0.3962 -0.1099
  133OSM   H15S14424   3.181   1.999   5.427  1.4825 -1.3697  0.4194
  133OSM   H15T14425   3.337   2.093   5.449  0.0361 -2.0613 -0.4426
  133OSM   C16S14426   3.149   2.205   5.413 -0.1338 -0.1344 -0.1132
  133OSM   H16S14427   3.171   2.301   5.464  1.9068 -0.2879 -0.6077
  133OSM   H16T14428   3.042   2.185   5.435 -0.3659  1.8054  0.6879
  133OSM   C17S14429   3.148   2.224   5.261 -0.1073 -0.7148  0.0111
  133OSM   H17S14430   3.049   2.273   5.249 -0.1115 -0.3134  1.4988
  133OSM   H17T14431   3.140   2.123   5.215 -3.8158  0.2702 -1.9384
  133OSM   C18S14432   3.260   2.307   5.202 -0.0079 -0.3204  0.0755
  133OSM   H18S14433   3.252   2.417   5.218 -0.8221 -0.3789  0.0994
  133OSM   H18T14434   3.269   2.297   5.091  2.0161  1.8654 -0.0568
  133OSM   H18U14435   3.353   2.279   5.256 -0.2361  1.8847  1.7496
  133OSM    C1F14436   3.998   1.643   6.628 -0.4114 -0.2258 -1.0061
  133OSM     OF14437   4.062   1.539   6.633 -0.3173  0.2308 -0.3523
  133OSM    C2F14438   4.067   1.763   6.585  0.4206 -0.6449  0.2337
  133OSM    H2F14439   4.175   1.744   6.567  0.2642 -0.4583 -1.0166
  133OSM    H2G14440   4.064   1.832   6.672 -1.8262 -1.3094  0.7486
  133OSM    C3F14441   3.998   1.844   6.476 -0.4488  0.7445  0.7568
  133OSM    H3F14442   4.060   1.932   6.449  2.0594 -0.9729  0.5986
  133OSM    H3G14443   3.893   1.873   6.496 -0.7802  1.0855 -1.2930
  133OSM    C4F14444   3.981   1.759   6.351  0.2009  0.5430  0.4309
  133OSM    H4F14445   3.933   1.660   6.365 -0.0872  0.6853  0.4725
  133OSM    H4G14446   4.087   1.750   6.320 -0.2027 -0.0641 -0.8474
  133OSM    C5F14447   3.903   1.835   6.245 -0.4709 -0.0881 -0.0449
  133OSM    H5F14448   3.922   1.942   6.269 -1.7116  0.3029 -0.7667
  133OSM    H5G14449   3.795   1.813   6.261 -0.1482 -0.7055  1.5201
  133OSM    C6F14450   3.943   1.823   6.105 -0.1443  1.1248  0.1667
  133OSM    H6F14451   3.942   1.713   6.087 -1.9194  0.6901  2.4391
  133OSM    H6G14452   4.050   1.854   6.101  0.2423 -0.2179 -0.5386
  133OSM    C7F14453   3.864   1.911   6.006 -0.0536 -0.3692 -1.0227
  133OSM    H7F14454   3.878   2.017   6.038 -0.2460 -0.4725 -0.5828
  133OSM    H7G14455   3.757   1.881   6.013 -0.0579 -0.5560 -1.8078
  133OSM    C8F14456   3.927   1.892   5.866 -0.1108 -0.5192  0.5208
  133OSM    H8F14457   4.037   1.883   5.865 -0.2085 -1.9993  0.4138
  133OSM    H8G14458   3.902   1.985   5.811  0.6579  0.7426  2.2325
  133OSM    C9F14459   3.882   1.769   5.793 -0.8559  0.7811  0.0577
  133OSM    H9F14460   3.884   1.683   5.861 -0.1443  0.7413 -0.0041
  133OSM   C10F14461   3.835   1.762   5.666 -0.3250  0.1201 -0.9559
  133OSM   H10F14462   3.802   1.663   5.631  0.6347 -0.7511  0.4489
  133OSM   C11F14463   3.837   1.870   5.567 -0.0356 -0.1879 -0.2562
  133OSM   H11F14464   3.910   1.950   5.591 -0.4160  0.3838 -0.9861
  133OSM   H11G14465   3.735   1.914   5.553 -0.6657 -1.6627 -0.4574
  133OSM   C12F14466   3.870   1.815   5.430  0.2670  0.7394 -0.4557
  133OSM   H12F14467   3.783   1.759   5.391 -0.0481  1.7823 -1.2994
  133OSM   H12G14468   3.956   1.746   5.442 -0.4416  0.2855  2.9182
  133OSM   C13F14469   3.900   1.934   5.334 -0.0391 -0.4728  0.3964
  133OSM   H13F14470   3.987   1.987   5.378  0.0659 -0.9665  0.7859
  133OSM   H13G14471   3.817   2.003   5.306 -0.8761 -2.5683 -2.6970
  133OSM   C14F14472   3.940   1.907   5.189 -0.0306 -0.2820 -0.6794
  133OSM   H14F14473   3.872   1.829   5.150 -1.9776  0.8094  0.3639
  133OSM   H14G14474   4.046   1.876   5.178 -0.0569 -0.7972  0.4371
  133OSM   C15F14475   3.925   2.032   5.099  0.2675 -0.2206  0.9631
  133OSM   H15F14476   3.973   2.120   5.147 -0.4054  0.9204 -0.3892
  133OSM   H15G14477   3.817   2.046   5.077  0.7073  0.5565 -0.9039
  133OSM   C16F14478   3.978   2.010   4.961 -0.0597 -0.7740  0.6162
  133OSM   H16F14479   3.928   2.076   4.887 -1.0298  0.3186  2.1812
  133OSM   H16G14480   3.950   1.903   4.950  0.0898 -0.7495 -0.0678
  133OSM   C17F14481   4.132   2.030   4.948 -0.0927  0.2909 -0.7039
  133OSM   H17F14482   4.168   1.978   4.857  2.6378  1.3610 -0.3333
  133OSM   H17G14483   4.180   1.979   5.034 -0.4717  1.5218  0.2627
  133OSM   C18F14484   4.191   2.163   4.959 -0.0147  0.0026  0.0980
  133OSM   H18F14485   4.136   2.233   4.892  0.0090 -1.4077 -1.4772
  133OSM   H18G14486   4.301   2.166   4.939  0.2862  2.1770  1.7365
  133OSM   H18H14487   4.182   2.194   5.065 -0.7341  2.9524 -0.7467
  134OSM      N14488   2.132   1.778   7.383 -0.4490 -0.5529 -0.1690
  134OSM    C1514489   2.022   1.682   7.416  0.8004  0.1978  0.0999
  134OSM   H15A14490   1.972   1.654   7.324 -2.1614 -0.1682  1.7209
  134OSM   H15B14491   1.944   1.724   7.477 -0.2953 -3.6096  1.6015
  134OSM   H15C14492   2.058   1.592   7.465  1.8516  0.6494  0.1875
  134OSM    C1414493   2.079   1.909   7.339 -0.2927  0.5808  0.3475
  134OSM   H14A14494   2.009   1.901   7.257 -0.8452  0.4403  0.8317
  134OSM   H14B14495   2.164   1.967   7.305 -0.1261 -0.0285 -0.2985
  134OSM   H14C14496   2.029   1.967   7.415 -1.1868  0.1481  0.1091
  134OSM    C1314497   2.208   1.797   7.508 -0.5171  0.7397  0.0717
  134OSM   H13A14498   2.278   1.879   7.504  0.0142  0.3351  0.7688
  134OSM   H13B14499   2.272   1.713   7.531  0.4069  1.8557  1.7670
  134OSM   H13C14500   2.152   1.814   7.599  1.9008  1.7839  1.4447
  134OSM    C1214501   2.222   1.723   7.270 -0.1188 -0.2468 -1.0439
  134OSM   H12A14502   2.268   1.636   7.313  2.0033  1.3354  0.0397
  134OSM   H12B14503   2.307   1.787   7.255 -1.1270  1.1209 -1.0640
  134OSM    C1114504   2.152   1.674   7.136 -0.2349  0.6985 -0.4566
  134OSM   H11A14505   2.095   1.580   7.144 -0.3380  0.7770 -0.2422
  134OSM   H11B14506   2.238   1.638   7.076  0.0577  0.8973 -0.1657
  134OSM      P14507   2.131   1.888   6.984 -0.0238  0.5306  0.1990
  134OSM    O1314508   2.021   1.961   6.924 -0.5111  0.6748  0.2996
  134OSM    O1414509   2.228   1.974   7.050 -1.0071 -0.2932  0.1502
  134OSM    O1114510   2.213   1.813   6.868  1.1037 -0.8149 -0.5236
  134OSM    O1214511   2.076   1.780   7.075  0.0004 -0.0640 -0.1184
  134OSM    C1S14512   2.150   1.701   6.806  0.3745 -0.8377 -0.7497
  134OSM    H1S14513   2.041   1.686   6.822  0.7307 -0.7657  2.3830
  134OSM    H1T14514   2.193   1.608   6.849 -0.0260 -1.2697 -1.2755
  134OSM     NF14515   2.082   1.582   6.604 -0.1678 -0.0906 -1.0844
  134OSM    HNF14516   2.126   1.492   6.601  0.3435  0.0735  0.7390
  134OSM    C2S14517   2.166   1.691   6.653  0.2706 -0.3308 -0.2086
  134OSM    H2S14518   2.127   1.786   6.607  1.7486 -0.1625 -1.1689
  134OSM    C3S14519   2.313   1.671   6.617  0.4224 -0.1832 -0.2902
  134OSM    H3S14520   2.354   1.576   6.657  3.1804  1.4941  1.2003
  134OSM     O314521   2.404   1.769   6.668 -0.1105  0.6749  0.7204
  134OSM    HO314522   2.353   1.814   6.736 -0.8836 -0.3313  0.8395
  134OSM    C4S14523   2.327   1.654   6.467 -1.1224  0.3373 -0.5459
  134OSM    H4S14524   2.321   1.548   6.440 -1.6865  0.5297 -1.1922
  134OSM    C5S14525   2.343   1.741   6.367 -0.0490 -0.9926 -0.4158
  134OSM    H5S14526   2.332   1.849   6.386  0.6028 -0.9881 -0.0267
  134OSM    C6S14527   2.360   1.716   6.224 -0.0292 -0.5132  0.7094
  134OSM    H6S14528   2.467   1.712   6.194  0.3709 -1.6338  2.1453
  134OSM    H6T14529   2.330   1.804   6.163  0.9440 -0.4058  0.3785
  134OSM    C7S14530   2.307   1.580   6.166 -0.2714  0.0595  0.1340
  134OSM    H7S14531   2.196   1.577   6.170 -0.3235  1.9245  1.2509
  134OSM    H7T14532   2.361   1.498   6.217  1.5708  1.5972  0.7786
  134OSM    C8S14533   2.352   1.556   6.019  0.1121 -0.9703 -0.1076
  134OSM    H8S14534   2.321   1.456   5.981  1.1684 -0.4449 -2.5368
  134OSM    H8T14535   2.460   1.578   6.009 -0.0303 -0.2522 -0.1630
  134OSM    C9S14536   2.283   1.653   5.916  0.1759 -0.8143 -0.7844
  134OSM    H9S14537   2.304   1.758   5.945 -2.1438 -0.1852 -1.1137
  134OSM    H9T14538   2.172   1.658   5.925  0.3855  2.2797  1.5694
  134OSM   C10S14539   2.333   1.631   5.774 -0.2375 -0.0676 -0.0073
  134OSM   H10S14540   2.323   1.524   5.748 -1.1944  0.0148 -0.0150
  134OSM   H10T14541   2.440   1.660   5.772 -0.6540  1.5173 -1.0700
  134OSM   C11S14542   2.241   1.704   5.673 -0.1582  0.2900 -0.0788
  134OSM   H11S14543   2.220   1.809   5.704  0.9953  0.1941  1.1293
  134OSM   H11T14544   2.140   1.658   5.672 -0.2859  0.5622 -0.5598
  134OSM   C12S14545   2.299   1.701   5.525  0.6406 -1.2124 -0.3097
  134OSM   H12S14546   2.398   1.653   5.536  0.3497 -1.5211  1.2098
  134OSM   H12T14547   2.309   1.807   5.494  0.8048 -0.9337  0.6758
  134OSM   C13S14548   2.218   1.618   5.432 -0.4593 -0.2486  0.2067
  134OSM   H13S14549   2.115   1.659   5.422 -1.2861 -2.4470 -1.2176
  134OSM   H13T14550   2.204   1.514   5.468 -1.1678 -1.4316 -3.0620
  134OSM   C14S14551   2.281   1.621   5.288  0.3011  0.2118  0.7555
  134OSM   H14S14552   2.382   1.576   5.284 -0.6241 -1.8611 -1.0838
  134OSM   H14T14553   2.277   1.727   5.255 -1.1043  0.3495  1.2707
  134OSM   C15S14554   2.199   1.538   5.181 -0.1926 -1.1522 -0.2316
  134OSM   H15S14555   2.093   1.570   5.197  0.4775  1.1526 -0.1134
  134OSM   H15T14556   2.191   1.430   5.207 -3.6162 -1.2002 -0.9435
  134OSM   C16S14557   2.240   1.567   5.038  0.7864  0.0517 -0.1881
  134OSM   H16S14558   2.206   1.671   5.014 -0.6340  0.5276  3.2077
  134OSM   H16T14559   2.183   1.505   4.966 -0.3329  1.0100 -0.1786
  134OSM   C17S14560   2.385   1.541   5.017 -0.0633  1.1037 -0.7552
  134OSM   H17S14561   2.404   1.432   5.013 -1.3948  0.8074  0.1769
  134OSM   H17T14562   2.448   1.594   5.091  0.2537 -0.7872  0.3729
  134OSM   C18S14563   2.437   1.593   4.886 -0.6726  0.0358  0.3923
  134OSM   H18S14564   2.430   1.704   4.881 -1.2683  0.0290  0.9435
  134OSM   H18T14565   2.373   1.551   4.806 -2.8320 -0.8704  2.4761
  134OSM   H18U14566   2.542   1.563   4.869 -0.8158 -1.4460  1.9472
  134OSM    C1F14567   1.953   1.603   6.591 -0.0204 -0.1507 -0.1373
  134OSM     OF14568   1.898   1.708   6.614  0.0894 -0.3783  0.3079
  134OSM    C2F14569   1.866   1.478   6.557  0.8279  0.1227  0.3347
  134OSM    H2F14570   1.787   1.460   6.633 -0.3507  1.7637 -0.4380
  134OSM    H2G14571   1.924   1.384   6.542  1.6033  0.4666  1.0379
  134OSM    C3F14572   1.811   1.518   6.415  0.9315  0.2675  0.1726
  134OSM    H3F14573   1.778   1.624   6.411 -0.0584 -0.0442 -0.2523
  134OSM    H3G14574   1.716   1.464   6.395  0.3843  0.9671  0.7983
  134OSM    C4F14575   1.906   1.477   6.302  0.3451 -0.3701 -0.5842
  134OSM    H4F14576   1.929   1.369   6.312 -1.5559 -0.6122  2.3046
  134OSM    H4G14577   2.003   1.531   6.299  0.5296 -0.5520  1.3651
  134OSM    C5F14578   1.840   1.499   6.161 -0.5662  0.3558  0.0729
  134OSM    H5F14579   1.817   1.606   6.144 -0.1349  0.8541  2.3016
  134OSM    H5G14580   1.741   1.448   6.155 -0.0193 -0.7119 -0.0306
  134OSM    C6F14581   1.926   1.439   6.053  0.3381  0.7174  0.0702
  134OSM    H6F14582   1.920   1.328   6.045  1.5428  0.7348 -1.4898
  134OSM    H6G14583   2.030   1.474   6.067  0.9584 -0.7843 -0.6028
  134OSM    C7F14584   1.891   1.497   5.908  0.8088  0.4986  0.5935
  134OSM    H7F14585   1.898   1.608   5.899 -0.7478  0.6437  0.9826
  134OSM    H7G14586   1.784   1.471   5.894  1.0488 -0.6832  0.8691
  134OSM    C8F14587   1.959   1.428   5.787 -0.2725  0.8697 -0.1634
  134OSM    H8F14588   2.066   1.415   5.811 -0.8186  0.5484  2.4316
  134OSM    H8G14589   1.973   1.495   5.700  2.9734 -0.6203 -0.9265
  134OSM    C9F14590   1.908   1.298   5.748  0.4319 -0.2419 -0.2012
  134OSM    H9F14591   1.916   1.225   5.830 -0.9908  0.3860  0.5550
  134OSM   C10F14592   1.862   1.249   5.632 -0.1872  0.9931 -0.7426
  134OSM   H10F14593   1.836   1.142   5.631  1.6096  0.4283  1.8498
  134OSM   C11F14594   1.853   1.321   5.500 -0.2313 -0.6764 -0.1595
  134OSM   H11F14595   1.874   1.427   5.523  0.5517 -0.3236 -2.3225
  134OSM   H11G14596   1.745   1.322   5.471 -0.5212 -1.7549  0.7963
  134OSM   C12F14597   1.947   1.277   5.386 -0.0587  0.0898  0.5718
  134OSM   H12F14598   1.957   1.166   5.386 -0.3913  0.0061  3.3161
  134OSM   H12G14599   2.051   1.312   5.406  0.3116 -1.0093  0.6635
  134OSM   C13F14600   1.897   1.306   5.244 -0.4924 -0.0072  0.4781
  134OSM   H13F14601   1.824   1.232   5.206 -2.6746  1.7354  1.0184
  134OSM   H13G14602   1.978   1.306   5.168 -0.2910  0.9091  0.6813
  134OSM   C14F14603   1.833   1.450   5.230  0.4050  0.0704 -0.7260
  134OSM   H14F14604   1.891   1.530   5.282 -0.3154  1.4922 -2.0184
  134OSM   H14G14605   1.732   1.454   5.277  0.1325 -0.3345 -1.2656
  134OSM   C15F14606   1.831   1.493   5.082  0.6918 -1.0621  0.9221
  134OSM   H15F14607   1.773   1.413   5.032  0.2381 -0.8380  1.0826
  134OSM   H15G14608   1.929   1.491   5.029 -1.1769 -1.2281 -2.8676
  134OSM   C16F14609   1.752   1.628   5.068 -0.4045  0.8067  0.3809
  134OSM   H16F14610   1.760   1.677   4.969 -0.3586 -0.0215 -0.0346
  134OSM   H16G14611   1.793   1.699   5.143  2.6431 -0.3360 -0.0453
  134OSM   C17F14612   1.604   1.600   5.106  0.2188 -0.2818 -0.5096
  134OSM   H17F14613   1.589   1.588   5.216 -1.5262 -0.7778 -0.7720
  134OSM   H17G14614   1.568   1.511   5.050 -1.0109 -0.9159  1.1965
  134OSM   C18F14615   1.512   1.720   5.065 -0.4029  0.0160  0.4584
  134OSM   H18F14616   1.526   1.812   5.126 -1.9886  0.9059 -0.4613
  134OSM   H18G14617   1.405   1.701   5.088 -0.7619  0.6041 -0.6672
  134OSM   H18H14618   1.521   1.727   4.955 -0.7578  0.5664  0.4596
  135OSM      N14619   1.507   4.490   7.263 -0.0522 -0.1244  0.0742
  135OSM    C1514620   1.389   4.396   7.263 -0.2878  0.3866 -0.1523
  135OSM   H15A14621   1.431   4.299   7.241 -0.0620  0.7122 -1.2125
  135OSM   H15B14622   1.314   4.426   7.191  0.3393 -0.0839 -1.0142
  135OSM   H15C14623   1.330   4.387   7.353 -2.2129  0.3703 -1.3671
  135OSM    C1414624   1.472   4.628   7.303 -0.0822 -0.3732  0.1293
  135OSM   H14A14625   1.426   4.687   7.225 -0.0195 -0.1432  0.2627
  135OSM   H14B14626   1.556   4.692   7.327 -1.1217  0.5188  1.4941
  135OSM   H14C14627   1.420   4.643   7.396  1.9645  0.4082  1.2128
  135OSM    C1314628   1.603   4.427   7.364 -0.1366  0.8421 -0.1302
  135OSM   H13A14629   1.552   4.428   7.459 -0.7181 -1.8469 -0.3352
  135OSM   H13B14630   1.700   4.474   7.374  0.8578 -1.4408  1.7671
  135OSM   H13C14631   1.627   4.326   7.334  0.8330  1.3117 -1.0137
  135OSM    C1214632   1.571   4.501   7.124  0.9154 -0.4521 -0.0279
  135OSM   H12A14633   1.609   4.403   7.099  0.1894 -0.3757 -1.5761
  135OSM   H12B14634   1.661   4.561   7.125  0.4708  0.3027 -1.4941
  135OSM    C1114635   1.475   4.559   7.022  0.0564  0.5226  0.1760
  135OSM   H11A14636   1.375   4.513   7.038  0.9581 -0.8681  2.1961
  135OSM   H11B14637   1.494   4.529   6.917 -2.3067 -3.1651  0.6110
  135OSM      P14638   1.548   4.801   6.957  0.0506 -0.2016 -0.1102
  135OSM    O1314639   1.488   4.937   6.954  0.0551  0.4917  0.6158
  135OSM    O1414640   1.684   4.802   7.015 -0.0396  0.0772 -0.1914
  135OSM    O1114641   1.560   4.745   6.810 -0.2642  0.3023 -0.1792
  135OSM    O1214642   1.460   4.702   7.035 -0.0343  0.1273 -0.3371
  135OSM    C1S14643   1.677   4.754   6.728  0.0452  0.3998 -0.4389
  135OSM    H1S14644   1.760   4.693   6.769  0.7006  1.2595 -0.4599
  135OSM    H1T14645   1.700   4.863   6.730 -1.9230  0.8635  1.2602
  135OSM     NF14646   1.753   4.696   6.497 -0.0287 -0.0490 -0.0025
  135OSM    HNF14647   1.782   4.786   6.465  0.7276  0.7982  2.7945
  135OSM    C2S14648   1.638   4.721   6.584 -0.2057  0.2690  0.1458
  135OSM    H2S14649   1.587   4.624   6.601  0.4196  0.0946  1.1864
  135OSM    C3S14650   1.545   4.825   6.524  0.7954 -0.2062  0.3177
  135OSM    H3S14651   1.602   4.915   6.492  0.1314  0.3565  0.6794
  135OSM     O314652   1.450   4.870   6.616  0.0271  0.0203 -0.1968
  135OSM    HO314653   1.474   4.824   6.697 -0.9165  0.2477  0.2235
  135OSM    C4S14654   1.477   4.784   6.393  0.1364  0.0020 -0.0526
  135OSM    H4S14655   1.527   4.817   6.301 -0.4754 -1.0242 -0.7823
  135OSM    C5S14656   1.352   4.739   6.371  0.9299 -0.0997 -0.4168
  135OSM    H5S14657   1.278   4.721   6.451 -0.2553  0.4549 -1.3485
  135OSM    C6S14658   1.292   4.712   6.237  0.2656 -0.0403 -0.1228
  135OSM    H6S14659   1.205   4.777   6.214 -0.5052 -0.7159  0.7717
  135OSM    H6T14660   1.262   4.606   6.222  4.1491 -1.1569 -1.2264
  135OSM    C7S14661   1.388   4.741   6.112 -0.0233  0.5603  0.5127
  135OSM    H7S14662   1.471   4.668   6.122  0.3586  0.7550 -0.9112
  135OSM    H7T14663   1.420   4.847   6.102 -0.5379  0.5836 -1.2664
  135OSM    C8S14664   1.326   4.703   5.973  0.9924 -0.6740 -0.7552
  135OSM    H8S14665   1.264   4.616   6.002  1.7763 -1.1029 -0.3178
  135OSM    H8T14666   1.413   4.681   5.907  0.9655 -2.2076 -0.3187
  135OSM    C9S14667   1.241   4.813   5.909  0.7332 -0.5248 -0.0022
  135OSM    H9S14668   1.295   4.909   5.926 -1.3832  0.3058  3.0086
  135OSM    H9T14669   1.141   4.828   5.956  1.1008  0.1772  0.5877
  135OSM   C10S14670   1.223   4.786   5.762  0.0388 -0.1893 -0.5389
  135OSM   H10S14671   1.151   4.701   5.762 -1.1866  0.8218 -0.4182
  135OSM   H10T14672   1.319   4.750   5.719  1.0673  1.2282  0.4755
  135OSM   C11S14673   1.173   4.908   5.682  0.6789  0.5785  0.2039
  135OSM   H11S14674   1.246   4.989   5.704  0.3416  1.0227 -0.2894
  135OSM   H11T14675   1.074   4.933   5.726  0.2934 -0.2392 -0.1748
  135OSM   C12S14676   1.168   4.882   5.533 -0.6281 -0.4617  0.2383
  135OSM   H12S14677   1.095   4.800   5.517 -1.7511  0.5136  0.1536
  135OSM   H12T14678   1.267   4.850   5.494 -0.4371  0.3594  0.0283
  135OSM   C13S14679   1.124   5.000   5.442 -0.1220 -0.0257  0.1598
  135OSM   H13S14680   1.194   5.087   5.440 -1.8846  1.4430 -1.1671
  135OSM   H13T14681   1.028   5.046   5.474 -0.3228 -0.1233 -0.2887
  135OSM   C14S14682   1.098   4.948   5.296 -0.1297 -0.3608  0.7940
  135OSM   H14S14683   1.038   4.855   5.290  0.3817 -0.6347 -0.0237
  135OSM   H14T14684   1.198   4.926   5.255 -0.0165 -0.4819  1.1282
  135OSM   C15S14685   1.029   5.054   5.208 -0.9063  0.2392 -1.2031
  135OSM   H15S14686   1.100   5.139   5.200  1.9625 -2.0901 -2.3071
  135OSM   H15T14687   0.935   5.091   5.254 -1.1138 -1.8885  0.2201
  135OSM   C16S14688   1.019   5.009   5.063 -0.6283  0.5360  0.2535
  135OSM   H16S14689   1.040   5.104   5.009 -0.7816  0.0738 -0.6486
  135OSM   H16T14690   0.919   4.975   5.029  0.2204  0.0805 -1.9755
  135OSM   C17S14691   1.104   4.889   5.016 -0.4221  0.2844  0.1425
  135OSM   H17S14692   1.076   4.802   5.079  0.5698  0.0991  0.3334
  135OSM   H17T14693   1.212   4.912   5.029 -0.8903  2.9117  0.0378
  135OSM   C18S14694   1.070   4.849   4.870  0.0585 -0.0887  0.0599
  135OSM   H18S14695   1.106   4.749   4.838 -0.5125 -0.3246  0.1516
  135OSM   H18T14696   1.110   4.925   4.798 -2.0965  2.6755  1.5795
  135OSM   H18U14697   0.961   4.840   4.853 -0.0206  0.1706  0.4261
  135OSM    C1F14698   1.829   4.587   6.513 -0.1109 -0.3729 -0.4809
  135OSM     OF14699   1.801   4.507   6.606 -0.2563  0.3498  0.4918
  135OSM    C2F14700   1.956   4.586   6.440 -0.0384  0.4917  0.4214
  135OSM    H2F14701   2.001   4.687   6.438  0.2767  0.3887  1.4861
  135OSM    H2G14702   1.930   4.556   6.336  1.0320  1.8714 -0.2885
  135OSM    C3F14703   2.053   4.479   6.496  0.0064 -0.8564 -0.4302
  135OSM    H3F14704   2.058   4.475   6.607 -2.0780  1.4824 -0.1728
  135OSM    H3G14705   2.151   4.517   6.461  0.0055  0.7471  1.1531
  135OSM    C4F14706   2.011   4.331   6.457 -0.0787 -0.4215  0.6172
  135OSM    H4F14707   2.059   4.265   6.532 -0.2382 -0.1106  0.9952
  135OSM    H4G14708   1.900   4.321   6.462  0.0966 -2.2023  1.6822
  135OSM    C5F14709   2.054   4.291   6.314  0.3892 -0.0801 -0.1365
  135OSM    H5F14710   2.165   4.302   6.308  0.3255 -0.2760 -2.9617
  135OSM    H5G14711   2.010   4.366   6.246  0.5229  0.8791  0.8151
  135OSM    C6F14712   2.021   4.144   6.283 -0.0677 -0.5338  0.0977
  135OSM    H6F14713   1.910   4.145   6.277 -0.1660  3.8125 -0.0634
  135OSM    H6G14714   2.064   4.072   6.356 -1.1131 -1.3005 -0.0208
  135OSM    C7F14715   2.067   4.107   6.139  0.3914  0.3996  0.4932
  135OSM    H7F14716   2.170   4.147   6.131  0.0064  1.2770 -0.3900
  135OSM    H7G14717   1.999   4.157   6.066  0.9968 -0.1238 -0.4534
  135OSM    C8F14718   2.059   3.955   6.115  0.1033  0.1921  0.2995
  135OSM    H8F14719   2.119   3.903   6.193  2.4940  3.3243  0.7629
  135OSM    H8G14720   2.109   3.933   6.018  0.2683  2.3064 -0.1611
  135OSM    C9F14721   1.923   3.895   6.091 -0.0955 -0.2978 -1.0115
  135OSM    H9F14722   1.891   3.832   6.175 -2.7077 -0.0191 -1.7169
  135OSM   C10F14723   1.844   3.909   5.984 -0.0613 -0.6277  0.4070
  135OSM   H10F14724   1.740   3.872   5.989 -0.6073  0.9863  1.9787
  135OSM   C11F14725   1.863   3.998   5.863  0.0430  0.5054  0.0168
  135OSM   H11F14726   1.936   4.078   5.887  1.3685 -0.8433  0.6224
  135OSM   H11G14727   1.765   4.045   5.838 -0.7616 -0.5236  1.1199
  135OSM   C12F14728   1.908   3.921   5.736  0.3323  0.2719 -0.5529
  135OSM   H12F14729   1.911   3.987   5.647  0.9872 -0.5064 -1.1140
  135OSM   H12G14730   1.836   3.839   5.715 -0.3299  0.7145 -0.0601
  135OSM   C13F14731   2.041   3.855   5.756  0.9149 -0.9115 -0.0903
  135OSM   H13F14732   2.044   3.781   5.839  2.1638 -2.9813 -1.8540
  135OSM   H13G14733   2.112   3.939   5.768 -0.6349  0.1884  1.9055
  135OSM   C14F14734   2.084   3.783   5.630  0.0255  0.0937  0.3429
  135OSM   H14F14735   2.110   3.855   5.551  0.5962  0.0847  0.5233
  135OSM   H14G14736   1.990   3.736   5.591 -1.6779  2.2139  1.6598
  135OSM   C15F14737   2.207   3.686   5.646  0.6273  0.1639  0.0188
  135OSM   H15F14738   2.167   3.628   5.731 -0.1718 -0.0147 -0.4718
  135OSM   H15G14739   2.291   3.752   5.676  0.0924  2.2289 -2.6373
  135OSM   C16F14740   2.243   3.598   5.524  0.3764 -0.0022  0.4233
  135OSM   H16F14741   2.316   3.641   5.451  0.0042 -0.8493 -0.4688
  135OSM   H16G14742   2.145   3.584   5.475 -0.3696 -0.0055  1.8732
  135OSM   C17F14743   2.315   3.476   5.565 -0.0147  0.1034 -0.1880
  135OSM   H17F14744   2.261   3.447   5.658  0.9321  0.6938  0.5574
  135OSM   H17G14745   2.422   3.499   5.581  0.1099 -0.2078 -0.5374
  135OSM   C18F14746   2.305   3.364   5.456  0.3867  0.3054 -0.9921
  135OSM   H18F14747   2.365   3.271   5.465  0.9397  0.5601 -1.8736
  135OSM   H18G14748   2.328   3.407   5.356  1.7431  0.0842 -0.7951
  135OSM   H18H14749   2.198   3.334   5.456  0.1058  1.2771 -0.8429
  136OSM      N14750   4.372   2.289   7.453  0.5717 -0.5140 -0.2242
  136OSM    C1514751   4.405   2.167   7.368  0.3220  0.6151 -0.1067
  136OSM   H15A14752   4.452   2.192   7.273 -2.0156  3.2630 -0.7108
  136OSM   H15B14753   4.313   2.124   7.330  1.5395 -0.5210 -1.9609
  136OSM   H15C14754   4.460   2.089   7.418 -0.2854 -1.1657 -2.0544
  136OSM    C1414755   4.346   2.236   7.598 -0.2252 -0.7570  0.3319
  136OSM   H14A14756   4.281   2.150   7.598  0.4856 -1.4330  3.5720
  136OSM   H14B14757   4.314   2.321   7.657  0.7530  0.4051 -0.7434
  136OSM   H14C14758   4.433   2.197   7.648 -0.8418 -2.3012  0.2605
  136OSM    C1314759   4.485   2.389   7.450  0.0120  0.0355 -0.1907
  136OSM   H13A14760   4.467   2.466   7.523  0.3609 -0.4857  0.4575
  136OSM   H13B14761   4.495   2.429   7.350  0.5432  1.2607  0.3387
  136OSM   H13C14762   4.575   2.342   7.487 -0.4262 -0.5291  0.1849
  136OSM    C1214763   4.240   2.356   7.401  0.8278  0.8145  0.1027
  136OSM   H12A14764   4.259   2.382   7.298  0.0361  1.7614  0.1770
  136OSM   H12B14765   4.238   2.451   7.454 -0.8860  0.3585  0.9184
  136OSM    C1114766   4.107   2.283   7.422  0.4645  0.4434 -0.8303
  136OSM   H11A14767   4.034   2.340   7.360 -0.6116 -1.2169 -1.1717
  136OSM   H11B14768   4.073   2.288   7.528  0.0109 -1.2912 -0.8610
  136OSM      P14769   4.044   2.104   7.242 -0.1743  0.0235 -0.0128
  136OSM    O1314770   4.121   1.990   7.190  0.4861  0.3142 -0.4131
  136OSM    O1414771   3.904   2.071   7.272 -0.0439  0.5144 -0.2049
  136OSM    O1114772   4.056   2.230   7.146 -0.5182  0.4613 -0.2525
  136OSM    O1214773   4.117   2.144   7.377 -0.3261 -0.0814 -0.1479
  136OSM    C1S14774   4.171   2.250   7.058 -0.0990  0.3025  0.4450
  136OSM    H1S14775   4.247   2.183   7.103 -1.3639  0.8839  3.7261
  136OSM    H1T14776   4.200   2.356   7.068  2.3082 -0.2971  0.4036
  136OSM     NF14777   4.260   2.243   6.840  0.9713 -0.2115 -0.3239
  136OSM    HNF14778   4.264   2.323   6.781  0.7688 -0.0536 -0.1209
  136OSM    C2S14779   4.133   2.213   6.911 -0.8973 -0.1779  0.0836
  136OSM    H2S14780   4.110   2.104   6.908  0.4302 -0.4554 -0.6150
  136OSM    C3S14781   4.009   2.294   6.859 -0.1039  0.0323 -0.8326
  136OSM    H3S14782   4.033   2.399   6.884  1.2422 -0.3956 -0.2204
  136OSM     O314783   3.889   2.265   6.920 -0.0079  0.0796 -0.3651
  136OSM    HO314784   3.916   2.217   6.998 -2.5371  0.5061  0.8667
  136OSM    C4S14785   3.990   2.281   6.709  0.1983  0.0966  0.0106
  136OSM    H4S14786   4.077   2.329   6.662  0.5395 -1.7720 -1.4124
  136OSM    C5S14787   3.896   2.222   6.630 -0.0679 -0.0004  0.4015
  136OSM    H5S14788   3.816   2.168   6.684  1.0856 -2.2854 -0.0615
  136OSM    C6S14789   3.882   2.209   6.481 -0.2646  0.6518  0.5418
  136OSM    H6S14790   3.786   2.258   6.453  0.2377  1.3534 -0.0143
  136OSM    H6T14791   3.886   2.104   6.447  0.8919  0.1243  2.1959
  136OSM    C7S14792   3.994   2.283   6.402 -0.2327 -0.1030 -0.2009
  136OSM    H7S14793   4.095   2.240   6.416 -0.0412  0.5593  0.5854
  136OSM    H7T14794   3.996   2.387   6.443  0.1228  0.2491 -1.0894
  136OSM    C8S14795   3.963   2.278   6.256 -0.0013  0.0435 -0.0660
  136OSM    H8S14796   3.869   2.332   6.234  0.6384  0.6781 -1.3501
  136OSM    H8T14797   3.933   2.175   6.227  0.1570 -0.1396  0.4023
  136OSM    C9S14798   4.088   2.311   6.170 -0.3099 -0.1985 -1.1907
  136OSM    H9S14799   4.148   2.217   6.173 -0.3229 -0.1909  0.8050
  136OSM    H9T14800   4.147   2.392   6.218 -1.2981  0.3047 -0.8122
  136OSM   C10S14801   4.044   2.353   6.024 -0.0563  0.6445 -0.3064
  136OSM   H10S14802   3.979   2.443   6.020 -1.0443  0.0802  1.8915
  136OSM   H10T14803   3.997   2.269   5.968 -0.5629  0.2715  0.6701
  136OSM   C11S14804   4.171   2.382   5.942 -0.0757 -0.9782  0.1858
  136OSM   H11S14805   4.247   2.317   5.989 -0.0600  0.6788  2.5959
  136OSM   H11T14806   4.206   2.487   5.945 -0.4335 -0.7004 -2.4982
  136OSM   C12S14807   4.168   2.332   5.795  0.1939 -0.1840  0.0126
  136OSM   H12S14808   4.153   2.222   5.798 -0.5350 -0.1052 -0.4493
  136OSM   H12T14809   4.265   2.358   5.749 -0.2136  0.1361 -0.6809
  136OSM   C13S14810   4.058   2.380   5.700  0.3220  0.7761 -0.6050
  136OSM   H13S14811   4.050   2.491   5.707 -0.0837  0.7386 -0.3977
  136OSM   H13T14812   3.959   2.339   5.731  1.2211 -0.3737  0.8808
  136OSM   C14S14813   4.086   2.339   5.555  0.1699 -0.1823  0.5375
  136OSM   H14S14814   3.999   2.344   5.485  1.3987 -0.8361 -1.1119
  136OSM   H14T14815   4.104   2.229   5.554 -1.0493 -0.3954  0.0189
  136OSM   C15S14816   4.196   2.425   5.491 -0.3465  0.1316  0.0131
  136OSM   H15S14817   4.295   2.405   5.539 -0.7216 -0.0204  0.7428
  136OSM   H15T14818   4.180   2.533   5.512  2.8279  0.8548 -0.7697
  136OSM   C16S14819   4.218   2.388   5.343 -0.3584  0.1637 -0.2562
  136OSM   H16S14820   4.128   2.385   5.277  0.4049 -0.0679 -1.3097
  136OSM   H16T14821   4.257   2.285   5.331  1.2317  0.9600 -2.7407
  136OSM   C17S14822   4.324   2.485   5.282  0.2403 -0.0693  0.6738
  136OSM   H17S14823   4.419   2.485   5.340  2.2689  0.4121 -2.4247
  136OSM   H17T14824   4.277   2.584   5.300 -1.4963 -0.8749  0.7333
  136OSM   C18S14825   4.338   2.457   5.132  0.3940 -0.7568  0.0200
  136OSM   H18S14826   4.366   2.354   5.100  0.5231 -0.5531 -0.5384
  136OSM   H18T14827   4.420   2.512   5.081  0.2462 -3.5581 -3.6707
  136OSM   H18U14828   4.241   2.479   5.081  1.4347  0.4285 -1.5630
  136OSM    C1F14829   4.372   2.174   6.849  0.4027 -0.1954 -0.3370
  136OSM     OF14830   4.375   2.079   6.928  0.6712  0.1465  0.2943
  136OSM    C2F14831   4.484   2.233   6.771  0.3010 -0.0933  0.6517
  136OSM    H2F14832   4.467   2.342   6.758 -2.6705 -0.4631  0.6133
  136OSM    H2G14833   4.474   2.185   6.671  2.2710 -1.6369  1.1186
  136OSM    C3F14834   4.628   2.230   6.829 -0.0888  0.1316  0.4487
  136OSM    H3F14835   4.648   2.132   6.878  0.6107  0.0824  0.0824
  136OSM    H3G14836   4.631   2.315   6.900 -1.0160  1.9985 -1.6121
  136OSM    C4F14837   4.752   2.246   6.725  0.2111 -0.1841 -0.8930
  136OSM    H4F14838   4.744   2.161   6.654  2.5390  0.5767 -2.1466
  136OSM    H4G14839   4.850   2.239   6.777  1.8590  2.0954 -3.4737
  136OSM    C5F14840   4.760   2.377   6.639  0.7427  0.4906  0.2083
  136OSM    H5F14841   4.745   2.471   6.695  0.6187  1.5456 -1.5085
  136OSM    H5G14842   4.670   2.374   6.574  1.1916  0.2847 -0.4221
  136OSM    C6F14843   4.892   2.383   6.562  0.2708  0.5341 -0.0622
  136OSM    H6F14844   4.976   2.402   6.633  1.9521 -0.2659 -1.7442
  136OSM    H6G14845   4.887   2.473   6.497  1.3974  1.1346  0.6407
  136OSM    C7F14846   4.945   2.254   6.498  0.2610  0.3404  0.0560
  136OSM    H7F14847   4.931   2.173   6.572  0.2155  0.1818 -0.1229
  136OSM    H7G14848   5.056   2.251   6.494  0.3500  0.3008  1.8471
  136OSM    C8F14849   4.871   2.216   6.370  0.5472 -0.4243 -0.9617
  136OSM    H8F14850   4.760   2.208   6.365  0.5911 -1.8674  0.0370
  136OSM    H8G14851   4.888   2.108   6.353  0.0183 -0.5570 -0.6672
  136OSM    C9F14852   4.927   2.303   6.261  0.4401  0.4099  0.1338
  136OSM    H9F14853   4.892   2.407   6.257 -1.1181 -0.1197 -0.6178
  136OSM   C10F14854   5.011   2.258   6.162  0.5224  0.6157  0.3027
  136OSM   H10F14855   5.034   2.322   6.076 -1.3839  2.0462  0.7884
  136OSM   C11F14856   5.074   2.118   6.157 -0.7725 -0.0214  0.0521
  136OSM   H11F14857   5.000   2.041   6.187 -0.6992 -1.0449 -2.1724
  136OSM   H11G14858   5.156   2.115   6.232 -2.5776  0.4012  2.1346
  136OSM   C12F14859   5.129   2.082   6.012 -0.6028  0.3564 -0.3005
  136OSM   H12F14860   5.193   1.991   6.013  1.6482  1.8344 -1.1163
  136OSM   H12G14861   5.202   2.158   5.975  1.0960 -0.7661  0.6088
  136OSM   C13F14862   5.020   2.061   5.900 -0.0431 -0.6941  0.3129
  136OSM   H13F14863   4.970   2.157   5.876  0.7832 -0.2294  0.4209
  136OSM   H13G14864   4.946   1.988   5.939 -1.9417  0.6614 -0.5604
  136OSM   C14F14865   5.091   2.012   5.774 -0.1580  0.0861 -0.6053
  136OSM   H14F14866   5.172   1.944   5.806  1.2167  2.9117  2.5481
  136OSM   H14G14867   5.124   2.107   5.726  1.2000  0.7464  1.4936
  136OSM   C15F14868   4.999   1.931   5.687  0.3821  0.5587  0.0605
  136OSM   H15F14869   4.904   1.989   5.681  0.8823  1.5536  1.2730
  136OSM   H15G14870   4.971   1.838   5.741 -0.2496  1.7108  1.7897
  136OSM   C16F14871   5.060   1.916   5.545 -0.2677  0.2201  0.3832
  136OSM   H16F14872   5.153   1.857   5.558 -0.5858  0.0174  1.9482
  136OSM   H16G14873   5.100   2.015   5.514 -0.7827  0.1309 -0.5932
  136OSM   C17F14874   4.969   1.850   5.448 -0.0172 -0.5166  0.3032
  136OSM   H17F14875   4.876   1.909   5.438 -1.4545 -2.4673  1.4511
  136OSM   H17G14876   4.923   1.756   5.485  1.0180 -1.1690 -0.0172
  136OSM   C18F14877   5.041   1.827   5.315 -0.3464  0.1714 -0.3307
  136OSM   H18F14878   5.061   1.929   5.277  0.6604  0.1358  0.0612
  136OSM   H18G14879   4.977   1.764   5.250 -0.5217 -0.2917  0.2792
  136OSM   H18H14880   5.139   1.776   5.325 -0.0744  0.6160 -0.7076
  137OSM      N14881   0.926   4.639   7.544  0.1453  0.5704 -0.6050
  137OSM    C1514882   0.834   4.520   7.510  0.5466 -0.0350 -0.2512
  137OSM   H15A14883   0.879   4.428   7.545 -0.4006  0.0370  1.2760
  137OSM   H15B14884   0.822   4.507   7.404  1.8088 -2.2545 -0.1846
  137OSM   H15C14885   0.738   4.546   7.551 -0.4078 -0.9133 -1.8305
  137OSM    C1414886   0.846   4.760   7.493  0.3054 -0.6274 -0.0691
  137OSM   H14A14887   0.740   4.754   7.513  0.2111  1.4642  0.2281
  137OSM   H14B14888   0.850   4.760   7.385  1.1925  1.4381 -0.0655
  137OSM   H14C14889   0.878   4.853   7.538  0.2869 -1.1623  1.0784
  137OSM    C1314890   0.943   4.643   7.691  0.4385  0.2617  0.1722
  137OSM   H13A14891   0.974   4.547   7.730 -2.7191 -0.9962 -0.1164
  137OSM   H13B14892   0.845   4.659   7.734  0.4886  0.0875  0.3515
  137OSM   H13C14893   1.015   4.721   7.712  0.6511  0.6272 -1.7583
  137OSM    C1214894   1.056   4.644   7.472 -0.0861 -0.1193 -0.0781
  137OSM   H12A14895   1.120   4.561   7.498 -1.0550 -0.6851  0.5446
  137OSM   H12B14896   1.118   4.727   7.504  0.5133  0.0670 -1.6240
  137OSM    C1114897   1.064   4.647   7.316 -0.5956  0.0700 -0.2289
  137OSM   H11A14898   0.988   4.568   7.297 -0.0292 -0.5161 -0.0860
  137OSM   H11B14899   1.165   4.619   7.281  0.0997 -0.3261  1.9359
  137OSM      P14900   1.092   4.906   7.295 -0.7078  0.2454 -0.3920
  137OSM    O1314901   0.992   5.000   7.348 -0.3435  0.5197  0.3706
  137OSM    O1414902   1.210   4.871   7.382 -0.0318  0.2097  0.5397
  137OSM    O1114903   1.145   4.958   7.154  0.0741 -0.3350 -0.0103
  137OSM    O1214904   1.017   4.776   7.267 -0.0703  0.2578  0.6379
  137OSM    C1S14905   1.162   4.855   7.049  0.0401  0.2259  0.5655
  137OSM    H1S14906   1.193   4.753   7.080  1.9478  0.3086 -0.9249
  137OSM    H1T14907   1.256   4.890   7.001 -0.5648  1.6481  0.3611
  137OSM     NF14908   1.105   4.766   6.821  0.3187  0.0534 -0.2879
  137OSM    HNF14909   1.123   4.814   6.736 -0.5008 -1.0612 -1.1059
  137OSM    C2S14910   1.054   4.852   6.931  0.0018  0.5073  0.8657
  137OSM    H2S14911   0.961   4.816   6.981  0.2656  0.6049  1.4337
  137OSM    C3S14912   1.010   4.985   6.882  0.8627 -0.8070 -0.4754
  137OSM    H3S14913   1.094   5.033   6.827  0.4965  1.2379  0.6416
  137OSM     O314914   0.985   5.090   6.980  0.4040  0.1275  0.4165
  137OSM    HO314915   1.037   5.063   7.056  2.0245 -1.6261 -1.2005
  137OSM    C4S14916   0.897   4.982   6.782  0.0232  0.2902  0.2118
  137OSM    H4S14917   0.930   4.943   6.685  0.7154  0.9749  0.1633
  137OSM    C5S14918   0.762   5.014   6.806 -0.7696 -0.3752 -1.0987
  137OSM    H5S14919   0.734   5.038   6.910 -0.2667 -0.4732 -0.9337
  137OSM    C6S14920   0.646   5.016   6.713 -0.1540 -0.7526 -0.5467
  137OSM    H6S14921   0.648   5.120   6.673  1.0259 -0.0148  1.2729
  137OSM    H6T14922   0.550   4.997   6.766  0.6628 -0.6381  1.0613
  137OSM    C7S14923   0.648   4.920   6.591  0.7713 -0.1503  0.4365
  137OSM    H7S14924   0.641   4.818   6.632 -1.4349 -1.0203 -1.8627
  137OSM    H7T14925   0.745   4.931   6.538 -0.6473 -0.0723 -2.3016
  137OSM    C8S14926   0.541   4.956   6.488  0.0485 -0.0680 -0.3464
  137OSM    H8S14927   0.551   5.067   6.490 -0.8715  0.0446 -1.1849
  137OSM    H8T14928   0.441   4.942   6.533  0.3370 -2.3666 -0.2897
  137OSM    C9S14929   0.552   4.884   6.349 -0.8884  0.2776  0.4016
  137OSM    H9S14930   0.565   4.774   6.358  0.9677  0.5196  1.1946
  137OSM    H9T14931   0.647   4.924   6.308  0.3181 -1.0657  1.7522
  137OSM   C10S14932   0.444   4.920   6.254 -0.0324  0.0981  0.2802
  137OSM   H10S14933   0.431   5.030   6.258 -0.8291  0.0146  0.0809
  137OSM   H10T14934   0.346   4.886   6.292  0.2376 -1.6086 -0.4873
  137OSM   C11S14935   0.461   4.860   6.113 -0.5497 -0.2881 -0.5307
  137OSM   H11S14936   0.478   4.751   6.120  0.0047 -0.2922 -1.6800
  137OSM   H11T14937   0.553   4.913   6.080 -0.2265  1.6626  3.0404
  137OSM   C12S14938   0.361   4.885   6.002  0.7795 -0.0560 -0.0239
  137OSM   H12S14939   0.314   4.986   5.995 -1.6227 -0.8638  2.5288
  137OSM   H12T14940   0.287   4.803   6.014  2.6202 -1.8782 -0.6874
  137OSM   C13S14941   0.431   4.855   5.868  0.1501  0.1260 -0.4075
  137OSM   H13S14942   0.457   4.749   5.884 -0.5520  0.0282  0.1211
  137OSM   H13T14943   0.519   4.921   5.848 -1.1468  1.8894 -0.5871
  137OSM   C14S14944   0.347   4.865   5.741  0.1274  0.2321 -0.2021
  137OSM   H14S14945   0.242   4.831   5.749  0.2618 -0.6961 -1.7885
  137OSM   H14T14946   0.374   4.799   5.655  0.8944 -1.2858  1.1494
  137OSM   C15S14947   0.336   5.008   5.691  0.1887 -0.1514  0.2829
  137OSM   H15S14948   0.437   5.054   5.689  0.6494 -1.1248  1.0134
  137OSM   H15T14949   0.282   5.075   5.761  0.0897 -0.6516  0.6805
  137OSM   C16S14950   0.285   5.036   5.548 -0.3334 -0.1684 -0.0012
  137OSM   H16S14951   0.185   4.989   5.537 -0.1621 -0.5382  0.0117
  137OSM   H16T14952   0.352   4.979   5.479  0.0116  0.5362 -0.2600
  137OSM   C17S14953   0.278   5.176   5.507 -0.1123 -0.3556  0.6272
  137OSM   H17S14954   0.263   5.192   5.399 -1.6550 -0.2513  0.8309
  137OSM   H17T14955   0.371   5.227   5.540  0.0221  2.1024 -3.0626
  137OSM   C18S14956   0.147   5.237   5.567 -0.4802 -0.4869  0.2084
  137OSM   H18S14957   0.064   5.171   5.533  0.1817 -1.8516  1.1788
  137OSM   H18T14958   0.125   5.341   5.533 -1.2768 -1.3278 -2.0326
  137OSM   H18U14959   0.145   5.244   5.677  0.4987 -0.0430  0.2079
  137OSM    C1F14960   1.129   4.631   6.828 -0.7652  0.8467 -0.4531
  137OSM     OF14961   1.084   4.565   6.927 -0.0921 -0.6593  0.2398
  137OSM    C2F14962   1.206   4.569   6.710 -0.1602 -0.5412  0.4712
  137OSM    H2F14963   1.293   4.635   6.692 -0.2241 -0.6010 -0.0611
  137OSM    H2G14964   1.141   4.568   6.619 -0.9092  3.4829  0.7981
  137OSM    C3F14965   1.264   4.429   6.737  0.5141  0.0154 -0.1910
  137OSM    H3F14966   1.179   4.359   6.750  0.1347  0.5731  0.3869
  137OSM    H3G14967   1.317   4.442   6.834  2.2133  0.6431 -1.1680
  137OSM    C4F14968   1.369   4.377   6.644  0.1542 -0.1458 -0.1193
  137OSM    H4F14969   1.417   4.286   6.684 -0.2893  0.1479  1.1021
  137OSM    H4G14970   1.451   4.449   6.620 -0.6153  0.3714 -1.3144
  137OSM    C5F14971   1.308   4.349   6.512 -0.9081  0.4536  0.4471
  137OSM    H5F14972   1.236   4.419   6.465  1.9083  2.4557 -1.1890
  137OSM    H5G14973   1.256   4.250   6.516  1.5604 -0.8865  1.1332
  137OSM    C6F14974   1.414   4.339   6.398 -0.4436  0.2605  0.1247
  137OSM    H6F14975   1.499   4.279   6.437  0.4097  0.1590 -1.8088
  137OSM    H6G14976   1.461   4.439   6.386 -0.3295  0.1906 -0.0061
  137OSM    C7F14977   1.349   4.286   6.267 -0.9344  0.1883  0.1681
  137OSM    H7F14978   1.257   4.348   6.260 -0.4559  0.7325 -1.8650
  137OSM    H7G14979   1.323   4.182   6.297  0.5229 -0.6882 -1.4112
  137OSM    C8F14980   1.419   4.302   6.134 -0.2904  0.6005  0.0859
  137OSM    H8F14981   1.429   4.406   6.097 -1.2399  0.5099 -0.4475
  137OSM    H8G14982   1.370   4.241   6.056  0.1532  0.9906 -0.5068
  137OSM    C9F14983   1.555   4.244   6.153 -0.6113  0.0072  0.2734
  137OSM    H9F14984   1.545   4.150   6.209 -2.1701  0.4284  0.7523
  137OSM   C10F14985   1.676   4.298   6.134 -0.8582  0.3943 -0.7033
  137OSM   H10F14986   1.771   4.245   6.146 -2.0741 -1.5917  0.6265
  137OSM   C11F14987   1.714   4.434   6.081 -0.1153  0.8967 -0.2705
  137OSM   H11F14988   1.795   4.479   6.141  1.2469 -1.3989 -0.2887
  137OSM   H11G14989   1.619   4.492   6.088 -1.1745 -0.3794 -2.6182
  137OSM   C12F14990   1.763   4.431   5.933 -0.3511 -0.1122 -0.1642
  137OSM   H12F14991   1.845   4.357   5.941 -0.2956  0.0453  0.7953
  137OSM   H12G14992   1.810   4.524   5.896 -0.9873  0.0710 -0.5245
  137OSM   C13F14993   1.667   4.364   5.832 -0.0084 -0.8554  0.0621
  137OSM   H13F14994   1.574   4.421   5.811  2.0656  2.4509 -0.8572
  137OSM   H13G14995   1.642   4.263   5.870  0.7734 -0.6001  1.3222
  137OSM   C14F14996   1.729   4.354   5.690 -1.0318  0.7551 -0.9198
  137OSM   H14F14997   1.827   4.302   5.691 -1.4752 -0.1024 -0.2108
  137OSM   H14G14998   1.757   4.456   5.655 -1.2996  1.1765  0.0569
  137OSM   C15F14999   1.643   4.291   5.582 -0.3651  0.1274  0.3559
  137OSM   H15F15000   1.549   4.346   5.561 -0.4670 -0.9459 -2.4692
  137OSM   H15G15001   1.601   4.199   5.629  0.7901 -0.0900  1.0076
  137OSM   C16F15002   1.725   4.257   5.455 -0.0863  0.1389  0.0967
  137OSM   H16F15003   1.667   4.203   5.377  1.4602  0.4195 -1.3241
  137OSM   H16G15004   1.809   4.188   5.481  2.1293  0.6932 -4.4872
  137OSM   C17F15005   1.780   4.383   5.383 -0.0317 -0.2518  0.5200
  137OSM   H17F15006   1.865   4.418   5.444  0.2334 -3.1253  1.9665
  137OSM   H17G15007   1.698   4.457   5.380 -0.4246 -0.6606 -2.5355
  137OSM   C18F15008   1.847   4.356   5.245 -0.6397 -0.2031  0.4873
  137OSM   H18F15009   1.920   4.272   5.249 -0.6578 -0.3060 -0.9944
  137OSM   H18G15010   1.900   4.446   5.210 -0.2707  0.8316  3.3902
  137OSM   H18H15011   1.772   4.337   5.166  1.1490  2.4664 -2.0242
  138OSM      N15012   3.671   5.351   6.814  0.6774  0.3490  0.5948
  138OSM    C1515013   3.555   5.442   6.803  0.0519 -0.1989 -0.6043
  138OSM   H15A15014   3.587   5.544   6.791 -0.9198  0.1750 -0.1774
  138OSM   H15B15015   3.500   5.436   6.896  0.6773 -0.9782 -0.2772
  138OSM   H15C15016   3.492   5.409   6.721 -0.8056 -3.0017  1.0415
  138OSM    C1415017   3.625   5.211   6.843 -0.3246  0.2092 -0.2952
  138OSM   H14A15018   3.546   5.178   6.777  1.0650 -2.9433 -0.5916
  138OSM   H14B15019   3.588   5.200   6.944 -2.0749  0.6910 -0.8446
  138OSM   H14C15020   3.709   5.146   6.826  0.7018  1.0341  1.3877
  138OSM    C1315021   3.741   5.346   6.684  0.7655  0.0867  0.7472
  138OSM   H13A15022   3.820   5.272   6.682  0.2690 -0.4560 -1.7543
  138OSM   H13B15023   3.787   5.441   6.662  1.1869 -0.0372  1.0724
  138OSM   H13C15024   3.674   5.329   6.601  1.4364  0.8854  0.0393
  138OSM    C1215025   3.757   5.404   6.926 -0.2238 -0.2444 -0.1607
  138OSM   H12A15026   3.836   5.334   6.949 -1.8470 -1.2793  2.9675
  138OSM   H12B15027   3.700   5.405   7.018 -1.0072  0.6386 -0.6334
  138OSM    C1115028   3.816   5.552   6.915 -0.2792  0.1485  0.4380
  138OSM   H11A15029   3.881   5.570   7.004 -1.2352  1.2485  0.9386
  138OSM   H11B15030   3.723   5.611   6.925  0.3961  1.5992 -1.4449
  138OSM      P15031   3.863   5.700   6.707  0.4372  0.2236  0.6077
  138OSM    O1315032   3.723   5.700   6.644 -0.7270  0.0702 -0.6876
  138OSM    O1415033   3.903   5.820   6.785  0.3642 -0.0147 -0.3310
  138OSM    O1115034   3.965   5.696   6.583  0.4601 -0.6077  0.6823
  138OSM    O1215035   3.881   5.571   6.790  0.4938 -0.3448  0.0761
  138OSM    C1S15036   4.051   5.580   6.556  0.8660  0.4399  0.1774
  138OSM    H1S15037   4.007   5.487   6.598  0.5513  0.3987 -0.2396
  138OSM    H1T15038   4.146   5.599   6.610  0.5984 -1.7932  1.5439
  138OSM     NF15039   4.140   5.431   6.394 -0.2450 -0.1452  0.3934
  138OSM    HNF15040   4.236   5.437   6.369 -0.8003  1.1059 -1.7271
  138OSM    C2S15041   4.070   5.558   6.409 -0.2370  0.3718  0.3674
  138OSM    H2S15042   3.970   5.547   6.362 -0.2456 -1.2094  0.7011
  138OSM    C3S15043   4.133   5.683   6.338 -0.0131 -0.0935 -0.0149
  138OSM    H3S15044   4.230   5.712   6.384  0.4296 -1.9561  0.2851
  138OSM     O315045   4.050   5.798   6.352  0.2088 -0.3305  1.2915
  138OSM    HO315046   3.975   5.771   6.405 -0.6598 -2.0548 -0.6419
  138OSM    C4S15047   4.167   5.663   6.192  0.0752 -0.2114  0.3266
  138OSM    H4S15048   4.266   5.617   6.178 -0.3010 -0.5090 -1.7621
  138OSM    C5S15049   4.091   5.690   6.082 -0.8442 -0.1638  0.2540
  138OSM    H5S15050   3.994   5.740   6.094 -1.1065  0.1004 -2.4070
  138OSM    C6S15051   4.130   5.660   5.937  0.4190 -0.1098 -0.5441
  138OSM    H6S15052   4.173   5.752   5.892  0.7331 -1.1419 -2.4508
  138OSM    H6T15053   4.033   5.647   5.884  0.2570 -0.5123 -0.1595
  138OSM    C7S15054   4.218   5.537   5.901  0.4139 -0.1780 -0.8132
  138OSM    H7S15055   4.162   5.441   5.915  2.3895 -1.2491  0.2615
  138OSM    H7T15056   4.294   5.522   5.980 -0.2780 -1.8657 -0.4142
  138OSM    C8S15057   4.266   5.539   5.755  1.2155 -0.0771  0.5408
  138OSM    H8S15058   4.318   5.442   5.738 -1.6036 -1.3269 -1.7303
  138OSM    H8T15059   4.342   5.619   5.747  2.6425 -1.2939  1.4168
  138OSM    C9S15060   4.161   5.550   5.645 -0.2722 -0.2712  0.6384
  138OSM    H9S15061   4.089   5.634   5.656  1.2723  1.5765 -2.0629
  138OSM    H9T15062   4.090   5.465   5.652 -1.4151  0.6167  0.2546
  138OSM   C10S15063   4.220   5.560   5.502 -0.1781 -0.3179  0.4736
  138OSM   H10S15064   4.300   5.483   5.490 -0.4539 -0.6933  1.0104
  138OSM   H10T15065   4.274   5.657   5.493 -0.9712  0.1458  0.6375
  138OSM   C11S15066   4.119   5.540   5.390  0.2731  0.1557  0.5627
  138OSM   H11S15067   4.066   5.637   5.393 -0.6319 -0.2793 -0.8106
  138OSM   H11T15068   4.040   5.466   5.416 -0.9384  0.7151 -1.3680
  138OSM   C12S15069   4.176   5.522   5.252  0.0364  0.4304  0.2914
  138OSM   H12S15070   4.208   5.417   5.241  0.7667  0.8522 -2.3797
  138OSM   H12T15071   4.263   5.592   5.240  0.3404  0.0618  0.3384
  138OSM   C13S15072   4.079   5.557   5.130 -0.0433 -0.3758 -0.1911
  138OSM   H13S15073   4.064   5.665   5.148  0.1097 -0.2498 -0.8220
  138OSM   H13T15074   3.980   5.506   5.130 -0.6984  0.8432 -1.1374
  138OSM   C14S15075   4.132   5.539   4.988  0.3973  0.0797 -0.7298
  138OSM   H14S15076   4.234   5.578   4.972  0.0359  1.0964 -0.5951
  138OSM   H14T15077   4.062   5.584   4.915  0.8263  1.6572 -0.2053
  138OSM   C15S15078   4.134   5.390   4.948  0.5423  0.2522  1.2326
  138OSM   H15S15079   4.039   5.348   4.988  0.8237 -3.1140 -1.2062
  138OSM   H15T15080   4.213   5.334   5.002 -0.1901 -2.1418 -0.0420
  138OSM   C16S15081   4.157   5.368   4.801  0.1873  0.6249  0.3038
  138OSM   H16S15082   4.240   5.432   4.765  0.0899  1.5538  1.6549
  138OSM   H16T15083   4.081   5.415   4.734 -0.1975 -0.3189  0.0525
  138OSM   C17S15084   4.184   5.224   4.756  0.9332  0.3598 -0.0497
  138OSM   H17S15085   4.289   5.204   4.787  0.7662 -0.1570  0.2086
  138OSM   H17T15086   4.173   5.219   4.646  1.6049  0.0209 -0.1055
  138OSM   C18S15087   4.072   5.125   4.806 -0.1664 -0.4766  1.0382
  138OSM   H18S15088   3.982   5.171   4.852 -1.0396 -1.6776  0.5823
  138OSM   H18T15089   4.097   5.041   4.874 -2.9459 -1.6572  0.7432
  138OSM   H18U15090   4.041   5.085   4.707  0.8740 -1.4565  1.0818
  138OSM    C1F15091   4.083   5.313   6.402  0.7554 -0.4386 -0.1424
  138OSM     OF15092   3.962   5.303   6.416 -0.0065 -0.5454  0.9500
  138OSM    C2F15093   4.175   5.196   6.393  0.0958  0.4958 -0.0400
  138OSM    H2F15094   4.152   5.128   6.478  0.4001 -1.4457 -1.4434
  138OSM    H2G15095   4.280   5.229   6.407  0.0104  0.7765 -0.0513
  138OSM    C3F15096   4.152   5.107   6.266 -0.1030  0.1989  0.7158
  138OSM    H3F15097   4.044   5.084   6.256  0.3306 -1.4061 -0.7064
  138OSM    H3G15098   4.205   5.011   6.282  0.5320  0.2263 -1.0399
  138OSM    C4F15099   4.194   5.179   6.137  0.4817 -0.2668  1.1501
  138OSM    H4F15100   4.303   5.200   6.140  0.6657 -0.3158 -2.0756
  138OSM    H4G15101   4.132   5.269   6.119 -1.8486 -1.6612  1.7768
  138OSM    C5F15102   4.166   5.076   6.028 -0.7405  0.2540  0.4726
  138OSM    H5F15103   4.059   5.059   6.003 -1.2867 -0.1308  2.8796
  138OSM    H5G15104   4.212   4.978   6.054  0.5104  0.9257  0.8530
  138OSM    C6F15105   4.235   5.120   5.890 -0.2279  0.2237  0.2059
  138OSM    H6F15106   4.343   5.131   5.911 -0.0016  0.6093 -1.0861
  138OSM    H6G15107   4.185   5.214   5.859  2.2550  0.6265 -3.1448
  138OSM    C7F15108   4.216   5.014   5.785 -0.4676  0.2431  0.5373
  138OSM    H7F15109   4.109   4.985   5.779 -0.3967 -0.3054  1.6588
  138OSM    H7G15110   4.275   4.924   5.815 -0.7980 -0.6059 -1.2473
  138OSM    C8F15111   4.272   5.053   5.645 -0.1183  0.6206  0.4699
  138OSM    H8F15112   4.262   4.968   5.575  0.7383 -0.7433  1.9384
  138OSM    H8G15113   4.379   5.079   5.658  0.4315 -0.3674 -1.7377
  138OSM    C9F15114   4.197   5.168   5.591 -0.3873  0.0726  0.4379
  138OSM    H9F15115   4.215   5.259   5.649  0.2297 -0.2390  0.7512
  138OSM   C10F15116   4.124   5.176   5.481 -0.0273 -0.4058  0.5523
  138OSM   H10F15117   4.069   5.267   5.455  0.5406  0.2243  1.5087
  138OSM   C11F15118   4.079   5.065   5.389 -0.1924  0.9654  0.3042
  138OSM   H11F15119   3.968   5.056   5.386 -0.2147  0.3995  1.9695
  138OSM   H11G15120   4.111   4.967   5.432 -0.3301  0.0791 -1.4987
  138OSM   C12F15121   4.143   5.080   5.250 -0.0534 -0.1313 -0.8802
  138OSM   H12F15122   4.148   5.187   5.222 -0.3770 -0.3694 -1.8908
  138OSM   H12G15123   4.076   5.034   5.174 -1.8750  2.5406 -1.0378
  138OSM   C13F15124   4.292   5.030   5.240 -0.7841  0.2067 -1.1470
  138OSM   H13F15125   4.299   4.922   5.261  0.1657  0.7030  1.3385
  138OSM   H13G15126   4.346   5.089   5.317 -0.9671  0.5186 -1.2534
  138OSM   C14F15127   4.335   5.059   5.102  0.2275 -0.4410 -0.3137
  138OSM   H14F15128   4.364   5.166   5.091 -0.1862 -0.4594 -1.8728
  138OSM   H14G15129   4.258   5.029   5.028 -0.3675  1.9458 -0.7558
  138OSM   C15F15130   4.460   4.979   5.062 -0.0553 -0.0440  0.2650
  138OSM   H15F15131   4.432   4.872   5.070 -0.0961 -0.2444 -1.9646
  138OSM   H15G15132   4.538   4.995   5.140 -1.1694 -2.5735  2.0605
  138OSM   C16F15133   4.510   5.003   4.916 -0.7670 -0.6797 -0.0021
  138OSM   H16F15134   4.519   5.110   4.889  0.3547 -1.2037 -1.8439
  138OSM   H16G15135   4.442   4.957   4.841  0.0048  2.0459 -2.5537
  138OSM   C17F15136   4.655   4.946   4.888 -0.2266 -0.4949 -0.2863
  138OSM   H17F15137   4.646   4.835   4.884 -1.7335 -0.4317  0.4024
  138OSM   H17G15138   4.722   4.983   4.968 -2.0296 -0.7556  1.4399
  138OSM   C18F15139   4.700   4.977   4.742  0.6196  0.8774 -0.5190
  138OSM   H18F15140   4.756   5.073   4.746  0.4585  0.9940 -0.9509
  138OSM   H18G15141   4.618   4.995   4.669  0.6519  1.9972 -0.3001
  138OSM   H18H15142   4.771   4.904   4.697 -2.1588 -2.7529  0.5177
  139OSM      N15143   0.823   1.587   7.128 -0.3504  0.0259 -0.6253
  139OSM    C1515144   0.921   1.473   7.146 -0.1451 -0.2095 -0.4276
  139OSM   H15A15145   1.002   1.486   7.075 -0.5266 -0.0319 -0.8373
  139OSM   H15B15146   0.870   1.380   7.127  0.1276 -0.5270  0.3706
  139OSM   H15C15147   0.968   1.475   7.243 -0.7111 -1.3899 -0.1154
  139OSM    C1415148   0.896   1.715   7.152 -0.5340  0.2198  0.2340
  139OSM   H14A15149   0.911   1.729   7.258  0.3477  3.5914 -0.2322
  139OSM   H14B15150   0.842   1.793   7.101 -0.1205 -0.2806 -1.0175
  139OSM   H14C15151   0.996   1.725   7.112 -0.6328  0.4926  0.0555
  139OSM    C1315152   0.776   1.590   6.987  0.6605  0.1157 -0.1795
  139OSM   H13A15153   0.858   1.600   6.917  0.9169 -3.6621 -0.6369
  139OSM   H13B15154   0.715   1.678   6.972  0.7087  0.1800 -0.0060
  139OSM   H13C15155   0.726   1.501   6.953  1.7385 -0.0517 -1.4151
  139OSM    C1215156   0.709   1.572   7.229  0.2045 -0.0957 -0.3377
  139OSM   H12A15157   0.756   1.576   7.326  1.2004  1.7299 -0.8583
  139OSM   H12B15158   0.659   1.476   7.231  0.5892 -0.2863  1.5075
  139OSM    C1115159   0.616   1.698   7.236  0.3043  0.1347  0.4480
  139OSM   H11A15160   0.677   1.789   7.253 -1.4213  1.7490 -1.3460
  139OSM   H11B15161   0.552   1.682   7.325  0.7500 -0.7336  0.6183
  139OSM      P15162   0.416   1.641   7.071  0.1733 -0.0301 -0.0497
  139OSM    O1315163   0.417   1.503   7.133 -0.2187  0.3089  0.0236
  139OSM    O1415164   0.288   1.719   7.101  0.4238  0.1789 -0.1764
  139OSM    O1115165   0.446   1.631   6.918  0.2346 -0.4489 -0.1407
  139OSM    O1215166   0.538   1.722   7.120 -0.5088 -0.4991 -0.6774
  139OSM    C1S15167   0.412   1.730   6.821 -0.3104 -0.6100 -0.4673
  139OSM    H1S15168   0.449   1.832   6.845 -1.6075 -0.3382  0.4923
  139OSM    H1T15169   0.301   1.738   6.816 -0.1364  2.2278 -0.9709
  139OSM     NF15170   0.393   1.774   6.574  0.1300  0.4109  0.0484
  139OSM    HNF15171   0.316   1.730   6.528  1.1266 -0.6662 -0.6443
  139OSM    C2S15172   0.453   1.694   6.677 -0.5696 -0.1868  0.0645
  139OSM    H2S15173   0.560   1.723   6.668 -0.2967 -1.2849 -0.4856
  139OSM    C3S15174   0.442   1.533   6.664  0.0545  0.2092  0.3178
  139OSM    H3S15175   0.333   1.512   6.674 -0.5000  1.3584 -2.4860
  139OSM     O315176   0.505   1.454   6.758 -0.2683  0.2616 -0.5455
  139OSM    HO315177   0.510   1.508   6.837  2.9779 -1.0118  0.3202
  139OSM    C4S15178   0.466   1.483   6.520  0.1388  0.4573  0.3775
  139OSM    H4S15179   0.373   1.454   6.468 -0.5936  1.0200  1.3498
  139OSM    C5S15180   0.589   1.463   6.465 -0.6287  0.1933 -0.7021
  139OSM    H5S15181   0.672   1.502   6.527 -1.2082 -2.3847  1.9216
  139OSM    C6S15182   0.616   1.425   6.329  0.0464  0.8318  0.4603
  139OSM    H6S15183   0.659   1.322   6.324 -1.0818  0.4046 -1.3967
  139OSM    H6T15184   0.696   1.495   6.298  0.3055 -0.1542 -1.1880
  139OSM    C7S15185   0.500   1.426   6.229  0.8901  0.1362 -1.0605
  139OSM    H7S15186   0.455   1.528   6.233  0.9443  0.1311  0.2737
  139OSM    H7T15187   0.418   1.358   6.262 -0.9014  1.0764 -3.3089
  139OSM    C8S15188   0.539   1.402   6.083 -0.4420 -0.2337  0.3973
  139OSM    H8S15189   0.616   1.323   6.093  0.4770  0.7107  0.9590
  139OSM    H8T15190   0.589   1.496   6.052 -1.5379  0.9014  1.9049
  139OSM    C9S15191   0.433   1.365   5.981  0.4963  0.0507  0.1528
  139OSM    H9S15192   0.347   1.435   5.978 -0.4157 -0.9847  1.2212
  139OSM    H9T15193   0.387   1.268   6.008  0.5679 -0.2418 -0.7624
  139OSM   C10S15194   0.485   1.371   5.838  0.4939 -0.3443 -0.6931
  139OSM   H10S15195   0.569   1.300   5.822 -1.2706 -2.8648  0.5536
  139OSM   H10T15196   0.525   1.474   5.833  2.9429 -1.1538  0.6223
  139OSM   C11S15197   0.377   1.351   5.729 -0.6340  0.2131  0.1001
  139OSM   H11S15198   0.289   1.413   5.758 -1.4101 -1.5222  1.7167
  139OSM   H11T15199   0.342   1.246   5.741  0.5101 -0.0161  1.9109
  139OSM   C12S15200   0.427   1.374   5.590  0.2182  0.3728  0.1248
  139OSM   H12S15201   0.505   1.303   5.555  1.2638  0.0356  2.8801
  139OSM   H12T15202   0.480   1.471   5.596  1.1256 -0.1980  3.1181
  139OSM   C13S15203   0.317   1.366   5.487  0.4556  0.2022  0.0802
  139OSM   H13S15204   0.257   1.459   5.496  1.8075  0.9213  2.8589
  139OSM   H13T15205   0.261   1.271   5.500 -1.0013  0.9850 -0.2894
  139OSM   C14S15206   0.376   1.348   5.342 -0.1877  0.2062 -0.2736
  139OSM   H14S15207   0.437   1.255   5.340  1.6126  1.2485  1.8483
  139OSM   H14T15208   0.448   1.430   5.322 -0.6755  0.1498 -2.6255
  139OSM   C15S15209   0.274   1.340   5.232  0.2609 -0.1958 -0.1469
  139OSM   H15S15210   0.230   1.440   5.215 -1.9262 -0.9473  0.7070
  139OSM   H15T15211   0.187   1.276   5.261  0.6145 -1.1218 -1.0417
  139OSM   C16S15212   0.337   1.281   5.107 -0.8854  0.4093  1.0203
  139OSM   H16S15213   0.255   1.242   5.042 -0.3683  0.1777  0.5033
  139OSM   H16T15214   0.404   1.196   5.132  2.9381  3.0656  0.5814
  139OSM   C17S15215   0.416   1.384   5.028 -0.0912 -0.3520  0.1285
  139OSM   H17S15216   0.502   1.410   5.093 -1.0640  2.7257  0.3530
  139OSM   H17T15217   0.351   1.473   5.013 -0.4417 -0.8961 -1.9767
  139OSM   C18S15218   0.456   1.353   4.889  0.0647 -0.0856  0.0283
  139OSM   H18S15219   0.372   1.357   4.817 -1.9052  2.1368  2.2334
  139OSM   H18T15220   0.491   1.248   4.879 -1.8814 -1.0030  1.8978
  139OSM   H18U15221   0.529   1.433   4.864 -0.3019  1.5590  3.5405
  139OSM    C1F15222   0.432   1.900   6.551 -0.5061  0.0521 -0.2364
  139OSM     OF15223   0.531   1.942   6.610  0.0536 -0.2986  0.3315
  139OSM    C2F15224   0.354   1.995   6.462  1.2939 -0.0625 -0.2534
  139OSM    H2F15225   0.293   2.063   6.526 -1.6865 -1.1375 -1.7283
  139OSM    H2G15226   0.281   1.936   6.403 -1.0024  1.0629  1.3040
  139OSM    C3F15227   0.461   2.052   6.364 -0.1379  0.9743  0.5210
  139OSM    H3F15228   0.533   2.103   6.433  1.9121  0.3607 -1.0821
  139OSM    H3G15229   0.411   2.126   6.298  0.3681 -0.1385 -1.1700
  139OSM    C4F15230   0.531   1.949   6.273  0.0356  0.0675 -0.2657
  139OSM    H4F15231   0.601   1.888   6.334 -0.5001 -3.4046 -2.7664
  139OSM    H4G15232   0.591   2.009   6.201  0.1838 -0.6591 -0.7729
  139OSM    C5F15233   0.431   1.855   6.195 -0.2842 -0.0892  0.4123
  139OSM    H5F15234   0.354   1.922   6.151 -0.2861 -1.3177 -1.6138
  139OSM    H5G15235   0.381   1.780   6.260 -0.2873 -0.3636  0.0969
  139OSM    C6F15236   0.501   1.776   6.087  0.6498 -0.8727  0.8140
  139OSM    H6F15237   0.431   1.700   6.046  0.8416 -1.0219  0.7674
  139OSM    H6G15238   0.595   1.729   6.121  1.8673  2.5229  2.6495
  139OSM    C7F15239   0.539   1.859   5.961 -0.7536  0.0836 -0.2026
  139OSM    H7F15240   0.624   1.926   5.987  1.1991 -2.1109 -0.5922
  139OSM    H7G15241   0.452   1.927   5.943 -1.7752 -1.4864 -1.5138
  139OSM    C8F15242   0.571   1.783   5.832 -0.5437 -0.3145 -0.5518
  139OSM    H8F15243   0.649   1.705   5.841 -0.8532 -0.6223 -0.5313
  139OSM    H8G15244   0.614   1.866   5.772  0.2246  0.0169  0.4288
  139OSM    C9F15245   0.441   1.747   5.781  1.1308  0.2807  0.1050
  139OSM    H9F15246   0.390   1.665   5.834 -0.5516  0.8800 -0.5144
  139OSM   C10F15247   0.373   1.794   5.670  0.0973 -0.4824 -0.1322
  139OSM   H10F15248   0.264   1.782   5.667 -0.0602  0.7819 -0.0453
  139OSM   C11F15249   0.430   1.883   5.558 -0.2582 -0.1092 -0.1011
  139OSM   H11F15250   0.540   1.878   5.567 -0.2070 -0.5300 -0.8738
  139OSM   H11G15251   0.390   1.986   5.570  0.7944  0.3322 -0.2939
  139OSM   C12F15252   0.413   1.827   5.416  0.2579  0.4350 -0.0081
  139OSM   H12F15253   0.471   1.734   5.395  1.2427  1.1540 -0.5570
  139OSM   H12G15254   0.468   1.902   5.356  0.5124  0.1933 -0.0834
  139OSM   C13F15255   0.268   1.810   5.365  0.2814  0.2756  0.4521
  139OSM   H13F15256   0.227   1.913   5.373 -0.8765  0.1287 -2.3736
  139OSM   H13G15257   0.210   1.743   5.431 -0.6419  1.3265  0.7402
  139OSM   C14F15258   0.253   1.776   5.212  0.2417 -0.3458 -0.0930
  139OSM   H14F15259   0.328   1.697   5.190 -0.2378 -1.0489  0.7245
  139OSM   H14G15260   0.272   1.858   5.140 -0.5558 -1.4861 -1.6547
  139OSM   C15F15261   0.119   1.714   5.176  0.6415  0.2617  0.0236
  139OSM   H15F15262   0.039   1.788   5.197  0.6271  0.8190 -1.8683
  139OSM   H15G15263   0.106   1.618   5.230  2.3256  0.3924  0.7406
  139OSM   C16F15264   0.112   1.678   5.023  0.5748  0.0220 -0.1527
  139OSM   H16F15265   0.019   1.620   5.033 -0.1639  1.2159  0.1825
  139OSM   H16G15266   0.199   1.621   4.984  0.0342 -0.9500  0.0444
  139OSM   C17F15267   0.087   1.803   4.938 -0.1793  0.0676  0.2086
  139OSM   H17F15268   0.175   1.870   4.943 -0.3623  0.3722 -0.4569
  139OSM   H17G15269  -0.005   1.855   4.970  0.6095  0.3537  2.1100
  139OSM   C18F15270   0.058   1.766   4.791  0.0256 -0.9540 -0.9033
  139OSM   H18F15271  -0.016   1.684   4.790 -4.3323  2.2126  4.2237
  139OSM   H18G15272   0.150   1.731   4.739 -0.3069 -1.4579 -1.1650
  139OSM   H18H15273   0.010   1.852   4.739 -0.6992 -0.7973 -0.0040
  140OSM      N15274   6.062   0.152   7.175  0.1441  0.4035 -0.4757
  140OSM    C1515275   6.111   0.292   7.203 -0.3937 -0.5528 -0.0358
  140OSM   H15A15276   6.047   0.362   7.151 -1.0324 -1.9904 -1.2543
  140OSM   H15B15277   6.215   0.309   7.182 -0.3757  2.3867  1.8828
  140OSM   H15C15278   6.109   0.320   7.307 -1.4424 -0.4214 -0.0830
  140OSM    C1415279   6.160   0.049   7.230  0.4832 -1.3845  0.3544
  140OSM   H14A15280   6.245   0.045   7.164  0.1337  0.3654 -0.2746
  140OSM   H14B15281   6.124  -0.052   7.240 -0.8690 -1.0011 -0.2796
  140OSM   H14C15282   6.195   0.068   7.330  2.2913 -0.5763 -0.3842
  140OSM    C1315283   5.934   0.140   7.251 -0.2946  0.0023 -0.1610
  140OSM   H13A15284   5.875   0.057   7.215  2.9522 -2.4094 -0.3249
  140OSM   H13B15285   5.872   0.227   7.235 -1.3160 -0.7380 -0.3341
  140OSM   H13C15286   5.962   0.135   7.355 -1.9642 -0.0039  0.3153
  140OSM    C1215287   6.036   0.115   7.029  0.1190 -0.2851 -0.4556
  140OSM   H12A15288   5.954   0.176   6.995  0.0019 -0.4508 -0.4709
  140OSM   H12B15289   6.004   0.013   7.022 -0.1816 -0.2056 -0.2478
  140OSM    C1115290   6.165   0.127   6.940  0.7327 -0.1325 -0.1149
  140OSM   H11A15291   6.212   0.225   6.962 -0.3017  0.8869 -2.1840
  140OSM   H11B15292   6.137   0.138   6.833 -0.1404  0.1247  0.1349
  140OSM      P15293   6.237  -0.127   6.886 -0.1649  0.3016  0.1758
  140OSM    O1315294   6.367  -0.186   6.899  0.6827 -0.3465  0.6534
  140OSM    O1415295   6.125  -0.202   6.953 -0.2876 -0.6317  1.0234
  140OSM    O1115296   6.198  -0.116   6.738  0.6242 -0.7128 -0.3065
  140OSM    O1215297   6.250   0.019   6.945 -0.1542  0.5227 -0.4779
  140OSM    C1S15298   6.272  -0.026   6.646  0.4001  0.3141 -0.1132
  140OSM    H1S15299   6.379  -0.010   6.672  0.8346 -1.3720 -0.7376
  140OSM    H1T15300   6.224   0.074   6.642  0.1585  0.1981 -0.1609
  140OSM     NF15301   6.338   0.038   6.417 -0.2148  0.1832  0.3587
  140OSM    HNF15302   6.271   0.085   6.359 -0.1731  0.1918  0.3178
  140OSM    C2S15303   6.284  -0.077   6.495 -0.1190  0.8255 -0.3335
  140OSM    H2S15304   6.359  -0.158   6.506 -1.9083 -0.9239 -0.4216
  140OSM    C3S15305   6.152  -0.145   6.450  0.8301  0.2460  0.0489
  140OSM    H3S15306   6.084  -0.060   6.427  1.6787  1.2191  1.0320
  140OSM     O315307   6.093  -0.241   6.534 -0.1318  0.4495 -0.1049
  140OSM    HO315308   6.152  -0.230   6.609 -1.1030 -2.1284  1.1865
  140OSM    C4S15309   6.176  -0.210   6.319  0.3144  0.3927 -0.1294
  140OSM    H4S15310   6.270  -0.266   6.305 -0.1421 -0.3322 -0.3090
  140OSM    C5S15311   6.097  -0.192   6.213 -0.5189 -0.7925 -0.2296
  140OSM    H5S15312   6.010  -0.126   6.228  1.6124  2.1307  0.0380
  140OSM    C6S15313   6.137  -0.218   6.068 -0.1060  0.1374 -0.1187
  140OSM    H6S15314   6.122  -0.118   6.022  0.7055  2.8036  4.7720
  140OSM    H6T15315   6.062  -0.292   6.033  1.1519 -1.1698 -0.1394
  140OSM    C7S15316   6.273  -0.276   6.044  1.0516 -0.4348  0.8448
  140OSM    H7S15317   6.273  -0.372   6.099 -1.0493  0.8416  3.2777
  140OSM    H7T15318   6.354  -0.216   6.090  0.6624 -0.0479  1.0391
  140OSM    C8S15319   6.308  -0.315   5.898 -0.6691  0.0502 -0.9778
  140OSM    H8S15320   6.248  -0.405   5.871 -1.9677  0.4253  0.5280
  140OSM    H8T15321   6.417  -0.335   5.888 -0.2518  1.0309  1.1150
  140OSM    C9S15322   6.282  -0.203   5.799  0.2204 -0.2171 -0.2290
  140OSM    H9S15323   6.314  -0.105   5.840  1.1512 -0.8163  0.5160
  140OSM    H9T15324   6.173  -0.192   5.781 -0.4093  4.1484  4.1070
  140OSM   C10S15325   6.345  -0.205   5.662 -0.1674  0.2798  0.1992
  140OSM   H10S15326   6.307  -0.293   5.606 -1.0049  1.3385 -0.9445
  140OSM   H10T15327   6.456  -0.209   5.658 -0.1968 -1.7044  0.4183
  140OSM   C11S15328   6.285  -0.099   5.570  0.0270 -0.3169 -0.1864
  140OSM   H11S15329   6.263  -0.011   5.633 -0.7069  0.1923 -1.1294
  140OSM   H11T15330   6.184  -0.140   5.547 -0.6542  0.7440  0.7968
  140OSM   C12S15331   6.361  -0.065   5.444 -0.3425  0.1711 -0.3994
  140OSM   H12S15332   6.367  -0.145   5.367  0.9373 -0.7329  0.5883
  140OSM   H12T15333   6.465  -0.052   5.479 -0.8201 -0.2606  1.2307
  140OSM   C13S15334   6.319   0.070   5.373  0.2564 -0.0518 -0.0173
  140OSM   H13S15335   6.306   0.147   5.453 -1.1317 -0.8531  0.5679
  140OSM   H13T15336   6.213   0.058   5.345 -0.3595  0.6711  1.8443
  140OSM   C14S15337   6.415   0.106   5.257  0.2845 -0.3245 -0.2833
  140OSM   H14S15338   6.410   0.023   5.183 -1.3325  1.3223 -2.1271
  140OSM   H14T15339   6.514   0.119   5.306 -1.1571  0.4786  2.6457
  140OSM   C15S15340   6.387   0.241   5.198  0.3217 -0.0500 -0.0111
  140OSM   H15S15341   6.457   0.280   5.121  0.5778  1.0800  0.7676
  140OSM   H15T15342   6.379   0.320   5.275  1.4496  1.0165 -0.9414
  140OSM   C16S15343   6.251   0.239   5.121 -1.0660  0.0765 -0.5838
  140OSM   H16S15344   6.169   0.211   5.190 -1.0464  0.5355 -0.3699
  140OSM   H16T15345   6.268   0.170   5.035  2.0137  0.8511 -0.6875
  140OSM   C17S15346   6.217   0.379   5.058 -0.7890  0.8293 -0.2481
  140OSM   H17S15347   6.304   0.418   5.002 -0.0030  1.0931  1.1013
  140OSM   H17T15348   6.215   0.451   5.143  1.2824 -0.3722  0.9009
  140OSM   C18S15349   6.094   0.371   4.969  0.4498 -0.2084  0.2791
  140OSM   H18S15350   6.052   0.471   4.942  2.3790 -0.0630 -2.6387
  140OSM   H18T15351   6.014   0.317   5.024  0.8501 -0.1512  0.9255
  140OSM   H18U15352   6.122   0.317   4.877 -1.0813  3.2334 -2.4422
  140OSM    C1F15353   6.463   0.089   6.424 -0.0818  0.0281 -0.3041
  140OSM     OF15354   6.551   0.040   6.500 -0.0128 -0.0241 -0.5144
  140OSM    C2F15355   6.491   0.204   6.338 -0.4616 -1.2792 -0.2012
  140OSM    H2F15356   6.462   0.300   6.387  1.2768  0.2732 -2.0341
  140OSM    H2G15357   6.436   0.197   6.242  1.8454 -1.3079 -1.5835
  140OSM    C3F15358   6.633   0.205   6.288  0.1547  0.0118  0.3828
  140OSM    H3F15359   6.707   0.206   6.371 -0.4170  0.9531  0.8955
  140OSM    H3G15360   6.648   0.295   6.224 -0.8244  0.5884  0.9358
  140OSM    C4F15361   6.675   0.084   6.196 -0.1761  0.8967  0.1513
  140OSM    H4F15362   6.641  -0.012   6.240  0.5026 -0.0300 -1.2927
  140OSM    H4G15363   6.784   0.097   6.177  0.5094  1.2406  3.6387
  140OSM    C5F15364   6.608   0.081   6.060  0.7536 -0.5966  0.4054
  140OSM    H5F15365   6.499   0.060   6.069  0.2362  1.5572 -0.1553
  140OSM    H5G15366   6.654  -0.003   6.004  0.7331  0.4858 -1.3110
  140OSM    C6F15367   6.612   0.208   5.981  0.2335  0.3787  0.5147
  140OSM    H6F15368   6.703   0.267   6.002 -0.6245  2.0929 -0.3490
  140OSM    H6G15369   6.529   0.275   6.014 -1.1259 -0.4319 -1.0765
  140OSM    C7F15370   6.604   0.193   5.828  0.7480 -0.2479  0.0236
  140OSM    H7F15371   6.507   0.143   5.806  0.5746 -0.9605  2.1485
  140OSM    H7G15372   6.670   0.113   5.789 -0.7197 -0.9345 -1.1279
  140OSM    C8F15373   6.638   0.321   5.748  0.1694  0.2597  0.6194
  140OSM    H8F15374   6.747   0.340   5.759 -0.1925  2.0342  1.5271
  140OSM    H8G15375   6.573   0.399   5.792 -0.3108  1.2126 -1.6288
  140OSM    C9F15376   6.590   0.308   5.605  0.1110  0.2301 -0.2550
  140OSM    H9F15377   6.504   0.243   5.585 -0.3175  0.8658 -0.5170
  140OSM   C10F15378   6.643   0.369   5.498 -0.1567 -0.0502  0.4471
  140OSM   H10F15379   6.616   0.350   5.393  2.6547 -0.9739 -0.1952
  140OSM   C11F15380   6.751   0.471   5.510 -0.0797 -0.2445 -0.7070
  140OSM   H11F15381   6.824   0.456   5.593  0.6428 -1.2848 -1.4950
  140OSM   H11G15382   6.710   0.574   5.516 -1.0767 -0.6184 -0.9362
  140OSM   C12F15383   6.851   0.463   5.394 -0.0164  0.1826 -0.4839
  140OSM   H12F15384   6.918   0.375   5.410 -1.6082 -1.0217 -0.1969
  140OSM   H12G15385   6.902   0.561   5.391 -2.8999  1.8731  1.2321
  140OSM   C13F15386   6.803   0.459   5.246 -0.3094 -0.7355 -0.2642
  140OSM   H13F15387   6.752   0.554   5.219  1.2850  0.8791  2.0179
  140OSM   H13G15388   6.723   0.382   5.243 -0.6224 -0.5664  1.9501
  140OSM   C14F15389   6.905   0.435   5.145  0.6335  0.4826  0.5746
  140OSM   H14F15390   6.964   0.343   5.167 -0.0594  0.4437  2.4067
  140OSM   H14G15391   6.980   0.517   5.145  1.9505 -0.6334  2.4309
  140OSM   C15F15392   6.852   0.447   5.000  0.1381 -0.4212 -0.0100
  140OSM   H15F15393   6.785   0.535   4.985  0.3622 -0.3931 -0.9699
  140OSM   H15G15394   6.790   0.360   4.969  0.7854  0.0315 -2.8790
  140OSM   C16F15395   6.965   0.457   4.899 -1.0784  0.0151  0.7113
  140OSM   H16F15396   7.010   0.558   4.891 -2.2200  0.4271 -1.9426
  140OSM   H16G15397   6.916   0.435   4.801  1.0719  0.2194 -0.4567
  140OSM   C17F15398   7.068   0.338   4.904 -0.3363  0.0363  0.2588
  140OSM   H17F15399   7.090   0.314   5.010  0.4429  2.6813  0.7761
  140OSM   H17G15400   7.164   0.378   4.863 -0.6157  0.4846  0.0354
  140OSM   C18F15401   7.026   0.208   4.825  0.7098 -0.3618  0.2691
  140OSM   H18F15402   6.946   0.152   4.877 -0.1604  1.6518  1.2203
  140OSM   H18G15403   7.115   0.141   4.822  0.3079 -0.8741 -2.6856
  140OSM   H18H15404   7.002   0.226   4.718  2.3928 -0.1447 -0.1134
  141OSM      N15405   0.522   5.005   7.267  0.5798  0.6832  0.2037
  141OSM    C1515406   0.664   4.991   7.293 -0.0268 -0.2287  0.0852
  141OSM   H15A15407   0.712   4.953   7.203 -0.1289 -1.9627  0.7164
  141OSM   H15B15408   0.689   4.913   7.364  1.4264  0.4965  0.4172
  141OSM   H15C15409   0.712   5.082   7.325  3.9372 -2.1968  0.3996
  141OSM    C1415410   0.446   4.996   7.399 -0.1203 -0.0129 -0.3184
  141OSM   H14A15411   0.467   5.065   7.480 -1.4232 -0.4909  0.4597
  141OSM   H14B15412   0.469   4.896   7.433  1.4533  0.4581  0.1309
  141OSM   H14C15413   0.340   5.001   7.381 -0.7116  0.3982  2.6970
  141OSM    C1315414   0.497   5.149   7.231 -0.2262 -0.0634 -0.3194
  141OSM   H13A15415   0.512   5.224   7.307  0.1468  1.7261 -2.0838
  141OSM   H13B15416   0.396   5.161   7.195  0.1647  2.7114 -0.6820
  141OSM   H13C15417   0.555   5.172   7.144 -1.7302 -1.2701 -1.7060
  141OSM    C1215418   0.469   4.912   7.163 -0.5271 -0.4603  0.2039
  141OSM   H12A15419   0.479   4.808   7.191 -2.2198 -0.8418 -0.4875
  141OSM   H12B15420   0.516   4.925   7.067 -0.7640  1.0698  0.2777
  141OSM    C1115421   0.314   4.922   7.140  0.0719  1.0874  0.5950
  141OSM   H11A15422   0.266   4.893   7.235  1.0396  0.8841  1.0322
  141OSM   H11B15423   0.303   4.841   7.065  2.2512  2.1169 -0.9671
  141OSM      P15424   0.138   5.078   7.015 -0.0841  0.2542  0.2293
  141OSM    O1315425   0.029   5.071   7.111  0.1370  0.3263 -0.5741
  141OSM    O1415426   0.156   5.206   6.944 -0.3376  0.1043 -0.0485
  141OSM    O1115427   0.125   4.957   6.915 -0.2085  0.1494  0.4257
  141OSM    O1215428   0.271   5.048   7.085 -1.3066 -0.3357 -0.0083
  141OSM    C1S15429   0.065   4.957   6.779 -0.1006  0.1679  0.1117
  141OSM    H1S15430   0.049   5.063   6.751 -1.2444  0.1840  0.7490
  141OSM    H1T15431  -0.033   4.904   6.779  0.5208 -1.0314 -1.1283
  141OSM     NF15432   0.117   4.940   6.536  0.5241 -0.2115 -0.0250
  141OSM    HNF15433   0.057   4.875   6.490 -0.2229  0.1048  0.4884
  141OSM    C2S15434   0.159   4.900   6.670  0.1466 -0.3397 -0.2687
  141OSM    H2S15435   0.256   4.953   6.682  0.2377 -0.3584 -0.9005
  141OSM    C3S15436   0.189   4.744   6.685  0.4517  0.4241 -0.0461
  141OSM    H3S15437   0.089   4.697   6.673 -0.5341  2.4881 -0.5177
  141OSM     O315438   0.234   4.713   6.820 -0.6964  0.7748  0.4951
  141OSM    HO315439   0.222   4.798   6.863 -0.2220  1.3249 -0.4207
  141OSM    C4S15440   0.276   4.670   6.587 -0.7673 -0.4798 -0.4505
  141OSM    H4S15441   0.353   4.729   6.534 -0.4707 -0.9870 -0.5900
  141OSM    C5S15442   0.274   4.535   6.571  0.7976  0.2946  0.1376
  141OSM    H5S15443   0.196   4.481   6.628 -1.7672  1.5321 -1.9527
  141OSM    C6S15444   0.353   4.455   6.466  0.6690 -0.2357 -0.0880
  141OSM    H6S15445   0.301   4.357   6.466 -3.3786  1.6562  2.0271
  141OSM    H6T15446   0.461   4.447   6.489  0.4560 -2.1598  0.4229
  141OSM    C7S15447   0.314   4.515   6.331  0.2141 -0.3369  0.5987
  141OSM    H7S15448   0.375   4.482   6.244 -1.8886  0.1102 -1.1297
  141OSM    H7T15449   0.323   4.625   6.322  3.1288 -0.6263 -1.4919
  141OSM    C8S15450   0.174   4.475   6.299  0.2406  0.2566 -0.3044
  141OSM    H8S15451   0.092   4.502   6.369 -1.3590 -1.4450 -1.4239
  141OSM    H8T15452   0.173   4.364   6.301 -0.8409  0.2473 -0.6890
  141OSM    C9S15453   0.119   4.492   6.153  0.1836 -1.2504 -0.8860
  141OSM    H9S15454   0.125   4.600   6.130  2.1568 -1.0908  0.2463
  141OSM    H9T15455   0.011   4.465   6.157  0.4608 -2.4366 -0.8923
  141OSM   C10S15456   0.186   4.417   6.040 -0.8152  0.1158 -0.5549
  141OSM   H10S15457   0.186   4.309   6.067 -0.6472  0.0830 -0.6823
  141OSM   H10T15458   0.293   4.449   6.036 -0.7129 -0.1855 -0.2858
  141OSM   C11S15459   0.101   4.434   5.905  0.0767  0.3530 -0.5074
  141OSM   H11S15460   0.086   4.542   5.884  1.9420  0.5725 -0.8789
  141OSM   H11T15461  -0.003   4.398   5.917  0.5767 -0.7780  0.6206
  141OSM   C12S15462   0.152   4.355   5.784 -0.3513 -0.0254  0.0672
  141OSM   H12S15463   0.106   4.254   5.785 -1.8747  0.6310 -0.3435
  141OSM   H12T15464   0.262   4.352   5.771 -0.4317  0.6266 -0.8089
  141OSM   C13S15465   0.090   4.404   5.647 -0.3614 -0.0373  0.6490
  141OSM   H13S15466   0.112   4.513   5.650  2.0094 -0.4960  2.3550
  141OSM   H13T15467  -0.019   4.384   5.647 -0.3348 -0.1815  0.7799
  141OSM   C14S15468   0.151   4.340   5.521  0.3926 -0.0826  0.0289
  141OSM   H14S15469   0.131   4.231   5.523  0.6576 -0.1327 -0.0235
  141OSM   H14T15470   0.261   4.359   5.521  0.7714 -2.0258 -0.5676
  141OSM   C15S15471   0.108   4.402   5.384  0.0806 -0.5598  0.1685
  141OSM   H15S15472   0.123   4.511   5.400  0.6513 -0.5692 -0.2459
  141OSM   H15T15473   0.001   4.387   5.360 -0.0056  1.4327 -0.9058
  141OSM   C16S15474   0.208   4.377   5.261  0.0352 -0.2357  0.4216
  141OSM   H16S15475   0.307   4.383   5.311 -0.0963  1.5386  0.5320
  141OSM   H16T15476   0.194   4.454   5.183  2.4873 -2.7618 -2.7871
  141OSM   C17S15477   0.183   4.248   5.189 -0.0757  0.2980 -0.2054
  141OSM   H17S15478   0.078   4.241   5.155  0.4212 -3.5301 -1.4796
  141OSM   H17T15479   0.208   4.160   5.253  2.2303 -0.0726 -1.5113
  141OSM   C18S15480   0.272   4.240   5.066  0.1215 -0.4589  0.0835
  141OSM   H18S15481   0.245   4.139   5.027 -0.2870 -0.1089 -0.5680
  141OSM   H18T15482   0.378   4.253   5.096  0.1386  0.4786 -0.3355
  141OSM   H18U15483   0.236   4.309   4.987  0.2992 -2.1328 -1.5391
  141OSM    C1F15484   0.146   5.054   6.474  0.3678 -0.0703 -0.1034
  141OSM     OF15485   0.212   5.134   6.544  0.0481  0.3859  0.1245
  141OSM    C2F15486   0.104   5.072   6.334  0.7800 -0.3716  0.5465
  141OSM    H2F15487   0.060   4.975   6.300 -1.2817  1.4161 -2.3135
  141OSM    H2G15488   0.196   5.086   6.273  0.7801 -0.2341  0.5781
  141OSM    C3F15489   0.000   5.187   6.324 -0.0547  0.3399  0.5309
  141OSM    H3F15490   0.041   5.271   6.385  0.9007 -0.4127  0.9587
  141OSM    H3G15491  -0.093   5.149   6.371 -1.1976 -0.0979 -1.9259
  141OSM    C4F15492  -0.026   5.245   6.184  0.3514  0.0409 -0.2760
  141OSM    H4F15493   0.064   5.298   6.144 -0.7303  0.7724 -1.8458
  141OSM    H4G15494  -0.092   5.332   6.203 -0.3363 -0.5854  0.2307
  141OSM    C5F15495  -0.078   5.148   6.078 -0.9998  0.0946  0.2682
  141OSM    H5F15496  -0.183   5.178   6.055 -1.0716  0.2481  0.7972
  141OSM    H5G15497  -0.089   5.051   6.131  1.3145 -0.8308 -0.8054
  141OSM    C6F15498   0.017   5.127   5.961  0.5883 -0.0590  0.1291
  141OSM    H6F15499   0.123   5.106   5.985  0.4861  0.2776  0.9006
  141OSM    H6G15500   0.023   5.226   5.911 -1.1893  0.0512  0.0840
  141OSM    C7F15501  -0.037   5.014   5.870  0.0759  0.0759 -0.5176
  141OSM    H7F15502  -0.029   4.927   5.938 -0.4532 -1.7041 -2.5933
  141OSM    H7G15503   0.020   4.996   5.776 -0.6502 -2.0512 -0.6029
  141OSM    C8F15504  -0.183   5.019   5.831 -0.0380 -0.3681  0.0153
  141OSM    H8F15505  -0.238   5.007   5.927 -1.1098  3.4681  0.0535
  141OSM    H8G15506  -0.201   4.943   5.753  0.9980 -0.2231 -0.3814
  141OSM    C9F15507  -0.220   5.153   5.779  0.0250 -0.7163  0.3685
  141OSM    H9F15508  -0.242   5.232   5.853 -0.4076 -1.4579  1.0476
  141OSM   C10F15509  -0.257   5.186   5.651  0.2356  0.0679  0.1660
  141OSM   H10F15510  -0.282   5.290   5.627  0.2222  0.4262  1.6638
  141OSM   C11F15511  -0.245   5.088   5.528 -0.4672  0.1702 -0.3927
  141OSM   H11F15512  -0.350   5.057   5.508 -0.5531  0.5584 -0.5656
  141OSM   H11G15513  -0.193   4.994   5.555  1.5682  1.0752 -0.9590
  141OSM   C12F15514  -0.190   5.139   5.390  0.8081  0.3257 -0.2250
  141OSM   H12F15515  -0.145   5.056   5.334 -0.6305  0.1925 -1.2421
  141OSM   H12G15516  -0.121   5.225   5.403  0.0457  0.7444  1.3393
  141OSM   C13F15517  -0.300   5.198   5.299  0.5393  0.2502  0.3259
  141OSM   H13F15518  -0.341   5.284   5.355  0.8975  1.3871 -1.0967
  141OSM   H13G15519  -0.385   5.127   5.284  0.5157  0.5078 -0.8598
  141OSM   C14F15520  -0.253   5.251   5.164  0.0785  0.1042  0.4493
  141OSM   H14F15521  -0.335   5.312   5.121 -0.8311 -0.4707  1.3396
  141OSM   H14G15522  -0.242   5.171   5.088 -2.4355  0.6136 -0.5316
  141OSM   C15F15523  -0.130   5.344   5.168  0.2401  0.2598 -0.5869
  141OSM   H15F15524  -0.044   5.276   5.188 -0.6223 -0.5072  0.6572
  141OSM   H15G15525  -0.146   5.410   5.256 -2.6122  0.9898 -1.5633
  141OSM   C16F15526  -0.113   5.425   5.045 -0.2918 -0.2254  0.0389
  141OSM   H16F15527  -0.198   5.495   5.028  0.5674  0.5673 -1.1614
  141OSM   H16G15528  -0.104   5.356   4.958  1.0639  1.8885 -1.5885
  141OSM   C17F15529   0.009   5.520   5.055 -0.1450 -0.0182 -0.0493
  141OSM   H17F15530   0.105   5.463   5.057  0.4057  0.9133  1.2852
  141OSM   H17G15531   0.006   5.587   5.143  1.4250 -0.6676  0.5338
  141OSM   C18F15532   0.007   5.608   4.934 -0.5031  0.4163  0.2925
  141OSM   H18F15533   0.017   5.544   4.844 -1.0826 -0.8154  1.0783
  141OSM   H18G15534   0.092   5.679   4.931  0.0219 -0.2378 -1.5756
  141OSM   H18H15535  -0.086   5.670   4.934 -0.9374 -0.2259 -0.4592
  142OSM      N15536   6.272   4.013   7.049  0.1574 -0.8210  0.3239
  142OSM    C1515537   6.383   4.115   7.056 -0.4525  0.0968  0.0148
  142OSM   H15A15538   6.409   4.142   7.157  1.5591  1.7992 -0.8821
  142OSM   H15B15539   6.349   4.201   7.001  1.6652  1.0756  0.1329
  142OSM   H15C15540   6.470   4.075   7.007  0.6770  1.9750  0.3825
  142OSM    C1415541   6.298   3.889   7.129 -0.5262 -0.2160 -0.0908
  142OSM   H14A15542   6.336   3.908   7.228 -1.8481 -1.9398  0.7981
  142OSM   H14B15543   6.372   3.830   7.077  1.2876  0.9035  1.1128
  142OSM   H14C15544   6.210   3.827   7.137 -0.6441 -0.3132 -1.8331
  142OSM    C1315545   6.155   4.083   7.111  0.4724  0.2965 -0.6206
  142OSM   H13A15546   6.180   4.105   7.214  0.4917 -2.9664  0.1742
  142OSM   H13B15547   6.060   4.033   7.109 -1.2433  3.1936  0.9807
  142OSM   H13C15548   6.147   4.180   7.063  0.0745  0.9503  0.7026
  142OSM    C1215549   6.231   3.968   6.905  0.3901  0.2932 -0.6330
  142OSM   H12A15550   6.152   3.896   6.916 -0.9476  1.5997 -1.3456
  142OSM   H12B15551   6.318   3.924   6.859  1.4784  0.3913  1.2310
  142OSM    C1115552   6.179   4.086   6.805 -1.0763  0.0382  0.3658
  142OSM   H11A15553   6.072   4.111   6.817 -1.1750 -0.2365  0.0560
  142OSM   H11B15554   6.193   4.042   6.704 -0.6806  0.0202  0.4260
  142OSM      P15555   6.205   4.363   6.851  0.3077  0.1344 -0.1250
  142OSM    O1315556   6.137   4.347   6.977 -0.2616  0.2295 -0.3242
  142OSM    O1415557   6.319   4.453   6.853 -0.9595 -0.1686 -0.5441
  142OSM    O1115558   6.109   4.404   6.736  0.5892 -0.4540  0.2975
  142OSM    O1215559   6.253   4.216   6.806 -0.3392  0.0715 -0.1923
  142OSM    C1S15560   6.156   4.386   6.600 -0.6867  0.3907  0.0993
  142OSM    H1S15561   6.262   4.357   6.585 -0.0092  2.2562  1.0356
  142OSM    H1T15562   6.151   4.486   6.551 -2.8467  0.3879  0.2181
  142OSM     NF15563   6.114   4.275   6.389  0.2848 -0.0874 -0.3561
  142OSM    HNF15564   6.074   4.315   6.307  0.2298  0.6262  0.0109
  142OSM    C2S15565   6.056   4.291   6.518  0.6553  0.2690  0.1756
  142OSM    H2S15566   6.050   4.190   6.564 -2.7040 -0.3051 -1.2125
  142OSM    C3S15567   5.910   4.352   6.525 -0.5987  0.5346  0.1468
  142OSM    H3S15568   5.910   4.463   6.530  0.3366  0.4917  2.2420
  142OSM     O315569   5.835   4.309   6.644  0.2264  0.3963 -0.3430
  142OSM    HO315570   5.890   4.248   6.695  1.8707  1.2947 -0.9644
  142OSM    C4S15571   5.825   4.320   6.397  0.1902  0.2676 -0.5369
  142OSM    H4S15572   5.853   4.379   6.309 -2.9087  1.1514 -1.0375
  142OSM    C5S15573   5.738   4.222   6.381  0.3315  0.4453 -0.2262
  142OSM    H5S15574   5.698   4.168   6.468  1.7720  0.2695  0.3608
  142OSM    C6S15575   5.667   4.192   6.247 -0.0279  0.8372  0.0973
  142OSM    H6S15576   5.715   4.247   6.163 -1.1637 -1.1696 -1.9897
  142OSM    H6T15577   5.560   4.220   6.248 -0.2203  0.0961  1.1684
  142OSM    C7S15578   5.670   4.040   6.223  0.0817  0.4673  0.3621
  142OSM    H7S15579   5.634   3.978   6.308 -0.6765  0.1183 -0.2008
  142OSM    H7T15580   5.777   4.011   6.210  0.3058  1.1664  0.5587
  142OSM    C8S15581   5.579   3.986   6.108 -0.0654  0.4058  0.2915
  142OSM    H8S15582   5.473   3.977   6.139  0.6203  1.9290  3.5392
  142OSM    H8T15583   5.617   3.884   6.089  0.4116  0.6489 -0.0862
  142OSM    C9S15584   5.604   4.057   5.978  0.0737  0.1346  0.0995
  142OSM    H9S15585   5.712   4.077   5.962  0.1976 -0.1022  0.6046
  142OSM    H9T15586   5.544   4.150   5.985  0.6065  0.4438  0.6161
  142OSM   C10S15587   5.577   3.969   5.854 -0.1357  0.0390  0.2889
  142OSM   H10S15588   5.474   3.927   5.862 -0.5806  0.9280 -0.6421
  142OSM   H10T15589   5.646   3.881   5.851 -1.3367 -1.0790  2.4657
  142OSM   C11S15590   5.590   4.054   5.728 -0.0656 -1.3591 -0.3953
  142OSM   H11S15591   5.687   4.101   5.700 -2.0167  1.9744 -2.0958
  142OSM   H11T15592   5.508   4.127   5.746  1.0358  0.1256 -1.1340
  142OSM   C12S15593   5.539   3.972   5.609  0.5179  0.4480  0.4550
  142OSM   H12S15594   5.434   3.948   5.636 -0.0898  1.7458 -0.6888
  142OSM   H12T15595   5.605   3.886   5.583  1.1466  1.4215 -1.2972
  142OSM   C13S15596   5.537   4.051   5.474 -0.5363  0.1889 -0.1442
  142OSM   H13S15597   5.646   4.073   5.461 -0.0547 -0.5951  2.1120
  142OSM   H13T15598   5.480   4.146   5.484 -0.8735 -0.2280  2.8765
  142OSM   C14S15599   5.476   3.970   5.357 -0.3630 -0.0231  0.0107
  142OSM   H14S15600   5.366   3.981   5.369 -0.4505  2.1656 -2.0265
  142OSM   H14T15601   5.516   3.867   5.363 -0.1575  0.0021 -0.7656
  142OSM   C15S15602   5.504   4.023   5.210 -0.5336  0.0540 -0.0871
  142OSM   H15S15603   5.610   4.026   5.175 -0.3612 -0.9362  0.3012
  142OSM   H15T15604   5.470   4.128   5.204  1.7391  0.8054 -1.2435
  142OSM   C16S15605   5.439   3.941   5.102 -0.1905 -0.2058 -0.3545
  142OSM   H16S15606   5.329   3.940   5.113 -0.0662 -0.5934  0.9940
  142OSM   H16T15607   5.460   3.834   5.122 -1.1455 -0.2037  0.6824
  142OSM   C17S15608   5.487   3.969   4.954  0.1911  0.1974 -0.3997
  142OSM   H17S15609   5.496   4.079   4.940  0.6467  0.0401 -1.5189
  142OSM   H17T15610   5.418   3.913   4.887 -0.2798 -2.0180  1.8157
  142OSM   C18S15611   5.628   3.908   4.917 -0.0922 -0.0711  0.0083
  142OSM   H18S15612   5.647   3.912   4.808 -2.2511 -1.2230 -0.4642
  142OSM   H18T15613   5.623   3.806   4.960 -0.9652 -0.2996 -0.6181
  142OSM   H18U15614   5.701   3.970   4.973 -1.4935  0.2523  1.5738
  142OSM    C1F15615   6.224   4.211   6.366 -0.5053 -0.3905  0.3748
  142OSM     OF15616   6.286   4.144   6.448 -0.0398  0.3889 -0.1397
  142OSM    C2F15617   6.276   4.242   6.232  0.7583 -0.0864 -0.0663
  142OSM    H2F15618   6.300   4.350   6.216 -0.4347  0.0191 -1.3439
  142OSM    H2G15619   6.198   4.225   6.156  0.2669 -1.6496  0.7471
  142OSM    C3F15620   6.397   4.154   6.196  0.5006 -0.0432  0.4171
  142OSM    H3F15621   6.361   4.049   6.194 -1.9059  0.7327 -0.5042
  142OSM    H3G15622   6.463   4.154   6.285  0.7207 -0.6096  0.2573
  142OSM    C4F15623   6.477   4.191   6.076  0.0777  0.7019  0.1428
  142OSM    H4F15624   6.566   4.125   6.073  0.1190  0.7060  0.9563
  142OSM    H4G15625   6.526   4.291   6.089  2.3914 -0.4839  1.1604
  142OSM    C5F15626   6.396   4.187   5.943 -0.8630 -0.5603  0.2501
  142OSM    H5F15627   6.317   4.265   5.949  1.3405  1.8642 -0.4346
  142OSM    H5G15628   6.354   4.085   5.933 -0.2572 -0.6807 -1.3194
  142OSM    C6F15629   6.487   4.223   5.818  0.2262 -0.8063  0.0676
  142OSM    H6F15630   6.540   4.318   5.837  0.4519 -0.9691  0.2463
  142OSM    H6G15631   6.426   4.241   5.726 -0.3698 -0.1933  0.5718
  142OSM    C7F15632   6.585   4.109   5.789 -0.0757 -0.5841  0.1553
  142OSM    H7F15633   6.534   4.012   5.809 -2.5148  0.9518  1.8852
  142OSM    H7G15634   6.666   4.110   5.864  0.9599  1.7881 -0.9133
  142OSM    C8F15635   6.650   4.113   5.649 -0.2157  0.1626 -0.7716
  142OSM    H8F15636   6.742   4.051   5.657  0.1225  0.8122  0.7489
  142OSM    H8G15637   6.678   4.221   5.648 -0.8660  0.4098  1.3782
  142OSM    C9F15638   6.551   4.088   5.539 -0.1438  1.2738  0.4687
  142OSM    H9F15639   6.451   4.127   5.560  0.0986  1.0482  2.2462
  142OSM   C10F15640   6.575   4.026   5.421  0.7481 -0.2049  0.8874
  142OSM   H10F15641   6.492   4.011   5.350  0.7843 -1.9086  1.1691
  142OSM   C11F15642   6.706   3.958   5.394 -0.6522  0.0813  0.3914
  142OSM   H11F15643   6.693   3.849   5.377  0.2149 -0.2365  1.5884
  142OSM   H11G15644   6.775   3.958   5.482  0.4583  0.3009 -0.4576
  142OSM   C12F15645   6.790   4.023   5.280 -0.0744 -0.2526  0.0943
  142OSM   H12F15646   6.835   4.116   5.320 -0.2247 -0.2250  0.2048
  142OSM   H12G15647   6.718   4.055   5.201  2.8304  1.2512 -2.1204
  142OSM   C13F15648   6.879   3.927   5.207 -1.0360  0.1617 -0.6721
  142OSM   H13F15649   6.947   3.872   5.275 -1.6630  0.2663  0.0455
  142OSM   H13G15650   6.941   3.983   5.133  0.3773  0.0883  0.4197
  142OSM   C14F15651   6.812   3.812   5.132 -0.2437 -0.3561  1.0040
  142OSM   H14F15652   6.759   3.857   5.046 -2.6209 -2.9954  0.9332
  142OSM   H14G15653   6.728   3.764   5.187  0.7252 -1.1934  1.7945
  142OSM   C15F15654   6.896   3.697   5.080  0.7201  0.4493 -0.0162
  142OSM   H15F15655   6.832   3.607   5.061  3.6424 -1.4098 -1.8831
  142OSM   H15G15656   6.968   3.665   5.158  0.5734 -0.1205 -0.1056
  142OSM   C16F15657   6.979   3.734   4.955  0.4444 -0.1415 -0.1296
  142OSM   H16F15658   7.063   3.800   4.987  0.0655  0.9268 -1.2358
  142OSM   H16G15659   6.911   3.785   4.883  0.9426  1.3471  0.4164
  142OSM   C17F15660   7.034   3.624   4.876  1.3588  0.0586 -0.2369
  142OSM   H17F15661   6.953   3.564   4.829 -0.7981  2.8118 -0.3216
  142OSM   H17G15662   7.097   3.561   4.942  1.7649  0.1679 -0.5191
  142OSM   C18F15663   7.111   3.673   4.748 -0.5777  0.5483 -1.3172
  142OSM   H18F15664   7.110   3.598   4.667  0.7337 -0.7468 -0.1848
  142OSM   H18G15665   7.214   3.696   4.782 -0.8302  0.0815 -0.1770
  142OSM   H18H15666   7.068   3.768   4.711 -1.0459  0.6313 -0.5872
  143OSM      N15667   2.968   1.845   7.150 -0.3095 -0.0773 -0.0721
  143OSM    C1515668   3.000   1.906   7.011  0.5349  0.7180 -0.0776
  143OSM   H15A15669   2.921   1.876   6.943 -0.7513  2.7987  0.3854
  143OSM   H15B15670   3.099   1.872   6.986 -0.5359 -3.1152  0.1838
  143OSM   H15C15671   2.992   2.014   7.016  2.9662  0.9632 -0.2318
  143OSM    C1415672   2.824   1.862   7.177 -0.1446  0.8792 -0.0882
  143OSM   H14A15673   2.799   1.967   7.190  0.0717  1.0107 -0.7262
  143OSM   H14B15674   2.806   1.804   7.267  0.9838 -3.1815 -2.2363
  143OSM   H14C15675   2.774   1.833   7.086 -0.0354 -0.3909  0.2371
  143OSM    C1315676   3.004   1.700   7.146  0.4287 -0.3702  0.6713
  143OSM   H13A15677   2.947   1.645   7.072  2.0568 -0.4706 -0.5642
  143OSM   H13B15678   2.991   1.671   7.249 -0.6429  4.4444  2.1158
  143OSM   H13C15679   3.109   1.696   7.124  0.5707  2.9540  0.3111
  143OSM    C1215680   3.044   1.910   7.258 -0.0417 -0.1525  0.1463
  143OSM   H12A15681   3.019   1.870   7.355 -0.9183 -0.0885 -0.0443
  143OSM   H12B15682   3.033   2.018   7.254  1.9656  0.0891 -3.3763
  143OSM    C1115683   3.196   1.883   7.265  0.4078 -0.0386 -0.7704
  143OSM   H11A15684   3.202   1.780   7.308 -0.8102 -0.3898 -1.3792
  143OSM   H11B15685   3.239   1.953   7.338  0.4473 -1.1885  0.3478
  143OSM      P15686   3.385   1.826   7.084  0.0098  0.2438 -0.1370
  143OSM    O1315687   3.511   1.907   7.109  0.0094  0.2125  0.2509
  143OSM    O1415688   3.390   1.692   7.137 -0.2587  0.2086  0.1979
  143OSM    O1115689   3.364   1.820   6.929  0.2607  0.1551 -0.0744
  143OSM    O1215690   3.252   1.898   7.138 -0.1459  0.1627  0.2109
  143OSM    C1S15691   3.349   1.945   6.855  0.1435 -0.0193  0.4627
  143OSM    H1S15692   3.437   2.011   6.869 -1.2402  1.5967  2.0081
  143OSM    H1T15693   3.258   1.996   6.891  0.0777  0.0469  0.2038
  143OSM     NF15694   3.345   2.028   6.601  0.4334 -0.3671 -0.7785
  143OSM    HNF15695   3.269   2.065   6.549 -0.0515 -1.4240 -0.8496
  143OSM    C2S15696   3.315   1.923   6.702  0.2790 -0.3585 -0.1887
  143OSM    H2S15697   3.374   1.831   6.683 -0.3376 -1.3275  2.2881
  143OSM    C3S15698   3.174   1.864   6.694 -0.0603 -0.4015 -0.2871
  143OSM    H3S15699   3.108   1.945   6.733  0.9294 -0.8064  2.4562
  143OSM     O315700   3.154   1.744   6.766  0.1543 -0.1472  0.2265
  143OSM    HO315701   3.217   1.740   6.838 -1.6901 -3.2907  1.8970
  143OSM    C4S15702   3.130   1.847   6.549  0.0106 -0.6306 -0.1984
  143OSM    H4S15703   3.208   1.831   6.473  0.0173  0.2824 -0.3963
  143OSM    C5S15704   3.002   1.865   6.504 -0.1338 -0.0210  0.5658
  143OSM    H5S15705   2.920   1.900   6.569 -0.3506 -0.6146  0.6133
  143OSM    C6S15706   2.968   1.839   6.361  0.4243 -0.2206  0.1988
  143OSM    H6S15707   3.056   1.819   6.296  0.5722 -1.3202  0.7074
  143OSM    H6T15708   2.935   1.937   6.320  2.5229  0.1828 -0.6204
  143OSM    C7S15709   2.867   1.729   6.335 -0.4468 -0.1232 -0.2135
  143OSM    H7S15710   2.761   1.738   6.368 -1.4782 -0.1483 -3.1618
  143OSM    H7T15711   2.911   1.647   6.395 -1.9067  0.1050  1.2255
  143OSM    C8S15712   2.847   1.681   6.190 -0.2471 -0.5479  0.1408
  143OSM    H8S15713   2.807   1.577   6.190 -0.8196 -0.4268 -3.0483
  143OSM    H8T15714   2.944   1.664   6.137  0.2587 -1.4174  1.2850
  143OSM    C9S15715   2.765   1.784   6.100 -0.1779  0.1883 -0.3814
  143OSM    H9S15716   2.816   1.883   6.097  0.2555 -0.0180  0.0088
  143OSM    H9T15717   2.668   1.791   6.153  0.8507 -2.3489  2.1146
  143OSM   C10S15718   2.741   1.735   5.957  0.1725 -0.3342 -0.8760
  143OSM   H10S15719   2.650   1.790   5.923 -0.1756 -1.0938 -1.1858
  143OSM   H10T15720   2.715   1.628   5.962 -0.3231 -0.2051 -0.5901
  143OSM   C11S15721   2.849   1.772   5.858  0.2483 -0.0847  0.4332
  143OSM   H11S15722   2.939   1.711   5.880 -1.9800 -3.2938  1.4307
  143OSM   H11T15723   2.880   1.877   5.874  0.3720  0.2983 -1.9741
  143OSM   C12S15724   2.809   1.754   5.709  0.3577  0.0998 -0.0396
  143OSM   H12S15725   2.718   1.812   5.682 -0.6730 -1.4303  0.0277
  143OSM   H12T15726   2.790   1.648   5.683  2.1704 -0.0820 -0.7295
  143OSM   C13S15727   2.913   1.787   5.609 -0.3555 -0.2805 -0.3104
  143OSM   H13S15728   3.009   1.735   5.631  1.2745  2.2885 -0.9947
  143OSM   H13T15729   2.929   1.896   5.624  1.4185 -0.5447 -0.0108
  143OSM   C14S15730   2.866   1.759   5.464  0.3469 -0.4624 -0.3112
  143OSM   H14S15731   2.781   1.826   5.437  1.5671  1.1894 -0.2055
  143OSM   H14T15732   2.839   1.651   5.456 -0.8804 -0.1885 -0.0408
  143OSM   C15S15733   2.983   1.784   5.370  0.4648  0.0602  0.4482
  143OSM   H15S15734   3.066   1.711   5.371  0.8032  0.4330  1.6507
  143OSM   H15T15735   3.019   1.887   5.390 -0.1888  0.5957 -0.9509
  143OSM   C16S15736   2.936   1.784   5.219  0.7951 -0.5180  0.0392
  143OSM   H16S15737   2.862   1.865   5.202  1.1123  0.0504  1.2542
  143OSM   H16T15738   2.891   1.684   5.199  1.4381 -1.1944  1.7643
  143OSM   C17S15739   3.049   1.798   5.114  0.2624  0.0431 -0.5279
  143OSM   H17S15740   3.094   1.696   5.110  0.2425  0.0325 -0.4756
  143OSM   H17T15741   3.120   1.880   5.139  0.6732  0.3784 -2.6164
  143OSM   C18S15742   2.990   1.832   4.979 -0.4135  2.0034  0.0046
  143OSM   H18S15743   3.059   1.794   4.901  0.0980 -0.5058  1.5608
  143OSM   H18T15744   2.987   1.942   4.962  0.0618  1.5608 -3.5429
  143OSM   H18U15745   2.892   1.782   4.964  1.1847 -1.4377 -0.0777
  143OSM    C1F15746   3.461   2.078   6.574  0.2275  0.5382  0.1225
  143OSM     OF15747   3.554   2.053   6.644  0.0903 -0.0292 -0.0277
  143OSM    C2F15748   3.480   2.165   6.460 -0.2283  0.5957  0.6910
  143OSM    H2F15749   3.547   2.244   6.499 -1.3818  1.1441  1.6232
  143OSM    H2G15750   3.390   2.217   6.419  1.3070  2.3514 -0.6375
  143OSM    C3F15751   3.549   2.091   6.342  0.3196  0.2378 -0.1678
  143OSM    H3F15752   3.485   2.006   6.310 -0.6261  0.4689  1.0599
  143OSM    H3G15753   3.652   2.060   6.370  0.7527  1.7817  0.0293
  143OSM    C4F15754   3.557   2.196   6.226 -1.3974 -0.0191 -0.5468
  143OSM    H4F15755   3.618   2.286   6.250 -0.5081 -0.5074 -0.9141
  143OSM    H4G15756   3.454   2.233   6.208 -1.6879 -1.3644 -1.8192
  143OSM    C5F15757   3.608   2.130   6.098 -0.1045 -0.1093  0.1047
  143OSM    H5F15758   3.551   2.038   6.075  1.8059 -1.3979  0.3423
  143OSM    H5G15759   3.713   2.097   6.107  0.2057  0.3698 -1.4847
  143OSM    C6F15760   3.586   2.215   5.971 -0.2510  0.9838  0.1426
  143OSM    H6F15761   3.643   2.309   5.988  1.1998  0.4974 -1.7300
  143OSM    H6G15762   3.477   2.235   5.957 -0.4823 -1.1339 -1.5139
  143OSM    C7F15763   3.640   2.144   5.843  0.4721 -0.7658  0.6727
  143OSM    H7F15764   3.564   2.079   5.797  0.6506 -0.4447 -0.0875
  143OSM    H7G15765   3.728   2.082   5.871  1.4442 -0.3148 -1.1920
  143OSM    C8F15766   3.661   2.246   5.725 -0.3063 -0.0948  0.3110
  143OSM    H8F15767   3.718   2.198   5.643 -1.9916 -0.6322 -0.5786
  143OSM    H8G15768   3.731   2.323   5.764 -0.8239 -0.6940  2.6172
  143OSM    C9F15769   3.542   2.315   5.669 -0.4601 -0.2920  0.4911
  143OSM    H9F15770   3.496   2.382   5.743 -0.3472 -2.0960  2.2869
  143OSM   C10F15771   3.514   2.321   5.540  0.2482 -0.2533 -0.2188
  143OSM   H10F15772   3.419   2.371   5.513 -0.0890  0.4812  2.0950
  143OSM   C11F15773   3.597   2.263   5.433  0.0813 -0.3886 -0.2053
  143OSM   H11F15774   3.563   2.160   5.406  2.2801 -0.8058 -1.6970
  143OSM   H11G15775   3.701   2.241   5.465  0.9716  0.7885 -2.0789
  143OSM   C12F15776   3.603   2.348   5.306 -0.1629  0.1669 -0.1778
  143OSM   H12F15777   3.691   2.415   5.311 -1.0297  1.2933  0.1877
  143OSM   H12G15778   3.514   2.407   5.276  0.6002  1.5615  0.2206
  143OSM   C13F15779   3.618   2.254   5.186 -0.6686  0.4285  1.0669
  143OSM   H13F15780   3.569   2.155   5.192 -3.8360  1.7253 -0.6383
  143OSM   H13G15781   3.725   2.226   5.183 -0.5587  0.9040  0.1230
  143OSM   C14F15782   3.598   2.307   5.046 -0.3083 -0.0184  0.4832
  143OSM   H14F15783   3.489   2.309   5.023 -0.0657 -1.9868 -1.1200
  143OSM   H14G15784   3.652   2.241   4.975 -1.0837 -0.4973  0.3178
  143OSM   C15F15785   3.659   2.449   5.020 -0.0957  0.5751  0.0786
  143OSM   H15F15786   3.764   2.440   5.055 -0.7960 -0.5321  2.0810
  143OSM   H15G15787   3.599   2.514   5.088 -1.7813  1.0955 -1.8058
  143OSM   C16F15788   3.635   2.506   4.885 -0.1913  1.0034  0.9543
  143OSM   H16F15789   3.695   2.473   4.798 -2.6509  0.9666 -0.8327
  143OSM   H16G15790   3.656   2.615   4.892 -1.0573  1.3098 -0.6646
  143OSM   C17F15791   3.492   2.479   4.831  0.3326 -0.2366 -0.1021
  143OSM   H17F15792   3.414   2.507   4.905  0.4162 -0.0859 -0.0708
  143OSM   H17G15793   3.492   2.372   4.804  3.0049 -0.2479 -0.3206
  143OSM   C18F15794   3.470   2.567   4.703 -0.0703  0.2010  0.8337
  143OSM   H18F15795   3.535   2.537   4.618  2.3647  0.5743  2.4622
  143OSM   H18G15796   3.494   2.673   4.725 -1.4319  1.1314 -1.7814
  143OSM   H18H15797   3.361   2.559   4.685  0.2858 -2.2453 -0.7264
  144OSM      N15798   0.420   5.672   7.336 -0.1794  0.3884  0.1708
  144OSM    C1515799   0.448   5.580   7.219 -0.3359 -0.1793 -0.1029
  144OSM   H15A15800   0.539   5.523   7.232  1.0764  1.6393 -1.4671
  144OSM   H15B15801   0.476   5.636   7.131 -0.6761  2.5335  1.3970
  144OSM   H15C15802   0.366   5.513   7.199  1.0258 -2.6458  1.9100
  144OSM    C1415803   0.281   5.734   7.326  0.1072  0.2865 -0.6044
  144OSM   H14A15804   0.220   5.702   7.409 -0.3390  0.3705 -0.9024
  144OSM   H14B15805   0.227   5.724   7.233  0.6733 -2.6889 -0.7305
  144OSM   H14C15806   0.296   5.839   7.345 -0.7482  0.4201 -0.6557
  144OSM    C1315807   0.427   5.576   7.457 -0.3620 -0.6298 -0.4516
  144OSM   H13A15808   0.405   5.631   7.547  0.6686 -1.8334  0.5632
  144OSM   H13B15809   0.527   5.541   7.475 -0.6064 -0.6348  0.9466
  144OSM   H13C15810   0.362   5.489   7.453 -1.3955  0.1121 -0.2000
  144OSM    C1215811   0.525   5.771   7.337  0.1578  0.8564 -0.2625
  144OSM   H12A15812   0.529   5.818   7.240 -0.0690  1.5401  0.0546
  144OSM   H12B15813   0.618   5.718   7.348 -1.0153 -1.1549  0.5299
  144OSM    C1115814   0.517   5.880   7.445 -0.4398  0.1428 -0.2572
  144OSM   H11A15815   0.615   5.932   7.458  1.0998 -2.2163 -1.7699
  144OSM   H11B15816   0.496   5.818   7.535  0.9241 -0.0710 -0.0604
  144OSM      P15817   0.419   6.110   7.343 -0.2759 -0.0519 -0.0774
  144OSM    O1315818   0.277   6.157   7.351 -0.6380  0.5097 -0.4488
  144OSM    O1415819   0.525   6.206   7.381  0.2718 -0.6727 -0.0369
  144OSM    O1115820   0.454   6.062   7.202 -0.3800  0.5414  0.7282
  144OSM    O1215821   0.413   5.974   7.429 -0.1878 -0.3450  0.2322
  144OSM    C1S15822   0.376   6.116   7.092 -0.3931 -0.5018  0.0559
  144OSM    H1S15823   0.357   6.225   7.103  0.7396 -0.2955  0.1450
  144OSM    H1T15824   0.276   6.068   7.085  0.9984 -3.6154  0.1753
  144OSM     NF15825   0.365   6.143   6.841 -0.1619 -0.8249 -0.0634
  144OSM    HNF15826   0.314   6.080   6.784 -0.0193 -1.4496  0.4827
  144OSM    C2S15827   0.438   6.075   6.952 -0.1535 -0.2464 -1.0024
  144OSM    H2S15828   0.539   6.119   6.959 -0.2158  0.7454 -4.4571
  144OSM    C3S15829   0.458   5.921   6.926 -0.4765 -0.7085  0.7949
  144OSM    H3S15830   0.356   5.889   6.896 -1.0735  1.5072  0.2163
  144OSM     O315831   0.512   5.856   7.034  0.4341  0.5738  0.0579
  144OSM    HO315832   0.544   5.931   7.084  0.9616  1.0535 -0.9555
  144OSM    C4S15833   0.552   5.901   6.804  0.2810 -0.2879  0.0621
  144OSM    H4S15834   0.649   5.950   6.825  0.3846 -1.6882  3.6183
  144OSM    C5S15835   0.508   5.861   6.684 -0.5784  0.0828 -0.3214
  144OSM    H5S15836   0.400   5.843   6.679 -1.5654  4.2658  1.5887
  144OSM    C6S15837   0.591   5.877   6.561 -0.6268  0.3775  0.9108
  144OSM    H6S15838   0.567   5.792   6.493  0.7935  0.5068  0.2266
  144OSM    H6T15839   0.698   5.859   6.584 -0.4824 -0.5755 -0.3972
  144OSM    C7S15840   0.558   6.009   6.481  0.3140  0.2977 -0.2028
  144OSM    H7S15841   0.640   6.028   6.408 -0.8402  1.2205 -1.2942
  144OSM    H7T15842   0.543   6.097   6.548  0.4634 -0.1889  0.4779
  144OSM    C8S15843   0.428   5.995   6.404 -0.3650 -0.7444 -0.3967
  144OSM    H8S15844   0.344   6.022   6.471 -0.7878 -0.2583 -1.0996
  144OSM    H8T15845   0.405   5.894   6.365 -1.4673 -0.8313  0.4211
  144OSM    C9S15846   0.417   6.092   6.278 -0.2232 -0.2595  0.9763
  144OSM    H9S15847   0.323   6.062   6.227  1.2250 -0.3697 -1.7619
  144OSM    H9T15848   0.505   6.090   6.211 -3.0739 -0.8204 -3.0757
  144OSM   C10S15849   0.407   6.237   6.325  0.2032  0.1546 -0.3070
  144OSM   H10S15850   0.501   6.264   6.377 -0.2890  0.8576  0.2441
  144OSM   H10T15851   0.343   6.249   6.416 -1.4322  3.7023 -1.6987
  144OSM   C11S15852   0.369   6.346   6.225 -0.7163 -0.3471  0.4100
  144OSM   H11S15853   0.377   6.448   6.270  2.1399  0.7448 -2.2517
  144OSM   H11T15854   0.263   6.336   6.194 -1.1864  1.8555  1.0720
  144OSM   C12S15855   0.455   6.344   6.092  0.0254 -0.1627 -0.3888
  144OSM   H12S15856   0.427   6.250   6.038 -0.0997 -0.6902  0.5721
  144OSM   H12T15857   0.565   6.351   6.098  0.3610 -0.4476 -4.1237
  144OSM   C13S15858   0.419   6.465   6.001  0.3171 -0.1474  0.0959
  144OSM   H13S15859   0.449   6.563   6.043 -4.0814 -0.4225  4.8254
  144OSM   H13T15860   0.309   6.468   5.990  0.2361 -1.0411  0.5627
  144OSM   C14S15861   0.484   6.444   5.860  0.7115  0.1032  0.4360
  144OSM   H14S15862   0.448   6.521   5.787 -1.0872 -0.9994  0.0999
  144OSM   H14T15863   0.443   6.345   5.833  0.7873  0.1765  0.0338
  144OSM   C15S15864   0.637   6.453   5.858  0.5535 -1.0611  0.1713
  144OSM   H15S15865   0.670   6.387   5.941  0.4770  0.1602  1.2210
  144OSM   H15T15866   0.671   6.557   5.880 -0.8845 -0.0228 -2.2076
  144OSM   C16S15867   0.703   6.414   5.728 -0.6227 -1.2260 -0.7649
  144OSM   H16S15868   0.682   6.487   5.646  0.5544 -0.1819 -0.1703
  144OSM   H16T15869   0.681   6.312   5.690  0.6730 -1.1633 -1.8030
  144OSM   C17S15870   0.853   6.413   5.753  0.1479  0.0162  0.3148
  144OSM   H17S15871   0.885   6.505   5.806 -0.1403 -1.1648  2.6804
  144OSM   H17T15872   0.910   6.407   5.658  0.5722 -1.6069  0.6400
  144OSM   C18S15873   0.903   6.308   5.847 -0.0863 -0.1776 -0.1034
  144OSM   H18S15874   0.834   6.276   5.929  0.2253  2.9938  1.5846
  144OSM   H18T15875   1.000   6.335   5.894 -0.1992 -0.5987  0.3895
  144OSM   H18U15876   0.930   6.220   5.786 -1.6124 -1.7596  1.3793
  144OSM    C1F15877   0.350   6.280   6.830  0.3035 -0.0532  0.0530
  144OSM     OF15878   0.407   6.356   6.902 -0.0865 -0.8179  0.2527
  144OSM    C2F15879   0.274   6.329   6.715  0.4183  0.6806  0.3397
  144OSM    H2F15880   0.176   6.278   6.714 -0.4345  2.2636  0.1577
  144OSM    H2G15881   0.323   6.312   6.616  0.5075 -0.5283  0.5775
  144OSM    C3F15882   0.241   6.477   6.727  0.6165  0.1426 -0.1998
  144OSM    H3F15883   0.330   6.543   6.718 -0.7333  2.1330  0.4436
  144OSM    H3G15884   0.210   6.496   6.832 -1.7540  0.5601 -0.9186
  144OSM    C4F15885   0.136   6.520   6.625 -0.6883 -0.3329  0.1276
  144OSM    H4F15886   0.115   6.628   6.642 -2.2360 -0.4625 -0.7496
  144OSM    H4G15887   0.038   6.469   6.639 -0.9498  0.4991  1.5060
  144OSM    C5F15888   0.200   6.518   6.485  0.5618  0.3158 -0.4308
  144OSM    H5F15889   0.219   6.412   6.458  1.4887  0.0058  1.2770
  144OSM    H5G15890   0.300   6.567   6.486  0.7465 -0.0078  1.2624
  144OSM    C6F15891   0.114   6.596   6.379 -0.4120  0.1982  0.4614
  144OSM    H6F15892   0.187   6.642   6.309 -0.8531 -2.8012 -2.2142
  144OSM    H6G15893   0.063   6.676   6.438 -2.2521 -0.0615 -0.6752
  144OSM    C7F15894  -0.003   6.518   6.299 -0.4521 -0.1005  0.0645
  144OSM    H7F15895  -0.075   6.492   6.379 -0.0102  0.9387  0.8189
  144OSM    H7G15896   0.036   6.421   6.262  0.9329  0.4830 -0.0789
  144OSM    C8F15897  -0.073   6.611   6.200  0.1614 -0.2456  0.0189
  144OSM    H8F15898   0.010   6.648   6.136  2.1228 -1.2192  1.8526
  144OSM    H8G15899  -0.095   6.703   6.256  2.0651  0.5389 -0.4205
  144OSM    C9F15900  -0.177   6.544   6.118 -0.5709 -0.1448 -0.0922
  144OSM    H9F15901  -0.271   6.530   6.173  0.2091 -0.2131  1.2723
  144OSM   C10F15902  -0.168   6.511   5.985 -0.9747  0.0443 -0.5762
  144OSM   H10F15903  -0.259   6.468   5.942  0.3643 -0.9399 -2.5780
  144OSM   C11F15904  -0.050   6.527   5.892 -1.2683 -0.2548 -0.6566
  144OSM   H11F15905  -0.019   6.440   5.831 -0.6377 -0.4689 -0.0420
  144OSM   H11G15906   0.040   6.552   5.952 -1.1968 -1.1909 -0.3524
  144OSM   C12F15907  -0.069   6.637   5.790  0.4618  0.2838 -0.0298
  144OSM   H12F15908  -0.088   6.729   5.848  0.5409 -0.3977  1.1219
  144OSM   H12G15909  -0.165   6.619   5.737  0.7429  0.3922 -0.5819
  144OSM   C13F15910   0.042   6.674   5.686 -0.5803  0.0497  0.1678
  144OSM   H13F15911   0.062   6.599   5.607 -0.4882  0.1991  0.0489
  144OSM   H13G15912   0.135   6.686   5.745 -0.7900 -1.6561  0.9258
  144OSM   C14F15913   0.011   6.807   5.626  0.4434 -0.1859  0.4226
  144OSM   H14F15914   0.024   6.892   5.695 -0.2711  1.4079 -1.3029
  144OSM   H14G15915  -0.095   6.809   5.593 -0.3227  0.4972  2.7979
  144OSM   C15F15916   0.091   6.845   5.496 -0.0441  0.2466  0.1927
  144OSM   H15F15917   0.192   6.802   5.507  0.9302  1.8415 -1.8940
  144OSM   H15G15918   0.102   6.956   5.501 -0.7259  0.3165  0.3402
  144OSM   C16F15919   0.013   6.790   5.373 -0.1432 -0.7929  0.0253
  144OSM   H16F15920  -0.085   6.843   5.372 -0.6571 -1.7223 -1.0356
  144OSM   H16G15921  -0.008   6.682   5.391 -1.0943 -0.6608 -0.2248
  144OSM   C17F15922   0.085   6.799   5.239  0.9142 -0.1136 -0.5412
  144OSM   H17F15923   0.012   6.752   5.171 -0.3546 -0.1980  0.8148
  144OSM   H17G15924   0.183   6.748   5.237  0.1904 -1.5319 -0.8770
  144OSM   C18F15925   0.112   6.943   5.202  0.7651 -0.1348  0.1948
  144OSM   H18F15926   0.187   6.984   5.273  0.4874  1.3063 -0.3097
  144OSM   H18G15927   0.014   6.992   5.189  0.5397 -1.0908 -2.4112
  144OSM   H18H15928   0.157   6.961   5.102  1.4701 -0.7700  0.3828
  145OSM      N15929   3.627   4.059   6.842  0.1059 -0.3274  0.9457
  145OSM    C1515930   3.694   4.103   6.710  0.1450 -0.4124  0.0488
  145OSM   H15A15931   3.625   4.159   6.648 -1.4742 -0.4696  1.7355
  145OSM   H15B15932   3.739   4.014   6.668  0.3069 -0.6877  0.7982
  145OSM   H15C15933   3.773   4.172   6.738  0.8300 -0.4671 -1.6380
  145OSM    C1415934   3.551   3.930   6.822  0.1239 -0.6018  0.0224
  145OSM   H14A15935   3.460   3.952   6.768  1.1737 -1.6525 -2.2982
  145OSM   H14B15936   3.519   3.886   6.915  0.4155  0.1476  0.4842
  145OSM   H14C15937   3.623   3.867   6.772 -0.2980 -1.1164  0.0588
  145OSM    C1315938   3.728   4.028   6.951  0.2435  0.1811  0.1105
  145OSM   H13A15939   3.806   3.963   6.914  0.1677  0.4386 -0.5202
  145OSM   H13B15940   3.681   3.983   7.036  0.6486  1.3331  0.9672
  145OSM   H13C15941   3.779   4.115   6.991 -0.4200  1.1670 -1.1043
  145OSM    C1215942   3.537   4.168   6.895  0.6572 -0.1907 -0.4038
  145OSM   H12A15943   3.586   4.259   6.925  0.8457 -0.3882 -0.0993
  145OSM   H12B15944   3.492   4.130   6.986  0.2705 -2.5983 -1.5177
  145OSM    C1115945   3.433   4.203   6.793  0.3157 -0.0370 -0.3779
  145OSM   H11A15946   3.367   4.114   6.781  0.3755 -0.6708  2.9736
  145OSM   H11B15947   3.482   4.226   6.696  1.6923  1.8079  0.6737
  145OSM      P15948   3.429   4.467   6.846  0.4083 -0.0256  0.0542
  145OSM    O1315949   3.367   4.545   6.949  0.2523  0.0153  0.4981
  145OSM    O1415950   3.573   4.452   6.873 -0.6975 -0.4061 -0.3752
  145OSM    O1115951   3.394   4.511   6.697  0.6110 -0.1663 -0.1286
  145OSM    O1215952   3.361   4.319   6.836 -1.1574  0.4637 -0.5001
  145OSM    C1S15953   3.266   4.483   6.635 -0.3320  0.6261 -0.2561
  145OSM    H1S15954   3.184   4.548   6.672  0.5372  1.4171  0.3265
  145OSM    H1T15955   3.235   4.377   6.640 -0.3595  0.6427 -0.0517
  145OSM     NF15956   3.141   4.494   6.425 -0.3649  0.0930  0.3037
  145OSM    HNF15957   3.129   4.416   6.364 -0.1702 -0.0563  0.4553
  145OSM    C2S15958   3.273   4.512   6.477 -0.6694 -0.2048 -0.3144
  145OSM    H2S15959   3.306   4.618   6.471  5.0572 -1.7418 -1.8568
  145OSM    C3S15960   3.396   4.436   6.416 -0.1118  0.5159  0.3023
  145OSM    H3S15961   3.389   4.325   6.412 -0.8618  0.5683 -0.1124
  145OSM     O315962   3.522   4.457   6.486 -0.1640 -0.8647  0.5261
  145OSM    HO315963   3.492   4.465   6.577  0.9018  1.8437  0.7559
  145OSM    C4S15964   3.405   4.472   6.266 -0.5261  0.2117 -0.0318
  145OSM    H4S15965   3.328   4.430   6.200  0.3617  1.0008 -1.6232
  145OSM    C5S15966   3.489   4.571   6.216 -0.3589  0.7298 -0.2949
  145OSM    H5S15967   3.541   4.627   6.295  1.1886  1.4189 -1.7432
  145OSM    C6S15968   3.491   4.619   6.074 -1.1492 -0.4650 -0.3310
  145OSM    H6S15969   3.565   4.569   6.009 -0.3795  1.7824 -1.2715
  145OSM    H6T15970   3.527   4.724   6.078  0.3426 -0.9796  2.6267
  145OSM    C7S15971   3.347   4.620   6.013  0.2507 -0.3115  0.5982
  145OSM    H7S15972   3.291   4.675   6.091 -0.8677  0.4581 -0.7029
  145OSM    H7T15973   3.307   4.517   6.010  0.1198 -0.2494  0.1284
  145OSM    C8S15974   3.343   4.676   5.873 -0.0323  0.2019 -0.3867
  145OSM    H8S15975   3.262   4.639   5.807  1.6001  0.9466 -2.9306
  145OSM    H8T15976   3.441   4.659   5.824  0.1710 -2.5541  0.7804
  145OSM    C9S15977   3.308   4.829   5.870  0.9075 -0.4271  0.1775
  145OSM    H9S15978   3.374   4.874   5.948  0.3596  0.1675  0.3065
  145OSM    H9T15979   3.201   4.833   5.898  0.1679 -2.3346 -2.0385
  145OSM   C10S15980   3.329   4.905   5.741 -0.4752  0.2261 -0.1930
  145OSM   H10S15981   3.439   4.914   5.724 -0.5921  2.3317 -0.1486
  145OSM   H10T15982   3.301   5.013   5.741  0.7653  0.5711 -0.6195
  145OSM   C11S15983   3.258   4.844   5.611  0.1104  0.8625 -0.0215
  145OSM   H11S15984   3.157   4.809   5.643 -0.2037 -0.3492 -2.1505
  145OSM   H11T15985   3.315   4.752   5.589  1.1025  1.0305  1.6338
  145OSM   C12S15986   3.244   4.930   5.484 -0.1153 -0.1509 -0.2701
  145OSM   H12S15987   3.338   4.988   5.477 -2.1268  3.7096  1.2731
  145OSM   H12T15988   3.177   5.014   5.515 -0.0384 -0.5010  0.8795
  145OSM   C13S15989   3.195   4.863   5.356  0.4051 -0.1121 -0.1791
  145OSM   H13S15990   3.281   4.827   5.295 -0.2505 -0.7615 -0.7504
  145OSM   H13T15991   3.140   4.939   5.296  0.3557  0.4086  0.5255
  145OSM   C14S15992   3.091   4.749   5.383 -0.1358 -0.0708  0.4980
  145OSM   H14S15993   3.122   4.676   5.461 -0.5237 -0.8541 -0.0797
  145OSM   H14T15994   3.071   4.691   5.290 -1.0968 -1.5497  1.5787
  145OSM   C15S15995   2.946   4.808   5.422  0.0089  0.3836  0.6605
  145OSM   H15S15996   2.960   4.910   5.464  0.6811 -0.0211  1.4486
  145OSM   H15T15997   2.909   4.742   5.504 -2.2653 -0.8975 -1.2516
  145OSM   C16S15998   2.844   4.800   5.310 -0.0136 -0.0861  0.2779
  145OSM   H16S15999   2.744   4.825   5.352  0.4199  0.7225  0.8706
  145OSM   H16T16000   2.837   4.702   5.259  0.7555  0.4579 -0.9112
  145OSM   C17S16001   2.870   4.899   5.191 -0.2598 -0.3935  0.4823
  145OSM   H17S16002   2.965   4.860   5.148 -0.0868 -0.0478  0.5478
  145OSM   H17T16003   2.877   5.001   5.234 -1.1696  0.3273 -1.0059
  145OSM   C18S16004   2.755   4.895   5.088 -0.2065 -0.1525 -0.6246
  145OSM   H18S16005   2.658   4.934   5.128 -0.3495 -0.6758 -0.4628
  145OSM   H18T16006   2.738   4.790   5.056  0.8501 -0.1262 -1.3030
  145OSM   H18U16007   2.783   4.967   5.008  0.0742 -1.3571 -1.6236
  145OSM    C1F16008   3.043   4.580   6.445  0.4638  0.1181  0.9416
  145OSM     OF16009   3.055   4.683   6.512  0.5695 -0.3159  0.0500
  145OSM    C2F16010   2.914   4.547   6.385 -0.4660  0.0607 -0.3475
  145OSM    H2F16011   2.839   4.569   6.463 -1.1265  0.4311 -1.0711
  145OSM    H2G16012   2.905   4.438   6.365 -1.4277 -0.4210  2.2980
  145OSM    C3F16013   2.899   4.632   6.258 -0.2552  0.2185  0.1703
  145OSM    H3F16014   2.900   4.739   6.286 -1.6009 -0.1116  1.6480
  145OSM    H3G16015   2.792   4.611   6.237 -0.4303 -0.7088  1.7637
  145OSM    C4F16016   2.975   4.593   6.124 -0.3687  0.1298  0.4664
  145OSM    H4F16017   2.924   4.496   6.105  1.7093 -1.1336  1.0688
  145OSM    H4G16018   3.083   4.579   6.144  0.7927  2.3516 -3.1353
  145OSM    C5F16019   2.942   4.676   6.004 -0.3739  0.2914 -0.4480
  145OSM    H5F16020   3.027   4.670   5.933  0.5356  2.0841  0.4107
  145OSM    H5G16021   2.927   4.781   6.037 -1.1078 -0.2051  0.8811
  145OSM    C6F16022   2.816   4.634   5.935  0.0400  0.0619  0.2356
  145OSM    H6F16023   2.781   4.720   5.874  2.2355 -0.2776 -1.6689
  145OSM    H6G16024   2.744   4.620   6.018 -1.7300  1.2993 -0.9916
  145OSM    C7F16025   2.831   4.527   5.829  0.3911  0.0619  0.0768
  145OSM    H7F16026   2.871   4.434   5.874  0.5973 -1.6038 -3.1848
  145OSM    H7G16027   2.896   4.569   5.749 -1.2277 -0.1836 -1.4560
  145OSM    C8F16028   2.689   4.485   5.762 -0.2631  0.2702  0.6192
  145OSM    H8F16029   2.642   4.572   5.712 -1.7798  0.0685  1.6298
  145OSM    H8G16030   2.619   4.478   5.848  2.0561  3.2193  2.9764
  145OSM    C9F16031   2.691   4.358   5.683  0.4536 -0.1994 -0.1867
  145OSM    H9F16032   2.708   4.265   5.739  0.7450 -1.6910 -2.6137
  145OSM   C10F16033   2.690   4.354   5.549  0.0041 -0.1360 -0.4522
  145OSM   H10F16034   2.690   4.251   5.511 -2.9381 -0.2046 -0.4698
  145OSM   C11F16035   2.683   4.459   5.438  0.2704  0.2529  0.7026
  145OSM   H11F16036   2.747   4.424   5.354 -1.9789  0.2791 -1.1106
  145OSM   H11G16037   2.738   4.553   5.461 -1.0621  1.1800  0.2233
  145OSM   C12F16038   2.542   4.482   5.385  0.0730  0.3050  0.5253
  145OSM   H12F16039   2.497   4.535   5.471  0.5482  0.4709  0.6773
  145OSM   H12G16040   2.496   4.383   5.365  0.2090  0.5822 -1.3347
  145OSM   C13F16041   2.548   4.557   5.252  0.3501  0.6993  1.0290
  145OSM   H13F16042   2.612   4.647   5.244  0.9223  0.1561 -1.7735
  145OSM   H13G16043   2.443   4.579   5.222 -0.0837 -1.5897  0.6050
  145OSM   C14F16044   2.586   4.462   5.137  0.4504 -0.0576  0.1209
  145OSM   H14F16045   2.547   4.363   5.167 -0.7900  1.2710  3.3217
  145OSM   H14G16046   2.697   4.461   5.146  0.3835 -0.4441  1.0400
  145OSM   C15F16047   2.536   4.508   4.998  0.1156 -0.0655  0.5134
  145OSM   H15F16048   2.574   4.612   4.993  1.7416 -0.5145  2.3206
  145OSM   H15G16049   2.425   4.500   5.001  0.1516 -0.8983 -0.0235
  145OSM   C16F16050   2.588   4.416   4.891  0.2515 -0.0192  0.2897
  145OSM   H16F16051   2.542   4.455   4.797  0.2259  1.6116  0.9502
  145OSM   H16G16052   2.560   4.309   4.907 -1.8011  0.4921  0.4494
  145OSM   C17F16053   2.742   4.421   4.878 -0.6080  0.5194  0.4938
  145OSM   H17F16054   2.772   4.324   4.833 -0.6582 -0.8844  3.3033
  145OSM   H17G16055   2.806   4.423   4.968  1.5114 -1.5482 -0.8616
  145OSM   C18F16056   2.797   4.528   4.785  0.1248  0.5259 -0.5922
  145OSM   H18F16057   2.749   4.505   4.688  2.0558 -1.0938 -1.2426
  145OSM   H18G16058   2.906   4.549   4.773 -0.2412  2.9431 -0.1920
  145OSM   H18H16059   2.761   4.627   4.819  0.1455  0.2291  0.3206
  146OSM      N16060   6.584   2.608   7.475 -0.0629  0.1495  0.1036
  146OSM    C1516061   6.502   2.724   7.538  0.0383 -0.2899  0.0652
  146OSM   H15A16062   6.489   2.805   7.468 -1.8625  0.0990  0.8039
  146OSM   H15B16063   6.545   2.783   7.618 -1.0049  1.1768 -0.4208
  146OSM   H15C16064   6.400   2.698   7.562 -0.3203  1.5866  0.7568
  146OSM    C1416065   6.723   2.658   7.500  0.2465 -0.3622  0.0024
  146OSM   H14A16066   6.796   2.594   7.453 -0.1349 -0.0674 -1.0277
  146OSM   H14B16067   6.743   2.660   7.606 -2.3145 -0.3585  0.5665
  146OSM   H14C16068   6.733   2.758   7.459 -0.2600 -0.3046  0.0077
  146OSM    C1316069   6.571   2.480   7.551  0.1010  0.1809  0.8877
  146OSM   H13A16070   6.546   2.506   7.653 -0.9077  3.2422 -0.0362
  146OSM   H13B16071   6.659   2.417   7.551 -0.8907 -1.2799 -0.5496
  146OSM   H13C16072   6.498   2.416   7.504  0.3663  1.1510 -0.9188
  146OSM    C1216073   6.554   2.584   7.330 -0.6023  0.1614 -0.2409
  146OSM   H12A16074   6.448   2.580   7.313 -0.5794 -0.4376 -0.2549
  146OSM   H12B16075   6.600   2.491   7.298 -2.2382 -1.2500  1.3042
  146OSM    C1116076   6.599   2.694   7.229 -0.1993 -0.1015  0.4844
  146OSM   H11A16077   6.596   2.664   7.122 -0.5686 -0.5371  0.6127
  146OSM   H11B16078   6.703   2.728   7.244 -0.6536  1.5112  0.1492
  146OSM      P16079   6.381   2.825   7.205  0.1396  0.0581  0.2718
  146OSM    O1316080   6.339   2.693   7.148  0.0635  0.5653 -0.5277
  146OSM    O1416081   6.290   2.888   7.302 -0.5021  0.3813  0.4242
  146OSM    O1116082   6.392   2.921   7.080  0.1957 -0.1304  0.7398
  146OSM    O1216083   6.534   2.819   7.256 -0.3908  0.2970 -0.1783
  146OSM    C1S16084   6.520   2.935   7.019  0.0333 -0.2275  0.7051
  146OSM    H1S16085   6.560   2.834   6.996 -0.7255 -0.4451  0.2926
  146OSM    H1T16086   6.583   2.992   7.090 -0.1115  0.3181  0.4033
  146OSM     NF16087   6.629   2.997   6.806  0.3092  0.2776 -0.2860
  146OSM    HNF16088   6.691   3.076   6.801  0.4886  0.1221 -0.5796
  146OSM    C2S16089   6.503   3.004   6.879 -0.1194 -0.5267  0.2746
  146OSM    H2S16090   6.430   2.947   6.819  0.5544  1.0151 -2.1386
  146OSM    C3S16091   6.436   3.141   6.889 -0.3440 -0.3773 -0.2341
  146OSM    H3S16092   6.493   3.208   6.956 -0.9272 -0.8040  0.7107
  146OSM     O316093   6.308   3.150   6.956  0.3781 -0.6556 -0.3210
  146OSM    HO316094   6.312   3.070   7.009  2.3212 -0.2596  0.2205
  146OSM    C4S16095   6.432   3.207   6.755 -0.2529 -0.1909 -0.3207
  146OSM    H4S16096   6.369   3.154   6.681 -0.7364  1.5236 -1.1736
  146OSM    C5S16097   6.481   3.328   6.721 -0.5106 -0.2939  0.5066
  146OSM    H5S16098   6.524   3.400   6.792 -0.3374  0.4787 -0.3710
  146OSM    C6S16099   6.460   3.381   6.580  0.0844  0.0475  0.1650
  146OSM    H6S16100   6.563   3.392   6.539 -0.4400  0.3873 -1.0929
  146OSM    H6T16101   6.423   3.486   6.588  0.7751  0.2375  1.0111
  146OSM    C7S16102   6.359   3.315   6.488  0.2434  0.0492  0.6577
  146OSM    H7S16103   6.259   3.339   6.528 -0.3009  2.0991 -1.7065
  146OSM    H7T16104   6.371   3.207   6.465 -0.0509  0.3022 -0.7794
  146OSM    C8S16105   6.354   3.387   6.351 -0.1014 -0.8608  0.6538
  146OSM    H8S16106   6.453   3.365   6.306  0.0284  0.4051  0.2845
  146OSM    H8T16107   6.354   3.497   6.367  2.0899 -0.9308  1.3939
  146OSM    C9S16108   6.248   3.335   6.257  0.2439 -0.2453  0.2660
  146OSM    H9S16109   6.150   3.363   6.302  0.9496  1.8049  0.6354
  146OSM    H9T16110   6.246   3.224   6.266 -1.6080 -0.1803  1.0238
  146OSM   C10S16111   6.256   3.386   6.113  0.1765 -0.1392  0.0497
  146OSM   H10S16112   6.359   3.401   6.075 -0.3663 -1.1556 -1.9277
  146OSM   H10T16113   6.204   3.483   6.102  1.3271  0.3582 -1.3258
  146OSM   C11S16114   6.193   3.291   6.003  0.2154  0.6465 -0.0963
  146OSM   H11S16115   6.091   3.259   6.032  1.0484 -0.9334  1.1788
  146OSM   H11T16116   6.254   3.198   6.000 -0.7722 -0.0072 -2.4628
  146OSM   C12S16117   6.198   3.358   5.866 -0.3789 -0.5175  0.5866
  146OSM   H12S16118   6.304   3.372   5.835 -0.2467 -2.9560 -0.2567
  146OSM   H12T16119   6.139   3.452   5.859  0.3103 -0.1077  0.1278
  146OSM   C13S16120   6.144   3.275   5.745  0.2334 -0.5943 -0.5506
  146OSM   H13S16121   6.045   3.237   5.777  0.2214  0.3442  0.5600
  146OSM   H13T16122   6.219   3.194   5.733 -0.2619 -1.1167 -0.1652
  146OSM   C14S16123   6.127   3.358   5.613 -0.3323 -0.2080 -0.3760
  146OSM   H14S16124   6.227   3.395   5.582 -1.0544  3.1443  0.8598
  146OSM   H14T16125   6.082   3.455   5.643  0.9828  0.2198  0.3329
  146OSM   C15S16126   6.048   3.280   5.504 -0.6849  0.1718 -0.0616
  146OSM   H15S16127   5.951   3.262   5.554 -0.7993 -1.8813 -0.9059
  146OSM   H15T16128   6.087   3.180   5.474  1.3473  0.2622  1.9724
  146OSM   C16S16129   6.031   3.349   5.374 -0.2575 -0.8836  0.4601
  146OSM   H16S16130   6.104   3.301   5.306 -0.7754 -2.2741  0.8610
  146OSM   H16T16131   6.050   3.458   5.384 -0.2166 -0.7193 -1.1694
  146OSM   C17S16132   5.892   3.348   5.300  0.1474 -0.0211  0.0578
  146OSM   H17S16133   5.814   3.402   5.358 -0.7353  1.2701 -2.2265
  146OSM   H17T16134   5.867   3.239   5.297  2.6329 -0.6480  0.3848
  146OSM   C18S16135   5.886   3.408   5.159  0.0394  0.5540 -0.5176
  146OSM   H18S16136   5.972   3.361   5.105  0.2794  1.3743 -0.8678
  146OSM   H18T16137   5.902   3.518   5.152 -2.2452  1.1494  2.2226
  146OSM   H18U16138   5.797   3.382   5.098  0.3914  1.5563 -1.5120
  146OSM    C1F16139   6.666   2.882   6.749 -0.0832 -0.1143  0.1450
  146OSM     OF16140   6.599   2.782   6.762  0.1558  0.3393 -0.0906
  146OSM    C2F16141   6.788   2.870   6.664  0.2862  0.0457 -0.3641
  146OSM    H2F16142   6.876   2.856   6.731  0.5807 -0.5942 -0.8831
  146OSM    H2G16143   6.816   2.965   6.614 -0.9081  0.5096 -0.1778
  146OSM    C3F16144   6.789   2.759   6.554 -0.6724  0.2241  0.6759
  146OSM    H3F16145   6.704   2.774   6.485  0.3081 -0.5405 -0.7627
  146OSM    H3G16146   6.784   2.656   6.596  0.9459  0.4539  1.4892
  146OSM    C4F16147   6.911   2.757   6.468 -0.2916  0.0833 -0.2208
  146OSM    H4F16148   6.993   2.731   6.538 -0.1856  1.8970  0.3756
  146OSM    H4G16149   6.930   2.864   6.446 -1.7719  0.2592 -0.7021
  146OSM    C5F16150   6.901   2.670   6.346 -0.3014 -0.2734  1.1557
  146OSM    H5F16151   6.803   2.693   6.299 -0.5128  1.3098  2.2879
  146OSM    H5G16152   6.902   2.568   6.390  1.6734 -0.1820  1.4059
  146OSM    C6F16153   7.020   2.666   6.253  0.4061  0.3083 -0.3994
  146OSM    H6F16154   7.011   2.568   6.201  0.0884 -0.0908  0.3904
  146OSM    H6G16155   7.112   2.669   6.314 -1.7597  2.4139  3.1031
  146OSM    C7F16156   7.017   2.786   6.164 -0.3326  0.3039 -0.7682
  146OSM    H7F16157   7.032   2.866   6.239  4.5974 -1.5583  0.6626
  146OSM    H7G16158   6.927   2.800   6.100 -0.5926  0.4478 -0.3730
  146OSM    C8F16159   7.140   2.789   6.071  0.4579 -0.1134  0.0396
  146OSM    H8F16160   7.231   2.778   6.132 -0.1719  0.2510  1.0624
  146OSM    H8G16161   7.131   2.894   6.036 -1.0984 -0.1621  0.2261
  146OSM    C9F16162   7.144   2.684   5.973  0.4869 -0.5833  0.3569
  146OSM    H9F16163   7.111   2.585   6.008 -0.7770 -1.1328 -2.1526
  146OSM   C10F16164   7.188   2.703   5.846  0.1573  0.7487 -0.3233
  146OSM   H10F16165   7.178   2.616   5.779 -0.0645  0.5442 -0.0256
  146OSM   C11F16166   7.243   2.832   5.783  0.1374 -0.4052  0.0375
  146OSM   H11F16167   7.354   2.830   5.788  0.2439 -0.0665 -1.6948
  146OSM   H11G16168   7.201   2.913   5.846 -1.0959 -0.1108 -1.1191
  146OSM   C12F16169   7.189   2.865   5.642  0.0944  0.0850  0.0653
  146OSM   H12F16170   7.199   2.973   5.620 -1.5033  0.9182  3.0393
  146OSM   H12G16171   7.080   2.846   5.641  0.3224 -1.3881 -0.1888
  146OSM   C13F16172   7.258   2.780   5.534 -0.0531  1.0873 -0.8647
  146OSM   H13F16173   7.236   2.671   5.543  2.0685  0.6686 -0.1215
  146OSM   H13G16174   7.369   2.787   5.537  0.0028  0.1964 -0.6660
  146OSM   C14F16175   7.208   2.830   5.396 -0.4417  0.3408  0.3700
  146OSM   H14F16176   7.100   2.858   5.392  0.0543  2.3263 -2.4913
  146OSM   H14G16177   7.258   2.927   5.379 -0.7125  0.8188  2.1137
  146OSM   C15F16178   7.223   2.739   5.275  0.1813 -0.2901 -0.0632
  146OSM   H15F16179   7.164   2.774   5.187 -0.1357  0.4675  0.4369
  146OSM   H15G16180   7.177   2.641   5.300  2.6821 -1.3865  0.4408
  146OSM   C16F16181   7.375   2.715   5.239  0.0773  0.2036  0.8089
  146OSM   H16F16182   7.440   2.683   5.324  1.5657 -1.8271 -0.9769
  146OSM   H16G16183   7.407   2.814   5.202  0.4790  0.4258  1.7093
  146OSM   C17F16184   7.396   2.611   5.132  0.1373  0.1541  0.6480
  146OSM   H17F16185   7.336   2.522   5.158 -1.3362  0.8497 -0.2131
  146OSM   H17G16186   7.500   2.571   5.130  0.5193  1.1405  0.1033
  146OSM   C18F16187   7.368   2.661   4.991  0.2144 -0.0505  0.4427
  146OSM   H18F16188   7.265   2.700   4.992  0.3781  0.4464 -0.7584
  146OSM   H18G16189   7.381   2.577   4.920 -3.9373 -0.9081  0.4590
  146OSM   H18H16190   7.430   2.750   4.967 -0.3289  0.9388  2.5139
  147OSM      N16191   0.498   1.018   2.468  0.2647  0.2059  0.0657
  147OSM    C1516192   0.559   1.089   2.592  0.6820 -0.1423 -0.1315
  147OSM   H15A16193   0.532   1.193   2.601 -0.1464 -0.5132  2.7938
  147OSM   H15B16194   0.667   1.085   2.588  0.6394 -1.1391 -0.7255
  147OSM   H15C16195   0.536   1.038   2.685 -1.9738  1.9807  0.5027
  147OSM    C1416196   0.570   0.887   2.434  0.8847  0.2681  0.3220
  147OSM   H14A16197   0.570   0.826   2.523  1.9883 -0.1634  0.0440
  147OSM   H14B16198   0.673   0.915   2.418  0.5930  1.6131  0.6654
  147OSM   H14C16199   0.534   0.835   2.346  1.1764 -0.0173  0.3729
  147OSM    C1316200   0.356   0.990   2.494 -0.2323  0.2352  0.6773
  147OSM   H13A16201   0.300   0.931   2.423 -0.7636  0.9772  0.4725
  147OSM   H13B16202   0.297   1.080   2.502  1.4993  1.4578  0.2140
  147OSM   H13C16203   0.350   0.931   2.585  0.2120 -0.5197  0.2238
  147OSM    C1216204   0.501   1.122   2.360 -0.1646  0.1581 -0.5686
  147OSM   H12A16205   0.431   1.084   2.287  1.7453 -2.5174 -1.1772
  147OSM   H12B16206   0.594   1.123   2.305 -0.0920 -0.7534 -0.4873
  147OSM    C1116207   0.469   1.270   2.393  0.1374 -0.7622  0.2019
  147OSM   H11A16208   0.468   1.340   2.307  2.9128 -2.3056 -1.2189
  147OSM   H11B16209   0.548   1.320   2.453  0.3094 -1.6512  0.7392
  147OSM      P16210   0.315   1.402   2.565  0.0589  0.3497 -0.3698
  147OSM    O1316211   0.337   1.527   2.497  0.4091  0.0650 -0.1566
  147OSM    O1416212   0.183   1.368   2.619 -0.4353  0.6181  0.4399
  147OSM    O1116213   0.430   1.381   2.680 -0.0997 -0.6130 -0.2881
  147OSM    O1216214   0.356   1.288   2.471  0.6463  0.0797  0.0728
  147OSM    C1S16215   0.391   1.340   2.812 -0.9297 -0.5265 -0.4842
  147OSM    H1S16216   0.341   1.241   2.806 -1.1574 -0.3481 -2.0639
  147OSM    H1T16217   0.318   1.412   2.855 -0.3206 -0.7354  0.9333
  147OSM     NF16218   0.463   1.308   3.034 -0.3810 -0.4892 -0.3562
  147OSM    HNF16219   0.457   1.375   3.108  2.7434  2.2467 -2.2951
  147OSM    C2S16220   0.515   1.354   2.908  0.2670  0.2261  0.6211
  147OSM    H2S16221   0.597   1.291   2.868  2.4837  2.6443  1.0679
  147OSM    C3S16222   0.573   1.497   2.910  0.0856  0.1215 -0.1550
  147OSM    H3S16223   0.499   1.576   2.938 -0.8780 -1.5520  2.3177
  147OSM     O316224   0.629   1.548   2.788  0.2215 -0.2523  0.2716
  147OSM    HO316225   0.579   1.503   2.720  2.2642 -1.1502 -0.7350
  147OSM    C4S16226   0.676   1.499   3.014 -0.1304  0.2718  0.1038
  147OSM    H4S16227   0.764   1.441   2.983 -1.1878 -0.7952 -0.9441
  147OSM    C5S16228   0.683   1.575   3.127  0.8769  0.9365 -0.0296
  147OSM    H5S16229   0.602   1.643   3.158  0.7809  0.0508  1.8392
  147OSM    C6S16230   0.808   1.572   3.209 -0.2575 -0.2016 -0.0995
  147OSM    H6S16231   0.880   1.646   3.166  1.8368 -2.9402 -1.6358
  147OSM    H6T16232   0.869   1.480   3.202 -0.8133 -0.7531  1.6561
  147OSM    C7S16233   0.778   1.596   3.355  0.3392  0.6481  0.7797
  147OSM    H7S16234   0.685   1.546   3.388 -0.9128  2.9467  0.9647
  147OSM    H7T16235   0.766   1.707   3.360  0.8025  0.7659 -0.4111
  147OSM    C8S16236   0.897   1.554   3.444 -0.0313 -1.0169 -0.6807
  147OSM    H8S16237   0.979   1.627   3.435 -1.8148  1.9202  3.6996
  147OSM    H8T16238   0.924   1.448   3.423  2.3330 -0.6802  0.3924
  147OSM    C9S16239   0.862   1.570   3.588  0.6452  0.0608 -0.0898
  147OSM    H9S16240   0.931   1.507   3.648  0.9658 -0.0252 -0.5368
  147OSM    H9T16241   0.766   1.519   3.611  0.9308 -0.5198 -0.1586
  147OSM   C10S16242   0.847   1.717   3.632 -0.7960  0.9275  0.2489
  147OSM   H10S16243   0.823   1.789   3.550  2.2215  0.0456 -1.5605
  147OSM   H10T16244   0.949   1.740   3.669 -0.3909 -0.8319  0.3197
  147OSM   C11S16245   0.752   1.736   3.747 -0.6416  0.3407  0.1990
  147OSM   H11S16246   0.651   1.697   3.722 -0.5693  1.6676 -2.5941
  147OSM   H11T16247   0.737   1.844   3.768  1.8116  0.2628  2.8998
  147OSM   C12S16248   0.792   1.668   3.879  0.0822 -0.2585 -0.4340
  147OSM   H12S16249   0.805   1.558   3.883 -1.7020 -0.4589  1.0433
  147OSM   H12T16250   0.704   1.684   3.945  0.1432 -1.2669 -0.0994
  147OSM   C13S16251   0.920   1.728   3.950 -0.0299 -0.4644 -0.9275
  147OSM   H13S16252   0.930   1.838   3.942 -1.5076 -0.2211  0.1959
  147OSM   H13T16253   1.016   1.688   3.911 -0.3254 -0.1618 -1.9878
  147OSM   C14S16254   0.917   1.687   4.100  0.1352  0.2661 -0.1801
  147OSM   H14S16255   0.826   1.726   4.150  0.2891  0.1163  0.2220
  147OSM   H14T16256   0.997   1.743   4.153 -1.7354  0.4047  2.6995
  147OSM   C15S16257   0.955   1.543   4.134  0.3408 -0.0936  0.2399
  147OSM   H15S16258   1.056   1.521   4.093  1.2971 -1.4771  3.0909
  147OSM   H15T16259   0.881   1.469   4.096  0.5365  1.3452 -3.2744
  147OSM   C16S16260   0.983   1.516   4.280  0.5103 -0.0095 -0.0679
  147OSM   H16S16261   1.060   1.583   4.324 -0.6110  0.6524  0.9418
  147OSM   H16T16262   1.021   1.412   4.281  0.4592 -0.0238  1.1559
  147OSM   C17S16263   0.863   1.527   4.373  0.5677 -0.2933 -0.6002
  147OSM   H17S16264   0.776   1.495   4.312 -0.9787 -1.2554  1.9565
  147OSM   H17T16265   0.850   1.633   4.403 -1.2588 -1.0652  1.6695
  147OSM   C18S16266   0.864   1.448   4.500 -1.2331  0.5533 -0.1680
  147OSM   H18S16267   0.966   1.448   4.544 -0.4849 -1.8336 -1.7134
  147OSM   H18T16268   0.853   1.340   4.481 -0.5197  0.0254  2.1021
  147OSM   H18U16269   0.788   1.498   4.565 -2.6777 -0.6252 -0.8993
  147OSM    C1F16270   0.447   1.178   3.068  0.2345 -0.1948  0.6777
  147OSM     OF16271   0.504   1.095   2.999  0.1921 -0.0352 -0.1704
  147OSM    C2F16272   0.393   1.156   3.205 -0.6878 -0.3122 -0.1120
  147OSM    H2F16273   0.305   1.222   3.216 -1.1839 -0.2845 -3.3136
  147OSM    H2G16274   0.478   1.178   3.274 -0.0415 -0.6747 -0.7809
  147OSM    C3F16275   0.368   1.007   3.245 -0.1541 -0.7728 -0.1811
  147OSM    H3F16276   0.460   0.954   3.210  0.5299 -0.0087  0.4174
  147OSM    H3G16277   0.288   0.965   3.181  1.1500 -1.3906 -1.4683
  147OSM    C4F16278   0.344   0.988   3.397  0.4086  0.4305 -0.4177
  147OSM    H4F16279   0.426   1.050   3.438  0.3611  2.0235 -2.5338
  147OSM    H4G16280   0.352   0.881   3.422  1.6920  0.0640 -2.2065
  147OSM    C5F16281   0.208   1.047   3.444  0.4270 -0.4554 -0.2027
  147OSM    H5F16282   0.132   0.974   3.411 -0.1230 -0.5007  1.0990
  147OSM    H5G16283   0.169   1.139   3.394  0.6922 -1.2263 -1.9126
  147OSM    C6F16284   0.192   1.067   3.595  0.0309  0.0301  1.5229
  147OSM    H6F16285   0.282   1.125   3.623  0.2425  0.2126  0.5162
  147OSM    H6G16286   0.193   0.976   3.660 -0.1378 -0.0927  1.3580
  147OSM    C7F16287   0.070   1.152   3.627 -0.8474  0.3584 -0.2222
  147OSM    H7F16288  -0.020   1.094   3.600  0.5814 -1.8992 -0.4447
  147OSM    H7G16289   0.085   1.249   3.574 -0.5416  1.1269  1.2023
  147OSM    C8F16290   0.080   1.180   3.779 -0.5396 -0.4897 -0.2872
  147OSM    H8F16291   0.182   1.220   3.802 -0.9014  2.7769 -3.4324
  147OSM    H8G16292   0.071   1.088   3.840 -0.4474 -0.1240  0.2853
  147OSM    C9F16293  -0.014   1.275   3.840  0.0284  0.3647  0.1148
  147OSM    H9F16294  -0.111   1.268   3.788  1.1101 -1.6733 -1.8019
  147OSM   C10F16295   0.017   1.385   3.910  0.1757 -0.6038  0.3440
  147OSM   H10F16296  -0.066   1.447   3.949  1.3503  0.5809  1.0189
  147OSM   C11F16297   0.150   1.432   3.970 -0.4433  0.3039 -0.1286
  147OSM   H11F16298   0.141   1.542   3.981 -1.6618  0.1856  0.1979
  147OSM   H11G16299   0.238   1.434   3.903  0.7271  1.0340  1.3666
  147OSM   C12F16300   0.188   1.378   4.110 -0.5397  0.2408  0.3321
  147OSM   H12F16301   0.237   1.283   4.080 -0.6538  0.2582  0.0895
  147OSM   H12G16302   0.096   1.362   4.171 -0.1104 -1.5040  0.5859
  147OSM   C13F16303   0.288   1.459   4.183 -0.4189 -0.5118  0.2014
  147OSM   H13F16304   0.348   1.521   4.113  0.8481 -0.8265  0.9624
  147OSM   H13G16305   0.363   1.399   4.240 -0.1687  1.2033  1.7929
  147OSM   C14F16306   0.220   1.561   4.273  0.2036 -0.4583  0.5365
  147OSM   H14F16307   0.137   1.510   4.326 -0.8869  0.4813 -0.2176
  147OSM   H14G16308   0.164   1.644   4.224  1.3235 -0.4793 -0.8629
  147OSM   C15F16309   0.319   1.619   4.380  0.2878 -0.3957  0.0418
  147OSM   H15F16310   0.390   1.548   4.428 -0.0231  0.1376  1.3054
  147OSM   H15G16311   0.255   1.669   4.455 -1.4756  1.7863 -2.7151
  147OSM   C16F16312   0.416   1.732   4.325  0.1892 -0.1028 -0.3802
  147OSM   H16F16313   0.353   1.806   4.272 -0.3699  0.3494  0.8680
  147OSM   H16G16314   0.474   1.674   4.251  1.8857  0.8980  0.1189
  147OSM   C17F16315   0.513   1.797   4.426 -0.0950 -0.5025  0.1084
  147OSM   H17F16316   0.581   1.870   4.377 -0.7266 -0.9776 -1.5472
  147OSM   H17G16317   0.577   1.731   4.488  1.5215  1.4250  0.6067
  147OSM   C18F16318   0.425   1.874   4.526  0.2926 -0.1859 -0.8781
  147OSM   H18F16319   0.478   1.945   4.593  0.3919 -0.1934 -0.9475
  147OSM   H18G16320   0.368   1.816   4.601 -1.4942  1.1393 -1.1150
  147OSM   H18H16321   0.351   1.940   4.474 -0.1637 -1.9635 -2.6026
  148OSM      N16322   1.248   0.927   2.343  0.0862  0.4851  0.4749
  148OSM    C1516323   1.133   0.839   2.302 -0.4344  0.1486  0.0703
  148OSM   H15A16324   1.101   0.872   2.204 -0.5337 -0.4272 -0.0954
  148OSM   H15B16325   1.042   0.857   2.357 -1.0039  2.5123 -1.4786
  148OSM   H15C16326   1.163   0.735   2.299 -0.8600  0.0317 -0.2614
  148OSM    C1416327   1.365   0.894   2.259 -0.3544 -0.5210  0.3703
  148OSM   H14A16328   1.327   0.916   2.161 -0.8041  2.8546  1.1720
  148OSM   H14B16329   1.402   0.793   2.269  1.4596  0.1922  1.4628
  148OSM   H14C16330   1.459   0.945   2.273 -0.4044  0.0222 -1.1491
  148OSM    C1316331   1.204   1.069   2.322 -0.5152  0.1996  0.2594
  148OSM   H13A16332   1.187   1.090   2.217  1.9079  2.5496  0.2364
  148OSM   H13B16333   1.274   1.135   2.370  1.3943 -1.4821 -0.0889
  148OSM   H13C16334   1.113   1.095   2.374 -1.8132  0.7010 -2.1006
  148OSM    C1216335   1.283   0.911   2.498 -0.1629 -0.7425  0.0746
  148OSM   H12A16336   1.353   0.990   2.518 -0.1691  0.0446 -2.5433
  148OSM   H12B16337   1.347   0.826   2.518  2.0978  1.1336  1.3406
  148OSM    C1116338   1.169   0.913   2.599 -0.1734 -0.8347  0.1643
  148OSM   H11A16339   1.205   0.892   2.702  2.7684  2.9160  0.1113
  148OSM   H11B16340   1.106   0.826   2.570  0.9556 -1.3629 -0.7880
  148OSM      P16341   1.139   1.145   2.699  0.6757  0.1030 -0.0488
  148OSM    O1316342   1.290   1.144   2.713  0.2434 -0.2040  0.2329
  148OSM    O1416343   1.085   1.279   2.661  1.1328  0.0356  0.4058
  148OSM    O1116344   1.070   1.091   2.834  0.1766 -0.3767 -0.3182
  148OSM    O1216345   1.097   1.035   2.592 -0.2770 -0.4582  0.3648
  148OSM    C1S16346   0.933   1.041   2.830 -0.3551 -0.5003  0.8792
  148OSM    H1S16347   0.949   0.940   2.787  0.2959 -0.2522  0.5227
  148OSM    H1T16348   0.861   1.101   2.771 -0.0359 -1.0959 -0.1331
  148OSM     NF16349   0.750   0.967   2.974 -0.3054  0.0269  0.1147
  148OSM    HNF16350   0.667   1.016   2.999  0.0993  0.4823  0.5852
  148OSM    C2S16351   0.879   1.034   2.974 -0.4249  0.2994  0.3105
  148OSM    H2S16352   0.956   0.993   3.043 -0.2887  1.0189  0.5948
  148OSM    C3S16353   0.860   1.173   3.028 -0.1665 -0.3970 -0.1361
  148OSM    H3S16354   0.794   1.235   2.964  1.0095  1.4051  0.2992
  148OSM     O316355   0.988   1.242   3.042  0.8355  0.6247 -0.1521
  148OSM    HO316356   1.044   1.195   2.980 -1.3606 -1.4976 -0.6883
  148OSM    C4S16357   0.783   1.163   3.164  0.1371  0.2823  0.0350
  148OSM    H4S16358   0.676   1.137   3.160 -0.0081  0.8653  0.0433
  148OSM    C5S16359   0.830   1.193   3.288  0.1755 -0.3756 -0.5177
  148OSM    H5S16360   0.931   1.228   3.315 -0.4681 -0.8202  3.0073
  148OSM    C6S16361   0.754   1.180   3.416  0.4431 -0.6034  0.6465
  148OSM    H6S16362   0.656   1.132   3.398  2.0756 -3.2156 -2.2784
  148OSM    H6T16363   0.749   1.282   3.460  2.0581 -0.0624 -0.3382
  148OSM    C7S16364   0.822   1.091   3.523 -0.1629  0.2049  0.0502
  148OSM    H7S16365   0.826   0.988   3.482  0.1874  0.5013 -0.6772
  148OSM    H7T16366   0.754   1.085   3.611  1.8905  1.7166  1.8424
  148OSM    C8S16367   0.955   1.142   3.584  0.4602  0.0135  0.4240
  148OSM    H8S16368   0.941   1.243   3.628  0.1985  0.6361 -1.0409
  148OSM    H8T16369   1.030   1.148   3.503 -0.3839  1.2929 -0.2942
  148OSM    C9S16370   1.029   1.059   3.690 -0.2948  0.4698  0.0661
  148OSM    H9S16371   1.087   0.975   3.647 -0.9218 -0.1529  0.4212
  148OSM    H9T16372   0.955   1.023   3.764 -3.2852  1.5151 -2.2423
  148OSM   C10S16373   1.123   1.146   3.777 -0.1307  0.8997  0.7039
  148OSM   H10S16374   1.085   1.248   3.798  0.6967  1.6335 -1.0961
  148OSM   H10T16375   1.226   1.157   3.735 -0.4687 -1.3772 -0.8887
  148OSM   C11S16376   1.139   1.078   3.912 -0.9066 -0.1289 -0.2646
  148OSM   H11S16377   1.192   0.984   3.886  0.3875  0.7141 -0.7854
  148OSM   H11T16378   1.036   1.061   3.950  0.2529 -0.3082  3.1376
  148OSM   C12S16379   1.222   1.158   4.015  0.0760 -1.0848  0.3520
  148OSM   H12S16380   1.214   1.266   3.988 -1.1073 -0.9471  1.1793
  148OSM   H12T16381   1.331   1.137   4.019  0.3266 -0.1465 -0.8158
  148OSM   C13S16382   1.162   1.148   4.154  0.2347  0.2386 -0.4169
  148OSM   H13S16383   1.056   1.180   4.144 -0.0024 -0.6643 -0.9798
  148OSM   H13T16384   1.216   1.217   4.222 -0.6509  1.3686 -0.8278
  148OSM   C14S16385   1.187   1.007   4.206  0.0226  0.0893 -0.3785
  148OSM   H14S16386   1.298   1.003   4.206  0.1490  1.3789  2.2000
  148OSM   H14T16387   1.155   0.925   4.138  1.0381 -0.0367 -0.7162
  148OSM   C15S16388   1.159   0.990   4.366 -0.6969 -0.2910 -0.1194
  148OSM   H15S16389   1.209   1.067   4.428  0.9391 -1.2386 -0.2255
  148OSM   H15T16390   1.206   0.890   4.379 -0.9847 -0.2672  1.2410
  148OSM   C16S16391   1.008   0.985   4.390 -0.2531  0.0589  0.4993
  148OSM   H16S16392   0.949   0.941   4.308 -0.0053 -0.4486  0.5887
  148OSM   H16T16393   0.970   1.089   4.398 -1.9771 -0.4357 -0.8340
  148OSM   C17S16394   0.966   0.909   4.514 -0.2922 -0.0362  0.9982
  148OSM   H17S16395   1.019   0.815   4.487 -2.0959 -0.8816  0.2259
  148OSM   H17T16396   0.862   0.869   4.510 -0.2571 -0.1071  0.7673
  148OSM   C18S16397   1.029   0.947   4.651 -0.1951 -0.6739  0.6969
  148OSM   H18S16398   1.012   0.858   4.715  1.7070 -1.5080  0.1183
  148OSM   H18T16399   0.996   1.043   4.695 -0.1883 -0.0538 -0.5996
  148OSM   H18U16400   1.140   0.954   4.643 -0.3391  0.9116 -0.4419
  148OSM    C1F16401   0.732   0.834   2.951  0.4337  0.0082 -0.2217
  148OSM     OF16402   0.822   0.764   2.907 -0.3379 -0.0677  0.2605
  148OSM    C2F16403   0.599   0.780   2.974  0.0963  0.3521  0.4932
  148OSM    H2F16404   0.555   0.764   2.873  1.4455  0.7732 -0.1838
  148OSM    H2G16405   0.539   0.857   3.028 -1.9810 -0.4406 -0.5671
  148OSM    C3F16406   0.603   0.656   3.061 -0.1499 -0.0279  0.7669
  148OSM    H3F16407   0.662   0.569   3.026 -0.3508 -0.0519  0.4827
  148OSM    H3G16408   0.497   0.625   3.071 -1.2617  3.2106  0.1346
  148OSM    C4F16409   0.657   0.690   3.202 -0.4438  0.0763 -0.0527
  148OSM    H4F16410   0.585   0.758   3.251  2.1558  0.9388  2.8700
  148OSM    H4G16411   0.752   0.748   3.196  0.1309 -0.7072  1.1578
  148OSM    C5F16412   0.682   0.568   3.301  0.1966 -0.3457 -0.4681
  148OSM    H5F16413   0.753   0.504   3.245 -1.0500 -1.2718 -1.0392
  148OSM    H5G16414   0.586   0.514   3.313  1.0187 -2.3998 -2.4688
  148OSM    C6F16415   0.767   0.604   3.426 -0.2531 -0.2241 -0.1306
  148OSM    H6F16416   0.845   0.672   3.387 -0.5302  0.9297  1.2315
  148OSM    H6G16417   0.803   0.504   3.457  2.3577  0.0801 -1.9285
  148OSM    C7F16418   0.676   0.659   3.535  0.1411  0.2475 -0.3193
  148OSM    H7F16419   0.604   0.579   3.563  1.2093 -0.8774 -0.7168
  148OSM    H7G16420   0.621   0.745   3.491  0.2926 -0.2967 -1.6342
  148OSM    C8F16421   0.748   0.707   3.662  0.2304 -0.6418 -0.9458
  148OSM    H8F16422   0.833   0.764   3.618 -0.1848  2.9729  2.3895
  148OSM    H8G16423   0.786   0.618   3.716  0.4675  0.7468  1.3227
  148OSM    C9F16424   0.676   0.801   3.762 -0.1070 -0.4599  0.7133
  148OSM    H9F16425   0.612   0.885   3.731  1.4218  1.0273  1.4263
  148OSM   C10F16426   0.699   0.799   3.895 -1.0090  0.0785 -0.3387
  148OSM   H10F16427   0.649   0.878   3.954 -0.6908  0.8409 -1.0648
  148OSM   C11F16428   0.789   0.707   3.971  0.0783  1.1485 -0.0492
  148OSM   H11F16429   0.898   0.715   3.950  0.4136 -0.8102  0.7636
  148OSM   H11G16430   0.769   0.604   3.937 -1.0558  1.9291 -1.9127
  148OSM   C12F16431   0.768   0.719   4.126 -0.0020 -0.1599  0.4161
  148OSM   H12F16432   0.790   0.823   4.155 -0.4827  0.9960 -2.9355
  148OSM   H12G16433   0.831   0.645   4.181 -1.0720 -0.5877  1.0925
  148OSM   C13F16434   0.620   0.683   4.176  0.2230  0.2250  0.6259
  148OSM   H13F16435   0.599   0.580   4.140 -1.7339  0.6058  0.5706
  148OSM   H13G16436   0.552   0.747   4.116  0.2772 -0.8279 -0.6138
  148OSM   C14F16437   0.608   0.697   4.329 -0.0722  0.8008 -0.1625
  148OSM   H14F16438   0.550   0.791   4.344 -1.3052 -0.2300  2.0967
  148OSM   H14G16439   0.711   0.710   4.370 -0.1929  0.2134  0.3332
  148OSM   C15F16440   0.537   0.591   4.406  0.3837 -0.0269  0.3147
  148OSM   H15F16441   0.508   0.607   4.512  1.0067  0.5809  0.4029
  148OSM   H15G16442   0.604   0.503   4.402  0.0042 -0.3512  0.9353
  148OSM   C16F16443   0.397   0.553   4.357  0.1158  0.0247  1.1616
  148OSM   H16F16444   0.402   0.477   4.276 -1.1827 -0.0183  1.0949
  148OSM   H16G16445   0.358   0.649   4.315  2.3017  0.8792  0.9648
  148OSM   C17F16446   0.300   0.495   4.453 -0.0054 -0.0826  0.3612
  148OSM   H17F16447   0.305   0.551   4.548 -0.3806 -0.4802  0.6180
  148OSM   H17G16448   0.321   0.388   4.477  0.0603 -0.5404 -1.5668
  148OSM   C18F16449   0.150   0.507   4.409  0.4164  0.0345  0.2150
  148OSM   H18F16450   0.064   0.493   4.478  0.9135  0.1313  0.8514
  148OSM   H18G16451   0.142   0.423   4.337  2.6977 -0.9924  1.0836
  148OSM   H18H16452   0.128   0.602   4.355  0.3042 -0.7173 -1.1077
  149OSM      N16453   5.729   4.496   2.029 -0.4054  0.0419  0.5934
  149OSM    C1516454   5.582   4.479   2.063 -0.4894 -0.0594  0.2109
  149OSM   H15A16455   5.565   4.466   2.169  2.2084  0.8918  0.8522
  149OSM   H15B16456   5.541   4.401   2.001  2.1934 -1.8399  0.5079
  149OSM   H15C16457   5.528   4.568   2.035 -1.1083 -0.3896  0.3504
  149OSM    C1416458   5.816   4.385   2.092  0.2277 -0.5401 -0.7146
  149OSM   H14A16459   5.921   4.404   2.071 -0.1666  2.1971 -0.6072
  149OSM   H14B16460   5.786   4.285   2.065 -3.6756  0.0961  0.6932
  149OSM   H14C16461   5.798   4.381   2.198 -0.8824 -0.7792 -0.9005
  149OSM    C1316462   5.751   4.509   1.884  0.8348 -0.7498 -0.0722
  149OSM   H13A16463   5.855   4.495   1.860  1.0560  2.7029 -1.7171
  149OSM   H13B16464   5.707   4.597   1.840  2.3710  0.0925  0.0274
  149OSM   H13C16465   5.708   4.423   1.834  1.0738 -0.5039 -0.7102
  149OSM    C1216466   5.773   4.637   2.079  0.3376  0.3122  1.1981
  149OSM   H12A16467   5.879   4.634   2.059  0.2010 -0.8027  0.5724
  149OSM   H12B16468   5.756   4.636   2.185  2.0184 -1.6021  1.5031
  149OSM    C1116469   5.712   4.764   2.011 -0.5839 -0.4473  0.3538
  149OSM   H11A16470   5.731   4.768   1.901 -3.4046  0.2326 -0.1945
  149OSM   H11B16471   5.775   4.849   2.043  2.2447 -1.8252 -1.1423
  149OSM      P16472   5.522   4.842   2.161  0.6373  0.0971  0.0928
  149OSM    O1316473   5.564   4.982   2.175  0.3237 -0.5658 -0.1447
  149OSM    O1416474   5.378   4.818   2.160  0.5192 -0.0011 -0.3105
  149OSM    O1116475   5.586   4.748   2.265  0.1825 -0.1203 -0.1265
  149OSM    O1216476   5.569   4.784   2.019 -0.2151  0.2878  0.1961
  149OSM    C1S16477   5.658   4.782   2.382  0.4005 -0.8488  0.0876
  149OSM    H1S16478   5.674   4.890   2.403  0.5923 -0.7544 -0.5279
  149OSM    H1T16479   5.766   4.756   2.374  0.1963 -1.6266 -0.1472
  149OSM     NF16480   5.701   4.762   2.620 -0.5909 -1.2053 -0.3156
  149OSM    HNF16481   5.785   4.715   2.646  1.0170  1.4431 -0.3420
  149OSM    C2S16482   5.617   4.717   2.516  0.0819 -0.1105 -0.1635
  149OSM    H2S16483   5.518   4.760   2.541  0.7199  1.1063  0.3709
  149OSM    C3S16484   5.588   4.562   2.501  0.2917  0.1358 -0.0152
  149OSM    H3S16485   5.674   4.501   2.465  0.1872 -1.3505  2.1235
  149OSM     O316486   5.482   4.539   2.412 -0.1912  0.1839 -0.3172
  149OSM    HO316487   5.484   4.621   2.363 -0.8679 -0.5561 -1.6490
  149OSM    C4S16488   5.556   4.509   2.638  0.5011 -0.6388 -0.3621
  149OSM    H4S16489   5.460   4.546   2.677  0.5662 -0.6911 -0.1525
  149OSM    C5S16490   5.624   4.410   2.700  0.3667 -0.5822  0.2710
  149OSM    H5S16491   5.720   4.386   2.651  1.4716 -1.2597  2.5878
  149OSM    C6S16492   5.597   4.337   2.829  0.3397  0.3177 -0.6454
  149OSM    H6S16493   5.619   4.410   2.910  4.1831 -0.1066 -1.0985
  149OSM    H6T16494   5.663   4.248   2.842  1.4179  1.3062  1.0695
  149OSM    C7S16495   5.451   4.293   2.846  0.2337 -0.7016  1.2849
  149OSM    H7S16496   5.397   4.294   2.749  2.0968  0.4480  0.2033
  149OSM    H7T16497   5.409   4.371   2.914 -0.1647  0.6098 -0.3975
  149OSM    C8S16498   5.429   4.150   2.881 -0.2463  0.0543  0.1946
  149OSM    H8S16499   5.499   4.088   2.820 -1.3817 -0.9414 -0.1325
  149OSM    H8T16500   5.332   4.108   2.848 -0.3246  1.5139 -1.6011
  149OSM    C9S16501   5.444   4.123   3.033  0.2484  0.0677  0.4964
  149OSM    H9S16502   5.364   4.173   3.091 -0.9312 -2.0435  0.7739
  149OSM    H9T16503   5.547   4.159   3.058 -0.1256  0.7275  1.1312
  149OSM   C10S16504   5.428   3.970   3.061 -0.2066 -0.6277  0.0932
  149OSM   H10S16505   5.525   3.924   3.031  1.2809  1.7314  0.9973
  149OSM   H10T16506   5.346   3.919   3.006 -1.8926  0.9638  1.0734
  149OSM   C11S16507   5.400   3.941   3.212  0.1502  0.4808  0.2410
  149OSM   H11S16508   5.481   3.979   3.278 -0.3914 -0.0052  1.2254
  149OSM   H11T16509   5.411   3.830   3.219 -1.9308 -0.0859 -3.1614
  149OSM   C12S16510   5.261   3.985   3.249  0.1449 -0.1633 -0.5620
  149OSM   H12S16511   5.201   3.925   3.177  1.8300  1.0661 -3.1630
  149OSM   H12T16512   5.239   4.089   3.217  2.1896  1.2540  2.1823
  149OSM   C13S16513   5.221   3.985   3.396 -0.8976 -0.0925 -0.6787
  149OSM   H13S16514   5.115   4.018   3.404 -0.2319  2.1152 -0.4695
  149OSM   H13T16515   5.276   4.067   3.446 -0.5259 -1.0588  0.5636
  149OSM   C14S16516   5.235   3.847   3.460 -1.0029 -0.1452  0.0380
  149OSM   H14S16517   5.343   3.820   3.459 -0.9384  0.0032  1.1380
  149OSM   H14T16518   5.188   3.771   3.394  1.0787 -1.2816 -0.2307
  149OSM   C15S16519   5.167   3.824   3.600 -0.3562 -0.3906 -0.1645
  149OSM   H15S16520   5.060   3.850   3.591 -0.5019 -0.3292  1.4820
  149OSM   H15T16521   5.208   3.894   3.676 -3.1788 -0.8092  1.9084
  149OSM   C16S16522   5.181   3.680   3.662  0.2885 -0.5176  0.4724
  149OSM   H16S16523   5.287   3.661   3.687  0.7260  1.0497 -0.0788
  149OSM   H16T16524   5.169   3.613   3.575  0.8631 -1.0082  0.7667
  149OSM   C17S16525   5.080   3.655   3.778  0.5290 -0.4829 -0.3695
  149OSM   H17S16526   5.076   3.745   3.843  0.0412  1.9438 -3.5256
  149OSM   H17T16527   5.112   3.564   3.833  1.0097 -0.7558 -1.0918
  149OSM   C18S16528   4.936   3.618   3.728  0.1999 -0.3101 -0.0344
  149OSM   H18S16529   4.874   3.584   3.813 -0.7252 -0.1278 -0.6282
  149OSM   H18T16530   4.952   3.535   3.656 -0.4560  0.4254 -1.0574
  149OSM   H18U16531   4.889   3.705   3.678  0.7606  1.6847  2.6912
  149OSM    C1F16532   5.678   4.878   2.683 -0.2264  0.0248 -0.4314
  149OSM     OF16533   5.580   4.948   2.661  0.4730  0.1483 -0.0677
  149OSM    C2F16534   5.781   4.900   2.790  0.2744 -0.6315 -0.1892
  149OSM    H2F16535   5.871   4.961   2.764  2.9063 -2.8399  2.9047
  149OSM    H2G16536   5.822   4.802   2.822 -0.6119 -1.5119 -1.6295
  149OSM    C3F16537   5.721   4.982   2.910 -0.2559 -0.1230  0.1245
  149OSM    H3F16538   5.627   4.936   2.947 -1.5553  2.6349  0.4349
  149OSM    H3G16539   5.690   5.086   2.891 -0.6109 -0.3421 -0.5225
  149OSM    C4F16540   5.824   4.978   3.028 -0.1832  0.4866 -0.0966
  149OSM    H4F16541   5.895   5.062   3.016 -0.1996  0.6688  1.0061
  149OSM    H4G16542   5.879   4.881   3.019  1.4924  1.5262 -1.9874
  149OSM    C5F16543   5.780   4.991   3.175  0.3829 -0.8428  0.0468
  149OSM    H5F16544   5.719   4.901   3.200 -0.8182 -0.3839 -1.1594
  149OSM    H5G16545   5.722   5.086   3.181  2.0205  0.2020 -0.0397
  149OSM    C6F16546   5.889   5.010   3.281 -0.4191 -0.0529 -0.0739
  149OSM    H6F16547   5.938   4.912   3.295 -0.9268 -0.4177 -0.7534
  149OSM    H6G16548   5.846   5.032   3.381 -1.1645 -1.5013 -0.0553
  149OSM    C7F16549   6.006   5.111   3.263 -0.1567 -0.1701 -0.1861
  149OSM    H7F16550   5.962   5.212   3.253 -1.3414 -0.6473  0.0659
  149OSM    H7G16551   6.066   5.087   3.172 -1.3944 -0.6307 -0.9092
  149OSM    C8F16552   6.112   5.106   3.380  0.0232  0.1634  0.0004
  149OSM    H8F16553   6.052   5.117   3.473 -1.0503 -1.6936 -0.4236
  149OSM    H8G16554   6.184   5.191   3.383 -1.4793  1.4460  1.3340
  149OSM    C9F16555   6.195   4.982   3.397  0.0751  0.1243  0.6984
  149OSM    H9F16556   6.251   4.966   3.303 -0.9613  0.6931 -0.0405
  149OSM   C10F16557   6.218   4.912   3.515  0.9889  0.0285  0.0741
  149OSM   H10F16558   6.273   4.817   3.508  0.8195  0.0312 -1.7072
  149OSM   C11F16559   6.157   4.942   3.651  0.7323 -0.6739 -0.4468
  149OSM   H11F16560   6.046   4.930   3.648  0.6385 -0.0194  0.1663
  149OSM   H11G16561   6.176   5.050   3.668  0.5901 -0.8261  0.7795
  149OSM   C12F16562   6.222   4.862   3.765  0.1312 -0.6016  0.1715
  149OSM   H12F16563   6.333   4.872   3.768  0.1220  0.0822 -1.1238
  149OSM   H12G16564   6.217   4.754   3.737 -0.7361  0.0134 -2.3509
  149OSM   C13F16565   6.163   4.871   3.907  0.0678 -0.1685  0.7086
  149OSM   H13F16566   6.073   4.807   3.917  0.8323 -1.3519  0.2388
  149OSM   H13G16567   6.143   4.974   3.942 -2.0782 -0.7549  1.3688
  149OSM   C14F16568   6.257   4.815   4.016 -0.6116 -0.2508  0.0346
  149OSM   H14F16569   6.348   4.878   4.011 -1.3553  0.8406 -0.1464
  149OSM   H14G16570   6.285   4.714   3.978  1.5786  0.0464  0.6941
  149OSM   C15F16571   6.184   4.800   4.147  0.1968 -0.3633 -0.0939
  149OSM   H15F16572   6.081   4.775   4.114  0.6475 -0.2896 -1.6343
  149OSM   H15G16573   6.174   4.895   4.202  1.3881 -0.1484 -0.2260
  149OSM   C16F16574   6.249   4.694   4.245  0.3990  0.2878  0.3127
  149OSM   H16F16575   6.278   4.599   4.195  0.4450 -0.9541  2.5608
  149OSM   H16G16576   6.179   4.655   4.322  1.6178 -0.7750  0.9241
  149OSM   C17F16577   6.368   4.732   4.337 -0.1708 -0.3057  0.3899
  149OSM   H17F16578   6.330   4.807   4.410  0.0453 -1.2887  1.5444
  149OSM   H17G16579   6.453   4.773   4.278 -0.5319  0.6111  0.4984
  149OSM   C18F16580   6.402   4.614   4.421  0.7191  0.1192  1.0603
  149OSM   H18F16581   6.499   4.625   4.473  2.0274 -0.3379 -1.1602
  149OSM   H18G16582   6.427   4.532   4.351  2.4951  1.9950 -0.6601
  149OSM   H18H16583   6.320   4.584   4.491  0.2023  1.0177  0.8621
  150OSM      N16584   4.763   5.583   1.890  0.0514  0.7376 -0.7182
  150OSM    C1516585   4.855   5.478   1.833 -0.4008  0.2497  0.3658
  150OSM   H15A16586   4.938   5.459   1.899  0.6461 -1.1557 -1.2733
  150OSM   H15B16587   4.887   5.519   1.738  0.2663  0.0920  0.5214
  150OSM   H15C16588   4.802   5.384   1.825 -0.6879  0.5214 -1.2147
  150OSM    C1416589   4.644   5.604   1.795 -0.0511 -0.4194 -0.1437
  150OSM   H14A16590   4.587   5.513   1.802  1.0692 -1.2241 -1.2311
  150OSM   H14B16591   4.677   5.632   1.696  0.3941  2.5495  0.7510
  150OSM   H14C16592   4.573   5.675   1.835 -1.2070 -0.4128 -2.1002
  150OSM    C1316593   4.710   5.540   2.023 -0.4644  0.5942  0.3550
  150OSM   H13A16594   4.656   5.446   2.017 -0.3396  0.5660 -0.3282
  150OSM   H13B16595   4.642   5.617   2.058 -1.9542 -0.9167  0.9574
  150OSM   H13C16596   4.788   5.533   2.097 -0.1268  0.6318  0.0034
  150OSM    C1216597   4.837   5.721   1.907  0.0056 -0.3578  0.3194
  150OSM   H12A16598   4.763   5.788   1.948 -0.5189 -1.0626  0.5459
  150OSM   H12B16599   4.864   5.750   1.807 -1.1254 -0.7406 -0.1038
  150OSM    C1116600   4.961   5.720   2.005 -0.5467  0.1197  0.3359
  150OSM   H11A16601   5.020   5.812   1.984  2.6264 -1.2860  2.4154
  150OSM   H11B16602   5.025   5.631   1.989 -0.2528  0.1389  1.3500
  150OSM      P16603   4.866   5.851   2.206 -0.0810 -0.2489 -0.2302
  150OSM    O1316604   4.974   5.954   2.195  0.5029  0.3310 -0.1309
  150OSM    O1416605   4.728   5.878   2.153 -0.4367  0.0173 -0.1543
  150OSM    O1116606   4.857   5.816   2.357 -0.2203 -0.4498 -0.6207
  150OSM    O1216607   4.912   5.715   2.135 -0.2918 -0.6653 -0.0816
  150OSM    C1S16608   4.865   5.914   2.461 -0.2945  0.1194 -0.5230
  150OSM    H1S16609   4.794   5.998   2.451 -2.3441 -1.4717  0.0751
  150OSM    H1T16610   4.967   5.960   2.455 -1.7443  3.4639 -3.5076
  150OSM     NF16611   4.829   5.954   2.704  0.6317 -0.1184  0.1276
  150OSM    HNF16612   4.900   5.959   2.774  1.2778 -3.0186 -0.1879
  150OSM    C2S16613   4.850   5.850   2.605 -0.2383 -0.7355 -0.0440
  150OSM    H2S16614   4.755   5.793   2.599 -1.4309  1.2838 -1.6339
  150OSM    C3S16615   4.968   5.753   2.639  0.1376 -0.4650  0.4725
  150OSM    H3S16616   5.058   5.816   2.653 -1.2481  1.1819  2.5581
  150OSM     O316617   4.997   5.652   2.545  0.2010 -0.0591  0.1365
  150OSM    HO316618   4.939   5.673   2.471 -3.7348 -2.3608  2.1678
  150OSM    C4S16619   4.948   5.682   2.783 -0.3484  0.4298  0.1600
  150OSM    H4S16620   5.017   5.722   2.858 -0.6299 -0.2033  0.7647
  150OSM    C5S16621   4.893   5.562   2.817  0.0323 -0.6823 -0.0100
  150OSM    H5S16622   4.864   5.498   2.733  1.8846 -0.1536 -1.1056
  150OSM    C6S16623   4.923   5.497   2.956 -0.5499 -0.2381  0.8782
  150OSM    H6S16624   4.904   5.569   3.039  0.3344  0.6366  0.3508
  150OSM    H6T16625   5.022   5.448   2.965  0.8958  2.3482  0.2185
  150OSM    C7S16626   4.822   5.383   2.982 -0.0784  0.4313 -0.0041
  150OSM    H7S16627   4.816   5.318   2.892  1.4408 -0.9210  0.8076
  150OSM    H7T16628   4.722   5.430   2.993 -0.5343 -0.6225  0.5655
  150OSM    C8S16629   4.864   5.289   3.096  0.1689 -0.5007 -0.3512
  150OSM    H8S16630   4.966   5.247   3.088  0.4817  0.3265 -0.7663
  150OSM    H8T16631   4.790   5.207   3.106  0.1151 -0.2309  2.0959
  150OSM    C9S16632   4.854   5.349   3.238  0.7053  0.7284 -0.0861
  150OSM    H9S16633   4.751   5.389   3.245  0.1231 -0.7626  0.1278
  150OSM    H9T16634   4.932   5.429   3.238  1.5376 -0.0620  0.6101
  150OSM   C10S16635   4.869   5.252   3.358  0.0692 -0.3335  0.0996
  150OSM   H10S16636   4.966   5.200   3.349  2.0025  2.9993  0.0511
  150OSM   H10T16637   4.795   5.169   3.365 -0.9424  0.2513 -2.5721
  150OSM   C11S16638   4.861   5.325   3.495  0.1940 -0.1025 -0.5453
  150OSM   H11S16639   4.757   5.359   3.515  0.7278 -0.3673  3.4297
  150OSM   H11T16640   4.924   5.416   3.489 -2.2928  1.7759  0.0959
  150OSM   C12S16641   4.897   5.244   3.617  0.1941 -0.4460 -0.1282
  150OSM   H12S16642   4.972   5.170   3.584 -1.1334 -0.9103 -2.3289
  150OSM   H12T16643   4.803   5.189   3.641 -1.4124  1.5852 -1.3847
  150OSM   C13S16644   4.941   5.334   3.727 -0.4920  0.8110 -0.2690
  150OSM   H13S16645   4.882   5.428   3.714 -1.6895  0.0232 -0.7280
  150OSM   H13T16646   5.050   5.350   3.736 -0.2537 -1.5690  2.3942
  150OSM   C14S16647   4.906   5.277   3.866 -0.1115 -0.0563 -0.0795
  150OSM   H14S16648   4.973   5.189   3.877 -0.0447  0.1758  1.4780
  150OSM   H14T16649   4.803   5.238   3.858 -0.4075  0.8868 -1.2977
  150OSM   C15S16650   4.933   5.371   3.987 -0.0784  0.5782  0.0320
  150OSM   H15S16651   4.860   5.444   3.945 -1.8903 -0.6833  0.8427
  150OSM   H15T16652   5.026   5.426   4.014  0.5040 -1.7059  3.2945
  150OSM   C16S16653   4.890   5.308   4.117  0.5347 -0.0859  0.1260
  150OSM   H16S16654   4.948   5.214   4.126 -0.8667 -0.9238  0.7012
  150OSM   H16T16655   4.781   5.286   4.125 -0.2117  2.1787 -2.2227
  150OSM   C17S16656   4.934   5.396   4.237 -0.3398 -0.0192  0.2598
  150OSM   H17S16657   4.908   5.503   4.224 -0.3598  0.1896  1.8321
  150OSM   H17T16658   5.045   5.393   4.232 -0.3683 -1.0610  0.0372
  150OSM   C18S16659   4.888   5.336   4.374  0.2806 -0.2134  0.1269
  150OSM   H18S16660   4.780   5.358   4.389  0.4389  0.8565 -0.2426
  150OSM   H18T16661   4.938   5.384   4.461  0.3792 -0.4885  0.2258
  150OSM   H18U16662   4.915   5.228   4.369  0.6196 -0.0715 -2.3923
  150OSM    C1F16663   4.723   6.030   2.697 -0.2586  0.6694 -0.2623
  150OSM     OF16664   4.624   6.018   2.622 -0.0424  0.8851  0.8017
  150OSM    C2F16665   4.722   6.155   2.783 -0.2312  0.6592  0.9509
  150OSM    H2F16666   4.672   6.240   2.733  1.0837  1.2848  0.6593
  150OSM    H2G16667   4.828   6.184   2.800  0.4564  0.6149 -2.5824
  150OSM    C3F16668   4.647   6.144   2.914  0.2914 -0.1064 -0.7818
  150OSM    H3F16669   4.671   6.049   2.967 -1.4791 -0.0825  0.1645
  150OSM    H3G16670   4.537   6.147   2.894  0.3125 -1.3603 -1.1831
  150OSM    C4F16671   4.686   6.260   3.004 -0.6789 -0.7859 -0.1348
  150OSM    H4F16672   4.653   6.346   2.942 -0.8164 -1.5569 -1.1579
  150OSM    H4G16673   4.795   6.266   3.028 -1.0093  2.9900  1.1603
  150OSM    C5F16674   4.631   6.256   3.153  0.6944  0.2635 -0.3741
  150OSM    H5F16675   4.633   6.145   3.166 -0.4163  0.2436 -0.2247
  150OSM    H5G16676   4.525   6.287   3.167  0.6620 -0.2999  0.7125
  150OSM    C6F16677   4.707   6.343   3.248 -0.1372  0.1277  0.2602
  150OSM    H6F16678   4.695   6.453   3.238  0.9774  0.3585  1.2053
  150OSM    H6G16679   4.815   6.317   3.242  0.0937  1.2411 -0.9383
  150OSM    C7F16680   4.665   6.312   3.391 -0.5310  0.3899  0.1762
  150OSM    H7F16681   4.666   6.201   3.392  1.0886  0.3304 -2.0245
  150OSM    H7G16682   4.557   6.327   3.409 -1.0470 -1.1390 -1.4331
  150OSM    C8F16683   4.761   6.374   3.493 -0.3377  0.4524  0.0266
  150OSM    H8F16684   4.858   6.350   3.445 -0.0490  0.5365  0.5628
  150OSM    H8G16685   4.762   6.320   3.590  3.7569 -0.5363 -0.3862
  150OSM    C9F16686   4.740   6.520   3.508  0.1692 -0.2167  0.0268
  150OSM    H9F16687   4.652   6.566   3.460  1.4756 -0.3516 -2.7122
  150OSM   C10F16688   4.833   6.609   3.556 -0.4177  0.4292  0.0983
  150OSM   H10F16689   4.807   6.716   3.560 -1.8621  0.0705  0.7514
  150OSM   C11F16690   4.972   6.578   3.605  0.9857  0.2284 -0.0372
  150OSM   H11F16691   5.028   6.674   3.607  2.5844 -0.6815  0.3877
  150OSM   H11G16692   5.023   6.507   3.536 -0.8674 -3.5206  2.1003
  150OSM   C12F16693   4.975   6.533   3.755 -0.0114  0.4356  0.0132
  150OSM   H12F16694   5.081   6.533   3.789 -0.3466 -0.2805  1.1226
  150OSM   H12G16695   4.940   6.429   3.772  0.6569 -0.2346 -2.3879
  150OSM   C13F16696   4.920   6.629   3.858  0.4519 -0.0065 -0.0711
  150OSM   H13F16697   4.809   6.629   3.847  0.4971  0.2353 -0.5443
  150OSM   H13G16698   4.960   6.732   3.861  2.5215 -0.7859  1.0016
  150OSM   C14F16699   4.926   6.586   4.004 -0.8044  0.0913 -0.4579
  150OSM   H14F16700   5.033   6.581   4.033 -0.5240  1.0050 -1.2629
  150OSM   H14G16701   4.881   6.486   4.021 -2.1418  0.7714  0.1260
  150OSM   C15F16702   4.865   6.693   4.098 -0.3621 -0.2770 -0.1156
  150OSM   H15F16703   4.757   6.703   4.072 -1.2728  1.2609  3.5727
  150OSM   H15G16704   4.918   6.789   4.080  0.3566 -0.9002 -1.4385
  150OSM   C16F16705   4.887   6.654   4.250 -0.2964  0.6049 -0.6914
  150OSM   H16F16706   4.874   6.544   4.260  1.1151  0.4301 -0.6256
  150OSM   H16G16707   4.812   6.711   4.309  0.4991  0.5057  0.4422
  150OSM   C17F16708   5.029   6.681   4.300 -0.4391  0.4634 -0.3744
  150OSM   H17F16709   5.039   6.788   4.329 -2.6682  0.5066  0.3695
  150OSM   H17G16710   5.103   6.653   4.222  1.2684 -0.1523  1.3646
  150OSM   C18F16711   5.068   6.608   4.429  0.3559 -0.1464 -0.2770
  150OSM   H18F16712   5.177   6.615   4.448  0.4881 -2.2281 -0.0587
  150OSM   H18G16713   5.052   6.499   4.417 -0.1309  0.0879 -2.0700
  150OSM   H18H16714   5.004   6.651   4.510  1.4417  1.3983 -0.1844
  151OSM      N16715   2.879   6.061   2.209 -0.1787 -0.0911  0.0896
  151OSM    C1516716   2.916   5.973   2.089 -0.5535 -0.3802 -0.6888
  151OSM   H15A16717   2.980   6.031   2.024 -0.1326  0.0932  0.1167
  151OSM   H15B16718   2.831   5.933   2.037 -0.6350 -0.3377 -0.5882
  151OSM   H15C16719   2.980   5.894   2.126 -1.4243 -0.5328  0.5330
  151OSM    C1416720   2.796   6.174   2.156  0.3807  0.3209  0.9585
  151OSM   H14A16721   2.721   6.209   2.226 -0.5625  0.1190  0.0725
  151OSM   H14B16722   2.746   6.142   2.066  1.6374  0.1904  0.2771
  151OSM   H14C16723   2.858   6.253   2.117  0.9405 -0.0807  1.0160
  151OSM    C1316724   2.803   5.978   2.301 -0.5126 -0.0241  0.0524
  151OSM   H13A16725   2.872   5.910   2.349 -1.0232  0.6094  1.7870
  151OSM   H13B16726   2.722   5.925   2.254  0.8349 -2.1745  0.0304
  151OSM   H13C16727   2.763   6.039   2.381 -1.1301  0.6746 -0.7868
  151OSM    C1216728   3.002   6.104   2.280 -0.1853 -0.0824 -0.0831
  151OSM   H12A16729   2.980   6.117   2.385 -2.5822  2.1530 -0.7535
  151OSM   H12B16730   3.016   6.207   2.249 -2.2459  0.1240 -0.4780
  151OSM    C1116731   3.133   6.020   2.268  0.1974 -0.1529  0.5108
  151OSM   H11A16732   3.211   6.079   2.321 -1.9814  3.4548  0.0156
  151OSM   H11B16733   3.172   6.018   2.164 -0.7228  0.8912  0.1233
  151OSM      P16734   3.114   5.876   2.473 -0.0279 -0.2543 -0.0932
  151OSM    O1316735   3.030   5.763   2.514 -0.3041 -0.6661 -0.3525
  151OSM    O1416736   3.260   5.875   2.516  0.3068  0.0034  0.4438
  151OSM    O1116737   3.044   6.011   2.527 -0.0988  0.3419  0.3161
  151OSM    O1216738   3.106   5.885   2.320 -0.4544 -0.3124 -0.2646
  151OSM    C1S16739   2.953   6.002   2.640  0.1166  0.2110 -0.2615
  151OSM    H1S16740   2.899   5.905   2.648  1.4746 -0.5375  0.1946
  151OSM    H1T16741   2.870   6.075   2.630  0.5874  1.2031  2.2797
  151OSM     NF16742   2.928   6.013   2.896  0.3792  0.0921  0.0018
  151OSM    HNF16743   2.907   6.095   2.949 -0.5004 -0.5627  0.6970
  151OSM    C2S16744   3.016   6.028   2.784  0.1887 -0.1665 -0.4764
  151OSM    H2S16745   3.097   5.953   2.797 -0.1959 -0.7639 -1.4003
  151OSM    C3S16746   3.089   6.169   2.779 -0.0769 -0.2115  0.2936
  151OSM    H3S16747   3.014   6.251   2.771 -0.4878 -0.5260  0.8447
  151OSM     O316748   3.162   6.197   2.663 -0.5354  0.0451  0.2744
  151OSM    HO316749   3.140   6.134   2.593  0.2346  2.0267 -1.8716
  151OSM    C4S16750   3.175   6.190   2.901 -0.6026 -0.1759  0.1806
  151OSM    H4S16751   3.235   6.103   2.934 -0.1425  0.9015  2.4105
  151OSM    C5S16752   3.186   6.314   2.959  0.8193  0.1236  0.5794
  151OSM    H5S16753   3.143   6.402   2.909  0.7150 -0.7236 -0.8891
  151OSM    C6S16754   3.280   6.349   3.073 -0.7975  0.2807  0.4809
  151OSM    H6S16755   3.223   6.381   3.162 -2.0078  1.0747 -0.5380
  151OSM    H6T16756   3.342   6.438   3.046  0.1438 -0.4858  0.0310
  151OSM    C7S16757   3.389   6.252   3.121  0.8025  0.1734  0.2224
  151OSM    H7S16758   3.445   6.230   3.027 -1.1221 -0.7814 -0.7619
  151OSM    H7T16759   3.341   6.156   3.149  0.7285  0.0914 -0.1794
  151OSM    C8S16760   3.470   6.316   3.233  0.1203 -0.1017 -0.0827
  151OSM    H8S16761   3.455   6.426   3.231  1.6511  0.1568 -2.9274
  151OSM    H8T16762   3.578   6.310   3.210 -0.5702 -1.7903 -3.6690
  151OSM    C9S16763   3.438   6.262   3.370 -0.7320  0.0319 -0.1574
  151OSM    H9S16764   3.481   6.160   3.375 -0.5483  0.1590  1.5081
  151OSM    H9T16765   3.328   6.258   3.382 -0.8836 -0.9596 -1.6742
  151OSM   C10S16766   3.498   6.347   3.486 -0.0917  0.4916  0.4495
  151OSM   H10S16767   3.484   6.452   3.453 -3.1162 -0.1871 -0.7366
  151OSM   H10T16768   3.607   6.330   3.500  0.4477  1.5937 -1.9315
  151OSM   C11S16769   3.428   6.315   3.618  0.9950 -0.3407 -0.2337
  151OSM   H11S16770   3.445   6.208   3.641  0.7033 -0.3981 -0.2807
  151OSM   H11T16771   3.318   6.332   3.627  1.2593  0.4676  2.1973
  151OSM   C12S16772   3.485   6.399   3.739  0.0119 -0.0625  0.4094
  151OSM   H12S16773   3.494   6.507   3.714  0.1292 -0.0609  0.4567
  151OSM   H12T16774   3.589   6.369   3.766 -0.7263 -2.1560  1.1214
  151OSM   C13S16775   3.397   6.378   3.868  0.2502 -0.2871  0.4847
  151OSM   H13S16776   3.399   6.272   3.899 -3.0198  0.0813  2.4600
  151OSM   H13T16777   3.290   6.400   3.849  0.7008  1.0914 -0.6884
  151OSM   C14S16778   3.437   6.457   3.992 -0.1457 -0.5065  0.0879
  151OSM   H14S16779   3.434   6.568   3.979 -0.2923  0.0838  3.9213
  151OSM   H14T16780   3.544   6.437   4.017 -0.0621 -1.3401 -0.8730
  151OSM   C15S16781   3.345   6.414   4.114  0.6798 -0.0329  0.0099
  151OSM   H15S16782   3.339   6.303   4.121 -1.3356  0.1379  2.1879
  151OSM   H15T16783   3.243   6.455   4.098 -0.1635 -2.0704 -0.1898
  151OSM   C16S16784   3.411   6.465   4.244  0.2111  0.3519  0.3671
  151OSM   H16S16785   3.385   6.573   4.245 -0.2753  0.2419  0.1557
  151OSM   H16T16786   3.517   6.438   4.223 -0.2844  0.3839 -2.5544
  151OSM   C17S16787   3.361   6.380   4.365  0.0508 -0.5114  0.2827
  151OSM   H17S16788   3.367   6.270   4.346  0.3026 -0.4872  0.2096
  151OSM   H17T16789   3.256   6.412   4.375  0.2805 -0.1675  1.7897
  151OSM   C18S16790   3.434   6.410   4.497 -0.8159 -0.0376 -0.0705
  151OSM   H18S16791   3.407   6.338   4.577 -2.1425 -0.4849 -0.8861
  151OSM   H18T16792   3.417   6.512   4.536  1.1180 -0.1744  1.3060
  151OSM   H18U16793   3.545   6.407   4.495 -0.7196  1.3724  1.3387
  151OSM    C1F16794   2.854   5.906   2.923  0.3623  0.0946  0.0474
  151OSM     OF16795   2.865   5.805   2.855  0.6154  0.6705  0.6584
  151OSM    C2F16796   2.757   5.913   3.042 -0.3338  0.4881 -0.2608
  151OSM    H2F16797   2.668   5.861   3.001  0.2599 -0.8822  0.1407
  151OSM    H2G16798   2.745   6.022   3.063  0.3643  0.4411  0.4032
  151OSM    C3F16799   2.821   5.833   3.154  0.5823  0.1768  0.3126
  151OSM    H3F16800   2.923   5.867   3.182  0.4370 -0.1525  1.2982
  151OSM    H3G16801   2.834   5.725   3.134 -1.6726 -0.0074 -0.3959
  151OSM    C4F16802   2.730   5.845   3.283  0.5810  0.0828 -0.1484
  151OSM    H4F16803   2.624   5.826   3.256 -0.1555  1.7161  1.4061
  151OSM    H4G16804   2.735   5.954   3.305  1.5595 -0.2244  1.2225
  151OSM    C5F16805   2.799   5.758   3.382  0.7794  0.3741 -0.3348
  151OSM    H5F16806   2.903   5.796   3.395  0.8701  0.0735 -0.1711
  151OSM    H5G16807   2.801   5.654   3.343 -2.3972 -0.6834  1.8866
  151OSM    C6F16808   2.746   5.775   3.528 -0.0775 -0.5351  0.8703
  151OSM    H6F16809   2.643   5.731   3.526  0.7513 -2.5904  0.9335
  151OSM    H6G16810   2.738   5.880   3.564  1.6583 -0.8415  2.2812
  151OSM    C7F16811   2.835   5.707   3.628 -0.1203  0.2453 -0.1964
  151OSM    H7F16812   2.941   5.739   3.619  0.5898 -2.3723 -3.2199
  151OSM    H7G16813   2.826   5.598   3.607 -1.7582  0.0415  1.3601
  151OSM    C8F16814   2.792   5.733   3.774 -0.0374  0.2694  0.3119
  151OSM    H8F16815   2.791   5.842   3.797 -0.9085  0.3911 -0.2690
  151OSM    H8G16816   2.862   5.678   3.841  0.5757 -0.5203 -0.9462
  151OSM    C9F16817   2.646   5.694   3.796  0.5479 -0.4067 -0.1609
  151OSM    H9F16818   2.569   5.694   3.717 -1.0745  1.4403  1.3049
  151OSM   C10F16819   2.601   5.658   3.916 -0.0991  0.2897 -0.5042
  151OSM   H10F16820   2.495   5.633   3.927 -0.3995  1.8939  0.7674
  151OSM   C11F16821   2.684   5.635   4.046 -0.1400 -0.1225  0.1408
  151OSM   H11F16822   2.630   5.680   4.132 -0.1252 -0.5194  0.3646
  151OSM   H11G16823   2.782   5.685   4.035  0.2492 -1.2126 -1.7755
  151OSM   C12F16824   2.705   5.485   4.074 -0.2992 -0.6417  0.2754
  151OSM   H12F16825   2.605   5.438   4.064 -1.4931  1.5936  1.0581
  151OSM   H12G16826   2.731   5.470   4.181  1.0906  0.9182  0.2015
  151OSM   C13F16827   2.817   5.425   3.997 -0.0712 -0.1749 -0.1065
  151OSM   H13F16828   2.902   5.495   4.013 -1.5982  1.6984  0.2510
  151OSM   H13G16829   2.816   5.431   3.886  0.5195 -0.5633 -0.1372
  151OSM   C14F16830   2.841   5.276   4.022 -0.2039  0.4443 -0.6092
  151OSM   H14F16831   2.752   5.229   3.974  0.2042  0.4330 -1.3765
  151OSM   H14G16832   2.844   5.251   4.130  0.9976  1.7478 -0.3022
  151OSM   C15F16833   2.967   5.222   3.964 -1.1446  0.3466 -0.0317
  151OSM   H15F16834   3.051   5.257   4.027 -1.9765 -0.7162  1.7341
  151OSM   H15G16835   2.985   5.248   3.857  0.7121 -3.4118 -0.8073
  151OSM   C16F16836   2.974   5.066   3.961 -0.2351  0.5169 -0.5242
  151OSM   H16F16837   2.904   5.020   3.888  0.3879 -0.2386 -0.6536
  151OSM   H16G16838   2.942   5.053   4.066  0.2375 -1.6498 -0.6009
  151OSM   C17F16839   3.116   5.011   3.933  0.1800 -0.4363 -0.5991
  151OSM   H17F16840   3.096   4.902   3.948 -1.4437  0.0963  1.6244
  151OSM   H17G16841   3.171   5.036   4.026 -0.9703  0.1380 -0.0447
  151OSM   C18F16842   3.170   5.053   3.803  0.2468 -0.0684 -0.7238
  151OSM   H18F16843   3.101   5.020   3.722  1.5314 -0.8359 -1.5265
  151OSM   H18G16844   3.275   5.020   3.793  0.9753  1.3790  1.3646
  151OSM   H18H16845   3.159   5.164   3.798 -0.4878 -0.1816 -2.2416
  152OSM      N16846   4.317   0.581   2.463 -0.2194 -0.1369 -0.5682
  152OSM    C1516847   4.351   0.606   2.323 -0.6403 -0.0769  0.0826
  152OSM   H15A16848   4.455   0.579   2.309 -0.7579 -0.7521  0.4396
  152OSM   H15B16849   4.319   0.702   2.286 -0.6779  0.1465  0.6808
  152OSM   H15C16850   4.304   0.526   2.267 -0.9672 -0.9369  1.5140
  152OSM    C1416851   4.392   0.682   2.547  0.6468  0.6217  0.2166
  152OSM   H14A16852   4.366   0.781   2.513  0.5078  0.4447 -0.1966
  152OSM   H14B16853   4.498   0.665   2.540  0.2802 -1.2658 -1.3747
  152OSM   H14C16854   4.360   0.677   2.651  0.0757  0.4129  0.0374
  152OSM    C1316855   4.166   0.598   2.489 -0.2618  0.4735  0.1098
  152OSM   H13A16856   4.122   0.695   2.467 -1.1842  0.2618  0.9231
  152OSM   H13B16857   4.150   0.578   2.594 -1.9926 -1.5553 -0.4765
  152OSM   H13C16858   4.105   0.527   2.436  0.2659 -0.4223  0.6900
  152OSM    C1216859   4.347   0.430   2.501  0.2370  0.3597 -0.6123
  152OSM   H12A16860   4.443   0.405   2.458  0.2872 -1.0119  0.2393
  152OSM   H12B16861   4.273   0.371   2.449 -0.2133  1.5731 -1.3939
  152OSM    C1116862   4.347   0.391   2.650 -0.3988 -0.1191  0.2864
  152OSM   H11A16863   4.311   0.286   2.657 -2.1131  0.3666 -0.5457
  152OSM   H11B16864   4.275   0.456   2.703  0.8560 -1.2597  3.6039
  152OSM      P16865   4.592   0.313   2.665  0.1730 -0.1244 -0.1881
  152OSM    O1316866   4.572   0.249   2.537 -0.0710  0.2070  0.3938
  152OSM    O1416867   4.719   0.390   2.675  0.0154 -0.2014 -0.2454
  152OSM    O1116868   4.580   0.207   2.783 -0.0575  0.6003 -0.1955
  152OSM    O1216869   4.479   0.423   2.690 -0.6590 -0.1016 -0.7391
  152OSM    C1S16870   4.634   0.233   2.914 -0.1562 -0.4117 -0.2321
  152OSM    H1S16871   4.702   0.320   2.922 -1.6740  0.6333  4.0027
  152OSM    H1T16872   4.689   0.147   2.960 -0.9306 -0.9225 -0.2381
  152OSM     NF16873   4.563   0.324   3.131 -0.9707  1.2313 -0.4461
  152OSM    HNF16874   4.574   0.269   3.214 -1.0723  1.5630 -0.2113
  152OSM    C2S16875   4.519   0.258   3.013  0.2507  0.1210 -0.8012
  152OSM    H2S16876   4.441   0.326   2.972 -0.8520  0.4103  1.6130
  152OSM    C3S16877   4.445   0.123   3.041  0.7113 -0.1506  0.1405
  152OSM    H3S16878   4.530   0.062   3.080  1.5031  1.4326  0.9996
  152OSM     O316879   4.408   0.054   2.921  1.1513  0.0656  0.6287
  152OSM    HO316880   4.475   0.083   2.859  1.3256 -0.4544  0.5750
  152OSM    C4S16881   4.335   0.142   3.138 -0.6208 -0.8856  0.3047
  152OSM    H4S16882   4.367   0.119   3.241 -0.3936  1.3573  0.8031
  152OSM    C5S16883   4.202   0.173   3.120  0.0204  0.1422  0.5306
  152OSM    H5S16884   4.173   0.190   3.016  1.0329  0.4857  0.2904
  152OSM    C6S16885   4.101   0.198   3.228  0.0320  0.1869 -0.4281
  152OSM    H6S16886   4.003   0.164   3.189 -0.0365 -0.4533  0.2715
  152OSM    H6T16887   4.102   0.305   3.258  0.4065 -0.1304  0.7488
  152OSM    C7S16888   4.123   0.117   3.362  0.3774 -0.3143  0.2153
  152OSM    H7S16889   4.224   0.131   3.407  0.9232 -2.1751 -0.3156
  152OSM    H7T16890   4.112   0.008   3.343  0.2835 -0.6397  1.9579
  152OSM    C8S16891   4.021   0.156   3.474  0.4765  0.4472 -0.1408
  152OSM    H8S16892   3.919   0.125   3.444  0.1909  2.5503 -1.5312
  152OSM    H8T16893   4.002   0.265   3.487  0.6807  0.5583 -0.7523
  152OSM    C9S16894   4.067   0.080   3.603  0.2646  0.1034  0.6004
  152OSM    H9S16895   4.171   0.045   3.585  0.3985  0.8822 -0.2432
  152OSM    H9T16896   4.002  -0.010   3.611 -1.5082  1.1629 -1.0269
  152OSM   C10S16897   4.054   0.155   3.734 -0.3814 -0.6606  0.1134
  152OSM   H10S16898   3.952   0.197   3.739  0.1877  0.9929 -1.3258
  152OSM   H10T16899   4.124   0.241   3.741 -0.8369 -0.2559 -0.3397
  152OSM   C11S16900   4.073   0.070   3.855 -0.3040 -0.4586  0.0268
  152OSM   H11S16901   4.174   0.024   3.848 -0.9041 -1.7247 -0.4753
  152OSM   H11T16902   3.987  -0.001   3.861 -2.1917  1.2426 -3.8029
  152OSM   C12S16903   4.070   0.143   3.998  0.2806  0.2168  0.1259
  152OSM   H12S16904   4.061   0.061   4.073 -0.1399 -0.3166 -0.5004
  152OSM   H12T16905   3.978   0.205   4.007 -1.0707 -1.3788 -1.7129
  152OSM   C13S16906   4.196   0.221   4.035  0.0634 -0.9889 -0.3873
  152OSM   H13S16907   4.220   0.302   3.962  1.6147  1.1863  2.3428
  152OSM   H13T16908   4.278   0.146   4.033  1.2321  0.0737 -5.2400
  152OSM   C14S16909   4.188   0.287   4.177  0.1757  0.0036 -0.1474
  152OSM   H14S16910   4.162   0.212   4.254 -0.4493  1.1857  0.8364
  152OSM   H14T16911   4.101   0.355   4.188 -0.2146 -0.7481  1.6341
  152OSM   C15S16912   4.312   0.372   4.214 -0.2002 -0.3571 -0.9323
  152OSM   H15S16913   4.343   0.439   4.131  0.2602 -0.4837 -0.8656
  152OSM   H15T16914   4.398   0.303   4.228  0.0040 -0.3496 -2.0332
  152OSM   C16S16915   4.293   0.462   4.345 -0.7057  0.3712  1.6037
  152OSM   H16S16916   4.257   0.397   4.428  2.1163 -0.5381  2.2359
  152OSM   H16T16917   4.215   0.539   4.326  0.5867  0.9533 -1.8871
  152OSM   C17S16918   4.417   0.544   4.384 -0.2012 -0.6198 -0.3973
  152OSM   H17S16919   4.453   0.611   4.302  2.8738  0.7659  1.8900
  152OSM   H17T16920   4.500   0.472   4.399  1.4923  1.3109 -0.0275
  152OSM   C18S16921   4.397   0.620   4.513 -0.5905  0.1162  0.4370
  152OSM   H18S16922   4.490   0.668   4.551  0.6134 -2.3408  0.7636
  152OSM   H18T16923   4.350   0.556   4.591  0.7711 -0.6420  0.6620
  152OSM   H18U16924   4.326   0.705   4.500  1.0709  1.4509 -0.4527
  152OSM    C1F16925   4.610   0.449   3.134 -0.0900 -1.0720  0.1793
  152OSM     OF16926   4.602   0.512   3.028  0.3516 -0.0255 -0.0759
  152OSM    C2F16927   4.670   0.502   3.262 -0.2126 -0.6362  0.1633
  152OSM    H2F16928   4.773   0.461   3.262  0.6293  1.2641 -1.7850
  152OSM    H2G16929   4.604   0.474   3.346 -2.1081 -0.3348 -1.1527
  152OSM    C3F16930   4.683   0.651   3.271  0.0102  0.3110  0.2883
  152OSM    H3F16931   4.586   0.705   3.264 -0.0015  0.4593  1.3560
  152OSM    H3G16932   4.741   0.697   3.188 -1.5763  3.5925  0.8164
  152OSM    C4F16933   4.755   0.687   3.407 -0.1975 -0.7406  0.4021
  152OSM    H4F16934   4.788   0.792   3.400 -0.3165 -0.7536 -0.4602
  152OSM    H4G16935   4.846   0.626   3.426 -0.3438 -1.1322 -0.1271
  152OSM    C5F16936   4.665   0.674   3.528  0.2206  0.1922  0.6973
  152OSM    H5F16937   4.637   0.567   3.537 -1.9168  0.7983  1.8852
  152OSM    H5G16938   4.575   0.735   3.508  1.1358  0.9408 -1.4293
  152OSM    C6F16939   4.731   0.714   3.659  0.0657 -0.0386  0.6679
  152OSM    H6F16940   4.761   0.821   3.651  1.6234 -0.4807  0.0831
  152OSM    H6G16941   4.832   0.668   3.669  0.0585 -0.2082 -0.0195
  152OSM    C7F16942   4.650   0.696   3.786 -0.0516 -0.0929 -0.0219
  152OSM    H7F16943   4.623   0.591   3.809  1.0053  0.0311  2.0371
  152OSM    H7G16944   4.556   0.752   3.772 -0.6582 -1.6787 -3.4068
  152OSM    C8F16945   4.735   0.749   3.906  0.0040  0.4551 -0.5378
  152OSM    H8F16946   4.739   0.856   3.875 -0.0114  0.5722 -0.1419
  152OSM    H8G16947   4.836   0.703   3.901  0.3549  1.2294 -0.7650
  152OSM    C9F16948   4.669   0.733   4.036 -0.6834  0.3016 -0.6067
  152OSM    H9F16949   4.569   0.688   4.032 -0.4219 -0.2958 -0.5229
  152OSM   C10F16950   4.699   0.788   4.153 -0.2817  0.1446 -0.1052
  152OSM   H10F16951   4.641   0.752   4.239 -0.5229  0.3664 -0.1740
  152OSM   C11F16952   4.833   0.859   4.181  0.0446 -0.5689 -0.2739
  152OSM   H11F16953   4.813   0.961   4.219  4.6783  0.0681  1.0986
  152OSM   H11G16954   4.898   0.874   4.093 -0.5784 -1.5060 -0.9019
  152OSM   C12F16955   4.944   0.811   4.284  0.0467  0.2093 -1.3333
  152OSM   H12F16956   5.047   0.842   4.258  1.1548 -1.5857  0.6046
  152OSM   H12G16957   4.944   0.700   4.289  1.3712  0.2436 -0.0183
  152OSM   C13F16958   4.904   0.858   4.420 -0.2925 -0.0741 -0.0431
  152OSM   H13F16959   4.802   0.821   4.441 -0.2357 -0.6792 -0.7865
  152OSM   H13G16960   4.905   0.968   4.409  0.1693  0.1082  1.5286
  152OSM   C14F16961   4.997   0.828   4.542 -0.3610 -0.2396  0.1197
  152OSM   H14F16962   5.002   0.718   4.556 -0.8477  0.0037  2.6834
  152OSM   H14G16963   4.943   0.854   4.636 -3.0692 -1.5524 -0.9817
  152OSM   C15F16964   5.143   0.883   4.535  0.6534 -0.2785  0.5516
  152OSM   H15F16965   5.125   0.989   4.508 -0.9263 -0.9007 -1.0620
  152OSM   H15G16966   5.200   0.842   4.449  1.2835  0.9297  0.3677
  152OSM   C16F16967   5.219   0.867   4.663 -0.2292  0.0277  0.0501
  152OSM   H16F16968   5.190   0.776   4.720 -2.8627  1.2266  0.7996
  152OSM   H16G16969   5.203   0.955   4.728 -0.6125  0.1921 -0.2641
  152OSM   C17F16970   5.366   0.858   4.631 -0.5545 -0.0848  0.6063
  152OSM   H17F16971   5.400   0.939   4.563 -1.7174 -1.0994 -1.2477
  152OSM   H17G16972   5.380   0.765   4.573 -2.6383 -0.3280  0.4397
  152OSM   C18F16973   5.464   0.849   4.751  0.0955 -0.3291 -0.3654
  152OSM   H18F16974   5.568   0.825   4.721  0.6118  0.9286  0.3723
  152OSM   H18G16975   5.435   0.767   4.820 -1.0823  2.1877  2.3587
  152OSM   H18H16976   5.468   0.940   4.815  0.8055 -2.8707  3.5236
  153OSM      N16977   3.273   0.197   2.190  0.5866  0.0235  0.1447
  153OSM    C1516978   3.333   0.122   2.076  0.1260  0.1707 -0.1889
  153OSM   H15A16979   3.397   0.042   2.111 -0.7484 -2.0652 -3.2791
  153OSM   H15B16980   3.391   0.198   2.025  0.9162  1.6380  2.6303
  153OSM   H15C16981   3.258   0.089   2.006  0.5143  0.4732 -0.7495
  153OSM    C1416982   3.189   0.304   2.136 -0.0029 -0.3305  0.2077
  153OSM   H14A16983   3.114   0.270   2.066  0.3230  1.9409 -1.3613
  153OSM   H14B16984   3.252   0.374   2.083  0.7452 -1.1906 -0.0667
  153OSM   H14C16985   3.139   0.357   2.215  0.1563  0.4045 -0.1788
  153OSM    C1316986   3.167   0.111   2.262 -0.8505  0.3257  0.5202
  153OSM   H13A16987   3.098   0.071   2.189  1.6677  0.9966 -2.4887
  153OSM   H13B16988   3.113   0.175   2.330 -1.2594  0.2167  0.3028
  153OSM   H13C16989   3.213   0.028   2.314  2.0960 -0.3056 -2.7035
  153OSM    C1216990   3.376   0.257   2.284 -1.1176 -0.7042  0.3154
  153OSM   H12A16991   3.332   0.322   2.358 -0.4972 -0.4281  0.4568
  153OSM   H12B16992   3.442   0.315   2.220  0.4737 -4.0050 -1.2577
  153OSM    C1116993   3.479   0.166   2.366 -0.2196  0.0585  0.5772
  153OSM   H11A16994   3.415   0.091   2.418  1.2140 -1.0788  0.7862
  153OSM   H11B16995   3.535   0.222   2.444  1.8979 -2.4385  0.9975
  153OSM      P16996   3.605  -0.045   2.263  0.3246  0.1156  0.1526
  153OSM    O1316997   3.482  -0.114   2.219 -0.3528  0.1191  0.4603
  153OSM    O1416998   3.722  -0.058   2.174  0.6374  0.0361 -0.1155
  153OSM    O1116999   3.643  -0.090   2.410  0.2298 -0.6348 -0.9199
  153OSM    O1217000   3.569   0.109   2.273 -0.5434  0.1451  0.2701
  153OSM    C1S17001   3.743  -0.003   2.483 -0.2072  0.4388 -1.2434
  153OSM    H1S17002   3.703   0.100   2.492 -0.5313  0.1551  0.8927
  153OSM    H1T17003   3.842  -0.003   2.433  0.4703  2.6139 -0.0271
  153OSM     NF17004   3.872   0.026   2.688 -0.1003 -0.1646 -0.3064
  153OSM    HNF17005   3.968  -0.001   2.691  0.2853  1.1881  0.4223
  153OSM    C2S17006   3.776  -0.062   2.624  0.8329  0.0425 -0.3796
  153OSM    H2S17007   3.680  -0.061   2.679  0.2815  1.0613 -1.3089
  153OSM    C3S17008   3.817  -0.211   2.624 -0.1711 -0.1954 -0.4669
  153OSM    H3S17009   3.910  -0.231   2.567  0.1831 -1.9689  0.6470
  153OSM     O317010   3.726  -0.293   2.566  0.0176 -0.3512 -0.3059
  153OSM    HO317011   3.678  -0.239   2.503 -2.8988 -1.0253  1.1644
  153OSM    C4S17012   3.838  -0.262   2.770  0.1637  0.6780 -0.2244
  153OSM    H4S17013   3.939  -0.250   2.811 -0.1134 -1.3984  1.2419
  153OSM    C5S17014   3.752  -0.320   2.855 -0.3556 -0.1148  0.3399
  153OSM    H5S17015   3.650  -0.339   2.818 -0.1900  0.5215 -0.4804
  153OSM    C6S17016   3.798  -0.370   2.989  0.1724  0.1242  0.1448
  153OSM    H6S17017   3.865  -0.457   2.974  0.0207 -0.0585  0.5182
  153OSM    H6T17018   3.705  -0.410   3.034 -0.5715 -0.2413 -1.6325
  153OSM    C7S17019   3.864  -0.275   3.088 -0.5620  0.6429  0.4151
  153OSM    H7S17020   3.784  -0.202   3.113 -0.9480 -0.3784  2.4212
  153OSM    H7T17021   3.955  -0.231   3.043 -0.1227  0.9017  1.5307
  153OSM    C8S17022   3.896  -0.356   3.212  0.1253  0.6190 -0.9448
  153OSM    H8S17023   4.002  -0.387   3.200  0.4134  1.5734 -0.9987
  153OSM    H8T17024   3.830  -0.445   3.214 -1.6108  1.8313 -1.5333
  153OSM    C9S17025   3.879  -0.274   3.340 -0.2645  1.0006 -0.1390
  153OSM    H9S17026   3.784  -0.216   3.328 -1.0325 -0.3951 -1.0553
  153OSM    H9T17027   3.966  -0.206   3.351 -0.0368  0.4938  1.5459
  153OSM   C10S17028   3.882  -0.361   3.465  0.3069 -0.0047 -0.9177
  153OSM   H10S17029   3.975  -0.421   3.460  0.1083 -0.3047 -1.0189
  153OSM   H10T17030   3.802  -0.437   3.463  0.6211 -0.7904  4.0495
  153OSM   C11S17031   3.849  -0.281   3.600 -0.7302  0.2446  0.1529
  153OSM   H11S17032   3.738  -0.271   3.606 -0.6649  0.2007  3.4751
  153OSM   H11T17033   3.895  -0.180   3.598 -0.0154 -0.0638  0.5736
  153OSM   C12S17034   3.880  -0.365   3.731  0.1405  0.2205 -0.2882
  153OSM   H12S17035   3.978  -0.412   3.707 -1.1097 -1.5891 -2.1387
  153OSM   H12T17036   3.795  -0.436   3.741  0.1182  0.4270  1.2523
  153OSM   C13S17037   3.890  -0.282   3.863 -1.1498  1.0196 -0.2002
  153OSM   H13S17038   3.803  -0.213   3.859  0.4351  3.1085 -2.3945
  153OSM   H13T17039   3.976  -0.212   3.855 -0.4217  0.1948  0.2548
  153OSM   C14S17040   3.911  -0.369   3.988  0.2741 -0.2438 -0.0156
  153OSM   H14S17041   3.818  -0.428   3.999  0.3382 -0.1071  1.6208
  153OSM   H14T17042   3.924  -0.304   4.078 -0.6376 -0.0508 -0.0108
  153OSM   C15S17043   4.036  -0.449   3.979 -0.5139 -0.5874  0.1410
  153OSM   H15S17044   4.111  -0.394   3.919 -1.2565 -0.4070 -0.6396
  153OSM   H15T17045   4.012  -0.546   3.933  1.3643 -1.5631  1.0889
  153OSM   C16S17046   4.102  -0.469   4.118  0.1213  0.4050 -0.3226
  153OSM   H16S17047   4.031  -0.504   4.196 -0.5200  1.6492 -0.3302
  153OSM   H16T17048   4.157  -0.388   4.170  3.6326 -1.6488 -0.5075
  153OSM   C17S17049   4.209  -0.587   4.110 -0.2959  1.4124 -0.1164
  153OSM   H17S17050   4.286  -0.570   4.032 -0.6755 -2.4564 -1.5771
  153OSM   H17T17051   4.166  -0.688   4.096 -0.7633  1.2941  1.8323
  153OSM   C18S17052   4.288  -0.610   4.242 -0.4004  0.0315  0.2637
  153OSM   H18S17053   4.359  -0.694   4.234  1.5998  1.5755  1.0840
  153OSM   H18T17054   4.204  -0.635   4.311 -1.6544 -0.3829 -1.3333
  153OSM   H18U17055   4.337  -0.517   4.278 -3.5057  1.2300  1.7918
  153OSM    C1F17056   3.831   0.150   2.727  0.0755 -0.1501  0.6741
  153OSM     OF17057   3.712   0.189   2.711 -0.5857  0.0133  0.1635
  153OSM    C2F17058   3.937   0.246   2.777 -0.2046  0.5909 -0.6194
  153OSM    H2F17059   4.029   0.241   2.716 -0.4254  0.0563 -0.9114
  153OSM    H2G17060   3.959   0.208   2.880 -1.3615 -3.6256 -1.7194
  153OSM    C3F17061   3.890   0.392   2.786 -0.0880 -0.5081  0.0843
  153OSM    H3F17062   3.790   0.404   2.833 -0.0922 -1.2588  0.2681
  153OSM    H3G17063   3.873   0.412   2.678  3.3717  1.0998 -0.2819
  153OSM    C4F17064   3.984   0.495   2.843  0.1071  0.6200 -0.1250
  153OSM    H4F17065   3.956   0.590   2.793  1.8788  2.0701  1.4819
  153OSM    H4G17066   4.089   0.469   2.816 -0.2502 -2.1079  0.8534
  153OSM    C5F17067   3.974   0.490   2.989  0.3652 -1.1235 -0.1283
  153OSM    H5F17068   3.955   0.383   3.014  0.0452 -1.5891 -2.1625
  153OSM    H5G17069   3.878   0.541   3.012  1.2243  0.1182  0.7597
  153OSM    C6F17070   4.087   0.541   3.076  0.5687  0.0764  0.2693
  153OSM    H6F17071   4.137   0.625   3.024  2.7670 -0.2322  1.7667
  153OSM    H6G17072   4.161   0.459   3.089 -0.8238 -2.3059 -4.3595
  153OSM    C7F17073   4.032   0.583   3.209  0.2855  0.0399 -0.6115
  153OSM    H7F17074   3.999   0.495   3.268  0.9745 -1.0047 -1.7506
  153OSM    H7G17075   3.950   0.658   3.204  0.3302  0.0033 -2.4741
  153OSM    C8F17076   4.144   0.653   3.293  0.5005  0.2178 -0.7507
  153OSM    H8F17077   4.089   0.675   3.387 -0.6159  0.8424 -1.5374
  153OSM    H8G17078   4.169   0.753   3.252  2.0723  0.0760 -0.2206
  153OSM    C9F17079   4.267   0.575   3.323 -0.0783 -0.1563  0.3431
  153OSM    H9F17080   4.340   0.572   3.241 -0.5011  1.1701 -0.0996
  153OSM   C10F17081   4.278   0.488   3.425 -0.0771 -0.7159 -0.3011
  153OSM   H10F17082   4.363   0.418   3.431  1.5215  1.1341 -0.4641
  153OSM   C11F17083   4.196   0.481   3.557 -0.5702  0.1650  0.6698
  153OSM   H11F17084   4.184   0.373   3.578 -0.7275 -0.4033 -1.9513
  153OSM   H11G17085   4.089   0.502   3.538 -0.2441  0.3312 -1.2385
  153OSM   C12F17086   4.264   0.563   3.666 -0.1398 -0.0200 -0.4206
  153OSM   H12F17087   4.298   0.661   3.627  1.5678  0.7612  2.6445
  153OSM   H12G17088   4.354   0.504   3.694  0.5536  0.7725 -0.9313
  153OSM   C13F17089   4.176   0.587   3.786 -0.1417 -0.2630 -0.1134
  153OSM   H13F17090   4.126   0.491   3.809 -0.1838 -0.5152 -1.2085
  153OSM   H13G17091   4.093   0.657   3.764 -0.0902  0.2136  1.1136
  153OSM   C14F17092   4.254   0.638   3.909  0.0559 -0.1930 -0.3771
  153OSM   H14F17093   4.314   0.722   3.867  0.4915  0.0412  0.7006
  153OSM   H14G17094   4.319   0.559   3.952  4.4123  2.3924 -1.5328
  153OSM   C15F17095   4.164   0.680   4.025  0.0347 -0.1923  0.1365
  153OSM   H15F17096   4.118   0.599   4.086  0.1472  0.3991  1.0305
  153OSM   H15G17097   4.084   0.750   3.990 -1.2713 -0.4927  2.3334
  153OSM   C16F17098   4.250   0.764   4.126  0.2500 -0.3331  0.0950
  153OSM   H16F17099   4.311   0.847   4.082  0.2025  0.0171  0.6756
  153OSM   H16G17100   4.331   0.698   4.163 -1.1549 -0.4177  3.3562
  153OSM   C17F17101   4.165   0.823   4.242  0.2564 -0.2138  0.2709
  153OSM   H17F17102   4.141   0.737   4.308 -0.1266  0.1035  0.5456
  153OSM   H17G17103   4.067   0.854   4.199  0.9333  1.3699 -0.1991
  153OSM   C18F17104   4.241   0.943   4.313  0.1336 -0.6649  0.1280
  153OSM   H18F17105   4.255   1.029   4.244 -2.7614 -0.2376 -0.0367
  153OSM   H18G17106   4.340   0.902   4.344 -0.0766 -0.9758  0.3935
  153OSM   H18H17107   4.187   0.969   4.406 -1.1508 -2.9342  0.0961
  154OSM      N17108   3.283   4.686   1.898 -0.7766 -0.2242 -0.1000
  154OSM    C1517109   3.390   4.783   1.872 -0.1663 -0.1496 -0.0062
  154OSM   H15A17110   3.485   4.754   1.915 -0.1796 -1.7300 -0.9859
  154OSM   H15B17111   3.387   4.884   1.912  1.3094 -0.5271  1.1316
  154OSM   H15C17112   3.416   4.785   1.767  0.2414  0.1463  0.0956
  154OSM    C1417113   3.156   4.743   1.837  0.1400  0.4146  0.3154
  154OSM   H14A17114   3.185   4.747   1.733  3.5535  1.5756  1.1899
  154OSM   H14B17115   3.137   4.842   1.877  1.1461 -0.2069  2.5277
  154OSM   H14C17116   3.068   4.682   1.852  0.3218  0.0859  0.0533
  154OSM    C1317117   3.321   4.552   1.838  0.4392  0.5804 -0.0202
  154OSM   H13A17118   3.322   4.557   1.730 -2.1804 -0.4824 -0.1799
  154OSM   H13B17119   3.254   4.467   1.850  1.0185  0.2617  1.1102
  154OSM   H13C17120   3.417   4.526   1.879  0.2773  0.5180  0.3209
  154OSM    C1217121   3.275   4.682   2.051  1.1029 -0.6007 -0.4414
  154OSM   H12A17122   3.193   4.620   2.086  0.7341 -0.2906 -0.7423
  154OSM   H12B17123   3.260   4.785   2.078  0.3534  0.2088 -3.5228
  154OSM    C1117124   3.402   4.626   2.122 -0.6549 -0.0150 -0.4256
  154OSM   H11A17125   3.412   4.666   2.225  2.0015  0.6023 -0.8529
  154OSM   H11B17126   3.494   4.651   2.064 -1.5309  0.9685 -1.4486
  154OSM      P17127   3.284   4.411   2.214 -0.1945  0.3021 -0.3665
  154OSM    O1317128   3.205   4.515   2.287 -0.0539  0.4291  0.0972
  154OSM    O1417129   3.208   4.304   2.149  0.1563 -0.1147 -0.6461
  154OSM    O1117130   3.380   4.351   2.318 -0.3791  0.3853 -0.2739
  154OSM    O1217131   3.392   4.485   2.124 -0.0680 -0.4348  0.0242
  154OSM    C1S17132   3.478   4.426   2.392  0.0847 -0.1132  0.1338
  154OSM    H1S17133   3.494   4.533   2.367  1.0039 -0.8995 -3.0285
  154OSM    H1T17134   3.580   4.385   2.379 -0.4649 -1.3916 -0.2969
  154OSM     NF17135   3.554   4.499   2.610 -0.4281 -0.1503  0.0090
  154OSM    HNF17136   3.645   4.459   2.617 -2.0600 -4.0295  2.1793
  154OSM    C2S17137   3.460   4.414   2.544  0.0570 -1.1517  0.0163
  154OSM    H2S17138   3.357   4.450   2.568  0.8487  0.2939  1.4198
  154OSM    C3S17139   3.452   4.264   2.600 -0.0472 -0.1361  0.0042
  154OSM    H3S17140   3.556   4.226   2.607 -0.2911 -1.0151 -0.9902
  154OSM     O317141   3.377   4.172   2.521  0.5559  0.0530 -1.0598
  154OSM    HO317142   3.365   4.214   2.436 -0.8920  2.2066  0.1158
  154OSM    C4S17143   3.389   4.251   2.741  0.0500 -0.5731 -0.1722
  154OSM    H4S17144   3.280   4.260   2.753  0.0967  0.3480 -0.3817
  154OSM    C5S17145   3.462   4.229   2.849 -0.2158 -0.5258  0.5815
  154OSM    H5S17146   3.571   4.213   2.837 -0.0358  1.7457 -1.6233
  154OSM    C6S17147   3.404   4.207   2.984  0.0226 -0.0077 -0.8443
  154OSM    H6S17148   3.455   4.120   3.031  1.2786  0.4471 -1.3133
  154OSM    H6T17149   3.294   4.204   2.975 -0.0629  2.0498 -1.0414
  154OSM    C7S17150   3.444   4.320   3.086  0.4499  0.8306  0.1242
  154OSM    H7S17151   3.430   4.420   3.039  0.4554 -0.0499 -1.8590
  154OSM    H7T17152   3.551   4.308   3.113  0.2165 -2.6618 -0.1065
  154OSM    C8S17153   3.373   4.303   3.217  0.5539 -0.5449  0.8203
  154OSM    H8S17154   3.393   4.204   3.264 -1.7022 -0.6120  1.8089
  154OSM    H8T17155   3.267   4.300   3.182  1.3091  0.6520 -1.8037
  154OSM    C9S17156   3.381   4.421   3.315  0.0644 -0.7441 -0.6623
  154OSM    H9S17157   3.289   4.421   3.376  0.1987  4.2947 -0.0210
  154OSM    H9T17158   3.370   4.519   3.262  0.4920 -0.4442 -0.2102
  154OSM   C10S17159   3.508   4.414   3.395  0.0065  0.1187  0.6555
  154OSM   H10S17160   3.593   4.430   3.324 -1.3190 -0.3728 -1.1073
  154OSM   H10T17161   3.512   4.308   3.429  0.2598  0.0982  0.5670
  154OSM   C11S17162   3.518   4.524   3.508  0.4022  0.0010 -0.2328
  154OSM   H11S17163   3.421   4.526   3.561 -0.6537  0.9924 -2.1115
  154OSM   H11T17164   3.529   4.627   3.469  1.6032  0.9037  2.3003
  154OSM   C12S17165   3.617   4.469   3.606 -0.4772  0.7116  0.7947
  154OSM   H12S17166   3.713   4.429   3.567 -0.0356  1.9176  0.6049
  154OSM   H12T17167   3.576   4.372   3.642 -0.3322 -0.2919 -1.5244
  154OSM   C13S17168   3.644   4.552   3.739 -0.0149 -0.3237 -0.1017
  154OSM   H13S17169   3.711   4.637   3.715  0.0017 -1.1653 -3.5823
  154OSM   H13T17170   3.695   4.484   3.811  0.9659  2.2899  1.8067
  154OSM   C14S17171   3.511   4.608   3.808 -0.6306 -0.1977  0.5055
  154OSM   H14S17172   3.455   4.665   3.731 -0.4314  0.6931  0.9927
  154OSM   H14T17173   3.533   4.690   3.880  1.7958 -0.5614  0.2612
  154OSM   C15S17174   3.420   4.506   3.870  0.0549 -0.4702 -0.0151
  154OSM   H15S17175   3.392   4.432   3.792  1.0920 -2.8400  1.7239
  154OSM   H15T17176   3.333   4.563   3.909  1.3523  1.9857 -0.5540
  154OSM   C16S17177   3.480   4.425   3.981  0.0444 -0.1011  0.1240
  154OSM   H16S17178   3.581   4.401   3.941  1.6248  4.1233  1.0839
  154OSM   H16T17179   3.423   4.330   3.986  0.4417 -0.4761 -1.8083
  154OSM   C17S17180   3.505   4.486   4.108 -0.3505  0.0901 -0.5111
  154OSM   H17S17181   3.418   4.536   4.155  0.9668  3.1970 -1.1207
  154OSM   H17T17182   3.568   4.575   4.085  0.3905 -0.5048 -0.8449
  154OSM   C18S17183   3.583   4.401   4.209 -0.8044 -0.1212 -0.2199
  154OSM   H18S17184   3.675   4.362   4.159 -0.3431 -0.1740  0.6392
  154OSM   H18T17185   3.521   4.318   4.249 -2.6742  0.2931 -2.0807
  154OSM   H18U17186   3.609   4.465   4.296 -2.1462 -1.6642  1.3947
  154OSM    C1F17187   3.534   4.625   2.638 -0.2937 -0.2224 -0.1186
  154OSM     OF17188   3.426   4.678   2.609  0.0957 -0.4338 -0.3573
  154OSM    C2F17189   3.653   4.698   2.684 -0.2999  0.2589  1.0570
  154OSM    H2F17190   3.704   4.733   2.592 -0.1724  0.9454  1.3865
  154OSM    H2G17191   3.723   4.635   2.743 -0.3522  0.4578  1.3350
  154OSM    C3F17192   3.613   4.827   2.758 -0.8099 -0.7397  0.4123
  154OSM    H3F17193   3.544   4.877   2.687  1.3708  2.2621  0.2016
  154OSM    H3G17194   3.703   4.889   2.776 -0.2341 -0.9716 -1.4926
  154OSM    C4F17195   3.530   4.810   2.878  0.7128  0.4698 -0.3685
  154OSM    H4F17196   3.430   4.764   2.864 -0.4204  2.6478  0.1670
  154OSM    H4G17197   3.498   4.902   2.929  1.0003  0.3574  0.0190
  154OSM    C5F17198   3.603   4.728   2.987  0.7351  0.0031  0.1677
  154OSM    H5F17199   3.640   4.628   2.957  0.7098  0.3533 -1.0948
  154OSM    H5G17200   3.524   4.710   3.063  0.5364  0.4709  0.0764
  154OSM    C6F17201   3.707   4.804   3.075  0.5504  0.4699 -0.3123
  154OSM    H6F17202   3.661   4.900   3.104  1.3187  0.4536  1.0733
  154OSM    H6G17203   3.805   4.823   3.027  3.3715 -2.8919  3.3533
  154OSM    C7F17204   3.725   4.724   3.214 -0.6066 -0.2892  0.4583
  154OSM    H7F17205   3.779   4.630   3.189  0.7759  0.9618 -1.6191
  154OSM    H7G17206   3.622   4.722   3.255 -0.7848  0.1209  0.0481
  154OSM    C8F17207   3.803   4.817   3.313 -0.3384  0.4581 -0.9388
  154OSM    H8F17208   3.742   4.910   3.317 -0.0624  0.5987  1.6429
  154OSM    H8G17209   3.904   4.850   3.283  1.2209 -0.6393  2.5874
  154OSM    C9F17210   3.811   4.772   3.456  1.0439 -0.3203  0.1104
  154OSM    H9F17211   3.725   4.705   3.469 -1.0129  2.0679 -0.3915
  154OSM   C10F17212   3.894   4.811   3.560  0.5694  0.2697 -0.2293
  154OSM   H10F17213   3.889   4.757   3.656 -0.4767 -0.4132 -0.6555
  154OSM   C11F17214   4.002   4.909   3.549  0.2597  0.1182 -0.0440
  154OSM   H11F17215   3.952   5.004   3.521 -0.8210 -0.5115 -0.3205
  154OSM   H11G17216   4.071   4.903   3.462 -0.2319 -1.0018 -0.3712
  154OSM   C12F17217   4.088   4.926   3.668  0.2036 -0.2750  0.6444
  154OSM   H12F17218   4.039   4.959   3.762  0.3832  1.0358  0.2996
  154OSM   H12G17219   4.170   4.996   3.643  0.2479 -0.8020 -0.8150
  154OSM   C13F17220   4.168   4.799   3.703  0.3424 -0.4995 -0.3733
  154OSM   H13F17221   4.223   4.772   3.610  3.8570  0.1191  1.3556
  154OSM   H13G17222   4.096   4.719   3.730 -2.7343  1.4987 -1.9993
  154OSM   C14F17223   4.266   4.824   3.822  0.1308  0.7214  0.0097
  154OSM   H14F17224   4.213   4.874   3.905  2.3394  0.0391  1.9324
  154OSM   H14G17225   4.361   4.877   3.802  0.6469  0.3668  1.4328
  154OSM   C15F17226   4.313   4.691   3.889  0.8236  0.2659 -0.0801
  154OSM   H15F17227   4.363   4.633   3.809 -0.2107 -1.0382  0.1824
  154OSM   H15G17228   4.233   4.627   3.933  2.2890 -3.3477 -2.2411
  154OSM   C16F17229   4.410   4.716   4.006 -0.0748  0.2648  0.8309
  154OSM   H16F17230   4.381   4.810   4.056  0.8972  0.8666  0.2927
  154OSM   H16G17231   4.512   4.733   3.966  0.4322 -3.9208 -0.2198
  154OSM   C17F17232   4.437   4.597   4.101  0.4629 -0.5157  0.1971
  154OSM   H17F17233   4.456   4.501   4.048 -1.7552 -1.2162  0.5663
  154OSM   H17G17234   4.354   4.568   4.169  0.7399  0.0075  0.7654
  154OSM   C18F17235   4.539   4.624   4.209  0.1457 -0.6607 -0.3243
  154OSM   H18F17236   4.504   4.712   4.266 -1.6551  0.5168 -3.0228
  154OSM   H18G17237   4.636   4.649   4.161  1.2746 -1.4909  1.4475
  154OSM   H18H17238   4.561   4.532   4.266  0.9005 -0.2288  0.1020
  155OSM      N17239   0.576   5.360   2.371 -0.9736 -0.2010 -0.2731
  155OSM    C1517240   0.460   5.453   2.350  0.1412 -0.6922  1.1832
  155OSM   H15A17241   0.388   5.428   2.273  1.6331  0.2249 -0.5859
  155OSM   H15B17242   0.495   5.549   2.316  0.5066 -1.6502 -1.3920
  155OSM   H15C17243   0.420   5.471   2.449  0.8341 -0.3366  1.4010
  155OSM    C1417244   0.516   5.235   2.433 -0.4384  0.0594 -0.5976
  155OSM   H14A17245   0.597   5.165   2.445 -1.0825 -0.5329  0.5075
  155OSM   H14B17246   0.436   5.182   2.383  0.4924 -0.3867 -1.6393
  155OSM   H14C17247   0.467   5.260   2.527  0.6133  0.0757 -0.0444
  155OSM    C1317248   0.628   5.321   2.240  0.2492  0.0812 -0.5374
  155OSM   H13A17249   0.701   5.243   2.255  0.9526  0.8892  0.2522
  155OSM   H13B17250   0.670   5.406   2.189  2.9899 -0.5813  0.4839
  155OSM   H13C17251   0.548   5.290   2.173 -1.0148 -0.4919  1.1633
  155OSM    C1217252   0.681   5.418   2.464  0.3115  0.6424  0.5611
  155OSM   H12A17253   0.693   5.520   2.429  2.7726 -0.5879 -2.7435
  155OSM   H12B17254   0.772   5.362   2.448  0.4048  0.7682  0.6503
  155OSM    C1117255   0.639   5.421   2.608 -0.0710  0.3653  0.2564
  155OSM   H11A17256   0.720   5.471   2.665  1.0253 -0.0931 -0.8692
  155OSM   H11B17257   0.613   5.327   2.660 -0.3740 -0.4765 -1.3486
  155OSM      P17258   0.529   5.663   2.643 -0.5798 -0.2252  0.4968
  155OSM    O1317259   0.645   5.722   2.569 -0.5765  0.1210  0.2786
  155OSM    O1417260   0.389   5.708   2.617 -0.5036  0.1532  0.5559
  155OSM    O1117261   0.563   5.668   2.798 -0.3226 -0.3109  0.0041
  155OSM    O1217262   0.522   5.506   2.619  0.1896 -0.3478 -0.4029
  155OSM    C1S17263   0.480   5.599   2.897 -0.4305  0.4260  0.0503
  155OSM    H1S17264   0.472   5.491   2.872 -0.4746  0.6778 -1.0488
  155OSM    H1T17265   0.379   5.646   2.906  0.0931  1.4904  0.6409
  155OSM     NF17266   0.429   5.551   3.137  0.3019 -0.0242 -0.3028
  155OSM    HNF17267   0.376   5.600   3.206  0.7800  0.2828 -0.1402
  155OSM    C2S17268   0.532   5.605   3.047 -0.3620 -0.6524 -0.1180
  155OSM    H2S17269   0.614   5.532   3.067  0.3537  0.4674  1.1301
  155OSM    C3S17270   0.588   5.748   3.076  0.0101  0.0206 -0.3039
  155OSM    H3S17271   0.507   5.820   3.055 -0.8255 -0.4683  1.1226
  155OSM     O317272   0.700   5.794   2.988 -0.2021 -0.1291  0.5654
  155OSM    HO317273   0.675   5.757   2.903  0.1595  2.0074 -0.5261
  155OSM    C4S17274   0.634   5.758   3.222  0.2396 -0.1467 -0.8050
  155OSM    H4S17275   0.552   5.792   3.287  0.6890 -1.0531  0.2638
  155OSM    C5S17276   0.755   5.764   3.275 -0.1185 -1.4317  0.0164
  155OSM    H5S17277   0.841   5.763   3.206  2.2605  2.8366  2.4471
  155OSM    C6S17278   0.791   5.782   3.426  0.5306 -0.3625  0.1258
  155OSM    H6S17279   0.895   5.819   3.442  0.8592 -0.8167 -0.8454
  155OSM    H6T17280   0.773   5.685   3.477 -1.5944 -0.0691  0.0288
  155OSM    C7S17281   0.712   5.890   3.499  0.4807  0.3029 -0.1855
  155OSM    H7S17282   0.602   5.875   3.496  0.5024  0.0421  0.2385
  155OSM    H7T17283   0.737   5.993   3.466 -1.6855  0.2754 -2.2024
  155OSM    C8S17284   0.741   5.886   3.650 -0.1262 -0.1671  0.2749
  155OSM    H8S17285   0.852   5.884   3.657 -0.1018  2.3490  2.2532
  155OSM    H8T17286   0.699   5.793   3.694  1.0038 -0.7644  0.1477
  155OSM    C9S17287   0.684   5.998   3.739  0.0071 -0.6294  0.8592
  155OSM    H9S17288   0.573   5.998   3.729  0.1650 -1.5168 -2.1788
  155OSM    H9T17289   0.716   6.099   3.706 -0.3746 -1.2090 -1.4654
  155OSM   C10S17290   0.722   5.992   3.886 -0.1276 -0.3531 -0.5203
  155OSM   H10S17291   0.691   6.089   3.930  0.4328  1.0665 -3.0091
  155OSM   H10T17292   0.833   5.982   3.889 -0.3008 -3.3696 -1.2768
  155OSM   C11S17293   0.659   5.874   3.959 -0.7020 -0.7251  0.5777
  155OSM   H11S17294   0.696   5.781   3.911  0.8591  0.8260 -1.4766
  155OSM   H11T17295   0.549   5.887   3.953 -0.9680 -3.1541 -1.0057
  155OSM   C12S17296   0.710   5.868   4.103  0.2939 -0.0543  0.3984
  155OSM   H12S17297   0.678   5.960   4.156 -0.7539  0.6284 -1.3286
  155OSM   H12T17298   0.821   5.873   4.101  0.3189 -0.8473 -1.1982
  155OSM   C13S17299   0.665   5.741   4.174 -0.5488 -0.5219 -0.6244
  155OSM   H13S17300   0.672   5.662   4.097  1.0664 -0.7307 -0.3142
  155OSM   H13T17301   0.559   5.759   4.201 -0.6041 -0.3369 -0.9688
  155OSM   C14S17302   0.741   5.706   4.300  0.0207  0.3425  0.2585
  155OSM   H14S17303   0.704   5.774   4.379 -2.9631 -1.7611  0.8293
  155OSM   H14T17304   0.851   5.718   4.295  0.1293 -0.5236  0.4600
  155OSM   C15S17305   0.708   5.563   4.357 -0.5152 -0.3971  1.4477
  155OSM   H15S17306   0.736   5.505   4.266 -0.5054 -0.1383  1.2846
  155OSM   H15T17307   0.600   5.539   4.358 -0.4292 -0.9757 -0.1962
  155OSM   C16S17308   0.780   5.514   4.478 -0.8583 -0.1443  0.3025
  155OSM   H16S17309   0.751   5.578   4.564 -0.2532  1.0775 -0.3694
  155OSM   H16T17310   0.890   5.511   4.465 -0.5833  1.1608  1.9751
  155OSM   C17S17311   0.731   5.374   4.518 -0.0058 -0.0150  0.3174
  155OSM   H17S17312   0.626   5.393   4.547  0.8003  1.9459  2.2358
  155OSM   H17T17313   0.793   5.344   4.606 -0.2642 -0.3620  0.3834
  155OSM   C18S17314   0.752   5.270   4.406  0.3243 -0.1765 -0.1129
  155OSM   H18S17315   0.850   5.291   4.360  0.3253 -0.1097 -0.0804
  155OSM   H18T17316   0.670   5.265   4.331 -0.2195 -1.1572  0.5156
  155OSM   H18U17317   0.758   5.163   4.437 -2.4656 -0.7275 -1.1960
  155OSM    C1F17318   0.385   5.422   3.121  0.3725 -0.7028 -0.4565
  155OSM     OF17319   0.463   5.339   3.069  0.4751  0.1817 -0.3105
  155OSM    C2F17320   0.257   5.383   3.194 -0.3174  0.4622 -0.2262
  155OSM    H2F17321   0.191   5.472   3.186 -0.9628  0.7961  5.0052
  155OSM    H2G17322   0.284   5.393   3.301  0.0301  1.7567 -0.4153
  155OSM    C3F17323   0.196   5.250   3.155  0.4974  0.1274  0.5933
  155OSM    H3F17324   0.264   5.172   3.195  2.0358  2.5287  2.9663
  155OSM    H3G17325   0.193   5.247   3.044  0.4403 -0.4447  0.6057
  155OSM    C4F17326   0.056   5.221   3.212 -0.0074 -0.3858  0.2341
  155OSM    H4F17327  -0.000   5.184   3.123 -2.1801  1.1885  0.8441
  155OSM    H4G17328  -0.005   5.309   3.243  0.6024  0.5167 -0.9964
  155OSM    C5F17329   0.054   5.124   3.331  0.1560  0.0821 -1.0204
  155OSM    H5F17330   0.130   5.132   3.411 -1.5592 -0.9685  0.8292
  155OSM    H5G17331   0.050   5.020   3.292 -1.7874 -1.0311  1.7617
  155OSM    C6F17332  -0.082   5.134   3.406 -0.5656 -0.6744  0.3945
  155OSM    H6F17333  -0.169   5.138   3.338  0.4004  0.8063 -0.8423
  155OSM    H6G17334  -0.074   5.231   3.460  2.1670 -1.2565  1.1970
  155OSM    C7F17335  -0.104   5.027   3.510  1.4257  0.0569  0.0838
  155OSM    H7F17336  -0.031   5.051   3.589 -0.6460  0.8108  1.8755
  155OSM    H7G17337  -0.075   4.928   3.470  0.5125 -1.0870  2.1025
  155OSM    C8F17338  -0.244   5.025   3.579  0.1914 -0.1021 -0.3287
  155OSM    H8F17339  -0.229   4.964   3.671  1.8612 -1.2071 -1.2819
  155OSM    H8G17340  -0.312   4.954   3.527 -1.5757  0.3599  1.2300
  155OSM    C9F17341  -0.309   5.157   3.608 -0.6505 -0.1225 -0.5456
  155OSM    H9F17342  -0.355   5.188   3.514  2.3694  0.1712 -2.0656
  155OSM   C10F17343  -0.319   5.234   3.715 -0.8861  0.4819  0.0496
  155OSM   H10F17344  -0.362   5.336   3.714  0.7393  1.2221  1.1343
  155OSM   C11F17345  -0.251   5.203   3.850  0.3663  0.0861 -0.7866
  155OSM   H11F17346  -0.230   5.298   3.902 -0.2392  0.9095 -2.0105
  155OSM   H11G17347  -0.166   5.132   3.846  1.3400  1.0401  1.4797
  155OSM   C12F17348  -0.348   5.147   3.956 -0.5240 -0.2397  0.6141
  155OSM   H12F17349  -0.391   5.047   3.933  0.7583 -0.4382 -1.1559
  155OSM   H12G17350  -0.438   5.212   3.951  0.1332  0.6556 -0.0812
  155OSM   C13F17351  -0.287   5.144   4.098 -0.1619  0.3185 -0.9121
  155OSM   H13F17352  -0.257   5.249   4.119  0.1140  0.2638 -1.0247
  155OSM   H13G17353  -0.203   5.071   4.101 -0.6872 -0.2822 -0.6394
  155OSM   C14F17354  -0.389   5.091   4.200 -0.4251  0.9502 -0.3869
  155OSM   H14F17355  -0.412   4.983   4.195 -1.2787  1.0054  1.4649
  155OSM   H14G17356  -0.484   5.148   4.199 -0.8343  0.3165  0.6999
  155OSM   C15F17357  -0.325   5.103   4.333 -0.3231 -0.9845 -0.2006
  155OSM   H15F17358  -0.316   5.213   4.346  0.3565 -0.9469 -0.9156
  155OSM   H15G17359  -0.222   5.064   4.345  0.9729  2.3576  0.6949
  155OSM   C16F17360  -0.399   5.061   4.460  0.2192  0.5161  0.7089
  155OSM   H16F17361  -0.393   4.960   4.507 -1.5276  0.5639  1.1168
  155OSM   H16G17362  -0.507   5.069   4.435  0.0532 -2.9042 -0.2312
  155OSM   C17F17363  -0.381   5.159   4.583  0.1456  0.2867 -0.8754
  155OSM   H17F17364  -0.447   5.135   4.670  0.5720  0.0006 -0.6227
  155OSM   H17G17365  -0.402   5.260   4.543  0.5276  0.2676 -1.1312
  155OSM   C18F17366  -0.241   5.143   4.650  0.1327 -0.1020 -0.9414
  155OSM   H18F17367  -0.219   5.234   4.709  0.6023  1.0820 -2.8307
  155OSM   H18G17368  -0.162   5.131   4.573  1.6567 -1.2117  0.7135
  155OSM   H18H17369  -0.243   5.049   4.709 -2.1042  0.1860 -0.4732
  156OSM      N17370   0.079   3.055   2.530 -0.2317 -0.4262 -0.8587
  156OSM    C1517371  -0.010   3.175   2.550  0.3035  0.4427  0.4380
  156OSM   H15A17372  -0.066   3.200   2.461 -0.3510  0.5024  0.8562
  156OSM   H15B17373   0.054   3.261   2.566  1.8854 -0.6501  0.1878
  156OSM   H15C17374  -0.075   3.165   2.636  0.1342  0.6931  0.3403
  156OSM    C1417375  -0.013   2.943   2.506  0.9509  0.4617  0.8187
  156OSM   H14A17376   0.042   2.850   2.500  1.0057  0.5644 -0.5431
  156OSM   H14B17377  -0.065   2.955   2.413  1.5660 -0.6668  0.2996
  156OSM   H14C17378  -0.085   2.939   2.586  2.3340 -0.5003  2.0830
  156OSM    C1317379   0.163   3.075   2.411  0.6824  0.2385  0.6659
  156OSM   H13A17380   0.243   3.147   2.426  2.6387 -1.6911  0.0070
  156OSM   H13B17381   0.098   3.101   2.329 -0.2122 -2.2712  0.5092
  156OSM   H13C17382   0.211   2.984   2.379 -2.3878 -0.4651 -2.4324
  156OSM    C1217383   0.171   3.015   2.646  0.1566  0.0041 -0.2833
  156OSM   H12A17384   0.201   2.912   2.633 -1.0627 -0.6342  1.5882
  156OSM   H12B17385   0.110   3.011   2.735 -1.4716 -0.9610 -1.3799
  156OSM    C1117386   0.294   3.106   2.682  1.0948  0.3525  0.0283
  156OSM   H11A17387   0.325   3.070   2.782 -1.3184  0.4543  0.8901
  156OSM   H11B17388   0.257   3.211   2.684 -0.8367 -0.2790 -0.2784
  156OSM      P17389   0.504   2.971   2.584 -0.2708  0.0446 -0.1141
  156OSM    O1317390   0.424   2.860   2.537  0.7519  0.2013  0.1435
  156OSM    O1417391   0.620   3.011   2.503  0.1781  0.3732  0.0254
  156OSM    O1117392   0.543   2.941   2.737 -0.0232  0.2811  1.0252
  156OSM    O1217393   0.410   3.104   2.596 -0.3278  0.3287 -0.5644
  156OSM    C1S17394   0.641   3.031   2.795  0.2599  0.1773 -0.5259
  156OSM    H1S17395   0.632   3.130   2.745  0.4532 -0.4334 -1.7966
  156OSM    H1T17396   0.747   3.000   2.779  0.4579  2.0450 -3.5392
  156OSM     NF17397   0.703   3.152   2.997  0.2836  0.3440 -0.2248
  156OSM    HNF17398   0.769   3.124   3.067  0.4762  0.4344 -0.3677
  156OSM    C2S17399   0.619   3.048   2.954  0.8679 -0.5226 -0.4513
  156OSM    H2S17400   0.520   3.095   2.972  2.2239  1.5846  2.0492
  156OSM    C3S17401   0.643   2.916   3.018 -0.0351 -0.1163 -0.4034
  156OSM    H3S17402   0.749   2.889   2.997  0.1129 -0.3487  0.5548
  156OSM     O317403   0.563   2.815   2.963  0.2238 -0.0288 -0.1276
  156OSM    HO317404   0.517   2.848   2.887 -1.4824 -1.7327  0.0929
  156OSM    C4S17405   0.624   2.906   3.168 -0.6942  0.1046 -0.1085
  156OSM    H4S17406   0.702   2.959   3.225 -0.7833 -0.4334  0.5266
  156OSM    C5S17407   0.527   2.846   3.234  0.6154  0.0943  0.5233
  156OSM    H5S17408   0.441   2.806   3.178  0.9874 -1.9409  1.3172
  156OSM    C6S17409   0.503   2.839   3.384 -0.2433  0.3098  0.2009
  156OSM    H6S17410   0.512   2.733   3.416 -0.3405  0.0631 -0.5814
  156OSM    H6T17411   0.404   2.880   3.411  0.7240  2.8856  0.1532
  156OSM    C7S17412   0.600   2.924   3.467 -0.1203  0.4204 -0.4208
  156OSM    H7S17413   0.601   3.033   3.447  0.0564  0.1535 -1.9575
  156OSM    H7T17414   0.708   2.900   3.466 -0.1003  0.5211 -0.6251
  156OSM    C8S17415   0.557   2.903   3.617  0.4517 -0.1825 -0.4078
  156OSM    H8S17416   0.608   2.810   3.651 -0.1176  0.0265  1.0964
  156OSM    H8T17417   0.449   2.881   3.631  0.2285  0.5997 -0.8872
  156OSM    C9S17418   0.597   3.025   3.696  0.7899  0.3851 -0.1830
  156OSM    H9S17419   0.530   3.113   3.695 -0.2803 -0.4199 -1.4588
  156OSM    H9T17420   0.694   3.050   3.649  2.5513 -0.6204  2.6165
  156OSM   C10S17421   0.624   2.990   3.839  0.4158 -0.1969 -0.6856
  156OSM   H10S17422   0.701   2.912   3.862 -1.8901 -2.5598 -0.4430
  156OSM   H10T17423   0.530   2.946   3.878  0.6841 -0.0169  0.1950
  156OSM   C11S17424   0.659   3.122   3.911  0.0948  0.3401  0.0514
  156OSM   H11S17425   0.600   3.212   3.885  0.1991  0.5563  0.5437
  156OSM   H11T17426   0.763   3.150   3.884  0.3993  1.2465  1.9665
  156OSM   C12S17427   0.639   3.118   4.062 -0.6871 -0.3331  0.3406
  156OSM   H12S17428   0.704   3.043   4.111  1.6397  0.6949 -0.9733
  156OSM   H12T17429   0.536   3.096   4.096  0.1734 -4.0906  0.9516
  156OSM   C13S17430   0.669   3.254   4.124 -0.2423  0.2009  0.5678
  156OSM   H13S17431   0.592   3.329   4.093 -1.2237 -0.8470  0.4180
  156OSM   H13T17432   0.771   3.283   4.092 -0.7123 -0.6359 -1.9015
  156OSM   C14S17433   0.655   3.251   4.270  0.0885  0.2207 -0.4267
  156OSM   H14S17434   0.741   3.188   4.301 -0.2436  0.0935  0.2575
  156OSM   H14T17435   0.553   3.211   4.288  0.9004 -2.9018 -2.0323
  156OSM   C15S17436   0.676   3.390   4.326  0.1630  0.1677  0.1095
  156OSM   H15S17437   0.623   3.397   4.423  0.4737  2.1870  0.1572
  156OSM   H15T17438   0.625   3.455   4.252 -0.9327 -2.1233 -1.2647
  156OSM   C16S17439   0.829   3.422   4.345  0.1134 -0.5023  0.1626
  156OSM   H16S17440   0.886   3.424   4.249  2.6377  0.3534  1.5808
  156OSM   H16T17441   0.882   3.345   4.405  2.8605  0.9290 -0.2344
  156OSM   C17S17442   0.837   3.556   4.415  0.1689 -0.3997 -0.5087
  156OSM   H17S17443   0.792   3.647   4.368  0.7768  2.2180  3.4925
  156OSM   H17T17444   0.943   3.590   4.417 -0.5342  1.9998  0.5009
  156OSM   C18S17445   0.784   3.561   4.558 -0.1145 -0.2855 -0.1440
  156OSM   H18S17446   0.823   3.658   4.596 -0.2130  0.2714 -1.4223
  156OSM   H18T17447   0.826   3.476   4.616  1.1360 -0.6746 -1.5602
  156OSM   H18U17448   0.676   3.546   4.582  0.0222  1.6293  2.0854
  156OSM    C1F17449   0.690   3.285   2.972 -0.3379 -0.3712 -0.3489
  156OSM     OF17450   0.614   3.325   2.886 -0.6483  0.3079 -0.0078
  156OSM    C2F17451   0.772   3.381   3.057  0.3600 -0.0556 -1.1031
  156OSM    H2F17452   0.800   3.461   2.985 -1.3614  1.0888 -0.5477
  156OSM    H2G17453   0.864   3.328   3.089  1.6251  1.1241 -2.6100
  156OSM    C3F17454   0.692   3.443   3.172 -0.0746  0.3170 -0.5446
  156OSM    H3F17455   0.592   3.476   3.136 -0.7460 -0.1616  0.7863
  156OSM    H3G17456   0.747   3.531   3.211  1.3048 -0.4033 -0.8040
  156OSM    C4F17457   0.681   3.339   3.287 -0.8023 -0.1562 -0.2643
  156OSM    H4F17458   0.780   3.310   3.328 -0.7092  2.4973  1.6641
  156OSM    H4G17459   0.639   3.247   3.241  1.0073 -0.7449 -0.8353
  156OSM    C5F17460   0.602   3.392   3.403  0.5685 -0.1947  0.4552
  156OSM    H5F17461   0.580   3.311   3.475  0.1610  0.4145  1.0299
  156OSM    H5G17462   0.510   3.442   3.364  0.0444  0.8850  2.8757
  156OSM    C6F17463   0.669   3.508   3.490  0.0829  0.1930  0.4747
  156OSM    H6F17464   0.649   3.607   3.443 -1.8159 -0.8103 -0.9963
  156OSM    H6G17465   0.778   3.486   3.494 -0.0748 -1.1914 -1.3142
  156OSM    C7F17466   0.625   3.486   3.639  0.5779 -0.1481  0.1566
  156OSM    H7F17467   0.684   3.543   3.714  0.0092 -1.6306  1.8087
  156OSM    H7G17468   0.628   3.385   3.683 -1.8852  0.0598  0.9288
  156OSM    C8F17469   0.477   3.524   3.640  1.1180 -0.3123  0.1557
  156OSM    H8F17470   0.435   3.480   3.733  0.5451  1.7754  0.9512
  156OSM    H8G17471   0.423   3.482   3.553 -0.1898  1.0855  0.2480
  156OSM    C9F17472   0.462   3.669   3.635 -0.2243 -0.4685 -0.6018
  156OSM    H9F17473   0.482   3.710   3.535  0.3875  0.8104  0.0173
  156OSM   C10F17474   0.424   3.757   3.731  0.0840  0.1716  0.5098
  156OSM   H10F17475   0.445   3.862   3.705  1.5231 -0.5415 -1.4517
  156OSM   C11F17476   0.384   3.708   3.866  0.0308 -0.6578 -0.5532
  156OSM   H11F17477   0.444   3.618   3.891  0.5721 -0.5668 -1.4694
  156OSM   H11G17478   0.275   3.686   3.862 -0.2500  0.6904 -0.7610
  156OSM   C12F17479   0.409   3.820   3.977 -0.0529 -0.0937  0.0771
  156OSM   H12F17480   0.347   3.910   3.954  0.6165  0.5194  0.6318
  156OSM   H12G17481   0.515   3.852   3.972 -0.2260  0.5743  0.5290
  156OSM   C13F17482   0.379   3.766   4.119  0.3897 -0.0907  0.2945
  156OSM   H13F17483   0.435   3.670   4.131  2.5605  0.2582 -4.3900
  156OSM   H13G17484   0.269   3.750   4.120  0.1571  1.4028  0.3379
  156OSM   C14F17485   0.416   3.852   4.240 -0.7868 -0.1572  0.3934
  156OSM   H14F17486   0.377   3.955   4.222  0.4645  0.1396 -0.7930
  156OSM   H14G17487   0.526   3.862   4.247 -0.7634 -0.3661  0.3099
  156OSM   C15F17488   0.367   3.789   4.374 -0.3089 -0.0578 -0.4113
  156OSM   H15F17489   0.422   3.692   4.375 -0.7560 -0.3460 -1.9757
  156OSM   H15G17490   0.258   3.772   4.374 -0.3653  0.2933 -1.1992
  156OSM   C16F17491   0.408   3.880   4.492 -0.2983 -0.2598 -0.3772
  156OSM   H16F17492   0.517   3.901   4.497 -0.1805 -0.8391 -0.4313
  156OSM   H16G17493   0.395   3.818   4.583 -2.2586 -0.0098 -0.4520
  156OSM   C17F17494   0.342   4.017   4.501 -0.0929 -0.8366  0.2178
  156OSM   H17F17495   0.238   4.006   4.461 -0.3583  2.1038 -0.1331
  156OSM   H17G17496   0.393   4.098   4.445  1.6749 -0.8718  1.7130
  156OSM   C18F17497   0.341   4.067   4.645  0.2350  0.0084  0.6454
  156OSM   H18F17498   0.297   4.169   4.641  3.5172  1.5934  1.2981
  156OSM   H18G17499   0.445   4.069   4.685  0.4026 -0.7864  0.2799
  156OSM   H18H17500   0.272   4.003   4.705 -0.7627 -0.7875 -1.2486
  157OSM      N17501   1.333   4.249   2.238  0.3550  0.7275 -0.5538
  157OSM    C1517502   1.324   4.384   2.168  0.6129  0.5298  0.2733
  157OSM   H15A17503   1.324   4.366   2.062  2.7653  0.3214  0.2624
  157OSM   H15B17504   1.399   4.454   2.201 -0.1192  1.3273  0.2869
  157OSM   H15C17505   1.224   4.419   2.191  0.1689 -0.0413 -0.7546
  157OSM    C1417506   1.232   4.149   2.191 -0.6974 -0.2748  0.3301
  157OSM   H14A17507   1.265   4.056   2.235  1.8905 -0.2319 -1.2855
  157OSM   H14B17508   1.220   4.152   2.084  0.0704  1.0452  0.2582
  157OSM   H14C17509   1.133   4.176   2.224 -0.1508  1.0709  0.9453
  157OSM    C1317510   1.465   4.199   2.215  0.0661 -0.2169  0.1541
  157OSM   H13A17511   1.490   4.103   2.257 -0.5450  0.1215  1.3564
  157OSM   H13B17512   1.541   4.266   2.251 -0.0651 -0.2626  0.5190
  157OSM   H13C17513   1.489   4.192   2.110 -1.4630 -0.1572 -0.2282
  157OSM    C1217514   1.320   4.273   2.386 -0.2706  0.0684  0.1718
  157OSM   H12A17515   1.398   4.335   2.427 -1.1149  0.7043  0.8830
  157OSM   H12B17516   1.327   4.178   2.436  0.3594  0.0206 -0.0041
  157OSM    C1117517   1.182   4.328   2.432 -0.5984  0.6798 -0.6857
  157OSM   H11A17518   1.165   4.425   2.381 -0.3050  0.4795 -1.1746
  157OSM   H11B17519   1.183   4.352   2.541  0.7020 -1.5902 -0.1353
  157OSM      P17520   1.037   4.118   2.488  0.3733  0.2342 -0.3670
  157OSM    O1317521   0.896   4.084   2.454 -0.3526 -0.3378 -0.1922
  157OSM    O1417522   1.139   4.009   2.468 -0.2032 -0.3265  0.3622
  157OSM    O1117523   1.052   4.175   2.633  0.1018 -0.4326 -0.0010
  157OSM    O1217524   1.077   4.237   2.392  0.6630  0.0293 -0.0865
  157OSM    C1S17525   0.969   4.141   2.742 -0.8170  0.3677  0.3867
  157OSM    H1S17526   0.969   4.032   2.762 -1.6968  0.5337  1.3884
  157OSM    H1T17527   0.862   4.152   2.713 -1.5058 -0.3223  2.4943
  157OSM     NF17528   0.912   4.173   2.981  0.5833 -0.9340 -0.1849
  157OSM    HNF17529   0.838   4.225   3.022  0.8657  0.2324 -1.0888
  157OSM    C2S17530   0.986   4.232   2.870  0.5147 -0.1249  0.5614
  157OSM    H2S17531   1.095   4.230   2.890  0.3683 -1.4440  1.3382
  157OSM    C3S17532   0.949   4.382   2.836 -0.1962  0.2414 -0.2696
  157OSM    H3S17533   0.843   4.371   2.804 -0.2805 -0.6025  0.2737
  157OSM     O317534   1.026   4.430   2.722 -0.3018  0.3000  0.4369
  157OSM    HO317535   1.074   4.351   2.697  2.3386  2.0545 -0.4300
  157OSM    C4S17536   0.962   4.486   2.947  0.2457  0.0094  0.1309
  157OSM    H4S17537   0.869   4.493   3.004 -1.2921 -0.9399 -2.1037
  157OSM    C5S17538   1.068   4.564   2.975 -0.2652 -0.6657 -1.0314
  157OSM    H5S17539   1.160   4.547   2.917  1.0219 -1.6680  1.1635
  157OSM    C6S17540   1.082   4.671   3.085  0.6101  0.5280 -0.1011
  157OSM    H6S17541   1.103   4.774   3.048 -0.0947  0.1357 -1.7069
  157OSM    H6T17542   1.170   4.650   3.150 -0.1416 -1.3601  0.3666
  157OSM    C7S17543   0.951   4.683   3.163  0.3660 -0.5281  0.0629
  157OSM    H7S17544   0.923   4.586   3.210 -1.6342 -0.0543 -0.0777
  157OSM    H7T17545   0.869   4.708   3.092  1.6647  0.5394 -1.1235
  157OSM    C8S17546   0.940   4.800   3.265  0.4247  0.2589 -0.4138
  157OSM    H8S17547   0.832   4.811   3.289 -0.0138 -4.1562  0.6207
  157OSM    H8T17548   0.969   4.893   3.211 -0.2630  0.1576 -0.9697
  157OSM    C9S17549   1.018   4.771   3.388 -0.5503  0.5925 -0.3747
  157OSM    H9S17550   1.124   4.783   3.357 -0.3138  0.0844  0.2255
  157OSM    H9T17551   1.005   4.668   3.427  2.6889 -0.1658 -1.0034
  157OSM   C10S17552   0.988   4.875   3.496 -0.2668 -0.3325  0.0810
  157OSM   H10S17553   0.879   4.897   3.494  0.1310  2.0922 -3.1046
  157OSM   H10T17554   1.042   4.970   3.476  0.2899 -0.4433  1.0065
  157OSM   C11S17555   1.038   4.820   3.635 -0.3651  0.7247 -0.3506
  157OSM   H11S17556   1.141   4.781   3.619 -0.4819 -2.0347  4.0547
  157OSM   H11T17557   0.980   4.727   3.654  2.1697 -1.3250 -1.9596
  157OSM   C12S17558   1.028   4.922   3.749  0.5028  0.0780  0.0354
  157OSM   H12S17559   0.919   4.939   3.753  0.6712  1.1010  0.8701
  157OSM   H12T17560   1.077   5.017   3.719  1.8158 -1.1922 -2.1350
  157OSM   C13S17561   1.087   4.867   3.878 -0.0177 -0.5111 -0.9304
  157OSM   H13S17562   1.195   4.849   3.858  0.2326  0.6462 -0.6620
  157OSM   H13T17563   1.037   4.771   3.902 -0.2795  0.0050  0.7631
  157OSM   C14S17564   1.058   4.965   3.993 -0.1482  0.2994  0.3080
  157OSM   H14S17565   0.950   4.986   3.982 -0.3654 -0.3390  1.1709
  157OSM   H14T17566   1.108   5.064   3.981 -1.6001  0.8365 -2.0577
  157OSM   C15S17567   1.091   4.904   4.131  0.3212  0.4507 -0.1335
  157OSM   H15S17568   1.201   4.888   4.131  0.9837  3.9011 -2.2163
  157OSM   H15T17569   1.028   4.816   4.153 -0.7477  1.5613  1.4503
  157OSM   C16S17570   1.060   5.013   4.228  0.8397  0.1125 -0.5661
  157OSM   H16S17571   0.950   5.031   4.236  0.9279  0.0359  1.1316
  157OSM   H16T17572   1.094   5.112   4.189 -0.2400  0.7263 -0.0101
  157OSM   C17S17573   1.122   4.983   4.362  0.0686 -0.2405 -0.9133
  157OSM   H17S17574   1.232   4.980   4.354  0.1281 -0.9978 -0.0027
  157OSM   H17T17575   1.106   4.881   4.401 -1.8287  0.7123  1.0403
  157OSM   C18S17576   1.075   5.088   4.465 -0.2743  0.3060  0.2664
  157OSM   H18S17577   1.080   5.191   4.422 -1.7159  0.4718  0.4315
  157OSM   H18T17578   1.137   5.084   4.557 -0.9813  0.1269  0.7413
  157OSM   H18U17579   0.974   5.065   4.506  0.3185 -0.3175  1.4117
  157OSM    C1F17580   0.935   4.047   3.031  0.2983  0.5851  0.7873
  157OSM     OF17581   1.025   3.976   2.989 -0.2721 -0.2490  0.0080
  157OSM    C2F17582   0.851   4.015   3.153  0.4805  0.8413  0.5835
  157OSM    H2F17583   0.769   3.950   3.116  1.0765 -0.1012  0.8878
  157OSM    H2G17584   0.810   4.113   3.188  1.5657  1.8347 -0.8106
  157OSM    C3F17585   0.927   3.935   3.263  0.0847 -1.1789  0.4638
  157OSM    H3F17586   1.017   3.996   3.286  0.0144 -1.4034  1.3809
  157OSM    H3G17587   0.950   3.838   3.214  0.0817 -0.8605 -0.1768
  157OSM    C4F17588   0.832   3.905   3.387  0.0810 -0.8780  0.6305
  157OSM    H4F17589   0.741   3.850   3.352  0.5616 -0.1038 -2.0783
  157OSM    H4G17590   0.799   4.003   3.428  1.4372  0.0889 -0.4972
  157OSM    C5F17591   0.909   3.817   3.480 -0.5934 -0.2329  0.1767
  157OSM    H5F17592   1.017   3.822   3.455 -1.2372  0.1083 -2.8374
  157OSM    H5G17593   0.879   3.712   3.458 -1.4744  0.0653 -0.0713
  157OSM    C6F17594   0.881   3.865   3.619 -0.3119  0.3345 -0.0631
  157OSM    H6F17595   0.770   3.863   3.628 -0.4196 -1.5267 -1.4069
  157OSM    H6G17596   0.920   3.969   3.620  1.6939 -0.3561 -1.2448
  157OSM    C7F17597   0.941   3.768   3.723 -0.5032  0.2777  0.3433
  157OSM    H7F17598   1.041   3.732   3.690 -0.6454  0.2057 -0.0153
  157OSM    H7G17599   0.882   3.675   3.713 -0.3805  0.1825  0.5073
  157OSM    C8F17600   0.935   3.819   3.865 -0.1876 -0.1821  0.3382
  157OSM    H8F17601   0.951   3.729   3.927  1.1302 -1.5498 -1.8625
  157OSM    H8G17602   0.837   3.862   3.896  1.0501  1.4456  2.2672
  157OSM    C9F17603   1.044   3.929   3.882 -0.3424  0.2672 -0.1743
  157OSM    H9F17604   1.032   4.013   3.812  1.4035  2.0684  1.5372
  157OSM   C10F17605   1.153   3.936   3.961 -0.2559 -0.2858  0.0282
  157OSM   H10F17606   1.224   4.020   3.966 -1.9475  1.3103 -1.5440
  157OSM   C11F17607   1.196   3.825   4.053  0.3991  0.8514 -0.3137
  157OSM   H11F17608   1.306   3.807   4.047  0.7778  0.1958  4.6410
  157OSM   H11G17609   1.142   3.729   4.038 -1.8458  1.9397  0.4099
  157OSM   C12F17610   1.188   3.867   4.200 -0.0212  0.2104 -0.4670
  157OSM   H12F17611   1.235   3.967   4.214  2.7608 -0.7993 -1.9443
  157OSM   H12G17612   1.243   3.797   4.267  0.4219  2.4921  1.7183
  157OSM   C13F17613   1.046   3.882   4.248 -0.4408  0.1805 -0.1424
  157OSM   H13F17614   1.008   3.781   4.223  0.8201 -0.2395 -0.4302
  157OSM   H13G17615   0.995   3.960   4.186  0.4841  2.3549  1.6861
  157OSM   C14F17616   1.043   3.917   4.399  0.6317 -0.1262 -0.5035
  157OSM   H14F17617   1.076   4.023   4.408 -2.8722  1.0716  0.1755
  157OSM   H14G17618   1.097   3.849   4.468  0.1876  0.0189 -0.0069
  157OSM   C15F17619   0.903   3.922   4.452  0.9394  0.0989 -0.3517
  157OSM   H15F17620   0.850   3.826   4.435 -0.4683  0.8228 -0.2463
  157OSM   H15G17621   0.848   4.002   4.397  0.0329  0.8825  1.5950
  157OSM   C16F17622   0.908   3.964   4.601  0.4518 -0.1957  0.4170
  157OSM   H16F17623   0.951   4.066   4.599  0.6199 -0.2679  0.3090
  157OSM   H16G17624   0.992   3.912   4.651  2.5700  0.6656 -2.0403
  157OSM   C17F17625   0.771   3.960   4.676  0.4498 -0.2918  0.8166
  157OSM   H17F17626   0.715   3.868   4.651 -2.3398  1.2967  0.8736
  157OSM   H17G17627   0.708   4.040   4.632 -2.5517 -1.9647  1.8411
  157OSM   C18F17628   0.784   3.973   4.829  0.5518  0.2743 -0.1108
  157OSM   H18F17629   0.811   4.077   4.857  0.9898 -0.2754  1.5760
  157OSM   H18G17630   0.846   3.899   4.883  2.0973  0.4992 -1.4930
  157OSM   H18H17631   0.684   3.965   4.876  0.1984 -0.5505 -0.9800
  158OSM      N17632   5.017   0.640   2.383  0.7611 -0.1214 -0.6613
  158OSM    C1517633   5.023   0.657   2.528 -0.4758  0.1285 -0.0426
  158OSM   H15A17634   5.078   0.584   2.585  2.6681  0.3129 -2.5702
  158OSM   H15B17635   4.925   0.679   2.568 -0.0547  1.7926  0.1634
  158OSM   H15C17636   5.079   0.749   2.540  3.3236 -2.0164 -0.0564
  158OSM    C1417637   5.154   0.596   2.336 -0.2550  0.8691 -0.4103
  158OSM   H14A17638   5.150   0.580   2.229  1.0295 -0.8806 -0.2407
  158OSM   H14B17639   5.183   0.502   2.379 -0.1713  1.0453 -0.0769
  158OSM   H14C17640   5.231   0.663   2.372  1.5123 -1.3444  0.1106
  158OSM    C1317641   4.918   0.529   2.348 -0.5828  0.1346 -0.3534
  158OSM   H13A17642   4.937   0.436   2.399  1.3285  1.0854  0.7848
  158OSM   H13B17643   4.927   0.516   2.241  0.3739 -1.6931 -0.0999
  158OSM   H13C17644   4.819   0.562   2.379  0.7479  3.7137  0.5875
  158OSM    C1217645   4.969   0.766   2.317  0.0107  0.4250  0.0540
  158OSM   H12A17646   4.872   0.802   2.346 -0.5454  0.2809 -1.5199
  158OSM   H12B17647   4.956   0.743   2.212  0.3156  0.7394 -0.0595
  158OSM    C1117648   5.061   0.888   2.323 -0.2808 -1.1143 -0.7904
  158OSM   H11A17649   5.033   0.961   2.244  2.0829  1.2044  0.3664
  158OSM   H11B17650   5.162   0.856   2.293 -0.0908  0.5743 -2.0926
  158OSM      P17651   4.944   1.049   2.486 -0.2070  0.1843  0.0143
  158OSM    O1317652   5.007   1.172   2.541 -0.1546  0.5000 -0.3091
  158OSM    O1417653   4.866   1.069   2.366 -0.1803 -0.4385  0.0871
  158OSM    O1117654   4.871   0.958   2.595  0.2664  0.3124  0.0436
  158OSM    O1217655   5.067   0.945   2.452  0.3812  0.2378  0.0308
  158OSM    C1S17656   4.938   0.941   2.720 -0.2256 -0.1003 -0.0030
  158OSM    H1S17657   5.026   1.003   2.747  0.9223 -1.9376  0.6402
  158OSM    H1T17658   4.966   0.834   2.711 -0.7330 -0.2345 -0.0037
  158OSM     NF17659   4.906   0.868   2.944  0.2274  0.3176 -0.2522
  158OSM    HNF17660   4.890   0.770   2.949 -2.2314  0.7102  2.0883
  158OSM    C2S17661   4.840   0.937   2.837  0.5172 -0.4552 -0.1540
  158OSM    H2S17662   4.811   1.041   2.863  3.9081  0.6459 -0.2768
  158OSM    C3S17663   4.698   0.881   2.796  0.3810 -0.6162  0.1425
  158OSM    H3S17664   4.712   0.785   2.743 -0.1795 -0.4826 -0.2634
  158OSM     O317665   4.626   0.967   2.706 -0.2693  0.1294  0.4355
  158OSM    HO317666   4.700   1.023   2.680  0.2361 -0.5302  0.4161
  158OSM    C4S17667   4.614   0.865   2.926  0.6230  0.1828 -0.8401
  158OSM    H4S17668   4.605   0.763   2.966 -0.6709  0.8906  0.8148
  158OSM    C5S17669   4.565   0.967   3.008  0.0245  0.2260 -0.4254
  158OSM    H5S17670   4.578   1.070   2.974 -3.3060  1.4929  1.7081
  158OSM    C6S17671   4.480   0.948   3.132 -0.9501  0.4479  0.4239
  158OSM    H6S17672   4.445   0.846   3.157  0.0561  0.0937  0.4371
  158OSM    H6T17673   4.385   1.002   3.113 -0.9168  0.9981  1.7373
  158OSM    C7S17674   4.548   1.005   3.261 -0.2368 -0.3105 -0.0935
  158OSM    H7S17675   4.566   1.112   3.241  3.5681 -0.1060  3.2084
  158OSM    H7T17676   4.646   0.957   3.282 -0.4118 -0.6132  0.0370
  158OSM    C8S17677   4.466   0.986   3.385 -0.2827 -0.5621 -1.0083
  158OSM    H8S17678   4.473   0.877   3.406  2.9666 -0.4688 -1.1054
  158OSM    H8T17679   4.364   1.017   3.354 -0.0753 -1.3273 -2.5418
  158OSM    C9S17680   4.521   1.073   3.500  0.3450 -0.4587  0.5370
  158OSM    H9S17681   4.507   1.180   3.474  2.3120 -0.2781  0.0405
  158OSM    H9T17682   4.628   1.050   3.518  0.2760 -0.1048  1.4641
  158OSM   C10S17683   4.451   1.041   3.637 -0.0567 -0.1491 -0.1408
  158OSM   H10S17684   4.485   0.939   3.663 -0.2441  0.1990  1.5448
  158OSM   H10T17685   4.341   1.046   3.622 -0.3865 -2.4758  1.0972
  158OSM   C11S17686   4.496   1.148   3.735 -0.1661  0.5988 -0.2473
  158OSM   H11S17687   4.437   1.141   3.829 -0.2932  1.9514 -0.2075
  158OSM   H11T17688   4.477   1.244   3.682 -0.0226  0.2578 -0.9369
  158OSM   C12S17689   4.648   1.130   3.769  0.3878  0.4695 -0.4166
  158OSM   H12S17690   4.708   1.112   3.677 -0.3317  1.8278 -1.1882
  158OSM   H12T17691   4.657   1.030   3.816 -1.0495  0.5120  0.0023
  158OSM   C13S17692   4.695   1.235   3.858 -0.2136  0.5601 -0.0849
  158OSM   H13S17693   4.662   1.335   3.821  0.0672  0.7995  0.2973
  158OSM   H13T17694   4.805   1.218   3.860 -0.1358  0.9295 -1.0453
  158OSM   C14S17695   4.654   1.216   4.006 -0.4694 -0.7660  0.2645
  158OSM   H14S17696   4.680   1.113   4.039  0.4853 -0.9065 -0.8614
  158OSM   H14T17697   4.543   1.226   4.017 -0.2333  0.3495  2.1747
  158OSM   C15S17698   4.728   1.317   4.102 -0.6830 -0.4251 -0.3959
  158OSM   H15S17699   4.708   1.421   4.066 -1.3193 -0.1123  0.8224
  158OSM   H15T17700   4.836   1.294   4.098 -0.6271 -0.2633  0.1301
  158OSM   C16S17701   4.679   1.309   4.247  0.5565  0.4626 -0.2572
  158OSM   H16S17702   4.664   1.203   4.277  2.0791  0.7429  1.7023
  158OSM   H16T17703   4.590   1.374   4.262 -0.3747 -0.8587  0.1753
  158OSM   C17S17704   4.788   1.351   4.345  0.6401 -0.2456 -0.0321
  158OSM   H17S17705   4.815   1.457   4.327 -0.0110 -0.2912 -1.3820
  158OSM   H17T17706   4.872   1.288   4.309 -0.6486 -1.5677 -0.8707
  158OSM   C18S17707   4.755   1.332   4.494  1.0450  0.3079 -0.0744
  158OSM   H18S17708   4.834   1.373   4.561 -0.4027  2.6908  0.2874
  158OSM   H18T17709   4.720   1.230   4.522 -1.4673  1.5475  1.6394
  158OSM   H18U17710   4.668   1.395   4.521  0.3798 -1.3260  1.9357
  158OSM    C1F17711   5.014   0.922   3.006  0.1425 -0.2400 -0.1192
  158OSM     OF17712   5.027   1.048   3.013 -0.4488 -0.5673  0.3536
  158OSM    C2F17713   5.119   0.831   3.056 -0.5588 -0.0485 -0.1357
  158OSM    H2F17714   5.200   0.836   2.980 -2.2979 -1.5078 -2.2071
  158OSM    H2G17715   5.085   0.726   3.049  0.0228 -0.1533 -1.6370
  158OSM    C3F17716   5.163   0.867   3.199  1.1218  0.2790  0.2804
  158OSM    H3F17717   5.077   0.843   3.265 -0.1136 -3.6813 -2.4042
  158OSM    H3G17718   5.203   0.970   3.206  3.9602 -0.7845  1.4234
  158OSM    C4F17719   5.281   0.769   3.231 -0.3423 -0.0791 -0.2451
  158OSM    H4F17720   5.360   0.780   3.154 -0.7266 -1.5225 -0.8818
  158OSM    H4G17721   5.254   0.661   3.225  0.0684 -0.1414 -1.1015
  158OSM    C5F17722   5.327   0.792   3.378 -0.0386  0.1757  0.3928
  158OSM    H5F17723   5.248   0.747   3.442 -2.2652 -0.8333 -2.7806
  158OSM    H5G17724   5.340   0.899   3.406 -0.5575  0.8796 -1.8876
  158OSM    C6F17725   5.463   0.725   3.421  0.5233 -0.4260 -0.5791
  158OSM    H6F17726   5.528   0.737   3.332  0.8163  2.7151 -0.0490
  158OSM    H6G17727   5.441   0.618   3.440 -0.2704 -0.3310 -0.9450
  158OSM    C7F17728   5.536   0.781   3.544  0.3593  0.2634 -0.0690
  158OSM    H7F17729   5.479   0.777   3.639 -0.4215  0.0295 -0.5432
  158OSM    H7G17730   5.549   0.888   3.515 -1.7639 -0.2322 -3.3142
  158OSM    C8F17731   5.685   0.727   3.556  1.2846  0.7527 -0.1114
  158OSM    H8F17732   5.725   0.776   3.647 -0.3519  0.2986  0.8853
  158OSM    H8G17733   5.742   0.764   3.468 -1.0659 -1.5802 -2.8142
  158OSM    C9F17734   5.688   0.574   3.567 -0.2020  0.0688 -0.6384
  158OSM    H9F17735   5.618   0.523   3.499  0.9789 -0.4487 -1.5134
  158OSM   C10F17736   5.755   0.512   3.661 -0.7493  0.6369 -0.1368
  158OSM   H10F17737   5.734   0.407   3.685 -0.7091  0.5951 -0.2840
  158OSM   C11F17738   5.858   0.561   3.762 -0.1614  0.4099  0.5416
  158OSM   H11F17739   5.825   0.626   3.846 -0.5372  1.8293 -0.6462
  158OSM   H11G17740   5.934   0.624   3.710 -0.2238 -1.0567 -1.4390
  158OSM   C12F17741   5.934   0.441   3.827  0.1499 -0.3780  0.1647
  158OSM   H12F17742   5.984   0.389   3.743 -1.6737  0.6465 -1.6263
  158OSM   H12G17743   5.865   0.365   3.872 -2.0963  1.7308  0.4857
  158OSM   C13F17744   6.052   0.474   3.928 -0.1572 -0.5704  0.2288
  158OSM   H13F17745   6.107   0.567   3.904 -0.0575 -0.8913 -0.8524
  158OSM   H13G17746   6.122   0.389   3.917  0.6307 -0.0404  1.0708
  158OSM   C14F17747   5.994   0.493   4.070 -0.3893 -0.0490  0.5613
  158OSM   H14F17748   5.935   0.404   4.101 -1.3801  1.1384  2.2523
  158OSM   H14G17749   5.924   0.579   4.064 -1.9606 -1.3038  0.3882
  158OSM   C15F17750   6.103   0.530   4.171 -0.2819  0.1682 -0.0855
  158OSM   H15F17751   6.168   0.612   4.136 -0.3438  0.2479 -0.0144
  158OSM   H15G17752   6.163   0.437   4.184 -0.5558  0.1814  1.5092
  158OSM   C16F17753   6.051   0.571   4.309  0.0378  0.7238 -0.0368
  158OSM   H16F17754   5.949   0.612   4.294  0.6721  2.2879 -0.2677
  158OSM   H16G17755   6.111   0.651   4.358 -0.6014 -0.3286  2.6107
  158OSM   C17F17756   6.021   0.453   4.406  0.2366 -0.0344  1.1230
  158OSM   H17F17757   6.124   0.415   4.426  1.0325  1.0202 -0.6916
  158OSM   H17G17758   5.964   0.383   4.341 -1.2003  2.3521 -0.3359
  158OSM   C18F17759   5.943   0.487   4.532 -0.3200  0.3900 -0.3982
  158OSM   H18F17760   5.970   0.407   4.604 -0.1903  1.7201  1.1005
  158OSM   H18G17761   5.833   0.505   4.526 -0.4803  0.1214  1.2480
  158OSM   H18H17762   5.977   0.582   4.579 -0.8623  0.4771 -0.1655
  159OSM      N17763   1.884   3.461   2.707 -0.9247  0.4186  0.1563
  159OSM    C1517764   1.828   3.331   2.659  0.4837  0.2163  0.0867
  159OSM   H15A17765   1.823   3.317   2.552  0.0695 -2.4295  0.3876
  159OSM   H15B17766   1.729   3.315   2.701  0.8733 -0.7727  0.6403
  159OSM   H15C17767   1.884   3.244   2.686 -1.2672 -1.1887 -0.6198
  159OSM    C1417768   1.876   3.459   2.859 -0.2540 -0.2004  0.4957
  159OSM   H14A17769   1.906   3.361   2.894  0.2389  0.4398  1.9576
  159OSM   H14B17770   1.775   3.481   2.888  0.7553  2.1840  2.6154
  159OSM   H14C17771   1.932   3.541   2.901  0.5914 -0.3523 -0.2885
  159OSM    C1317772   2.043   3.460   2.686  1.5963  0.1679 -0.4264
  159OSM   H13A17773   2.074   3.358   2.668 -0.6639 -0.9263  1.3841
  159OSM   H13B17774   2.088   3.508   2.772 -1.2177  0.8531  0.7652
  159OSM   H13C17775   2.069   3.520   2.600  0.2391  0.3062 -0.7678
  159OSM    C1217776   1.819   3.581   2.648 -0.0403  0.0077  0.5585
  159OSM   H12A17777   1.812   3.574   2.541  1.5751  0.3790  0.3927
  159OSM   H12B17778   1.868   3.676   2.669 -0.6095  0.1153  1.5049
  159OSM    C1117779   1.675   3.610   2.696  0.7455  0.0154 -0.1843
  159OSM   H11A17780   1.676   3.636   2.804  0.5782 -1.2972  0.1499
  159OSM   H11B17781   1.611   3.520   2.700 -0.5151  0.9156  2.4052
  159OSM      P17782   1.642   3.869   2.647  0.1906  0.0317 -0.0086
  159OSM    O1317783   1.792   3.898   2.629 -0.6089 -0.1634 -0.0160
  159OSM    O1417784   1.552   3.948   2.556  0.8671 -0.0261  0.1650
  159OSM    O1117785   1.596   3.904   2.797  0.1382  0.0011 -0.2617
  159OSM    O1217786   1.620   3.716   2.622 -0.0683 -0.0492  0.7512
  159OSM    C1S17787   1.480   3.851   2.852 -0.0620  0.0083 -0.1039
  159OSM    H1S17788   1.514   3.759   2.903  2.8886  2.0043  1.8636
  159OSM    H1T17789   1.397   3.836   2.780 -1.5698  0.9932  1.3539
  159OSM     NF17790   1.305   3.880   3.044  0.4563 -0.6142  0.2150
  159OSM    HNF17791   1.216   3.917   3.020  0.1314 -1.9941 -0.8514
  159OSM    C2S17792   1.410   3.942   2.966 -0.1345  0.2208 -0.1054
  159OSM    H2S17793   1.492   3.969   3.037 -1.0519  0.1197  1.0129
  159OSM    C3S17794   1.378   4.085   2.911  0.0018 -0.2016  0.1858
  159OSM    H3S17795   1.296   4.085   2.836  1.2471 -1.9295 -1.2676
  159OSM     O317796   1.497   4.145   2.857  0.1103  0.0431 -0.0212
  159OSM    HO317797   1.548   4.069   2.828 -0.3958  0.1722 -1.3144
  159OSM    C4S17798   1.325   4.177   3.023 -0.3314  0.4033  0.8088
  159OSM    H4S17799   1.217   4.175   3.044 -0.6492 -0.8112 -0.6959
  159OSM    C5S17800   1.394   4.256   3.109  0.1814  0.1878  0.7830
  159OSM    H5S17801   1.501   4.274   3.095 -0.0036  0.5093 -0.3194
  159OSM    C6S17802   1.331   4.339   3.223  0.0469  0.3333 -0.0595
  159OSM    H6S17803   1.346   4.449   3.215  0.5899  0.2828  0.1975
  159OSM    H6T17804   1.383   4.305   3.315 -0.8747  0.1992  0.4234
  159OSM    C7S17805   1.176   4.315   3.242  0.5094  0.1789  0.5497
  159OSM    H7S17806   1.152   4.207   3.243  0.8603  0.0259 -1.9117
  159OSM    H7T17807   1.112   4.359   3.162 -1.4882 -2.1927  0.6958
  159OSM    C8S17808   1.138   4.384   3.372  0.2864 -0.1307  0.4443
  159OSM    H8S17809   1.133   4.492   3.350  0.4447 -0.2762 -0.3396
  159OSM    H8T17810   1.221   4.357   3.442 -0.0231 -0.0329  0.8495
  159OSM    C9S17811   1.003   4.346   3.434  0.6950 -0.0316  0.0736
  159OSM    H9S17812   0.993   4.235   3.436 -0.7740  0.0726 -0.2792
  159OSM    H9T17813   0.918   4.384   3.374 -1.0077 -1.1170  1.6588
  159OSM   C10S17814   0.993   4.393   3.580  0.6091 -0.3844 -0.2015
  159OSM   H10S17815   0.900   4.354   3.629 -0.3296 -1.8871 -2.9684
  159OSM   H10T17816   1.009   4.502   3.578  1.8698 -0.4437  2.1934
  159OSM   C11S17817   1.114   4.358   3.662  0.1323 -0.4981  0.9986
  159OSM   H11S17818   1.209   4.411   3.638  1.1646 -1.6641  2.2687
  159OSM   H11T17819   1.128   4.248   3.655  0.8608 -0.3088 -1.3853
  159OSM   C12S17820   1.091   4.372   3.812  0.0116 -0.1386 -0.5508
  159OSM   H12S17821   1.006   4.308   3.843 -0.4991  1.5249  1.7323
  159OSM   H12T17822   1.059   4.477   3.831 -1.3824 -0.5786 -0.3594
  159OSM   C13S17823   1.209   4.333   3.899  0.4102  0.2883 -0.1337
  159OSM   H13S17824   1.289   4.409   3.887  1.5294 -1.1271 -2.2200
  159OSM   H13T17825   1.242   4.239   3.851  0.6520  0.3022  0.0003
  159OSM   C14S17826   1.179   4.313   4.048  0.3228 -0.0089 -0.5544
  159OSM   H14S17827   1.277   4.321   4.099  0.1934  0.2806 -0.3492
  159OSM   H14T17828   1.134   4.215   4.074 -0.2152  1.0574  2.9906
  159OSM   C15S17829   1.095   4.431   4.106  0.8039  0.8162  0.0379
  159OSM   H15S17830   0.988   4.433   4.075  0.2127  0.7060  1.9463
  159OSM   H15T17831   1.128   4.528   4.063  0.9229 -0.2068 -2.3044
  159OSM   C16S17832   1.099   4.441   4.269  0.0127  1.0011  0.8005
  159OSM   H16S17833   1.205   4.441   4.304 -0.0039  0.0043  0.8880
  159OSM   H16T17834   1.044   4.355   4.313 -2.0600  1.8213 -0.0783
  159OSM   C17S17835   1.039   4.575   4.313 -0.7998  0.6327  0.4947
  159OSM   H17S17836   0.939   4.590   4.268 -0.6422  3.9046  1.0323
  159OSM   H17T17837   1.104   4.657   4.274  0.3082 -0.1905  0.5523
  159OSM   C18S17838   1.031   4.582   4.464 -0.6685 -0.2044  0.4919
  159OSM   H18S17839   1.004   4.685   4.493  0.7990 -0.0682  1.4581
  159OSM   H18T17840   1.126   4.556   4.516  1.3594  0.1566 -2.7423
  159OSM   H18U17841   0.944   4.518   4.492 -0.7085 -1.7708 -2.6931
  159OSM    C1F17842   1.333   3.771   3.123 -0.2205 -0.3700 -0.2654
  159OSM     OF17843   1.442   3.715   3.129 -0.4054 -0.0901  0.1636
  159OSM    C2F17844   1.225   3.721   3.208  0.0634  0.0373 -0.2347
  159OSM    H2F17845   1.131   3.723   3.149  0.4186 -0.5638 -0.8340
  159OSM    H2G17846   1.217   3.792   3.293  2.0442  0.9162 -0.7144
  159OSM    C3F17847   1.252   3.575   3.256  0.3846  0.1603  0.3223
  159OSM    H3F17848   1.351   3.568   3.306 -0.1040 -1.4211  1.1132
  159OSM    H3G17849   1.259   3.504   3.171  0.3096 -2.1885  2.1706
  159OSM    C4F17850   1.135   3.517   3.349 -0.8137  0.5073  0.1363
  159OSM    H4F17851   1.041   3.499   3.292  0.5267 -1.6639 -1.5681
  159OSM    H4G17852   1.117   3.601   3.420 -4.1568  0.0257 -0.0055
  159OSM    C5F17853   1.180   3.394   3.424 -0.7167 -0.0204  1.0508
  159OSM    H5F17854   1.287   3.396   3.453  0.4424 -0.8275 -2.6973
  159OSM    H5G17855   1.172   3.313   3.349  2.6934  0.2244  0.2533
  159OSM    C6F17856   1.081   3.344   3.524  0.1352  0.9440 -0.1523
  159OSM    H6F17857   1.121   3.245   3.554  1.7730  1.5047 -0.3771
  159OSM    H6G17858   0.991   3.338   3.459  1.0752 -1.0113 -1.3885
  159OSM    C7F17859   1.070   3.428   3.649  0.2339 -0.1303 -0.5069
  159OSM    H7F17860   0.989   3.500   3.628  0.3717 -0.4220 -2.1215
  159OSM    H7G17861   1.167   3.481   3.660 -0.4555  1.1075 -0.2143
  159OSM    C8F17862   1.035   3.346   3.766 -0.5025 -0.1148 -1.1457
  159OSM    H8F17863   1.119   3.275   3.784 -0.8273 -0.8899 -2.5243
  159OSM    H8G17864   0.954   3.273   3.747 -0.9432  0.3973 -1.2477
  159OSM    C9F17865   1.011   3.436   3.880 -0.4083 -0.0951  0.0013
  159OSM    H9F17866   0.908   3.474   3.875 -0.5882 -0.5599  0.1003
  159OSM   C10F17867   1.087   3.479   3.985 -0.9779  0.3504  0.3951
  159OSM   H10F17868   1.051   3.532   4.073  0.7098  0.7775  0.8727
  159OSM   C11F17869   1.232   3.449   4.007  0.6710  0.1783 -0.3931
  159OSM   H11F17870   1.287   3.545   4.002  0.4736  0.3530  0.6669
  159OSM   H11G17871   1.274   3.387   3.925 -0.9696  0.1748 -1.2750
  159OSM   C12F17872   1.241   3.380   4.144  0.0747 -0.4884 -0.0333
  159OSM   H12F17873   1.342   3.333   4.148  1.2823  1.9916  1.0218
  159OSM   H12G17874   1.170   3.295   4.152  1.3251 -1.5181  0.4753
  159OSM   C13F17875   1.229   3.469   4.267 -0.1596  0.0072  0.7398
  159OSM   H13F17876   1.124   3.477   4.303 -1.0211 -2.1484 -1.0845
  159OSM   H13G17877   1.258   3.568   4.225  2.7912 -1.6943 -1.6868
  159OSM   C14F17878   1.319   3.429   4.378 -0.3663  0.8983 -0.3805
  159OSM   H14F17879   1.424   3.422   4.342 -0.4675  1.4082 -0.7919
  159OSM   H14G17880   1.282   3.332   4.418  2.2084 -0.7823 -1.7717
  159OSM   C15F17881   1.296   3.541   4.486  0.1951  0.2883 -0.1772
  159OSM   H15F17882   1.191   3.544   4.520  1.2104 -0.5417  3.4479
  159OSM   H15G17883   1.334   3.640   4.454  3.3897 -0.3899  1.1277
  159OSM   C16F17884   1.367   3.508   4.621  0.6035 -0.7535 -0.1899
  159OSM   H16F17885   1.458   3.445   4.609  4.0618  3.8701 -0.9048
  159OSM   H16G17886   1.297   3.451   4.686 -1.3430 -1.2447 -2.5771
  159OSM   C17F17887   1.408   3.640   4.693 -0.0064  0.6307 -0.1368
  159OSM   H17F17888   1.310   3.684   4.723 -1.2930 -0.1542 -2.8643
  159OSM   H17G17889   1.470   3.694   4.618  0.2287  1.7742  0.8476
  159OSM   C18F17890   1.482   3.626   4.821  0.3895 -0.0525  0.1040
  159OSM   H18F17891   1.414   3.585   4.899  0.1262  1.2620  0.6045
  159OSM   H18G17892   1.504   3.725   4.868  1.9786 -0.9774  1.4540
  159OSM   H18H17893   1.576   3.567   4.809 -0.7282 -1.9152  0.1636
  160OSM      N17894   5.159   2.054   2.052 -0.2619  0.5163 -0.1625
  160OSM    C1517895   5.040   1.995   2.117  0.0430  0.3234 -0.5300
  160OSM   H15A17896   5.010   1.904   2.066 -1.6173  0.5809 -0.0806
  160OSM   H15B17897   4.954   2.060   2.114 -0.4791 -0.2155  1.3638
  160OSM   H15C17898   5.067   1.971   2.219 -2.6858  2.0738  0.7232
  160OSM    C1417899   5.275   1.967   2.054  0.5119  0.9792 -0.4940
  160OSM   H14A17900   5.270   1.862   2.028  3.3183  0.9780 -1.3866
  160OSM   H14B17901   5.324   1.966   2.150 -1.6560 -0.4673  0.6916
  160OSM   H14C17902   5.343   2.011   1.983 -2.4775  2.4010 -2.6915
  160OSM    C1317903   5.126   2.096   1.914 -0.1714 -0.8184  0.0466
  160OSM   H13A17904   5.033   2.150   1.908 -0.1947 -0.7963  0.5702
  160OSM   H13B17905   5.110   2.003   1.860  0.9124 -0.2043 -1.3895
  160OSM   H13C17906   5.202   2.147   1.857 -1.5059  0.3490 -0.7480
  160OSM    C1217907   5.199   2.188   2.124  0.0781  0.3421  0.1502
  160OSM   H12A17908   5.110   2.250   2.118 -1.1413 -1.3577 -0.1857
  160OSM   H12B17909   5.275   2.240   2.068 -0.5902  2.4237  1.0765
  160OSM    C1117910   5.246   2.175   2.273 -0.3265  0.5515  0.3934
  160OSM   H11A17911   5.276   2.278   2.305  0.7372 -0.0098  1.2525
  160OSM   H11B17912   5.341   2.119   2.283  0.0044  0.8044 -1.1049
  160OSM      P17913   5.012   2.196   2.399  0.4304  0.1958 -0.3160
  160OSM    O1317914   4.946   2.233   2.272 -0.7658 -0.1677  0.0446
  160OSM    O1417915   4.936   2.105   2.487  0.3821  0.0379  0.1491
  160OSM    O1117916   5.062   2.328   2.474  0.0322 -0.1450  0.1256
  160OSM    O1217917   5.146   2.123   2.359  0.2288 -0.3500  0.5332
  160OSM    C1S17918   5.015   2.362   2.605 -0.1738  0.0289  1.1004
  160OSM    H1S17919   4.933   2.293   2.636 -0.6341 -0.8544 -1.7362
  160OSM    H1T17920   4.957   2.456   2.592 -2.3556 -1.5906 -2.1779
  160OSM     NF17921   5.087   2.357   2.851  0.2297  0.9659  0.3102
  160OSM    HNF17922   5.078   2.441   2.903 -0.4701 -0.3159  2.3898
  160OSM    C2S17923   5.135   2.365   2.712 -0.1258 -0.0814 -0.4895
  160OSM    H2S17924   5.191   2.269   2.700  0.3060  0.2347 -1.0989
  160OSM    C3S17925   5.232   2.479   2.679 -0.7999  0.2772  0.3550
  160OSM    H3S17926   5.174   2.573   2.691 -0.8203  0.6432 -2.1672
  160OSM     O317927   5.267   2.493   2.540  0.4387  0.2853  0.5207
  160OSM    HO317928   5.198   2.449   2.490 -0.7403 -1.6473  3.5809
  160OSM    C4S17929   5.347   2.494   2.774  0.6695 -0.7490 -0.4051
  160OSM    H4S17930   5.315   2.534   2.871  0.1726 -0.0001 -0.8715
  160OSM    C5S17931   5.479   2.470   2.760  0.0964  1.0470  0.7007
  160OSM    H5S17932   5.510   2.414   2.671 -1.7014 -1.0861  1.3186
  160OSM    C6S17933   5.578   2.484   2.873  0.2412  0.3320  0.1283
  160OSM    H6S17934   5.629   2.583   2.872  0.8311  0.0653 -2.5474
  160OSM    H6T17935   5.651   2.402   2.855  0.7093  0.9030 -0.6315
  160OSM    C7S17936   5.521   2.449   3.012  0.1173  0.2088 -0.4180
  160OSM    H7S17937   5.477   2.347   3.005  1.4747 -0.3635 -1.0192
  160OSM    H7T17938   5.437   2.512   3.047 -0.8334 -1.7212  0.9045
  160OSM    C8S17939   5.631   2.435   3.119  0.0781 -0.2882 -0.3955
  160OSM    H8S17940   5.683   2.531   3.144  0.3887 -1.0567  2.2218
  160OSM    H8T17941   5.712   2.372   3.078 -1.6868 -1.6478 -1.9404
  160OSM    C9S17942   5.577   2.363   3.250  0.5778  0.0758  0.9948
  160OSM    H9S17943   5.522   2.277   3.207  1.8826 -0.3734  0.1657
  160OSM    H9T17944   5.515   2.434   3.309  0.7231 -0.5660  1.9268
  160OSM   C10S17945   5.684   2.327   3.340 -0.1951  0.4538 -0.4017
  160OSM   H10S17946   5.747   2.414   3.367  0.9629 -0.3614 -0.3887
  160OSM   H10T17947   5.753   2.256   3.290 -0.2729 -0.3954  0.6472
  160OSM   C11S17948   5.631   2.269   3.475 -0.4107  0.1096 -0.3737
  160OSM   H11S17949   5.720   2.224   3.523 -1.7657 -1.0205  1.1888
  160OSM   H11T17950   5.558   2.187   3.461 -1.4219  0.6808  1.2222
  160OSM   C12S17951   5.574   2.384   3.559  0.0210 -0.3103 -0.1318
  160OSM   H12S17952   5.479   2.414   3.510  0.6791  0.2193 -1.1376
  160OSM   H12T17953   5.648   2.467   3.555 -0.3531 -0.0187 -2.0065
  160OSM   C13S17954   5.547   2.344   3.704  0.4612 -0.5510 -0.2538
  160OSM   H13S17955   5.553   2.438   3.764 -1.0036  1.0474 -2.4791
  160OSM   H13T17956   5.621   2.272   3.746 -1.0175 -2.0100 -0.0623
  160OSM   C14S17957   5.404   2.310   3.740 -0.0920  0.6603  0.6941
  160OSM   H14S17958   5.371   2.223   3.680  0.1633  1.5426 -0.7931
  160OSM   H14T17959   5.338   2.392   3.702 -0.1246 -0.7687 -2.6742
  160OSM   C15S17960   5.375   2.299   3.889 -0.0888 -0.2198 -0.7988
  160OSM   H15S17961   5.266   2.293   3.911  0.5501 -0.6730  2.9229
  160OSM   H15T17962   5.412   2.394   3.932 -0.3406 -1.8413  3.5591
  160OSM   C16S17963   5.436   2.173   3.959  0.6785 -0.4012  0.0824
  160OSM   H16S17964   5.547   2.177   3.958  0.6815 -0.5700 -0.4892
  160OSM   H16T17965   5.404   2.083   3.902  2.8880  0.4001 -2.6236
  160OSM   C17S17966   5.390   2.171   4.101 -0.3033 -0.6991  0.3668
  160OSM   H17S17967   5.283   2.202   4.107 -0.3976 -0.5354 -1.4236
  160OSM   H17T17968   5.447   2.236   4.171 -1.7212 -0.3261  1.2124
  160OSM   C18S17969   5.404   2.030   4.173 -0.4237 -0.3769 -0.4555
  160OSM   H18S17970   5.500   1.975   4.163  0.9933  1.9499 -0.2781
  160OSM   H18T17971   5.322   1.965   4.134 -1.2651  0.0105  0.6362
  160OSM   H18U17972   5.394   2.045   4.283 -0.7179 -1.1967 -0.3620
  160OSM    C1F17973   5.033   2.249   2.912  0.1562 -1.1568 -0.3804
  160OSM     OF17974   5.031   2.143   2.854 -0.0801  0.5532  0.0944
  160OSM    C2F17975   4.969   2.262   3.049 -0.3985 -0.8334 -0.4079
  160OSM    H2F17976   5.011   2.341   3.115 -1.7196  0.5273 -1.1536
  160OSM    H2G17977   4.982   2.163   3.098  1.9231 -1.0299 -1.3084
  160OSM    C3F17978   4.820   2.285   3.039 -0.7136 -0.7483  0.1546
  160OSM    H3F17979   4.768   2.201   2.987 -0.1222 -1.0382  0.0278
  160OSM    H3G17980   4.802   2.376   2.978  0.4503 -2.1994 -2.5274
  160OSM    C4F17981   4.740   2.310   3.173  0.4426  0.0189  0.1970
  160OSM    H4F17982   4.640   2.276   3.139  1.1554  0.1291 -2.1935
  160OSM    H4G17983   4.736   2.419   3.191  0.8307  0.3316 -1.4494
  160OSM    C5F17984   4.773   2.223   3.298  0.0950 -0.1057  0.7823
  160OSM    H5F17985   4.867   2.259   3.345 -0.5937 -0.4126  2.4440
  160OSM    H5G17986   4.788   2.118   3.266 -0.6966  0.4213 -1.5549
  160OSM    C6F17987   4.668   2.240   3.405  0.2991  0.2442 -0.1797
  160OSM    H6F17988   4.568   2.217   3.362  0.0588  1.1120 -0.1159
  160OSM    H6G17989   4.654   2.340   3.451  0.3328 -0.3284  1.1221
  160OSM    C7F17990   4.696   2.140   3.524 -0.2723  0.2920  0.0099
  160OSM    H7F17991   4.803   2.155   3.550 -0.8242  0.2756  2.6506
  160OSM    H7G17992   4.693   2.038   3.480  3.2202 -1.6375  3.5372
  160OSM    C8F17993   4.607   2.131   3.642 -0.0687  0.1682 -0.1622
  160OSM    H8F17994   4.621   2.043   3.707  0.0862 -0.0463 -0.4854
  160OSM    H8G17995   4.503   2.120   3.603  0.3968 -0.5199 -1.2430
  160OSM    C9F17996   4.626   2.259   3.727  0.2247  0.0403 -0.3599
  160OSM    H9F17997   4.587   2.354   3.689  0.5501  0.1731 -0.3698
  160OSM   C10F17998   4.713   2.259   3.834  0.2320 -0.0979  0.3592
  160OSM   H10F17999   4.710   2.349   3.897 -2.2183  0.2644 -0.1989
  160OSM   C11F18000   4.793   2.142   3.891 -0.5414  0.0374  0.0435
  160OSM   H11F18001   4.900   2.170   3.904 -0.6152 -0.0123  0.8126
  160OSM   H11G18002   4.783   2.056   3.821  1.4868  1.5420 -2.2960
  160OSM   C12F18003   4.744   2.097   4.028 -0.2503  0.1905 -0.0316
  160OSM   H12F18004   4.795   2.002   4.052 -1.0494  0.0175  1.0392
  160OSM   H12G18005   4.634   2.083   4.030 -0.0700 -2.8860 -2.8757
  160OSM   C13F18006   4.802   2.195   4.127 -0.2764  0.7376  0.2518
  160OSM   H13F18007   4.783   2.300   4.098 -0.2535  0.7523  0.2887
  160OSM   H13G18008   4.913   2.200   4.129 -0.2353  6.1566 -0.8689
  160OSM   C14F18009   4.773   2.184   4.280 -0.5591 -0.0107  0.7451
  160OSM   H14F18010   4.775   2.078   4.314  0.2293 -0.6394 -1.1242
  160OSM   H14G18011   4.671   2.228   4.283 -1.7277 -2.4450 -0.2713
  160OSM   C15F18012   4.868   2.274   4.366 -0.0471  0.1256 -0.3347
  160OSM   H15F18013   4.861   2.381   4.334 -0.5003  1.4486  3.6179
  160OSM   H15G18014   4.975   2.247   4.356  0.2327  1.2717 -0.6788
  160OSM   C16F18015   4.836   2.278   4.515  0.1623  0.4090  0.0832
  160OSM   H16F18016   4.837   2.178   4.564 -1.0857  1.0977  1.5983
  160OSM   H16G18017   4.730   2.306   4.534 -0.4974 -1.3769 -0.8004
  160OSM   C17F18018   4.948   2.359   4.586  0.2927 -0.1613  0.4297
  160OSM   H17F18019   4.960   2.456   4.532  1.0344 -0.1230  0.6577
  160OSM   H17G18020   5.048   2.312   4.594  1.0559  1.1032 -1.2521
  160OSM   C18F18021   4.895   2.396   4.726 -0.4672  0.2635  0.0653
  160OSM   H18F18022   4.819   2.474   4.705  0.0508  0.0486 -3.0108
  160OSM   H18G18023   4.976   2.445   4.785  0.3500  2.0720 -2.4315
  160OSM   H18H18024   4.845   2.317   4.786 -0.5371  0.2870  0.0377
  161OSM      N18025   1.085   3.666   2.679  0.9588  0.1251 -0.1478
  161OSM    C1518026   1.110   3.748   2.800 -0.3115  0.2786 -0.5347
  161OSM   H15A18027   1.021   3.767   2.858  1.0035 -0.1470  1.7234
  161OSM   H15B18028   1.158   3.842   2.775 -0.0746 -0.0776 -1.4580
  161OSM   H15C18029   1.173   3.693   2.868 -0.8870  0.0838 -0.1515
  161OSM    C1418030   1.017   3.752   2.579 -0.0161  0.1013  0.6319
  161OSM   H14A18031   0.998   3.702   2.485 -0.1904 -0.0236  0.7329
  161OSM   H14B18032   1.081   3.834   2.551  1.4167 -0.7740  1.2692
  161OSM   H14C18033   0.925   3.797   2.614 -1.9472 -0.8790 -2.6942
  161OSM    C1318034   1.213   3.622   2.612  0.4835 -0.3708 -0.5194
  161OSM   H13A18035   1.265   3.552   2.676  0.9050  0.3302 -0.0768
  161OSM   H13B18036   1.273   3.707   2.582 -1.7659  1.9959  1.1733
  161OSM   H13C18037   1.188   3.577   2.517 -1.9588 -0.5711  0.1581
  161OSM    C1218038   1.000   3.541   2.712 -0.6212  0.8046  0.1087
  161OSM   H12A18039   0.983   3.483   2.622 -1.5030 -0.1028  0.8371
  161OSM   H12B18040   0.901   3.574   2.738  0.1393  1.2657  2.6444
  161OSM    C1118041   1.058   3.449   2.819  0.5763 -0.2644 -0.0377
  161OSM   H11A18042   0.978   3.402   2.880  2.6297  0.7431  3.7422
  161OSM   H11B18043   1.120   3.503   2.894  1.6827 -0.3741 -0.8416
  161OSM      P18044   1.082   3.230   2.691  0.1540  0.2007 -0.1521
  161OSM    O1318045   0.981   3.268   2.581 -0.1870 -0.9863 -0.5309
  161OSM    O1418046   1.196   3.154   2.645 -0.7193  0.3999  0.4662
  161OSM    O1118047   1.015   3.151   2.803  0.1074 -0.6896 -0.2391
  161OSM    O1218048   1.141   3.348   2.765  0.2983  0.0557 -0.5167
  161OSM    C1S18049   1.071   3.120   2.927  0.2626 -0.3174 -0.3343
  161OSM    H1S18050   1.038   3.193   3.005  0.9872 -0.0211 -0.3013
  161OSM    H1T18051   1.182   3.121   2.924  0.2759 -1.7004 -0.8123
  161OSM     NF18052   1.077   2.970   3.117  0.2303 -0.3493  0.0333
  161OSM    HNF18053   1.157   2.913   3.140  0.3123 -0.3336 -0.2080
  161OSM    C2S18054   1.022   2.982   2.985  0.0438  0.0714  0.0161
  161OSM    H2S18055   0.911   2.985   2.992  0.0774 -0.6850  0.9823
  161OSM    C3S18056   1.056   2.868   2.879 -1.1337  0.2113 -0.5926
  161OSM    H3S18057   1.167   2.870   2.871 -1.1171 -0.2532 -0.4975
  161OSM     O318058   1.011   2.902   2.750 -0.3827 -0.4256 -0.6055
  161OSM    HO318059   1.010   2.998   2.746 -0.8095 -0.4329 -0.6530
  161OSM    C4S18060   1.025   2.723   2.921 -0.0611 -0.0313  0.5966
  161OSM    H4S18061   1.105   2.681   2.984 -0.8222 -1.0195  0.9211
  161OSM    C5S18062   0.910   2.653   2.899 -0.1705 -0.5041 -0.0992
  161OSM    H5S18063   0.821   2.692   2.846 -1.0805 -0.8489  1.1373
  161OSM    C6S18064   0.887   2.528   2.969  0.1867  0.7045  0.1820
  161OSM    H6S18065   0.983   2.473   2.973 -0.3125 -0.1257  1.5498
  161OSM    H6T18066   0.805   2.466   2.926 -0.0677 -1.8255  3.8532
  161OSM    C7S18067   0.855   2.551   3.119  0.1483  1.2037 -0.2890
  161OSM    H7S18068   0.759   2.604   3.103 -1.7541 -1.6312  0.8009
  161OSM    H7T18069   0.945   2.600   3.161  0.2176 -0.4647  1.7046
  161OSM    C8S18070   0.818   2.413   3.192  0.1571 -0.3284 -0.1582
  161OSM    H8S18071   0.909   2.349   3.202 -0.5735 -1.3386  0.1698
  161OSM    H8T18072   0.754   2.363   3.117  0.0536  1.0776 -1.0435
  161OSM    C9S18073   0.755   2.430   3.327  0.0578  0.5938  0.4346
  161OSM    H9S18074   0.726   2.331   3.369  0.7014 -0.8302 -2.2592
  161OSM    H9T18075   0.659   2.486   3.322 -0.9316 -1.0849 -0.3655
  161OSM   C10S18076   0.840   2.501   3.433  0.2257  0.3764 -0.4192
  161OSM   H10S18077   0.878   2.600   3.401  2.2855 -0.3599 -0.4685
  161OSM   H10T18078   0.927   2.433   3.450 -0.7371 -0.4063  1.9282
  161OSM   C11S18079   0.759   2.508   3.557  0.1725  0.2285  0.5223
  161OSM   H11S18080   0.710   2.410   3.573 -0.5431  0.6818  1.1500
  161OSM   H11T18081   0.685   2.589   3.540  1.3364  0.9539 -1.4051
  161OSM   C12S18082   0.848   2.538   3.683 -0.3998 -0.2663 -0.4350
  161OSM   H12S18083   0.909   2.629   3.668 -0.5262 -0.3584 -1.6003
  161OSM   H12T18084   0.919   2.452   3.693  2.7720  1.9010 -2.5497
  161OSM   C13S18085   0.780   2.541   3.821  0.4535 -0.1969  0.3637
  161OSM   H13S18086   0.717   2.449   3.827 -0.1464  0.2426  1.0324
  161OSM   H13T18087   0.711   2.628   3.827  2.0889  1.0227  3.3606
  161OSM   C14S18088   0.875   2.539   3.942 -0.6693 -0.0724 -0.4932
  161OSM   H14S18089   0.956   2.613   3.927 -1.8034  1.2396 -0.3932
  161OSM   H14T18090   0.929   2.443   3.956  0.7482  0.9899  2.0767
  161OSM   C15S18091   0.817   2.592   4.077 -0.3949 -0.2555 -0.0576
  161OSM   H15S18092   0.725   2.539   4.108 -1.6138  1.8319  0.0772
  161OSM   H15T18093   0.802   2.702   4.067 -0.0873 -0.2279 -0.2332
  161OSM   C16S18094   0.915   2.563   4.193 -0.3557 -0.3517 -0.1316
  161OSM   H16S18095   1.001   2.627   4.167  0.6299 -0.6650  2.1610
  161OSM   H16T18096   0.951   2.459   4.208  0.1969 -0.3230 -1.1629
  161OSM   C17S18097   0.872   2.625   4.333 -0.1448  0.0028  0.0840
  161OSM   H17S18098   0.790   2.557   4.365 -0.2776 -0.1932 -0.6467
  161OSM   H17T18099   0.828   2.726   4.317 -2.1068 -0.6813  0.8783
  161OSM   C18S18100   0.985   2.635   4.429  0.3588 -1.1995 -0.3291
  161OSM   H18S18101   0.947   2.651   4.533  0.3757 -0.4740 -0.4312
  161OSM   H18T18102   1.053   2.716   4.394 -0.4984  0.3156  1.3621
  161OSM   H18U18103   1.054   2.548   4.429 -0.7908 -2.1629 -1.9808
  161OSM    C1F18104   1.012   3.027   3.223  0.4310  0.5266  0.0672
  161OSM     OF18105   0.909   3.086   3.209 -0.1913 -0.2469 -0.3304
  161OSM    C2F18106   1.083   3.009   3.349  0.0649  0.1168 -0.6761
  161OSM    H2F18107   1.161   3.083   3.379 -0.4851 -0.0857  1.4229
  161OSM    H2G18108   1.130   2.908   3.347  0.2543  0.0893  1.7937
  161OSM    C3F18109   0.976   2.977   3.460 -0.4373 -0.4630  0.3179
  161OSM    H3F18110   0.903   2.899   3.432 -0.3870 -0.2412 -0.4627
  161OSM    H3G18111   0.929   3.074   3.484 -2.0494 -1.3632  0.9457
  161OSM    C4F18112   1.036   2.934   3.595  0.3239  0.8388  0.0945
  161OSM    H4F18113   1.117   3.003   3.626  0.0096 -0.3672  4.1485
  161OSM    H4G18114   1.083   2.833   3.587 -0.5778  0.4793 -1.0904
  161OSM    C5F18115   0.929   2.934   3.711 -0.1461 -0.1444  0.5806
  161OSM    H5F18116   0.857   2.858   3.674  0.4922 -0.9143  0.9092
  161OSM    H5G18117   0.878   3.033   3.717 -0.4336 -0.3068  0.8085
  161OSM    C6F18118   0.990   2.895   3.844 -0.2464  0.3368  0.9865
  161OSM    H6F18119   1.059   2.808   3.838 -0.6184  0.0754  0.3682
  161OSM    H6G18120   0.905   2.869   3.911  1.4756 -1.3032  2.6643
  161OSM    C7F18121   1.061   3.005   3.919 -0.0522 -0.3416 -0.0390
  161OSM    H7F18122   0.993   3.089   3.943  0.4395 -0.7597  3.4004
  161OSM    H7G18123   1.151   3.035   3.862 -0.1463 -1.1076 -0.6051
  161OSM    C8F18124   1.121   2.959   4.054 -0.3219 -0.1106  0.0602
  161OSM    H8F18125   1.192   3.039   4.083 -0.1995  0.2462 -1.1558
  161OSM    H8G18126   1.177   2.869   4.021 -3.2822 -1.0614 -2.9783
  161OSM    C9F18127   1.019   2.937   4.162  0.2618 -0.7275  0.0972
  161OSM    H9F18128   0.924   2.895   4.125 -0.8987  0.7460  1.2512
  161OSM   C10F18129   1.020   2.985   4.282 -0.5218 -0.9347 -0.6313
  161OSM   H10F18130   0.940   2.958   4.353  0.1358  1.7398  1.2766
  161OSM   C11F18131   1.131   3.061   4.346  0.7738  0.2014 -0.0910
  161OSM   H11F18132   1.105   3.168   4.334 -1.4723 -0.0462  1.6394
  161OSM   H11G18133   1.223   3.046   4.286  0.6128 -0.1572 -0.2519
  161OSM   C12F18134   1.160   3.018   4.483 -0.1248  0.0777 -0.1940
  161OSM   H12F18135   1.064   2.993   4.533  0.2121 -0.8890 -0.0021
  161OSM   H12G18136   1.191   3.107   4.542 -3.4933  1.9803 -1.0512
  161OSM   C13F18137   1.253   2.902   4.489  0.0946 -0.0418 -0.2554
  161OSM   H13F18138   1.351   2.941   4.455 -1.6559  1.5378 -4.1571
  161OSM   H13G18139   1.223   2.828   4.411 -0.8922  0.4078 -0.3269
  161OSM   C14F18140   1.277   2.840   4.630  0.4707 -0.1896  0.9089
  161OSM   H14F18141   1.282   2.729   4.624  0.8741 -0.1369  0.0231
  161OSM   H14G18142   1.186   2.852   4.693 -0.4563 -1.1135 -0.2007
  161OSM   C15F18143   1.394   2.900   4.709 -0.4745  0.1051 -0.0673
  161OSM   H15F18144   1.386   3.010   4.699  1.6671  0.2316 -0.7897
  161OSM   H15G18145   1.486   2.862   4.661  0.8260 -1.0461  3.0434
  161OSM   C16F18146   1.388   2.862   4.857  0.0646 -0.4058  0.1097
  161OSM   H16F18147   1.290   2.889   4.901 -0.1418  0.9368 -1.0839
  161OSM   H16G18148   1.460   2.921   4.918 -0.6915 -1.4535  2.0839
  161OSM   C17F18149   1.427   2.721   4.896 -0.0807  0.1487 -0.3786
  161OSM   H17F18150   1.345   2.651   4.868 -1.8862  2.7375 -2.0957
  161OSM   H17G18151   1.432   2.704   5.006  2.6043 -2.7954 -0.8384
  161OSM   C18F18152   1.558   2.687   4.827 -0.0079 -0.1156  0.1007
  161OSM   H18F18153   1.532   2.652   4.724 -1.9408  2.7343 -0.5156
  161OSM   H18G18154   1.614   2.617   4.892  1.5894  0.2533 -0.8143
  161OSM   H18H18155   1.620   2.779   4.821  2.0780 -1.3466  1.7008
  162OSM      N18156   4.065   2.865   1.970  0.4761 -0.7957 -0.4194
  162OSM    C1518157   3.935   2.934   1.940  0.1524 -0.3669  0.3205
  162OSM   H15A18158   3.862   2.862   1.906  1.7639 -1.2850 -1.3545
  162OSM   H15B18159   3.960   3.000   1.859  0.7280 -1.7254 -0.6332
  162OSM   H15C18160   3.905   2.984   2.031  1.9363  1.7053 -0.1612
  162OSM    C1418161   4.114   2.815   1.839 -0.1290  0.2668 -0.0062
  162OSM   H14A18162   4.041   2.745   1.801 -2.0540  1.5169  1.2391
  162OSM   H14B18163   4.210   2.767   1.851  1.6810  4.0559  2.2634
  162OSM   H14C18164   4.145   2.893   1.772  0.8643  1.5827  1.8837
  162OSM    C1318165   4.164   2.968   2.020 -0.5504 -0.1644 -0.5489
  162OSM   H13A18166   4.178   3.043   1.942 -1.2885 -1.8587 -2.4006
  162OSM   H13B18167   4.260   2.921   2.038 -0.6981  0.2728  1.6087
  162OSM   H13C18168   4.138   3.014   2.114 -0.9153  0.8969 -1.1516
  162OSM    C1218169   4.051   2.759   2.072  1.4961 -0.5579  0.1134
  162OSM   H12A18170   4.153   2.723   2.076  2.0923  0.9660 -0.5379
  162OSM   H12B18171   3.991   2.675   2.040 -1.7123 -0.0818  4.1109
  162OSM    C1118172   4.007   2.795   2.218  0.0427 -0.3237 -0.4012
  162OSM   H11A18173   4.085   2.871   2.243 -1.8252  1.0023  1.7446
  162OSM   H11B18174   4.017   2.708   2.287 -1.4015 -0.3112 -0.1514
  162OSM      P18175   3.747   2.753   2.233 -0.2296  0.2733 -0.0835
  162OSM    O1318176   3.636   2.844   2.264  0.2623  0.0600  0.1619
  162OSM    O1418177   3.732   2.662   2.113  0.6121 -0.2500 -0.4976
  162OSM    O1118178   3.781   2.650   2.354  0.1895 -0.1568  0.4644
  162OSM    O1218179   3.877   2.843   2.218  0.4109  0.4529  0.8384
  162OSM    C1S18180   3.776   2.697   2.495  0.1512  0.0906  0.2949
  162OSM    H1S18181   3.776   2.808   2.494 -1.8164  0.1367 -0.4350
  162OSM    H1T18182   3.867   2.671   2.552 -0.5584 -1.4449  0.7942
  162OSM     NF18183   3.685   2.694   2.721  0.3422  0.2473 -0.0415
  162OSM    HNF18184   3.729   2.631   2.785  1.7024  0.5924 -0.5900
  162OSM    C2S18185   3.661   2.642   2.586 -0.9037 -1.4644 -0.1247
  162OSM    H2S18186   3.568   2.689   2.547  0.4853  0.4820 -1.3388
  162OSM    C3S18187   3.651   2.492   2.572 -0.1166  0.3732  0.5658
  162OSM    H3S18188   3.743   2.447   2.616 -0.3311  0.5466  1.2069
  162OSM     O318189   3.660   2.441   2.436  0.5508  0.0965 -0.1935
  162OSM    HO318190   3.665   2.519   2.380 -1.4780 -0.4331 -1.2091
  162OSM    C4S18191   3.540   2.414   2.640  0.7557  0.6975  0.3734
  162OSM    H4S18192   3.570   2.387   2.742  0.6343 -1.7074 -0.1476
  162OSM    C5S18193   3.411   2.393   2.602 -0.4400  0.5295  0.8421
  162OSM    H5S18194   3.377   2.431   2.505 -0.9449  1.3686  1.3353
  162OSM    C6S18195   3.299   2.327   2.681  0.2922 -0.7078 -0.6365
  162OSM    H6S18196   3.277   2.227   2.640  0.3386 -0.4822 -1.2263
  162OSM    H6T18197   3.210   2.393   2.671  0.1157 -0.7429  0.5211
  162OSM    C7S18198   3.333   2.315   2.837 -0.3222  0.5298 -0.7976
  162OSM    H7S18199   3.357   2.415   2.879  0.5674  0.1186 -0.3042
  162OSM    H7T18200   3.424   2.253   2.852 -1.7087 -1.8461 -1.6725
  162OSM    C8S18201   3.225   2.246   2.906  0.0787 -0.3269 -0.8267
  162OSM    H8S18202   3.219   2.139   2.878  1.9717 -0.8260  0.4913
  162OSM    H8T18203   3.127   2.287   2.874 -0.7439 -1.7905 -0.3071
  162OSM    C9S18204   3.256   2.237   3.060 -0.0876 -0.4551  0.0495
  162OSM    H9S18205   3.222   2.335   3.100  2.4342  0.7846 -0.6470
  162OSM    H9T18206   3.366   2.244   3.072  0.3661 -1.9065 -2.4765
  162OSM   C10S18207   3.192   2.118   3.140  0.3196 -0.4940  0.7067
  162OSM   H10S18208   3.231   2.025   3.094  2.0430  1.5718 -2.4086
  162OSM   H10T18209   3.083   2.122   3.122  0.6858 -0.1373 -1.8528
  162OSM   C11S18210   3.228   2.125   3.289  0.4647  0.6042  0.7761
  162OSM   H11S18211   3.195   2.221   3.334  1.2417  0.4325  1.7551
  162OSM   H11T18212   3.334   2.101   3.314  0.6106  1.5073  1.0554
  162OSM   C12S18213   3.147   2.017   3.370  0.2966 -0.3627 -0.0280
  162OSM   H12S18214   3.052   2.069   3.393  1.1576  0.3817  2.0549
  162OSM   H12T18215   3.205   2.026   3.465  0.8598 -1.0852 -0.2883
  162OSM   C13S18216   3.117   1.880   3.306 -0.3246  1.1042  0.7779
  162OSM   H13S18217   3.219   1.845   3.278 -1.0708  0.7374 -1.7538
  162OSM   H13T18218   3.063   1.897   3.211  1.6698  0.8717 -0.4469
  162OSM   C14S18219   3.046   1.790   3.406 -0.1935 -0.3732 -0.0986
  162OSM   H14S18220   3.012   1.706   3.342 -1.0569  1.9415 -2.9372
  162OSM   H14T18221   2.954   1.845   3.434 -1.6967 -2.6372 -0.3595
  162OSM   C15S18222   3.129   1.748   3.527 -0.6555 -0.1094 -0.3029
  162OSM   H15S18223   3.154   1.835   3.590  0.3906 -0.7860  0.2467
  162OSM   H15T18224   3.227   1.700   3.507  0.0211 -0.3414  3.0003
  162OSM   C16S18225   3.039   1.660   3.626 -0.4755 -0.3719  0.3070
  162OSM   H16S18226   3.003   1.569   3.573  0.2194 -1.1271  1.1083
  162OSM   H16T18227   2.950   1.704   3.676  0.5702 -0.1810  2.0837
  162OSM   C17S18228   3.124   1.598   3.742 -0.1884  0.9245 -0.5710
  162OSM   H17S18229   3.167   1.681   3.802  1.6668 -1.9581  2.4682
  162OSM   H17T18230   3.211   1.532   3.717  1.1533  2.9098 -1.3912
  162OSM   C18S18231   3.038   1.511   3.840 -0.2711 -0.0868  0.2331
  162OSM   H18S18232   2.954   1.560   3.894 -1.4595 -1.0662 -0.6677
  162OSM   H18T18233   3.103   1.475   3.922  0.8007  0.4761 -0.3556
  162OSM   H18U18234   3.001   1.418   3.791  0.7067  0.2416 -1.1707
  162OSM    C1F18235   3.669   2.822   2.755  0.9417 -0.2345  0.2084
  162OSM     OF18236   3.636   2.904   2.668 -0.1843 -0.8124  0.0041
  162OSM    C2F18237   3.706   2.861   2.897  0.5372  0.6052 -0.4473
  162OSM    H2F18238   3.816   2.876   2.903  0.6117 -0.3297  0.9946
  162OSM    H2G18239   3.675   2.785   2.972  0.0177  1.9344  0.7362
  162OSM    C3F18240   3.642   2.992   2.946  0.2178  0.0538  0.6742
  162OSM    H3F18241   3.532   2.980   2.942  0.3373 -1.2161  0.7426
  162OSM    H3G18242   3.678   3.075   2.882  0.9955  0.2024  1.2825
  162OSM    C4F18243   3.699   3.019   3.085 -0.3720 -0.3140  0.2168
  162OSM    H4F18244   3.808   3.039   3.095 -0.2226 -2.1424  3.5228
  162OSM    H4G18245   3.688   2.926   3.145  3.5856  0.4390  2.4386
  162OSM    C5F18246   3.628   3.144   3.155 -0.1674 -0.2037  0.6941
  162OSM    H5F18247   3.519   3.125   3.143  0.2424 -2.2821 -0.1089
  162OSM    H5G18248   3.633   3.239   3.097 -0.3115  0.2371  1.3924
  162OSM    C6F18249   3.671   3.174   3.294 -0.2819 -0.3730  0.4082
  162OSM    H6F18250   3.611   3.255   3.340  2.1111  2.5708 -1.3268
  162OSM    H6G18251   3.775   3.212   3.295  0.0263 -1.1875  0.6407
  162OSM    C7F18252   3.672   3.047   3.375  0.2147  0.5966  0.8389
  162OSM    H7F18253   3.760   2.984   3.353  0.6939  1.5080  0.1033
  162OSM    H7G18254   3.577   2.997   3.348 -0.3107  1.5529  0.8703
  162OSM    C8F18255   3.661   3.069   3.526  0.2968 -0.6414 -0.5492
  162OSM    H8F18256   3.579   3.139   3.549  1.9544  1.0071  0.5937
  162OSM    H8G18257   3.753   3.119   3.565 -0.0825 -0.1276 -0.3019
  162OSM    C9F18258   3.634   2.945   3.604 -0.4896  0.1812 -0.2258
  162OSM    H9F18259   3.601   2.867   3.535 -0.1578  0.8409 -1.1574
  162OSM   C10F18260   3.609   2.930   3.736  0.5447  0.2042  0.6478
  162OSM   H10F18261   3.581   2.833   3.781 -1.9433  0.8652  0.7003
  162OSM   C11F18262   3.629   3.032   3.837 -0.2839 -0.5068  0.2781
  162OSM   H11F18263   3.664   3.125   3.788  0.3145 -1.0831 -0.4130
  162OSM   H11G18264   3.721   2.998   3.891 -0.3835 -0.6865  0.3359
  162OSM   C12F18265   3.528   3.082   3.942 -0.1936 -0.0942  0.4355
  162OSM   H12F18266   3.437   3.116   3.888  0.0118 -0.1893  0.0296
  162OSM   H12G18267   3.586   3.165   3.989  2.5360 -1.9890  0.6870
  162OSM   C13F18268   3.487   2.982   4.053 -0.1013  0.9825  0.8816
  162OSM   H13F18269   3.412   2.915   4.005 -0.2811  0.7551  1.4785
  162OSM   H13G18270   3.428   3.042   4.126 -2.1857 -1.0357  0.9764
  162OSM   C14F18271   3.595   2.902   4.132  0.7236 -0.2285  0.1076
  162OSM   H14F18272   3.677   2.970   4.165  0.6570  0.2696 -0.7196
  162OSM   H14G18273   3.648   2.835   4.061 -0.3201 -0.0111 -0.9107
  162OSM   C15F18274   3.527   2.824   4.244 -0.1590  0.2662  0.4402
  162OSM   H15F18275   3.485   2.906   4.306 -0.4245 -0.0929  0.7407
  162OSM   H15G18276   3.606   2.760   4.290  0.5989 -0.7062 -2.0588
  162OSM   C16F18277   3.421   2.725   4.205 -0.1782 -0.0448 -0.1269
  162OSM   H16F18278   3.468   2.669   4.120  1.7435  2.9160 -1.1775
  162OSM   H16G18279   3.337   2.787   4.169  0.7511  0.5740 -1.3380
  162OSM   C17F18280   3.386   2.618   4.306  0.0422  0.2987  0.1148
  162OSM   H17F18281   3.356   2.671   4.398  1.1397  1.3797 -0.1324
  162OSM   H17G18282   3.469   2.549   4.332 -0.3624 -0.0316  0.5479
  162OSM   C18F18283   3.278   2.517   4.259 -0.2187  0.0979  0.2535
  162OSM   H18F18284   3.288   2.429   4.327 -0.9106 -0.3670 -0.2215
  162OSM   H18G18285   3.292   2.493   4.152 -1.0881  0.6246  0.0111
  162OSM   H18H18286   3.174   2.548   4.283 -0.5264 -1.6795  1.4502
  163OSM      N18287   2.294   4.068   2.239  0.4928  0.5578 -0.1847
  163OSM    C1518288   2.417   4.108   2.167 -0.1129 -0.1846 -0.2751
  163OSM   H15A18289   2.500   4.114   2.236 -0.1689 -2.1061  0.0118
  163OSM   H15B18290   2.402   4.199   2.110  2.7364  0.4072 -0.2133
  163OSM   H15C18291   2.444   4.034   2.093  2.3443 -1.5517  1.8537
  163OSM    C1418292   2.185   4.023   2.147  0.3997  0.0112 -0.6115
  163OSM   H14A18293   2.177   4.104   2.076  1.2687 -0.5344 -1.3667
  163OSM   H14B18294   2.097   4.000   2.205 -0.1121  1.6664 -0.6749
  163OSM   H14C18295   2.216   3.938   2.088  3.0412 -0.1300  0.7944
  163OSM    C1318296   2.318   3.952   2.325 -0.4714 -0.3409  0.5137
  163OSM   H13A18297   2.402   3.974   2.389 -1.1397 -0.2642  1.3689
  163OSM   H13B18298   2.339   3.863   2.266  1.1485 -1.1552  2.2007
  163OSM   H13C18299   2.236   3.916   2.384 -1.5769  1.4396  0.1282
  163OSM    C1218300   2.254   4.196   2.317  0.6213 -0.1659 -0.1613
  163OSM   H12A18301   2.203   4.258   2.245  0.2250  1.1023  1.1535
  163OSM   H12B18302   2.336   4.251   2.359 -0.7243  2.0755 -0.3466
  163OSM    C1118303   2.143   4.188   2.426  0.3055  1.2810 -0.6831
  163OSM   H11A18304   2.149   4.278   2.492  1.3242  1.5379 -1.0994
  163OSM   H11B18305   2.164   4.120   2.511 -1.1621  1.0361 -0.4936
  163OSM      P18306   1.920   4.256   2.302 -0.6532  0.3060 -0.1406
  163OSM    O1318307   2.002   4.341   2.216  0.0925  0.8832 -0.3520
  163OSM    O1418308   1.807   4.175   2.241  0.2467 -0.4989  0.7211
  163OSM    O1118309   1.867   4.331   2.437 -0.2378  0.0658  0.0501
  163OSM    O1218310   2.017   4.151   2.368 -0.1353  0.0493 -0.0811
  163OSM    C1S18311   1.832   4.243   2.547 -0.4265  0.2087  0.6265
  163OSM    H1S18312   1.923   4.204   2.597 -0.0189  0.5059  0.1207
  163OSM    H1T18313   1.774   4.160   2.501  0.5172  1.5582 -3.3208
  163OSM     NF18314   1.749   4.245   2.783  0.2070 -0.1713 -0.7552
  163OSM    HNF18315   1.654   4.231   2.808  0.5088  0.0313  0.6105
  163OSM    C2S18316   1.748   4.312   2.656 -0.8509 -1.3105 -0.1143
  163OSM    H2S18317   1.802   4.407   2.676  0.9001 -2.4920  1.0516
  163OSM    C3S18318   1.608   4.345   2.601  0.5252 -0.7048 -0.4292
  163OSM    H3S18319   1.560   4.245   2.590 -1.2897  0.3911 -4.9384
  163OSM     O318320   1.598   4.396   2.471 -0.4066  1.0604 -0.1032
  163OSM    HO318321   1.685   4.372   2.440 -1.3837 -0.9494 -1.5140
  163OSM    C4S18322   1.526   4.426   2.699 -0.3028 -0.3110  0.2746
  163OSM    H4S18323   1.464   4.368   2.769 -0.5738  0.0740  0.3589
  163OSM    C5S18324   1.506   4.560   2.703  0.0327  0.0782  0.6581
  163OSM    H5S18325   1.559   4.625   2.632 -1.9127 -0.2879 -1.2379
  163OSM    C6S18326   1.420   4.640   2.800  0.0696  0.4549  0.3444
  163OSM    H6S18327   1.316   4.653   2.764 -0.5315 -0.2802  1.7379
  163OSM    H6T18328   1.469   4.739   2.796  0.3167  0.3349 -3.1973
  163OSM    C7S18329   1.406   4.594   2.945  0.7557 -0.8147  0.7040
  163OSM    H7S18330   1.344   4.503   2.961  0.5361 -0.5934  1.1516
  163OSM    H7T18331   1.356   4.678   2.998  1.0142 -0.0567 -0.2424
  163OSM    C8S18332   1.542   4.574   3.017  0.0116 -0.6888 -0.3603
  163OSM    H8S18333   1.604   4.493   2.971 -1.8181 -0.5919 -3.2923
  163OSM    H8T18334   1.523   4.539   3.120  0.3417 -0.4076 -0.2018
  163OSM    C9S18335   1.628   4.703   3.029 -0.5621  0.4325 -0.6250
  163OSM    H9S18336   1.644   4.757   2.933 -1.1731  0.2831 -0.8120
  163OSM    H9T18337   1.726   4.676   3.074 -0.2177  2.7913  0.2244
  163OSM   C10S18338   1.567   4.800   3.127  0.2170  0.4084  0.0719
  163OSM   H10S18339   1.468   4.837   3.092 -0.3097 -0.6861  0.3542
  163OSM   H10T18340   1.638   4.885   3.126  0.7607 -0.0388 -0.9014
  163OSM   C11S18341   1.565   4.739   3.271  0.8202 -0.2596  0.6425
  163OSM   H11S18342   1.665   4.698   3.297  0.2281 -1.7689  0.6593
  163OSM   H11T18343   1.492   4.656   3.285 -1.7598  1.9845  1.2056
  163OSM   C12S18344   1.534   4.839   3.379 -0.2513  0.4289 -0.7837
  163OSM   H12S18345   1.423   4.847   3.386 -0.8116 -4.2728 -1.0902
  163OSM   H12T18346   1.596   4.930   3.362 -0.5489  0.4949 -1.5359
  163OSM   C13S18347   1.575   4.783   3.523 -0.2522 -0.7188 -0.1339
  163OSM   H13S18348   1.685   4.765   3.519  0.2433  2.0402 -2.9404
  163OSM   H13T18349   1.527   4.685   3.542 -0.2510 -0.2404  2.8959
  163OSM   C14S18350   1.546   4.883   3.640  0.0504  0.4267  0.2870
  163OSM   H14S18351   1.439   4.913   3.637  0.6754  2.8139 -0.1299
  163OSM   H14T18352   1.612   4.969   3.620 -1.8688  1.9256  0.1252
  163OSM   C15S18353   1.575   4.827   3.789  0.0232 -0.0197  0.3219
  163OSM   H15S18354   1.678   4.787   3.783 -0.0563 -0.4902  1.7714
  163OSM   H15T18355   1.507   4.752   3.834 -2.5056  1.3224 -0.9999
  163OSM   C16S18356   1.578   4.942   3.890  0.7465 -0.1843 -0.0442
  163OSM   H16S18357   1.605   5.036   3.837 -2.6757  0.3828 -1.0068
  163OSM   H16T18358   1.649   4.936   3.976 -0.7084  2.6262  1.5239
  163OSM   C17S18359   1.446   4.967   3.959  0.2561  0.8383  0.4910
  163OSM   H17S18360   1.428   4.867   4.003  1.2171  0.6072  0.3767
  163OSM   H17T18361   1.368   4.990   3.884  1.6585 -0.0665 -1.3227
  163OSM   C18S18362   1.440   5.081   4.061 -0.0712  0.6568  0.3744
  163OSM   H18S18363   1.365   5.055   4.138  0.3093 -1.0324  0.2142
  163OSM   H18T18364   1.402   5.178   4.022  0.8528  1.0982  0.5221
  163OSM   H18U18365   1.540   5.091   4.109  0.6242  1.5638 -1.1753
  163OSM    C1F18366   1.851   4.209   2.855 -0.3012 -0.7265 -0.2621
  163OSM     OF18367   1.962   4.250   2.826 -0.6072 -0.6420  0.0477
  163OSM    C2F18368   1.832   4.116   2.976 -0.0199 -0.0642 -0.6387
  163OSM    H2F18369   1.894   4.026   2.953 -0.5503 -0.7844  0.6324
  163OSM    H2G18370   1.727   4.080   2.967  0.0286 -0.0064 -1.6013
  163OSM    C3F18371   1.878   4.170   3.113  0.4132 -0.7630  0.5367
  163OSM    H3F18372   1.988   4.173   3.105  0.6027 -1.0685  2.5129
  163OSM    H3G18373   1.848   4.084   3.177  1.0519 -1.9458 -0.7057
  163OSM    C4F18374   1.818   4.304   3.146 -0.1545  0.0892  0.0893
  163OSM    H4F18375   1.709   4.300   3.127 -0.1733  0.3044  0.1422
  163OSM    H4G18376   1.856   4.386   3.081 -0.5469  0.4892  0.3585
  163OSM    C5F18377   1.847   4.341   3.294  0.4062 -0.6697 -0.0416
  163OSM    H5F18378   1.916   4.428   3.296  1.8573 -1.7133 -1.4905
  163OSM    H5G18379   1.904   4.259   3.343  2.0897  1.1441  1.1467
  163OSM    C6F18380   1.721   4.362   3.376  0.2849  0.1222  0.4120
  163OSM    H6F18381   1.649   4.277   3.372  0.7988 -0.2932 -0.1210
  163OSM    H6G18382   1.667   4.451   3.337 -1.5160 -1.4152 -0.7872
  163OSM    C7F18383   1.752   4.388   3.523 -0.0709  0.3333 -0.4661
  163OSM    H7F18384   1.670   4.446   3.571 -0.0129 -0.2703  0.4028
  163OSM    H7G18385   1.845   4.448   3.536 -1.1443  1.5663  2.3719
  163OSM    C8F18386   1.757   4.248   3.604 -0.5993  0.1632  0.0007
  163OSM    H8F18387   1.820   4.171   3.554  0.2248 -0.5295  1.9901
  163OSM    H8G18388   1.652   4.214   3.592 -0.4501 -0.3876  0.2494
  163OSM    C9F18389   1.814   4.271   3.737  0.2628  0.3446  0.2783
  163OSM    H9F18390   1.921   4.296   3.739  0.3358  0.1346 -0.7256
  163OSM   C10F18391   1.755   4.263   3.859  0.0507 -0.5206 -0.6753
  163OSM   H10F18392   1.813   4.264   3.952 -0.8924  0.0988 -0.0822
  163OSM   C11F18393   1.611   4.231   3.894 -0.3346 -0.2497 -0.2208
  163OSM   H11F18394   1.555   4.193   3.806 -1.0319 -1.5762  0.7523
  163OSM   H11G18395   1.560   4.328   3.913  0.1449  0.1377 -0.8692
  163OSM   C12F18396   1.576   4.124   4.000  0.0110  0.0705 -0.3795
  163OSM   H12F18397   1.649   4.041   3.997 -2.1554 -1.9309 -1.8034
  163OSM   H12G18398   1.475   4.079   3.986  0.1163 -0.4127  0.3709
  163OSM   C13F18399   1.563   4.177   4.145  0.0356  0.4518 -0.3306
  163OSM   H13F18400   1.476   4.246   4.137 -0.1584  0.3473  0.6789
  163OSM   H13G18401   1.653   4.236   4.175  0.1775  0.3480 -0.5502
  163OSM   C14F18402   1.532   4.072   4.250  0.5914 -0.0280  0.1652
  163OSM   H14F18403   1.630   4.029   4.281  1.3043  0.2749 -1.5482
  163OSM   H14G18404   1.470   3.986   4.215 -0.3058  0.5514  0.3108
  163OSM   C15F18405   1.459   4.114   4.377 -0.6342  0.4986  0.5907
  163OSM   H15F18406   1.368   4.172   4.348 -0.1276  1.6537  1.1974
  163OSM   H15G18407   1.523   4.185   4.435 -1.1192  0.1976  1.5225
  163OSM   C16F18408   1.418   3.992   4.457 -0.0403  0.3478  0.5444
  163OSM   H16F18409   1.498   3.917   4.474  0.3879  0.2734 -1.6301
  163OSM   H16G18410   1.336   3.934   4.409  0.7055 -1.9630  1.8857
  163OSM   C17F18411   1.376   4.027   4.598 -0.1478  0.0580 -0.8345
  163OSM   H17F18412   1.465   4.071   4.648 -0.8345  2.3251 -1.4825
  163OSM   H17G18413   1.342   3.939   4.658 -1.4964  1.3323  0.3491
  163OSM   C18F18414   1.267   4.135   4.613 -0.7189 -0.1467  0.6877
  163OSM   H18F18415   1.261   4.164   4.720 -0.0889 -0.2888  0.7647
  163OSM   H18G18416   1.172   4.100   4.567 -0.0996 -0.3951 -0.4353
  163OSM   H18H18417   1.306   4.221   4.556  2.7611 -1.6135  0.5809
  164OSM      N18418   3.999   2.029   1.967  0.6923  0.1165 -0.2683
  164OSM    C1518419   3.897   2.141   1.942  0.8873 -0.5742 -0.5237
  164OSM   H15A18420   3.853   2.160   2.039  0.5757 -1.5192 -0.4660
  164OSM   H15B18421   3.836   2.108   1.859  1.3243 -2.9252  0.0084
  164OSM   H15C18422   3.953   2.226   1.907 -1.8474  1.1165 -1.1111
  164OSM    C1418423   3.914   1.900   1.984 -0.7444  0.1972  0.6085
  164OSM   H14A18424   3.844   1.892   1.902  0.6862  1.0264 -0.7574
  164OSM   H14B18425   3.855   1.912   2.073 -0.7828 -0.3572  0.6615
  164OSM   H14C18426   3.973   1.811   2.001  1.7783  1.6961  0.2678
  164OSM    C1318427   4.088   2.007   1.851  0.3444 -0.3062  0.0780
  164OSM   H13A18428   4.138   2.096   1.816 -1.4662 -0.0076 -1.9514
  164OSM   H13B18429   4.033   1.980   1.763 -1.7376  0.4832  1.0765
  164OSM   H13C18430   4.165   1.935   1.878 -0.0931  0.1519  2.9333
  164OSM    C1218431   4.079   2.050   2.092 -0.4964 -0.3600 -0.7124
  164OSM   H12A18432   4.158   2.122   2.075 -0.9203  0.6010  1.1378
  164OSM   H12B18433   4.135   1.959   2.108 -1.9453 -0.9552  1.4708
  164OSM    C1118434   4.004   2.077   2.226  0.0256 -0.2799  0.2297
  164OSM   H11A18435   3.913   2.013   2.229 -0.2065  0.0876  1.2788
  164OSM   H11B18436   3.967   2.182   2.221  0.9154  0.0288 -0.0019
  164OSM      P18437   4.113   1.901   2.377  0.1410 -0.7749 -0.1877
  164OSM    O1318438   4.002   1.836   2.453 -0.6474 -0.3099  0.3799
  164OSM    O1418439   4.167   1.833   2.259  0.1413  0.1396  0.6081
  164OSM    O1118440   4.234   1.923   2.482 -0.2316 -0.4598  0.2152
  164OSM    O1218441   4.082   2.053   2.341 -0.0039 -0.3133 -0.5607
  164OSM    C1S18442   4.213   1.958   2.619 -0.5702  0.8072  0.0242
  164OSM    H1S18443   4.121   2.020   2.627 -0.6259  1.1569 -2.6103
  164OSM    H1T18444   4.303   2.018   2.644 -0.2890  0.1635  0.5870
  164OSM     NF18445   4.188   1.874   2.844 -0.2775 -0.1717 -0.1950
  164OSM    HNF18446   4.268   1.887   2.903 -0.6250 -0.3824  0.3250
  164OSM    C2S18447   4.221   1.832   2.710 -0.0308 -0.1464  0.6001
  164OSM    H2S18448   4.140   1.766   2.673 -1.0102  1.7785 -0.8946
  164OSM    C3S18449   4.355   1.755   2.695 -0.5455  0.1208  0.2265
  164OSM    H3S18450   4.433   1.814   2.747 -2.3589  1.3656  1.7181
  164OSM     O318451   4.378   1.711   2.566 -0.2221 -0.1965  0.8646
  164OSM    HO318452   4.330   1.774   2.511  1.3739  0.5133  0.2284
  164OSM    C4S18453   4.350   1.627   2.778  0.2507 -0.2847  0.5214
  164OSM    H4S18454   4.265   1.561   2.751 -0.0141  1.0487 -2.2112
  164OSM    C5S18455   4.420   1.599   2.884  0.4356  0.0186  1.1644
  164OSM    H5S18456   4.485   1.666   2.941  0.5201  1.0098 -0.0478
  164OSM    C6S18457   4.391   1.475   2.957 -0.3020 -0.0002  0.6573
  164OSM    H6S18458   4.488   1.422   2.948  0.0261  0.9882 -3.4047
  164OSM    H6T18459   4.316   1.409   2.909 -2.0837  0.8647  2.1281
  164OSM    C7S18460   4.365   1.504   3.110 -0.1163 -0.2648  0.2190
  164OSM    H7S18461   4.289   1.584   3.126 -0.3983 -0.3403 -0.6903
  164OSM    H7T18462   4.457   1.548   3.154  0.1487  0.9384 -1.4234
  164OSM    C8S18463   4.300   1.384   3.188 -0.3869  0.2717 -0.1391
  164OSM    H8S18464   4.377   1.305   3.205  1.1406  1.9230  0.9019
  164OSM    H8T18465   4.225   1.339   3.119  0.4203 -2.0372  0.3922
  164OSM    C9S18466   4.228   1.426   3.318 -0.8085 -0.8158  0.4197
  164OSM    H9S18467   4.153   1.348   3.338 -1.4759 -0.6496 -1.2235
  164OSM    H9T18468   4.178   1.523   3.295 -1.4854 -0.9561  1.2777
  164OSM   C10S18469   4.302   1.451   3.444 -0.1107 -0.6213  1.0000
  164OSM   H10S18470   4.377   1.527   3.413  1.4045 -2.7663 -0.8929
  164OSM   H10T18471   4.349   1.357   3.481 -0.6960 -1.6228 -0.7242
  164OSM   C11S18472   4.220   1.507   3.557 -0.2150 -0.2040  0.8826
  164OSM   H11S18473   4.211   1.443   3.647 -1.9623  1.4255  1.9197
  164OSM   H11T18474   4.112   1.520   3.535 -0.3738 -0.7862  1.2885
  164OSM   C12S18475   4.263   1.654   3.597  0.4004  0.5654 -0.1720
  164OSM   H12S18476   4.169   1.705   3.628  0.6142  0.2132  1.1431
  164OSM   H12T18477   4.307   1.707   3.511  2.6993 -1.6396 -0.4774
  164OSM   C13S18478   4.347   1.650   3.729 -0.4377  0.0257 -0.9116
  164OSM   H13S18479   4.441   1.594   3.707  0.0344  0.2836  0.3556
  164OSM   H13T18480   4.291   1.592   3.805 -1.4272 -1.9839 -3.0539
  164OSM   C14S18481   4.375   1.785   3.801  0.6749 -0.3127  0.0743
  164OSM   H14S18482   4.283   1.846   3.786  1.5308  0.8634 -0.6358
  164OSM   H14T18483   4.459   1.841   3.754 -0.2898  0.4607 -0.7913
  164OSM   C15S18484   4.397   1.764   3.951 -0.7567  0.3188  0.5295
  164OSM   H15S18485   4.326   1.686   3.985  1.0471 -2.4120 -1.5315
  164OSM   H15T18486   4.373   1.864   3.994  0.2152  0.6944  0.2195
  164OSM   C16S18487   4.537   1.719   3.992  0.0176 -0.1385 -0.0654
  164OSM   H16S18488   4.606   1.805   3.983 -0.9780  0.7674  0.7407
  164OSM   H16T18489   4.568   1.647   3.912  1.4581  0.9428 -0.5103
  164OSM   C17S18490   4.547   1.669   4.135 -0.1750  0.5204  0.6485
  164OSM   H17S18491   4.655   1.644   4.145  0.0657  1.2384 -0.0554
  164OSM   H17T18492   4.488   1.577   4.153  0.4203 -0.1906 -0.8181
  164OSM   C18S18493   4.512   1.775   4.240 -0.7484  0.2879 -0.0856
  164OSM   H18S18494   4.589   1.855   4.236 -0.3717 -0.1096 -1.0220
  164OSM   H18T18495   4.514   1.736   4.344  0.7168  1.7911  0.4919
  164OSM   H18U18496   4.415   1.828   4.227 -0.2512  0.9052 -1.4410
  164OSM    C1F18497   4.080   1.929   2.889 -0.4270  0.0059  0.0523
  164OSM     OF18498   3.974   1.894   2.841  0.0547  0.0846 -0.7658
  164OSM    C2F18499   4.086   2.036   2.985  0.3641  0.5961 -0.4946
  164OSM    H2F18500   3.996   2.093   2.954 -1.1270 -0.5145  1.5774
  164OSM    H2G18501   4.171   2.106   2.974 -1.2716  2.5338 -1.3595
  164OSM    C3F18502   4.074   2.001   3.134 -0.4265  0.0131 -0.5870
  164OSM    H3F18503   4.133   1.910   3.160  0.1302  0.2195 -1.0838
  164OSM    H3G18504   3.970   1.975   3.161 -0.3071  0.1847  0.0469
  164OSM    C4F18505   4.119   2.121   3.216  0.2306 -0.2997  0.0071
  164OSM    H4F18506   4.054   2.204   3.183  1.0286 -0.8127 -3.2301
  164OSM    H4G18507   4.220   2.157   3.187  0.3200 -0.1494  0.4963
  164OSM    C5F18508   4.122   2.091   3.364 -0.1093  0.4564 -0.0810
  164OSM    H5F18509   4.185   2.167   3.416 -2.5378  2.5597 -0.0090
  164OSM    H5G18510   4.169   1.992   3.385  0.7878  1.1038  1.1153
  164OSM    C6F18511   3.984   2.087   3.435  0.1504 -0.2227  0.8459
  164OSM    H6F18512   3.941   1.984   3.426  1.0207 -0.4962 -0.4641
  164OSM    H6G18513   3.899   2.148   3.396 -2.4277 -3.3678  1.1087
  164OSM    C7F18514   3.997   2.109   3.581  0.4369 -0.1143  0.4685
  164OSM    H7F18515   3.996   2.217   3.609  0.7355  0.3235 -1.1273
  164OSM    H7G18516   4.089   2.055   3.611 -0.6932 -1.3260  1.9379
  164OSM    C8F18517   3.881   2.069   3.677  0.0522  0.6863  0.2766
  164OSM    H8F18518   3.790   2.124   3.644 -1.6832 -3.0779 -1.8791
  164OSM    H8G18519   3.914   2.115   3.773 -1.7384 -0.5743  1.5461
  164OSM    C9F18520   3.872   1.918   3.675 -0.9124  0.2427  0.9311
  164OSM    H9F18521   3.847   1.876   3.576  1.1624 -2.6235  1.5107
  164OSM   C10F18522   3.903   1.843   3.776 -0.5187 -0.0943 -0.5372
  164OSM   H10F18523   3.896   1.736   3.751 -0.2262 -0.2962  0.2214
  164OSM   C11F18524   3.942   1.884   3.920 -0.0279 -0.8415 -0.3348
  164OSM   H11F18525   4.012   1.970   3.915  0.8409 -1.6081 -3.6590
  164OSM   H11G18526   4.000   1.807   3.975 -1.4594 -0.9480  1.1029
  164OSM   C12F18527   3.827   1.920   4.015  0.5115 -0.0460 -0.6153
  164OSM   H12F18528   3.751   1.839   4.016  0.4913 -0.0225  0.7423
  164OSM   H12G18529   3.769   2.004   3.972  1.1050 -0.0656 -1.4788
  164OSM   C13F18530   3.858   1.951   4.166 -0.4950  0.3102 -0.4316
  164OSM   H13F18531   3.766   1.983   4.220 -0.1417  0.3454  0.1547
  164OSM   H13G18532   3.930   2.033   4.186  1.2812 -1.4444  0.6908
  164OSM   C14F18533   3.912   1.820   4.234 -0.4966  0.1434 -0.9268
  164OSM   H14F18534   4.013   1.790   4.199 -0.0219  0.2692  0.2772
  164OSM   H14G18535   3.834   1.744   4.216 -0.2726 -0.4725  0.5340
  164OSM   C15F18536   3.902   1.838   4.381 -0.1422  0.0717  0.2707
  164OSM   H15F18537   3.795   1.855   4.404 -0.1020  1.3809 -0.3988
  164OSM   H15G18538   3.951   1.935   4.408  0.2154 -0.0091 -0.0744
  164OSM   C16F18539   3.947   1.725   4.474 -0.1535  0.1637  0.2387
  164OSM   H16F18540   4.058   1.734   4.472 -0.3030  4.4873  1.4446
  164OSM   H16G18541   3.922   1.627   4.429 -2.3277  0.9968 -0.4939
  164OSM   C17F18542   3.898   1.755   4.618  0.2671 -0.8613  0.1719
  164OSM   H17F18543   3.887   1.864   4.633  0.4560 -0.9957  1.3797
  164OSM   H17G18544   3.965   1.707   4.692  3.2471  1.7426 -0.6160
  164OSM   C18F18545   3.754   1.701   4.639  0.1355 -0.0568 -0.1301
  164OSM   H18F18546   3.777   1.592   4.638  0.2274 -0.0472  0.5111
  164OSM   H18G18547   3.685   1.720   4.554  0.2979 -3.8997 -1.3369
  164OSM   H18H18548   3.713   1.729   4.738 -0.6118  2.9548 -1.1904
  165SAPS     N18549   3.947   3.010   7.105  0.6298  0.1675  0.1931
  165SAPS   HN118550   3.948   3.083   7.179 -1.6045  0.2495  0.1931
  165SAPS   HN218551   3.999   2.929   7.145  1.2107  0.4802  0.0916
  165SAPS   HN318552   4.007   3.040   7.025 -0.0883 -0.8225 -0.7363
  165SAPS   C1218553   3.815   2.985   7.063 -0.3823  0.1639 -0.1321
  165SAPS  H12A18554   3.828   2.903   6.994  1.5448 -1.4875  2.0274
  165SAPS   C1318555   3.727   2.932   7.176 -0.1708  0.5712 -0.9003
  165SAPS  O13A18556   3.770   2.928   7.295 -0.0086  0.6366 -0.3312
  165SAPS  O13B18557   3.612   2.890   7.145 -0.3019 -0.2377 -0.2235
  165SAPS   C1118558   3.753   3.116   7.006 -0.3402  0.5204  0.6613
  165SAPS  H11A18559   3.754   3.189   7.089 -2.9300  1.2597  0.1424
  165SAPS  H11B18560   3.643   3.113   6.987 -0.5209  0.5783  1.6455
  165SAPS     P18561   3.774   3.270   6.800  0.0891 -0.0551 -0.0107
  165SAPS   O1318562   3.711   3.371   6.890 -0.2455  0.2497 -0.4419
  165SAPS   O1418563   3.885   3.305   6.710 -0.1869 -0.0491 -0.0805
  165SAPS   O1218564   3.834   3.157   6.893 -0.1148 -0.5656  0.4507
  165SAPS   O1118565   3.664   3.206   6.708  0.3469 -0.5465 -0.5562
  165SAPS    C118566   3.688   3.076   6.645  0.4793  0.7109  0.2705
  165SAPS    HA18567   3.796   3.048   6.647  0.3778  0.3396  0.5158
  165SAPS    HB18568   3.644   2.992   6.702  1.9455 -0.3517 -0.1075
  165SAPS    C218569   3.625   3.059   6.504  0.5802 -0.5519  0.3334
  165SAPS    HS18570   3.657   2.963   6.457  1.9136  0.1412 -0.2163
  165SAPS   O2118571   3.676   3.162   6.420  0.0863  0.1967  0.0417
  165SAPS   C2118572   3.805   3.149   6.381  0.8208  0.4014  0.1156
  165SAPS   O2218573   3.875   3.049   6.398  0.2342 -0.7771 -0.5153
  165SAPS   C2218574   3.855   3.272   6.314  0.9142  0.0698 -0.0799
  165SAPS   H2R18575   3.798   3.366   6.331 -0.5520 -0.0126 -3.6537
  165SAPS   H2S18576   3.958   3.285   6.353  0.3186  1.5579  1.0934
  165SAPS    C318577   3.467   3.063   6.502 -0.4561  0.4108 -0.4093
  165SAPS    HX18578   3.415   3.146   6.555  0.0406 -0.1644  1.0292
  165SAPS    HY18579   3.419   2.979   6.556  1.9741 -0.4699  0.5319
  165SAPS   O3118580   3.424   3.070   6.364 -0.0202  0.9173  0.2942
  165SAPS   C3118581   3.378   2.953   6.319 -0.1649  0.1297  1.0842
  165SAPS   O3218582   3.379   2.847   6.375  0.1613  0.1247  0.2122
  165SAPS   C3218583   3.321   2.972   6.172  0.0123 -0.0612 -0.2256
  165SAPS   H2X18584   3.263   3.067   6.168 -1.0695 -0.7483 -1.9677
  165SAPS   H2Y18585   3.247   2.890   6.162  1.8413 -1.8547  0.3853
  165SAPS   C2318586   3.854   3.249   6.163  0.0331  1.0125  0.5988
  165SAPS   H3R18587   3.751   3.227   6.129  0.5080 -2.8683  1.2379
  165SAPS   H3S18588   3.920   3.159   6.155 -1.6925 -0.2185 -0.3344
  165SAPS   C2418589   3.898   3.369   6.072  0.6052  0.8430 -0.5199
  165SAPS   H4R18590   3.992   3.389   6.128 -0.2104  0.5804  1.0263
  165SAPS   H4S18591   3.828   3.454   6.084  1.3897  1.4271  0.0237
  165SAPS   C2518592   3.923   3.345   5.927  0.0466  0.5172 -0.2822
  165SAPS   H5R18593   4.006   3.277   5.906 -0.6302 -0.3049 -0.3719
  165SAPS   C2618594   3.841   3.376   5.819 -0.9799 -0.0157 -0.5506
  165SAPS   H6R18595   3.874   3.333   5.723  0.0122 -1.5774  0.4334
  165SAPS   C2718596   3.725   3.473   5.818  0.3303 -0.4986  0.3418
  165SAPS   H7R18597   3.679   3.485   5.918  3.0768  0.9370  1.5168
  165SAPS   H7S18598   3.645   3.418   5.763 -1.4581 -2.4622  4.5035
  165SAPS   C2818599   3.762   3.604   5.763 -0.6003  0.4379 -0.2074
  165SAPS   H8R18600   3.796   3.679   5.836 -1.6731  0.2800  0.4824
  165SAPS   C2918601   3.766   3.642   5.637 -0.8109 -0.7870 -0.6082
  165SAPS   H9R18602   3.815   3.740   5.631 -1.1834 -0.6232 -1.0745
  165SAPS  C21018603   3.718   3.574   5.517 -0.1000  0.1157 -0.6858
  165SAPS  H10R18604   3.642   3.498   5.547  1.1380 -0.3528  1.3985
  165SAPS  H10S18605   3.809   3.524   5.479  0.1859  1.9610 -2.5976
  165SAPS  C21118606   3.653   3.663   5.406  0.4471 -0.0008  0.0795
  165SAPS  H11R18607   3.571   3.731   5.433 -0.8975 -1.7643  0.5887
  165SAPS  C21218608   3.704   3.681   5.286 -0.5472 -0.0471  0.1589
  165SAPS  H12R18609   3.644   3.737   5.213 -2.8439 -1.2818  0.9989
  165SAPS  C21318610   3.820   3.603   5.229 -0.2051 -0.5674 -0.2329
  165SAPS  H13R18611   3.800   3.571   5.125 -2.1144 -0.3418  0.0394
  165SAPS  H13S18612   3.840   3.510   5.287  2.8183  1.4967  2.3714
  165SAPS  C21418613   3.953   3.676   5.216  0.4791  0.0150 -0.0641
  165SAPS  H14R18614   4.031   3.644   5.287 -0.5443 -1.8240  0.2866
  165SAPS  C21518615   3.978   3.777   5.128  0.2219  0.3911 -0.0649
  165SAPS  H15R18616   4.082   3.805   5.106  0.0454 -0.0288 -1.5570
  165SAPS  C21618617   3.881   3.833   5.032  0.2990 -0.1985  0.2362
  165SAPS  H16R18618   3.876   3.941   5.058 -0.3995 -0.3287  0.6719
  165SAPS  H16S18619   3.776   3.803   5.050  0.4393  0.2862  2.0809
  165SAPS  C21718620   3.916   3.812   4.882 -0.3797  0.3354  0.0476
  165SAPS  H17R18621   3.849   3.862   4.809  1.5951 -0.4253 -2.4239
  165SAPS  H17S18622   3.919   3.701   4.873 -0.3348  0.3172  0.2799
  165SAPS  C21818623   4.052   3.857   4.836  0.0775 -0.4199  0.4492
  165SAPS  H18R18624   4.133   3.818   4.901  0.3094  1.5254  1.3978
  165SAPS  H18S18625   4.054   3.968   4.832  0.9967 -0.4246 -4.0392
  165SAPS  C21918626   4.087   3.805   4.699 -0.0290  0.9254 -0.0047
  165SAPS  H19R18627   3.997   3.826   4.637 -0.5567  0.4399  0.5781
  165SAPS  H19S18628   4.099   3.694   4.697 -1.0204  0.8125 -1.2053
  165SAPS  C22018629   4.213   3.865   4.634 -0.8231 -0.0280  0.3803
  165SAPS  H20R18630   4.260   3.808   4.552 -0.0146  0.2522  0.6452
  165SAPS  H20S18631   4.284   3.897   4.713  0.8542  2.4296 -1.9661
  165SAPS  H20T18632   4.180   3.960   4.586  3.5975  0.9340 -1.1454
  165SAPS   C3318633   3.407   2.968   6.041 -0.1399  0.1556  0.1291
  165SAPS   H3X18634   3.329   2.982   5.964 -1.4292 -0.2116  1.3217
  165SAPS   H3Y18635   3.453   2.868   6.025 -0.0035  0.5788 -2.5402
  165SAPS   C3418636   3.513   3.077   6.023 -0.4007  0.3770 -0.0758
  165SAPS   H4X18637   3.579   3.074   6.113  0.4957 -0.2076 -0.7394
  165SAPS   H4Y18638   3.468   3.178   6.014  0.1469  0.5330 -1.2184
  165SAPS   C3518639   3.589   3.046   5.895  0.1534 -0.2937  0.0277
  165SAPS   H5X18640   3.608   2.937   5.883  1.6487  0.1316 -2.1295
  165SAPS   H5Y18641   3.691   3.089   5.907 -0.4605  0.8914  1.2591
  165SAPS   C3618642   3.517   3.106   5.773 -0.0321  0.2635  0.7821
  165SAPS   H6X18643   3.509   3.216   5.785 -2.5599  0.4145 -1.3520
  165SAPS   H6Y18644   3.413   3.066   5.777 -0.4802  1.4119  0.8686
  165SAPS   C3718645   3.572   3.068   5.638 -0.3828  0.2080 -0.1269
  165SAPS   H7X18646   3.562   2.958   5.633 -2.4587  0.2787  1.3172
  165SAPS   H7Y18647   3.678   3.101   5.645 -0.2753  1.2899 -4.2036
  165SAPS   C3818648   3.516   3.122   5.509  0.2417 -0.1509 -0.3608
  165SAPS   H8X18649   3.481   3.226   5.524  1.1544  0.0375  0.5450
  165SAPS   H8Y18650   3.419   3.068   5.498  0.1128 -0.1715  0.8081
  165SAPS   C3918651   3.615   3.108   5.391  0.6764  0.1325  0.1636
  165SAPS   H9X18652   3.619   3.001   5.360  1.2446 -0.2330  1.4464
  165SAPS   H9Y18653   3.720   3.137   5.412  1.3108 -3.3021  2.6523
  165SAPS  C31018654   3.546   3.186   5.275 -0.5810 -0.2350  0.0528
  165SAPS  H10X18655   3.558   3.294   5.298  1.3870 -0.8217  2.0905
  165SAPS  H10Y18656   3.440   3.159   5.258 -0.6978  0.5144 -0.4862
  165SAPS  C31118657   3.626   3.184   5.139  0.4675 -0.2914 -0.3119
  165SAPS  H11X18658   3.664   3.083   5.114  0.1195 -0.4669 -0.1472
  165SAPS  H11Y18659   3.718   3.245   5.143  0.9820 -1.0682 -0.2128
  165SAPS  C31218660   3.535   3.234   5.022 -0.8367 -0.2801  0.7297
  165SAPS  H12X18661   3.436   3.192   5.051 -0.2470 -3.3420 -1.1892
  165SAPS  H12Y18662   3.559   3.185   4.925 -1.0060  0.8843  0.0843
  165SAPS  C31318663   3.523   3.385   5.007 -0.6204  0.0998  0.2319
  165SAPS  H13X18664   3.615   3.433   4.969 -0.6019  1.3310  1.7256
  165SAPS  H13Y18665   3.514   3.422   5.112  1.8351 -0.4661  0.6958
  165SAPS  C31418666   3.391   3.440   4.940 -0.3071  0.0984 -0.6755
  165SAPS  H14X18667   3.393   3.550   4.950  1.0028 -0.0115  0.7587
  165SAPS  H14Y18668   3.303   3.409   5.001 -0.7279 -0.2475 -1.4514
  165SAPS  C31518669   3.379   3.405   4.790  0.3315  0.6177  0.0998
  165SAPS  H15X18670   3.396   3.296   4.777 -2.3749  0.3240 -1.7051
  165SAPS  H15Y18671   3.448   3.457   4.720 -0.6882 -0.7087 -1.9991
  165SAPS  C31618672   3.230   3.435   4.746 -0.7872  0.3810  0.8358
  165SAPS  H16X18673   3.213   3.543   4.765  1.3593  0.7801  0.8057
  165SAPS  H16Y18674   3.161   3.370   4.804  1.8457 -3.3764  0.1153
  165SAPS  C31718675   3.216   3.412   4.598  0.4611 -0.2103  0.0017
  165SAPS  H17X18676   3.224   3.305   4.571  0.7940  0.4790 -3.0103
  165SAPS  H17Y18677   3.301   3.456   4.542  0.4227 -0.5365 -0.3151
  165SAPS  C31818678   3.097   3.493   4.545 -0.4246 -0.8151  0.6223
  165SAPS  H18X18679   3.001   3.477   4.598 -2.0999  2.2422 -1.2076
  165SAPS  H18Y18680   3.100   3.475   4.435  2.5699  2.8888 -0.0874
  165SAPS  H18Z18681   3.117   3.602   4.557 -0.7789 -0.4514 -1.6333
  166SAPS     N18682   3.383   0.682   7.618 -0.1310 -0.4236 -0.0834
  166SAPS   HN118683   3.438   0.601   7.582  0.8793  1.4676 -3.2206
  166SAPS   HN218684   3.456   0.754   7.636  0.2900 -1.0074  0.6277
  166SAPS   HN318685   3.322   0.647   7.695  0.1168  0.0137  0.3165
  166SAPS   C1218686   3.311   0.724   7.496 -0.3751  0.0838 -0.2210
  166SAPS  H12A18687   3.271   0.629   7.462 -0.8757  0.4699 -0.7362
  166SAPS   C1318688   3.186   0.821   7.508 -0.2159  0.1081  0.1909
  166SAPS  O13A18689   3.152   0.852   7.631  0.8505 -0.4018 -0.2752
  166SAPS  O13B18690   3.119   0.850   7.406  0.8016 -0.6417 -0.0708
  166SAPS   C1118691   3.411   0.770   7.381  0.1050  0.2837  1.1716
  166SAPS  H11A18692   3.491   0.828   7.432 -0.0981  1.6622 -0.0002
  166SAPS  H11B18693   3.361   0.837   7.308  1.4871  0.0183 -0.0602
  166SAPS     P18694   3.435   0.606   7.176 -0.1069  0.3533  0.1378
  166SAPS   O1318695   3.560   0.582   7.104 -0.0539  0.3035 -0.2590
  166SAPS   O1418696   3.348   0.492   7.199  0.6374  0.2575  0.8280
  166SAPS   O1218697   3.474   0.659   7.318 -0.1076  0.4114 -0.0298
  166SAPS   O1118698   3.348   0.717   7.103  0.4841 -0.0659  0.5681
  166SAPS    C118699   3.394   0.836   7.046  0.3125 -0.3485  0.3852
  166SAPS    HA18700   3.325   0.921   7.066 -1.2721 -0.6686 -3.0173
  166SAPS    HB18701   3.497   0.864   7.079  0.5840 -1.1896  0.2741
  166SAPS    C218702   3.417   0.832   6.889  0.2822 -0.8096  0.3982
  166SAPS    HS18703   3.476   0.738   6.880  1.7423  0.2001 -1.2734
  166SAPS   O2118704   3.506   0.939   6.843 -0.1351 -0.0547  0.0201
  166SAPS   C2118705   3.573   0.933   6.729 -0.1157  0.5900 -0.3898
  166SAPS   O2218706   3.596   0.827   6.670  0.0176  0.1265 -0.4474
  166SAPS   C2218707   3.626   1.074   6.688 -0.6618  0.2305  1.0728
  166SAPS   H2R18708   3.540   1.142   6.672 -0.5407 -0.2616 -2.7195
  166SAPS   H2S18709   3.697   1.122   6.758  1.5529 -2.3936  0.8087
  166SAPS    C318710   3.288   0.830   6.803 -0.1817  0.7732 -0.1789
  166SAPS    HX18711   3.265   0.937   6.789  2.5397  1.5287  0.4788
  166SAPS    HY18712   3.208   0.790   6.868  0.9895 -2.0795 -0.3292
  166SAPS   O3118713   3.296   0.764   6.673  0.2276 -0.1591  0.2937
  166SAPS   C3118714   3.281   0.641   6.683 -0.1661  0.1356 -0.9145
  166SAPS   O3218715   3.257   0.579   6.786  0.8018  0.2951 -0.0983
  166SAPS   C3218716   3.326   0.565   6.553 -0.6813  0.3425  0.3616
  166SAPS   H2X18717   3.275   0.468   6.537  1.2891 -0.4286 -1.9237
  166SAPS   H2Y18718   3.435   0.553   6.574 -0.4097  2.9572  0.7893
  166SAPS   C2318719   3.705   1.064   6.554  0.0081  0.1216 -0.0998
  166SAPS   H3R18720   3.649   1.003   6.480  0.7782 -0.1274 -0.4923
  166SAPS   H3S18721   3.795   1.002   6.576 -1.7292 -2.2855  0.7078
  166SAPS   C2418722   3.740   1.196   6.496 -0.8326  0.2556  0.2418
  166SAPS   H4R18723   3.816   1.178   6.417  1.8623  2.5544  2.0932
  166SAPS   H4S18724   3.776   1.267   6.574 -1.4805 -1.2622  1.9959
  166SAPS   C2518725   3.619   1.253   6.430  0.7478 -0.1990 -0.0950
  166SAPS   H5R18726   3.536   1.288   6.494 -0.8612 -2.1902 -0.9716
  166SAPS   C2618727   3.599   1.267   6.298  0.2242 -0.3861  0.1379
  166SAPS   H6R18728   3.509   1.326   6.274 -0.4452 -0.7407  1.6491
  166SAPS   C2718729   3.682   1.228   6.180 -0.0263  0.2350 -0.5287
  166SAPS   H7R18730   3.627   1.206   6.086  1.9771 -1.4548 -1.3752
  166SAPS   H7S18731   3.727   1.133   6.216 -1.4302  0.6221  2.6669
  166SAPS   C2818732   3.788   1.332   6.170  0.0601 -0.6698 -0.1722
  166SAPS   H8R18733   3.872   1.326   6.241  0.7384  0.5607 -0.8319
  166SAPS   C2918734   3.797   1.425   6.074  0.7745 -1.0458  0.1650
  166SAPS   H9R18735   3.876   1.501   6.080  1.0912 -1.4311  1.0435
  166SAPS  C21018736   3.698   1.449   5.962 -0.5174  0.2885  0.3980
  166SAPS  H10R18737   3.667   1.555   5.970 -0.0397  0.5302 -0.7344
  166SAPS  H10S18738   3.596   1.408   5.980 -0.8679  0.6686 -0.6130
  166SAPS  C21118739   3.739   1.411   5.821  0.1008 -0.1073  0.0902
  166SAPS  H11R18740   3.845   1.381   5.812  0.6689  1.5364  0.7945
  166SAPS  C21218741   3.658   1.419   5.712  0.6034  0.1591  0.0341
  166SAPS  H12R18742   3.697   1.368   5.622 -0.2297 -2.0714  0.8602
  166SAPS  C21318743   3.511   1.460   5.709  0.2040  0.3169  0.1677
  166SAPS  H13R18744   3.466   1.436   5.808 -0.0375  0.1461  0.0160
  166SAPS  H13S18745   3.458   1.400   5.632 -0.5402 -1.3373  1.8918
  166SAPS  C21418746   3.495   1.613   5.693  1.0300 -0.0639 -0.4186
  166SAPS  H14R18747   3.531   1.671   5.778  3.6003 -2.1142  0.0414
  166SAPS  C21518748   3.429   1.667   5.592  0.1578 -0.0817 -0.2482
  166SAPS  H15R18749   3.418   1.776   5.583  0.5691 -0.1015 -1.0664
  166SAPS  C21618750   3.352   1.600   5.482  0.8130  0.5099  0.0946
  166SAPS  H16R18751   3.246   1.611   5.516  0.9135 -0.3417  0.7138
  166SAPS  H16S18752   3.373   1.492   5.468 -2.7089 -0.6326  2.2939
  166SAPS  C21718753   3.366   1.671   5.339 -0.0202  0.1371  0.4360
  166SAPS  H17R18754   3.320   1.772   5.337  0.9832  0.6047 -1.8492
  166SAPS  H17S18755   3.294   1.613   5.276 -2.1478 -0.2211  3.0182
  166SAPS  C21818756   3.507   1.688   5.278 -0.1715 -0.0795 -0.3226
  166SAPS  H18R18757   3.540   1.586   5.252 -2.1837 -0.7146 -0.5293
  166SAPS  H18S18758   3.586   1.728   5.346 -0.4151 -0.2025  0.0369
  166SAPS  C21918759   3.517   1.773   5.144  0.1717 -0.6045 -0.0092
  166SAPS  H19R18760   3.473   1.710   5.064 -1.6089  0.0011  0.4448
  166SAPS  H19S18761   3.622   1.790   5.110 -0.6753  0.5004 -2.2794
  166SAPS  C22018762   3.434   1.902   5.128 -0.7515  0.5749  0.4260
  166SAPS  H20R18763   3.459   1.969   5.213 -0.6218 -0.3269  1.1082
  166SAPS  H20S18764   3.326   1.875   5.135 -0.3856 -0.4859  2.5172
  166SAPS  H20T18765   3.448   1.947   5.027 -1.1596  0.4795  0.3229
  166SAPS   C3318766   3.295   0.645   6.425 -0.1095  0.3858  0.3525
  166SAPS   H3X18767   3.336   0.749   6.423 -0.1131  0.3994  0.8857
  166SAPS   H3Y18768   3.185   0.655   6.433  0.1339  1.8711  3.1932
  166SAPS   C3418769   3.344   0.552   6.308  0.4803 -0.2832  0.0703
  166SAPS   H4X18770   3.307   0.450   6.333  0.9007  0.1731  2.9819
  166SAPS   H4Y18771   3.455   0.548   6.316  0.4937  1.7576  2.1659
  166SAPS   C3518772   3.281   0.606   6.184 -0.1471 -0.0618  0.2655
  166SAPS   H5X18773   3.319   0.710   6.173 -1.0882  0.5412  2.1126
  166SAPS   H5Y18774   3.172   0.618   6.202 -0.0289 -0.7711  1.6093
  166SAPS   C3618775   3.315   0.534   6.051 -0.1975  0.2283  0.2917
  166SAPS   H6X18776   3.274   0.431   6.063 -0.8998  0.7648  3.1956
  166SAPS   H6Y18777   3.423   0.517   6.036 -0.3074 -0.3003  0.0840
  166SAPS   C3718778   3.268   0.603   5.925 -0.0776  0.0907 -0.4191
  166SAPS   H7X18779   3.326   0.696   5.905  0.2479 -0.6444 -3.3340
  166SAPS   H7Y18780   3.162   0.631   5.940 -0.6416 -1.7696 -0.6948
  166SAPS   C3818781   3.267   0.515   5.812  0.2505 -0.0186  0.1572
  166SAPS   H8X18782   3.198   0.431   5.834  1.0940 -0.9225 -0.5758
  166SAPS   H8Y18783   3.367   0.476   5.785  0.2875  0.3760 -0.2862
  166SAPS   C3918784   3.218   0.587   5.689  0.1799  0.4567  0.1435
  166SAPS   H9X18785   3.272   0.681   5.666 -3.6281  2.5432 -1.2219
  166SAPS   H9Y18786   3.113   0.619   5.703  0.1206 -0.3019  1.6084
  166SAPS  C31018787   3.205   0.486   5.572  0.1409 -0.5485 -0.7279
  166SAPS  H10X18788   3.145   0.397   5.601  0.7021 -0.4679  0.7431
  166SAPS  H10Y18789   3.306   0.450   5.542  1.3252  1.7196  0.3009
  166SAPS  C31118790   3.143   0.551   5.447 -0.4620 -0.1433  0.1555
  166SAPS  H11X18791   3.045   0.599   5.470 -0.2253  0.7901 -0.7084
  166SAPS  H11Y18792   3.123   0.483   5.362 -0.2707 -0.8796  0.6867
  166SAPS  C31218793   3.229   0.660   5.383 -0.5686 -0.3520 -0.5225
  166SAPS  H12X18794   3.325   0.623   5.341  0.0984  1.0848 -0.3017
  166SAPS  H12Y18795   3.273   0.715   5.469 -0.3651 -0.6086 -0.4590
  166SAPS  C31318796   3.154   0.759   5.295  0.5112 -0.4092  0.2132
  166SAPS  H13X18797   3.231   0.835   5.266 -2.3288  1.7880 -2.1284
  166SAPS  H13Y18798   3.059   0.800   5.335  0.8476 -1.5017  2.3056
  166SAPS  C31418799   3.098   0.701   5.167 -0.4443  0.5479  0.7999
  166SAPS  H14X18800   3.061   0.780   5.098 -3.0132  0.5459  2.0902
  166SAPS  H14Y18801   3.004   0.643   5.177 -1.0723  0.8338 -2.3911
  166SAPS  C31518802   3.197   0.612   5.100  0.2003  0.0375 -0.0401
  166SAPS  H15X18803   3.233   0.530   5.165  4.3638  2.0085  0.4456
  166SAPS  H15Y18804   3.288   0.670   5.075  1.0563 -2.0304 -2.0866
  166SAPS  C31618805   3.150   0.544   4.976  0.4364  0.4192 -0.4457
  166SAPS  H16X18806   3.110   0.612   4.898 -0.0403  0.3153 -0.2987
  166SAPS  H16Y18807   3.070   0.473   5.008  2.2581 -1.4042  0.2841
  166SAPS  C31718808   3.261   0.463   4.905 -0.4072 -0.2733 -0.6256
  166SAPS  H17X18809   3.299   0.387   4.977  0.5081  0.5504 -0.2136
  166SAPS  H17Y18810   3.350   0.528   4.891 -0.0354 -0.7168 -0.3764
  166SAPS  C31818811   3.211   0.397   4.783  0.0799  0.0147 -0.1711
  166SAPS  H18X18812   3.162   0.303   4.817  2.7671 -1.2408  0.5719
  166SAPS  H18Y18813   3.296   0.374   4.715  2.0114  3.2942  0.9075
  166SAPS  H18Z18814   3.136   0.459   4.730 -1.8565 -1.1564  1.0728
  167SAPS     N18815   5.788   3.842   7.369  0.1163  0.6725 -0.0128
  167SAPS   HN118816   5.797   3.744   7.337 -0.3134  1.3957 -2.6001
  167SAPS   HN218817   5.887   3.872   7.363  0.9548 -1.8806  0.0713
  167SAPS   HN318818   5.756   3.846   7.468 -1.0655 -1.5173 -0.2594
  167SAPS   C1218819   5.702   3.917   7.276  0.9958 -0.3776  0.6792
  167SAPS  H12A18820   5.639   3.840   7.234  2.2058 -0.4912 -1.0493
  167SAPS   C1318821   5.607   4.027   7.336 -0.0930 -0.2434  0.2958
  167SAPS  O13A18822   5.571   4.018   7.457 -0.2796 -0.3082 -0.3664
  167SAPS  O13B18823   5.562   4.121   7.261 -0.0092  0.2872  0.2178
  167SAPS   C1118824   5.784   4.012   7.167 -0.7141 -0.5317  0.5505
  167SAPS  H11A18825   5.828   4.092   7.231  1.5820 -0.7600 -0.6676
  167SAPS  H11B18826   5.726   4.072   7.093  1.9408  0.0802 -1.1585
  167SAPS     P18827   5.853   3.854   6.962 -0.2904  0.0796 -0.3160
  167SAPS   O1318828   5.815   3.938   6.845 -0.1187 -0.2719 -0.0728
  167SAPS   O1418829   5.969   3.768   6.955  0.4664  0.1547 -0.0487
  167SAPS   O1218830   5.887   3.942   7.094 -0.1902  0.3245 -0.5508
  167SAPS   O1118831   5.718   3.775   7.008  0.2312 -0.4179  0.4409
  167SAPS    C118832   5.689   3.639   6.989  0.0431  0.3177  0.5192
  167SAPS    HA18833   5.775   3.575   7.016 -0.1556  0.5270  1.7343
  167SAPS    HB18834   5.616   3.616   7.070  0.4014  0.8200  0.9968
  167SAPS    C218835   5.617   3.618   6.856  0.2626  0.5949  0.3967
  167SAPS    HS18836   5.565   3.521   6.868  1.0561 -0.0663 -1.2710
  167SAPS   O2118837   5.713   3.623   6.749  0.7634  0.9310  0.2085
  167SAPS   C2118838   5.796   3.516   6.736  0.1523  0.2106  0.7216
  167SAPS   O2218839   5.800   3.417   6.805  0.3987  0.2404  0.3930
  167SAPS   C2218840   5.881   3.531   6.609 -0.2639 -0.1621  0.2753
  167SAPS   H2R18841   5.828   3.563   6.518  0.3572  1.9784  0.6038
  167SAPS   H2S18842   5.957   3.612   6.621  1.7588 -1.6141 -1.8883
  167SAPS    C318843   5.502   3.718   6.832 -0.2507  0.0862  0.2190
  167SAPS    HX18844   5.530   3.825   6.845 -0.9123  0.6644 -2.3601
  167SAPS    HY18845   5.430   3.689   6.911 -0.0361 -2.9830 -0.5921
  167SAPS   O3118846   5.439   3.694   6.710 -0.2283  0.3835  0.3047
  167SAPS   C3118847   5.488   3.752   6.602  0.2595  0.8193  0.1474
  167SAPS   O3218848   5.587   3.817   6.587  0.0561  0.3233 -0.2183
  167SAPS   C3218849   5.396   3.715   6.481  0.5470  0.4943  0.1794
  167SAPS   H2X18850   5.333   3.801   6.453 -3.2259 -2.6746 -2.0695
  167SAPS   H2Y18851   5.330   3.630   6.508 -1.8418  3.0525  3.1209
  167SAPS   C2318852   5.946   3.395   6.568 -0.2017 -0.5209 -1.0484
  167SAPS   H3R18853   5.992   3.353   6.660 -0.0730 -0.9990 -1.3206
  167SAPS   H3S18854   6.035   3.416   6.505 -0.7747  0.7330 -1.4631
  167SAPS   C2418855   5.852   3.303   6.492  0.9721 -0.0751 -0.5725
  167SAPS   H4R18856   5.845   3.343   6.389 -0.2574  0.2569 -0.3729
  167SAPS   H4S18857   5.753   3.302   6.544  0.9515  0.6369 -0.5901
  167SAPS   C2518858   5.911   3.164   6.486  0.0715  0.1759 -0.2566
  167SAPS   H5R18859   5.936   3.128   6.587 -1.3729 -1.3444 -0.4075
  167SAPS   C2618860   5.923   3.080   6.375  0.5422 -0.2368 -0.1841
  167SAPS   H6R18861   5.971   2.983   6.394  1.1046  0.1257  0.2995
  167SAPS   C2718862   5.905   3.119   6.227  0.1699 -0.1335  0.1088
  167SAPS   H7R18863   6.000   3.143   6.174 -0.3930  1.8205 -0.0569
  167SAPS   H7S18864   5.840   3.208   6.220  0.7292  0.2579 -0.2610
  167SAPS   C2818865   5.823   3.009   6.156 -0.1449 -0.0288 -0.3279
  167SAPS   H8R18866   5.724   3.001   6.204  0.3963 -2.2532  0.5207
  167SAPS   C2918867   5.843   2.945   6.039  0.2583 -0.2076  0.1635
  167SAPS   H9R18868   5.758   2.888   5.999  1.8667 -0.3853 -3.3960
  167SAPS  C21018869   5.962   2.960   5.944  0.2523 -0.2722  0.2094
  167SAPS  H10R18870   5.966   3.063   5.902  2.5511 -0.7505 -0.8916
  167SAPS  H10S18871   5.937   2.890   5.862 -0.6011 -1.4747  1.4503
  167SAPS  C21118872   6.099   2.911   5.989 -0.2327 -0.4816 -0.8567
  167SAPS  H11R18873   6.123   2.934   6.094  1.5290 -2.4022 -0.7930
  167SAPS  C21218874   6.189   2.856   5.906 -0.3471  0.3040  0.8869
  167SAPS  H12R18875   6.285   2.824   5.948 -0.7848 -2.3901  0.0044
  167SAPS  C21318876   6.161   2.861   5.759 -0.3964  0.6236  0.5903
  167SAPS  H13R18877   6.102   2.949   5.723  0.8995  1.0165 -0.6775
  167SAPS  H13S18878   6.095   2.781   5.718 -0.3025  1.8496 -2.2407
  167SAPS  C21418879   6.284   2.865   5.675  0.0670  0.2366 -0.9185
  167SAPS  H14R18880   6.356   2.945   5.698 -0.2245 -0.0674  1.1621
  167SAPS  C21518881   6.320   2.781   5.577 -0.3617  0.0503  1.0802
  167SAPS  H15R18882   6.422   2.798   5.540 -1.2319  3.1920 -0.1965
  167SAPS  C21618883   6.253   2.655   5.520 -0.2313  0.3136  0.0334
  167SAPS  H16R18884   6.268   2.655   5.410  0.2951  2.2476  0.0824
  167SAPS  H16S18885   6.144   2.652   5.544 -0.1078  1.3490  0.7843
  167SAPS  C21718886   6.312   2.516   5.563  0.8588 -0.0858  0.7974
  167SAPS  H17R18887   6.413   2.501   5.520  1.1678  2.1136  0.6570
  167SAPS  H17S18888   6.242   2.447   5.511  0.6200  1.3848 -0.9108
  167SAPS  C21818889   6.332   2.503   5.712  0.5792 -0.2977 -0.5571
  167SAPS  H18R18890   6.231   2.507   5.759  0.4442  0.7390 -0.9145
  167SAPS  H18S18891   6.383   2.589   5.760  0.5788 -0.6918  0.1681
  167SAPS  C21918892   6.384   2.366   5.758  0.1937 -0.6265 -0.1280
  167SAPS  H19R18893   6.495   2.359   5.752  0.3811  1.3749  0.2037
  167SAPS  H19S18894   6.341   2.291   5.688 -0.3134 -0.4707  0.0161
  167SAPS  C22018895   6.334   2.336   5.902 -0.1025 -0.4780 -0.2396
  167SAPS  H20R18896   6.224   2.317   5.902 -0.3036  0.2051  2.9251
  167SAPS  H20S18897   6.358   2.415   5.975  1.0205 -0.5070 -0.5622
  167SAPS  H20T18898   6.383   2.244   5.940  0.5275 -1.3346 -2.9066
  167SAPS   C3318899   5.489   3.676   6.362 -0.5599 -0.5338  0.0811
  167SAPS   H3X18900   5.567   3.750   6.333 -0.2078 -0.7159  0.5448
  167SAPS   H3Y18901   5.421   3.674   6.274 -2.6580  2.0164  1.4814
  167SAPS   C3418902   5.558   3.537   6.381  0.8162 -0.1940  0.7393
  167SAPS   H4X18903   5.479   3.460   6.394 -1.7281  1.9116 -1.2163
  167SAPS   H4Y18904   5.624   3.536   6.471 -1.0014  0.1067  2.1425
  167SAPS   C3518905   5.648   3.493   6.267 -0.2686  0.1737  0.5934
  167SAPS   H5X18906   5.660   3.387   6.298  0.1175 -0.2207 -0.8099
  167SAPS   H5Y18907   5.748   3.541   6.261 -0.1700 -0.0197  0.6511
  167SAPS   C3618908   5.578   3.499   6.129 -0.0591 -0.6389 -0.6308
  167SAPS   H6X18909   5.553   3.605   6.111  0.9607  0.0483  1.6586
  167SAPS   H6Y18910   5.483   3.440   6.133  1.0955 -2.5811 -0.3821
  167SAPS   C3718911   5.663   3.438   6.029 -0.4213  0.1677  0.2081
  167SAPS   H7X18912   5.658   3.329   6.050 -1.3933  0.2812  0.6126
  167SAPS   H7Y18913   5.770   3.467   6.040 -0.8834  1.2340  2.5048
  167SAPS   C3818914   5.618   3.466   5.889  0.1542 -0.4541  0.1991
  167SAPS   H8X18915   5.637   3.572   5.862 -1.0831  0.0937  1.3891
  167SAPS   H8Y18916   5.509   3.448   5.888  0.3509 -1.7129 -0.0450
  167SAPS   C3918917   5.682   3.374   5.776 -0.2996 -0.1460 -0.9506
  167SAPS   H9X18918   5.664   3.272   5.816  0.5391 -0.3091 -0.9597
  167SAPS   H9Y18919   5.789   3.405   5.766  0.5574 -2.8117 -0.9423
  167SAPS  C31018920   5.620   3.388   5.634  0.4429 -0.1831  0.1938
  167SAPS  H10X18921   5.513   3.364   5.651  0.3167 -1.0693 -1.6655
  167SAPS  H10Y18922   5.680   3.318   5.571 -1.6413  0.7234 -3.0176
  167SAPS  C31118923   5.650   3.532   5.587  0.5027 -0.5412  0.1066
  167SAPS  H11X18924   5.757   3.562   5.585  0.5710 -0.7730 -2.6558
  167SAPS  H11Y18925   5.606   3.596   5.667 -1.3954 -1.5828 -0.0465
  167SAPS  C31218926   5.593   3.566   5.450 -0.2866 -0.1290  1.0078
  167SAPS  H12X18927   5.634   3.500   5.371 -1.8540  1.2539 -1.0534
  167SAPS  H12Y18928   5.605   3.671   5.417  3.0356  0.2089  2.8165
  167SAPS  C31318929   5.445   3.543   5.440 -0.1303  0.4789  0.5519
  167SAPS  H13X18930   5.424   3.439   5.472 -0.1622  0.0635 -0.7655
  167SAPS  H13Y18931   5.411   3.536   5.335 -1.4837 -1.0354  1.0544
  167SAPS  C31418932   5.352   3.640   5.518 -0.5256 -0.5809  0.8279
  167SAPS  H14X18933   5.254   3.644   5.467  0.3187 -0.0581 -0.8363
  167SAPS  H14Y18934   5.379   3.747   5.502  0.5330 -0.5729  2.4349
  167SAPS  C31518935   5.320   3.596   5.663 -0.1771 -0.1700 -0.2050
  167SAPS  H15X18936   5.411   3.584   5.726  0.9689 -1.5022 -1.9743
  167SAPS  H15Y18937   5.277   3.494   5.656  1.7169 -1.0631  0.5261
  167SAPS  C31618938   5.225   3.697   5.734 -0.0164  0.7424  0.5102
  167SAPS  H16X18939   5.136   3.690   5.667  2.6688  0.1124 -3.3776
  167SAPS  H16Y18940   5.270   3.798   5.727 -1.4051  1.3887  0.6628
  167SAPS  C31718941   5.188   3.648   5.876 -0.3832  0.5098  0.2383
  167SAPS  H17X18942   5.278   3.594   5.912  0.7254  1.2084 -1.3573
  167SAPS  H17Y18943   5.115   3.565   5.867 -0.3236  0.1670  2.4309
  167SAPS  C31818944   5.129   3.752   5.969  0.0610 -0.1129  0.5374
  167SAPS  H18X18945   5.102   3.719   6.072 -2.4192  1.9036  0.6335
  167SAPS  H18Y18946   5.037   3.800   5.930  0.4084  1.7476  1.8588
  167SAPS  H18Z18947   5.208   3.828   5.980  2.1137 -2.1068  0.3615
  168SAPS     N18948   1.845   2.147   6.970  0.0360 -0.4648  0.2720
  168SAPS   HN118949   1.881   2.216   6.901 -2.8413 -0.2189 -1.1689
  168SAPS   HN218950   1.906   2.063   6.967  2.1363  0.9754 -2.1989
  168SAPS   HN318951   1.751   2.106   6.948 -0.1053 -1.0069  1.8224
  168SAPS   C1218952   1.838   2.188   7.115  0.4888 -0.3223  0.4302
  168SAPS  H12A18953   1.756   2.259   7.116 -0.1842 -1.0810  1.4184
  168SAPS   C1318954   1.791   2.073   7.206 -0.5315  0.4291  0.7791
  168SAPS  O13A18955   1.779   1.957   7.157 -0.1533  0.8038 -0.2979
  168SAPS  O13B18956   1.770   2.108   7.326  0.2494  0.8889  0.5881
  168SAPS   C1118957   1.966   2.246   7.164 -0.0123 -0.6940  0.0046
  168SAPS  H11A18958   2.041   2.167   7.185  0.7050 -0.3076 -0.9785
  168SAPS  H11B18959   1.949   2.284   7.267 -1.0430 -1.3515  0.0887
  168SAPS     P18960   2.090   2.461   7.131 -0.5733 -0.0368  0.2344
  168SAPS   O1318961   1.986   2.552   7.186  0.3638 -0.8212 -0.5453
  168SAPS   O1418962   2.199   2.417   7.221 -0.6542 -0.3173  0.3756
  168SAPS   O1218963   2.021   2.336   7.074 -0.6795  0.0617  0.1249
  168SAPS   O1118964   2.169   2.527   7.006  0.3799 -0.3392  0.3726
  168SAPS    C118965   2.090   2.614   6.924 -0.4057 -0.2195  0.0722
  168SAPS    HA18966   2.023   2.682   6.982 -1.5824 -2.7083  1.7869
  168SAPS    HB18967   2.170   2.676   6.878  2.0609 -2.8628  0.5203
  168SAPS    C218968   2.005   2.545   6.817  0.3903  0.5134  0.5880
  168SAPS    HS18969   1.925   2.491   6.871 -0.6555 -0.7380 -2.0593
  168SAPS   O2118970   2.101   2.463   6.740 -0.3122  0.2628  0.1146
  168SAPS   C2118971   2.075   2.335   6.723  0.0797 -0.5306 -0.2020
  168SAPS   O2218972   1.969   2.286   6.765 -0.0851  0.1236  0.3889
  168SAPS   C2218973   2.194   2.261   6.658  0.5171  0.1170 -0.3217
  168SAPS   H2R18974   2.240   2.314   6.572  0.7287  2.1508  0.9800
  168SAPS   H2S18975   2.265   2.247   6.743 -0.8482 -1.3185  0.6350
  168SAPS    C318976   1.935   2.641   6.716 -0.2394  0.2437  0.0498
  168SAPS    HX18977   2.019   2.703   6.678 -0.1011  0.0489  0.0334
  168SAPS    HY18978   1.853   2.701   6.761 -2.2495 -2.8227  0.8360
  168SAPS   O3118979   1.875   2.568   6.602 -0.0050 -0.2495  1.0140
  168SAPS   C3118980   1.755   2.510   6.620 -1.0659 -1.2605 -0.0354
  168SAPS   O3218981   1.676   2.524   6.713 -0.5326  0.5742 -0.5828
  168SAPS   C3218982   1.732   2.422   6.494  0.4367  0.3649 -0.0770
  168SAPS   H2X18983   1.832   2.422   6.447  0.0594  3.2296 -1.0601
  168SAPS   H2Y18984   1.650   2.465   6.432  0.6724 -0.7012 -1.1677
  168SAPS   C2318985   2.151   2.120   6.606  0.3430  0.2895  0.0058
  168SAPS   H3R18986   2.096   2.069   6.687 -3.1799  0.4249 -2.1028
  168SAPS   H3S18987   2.244   2.061   6.588 -0.3410 -0.5249 -0.9835
  168SAPS   C2418988   2.065   2.109   6.481 -0.0093  0.3286  1.1576
  168SAPS   H4R18989   2.110   2.152   6.389 -2.8821 -2.6442 -1.9444
  168SAPS   H4S18990   1.965   2.156   6.494 -0.3896  0.8611 -2.6043
  168SAPS   C2518991   2.030   1.964   6.456 -0.3963 -0.2200 -0.5985
  168SAPS   H5R18992   1.971   1.928   6.541 -1.0221  2.6725  0.3266
  168SAPS   C2618993   2.035   1.897   6.341  0.2530  0.5192 -0.6511
  168SAPS   H6R18994   1.989   1.797   6.337  1.6358 -0.1064 -2.2770
  168SAPS   C2718995   2.093   1.951   6.211 -0.6630  0.2598  0.2200
  168SAPS   H7R18996   2.138   1.867   6.155 -1.0974  0.3938 -0.3350
  168SAPS   H7S18997   2.175   2.023   6.231 -1.4425  1.1206  0.4152
  168SAPS   C2818998   1.984   2.018   6.140 -0.8819 -0.2176  0.4010
  168SAPS   H8R18999   1.977   2.125   6.166  0.9313 -0.3572  1.6648
  168SAPS   C2919000   1.905   1.984   6.038  0.5946  1.1358 -0.3443
  168SAPS   H9R19001   1.829   2.054   5.999  0.3640  0.2631 -1.5233
  168SAPS  C21019002   1.907   1.849   5.965  0.0219  0.1442 -0.1126
  168SAPS  H10R19003   1.802   1.817   5.948  0.1607 -0.3589 -0.0221
  168SAPS  H10S19004   1.952   1.765   6.023 -1.2515  1.0601  2.3532
  168SAPS  C21119005   1.977   1.866   5.837 -0.6668  0.3153 -0.1739
  168SAPS  H11R19006   2.086   1.859   5.850 -0.9169 -0.1097  2.1109
  168SAPS  C21219007   1.923   1.894   5.718  0.3550 -0.6026 -0.4068
  168SAPS  H12R19008   1.996   1.916   5.639  2.2955 -0.6948  1.2575
  168SAPS  C21319009   1.777   1.904   5.680 -1.1921 -0.0061  0.0392
  168SAPS  H13R19010   1.746   2.009   5.665  0.2624  0.3846 -0.3554
  168SAPS  H13S19011   1.709   1.876   5.763 -0.7600  1.1126  0.7863
  168SAPS  C21419012   1.745   1.829   5.556  0.0660 -0.3431  0.0387
  168SAPS  H14R19013   1.695   1.732   5.567 -1.4096  0.6361  3.1193
  168SAPS  C21519014   1.786   1.878   5.434  0.0280 -0.2547 -0.3515
  168SAPS  H15R19015   1.746   1.832   5.343  0.0437  1.7750 -1.4407
  168SAPS  C21619016   1.843   2.016   5.415  0.3192  0.1823  0.6592
  168SAPS  H16R19017   1.857   2.063   5.515  0.3330 -1.0456  1.2601
  168SAPS  H16S19018   1.764   2.071   5.360 -0.8203 -0.6680  1.3969
  168SAPS  C21719019   1.981   2.003   5.348 -0.0488  0.3757  0.1590
  168SAPS  H17R19020   1.984   1.920   5.274  0.3373  0.3815  0.1697
  168SAPS  H17S19021   2.042   1.970   5.434 -1.1825 -0.3070  0.7229
  168SAPS  C21819022   2.031   2.126   5.286  0.3587  0.0377  0.2295
  168SAPS  H18R19023   2.002   2.199   5.365  0.6721  0.9085 -0.4411
  168SAPS  H18S19024   1.993   2.150   5.185  2.9673 -2.0709 -1.3919
  168SAPS  C21919025   2.189   2.120   5.281  0.1871  0.0736  0.2270
  168SAPS  H19R19026   2.224   2.095   5.384  1.7877  1.5429  0.0818
  168SAPS  H19S19027   2.228   2.220   5.253  1.5668  0.4485  3.0857
  168SAPS  C22019028   2.239   2.008   5.189  0.6638  0.0810  0.2694
  168SAPS  H20R19029   2.349   2.022   5.186  0.6225  0.2878 -1.6278
  168SAPS  H20S19030   2.185   2.028   5.094  0.3684  2.7980  0.9275
  168SAPS  H20T19031   2.217   1.912   5.242 -1.4873 -0.2598 -1.0899
  168SAPS   C3319032   1.687   2.276   6.531  0.2997  0.6200  0.5781
  168SAPS   H3X19033   1.586   2.268   6.577  1.0056 -1.0775  1.9434
  168SAPS   H3Y19034   1.760   2.240   6.606 -0.1967 -0.9286  0.3468
  168SAPS   C3419035   1.701   2.186   6.408  0.3080 -0.6079  0.3230
  168SAPS   H4X19036   1.688   2.086   6.456 -1.4584  0.8213  3.0906
  168SAPS   H4Y19037   1.806   2.184   6.373  1.1683  1.3184  2.5747
  168SAPS   C3519038   1.584   2.203   6.302 -0.3203  0.0308 -0.7597
  168SAPS   H5X19039   1.559   2.310   6.288 -2.8626 -0.2496  1.0381
  168SAPS   H5Y19040   1.486   2.154   6.321 -0.4862  0.2482 -1.0534
  168SAPS   C3619041   1.623   2.152   6.170 -1.1148  0.4272 -0.1724
  168SAPS   H6X19042   1.624   2.041   6.164 -2.2160  0.3753  0.3370
  168SAPS   H6Y19043   1.723   2.188   6.139 -0.6007 -0.8816 -0.0975
  168SAPS   C3719044   1.523   2.201   6.056 -0.2732 -0.4866 -0.7887
  168SAPS   H7X19045   1.535   2.311   6.051 -1.3499 -0.3357 -0.2543
  168SAPS   H7Y19046   1.422   2.175   6.095 -0.4977 -0.2400 -1.1961
  168SAPS   C3819047   1.554   2.122   5.928 -0.1459 -0.1455  0.0899
  168SAPS   H8X19048   1.551   2.012   5.942 -0.8417 -0.1955 -0.4276
  168SAPS   H8Y19049   1.659   2.136   5.894 -0.0709 -1.3453 -0.2314
  168SAPS   C3919050   1.462   2.182   5.823  0.1637 -0.1837 -0.3005
  168SAPS   H9X19051   1.487   2.288   5.802 -0.2637  0.0442  0.2860
  168SAPS   H9Y19052   1.359   2.185   5.866  0.4486  0.6144  0.3473
  168SAPS  C31019053   1.463   2.100   5.691  0.4486 -0.0619 -0.0614
  168SAPS  H10X19054   1.440   1.993   5.708  1.9552 -0.5264 -0.6869
  168SAPS  H10Y19055   1.562   2.104   5.639 -0.2348 -0.9628 -1.4891
  168SAPS  C31119056   1.363   2.160   5.582  0.0610 -0.2598 -0.2641
  168SAPS  H11X19057   1.392   2.267   5.573 -0.5335 -0.1773 -1.2407
  168SAPS  H11Y19058   1.254   2.153   5.603  0.3844 -2.5857  1.0232
  168SAPS  C31219059   1.382   2.081   5.451  0.3100 -0.5118 -0.1764
  168SAPS  H12X19060   1.318   1.989   5.447 -1.9624  0.8297  2.2303
  168SAPS  H12Y19061   1.487   2.048   5.436  0.6242  1.2651 -2.5189
  168SAPS  C31319062   1.356   2.148   5.314  0.0530 -0.2505  0.1836
  168SAPS  H13X19063   1.281   2.230   5.316 -1.2907 -1.4004 -0.7706
  168SAPS  H13Y19064   1.313   2.073   5.244  0.2429 -0.8581  0.7064
  168SAPS  C31419065   1.477   2.203   5.244  0.2635 -0.0025 -0.7143
  168SAPS  H14X19066   1.448   2.244   5.145 -0.8755 -0.8618 -0.7568
  168SAPS  H14Y19067   1.541   2.117   5.217 -1.7896 -0.9772 -2.8063
  168SAPS  C31519068   1.562   2.306   5.328  1.0705  0.3187  0.5466
  168SAPS  H15X19069   1.575   2.262   5.430 -1.0074  0.3302  0.8458
  168SAPS  H15Y19070   1.497   2.394   5.342  0.2481 -0.3977  1.3629
  168SAPS  C31619071   1.703   2.346   5.269 -0.5401  0.3231  0.2742
  168SAPS  H16X19072   1.690   2.392   5.168  1.2338 -0.5739 -0.4137
  168SAPS  H16Y19073   1.763   2.255   5.250  0.1630  0.6068  1.0732
  168SAPS  C31719074   1.761   2.446   5.363 -0.0739  0.1891  0.2595
  168SAPS  H17X19075   1.777   2.395   5.460 -1.4651 -2.4580 -0.7857
  168SAPS  H17Y19076   1.694   2.532   5.379 -0.6295 -0.1701 -0.1015
  168SAPS  C31819077   1.891   2.488   5.301 -0.7494 -0.6656  0.4624
  168SAPS  H18X19078   1.936   2.581   5.345  2.0738 -1.6285 -0.1570
  168SAPS  H18Y19079   1.874   2.512   5.194  0.2214  0.0898  0.4582
  168SAPS  H18Z19080   1.965   2.409   5.323 -1.0638 -0.6843  1.5042
  169SAPS     N19081   5.398   5.282   6.448 -0.1953 -0.0170  0.1098
  169SAPS   HN119082   5.492   5.315   6.416 -0.7942 -0.1079 -1.9080
  169SAPS   HN219083   5.373   5.198   6.393 -1.6618 -0.1532  0.9535
  169SAPS   HN319084   5.341   5.367   6.434  1.2239  0.7561 -1.4898
  169SAPS   C1219085   5.391   5.240   6.587  0.2293  0.1649 -0.0488
  169SAPS  H12A19086   5.447   5.148   6.593  0.8022  0.4899 -0.3005
  169SAPS   C1319087   5.450   5.328   6.699  0.2624  0.1128  0.2363
  169SAPS  O13A19088   5.523   5.425   6.660 -0.2284  0.3590 -0.2989
  169SAPS  O13B19089   5.461   5.278   6.819  0.0354 -0.6986  0.0381
  169SAPS   C1119090   5.234   5.200   6.612 -0.4340 -0.1494  0.0484
  169SAPS  H11A19091   5.189   5.300   6.592  1.2818  1.0712  1.8187
  169SAPS  H11B19092   5.220   5.171   6.718 -0.4878 -2.1261 -0.4745
  169SAPS     P19093   5.035   5.046   6.523 -0.2673 -0.2840  0.1910
  169SAPS   O1319094   5.021   4.950   6.633 -0.0803 -0.3150 -0.2572
  169SAPS   O1419095   4.960   5.172   6.533  0.3556  0.0362 -0.3719
  169SAPS   O1219096   5.189   5.095   6.523 -0.1077  0.3814  0.1357
  169SAPS   O1119097   5.020   4.973   6.392 -0.1787 -0.0649 -0.3850
  169SAPS    C119098   5.130   4.922   6.323 -0.7241 -0.1439 -0.1566
  169SAPS    HA19099   5.104   4.891   6.219  0.4709 -1.1540 -0.1708
  169SAPS    HB19100   5.204   5.005   6.319 -1.4702  0.7415  2.5871
  169SAPS    C219101   5.186   4.794   6.382 -0.5878 -0.5852  0.0739
  169SAPS    HS19102   5.231   4.814   6.482  3.2525  1.3260 -1.8192
  169SAPS   O2119103   5.298   4.757   6.296 -0.3815 -0.3039  0.1520
  169SAPS   C2119104   5.368   4.652   6.338  0.3547  1.0302  0.3241
  169SAPS   O2219105   5.368   4.599   6.448  0.0627 -0.2244 -0.0749
  169SAPS   C2219106   5.420   4.583   6.212 -0.3635  0.5135  0.5787
  169SAPS   H2R19107   5.523   4.623   6.199  0.4529 -1.9714 -1.4314
  169SAPS   H2S19108   5.433   4.475   6.234 -0.8182  0.5076  0.8459
  169SAPS    C319109   5.078   4.689   6.410  0.6150 -0.2398  0.3033
  169SAPS    HX19110   5.022   4.727   6.497 -0.1435 -0.8102  0.0814
  169SAPS    HY19111   5.121   4.599   6.459 -1.8344 -0.3606  2.3983
  169SAPS   O3119112   4.997   4.661   6.296 -0.2423  0.2269 -0.3882
  169SAPS   C3119113   4.936   4.538   6.287  0.1584 -0.3556  0.4324
  169SAPS   O3219114   4.942   4.453   6.371 -0.3685 -0.8008  0.2034
  169SAPS   C3219115   4.852   4.528   6.164  0.3056  0.6689 -0.0474
  169SAPS   H2X19116   4.903   4.555   6.070 -0.7882 -0.6515 -1.0526
  169SAPS   H2Y19117   4.781   4.613   6.175  0.9256  1.2906 -0.7361
  169SAPS   C2319118   5.342   4.601   6.089  0.4128  0.4540  0.3761
  169SAPS   H3R19119   5.320   4.708   6.069  1.3253  0.6044  0.1323
  169SAPS   H3S19120   5.245   4.548   6.087  1.1271 -0.8776  0.0470
  169SAPS   C2419121   5.423   4.553   5.962  0.2900 -0.5350 -0.1478
  169SAPS   H4R19122   5.351   4.538   5.878  2.3803 -1.2591 -1.9147
  169SAPS   H4S19123   5.462   4.454   5.992 -0.0312 -0.6588 -0.1354
  169SAPS   C2519124   5.541   4.650   5.926  1.2086  0.4584  0.3581
  169SAPS   H5R19125   5.615   4.668   6.005 -0.7533  0.7352  2.2590
  169SAPS   C2619126   5.554   4.709   5.809  0.5082 -0.1609  0.5699
  169SAPS   H6R19127   5.640   4.776   5.798  0.1623  0.0692 -0.9996
  169SAPS   C2719128   5.459   4.721   5.687 -0.5391 -0.6866 -0.5741
  169SAPS   H7R19129   5.438   4.823   5.648  0.3885 -0.3794 -0.3025
  169SAPS   H7S19130   5.361   4.683   5.722 -0.4104 -0.1347  0.4220
  169SAPS   C2819131   5.498   4.642   5.568 -0.8474 -0.4148 -0.6266
  169SAPS   H8R19132   5.505   4.533   5.586  0.0683 -0.4355 -1.0192
  169SAPS   C2919133   5.530   4.682   5.442 -0.3265 -0.6541 -0.1857
  169SAPS   H9R19134   5.545   4.602   5.368  1.5743 -1.1927  0.7053
  169SAPS  C21019135   5.532   4.820   5.379 -0.0840 -0.1584 -0.7276
  169SAPS  H10R19136   5.625   4.842   5.322  0.7358  0.7867  0.9000
  169SAPS  H10S19137   5.514   4.904   5.450  0.4247  0.4925 -1.3482
  169SAPS  C21119138   5.418   4.843   5.275  0.4609  0.3193  0.2461
  169SAPS  H11R19139   5.328   4.782   5.292  0.1014  0.8058  0.1381
  169SAPS  C21219140   5.422   4.922   5.165  0.7152  0.2077 -0.2358
  169SAPS  H12R19141   5.333   4.917   5.100  0.8467 -0.0784 -0.3981
  169SAPS  C21319142   5.528   5.013   5.112 -0.1734 -0.3289  0.3053
  169SAPS  H13R19143   5.495   5.074   5.026  2.5212  0.5215 -0.2366
  169SAPS  H13S19144   5.603   4.948   5.062  0.5628  1.6772 -1.3148
  169SAPS  C21419145   5.593   5.104   5.214  0.3433 -0.0914  0.0014
  169SAPS  H14R19146   5.599   5.061   5.315 -0.6297 -3.1650 -1.1130
  169SAPS  C21519147   5.622   5.233   5.188 -0.9793 -0.0229 -0.2727
  169SAPS  H15R19148   5.675   5.290   5.265 -1.7630  0.1738  0.1310
  169SAPS  C21619149   5.601   5.304   5.059 -0.2425  0.0292 -0.2457
  169SAPS  H16R19150   5.580   5.411   5.084 -2.1343 -0.2497 -0.4672
  169SAPS  H16S19151   5.507   5.274   5.007  0.3148  0.4225 -1.5134
  169SAPS  C21719152   5.726   5.306   4.976  0.4979  0.5248  0.5828
  169SAPS  H17R19153   5.739   5.199   4.947 -0.3056  0.3494  0.8499
  169SAPS  H17S19154   5.822   5.340   5.020  1.4708  1.3196 -1.9353
  169SAPS  C21819155   5.692   5.379   4.852 -0.1736 -0.0144  0.4004
  169SAPS  H18R19156   5.742   5.478   4.853  0.2522 -0.1798  3.0321
  169SAPS  H18S19157   5.583   5.400   4.854 -0.1176  0.4720 -0.9211
  169SAPS  C21919158   5.736   5.307   4.725  0.4417  0.2872 -0.2706
  169SAPS  H19R19159   5.664   5.222   4.726  0.3624  0.3524  0.9320
  169SAPS  H19S19160   5.840   5.271   4.739 -0.0698 -0.8903  0.6546
  169SAPS  C22019161   5.718   5.391   4.598 -0.6716 -0.2093 -0.2579
  169SAPS  H20R19162   5.778   5.484   4.600  0.2037 -0.7770  1.3959
  169SAPS  H20S19163   5.611   5.418   4.597 -0.8251 -0.6117  1.9612
  169SAPS  H20T19164   5.751   5.341   4.503 -1.1626  0.5827 -0.8554
  169SAPS   C3319165   4.779   4.390   6.157  0.1419  0.2251 -0.6575
  169SAPS   H3X19166   4.728   4.377   6.254  2.3934  1.2005  0.7497
  169SAPS   H3Y19167   4.859   4.313   6.160 -0.4378 -0.3571  0.3488
  169SAPS   C3419168   4.686   4.374   6.042  0.0224 -0.2456 -0.0312
  169SAPS   H4X19169   4.733   4.406   5.946 -1.4768  1.9413 -0.1021
  169SAPS   H4Y19170   4.613   4.451   6.073  1.4275  0.0240  2.9856
  169SAPS   C3519171   4.639   4.229   6.023  0.2748 -0.5531 -0.1996
  169SAPS   H5X19172   4.568   4.219   6.109 -1.3255 -1.2381 -1.5389
  169SAPS   H5Y19173   4.711   4.146   6.044 -1.3490 -2.1394 -0.6204
  169SAPS   C3619174   4.565   4.211   5.891  0.7372  0.1138 -0.0180
  169SAPS   H6X19175   4.514   4.307   5.870  0.4227 -0.0422  0.0261
  169SAPS   H6Y19176   4.487   4.133   5.905 -1.1497  1.7177 -1.0729
  169SAPS   C3719177   4.654   4.164   5.771  0.0237 -0.2508  0.0068
  169SAPS   H7X19178   4.680   4.060   5.798  0.2657 -0.0926  0.3980
  169SAPS   H7Y19179   4.746   4.226   5.778 -0.7211  0.8592  0.4241
  169SAPS   C3819180   4.590   4.175   5.627 -0.9422 -0.0921 -0.0153
  169SAPS   H8X19181   4.511   4.101   5.605 -0.1352 -0.9436 -0.0786
  169SAPS   H8Y19182   4.676   4.152   5.560 -1.2321  2.0094 -1.2010
  169SAPS   C3919183   4.534   4.315   5.592 -0.2277 -0.4274 -0.3398
  169SAPS   H9X19184   4.605   4.383   5.644 -0.3229 -0.4453 -0.1839
  169SAPS   H9Y19185   4.430   4.322   5.631 -0.4080 -0.4119 -0.8118
  169SAPS  C31019186   4.523   4.344   5.441 -0.3628 -0.3578 -1.1768
  169SAPS  H10X19187   4.459   4.433   5.429  1.4115  1.0624 -0.4840
  169SAPS  H10Y19188   4.474   4.255   5.395  1.1830 -1.7977 -0.1840
  169SAPS  C31119189   4.655   4.392   5.370 -0.0477  0.5192 -0.4265
  169SAPS  H11X19190   4.722   4.307   5.395  0.9974  1.4694  0.0584
  169SAPS  H11Y19191   4.693   4.487   5.414  0.4057 -1.1013  2.9904
  169SAPS  C31219192   4.650   4.391   5.213  0.4322 -0.0635  0.2352
  169SAPS  H12X19193   4.580   4.469   5.176  1.1198  0.6188  0.3497
  169SAPS  H12Y19194   4.607   4.291   5.187 -0.2238  0.2696  0.0209
  169SAPS  C31319195   4.790   4.391   5.157 -0.1547  0.1395 -0.2360
  169SAPS  H13X19196   4.849   4.303   5.189  0.1700  0.8985  1.3376
  169SAPS  H13Y19197   4.845   4.480   5.194  1.3281 -0.7419 -0.2625
  169SAPS  C31419198   4.789   4.374   5.008 -0.2203  0.4777 -0.5260
  169SAPS  H14X19199   4.756   4.269   4.994 -1.7890  0.6292  1.5441
  169SAPS  H14Y19200   4.892   4.384   4.969 -0.8615  2.0966 -1.9338
  169SAPS  C31519201   4.700   4.481   4.938 -0.3555  0.2047 -0.3230
  169SAPS  H15X19202   4.708   4.573   5.000  0.1533 -0.6083  0.8281
  169SAPS  H15Y19203   4.593   4.453   4.947 -0.5537  0.8955 -0.4296
  169SAPS  C31619204   4.737   4.499   4.793 -0.0650  0.6473  0.2541
  169SAPS  H16X19205   4.847   4.510   4.780 -0.2026 -0.0595 -1.8795
  169SAPS  H16Y19206   4.701   4.602   4.772 -1.8920 -0.0201  0.0052
  169SAPS  C31719207   4.678   4.406   4.691 -0.4604  0.4351 -0.0862
  169SAPS  H17X19208   4.568   4.395   4.707 -0.8242  2.3230 -1.0055
  169SAPS  H17Y19209   4.739   4.314   4.701  2.6427  1.9741 -2.8225
  169SAPS  C31819210   4.699   4.463   4.556 -0.5139 -0.1450 -0.2051
  169SAPS  H18X19211   4.639   4.555   4.539  0.3708  0.1928 -1.6700
  169SAPS  H18Y19212   4.687   4.391   4.472  0.9322 -0.0834 -0.4871
  169SAPS  H18Z19213   4.805   4.490   4.540 -0.7118  0.0545 -1.2950
  170SAPS     N19214   6.667   1.853   7.069 -0.0540  0.4298  0.4049
  170SAPS   HN119215   6.650   1.750   7.073 -0.2833  0.2610 -2.4864
  170SAPS   HN219216   6.580   1.886   7.022  0.1172 -0.7129 -0.7673
  170SAPS   HN319217   6.756   1.859   7.016  0.8399  1.0753  1.9282
  170SAPS   C1219218   6.672   1.907   7.204  0.0973 -0.0693 -0.1568
  170SAPS  H12A19219   6.570   1.919   7.236 -0.6996 -3.2241 -1.1217
  170SAPS   C1319220   6.733   1.804   7.300  0.2818 -0.6132  0.5261
  170SAPS  O13A19221   6.726   1.681   7.277  0.3169 -0.3332  0.3799
  170SAPS  O13B19222   6.753   1.842   7.421  0.2301  0.4163  0.1220
  170SAPS   C1119223   6.748   2.041   7.209 -1.0333 -0.9004 -0.0916
  170SAPS  H11A19224   6.857   2.025   7.194 -0.5966  1.0962  0.5768
  170SAPS  H11B19225   6.755   2.082   7.312  2.3481 -2.7032  0.5445
  170SAPS     P19226   6.723   2.298   7.125  0.4373 -0.1356  0.1881
  170SAPS   O1319227   6.593   2.367   7.142  0.2491  0.5889  0.1524
  170SAPS   O1419228   6.834   2.324   7.219  0.2730  0.3010 -0.1779
  170SAPS   O1219229   6.692   2.143   7.121  0.5775  1.2350 -0.2021
  170SAPS   O1119230   6.767   2.329   6.976  0.0273  0.1676  0.4532
  170SAPS    C119231   6.738   2.236   6.866 -0.0702 -0.4439 -0.0297
  170SAPS    HA19232   6.815   2.156   6.857  1.5083  1.1532 -1.2277
  170SAPS    HB19233   6.635   2.195   6.877 -0.4131  0.6780  1.0684
  170SAPS    C219234   6.755   2.301   6.728 -0.1386  0.0743  0.5694
  170SAPS    HS19235   6.760   2.221   6.651  0.9510  1.0309 -0.3913
  170SAPS   O2119236   6.876   2.390   6.709 -0.0666 -0.0513  0.6123
  170SAPS   C2119237   6.997   2.323   6.713  0.1063 -0.7103  0.5159
  170SAPS   O2219238   7.007   2.200   6.705 -0.7014  0.3742 -0.2933
  170SAPS   C2219239   7.112   2.417   6.724 -0.2948 -0.0501  0.4316
  170SAPS   H2R19240   7.089   2.491   6.804  0.2408  0.8228 -0.2054
  170SAPS   H2S19241   7.195   2.356   6.767 -1.2236 -0.2632  2.0068
  170SAPS    C319242   6.627   2.380   6.688  0.1812  0.3348 -0.1194
  170SAPS    HX19243   6.590   2.451   6.765  0.3481  1.0713 -0.7130
  170SAPS    HY19244   6.549   2.301   6.686  0.3399  0.1462  0.5311
  170SAPS   O3119245   6.650   2.443   6.562 -0.8338  0.2568 -0.4351
  170SAPS   C3119246   6.541   2.450   6.492 -0.1040 -0.9600 -0.3130
  170SAPS   O3219247   6.425   2.408   6.522 -0.1086 -0.3324  0.1202
  170SAPS   C3219248   6.577   2.534   6.370 -0.0416 -0.7133 -0.7413
  170SAPS   H2X19249   6.676   2.512   6.325  1.2176  2.1167  0.4122
  170SAPS   H2Y19250   6.569   2.639   6.404  0.6035 -0.9273  0.1146
  170SAPS   C2319251   7.148   2.480   6.589  0.6113  0.5564 -0.0550
  170SAPS   H3R19252   7.056   2.529   6.551  1.2972  2.1370  0.2505
  170SAPS   H3S19253   7.178   2.404   6.514  0.0626  0.6350 -0.3630
  170SAPS   C2419254   7.264   2.580   6.614 -0.4365  1.1392  0.7360
  170SAPS   H4R19255   7.317   2.602   6.519 -1.2679 -2.0169 -0.6026
  170SAPS   H4S19256   7.339   2.522   6.673  1.6101  0.8041 -2.0451
  170SAPS   C2519257   7.224   2.705   6.685  0.1837  0.0527 -0.5659
  170SAPS   H5R19258   7.159   2.678   6.770  0.5683  0.1724 -0.2284
  170SAPS   C2619259   7.244   2.835   6.653  0.1364 -0.0823  0.0554
  170SAPS   H6R19260   7.216   2.909   6.729  0.1532  0.2273 -0.2346
  170SAPS   C2719261   7.311   2.897   6.526 -1.0000  0.0403 -0.4240
  170SAPS   H7R19262   7.229   2.908   6.451  0.1148 -0.3047 -1.7307
  170SAPS   H7S19263   7.368   2.817   6.474  0.3099  1.1494 -0.7359
  170SAPS   C2819264   7.374   3.029   6.547 -0.9016 -0.3551  0.0707
  170SAPS   H8R19265   7.329   3.103   6.614  1.2236  2.2973 -1.2385
  170SAPS   C2919266   7.478   3.071   6.475 -0.1744  0.1024 -0.5848
  170SAPS   H9R19267   7.512   3.173   6.497  1.0786 -0.6927  1.4226
  170SAPS  C21019268   7.550   2.996   6.365 -0.1633  0.2774  0.3137
  170SAPS  H10R19269   7.555   2.889   6.396 -0.1454  0.8465  2.3859
  170SAPS  H10S19270   7.658   3.023   6.366 -0.3599  1.0918  2.0655
  170SAPS  C21119271   7.479   3.014   6.234  0.2736 -0.9094 -0.9215
  170SAPS  H11R19272   7.399   3.090   6.228  0.9308 -0.3062 -2.4211
  170SAPS  C21219273   7.526   2.972   6.121 -0.4528  0.1960  0.0790
  170SAPS  H12R19274   7.475   3.016   6.034 -0.1502 -1.6522 -1.0996
  170SAPS  C21319275   7.647   2.880   6.087  0.2141 -0.3635 -0.1211
  170SAPS  H13R19276   7.655   2.793   6.156  2.5448 -0.4679 -0.4391
  170SAPS  H13S19277   7.738   2.940   6.109  1.0192 -1.9491  1.1330
  170SAPS  C21419278   7.647   2.837   5.944  0.1637  0.8525  0.1864
  170SAPS  H14R19279   7.610   2.923   5.885 -1.7583  0.8970  1.3720
  170SAPS  C21519280   7.676   2.713   5.894 -0.1716  0.1517 -0.4541
  170SAPS  H15R19281   7.682   2.686   5.787  1.2215 -0.3606 -0.2673
  170SAPS  C21619282   7.716   2.597   5.986  0.4510  0.1621  0.6933
  170SAPS  H16R19283   7.620   2.544   6.002 -0.1557  0.4337 -1.6149
  170SAPS  H16S19284   7.747   2.634   6.086 -3.1615  2.0078  1.2862
  170SAPS  C21719285   7.830   2.510   5.931  0.1395  0.2332  0.3305
  170SAPS  H17R19286   7.807   2.495   5.824  0.6279  0.8349  0.1361
  170SAPS  H17S19287   7.821   2.411   5.982 -0.8229  0.2701  0.2397
  170SAPS  C21819288   7.968   2.575   5.940  0.2975 -0.1579  0.2717
  170SAPS  H18R19289   7.960   2.679   5.900 -0.4346 -0.4502 -0.3726
  170SAPS  H18S19290   8.039   2.512   5.883 -0.3064 -0.7797  0.1915
  170SAPS  C21919291   8.037   2.582   6.076 -0.2386  0.7137 -0.2742
  170SAPS  H19R19292   7.968   2.626   6.151  1.6963 -0.5269  2.3945
  170SAPS  H19S19293   8.133   2.638   6.066  0.5594 -0.2159  1.6063
  170SAPS  C22019294   8.075   2.438   6.130  0.3803  0.0666  0.9286
  170SAPS  H20R19295   7.979   2.387   6.152  0.2716 -0.0282  0.2551
  170SAPS  H20S19296   8.141   2.451   6.218 -0.6030 -1.8465  1.9919
  170SAPS  H20T19297   8.129   2.379   6.053  3.0866  2.4700  0.8067
  170SAPS   C3319298   6.475   2.503   6.250  0.4758  0.3155 -0.2188
  170SAPS   H3X19299   6.376   2.538   6.287 -0.0070 -1.1728 -0.0312
  170SAPS   H3Y19300   6.483   2.393   6.238 -0.7380  0.2960 -0.9990
  170SAPS   C3419301   6.520   2.572   6.129  0.5177  0.2618  0.2006
  170SAPS   H4X19302   6.540   2.680   6.144 -0.1180  0.4050  0.0354
  170SAPS   H4Y19303   6.435   2.572   6.057 -0.3346 -0.9473  1.1469
  170SAPS   C3519304   6.644   2.509   6.058 -0.0913 -0.5410 -0.7165
  170SAPS   H5X19305   6.615   2.403   6.041 -1.0287 -0.6346  1.2153
  170SAPS   H5Y19306   6.733   2.516   6.124  0.1493 -0.5499 -1.0388
  170SAPS   C3619307   6.673   2.580   5.926 -0.1264 -0.2805  0.2167
  170SAPS   H6X19308   6.700   2.682   5.958  0.3694 -0.6784  1.1114
  170SAPS   H6Y19309   6.585   2.579   5.857 -1.4540 -0.4080  1.8411
  170SAPS   C3719310   6.781   2.504   5.856  0.8247  0.4104  0.0600
  170SAPS   H7X19311   6.737   2.406   5.830  0.4217  0.9395 -1.3714
  170SAPS   H7Y19312   6.872   2.489   5.917  0.9728 -2.1403 -0.6781
  170SAPS   C3819313   6.834   2.569   5.730  1.1280  0.2404 -0.2902
  170SAPS   H8X19314   6.905   2.496   5.684  0.8942 -0.6375  0.6840
  170SAPS   H8Y19315   6.888   2.663   5.753 -0.0328  0.6203  1.0233
  170SAPS   C3919316   6.725   2.601   5.617 -0.9851 -0.3933 -0.4573
  170SAPS   H9X19317   6.652   2.672   5.663  0.6019  0.2451  1.2047
  170SAPS   H9Y19318   6.658   2.521   5.580 -1.6614  0.3589 -0.9029
  170SAPS  C31019319   6.783   2.670   5.497 -0.0629 -0.0268  0.6022
  170SAPS  H10X19320   6.870   2.609   5.461 -2.4017 -3.5703  0.4526
  170SAPS  H10Y19321   6.817   2.773   5.518 -1.0859 -0.1279  2.9728
  170SAPS  C31119322   6.690   2.684   5.367 -0.4209  0.5100  0.2032
  170SAPS  H11X19323   6.618   2.766   5.389 -0.0166  0.9108  0.0419
  170SAPS  H11Y19324   6.643   2.584   5.356 -0.8021  0.6798  0.2634
  170SAPS  C31219325   6.784   2.725   5.246 -0.0134 -0.1913 -0.0554
  170SAPS  H12X19326   6.839   2.632   5.221 -0.5234 -0.4002 -0.4000
  170SAPS  H12Y19327   6.848   2.809   5.280 -1.8461  1.2054  0.1326
  170SAPS  C31319328   6.713   2.787   5.131 -0.0459  0.4900  0.2086
  170SAPS  H13X19329   6.654   2.878   5.157 -1.0579 -0.4977  1.5162
  170SAPS  H13Y19330   6.642   2.709   5.096  0.1904  0.5417 -0.3844
  170SAPS  C31419331   6.799   2.813   5.002 -0.0210  0.0505  0.1101
  170SAPS  H14X19332   6.855   2.906   5.023  1.1385 -0.4726 -0.5888
  170SAPS  H14Y19333   6.736   2.850   4.918 -1.5034  1.2151  1.6593
  170SAPS  C31519334   6.887   2.697   4.960  0.3432 -0.4196 -0.1737
  170SAPS  H15X19335   6.822   2.607   4.951  0.0342 -0.6307  3.0519
  170SAPS  H15Y19336   6.955   2.669   5.043  0.2915  0.4080  0.1543
  170SAPS  C31619337   6.964   2.737   4.822 -0.3504  0.3960  0.1244
  170SAPS  H16X19338   7.031   2.822   4.845  0.3974  0.4483 -2.0201
  170SAPS  H16Y19339   6.902   2.758   4.732  2.1438  0.1467 -1.7565
  170SAPS  C31719340   7.065   2.630   4.785 -0.3702  0.0087 -0.1432
  170SAPS  H17X19341   7.011   2.537   4.758 -0.3761 -1.2153  3.5254
  170SAPS  H17Y19342   7.136   2.597   4.864 -1.3457 -1.3708  0.1943
  170SAPS  C31819343   7.137   2.690   4.671 -0.2239 -0.0263 -0.3552
  170SAPS  H18X19344   7.173   2.795   4.680 -0.9061  0.2752 -0.9972
  170SAPS  H18Y19345   7.067   2.697   4.584  0.9711  0.6467 -1.2900
  170SAPS  H18Z19346   7.224   2.636   4.630  1.1972  0.4553  1.8458
  171SAPS     N19347   1.630   1.977   7.491  0.4737  0.1770 -0.2183
  171SAPS   HN119348   1.683   1.993   7.580 -0.2273  1.9709 -0.0872
  171SAPS   HN219349   1.647   1.884   7.447  1.5027 -0.3824  1.2344
  171SAPS   HN319350   1.675   2.043   7.425  0.8908 -0.5477 -0.6698
  171SAPS   C1219351   1.481   1.992   7.520  0.2961 -0.4311  0.0985
  171SAPS  H12A19352   1.462   1.950   7.618  1.3047 -0.0161  0.4938
  171SAPS   C1319353   1.451   2.143   7.536 -0.0202 -0.3927 -0.4783
  171SAPS  O13A19354   1.538   2.237   7.534  0.1740  0.4069  0.4293
  171SAPS  O13B19355   1.328   2.168   7.564 -0.4884  1.2840  0.4028
  171SAPS   C1119356   1.394   1.941   7.404 -0.4607  0.1576  0.3184
  171SAPS  H11A19357   1.417   2.008   7.319  0.5838 -0.8933 -0.2562
  171SAPS  H11B19358   1.285   1.949   7.426 -1.2076 -0.6124 -2.6801
  171SAPS     P19359   1.335   1.736   7.267  0.4172  0.0578 -0.2234
  171SAPS   O1319360   1.381   1.594   7.237 -0.2876 -0.5154  0.7648
  171SAPS   O1419361   1.190   1.764   7.300  0.3688 -0.1550 -0.0921
  171SAPS   O1219362   1.431   1.804   7.368  0.3391 -0.7639  0.9481
  171SAPS   O1119363   1.367   1.831   7.148 -0.4122  0.2888  0.3482
  171SAPS    C119364   1.499   1.846   7.092  0.5469  0.2255 -0.3248
  171SAPS    HA19365   1.529   1.949   7.123  0.6403  0.3601 -0.8495
  171SAPS    HB19366   1.574   1.775   7.133  0.5108  0.2845 -0.1568
  171SAPS    C219367   1.496   1.827   6.937 -0.4541  0.0667  0.0178
  171SAPS    HS19368   1.597   1.835   6.893  0.1022  2.6160  1.5683
  171SAPS   O2119369   1.419   1.923   6.862 -0.3430 -0.1631 -0.8718
  171SAPS   C2119370   1.462   2.050   6.867 -0.2587  0.2383 -0.8232
  171SAPS   O2219371   1.550   2.090   6.934 -0.1261  0.0836  0.0735
  171SAPS   C2219372   1.374   2.133   6.767  0.2017 -0.5213  0.5756
  171SAPS   H2R19373   1.407   2.118   6.662  0.6137 -0.6524  0.7202
  171SAPS   H2S19374   1.270   2.094   6.773 -0.2802 -0.3653 -3.7537
  171SAPS    C319375   1.440   1.687   6.899 -0.4805  0.2348 -0.0724
  171SAPS    HX19376   1.336   1.663   6.929  0.1966 -1.2640  1.2225
  171SAPS    HY19377   1.502   1.623   6.965 -1.1788  0.5976  0.9679
  171SAPS   O3119378   1.463   1.648   6.755  0.2335  0.8512 -0.1876
  171SAPS   C3119379   1.370   1.674   6.668 -0.3458 -0.9915 -0.3207
  171SAPS   O3219380   1.270   1.737   6.687  0.3399  0.2018 -0.4980
  171SAPS   C3219381   1.419   1.631   6.533 -0.4931  0.4002 -0.2210
  171SAPS   H2X19382   1.403   1.521   6.531  1.1231  0.1102  0.9496
  171SAPS   H2Y19383   1.521   1.670   6.516 -0.1964 -0.8931 -1.6084
  171SAPS   C2319384   1.367   2.287   6.791  0.0395  0.0503 -0.0547
  171SAPS   H3R19385   1.463   2.338   6.770 -0.7972  0.8334 -2.2915
  171SAPS   H3S19386   1.340   2.306   6.897 -0.6999  1.6253 -0.4981
  171SAPS   C2419387   1.248   2.351   6.720 -0.6969 -0.1608 -0.3863
  171SAPS   H4R19388   1.154   2.295   6.740 -2.0954  2.2310  0.1504
  171SAPS   H4S19389   1.268   2.345   6.611  0.6329 -1.3300 -0.1077
  171SAPS   C2519390   1.214   2.490   6.777 -0.6483  0.5226 -0.1409
  171SAPS   H5R19391   1.249   2.505   6.880 -0.8660 -0.6671  0.1142
  171SAPS   C2619392   1.152   2.584   6.702 -1.0135  0.4784 -0.6372
  171SAPS   H6R19393   1.126   2.679   6.750  0.3698  0.0590  1.0625
  171SAPS   C2719394   1.094   2.561   6.564  0.5309  0.1033  0.0124
  171SAPS   H7R19395   1.048   2.461   6.545 -0.7370  0.8419 -1.0377
  171SAPS   H7S19396   1.186   2.550   6.503 -0.2057 -1.6740 -0.8857
  171SAPS   C2819397   1.004   2.676   6.518  0.1906 -0.4360 -0.7289
  171SAPS   H8R19398   1.033   2.775   6.555 -0.0954 -1.6877  3.3717
  171SAPS   C2919399   0.903   2.666   6.443  0.0817  0.1752  0.7377
  171SAPS   H9R19400   0.853   2.755   6.403  0.4506 -0.1024 -0.3798
  171SAPS  C21019401   0.861   2.543   6.371 -0.5896  0.5902  0.2671
  171SAPS  H10R19402   0.956   2.496   6.338 -0.6820  1.7469 -1.8252
  171SAPS  H10S19403   0.796   2.579   6.288 -2.4202  2.4294  2.3450
  171SAPS  C21119404   0.784   2.444   6.459  0.1331 -0.0526 -0.0546
  171SAPS  H11R19405   0.799   2.439   6.568  0.1027  0.4464 -0.0255
  171SAPS  C21219406   0.697   2.354   6.402 -0.2875 -0.0697  0.1117
  171SAPS  H12R19407   0.636   2.285   6.463  0.8997 -0.6644  0.6469
  171SAPS  C21319408   0.662   2.335   6.253 -0.0644  0.0742 -0.1500
  171SAPS  H13R19409   0.648   2.225   6.239 -1.5753 -0.1136  2.1819
  171SAPS  H13S19410   0.745   2.355   6.182 -1.6375  1.5686 -1.6676
  171SAPS  C21419411   0.534   2.404   6.208 -0.0509  0.6156  0.3298
  171SAPS  H14R19412   0.506   2.486   6.276  1.0017  1.0677  0.2226
  171SAPS  C21519413   0.460   2.374   6.104  0.7035 -0.6973  0.0941
  171SAPS  H15R19414   0.382   2.449   6.080  1.6056 -0.3191 -1.8171
  171SAPS  C21619415   0.492   2.273   5.999 -0.3716 -0.2857  0.7679
  171SAPS  H16R19416   0.422   2.188   5.988 -0.8628  0.1559  0.4183
  171SAPS  H16S19417   0.577   2.212   6.035 -0.4273 -0.4833  0.5644
  171SAPS  C21719418   0.528   2.341   5.866 -0.3761 -0.2344 -0.1636
  171SAPS  H17R19419   0.616   2.405   5.890 -0.3158 -0.7143  0.9420
  171SAPS  H17S19420   0.446   2.410   5.835  0.8835  1.5851  0.4175
  171SAPS  C21819421   0.566   2.239   5.765  0.0430  0.0173  0.1376
  171SAPS  H18R19422   0.485   2.171   5.731  1.3934 -2.4821  1.5667
  171SAPS  H18S19423   0.646   2.169   5.797  0.1978  0.5000  0.8461
  171SAPS  C21919424   0.630   2.314   5.635  0.2263 -0.0346  0.3084
  171SAPS  H19R19425   0.659   2.235   5.562 -0.0853  1.1096 -1.1042
  171SAPS  H19S19426   0.712   2.380   5.670 -0.1811  0.4214  0.4102
  171SAPS  C22019427   0.526   2.386   5.548  0.1156  1.0191 -0.9049
  171SAPS  H20R19428   0.454   2.318   5.497 -1.5358  1.3748  0.8647
  171SAPS  H20S19429   0.577   2.438   5.464 -0.2432  1.8100 -0.6425
  171SAPS  H20T19430   0.460   2.457   5.601 -1.5282 -2.9300  2.8940
  171SAPS   C3319431   1.320   1.673   6.424 -0.6278 -0.4471  0.3022
  171SAPS   H3X19432   1.351   1.778   6.402  1.2198 -0.5847  1.9480
  171SAPS   H3Y19433   1.213   1.670   6.453  0.0837 -4.6081  3.4047
  171SAPS   C3419434   1.328   1.592   6.293 -0.2385 -0.4613 -0.8162
  171SAPS   H4X19435   1.232   1.596   6.236 -0.1922 -0.6406 -0.9081
  171SAPS   H4Y19436   1.342   1.482   6.305  0.3942 -0.1756  1.5782
  171SAPS   C3519437   1.439   1.640   6.204 -0.1790 -0.5091  0.3685
  171SAPS   H5X19438   1.544   1.617   6.229  0.0291 -0.4701 -0.4341
  171SAPS   H5Y19439   1.430   1.751   6.205  0.2247 -0.4659 -0.3367
  171SAPS   C3619440   1.408   1.595   6.059 -0.0638 -0.1990  0.7881
  171SAPS   H6X19441   1.302   1.622   6.041  0.8027  2.8389 -0.4391
  171SAPS   H6Y19442   1.435   1.488   6.047 -1.9061 -0.5856 -0.3628
  171SAPS   C3719443   1.504   1.667   5.966  0.5676 -0.1605  0.1120
  171SAPS   H7X19444   1.605   1.637   6.003  0.6638 -0.5940 -0.4960
  171SAPS   H7Y19445   1.482   1.775   5.981 -1.9732 -0.4752 -0.9174
  171SAPS   C3819446   1.485   1.629   5.816  0.0201 -0.6667 -0.7878
  171SAPS   H8X19447   1.494   1.518   5.811 -0.1398 -0.6690 -1.0111
  171SAPS   H8Y19448   1.571   1.672   5.760  0.6964  1.8832  1.9383
  171SAPS   C3919449   1.351   1.663   5.761 -0.5056  0.5242  0.3020
  171SAPS   H9X19450   1.322   1.766   5.791 -2.4679 -0.7657  3.2883
  171SAPS   H9Y19451   1.277   1.592   5.805  0.6945 -0.9135  0.0984
  171SAPS  C31019452   1.349   1.665   5.610  0.3395  0.1395 -0.5119
  171SAPS  H10X19453   1.365   1.567   5.561 -0.3429 -0.8765  1.2333
  171SAPS  H10Y19454   1.426   1.723   5.554 -0.8872  0.0257 -2.4045
  171SAPS  C31119455   1.208   1.704   5.554  0.5093  0.1885 -0.2492
  171SAPS  H11X19456   1.165   1.800   5.591  0.1704 -0.6798  1.7771
  171SAPS  H11Y19457   1.145   1.619   5.590  0.5462  0.2291 -0.0892
  171SAPS  C31219458   1.197   1.705   5.398  0.3648  0.1338  0.7421
  171SAPS  H12X19459   1.231   1.605   5.365 -1.9814 -0.2960 -0.6489
  171SAPS  H12Y19460   1.259   1.787   5.357 -0.9005  0.6804 -0.1665
  171SAPS  C31319461   1.056   1.702   5.347 -0.4166  0.0144 -0.0387
  171SAPS  H13X19462   1.012   1.795   5.388  0.5402 -0.4411  2.1839
  171SAPS  H13Y19463   0.990   1.622   5.388 -0.1813 -0.6962 -1.0148
  171SAPS  C31419464   1.037   1.700   5.198 -0.8676 -0.0695  0.6292
  171SAPS  H14X19465   1.072   1.796   5.154  1.6091 -1.4786 -0.6889
  171SAPS  H14Y19466   0.926   1.704   5.186 -0.5759  0.7494 -3.0463
  171SAPS  C31519467   1.110   1.591   5.125 -0.4997  0.0229 -0.3757
  171SAPS  H15X19468   1.095   1.505   5.193 -0.4745 -0.0609 -0.4755
  171SAPS  H15Y19469   1.219   1.603   5.144 -0.7885 -0.8399  2.2508
  171SAPS  C31619470   1.086   1.567   4.980 -0.5987 -0.0979  0.4243
  171SAPS  H16X19471   1.117   1.658   4.925  1.5274 -0.6979  0.5694
  171SAPS  H16Y19472   0.979   1.544   4.961  0.3178 -2.1906 -3.0910
  171SAPS  C31719473   1.159   1.446   4.923  0.7869  0.5828  0.0167
  171SAPS  H17X19474   1.239   1.422   4.997  0.1102 -1.6548  0.1103
  171SAPS  H17Y19475   1.217   1.450   4.829  2.6249 -0.8618  1.0170
  171SAPS  C31819476   1.060   1.324   4.905  0.1265  0.6813 -0.2936
  171SAPS  H18X19477   0.966   1.353   4.853 -1.0374 -0.7006  0.9660
  171SAPS  H18Y19478   1.044   1.282   5.006  3.6461 -5.8140 -1.8473
  171SAPS  H18Z19479   1.106   1.244   4.842  0.4217 -1.3888  2.3681
  172SAPS     N19480   2.491   3.120   7.315 -0.3708  0.4686 -0.2018
  172SAPS   HN119481   2.557   3.149   7.239  1.6479 -0.4147  1.1288
  172SAPS   HN219482   2.413   3.179   7.278  0.2497  1.2528 -0.3055
  172SAPS   HN319483   2.526   3.145   7.409 -1.4037 -0.8606  0.5646
  172SAPS   C1219484   2.462   2.978   7.311 -0.3737 -0.1210 -0.0238
  172SAPS  H12A19485   2.545   2.938   7.369  0.9302  2.4873  0.0406
  172SAPS   C1319486   2.333   2.935   7.372 -0.5015  0.7905 -0.7803
  172SAPS  O13A19487   2.240   3.008   7.422  0.0195  0.4966 -0.0916
  172SAPS  O13B19488   2.326   2.808   7.394  0.4944 -0.0531 -0.0318
  172SAPS   C1119489   2.467   2.917   7.163  0.1681 -0.2738  0.4193
  172SAPS  H11A19490   2.453   2.808   7.176 -1.3243  0.0319  1.7263
  172SAPS  H11B19491   2.564   2.943   7.117  0.2251 -0.4365  0.4477
  172SAPS     P19492   2.376   3.093   6.983  0.2043  0.3111 -0.0550
  172SAPS   O1319493   2.252   3.093   6.896 -0.3185 -0.5344  0.0032
  172SAPS   O1419494   2.406   3.220   7.047  0.2204  0.4493  0.0985
  172SAPS   O1219495   2.352   2.981   7.086 -0.2192 -0.0894  0.4616
  172SAPS   O1119496   2.501   3.054   6.896  0.2957  0.0702  0.3191
  172SAPS    C119497   2.506   2.943   6.804 -0.0056 -0.1739 -0.6803
  172SAPS    HA19498   2.613   2.913   6.802 -0.2342 -1.0180 -0.7349
  172SAPS    HB19499   2.445   2.856   6.835  0.2879  0.9546  3.6593
  172SAPS    C219500   2.476   2.988   6.661  0.3751 -0.3771  0.2006
  172SAPS    HS19501   2.368   3.016   6.670  0.2699 -1.0672  1.2487
  172SAPS   O2119502   2.485   2.884   6.564 -1.0368  0.2423  0.2608
  172SAPS   C2119503   2.387   2.800   6.558 -0.5176 -0.7442 -0.2992
  172SAPS   O2219504   2.298   2.788   6.641  0.5488  0.1564  0.0111
  172SAPS   C2219505   2.412   2.716   6.431 -0.1824 -0.9836 -0.7479
  172SAPS   H2R19506   2.401   2.789   6.348 -1.6932  1.1643  1.2246
  172SAPS   H2S19507   2.520   2.692   6.434  0.9191  3.2769 -0.4080
  172SAPS    C319508   2.552   3.115   6.611  0.1377  0.5635 -0.1679
  172SAPS    HX19509   2.660   3.095   6.631 -0.3820 -1.6519  0.7043
  172SAPS    HY19510   2.522   3.198   6.678  0.5664  0.7571 -0.2124
  172SAPS   O3119511   2.534   3.145   6.469  0.5271 -1.0318  0.2062
  172SAPS   C3119512   2.413   3.178   6.432 -0.0744 -0.5475  0.4602
  172SAPS   O3219513   2.308   3.186   6.492  0.0846 -0.2516  0.1151
  172SAPS   C3219514   2.421   3.193   6.279  0.0039 -0.3974  0.2928
  172SAPS   H2X19515   2.524   3.227   6.258 -0.9542  1.9953 -0.9010
  172SAPS   H2Y19516   2.345   3.270   6.254  1.0797  0.0463 -1.7819
  172SAPS   C2319517   2.326   2.584   6.404 -0.3108 -0.5482  0.4011
  172SAPS   H3R19518   2.357   2.509   6.480 -3.7987 -1.3038  1.2405
  172SAPS   H3S19519   2.351   2.543   6.304  0.1792  3.1100 -1.1380
  172SAPS   C2419520   2.174   2.610   6.426 -0.4969  0.0482  0.4030
  172SAPS   H4R19521   2.153   2.666   6.519  1.6259  5.0980 -1.8005
  172SAPS   H4S19522   2.133   2.507   6.440 -0.5040  0.1859  1.4031
  172SAPS   C2519523   2.110   2.684   6.303  0.0384 -0.1678 -0.0302
  172SAPS   H5R19524   2.114   2.793   6.299  0.8755 -0.0648  2.2859
  172SAPS   C2619525   2.066   2.626   6.192  0.6431  0.1008  0.9382
  172SAPS   H6R19526   2.031   2.690   6.110  0.5152 -1.0811  0.0303
  172SAPS   C2719527   2.067   2.478   6.155  0.1350 -0.3085  0.1023
  172SAPS   H7R19528   2.086   2.410   6.240  0.4179  0.8123  0.9461
  172SAPS   H7S19529   2.156   2.462   6.091  1.3898 -0.0739  1.7550
  172SAPS   C2819530   1.939   2.426   6.093  0.1932  0.4700 -0.1660
  172SAPS   H8R19531   1.850   2.461   6.148  0.4882 -0.8807  1.2436
  172SAPS   C2919532   1.929   2.350   5.984  0.5731 -0.3361 -0.0919
  172SAPS   H9R19533   1.828   2.322   5.951  0.2407  1.0762 -0.3304
  172SAPS  C21019534   2.044   2.303   5.893 -0.1887 -0.4204  0.0597
  172SAPS  H10R19535   2.113   2.239   5.952  1.5636  0.5873 -0.8231
  172SAPS  H10S19536   2.100   2.394   5.861  0.6962 -0.3758  1.6183
  172SAPS  C21119537   1.994   2.234   5.772 -0.2074 -0.3868 -0.1439
  172SAPS  H11R19538   1.921   2.152   5.785 -0.8086  0.2286  0.5029
  172SAPS  C21219539   2.022   2.265   5.642 -0.7979  0.2365 -0.5898
  172SAPS  H12R19540   1.991   2.207   5.554 -0.9715  1.8999 -1.6684
  172SAPS  C21319541   2.103   2.391   5.595  0.3232  0.3532  0.1678
  172SAPS  H13R19542   2.086   2.483   5.655  0.6492 -0.4297  1.4981
  172SAPS  H13S19543   2.069   2.426   5.496 -0.5110 -1.1538 -0.1105
  172SAPS  C21419544   2.245   2.350   5.589 -0.6789 -0.0499  0.8143
  172SAPS  H14R19545   2.264   2.269   5.515 -2.7991  0.9469 -0.9410
  172SAPS  C21519546   2.355   2.396   5.646  0.3379  0.3145  0.5721
  172SAPS  H15R19547   2.452   2.347   5.629  0.4285  0.7399 -0.1792
  172SAPS  C21619548   2.374   2.515   5.732 -0.1496  0.2657 -0.4428
  172SAPS  H16R19549   2.280   2.576   5.738  0.0560  0.5039  0.8703
  172SAPS  H16S19550   2.444   2.586   5.683  2.2771 -3.1380 -2.3262
  172SAPS  C21719551   2.422   2.484   5.877 -0.1317 -0.0897  0.6354
  172SAPS  H17R19552   2.525   2.443   5.863  1.2299  3.2993 -0.1750
  172SAPS  H17S19553   2.359   2.407   5.928 -0.3202 -0.5857 -0.3278
  172SAPS  C21819554   2.427   2.615   5.946 -1.0404 -0.5452 -1.0266
  172SAPS  H18R19555   2.320   2.646   5.948 -1.4482 -1.8889  1.2600
  172SAPS  H18S19556   2.486   2.682   5.881  0.8898  0.8555  1.9694
  172SAPS  C21919557   2.485   2.621   6.087  0.1656 -0.8632 -0.7505
  172SAPS  H19R19558   2.477   2.521   6.136  0.5792 -0.5628 -0.0623
  172SAPS  H19S19559   2.419   2.694   6.137 -2.1308 -1.5104 -2.6054
  172SAPS  C22019560   2.631   2.661   6.092  0.0089 -0.0840  0.1522
  172SAPS  H20R19561   2.669   2.651   6.196  0.2877 -0.7203 -0.0068
  172SAPS  H20S19562   2.646   2.766   6.058 -0.8137 -0.4501 -1.3987
  172SAPS  H20T19563   2.682   2.594   6.020  0.1639  1.3557 -1.1279
  172SAPS   C3319564   2.369   3.067   6.201 -0.5949  0.4078 -0.5106
  172SAPS   H3X19565   2.429   2.980   6.234  0.9989  0.3202 -3.3347
  172SAPS   H3Y19566   2.400   3.089   6.096  0.9705  0.7913  0.0005
  172SAPS   C3419567   2.218   3.035   6.201  0.3603 -0.3081 -0.5552
  172SAPS   H4X19568   2.164   3.131   6.206 -0.4386 -0.6402 -2.2110
  172SAPS   H4Y19569   2.187   3.001   6.302 -0.5888 -1.5549 -1.2354
  172SAPS   C3519570   2.170   2.938   6.090 -0.2868  0.1502  0.6164
  172SAPS   H5X19571   2.060   2.934   6.100 -0.0695 -0.6464  3.1420
  172SAPS   H5Y19572   2.209   2.838   6.117  0.9564 -0.0435 -1.6213
  172SAPS   C3619573   2.220   2.964   5.945  0.0745 -0.1504  0.3820
  172SAPS   H6X19574   2.331   2.960   5.938 -0.0248 -0.4312 -2.2596
  172SAPS   H6Y19575   2.195   3.069   5.919 -2.7366 -0.7246  0.4618
  172SAPS   C3719576   2.159   2.874   5.834  0.1352  0.2940 -0.2491
  172SAPS   H7X19577   2.049   2.881   5.844 -0.0216 -1.2476 -0.6204
  172SAPS   H7Y19578   2.176   2.767   5.861 -1.7225  0.0425  0.0909
  172SAPS   C3819579   2.201   2.893   5.689 -0.0436  0.4702 -1.0526
  172SAPS   H8X19580   2.301   2.851   5.663  0.0149 -0.6143  0.7456
  172SAPS   H8Y19581   2.219   3.002   5.679 -0.3891  0.5658 -0.6653
  172SAPS   C3919582   2.093   2.853   5.586 -0.3286  0.1799 -0.0097
  172SAPS   H9X19583   2.008   2.923   5.601 -0.1131  0.3087  0.6393
  172SAPS   H9Y19584   2.052   2.750   5.595  2.0585 -0.8310  0.2640
  172SAPS  C31019585   2.149   2.849   5.450 -0.3833  0.0324  0.3553
  172SAPS  H10X19586   2.197   2.943   5.414 -0.0845  0.1616  1.0729
  172SAPS  H10Y19587   2.073   2.820   5.374  2.4335 -1.3925 -2.1432
  172SAPS  C31119588   2.251   2.735   5.438  1.0183 -0.5845  0.3426
  172SAPS  H11X19589   2.221   2.646   5.496  0.1447 -0.9527 -0.6445
  172SAPS  H11Y19590   2.353   2.760   5.473  1.6356 -1.8645 -0.4751
  172SAPS  C31219591   2.278   2.698   5.290 -0.5695  0.0676  0.0668
  172SAPS  H12X19592   2.336   2.780   5.242 -0.3881  0.9230  1.6912
  172SAPS  H12Y19593   2.187   2.698   5.225  0.1904  0.2810 -1.0281
  172SAPS  C31319594   2.342   2.560   5.272 -0.3816 -0.1697  0.2833
  172SAPS  H13X19595   2.280   2.472   5.300  0.7728 -2.0247 -2.5525
  172SAPS  H13Y19596   2.438   2.547   5.327  1.0775  2.0425 -1.5882
  172SAPS  C31419597   2.395   2.542   5.131  0.2007 -0.4701 -0.6184
  172SAPS  H14X19598   2.451   2.447   5.123 -0.8167 -1.3431  1.6942
  172SAPS  H14Y19599   2.467   2.623   5.106 -0.5299  0.0970 -0.9327
  172SAPS  C31519600   2.298   2.539   5.012  0.4442  0.5410 -0.8653
  172SAPS  H15X19601   2.335   2.543   4.908  1.5560 -1.7190 -0.6224
  172SAPS  H15Y19602   2.234   2.630   5.014  0.0791  0.3194 -1.9001
  172SAPS  C31619603   2.205   2.413   5.023 -0.4461 -0.1325 -0.7919
  172SAPS  H16X19604   2.275   2.328   5.041  0.3244  0.7116  0.3041
  172SAPS  H16Y19605   2.138   2.406   5.111 -0.6686 -3.1896 -1.1034
  172SAPS  C31719606   2.116   2.381   4.901 -0.6471 -0.2231  0.0580
  172SAPS  H17X19607   2.173   2.391   4.806  0.7447  3.3454  1.0801
  172SAPS  H17Y19608   2.039   2.459   4.881  1.2996  2.5603  2.6341
  172SAPS  C31819609   2.051   2.241   4.895 -0.4867 -0.3109  0.2199
  172SAPS  H18X19610   2.021   2.202   4.994  0.3321  0.5559  0.8202
  172SAPS  H18Y19611   2.126   2.179   4.841 -0.2354  0.1667  0.0116
  172SAPS  H18Z19612   1.962   2.270   4.835 -2.1560 -1.4540  2.0603
  173SAPS     N19613   1.403   1.586   2.383 -0.1243 -0.2940  0.2944
  173SAPS   HN119614   1.306   1.585   2.421 -0.8844 -0.6394 -1.5732
  173SAPS   HN219615   1.440   1.489   2.389  1.0228  0.1780  1.2319
  173SAPS   HN319616   1.467   1.645   2.440  1.7661 -1.0538 -0.9395
  173SAPS   C1219617   1.407   1.631   2.237 -0.7293  0.4618 -0.1008
  173SAPS  H12A19618   1.505   1.658   2.202 -0.5758  0.3740  0.2573
  173SAPS   C1319619   1.355   1.532   2.138 -0.3900  0.4181 -0.2207
  173SAPS  O13A19620   1.315   1.421   2.181 -0.2887  0.5297 -0.0936
  173SAPS  O13B19621   1.349   1.560   2.016  0.2314  0.1742  0.7895
  173SAPS   C1119622   1.317   1.759   2.223  0.3963 -0.2720  0.0521
  173SAPS  H11A19623   1.216   1.731   2.259  1.0530 -3.1962 -0.1088
  173SAPS  H11B19624   1.307   1.779   2.115 -1.1222  0.2695  0.2803
  173SAPS     P19625   1.325   2.010   2.309 -0.2308  0.0474 -0.1433
  173SAPS   O1319626   1.415   2.094   2.387 -0.5427 -0.5764 -0.3577
  173SAPS   O1419627   1.312   2.047   2.169  0.3881  0.4500 -0.1861
  173SAPS   O1219628   1.378   1.858   2.309  0.6414 -0.1286 -0.5108
  173SAPS   O1119629   1.188   2.003   2.370  0.4149  0.4744  0.3380
  173SAPS    C119630   1.137   1.931   2.488 -0.0268 -0.5775  0.9932
  173SAPS    HA19631   1.040   1.885   2.459  0.0359 -1.2349  1.8059
  173SAPS    HB19632   1.201   1.845   2.515  2.6331  1.5131  1.7632
  173SAPS    C219633   1.125   2.008   2.618 -0.1442  0.5318 -0.0030
  173SAPS    HS19634   1.039   2.078   2.611 -3.3604 -2.9669  1.1154
  173SAPS   O2119635   1.234   2.093   2.653 -0.1770 -0.5442 -0.2661
  173SAPS   C2119636   1.347   2.032   2.679  0.5046 -0.6566  0.1138
  173SAPS   O2219637   1.369   1.910   2.674 -0.1004  0.0895 -0.4344
  173SAPS   C2219638   1.433   2.138   2.730 -0.4071  0.4220  0.3126
  173SAPS   H2R19639   1.427   2.223   2.660  2.3320  0.1651 -0.3777
  173SAPS   H2S19640   1.397   2.162   2.833  1.9133  0.4588  1.1833
  173SAPS    C319641   1.082   1.916   2.737 -0.1055  0.2769  0.3460
  173SAPS    HX19642   1.165   1.847   2.762 -0.4011  0.3518  1.5877
  173SAPS    HY19643   0.994   1.856   2.705  1.1130 -0.7977 -1.1974
  173SAPS   O3119644   1.049   1.993   2.854 -0.4007 -0.0795  0.1484
  173SAPS   C3119645   1.007   1.925   2.961  0.1560 -0.4851  0.3030
  173SAPS   O3219646   0.991   1.806   2.963 -0.2584 -0.6337  0.4378
  173SAPS   C3219647   0.968   2.029   3.061  0.2853  0.0938  0.4158
  173SAPS   H2X19648   0.880   2.089   3.027 -1.8689 -3.0978 -0.1210
  173SAPS   H2Y19649   1.058   2.093   3.056 -0.1794  0.6914 -1.1981
  173SAPS   C2319650   1.590   2.103   2.739  0.3418  0.1150 -0.3749
  173SAPS   H3R19651   1.633   2.083   2.639  1.9591 -0.8966  0.4717
  173SAPS   H3S19652   1.601   2.017   2.809 -2.2271  1.1972  1.5537
  173SAPS   C2419653   1.678   2.212   2.814 -0.1710  0.2777 -0.0369
  173SAPS   H4R19654   1.625   2.250   2.904  0.0732 -0.1923  0.3153
  173SAPS   H4S19655   1.687   2.300   2.747  0.1747  0.9811  0.8936
  173SAPS   C2519656   1.817   2.162   2.846 -0.4342 -0.0344  1.0855
  173SAPS   H5R19657   1.892   2.184   2.769 -0.3899  0.5683  1.2974
  173SAPS   C2619658   1.853   2.096   2.955 -0.0500  0.2814  0.2488
  173SAPS   H6R19659   1.960   2.079   2.972  0.0549  1.7718  1.2696
  173SAPS   C2719660   1.760   2.053   3.065  0.7482  0.1987  0.3036
  173SAPS   H7R19661   1.723   1.949   3.063  0.7702  0.1584  1.2926
  173SAPS   H7S19662   1.669   2.116   3.062 -1.5787 -2.9639 -1.6047
  173SAPS   C2819663   1.828   2.070   3.201 -0.0052 -0.6402  0.4058
  173SAPS   H8R19664   1.923   2.014   3.206 -1.1285 -2.7821 -0.7945
  173SAPS   C2919665   1.792   2.150   3.308 -0.0857  0.4076 -0.9661
  173SAPS   H9R19666   1.849   2.145   3.401 -3.9794  3.0304  1.8801
  173SAPS  C21019667   1.673   2.247   3.306 -0.0762  1.0884 -0.2330
  173SAPS  H10R19668   1.648   2.285   3.205  0.8875  2.8316  0.1384
  173SAPS  H10S19669   1.700   2.334   3.371  1.1464  0.2705  0.3951
  173SAPS  C21119670   1.542   2.176   3.356 -0.5594  0.1807  0.7983
  173SAPS  H11R19671   1.489   2.123   3.275 -2.3627  0.6773  1.6071
  173SAPS  C21219672   1.494   2.155   3.482  1.2637  0.2640 -0.0018
  173SAPS  H12R19673   1.398   2.104   3.501  0.1277  1.8530 -1.1263
  173SAPS  C21319674   1.549   2.208   3.608  0.1705 -0.0927 -0.4686
  173SAPS  H13R19675   1.464   2.244   3.669 -0.4469  0.0951 -1.4254
  173SAPS  H13S19676   1.615   2.297   3.601  0.7447 -0.2643  1.9100
  173SAPS  C21419677   1.626   2.101   3.683  0.4609 -0.0621  0.4732
  173SAPS  H14R19678   1.646   2.004   3.635  0.0833 -0.3426  0.8729
  173SAPS  C21519679   1.656   2.121   3.817 -0.2315  0.5383  0.6815
  173SAPS  H15R19680   1.716   2.042   3.864  0.3059 -0.5175 -1.6654
  173SAPS  C21619681   1.621   2.243   3.896 -0.2740  0.1003  0.3157
  173SAPS  H16R19682   1.512   2.261   3.896 -0.1062  1.4078 -1.4693
  173SAPS  H16S19683   1.659   2.338   3.853  1.6964 -0.3541  0.9500
  173SAPS  C21719684   1.668   2.224   4.036 -0.3156 -0.6715  0.4550
  173SAPS  H17R19685   1.656   2.321   4.088 -1.0161 -1.2006  1.3058
  173SAPS  H17S19686   1.774   2.193   4.042  0.1783  0.7592 -0.3325
  173SAPS  C21819687   1.572   2.116   4.095 -0.8887 -0.3105  0.1769
  173SAPS  H18R19688   1.554   2.035   4.021 -5.9239 -1.4851  2.2280
  173SAPS  H18S19689   1.474   2.159   4.126 -1.5072 -2.0052  0.6862
  173SAPS  C21919690   1.640   2.035   4.210 -0.4995  0.3378  0.4842
  173SAPS  H19R19691   1.730   1.978   4.178  1.3846  3.1404  0.4113
  173SAPS  H19S19692   1.564   1.958   4.235 -0.1190 -0.6935 -1.3387
  173SAPS  C22019693   1.676   2.124   4.330  0.5714  0.4220 -0.4827
  173SAPS  H20R19694   1.756   2.193   4.297  0.2104  0.5499 -1.0962
  173SAPS  H20S19695   1.706   2.057   4.414  0.5019 -1.0449 -1.5930
  173SAPS  H20T19696   1.585   2.180   4.359  3.0635  3.1981  2.7340
  173SAPS   C3319697   0.930   1.971   3.194 -0.3274 -0.3126 -0.3905
  173SAPS   H3X19698   0.966   1.866   3.200 -3.0784 -1.3269 -0.1531
  173SAPS   H3Y19699   0.820   1.963   3.209 -0.4036 -2.2309 -1.5055
  173SAPS   C3419700   1.009   2.052   3.303 -0.5856  0.4000  0.3968
  173SAPS   H4X19701   0.973   2.157   3.297 -2.9353 -0.4386 -1.8947
  173SAPS   H4Y19702   1.116   2.040   3.276 -1.0056 -0.2426 -1.0991
  173SAPS   C3519703   0.997   2.002   3.449 -0.2382  0.1792 -1.3359
  173SAPS   H5X19704   1.022   1.894   3.457 -1.4154 -0.2407 -2.9195
  173SAPS   H5Y19705   0.895   2.024   3.485  0.8826  1.6042  1.2319
  173SAPS   C3619706   1.090   2.092   3.533 -0.3412 -0.6181 -0.3043
  173SAPS   H6X19707   1.075   2.200   3.512  0.3767 -0.4140  0.1976
  173SAPS   H6Y19708   1.195   2.085   3.496 -0.2270 -0.3851 -0.0299
  173SAPS   C3719709   1.071   2.078   3.687 -0.2243  0.2796 -0.0592
  173SAPS   H7X19710   1.082   1.969   3.708 -0.2893  0.5984  1.7604
  173SAPS   H7Y19711   0.966   2.101   3.716 -0.3963 -0.9091  0.3189
  173SAPS   C3819712   1.179   2.155   3.764  0.1702  0.5003 -0.6181
  173SAPS   H8X19713   1.156   2.263   3.759 -3.8718 -0.2277 -0.8009
  173SAPS   H8Y19714   1.275   2.121   3.719 -1.0574 -2.2885 -1.3977
  173SAPS   C3919715   1.184   2.117   3.913  0.0423 -0.4301 -0.2653
  173SAPS   H9X19716   1.271   2.170   3.958 -0.2491  0.9417 -1.2475
  173SAPS   H9Y19717   1.195   2.008   3.934 -2.6486 -1.2169 -2.3515
  173SAPS  C31019718   1.062   2.152   3.996 -0.3120 -0.3580 -0.3250
  173SAPS  H10X19719   0.976   2.088   3.964 -1.5817  1.0901  0.0778
  173SAPS  H10Y19720   1.035   2.257   3.971  0.4335 -0.7377 -3.1130
  173SAPS  C31119721   1.102   2.132   4.151  0.5216  0.2626  0.5057
  173SAPS  H11X19722   1.167   2.216   4.184  1.2346  0.0894 -0.4039
  173SAPS  H11Y19723   1.150   2.034   4.174  0.1859  0.3293  1.5597
  173SAPS  C31219724   0.976   2.153   4.240 -0.0174  0.0742  0.2069
  173SAPS  H12X19725   0.891   2.092   4.202 -0.5438  1.0529 -0.2475
  173SAPS  H12Y19726   0.946   2.260   4.246  0.5602  0.1770  1.9799
  173SAPS  C31319727   0.997   2.109   4.393  0.9021 -0.1129 -0.4947
  173SAPS  H13X19728   1.083   2.167   4.433  0.8303 -0.2073 -0.1997
  173SAPS  H13Y19729   1.020   2.000   4.396 -0.4214 -0.3986 -0.0610
  173SAPS  C31419730   0.854   2.111   4.467  0.2284 -0.3010  0.7595
  173SAPS  H14X19731   0.788   2.062   4.393 -0.6150  0.5382  0.9358
  173SAPS  H14Y19732   0.825   2.218   4.477  0.6840  0.1077 -1.7671
  173SAPS  C31519733   0.846   2.045   4.600 -0.0711 -0.2037  0.6453
  173SAPS  H15X19734   0.879   1.939   4.601  0.1612 -0.1477 -0.5468
  173SAPS  H15Y19735   0.743   2.067   4.635 -0.8313  0.5279 -1.8909
  173SAPS  C31619736   0.940   2.119   4.688  0.1347  0.6619  0.0352
  173SAPS  H16X19737   0.920   2.228   4.689  0.6787  0.7855 -0.9191
  173SAPS  H16Y19738   1.044   2.117   4.649  0.0851  0.8185 -0.1089
  173SAPS  C31719739   0.935   2.057   4.836 -0.4656  0.2666 -0.0456
  173SAPS  H17X19740   0.869   2.118   4.901 -1.1960 -0.0463 -0.4778
  173SAPS  H17Y19741   1.039   2.044   4.872 -0.1430  0.6039 -0.8354
  173SAPS  C31819742   0.881   1.909   4.854  0.4457 -0.4922  0.2055
  173SAPS  H18X19743   0.957   1.836   4.819  0.6422  0.7156 -2.0907
  173SAPS  H18Y19744   0.786   1.898   4.797 -0.0380 -1.5284  1.1588
  173SAPS  H18Z19745   0.854   1.888   4.960 -1.3544  1.8028  0.2760
  174SAPS     N19746   4.349   4.257   2.208 -0.4557  0.7878 -0.1338
  174SAPS   HN119747   4.311   4.181   2.267 -0.4479 -0.3710 -1.5674
  174SAPS   HN219748   4.357   4.349   2.256  0.0406  0.4415  0.4671
  174SAPS   HN319749   4.296   4.262   2.119 -0.0945  0.2031 -0.3862
  174SAPS   C1219750   4.492   4.214   2.166  0.2778  0.0257 -0.7581
  174SAPS  H12A19751   4.539   4.193   2.260 -3.0646 -1.7255  0.7109
  174SAPS   C1319752   4.504   4.081   2.091 -0.1022  0.2579 -0.3677
  174SAPS  O13A19753   4.401   4.030   2.042 -0.0848  0.2125 -0.5189
  174SAPS  O13B19754   4.620   4.045   2.053 -0.5580  0.0590 -0.1949
  174SAPS   C1119755   4.554   4.321   2.085 -0.2038 -0.4039  0.4999
  174SAPS  H11A19756   4.509   4.314   1.983 -0.1776  2.5089  0.1790
  174SAPS  H11B19757   4.660   4.290   2.077  0.2026  1.1309 -0.8843
  174SAPS     P19758   4.671   4.545   2.135  0.1318  0.7154 -0.0806
  174SAPS   O1319759   4.728   4.529   2.001  0.2456 -0.1119  0.5053
  174SAPS   O1419760   4.632   4.679   2.188 -0.1420  0.6239 -0.7455
  174SAPS   O1219761   4.544   4.445   2.146 -0.9881  0.5095 -0.4353
  174SAPS   O1119762   4.765   4.478   2.245  0.1126 -0.4876 -0.3310
  174SAPS    C119763   4.714   4.454   2.378 -0.2244 -0.1489 -0.3332
  174SAPS    HA19764   4.609   4.488   2.395  0.1435  1.2293 -0.7210
  174SAPS    HB19765   4.729   4.351   2.418  2.4824  0.6805  1.0106
  174SAPS    C219766   4.787   4.549   2.467 -0.5255 -0.2865  0.2285
  174SAPS    HS19767   4.776   4.648   2.417  1.9662  0.5239  1.1496
  174SAPS   O2119768   4.922   4.501   2.478 -0.3685  0.3618  0.2333
  174SAPS   C2119769   5.016   4.584   2.503 -0.3296 -0.0430 -0.5579
  174SAPS   O2219770   5.016   4.706   2.480  0.3436  0.3965 -0.4724
  174SAPS   C2219771   5.137   4.507   2.554  0.2497  0.5172 -0.0338
  174SAPS   H2R19772   5.136   4.406   2.510 -0.2605 -1.1802  3.5115
  174SAPS   H2S19773   5.227   4.565   2.521 -1.7485  2.3611 -2.6522
  174SAPS    C319774   4.727   4.544   2.608  0.7510 -0.7977  0.8516
  174SAPS    HX19775   4.747   4.443   2.650  1.1692  0.3444  3.6788
  174SAPS    HY19776   4.617   4.551   2.598  0.8067 -0.8914  0.1233
  174SAPS   O3119777   4.780   4.650   2.690  0.7120  0.3368 -0.2642
  174SAPS   C3119778   4.721   4.776   2.690 -1.0329 -0.1080 -0.8655
  174SAPS   O3219779   4.633   4.805   2.611 -0.0860  0.3828 -0.1376
  174SAPS   C3219780   4.794   4.857   2.791  0.4144 -0.0364  0.1519
  174SAPS   H2X19781   4.747   4.957   2.788 -0.5941 -0.5283 -1.9789
  174SAPS   H2Y19782   4.900   4.876   2.764  0.7157  0.3512  1.5387
  174SAPS   C2319783   5.142   4.481   2.714 -0.0290  0.3023  0.8137
  174SAPS   H3R19784   5.242   4.437   2.731  0.0940  0.6222  0.9193
  174SAPS   H3S19785   5.065   4.403   2.735  1.4379 -1.7585 -0.9436
  174SAPS   C2419786   5.116   4.601   2.808  0.4660  0.4890  0.4171
  174SAPS   H4R19787   5.126   4.569   2.914  0.9959  3.2801  1.3086
  174SAPS   H4S19788   5.013   4.638   2.794 -0.1962 -0.6505  2.0038
  174SAPS   C2519789   5.212   4.711   2.778  0.0046 -0.4437  0.1195
  174SAPS   H5R19790   5.193   4.763   2.683  1.7780 -1.3241 -0.7587
  174SAPS   C2619791   5.323   4.751   2.854  0.6196 -0.7609 -0.7291
  174SAPS   H6R19792   5.378   4.843   2.831  0.1785  0.5599  2.8443
  174SAPS   C2719793   5.375   4.685   2.978 -0.0076  0.3658  0.0329
  174SAPS   H7R19794   5.330   4.587   3.004 -0.8560  0.5427 -0.7109
  174SAPS   H7S19795   5.342   4.744   3.066 -0.3824  0.0579  0.1008
  174SAPS   C2819796   5.523   4.674   2.980  0.0246 -0.0709  0.1132
  174SAPS   H8R19797   5.563   4.722   2.890 -1.8116 -0.7301 -1.1104
  174SAPS   C2919798   5.595   4.602   3.071  0.6658 -0.2080 -0.1229
  174SAPS   H9R19799   5.703   4.610   3.053  1.0373  0.0486  1.9752
  174SAPS  C21019800   5.542   4.539   3.200  0.7837 -0.1554 -0.3152
  174SAPS  H10R19801   5.617   4.473   3.248 -0.2774 -1.6897 -0.6802
  174SAPS  H10S19802   5.468   4.460   3.174  0.4080  0.1830 -0.2738
  174SAPS  C21119803   5.489   4.627   3.299  0.8036 -0.7033  0.1490
  174SAPS  H11R19804   5.385   4.655   3.276  0.8331  0.5570  1.3907
  174SAPS  C21219805   5.559   4.684   3.400 -0.1810  0.0115 -0.3061
  174SAPS  H12R19806   5.498   4.745   3.469 -1.0586 -1.2636  0.0864
  174SAPS  C21319807   5.698   4.668   3.453  0.8265 -0.3443  0.3326
  174SAPS  H13R19808   5.751   4.765   3.437 -1.2897  0.3332 -3.7748
  174SAPS  H13S19809   5.755   4.589   3.400  0.6802 -0.1832 -0.0659
  174SAPS  C21419810   5.695   4.632   3.602  0.5085 -0.3550 -0.8940
  174SAPS  H14R19811   5.615   4.676   3.663 -0.7801 -1.9057 -1.3920
  174SAPS  C21519812   5.775   4.547   3.661 -0.2539 -0.4529 -0.0546
  174SAPS  H15R19813   5.751   4.532   3.767 -0.5868  2.2158  0.3062
  174SAPS  C21619814   5.895   4.470   3.607 -0.1673 -0.5091  0.3098
  174SAPS  H16R19815   5.884   4.458   3.497 -2.1126 -0.4657  0.4525
  174SAPS  H16S19816   5.885   4.365   3.644  1.7723 -1.5960 -1.9909
  174SAPS  C21719817   6.031   4.532   3.650 -0.1709  0.3039  0.1103
  174SAPS  H17R19818   6.046   4.641   3.637  0.4700  0.4703  1.9872
  174SAPS  H17S19819   6.115   4.496   3.587  1.6407  0.7879  2.1468
  174SAPS  C21819820   6.054   4.503   3.800 -0.1410 -0.0121 -0.9338
  174SAPS  H18R19821   5.958   4.527   3.849  0.2068 -0.2147 -0.1401
  174SAPS  H18S19822   6.124   4.586   3.826 -0.0581  0.1481 -1.6352
  174SAPS  C21919823   6.103   4.367   3.851  0.0778  0.1689 -0.4112
  174SAPS  H19R19824   6.190   4.332   3.792  2.3950  1.9335  1.7848
  174SAPS  H19S19825   6.016   4.298   3.839 -0.0327  0.0800  0.7799
  174SAPS  C22019826   6.151   4.373   3.998  0.0851  0.2885 -0.0728
  174SAPS  H20R19827   6.226   4.455   4.007  1.0796 -0.5364 -0.6864
  174SAPS  H20S19828   6.193   4.279   4.037 -2.6072 -0.8644  0.3026
  174SAPS  H20T19829   6.064   4.392   4.064 -1.9545 -0.3998 -2.3975
  174SAPS   C3319830   4.785   4.809   2.936 -0.0703 -0.0017  1.1829
  174SAPS   H3X19831   4.787   4.698   2.934 -1.5981 -0.0635 -1.5321
  174SAPS   H3Y19832   4.687   4.838   2.980  1.0587  0.3130  3.6550
  174SAPS   C3419833   4.896   4.851   3.025 -0.2996 -0.1934 -0.3617
  174SAPS   H4X19834   4.879   4.961   3.036  0.0684 -0.2336  0.7476
  174SAPS   H4Y19835   4.994   4.834   2.976 -0.8249  0.6049 -1.7486
  174SAPS   C3519836   4.890   4.773   3.159  0.0917 -0.0103  0.5842
  174SAPS   H5X19837   4.952   4.684   3.134 -0.5934 -0.5533  0.7892
  174SAPS   H5Y19838   4.784   4.751   3.185 -0.1178 -0.1555 -0.3708
  174SAPS   C3619839   4.967   4.846   3.276 -0.4334  0.6240 -0.5907
  174SAPS   H6X19840   4.915   4.921   3.338  2.0228  1.2515  0.8668
  174SAPS   H6Y19841   5.052   4.893   3.222  1.6832 -1.0402  1.0795
  174SAPS   C3719842   5.039   4.744   3.372 -0.0056  0.1070  0.0221
  174SAPS   H7X19843   5.100   4.685   3.300 -2.2986  0.8853 -2.7325
  174SAPS   H7Y19844   4.954   4.683   3.409 -1.3380  1.9221  0.0764
  174SAPS   C3819845   5.128   4.797   3.479  0.2481 -0.3927 -0.3348
  174SAPS   H8X19846   5.065   4.871   3.532  2.9276 -0.1704  2.9049
  174SAPS   H8Y19847   5.212   4.857   3.437 -0.8070  1.0187 -0.4881
  174SAPS   C3919848   5.190   4.691   3.561 -0.2483  0.0592 -0.4508
  174SAPS   H9X19849   5.275   4.645   3.507  1.2514  1.3747  0.6769
  174SAPS   H9Y19850   5.112   4.615   3.582  1.0792 -1.0389  0.6474
  174SAPS  C31019851   5.232   4.761   3.690 -0.3193  0.1543  0.3768
  174SAPS  H10X19852   5.149   4.818   3.736 -1.6319 -1.3852  0.0442
  174SAPS  H10Y19853   5.310   4.833   3.660  0.8139 -1.3232 -0.3761
  174SAPS  C31119854   5.285   4.663   3.795 -0.0501 -0.0231 -0.4349
  174SAPS  H11X19855   5.340   4.589   3.733  1.5492  0.6565  0.1161
  174SAPS  H11Y19856   5.191   4.627   3.842 -0.1016 -0.5678 -0.9510
  174SAPS  C31219857   5.369   4.744   3.894  0.0539 -0.2202  0.5321
  174SAPS  H12X19858   5.318   4.836   3.928  0.8847  0.3644  0.2169
  174SAPS  H12Y19859   5.452   4.787   3.834 -2.1459  1.7188 -1.3292
  174SAPS  C31319860   5.423   4.653   4.012  0.0381  0.5589 -0.1467
  174SAPS  H13X19861   5.477   4.574   3.955  1.4611  2.3810 -1.4615
  174SAPS  H13Y19862   5.334   4.621   4.069  0.3106 -0.1572 -0.1083
  174SAPS  C31419863   5.529   4.716   4.105 -0.3660  0.0632  0.6134
  174SAPS  H14X19864   5.477   4.787   4.173 -0.4414 -0.0719  0.6977
  174SAPS  H14Y19865   5.613   4.760   4.048 -0.0521 -0.5096  0.6252
  174SAPS  C31519866   5.586   4.615   4.207 -0.3596 -0.1062  0.1482
  174SAPS  H15X19867   5.602   4.514   4.163  0.4405  1.1436 -2.6561
  174SAPS  H15Y19868   5.506   4.603   4.283  0.1438 -2.0429  0.4333
  174SAPS  C31619869   5.705   4.667   4.284 -0.3603 -0.0175  0.2197
  174SAPS  H16X19870   5.676   4.772   4.304  1.3224  0.3485  0.8967
  174SAPS  H16Y19871   5.796   4.679   4.221  0.6610  1.5177  1.8891
  174SAPS  C31719872   5.752   4.594   4.408 -1.1516 -0.1521  0.5899
  174SAPS  H17X19873   5.775   4.485   4.401  2.9947  0.6356 -0.3809
  174SAPS  H17Y19874   5.670   4.593   4.483 -1.6816  0.7080  0.0349
  174SAPS  C31819875   5.880   4.666   4.462 -0.1214  0.9144 -0.1461
  174SAPS  H18X19876   5.959   4.679   4.385 -1.8687  3.1791 -1.6751
  174SAPS  H18Y19877   5.921   4.605   4.546  1.4693 -0.1325 -1.6150
  174SAPS  H18Z19878   5.867   4.768   4.505  2.2119  1.0927  0.3019
  175SAPS     N19879   2.823   6.768   2.377 -0.1313  0.4850 -0.3253
  175SAPS   HN119880   2.900   6.715   2.424 -0.8766  1.1856  1.8170
  175SAPS   HN219881   2.846   6.870   2.372 -0.6442  0.7116  1.3114
  175SAPS   HN319882   2.745   6.747   2.443  0.6642 -1.2024  0.1344
  175SAPS   C1219883   2.784   6.701   2.241  0.2641  0.0242  0.2643
  175SAPS  H12A19884   2.693   6.746   2.203  1.0422  1.1546 -0.3044
  175SAPS   C1319885   2.895   6.709   2.149 -0.1857 -0.4674 -0.6954
  175SAPS  O13A19886   2.997   6.778   2.171 -0.3999 -0.0366 -0.0673
  175SAPS  O13B19887   2.872   6.681   2.033 -0.0036 -0.0660  0.4723
  175SAPS   C1119888   2.745   6.547   2.271 -0.3155  0.3363  0.0262
  175SAPS  H11A19889   2.822   6.492   2.329  0.5291  2.2902  0.8192
  175SAPS  H11B19890   2.738   6.494   2.173 -0.0079  0.7369 -0.2151
  175SAPS     P19891   2.583   6.550   2.491  0.3720 -0.6884  0.1626
  175SAPS   O1319892   2.617   6.684   2.538 -0.4448  0.0003  0.6761
  175SAPS   O1419893   2.439   6.516   2.496 -0.5810 -0.2946 -0.9123
  175SAPS   O1219894   2.622   6.540   2.339  0.2453  0.6055  0.1945
  175SAPS   O1119895   2.674   6.444   2.563  0.1749  0.2482  0.3692
  175SAPS    C119896   2.765   6.483   2.665  0.8615  0.9858  0.0947
  175SAPS    HA19897   2.861   6.428   2.654  0.4848  0.2274  0.4591
  175SAPS    HB19898   2.788   6.591   2.677  1.2675  1.0794 -1.3275
  175SAPS    C219899   2.715   6.448   2.808 -0.3254  0.2810  0.1356
  175SAPS    HS19900   2.705   6.338   2.818 -1.3163  0.3854  0.4247
  175SAPS   O2119901   2.587   6.505   2.823  0.3824  0.0285  0.0643
  175SAPS   C2119902   2.498   6.453   2.901 -0.5339 -0.0664 -0.3829
  175SAPS   O2219903   2.502   6.346   2.957 -0.1409  0.6669 -0.1963
  175SAPS   C2219904   2.375   6.542   2.902 -0.0309 -0.6081  0.1353
  175SAPS   H2R19905   2.340   6.540   2.797 -1.1851 -0.3272  0.5013
  175SAPS   H2S19906   2.297   6.501   2.970 -1.8096 -0.2817 -1.5896
  175SAPS    C319907   2.805   6.498   2.917 -0.3532  0.1573 -0.4319
  175SAPS    HX19908   2.803   6.608   2.906  1.8575  0.2807 -0.1381
  175SAPS    HY19909   2.910   6.468   2.893 -0.1499 -0.2607  0.8851
  175SAPS   O3119910   2.769   6.451   3.055 -0.5555  0.0098 -0.5042
  175SAPS   C3119911   2.798   6.321   3.072  0.4466 -0.1344 -0.6276
  175SAPS   O3219912   2.850   6.246   2.994  0.2292  0.4488  0.4189
  175SAPS   C3219913   2.769   6.280   3.215 -0.6370 -0.4172  0.1162
  175SAPS   H2X19914   2.713   6.184   3.215  0.0473 -0.8715  1.9577
  175SAPS   H2Y19915   2.702   6.355   3.261 -1.3506 -0.4485 -0.8542
  175SAPS   C2319916   2.406   6.689   2.925 -0.2220 -0.3693 -0.1092
  175SAPS   H3R19917   2.321   6.755   2.900 -1.1429 -1.4698  0.0594
  175SAPS   H3S19918   2.489   6.715   2.855 -0.8014 -0.8430 -0.9836
  175SAPS   C2419919   2.465   6.735   3.067  0.4582 -0.0890  0.4443
  175SAPS   H4R19920   2.511   6.836   3.055  1.8753 -0.9395 -2.3231
  175SAPS   H4S19921   2.556   6.679   3.098 -0.8822 -1.4058  2.1539
  175SAPS   C2519922   2.368   6.731   3.183  0.1943 -0.3050  0.2780
  175SAPS   H5R19923   2.262   6.749   3.162  0.2017  1.6376  1.6676
  175SAPS   C2619924   2.404   6.692   3.307  0.5047  0.3253 -0.5760
  175SAPS   H6R19925   2.326   6.685   3.384  2.2339 -2.0616  1.1436
  175SAPS   C2719926   2.534   6.653   3.369  0.0009 -0.3263  0.1147
  175SAPS   H7R19927   2.608   6.619   3.293 -0.5306  3.2273 -2.2867
  175SAPS   H7S19928   2.517   6.573   3.444 -2.9718 -0.7161 -0.8488
  175SAPS   C2819929   2.604   6.777   3.430 -0.2428  0.2157 -0.4644
  175SAPS   H8R19930   2.674   6.830   3.364  0.9821  2.3406  2.3190
  175SAPS   C2919931   2.579   6.835   3.547 -0.1549 -0.5679  0.0138
  175SAPS   H9R19932   2.640   6.912   3.596  0.3728  1.1933 -3.1187
  175SAPS  C21019933   2.482   6.782   3.646  0.6491 -0.6847 -0.0876
  175SAPS  H10R19934   2.540   6.760   3.738 -1.4726  0.9639  1.7746
  175SAPS  H10S19935   2.439   6.689   3.604  1.2706 -0.5876 -0.9617
  175SAPS  C21119936   2.381   6.887   3.678 -0.3403 -0.1023 -0.3548
  175SAPS  H11R19937   2.332   6.940   3.595 -1.8460  1.0689  1.2114
  175SAPS  C21219938   2.352   6.938   3.797  0.0331  0.1739  0.2966
  175SAPS  H12R19939   2.260   6.998   3.799  0.9912  1.6680  0.9942
  175SAPS  C21319940   2.402   6.874   3.929  0.1438  0.4708  0.4548
  175SAPS  H13R19941   2.421   6.767   3.911 -1.4598  0.3634 -0.8754
  175SAPS  H13S19942   2.313   6.870   3.995 -1.7248  0.3396 -1.9348
  175SAPS  C21419943   2.518   6.949   3.987 -0.2305  0.3571  0.4804
  175SAPS  H14R19944   2.578   7.009   3.917  0.2685 -0.7002 -0.0261
  175SAPS  C21519945   2.535   6.946   4.119 -0.4837 -0.0005  0.1404
  175SAPS  H15R19946   2.627   6.989   4.162  0.5699 -0.3852 -1.6367
  175SAPS  C21619947   2.457   6.868   4.222  1.0036 -0.1474 -0.4804
  175SAPS  H16R19948   2.367   6.815   4.185  0.2700 -0.6013  1.8158
  175SAPS  H16S19949   2.418   6.937   4.299 -0.9027  0.4003 -1.8530
  175SAPS  C21719950   2.540   6.751   4.274 -0.5477  0.2851 -0.3770
  175SAPS  H17R19951   2.641   6.781   4.310 -0.9742 -1.7415  2.8918
  175SAPS  H17S19952   2.557   6.680   4.191 -0.0734  0.9494 -0.8615
  175SAPS  C21819953   2.473   6.694   4.406  0.5065 -0.3554  0.6985
  175SAPS  H18R19954   2.365   6.674   4.391  0.4303  0.9142 -0.7414
  175SAPS  H18S19955   2.487   6.770   4.485  2.7321 -1.3542  1.3441
  175SAPS  C21919956   2.534   6.558   4.455 -0.3605  0.1084  0.7569
  175SAPS  H19R19957   2.644   6.568   4.453 -0.1881 -1.5887  0.2631
  175SAPS  H19S19958   2.512   6.489   4.370  1.5618  1.2452 -0.7415
  175SAPS  C22019959   2.497   6.516   4.595 -0.1185 -0.2463  0.2181
  175SAPS  H20R19960   2.565   6.438   4.638 -0.3602  0.0749  1.2243
  175SAPS  H20S19961   2.393   6.476   4.592  0.3282 -1.5430  0.9048
  175SAPS  H20T19962   2.488   6.609   4.655  0.0486  0.3656 -0.6834
  175SAPS   C3319963   2.901   6.252   3.292 -0.3103 -0.9783 -0.5530
  175SAPS   H3X19964   2.973   6.334   3.271 -0.0629 -1.2367 -0.7288
  175SAPS   H3Y19965   2.946   6.167   3.236 -0.4120  0.3156 -2.7025
  175SAPS   C3419966   2.880   6.224   3.444  0.5745 -0.0967 -0.2044
  175SAPS   H4X19967   2.814   6.135   3.448  1.0796 -0.4599  0.2156
  175SAPS   H4Y19968   2.825   6.305   3.496  0.8287  0.5961 -0.9918
  175SAPS   C3519969   3.008   6.194   3.520  0.0245  0.9089  0.5698
  175SAPS   H5X19970   3.075   6.282   3.515 -0.6521  1.5548  2.1488
  175SAPS   H5Y19971   3.043   6.099   3.475 -0.7855 -0.6682  3.0625
  175SAPS   C3619972   2.975   6.165   3.668 -0.6556  0.4693 -0.6579
  175SAPS   H6X19973   2.925   6.066   3.660  1.6082 -0.6961 -1.2340
  175SAPS   H6Y19974   2.905   6.246   3.695  1.8217  2.9710 -1.3020
  175SAPS   C3719975   3.086   6.135   3.766 -0.9084 -0.2131  0.6502
  175SAPS   H7X19976   3.146   6.224   3.794  2.3918 -2.4417  1.2763
  175SAPS   H7Y19977   3.161   6.067   3.720 -1.0367 -1.0648  1.6514
  175SAPS   C3819978   3.040   6.095   3.910  0.5854 -0.3489  0.4230
  175SAPS   H8X19979   2.983   6.000   3.908 -0.5536  0.3178  0.8243
  175SAPS   H8Y19980   2.980   6.179   3.952  0.3220 -0.9373  1.2426
  175SAPS   C3919981   3.158   6.085   4.005 -0.3852 -0.5067 -0.0911
  175SAPS   H9X19982   3.206   6.184   3.992  0.0639 -0.8352 -1.0856
  175SAPS   H9Y19983   3.231   6.007   3.974 -0.9994 -1.5915  1.0944
  175SAPS  C31019984   3.123   6.057   4.150 -0.4157 -0.1212  0.1864
  175SAPS  H10X19985   3.038   6.114   4.191  0.0301 -0.4326  1.6112
  175SAPS  H10Y19986   3.210   6.080   4.216  0.1985  0.9475 -0.9541
  175SAPS  C31119987   3.102   5.908   4.165  0.6906 -0.1660  0.9244
  175SAPS  H11X19988   3.170   5.845   4.105 -0.3707  0.3734 -0.9422
  175SAPS  H11Y19989   3.001   5.879   4.131  0.7255  0.2396  0.4656
  175SAPS  C31219990   3.122   5.867   4.310 -0.1654 -0.4664 -0.1522
  175SAPS  H12X19991   3.068   5.936   4.378 -1.4351 -0.8382 -0.7595
  175SAPS  H12Y19992   3.231   5.869   4.334 -0.1158  2.2483 -0.2299
  175SAPS  C31319993   3.062   5.728   4.340  0.2669 -0.6076  0.1243
  175SAPS  H13X19994   3.137   5.657   4.298  1.2015 -1.7677  3.4397
  175SAPS  H13Y19995   2.969   5.718   4.280 -0.1626  0.4454  0.5860
  175SAPS  C31419996   3.056   5.675   4.484 -0.0558 -0.4818  0.1131
  175SAPS  H14X19997   2.981   5.735   4.540 -0.1238 -0.3660 -0.1007
  175SAPS  H14Y19998   3.154   5.678   4.537 -0.0204 -1.2290  0.1012
  175SAPS  C31519999   3.013   5.530   4.487  0.0560 -0.1469 -0.5446
  175SAPS  H15X20000   3.079   5.480   4.413 -0.9781  0.0297 -1.6242
  175SAPS  H15Y20001   2.911   5.520   4.444  0.2430 -1.6903 -0.6822
  175SAPS  C31620002   3.009   5.470   4.631  0.5827  0.4186  0.3902
  175SAPS  H16X20003   2.953   5.535   4.702  0.9627  1.1941 -0.0060
  175SAPS  H16Y20004   3.107   5.466   4.684  0.1766  0.6123  1.1600
  175SAPS  C31720005   2.946   5.333   4.645  0.6093 -0.0134 -0.4114
  175SAPS  H17X20006   2.967   5.270   4.556  0.3468  0.5142 -0.8531
  175SAPS  H17Y20007   2.836   5.345   4.629  0.8058  1.0063 -1.1709
  175SAPS  C31820008   2.970   5.256   4.772 -0.5447 -0.6048 -0.2762
  175SAPS  H18X20009   2.933   5.317   4.858  1.1634  1.0573 -0.6627
  175SAPS  H18Y20010   3.076   5.229   4.791 -0.6783 -1.1243 -0.2523
  175SAPS  H18Z20011   2.921   5.156   4.769 -1.6474 -0.0716 -0.3478
  176SAPS     N20012   5.880   3.987   2.285 -0.6047 -0.2777 -0.2926
  176SAPS   HN120013   5.820   3.902   2.287  0.8223 -1.3094  1.2398
  176SAPS   HN220014   5.938   3.982   2.371  0.7037  1.1067 -1.0468
  176SAPS   HN320015   5.825   4.075   2.278 -0.1271 -0.0236 -0.9840
  176SAPS   C1220016   5.978   3.981   2.172  0.1485 -0.2799 -0.3846
  176SAPS  H12A20017   6.026   3.885   2.178 -0.3511 -0.5126  0.0225
  176SAPS   C1320018   5.912   4.002   2.032 -0.0843  1.1947 -0.2092
  176SAPS  O13A20019   5.804   4.067   2.017 -0.7428 -0.1557 -0.0394
  176SAPS  O13B20020   5.977   3.955   1.937 -0.3823  0.1085  0.4924
  176SAPS   C1120021   6.081   4.097   2.191 -0.4248  0.2526  0.0807
  176SAPS  H11A20022   6.023   4.192   2.190 -0.3303  0.3090 -0.3404
  176SAPS  H11B20023   6.143   4.092   2.099  1.1059  1.1879  1.0121
  176SAPS     P20024   6.261   4.185   2.365  0.3518  0.2211 -0.4647
  176SAPS   O1320025   6.389   4.135   2.422  0.6029 -0.4094  0.8593
  176SAPS   O1420026   6.272   4.283   2.258  1.1760  0.0222  0.3236
  176SAPS   O1220027   6.168   4.074   2.304 -0.1224 -0.0634 -1.1546
  176SAPS   O1120028   6.173   4.252   2.473 -0.1934  0.7402 -0.3613
  176SAPS    C120029   6.088   4.169   2.562  0.4099 -0.6287  0.9741
  176SAPS    HA20030   5.988   4.161   2.514 -1.2384  1.4208  3.7465
  176SAPS    HB20031   6.124   4.065   2.577  1.0836 -0.7512 -1.1833
  176SAPS    C220032   6.068   4.230   2.704  0.8658  0.2911 -0.4401
  176SAPS    HS20033   6.013   4.327   2.696 -1.0837 -0.7751 -0.5075
  176SAPS   O2120034   6.194   4.251   2.776  0.1300 -0.6724 -0.1724
  176SAPS   C2120035   6.251   4.370   2.767  0.0084 -0.8056  0.8408
  176SAPS   O2220036   6.201   4.460   2.700 -0.4962  0.9062 -0.2552
  176SAPS   C2220037   6.389   4.373   2.835  0.9519  0.2348  0.4163
  176SAPS   H2R20038   6.379   4.325   2.935  1.8310  2.7008  1.7775
  176SAPS   H2S20039   6.467   4.320   2.776  0.3538 -0.6792  0.4140
  176SAPS    C320040   5.989   4.129   2.799  0.2981  0.0521 -0.8454
  176SAPS    HX20041   6.057   4.041   2.793  2.1433  1.4348 -1.5640
  176SAPS    HY20042   5.891   4.105   2.753 -1.1720  1.1594  1.5044
  176SAPS   O3120043   5.970   4.183   2.939 -0.3824  0.0040  0.4711
  176SAPS   C3120044   5.878   4.122   3.011 -0.1417  0.3277  0.7409
  176SAPS   O3220045   5.792   4.049   2.967 -0.2727  0.1992 -0.2282
  176SAPS   C3220046   5.888   4.177   3.153 -0.7131 -0.1651  0.7002
  176SAPS   H2X20047   5.895   4.287   3.142  1.4839 -0.3719 -0.5753
  176SAPS   H2Y20048   5.989   4.144   3.186  0.8886  1.2022 -2.4001
  176SAPS   C2320049   6.436   4.526   2.852 -0.3627  0.2925  0.3888
  176SAPS   H3R20050   6.345   4.590   2.849  0.0076  0.7921 -1.5736
  176SAPS   H3S20051   6.493   4.567   2.766 -1.8006  2.0577  0.2368
  176SAPS   C2420052   6.517   4.547   2.982 -0.2319 -0.7014 -0.5159
  176SAPS   H4R20053   6.600   4.474   2.987  0.3270  0.0246  2.3940
  176SAPS   H4S20054   6.463   4.527   3.077  0.9972  0.5431  0.4964
  176SAPS   C2520055   6.573   4.682   2.989 -0.2651 -0.1719 -0.4116
  176SAPS   H5R20056   6.621   4.718   2.897 -0.9176 -1.1575 -1.1483
  176SAPS   C2620057   6.566   4.772   3.090  0.1657 -0.0847  0.5196
  176SAPS   H6R20058   6.619   4.865   3.066 -1.1352  0.2600 -1.3297
  176SAPS   C2720059   6.515   4.751   3.230 -0.2506  0.4091  0.2220
  176SAPS   H7R20060   6.453   4.661   3.247 -0.1608  0.7469  2.7038
  176SAPS   H7S20061   6.463   4.842   3.268 -0.7039 -0.3105  1.3784
  176SAPS   C2820062   6.620   4.729   3.334 -0.3292  0.7029 -0.6176
  176SAPS   H8R20063   6.723   4.760   3.312  0.1431  0.5970  1.2996
  176SAPS   C2920064   6.599   4.664   3.451  0.8690  0.0510 -0.4663
  176SAPS   H9R20065   6.676   4.664   3.529 -1.6914  0.1823  2.2273
  176SAPS  C21020066   6.463   4.613   3.501  1.0141  0.4942 -0.4608
  176SAPS  H10R20067   6.381   4.617   3.427  0.8348 -0.4171 -0.3227
  176SAPS  H10S20068   6.417   4.684   3.573  0.5256  1.0782 -1.3489
  176SAPS  C21120069   6.486   4.482   3.574  0.7587  0.4715  0.2429
  176SAPS  H11R20070   6.505   4.393   3.512  2.0295 -0.6832  2.2129
  176SAPS  C21220071   6.504   4.462   3.703  0.3083 -0.0449 -0.2751
  176SAPS  H12R20072   6.527   4.362   3.742  2.2163  0.7070  0.6839
  176SAPS  C21320073   6.503   4.568   3.813  0.1238  0.1321  0.7600
  176SAPS  H13R20074   6.403   4.615   3.824  0.3844  0.0950  4.6077
  176SAPS  H13S20075   6.559   4.662   3.790  0.3396 -0.1226  0.2225
  176SAPS  C21420076   6.533   4.515   3.955 -0.1710 -0.1451 -0.6351
  176SAPS  H14R20077   6.488   4.422   3.992 -1.1078  1.1732  1.7641
  176SAPS  C21520078   6.609   4.580   4.044 -0.2264 -0.2778  0.1079
  176SAPS  H15R20079   6.630   4.532   4.141  1.7527 -0.5380 -0.3953
  176SAPS  C21620080   6.669   4.718   4.035 -0.2814  0.4112 -0.2305
  176SAPS  H16R20081   6.701   4.753   4.136 -1.4771 -0.8658  0.6409
  176SAPS  H16S20082   6.602   4.791   3.985  1.6171  0.6341 -2.6004
  176SAPS  C21720083   6.802   4.714   3.963 -0.2465 -0.2506 -0.4053
  176SAPS  H17R20084   6.795   4.662   3.864  0.6315  1.7138 -1.5685
  176SAPS  H17S20085   6.873   4.651   4.021 -0.3995  1.6993  2.0151
  176SAPS  C21820086   6.845   4.863   3.931  0.0043  0.0202  0.1788
  176SAPS  H18R20087   6.870   4.910   4.029 -0.7246  1.5780 -0.3498
  176SAPS  H18S20088   6.759   4.928   3.902 -1.3933 -1.7651  0.0905
  176SAPS  C21920089   6.959   4.871   3.832  0.5678 -0.3903 -0.2213
  176SAPS  H19R20090   6.963   4.982   3.819 -0.6457 -0.3514 -0.3896
  176SAPS  H19S20091   6.934   4.827   3.734  1.4214  0.9805 -1.0913
  176SAPS  C22020092   7.087   4.804   3.881 -1.3762 -0.1981 -0.1649
  176SAPS  H20R20093   7.173   4.873   3.872 -2.3605  1.0360 -0.4298
  176SAPS  H20S20094   7.097   4.709   3.825 -0.1331  0.5346 -1.2372
  176SAPS  H20T20095   7.064   4.777   3.987 -2.2348  1.6306  0.1641
  176SAPS   C3320096   5.782   4.132   3.249  0.1093 -0.2608 -0.2314
  176SAPS   H3X20097   5.774   4.023   3.269  0.0952 -0.2266 -0.0403
  176SAPS   H3Y20098   5.684   4.156   3.203  0.2738 -3.4235 -2.4795
  176SAPS   C3420099   5.782   4.209   3.381  0.0189  0.4287  0.8859
  176SAPS   H4X20100   5.769   4.318   3.364  1.5431  0.3803 -1.0216
  176SAPS   H4Y20101   5.882   4.192   3.425 -0.8606  0.1930  2.8775
  176SAPS   C3520102   5.663   4.169   3.474 -0.0240  0.1561  0.5770
  176SAPS   H5X20103   5.573   4.188   3.413  1.0776  0.4748 -1.0011
  176SAPS   H5Y20104   5.653   4.240   3.559  2.3920  0.8229  0.3694
  176SAPS   C3620105   5.676   4.024   3.517 -0.6561 -0.7054  0.1616
  176SAPS   H6X20106   5.775   4.015   3.567 -1.1482 -3.3484  0.8099
  176SAPS   H6Y20107   5.675   3.944   3.441 -0.3960 -0.8126  0.2689
  176SAPS   C3720108   5.574   3.981   3.626 -0.2881  0.1691  0.4070
  176SAPS   H7X20109   5.471   3.987   3.584 -0.4491 -1.5545  0.4843
  176SAPS   H7Y20110   5.580   4.047   3.715  0.8543 -0.9844  1.2171
  176SAPS   C3820111   5.601   3.836   3.661 -0.4924  0.4362  0.0054
  176SAPS   H8X20112   5.705   3.820   3.695 -1.0843  0.7093  2.0960
  176SAPS   H8Y20113   5.572   3.771   3.576 -0.3030  0.2846  0.0568
  176SAPS   C3920114   5.524   3.799   3.782  0.7051  0.6435  0.0220
  176SAPS   H9X20115   5.414   3.810   3.773  0.2778 -1.0459  2.3302
  176SAPS   H9Y20116   5.563   3.875   3.853  0.5232 -1.8568  2.9926
  176SAPS  C31020117   5.551   3.652   3.845  0.0342 -0.2047 -0.2389
  176SAPS  H10X20118   5.662   3.643   3.842  0.0309 -0.5841  0.5011
  176SAPS  H10Y20119   5.507   3.573   3.781 -0.9842 -1.3088  1.7125
  176SAPS  C31120120   5.502   3.658   3.986  0.0158  0.6981 -0.3668
  176SAPS  H11X20121   5.395   3.687   3.993 -0.6534 -1.8102  1.0295
  176SAPS  H11Y20122   5.556   3.742   4.035 -2.7554  1.4882  1.5815
  176SAPS  C31220123   5.509   3.524   4.064  0.1579  0.0819 -0.0875
  176SAPS  H12X20124   5.482   3.549   4.169 -0.9981  1.0347 -0.5809
  176SAPS  H12Y20125   5.615   3.491   4.066  0.4250  0.9231  0.3634
  176SAPS  C31320126   5.422   3.408   4.009  0.0042  0.2782 -0.7275
  176SAPS  H13X20127   5.491   3.343   3.950  0.4012 -0.5443  0.6015
  176SAPS  H13Y20128   5.346   3.443   3.936 -0.9793 -1.2382 -0.4525
  176SAPS  C31420129   5.354   3.339   4.118 -0.0402  0.4573  0.4030
  176SAPS  H14X20130   5.414   3.322   4.210 -0.6219 -1.1645  0.5104
  176SAPS  H14Y20131   5.316   3.237   4.098 -1.8218  0.2626  3.8125
  176SAPS  C31520132   5.235   3.418   4.170 -0.1858  0.3991  0.5376
  176SAPS  H15X20133   5.154   3.425   4.093  0.1230 -1.4420 -0.0151
  176SAPS  H15Y20134   5.259   3.522   4.200  2.9495 -0.0099 -0.1855
  176SAPS  C31620135   5.178   3.332   4.284 -0.3835  0.3625  0.2223
  176SAPS  H16X20136   5.238   3.321   4.377 -0.3276  1.4962  0.3322
  176SAPS  H16Y20137   5.154   3.227   4.254  0.2346 -0.0034  0.9816
  176SAPS  C31720138   5.046   3.396   4.344 -0.2431  0.0477  0.1484
  176SAPS  H17X20139   4.973   3.410   4.262 -0.4837 -0.4877  0.2630
  176SAPS  H17Y20140   5.082   3.492   4.387 -1.2078  0.6444 -0.3462
  176SAPS  C31820141   4.980   3.318   4.453  0.2608 -0.2248  0.5704
  176SAPS  H18X20142   4.877   3.351   4.480  0.1125  0.1215 -0.3860
  176SAPS  H18Y20143   5.048   3.306   4.540  1.0354 -0.1177 -0.0077
  176SAPS  H18Z20144   4.955   3.218   4.412 -1.1830  0.2390  0.2473
  177SAPS     N20145   2.110   0.018   1.993 -0.0784 -0.1039  0.2633
  177SAPS   HN120146   2.153   0.077   2.067 -1.4194  1.6870 -0.3346
  177SAPS   HN220147   2.080  -0.070   2.041 -0.1061 -0.4247 -0.3405
  177SAPS   HN320148   2.184  -0.003   1.924  0.1428 -1.1646  0.8012
  177SAPS   C1220149   1.998   0.075   1.917 -0.5125  0.5587  0.1100
  177SAPS  H12A20150   2.031   0.169   1.875  0.0926 -0.1680 -1.1055
  177SAPS   C1320151   1.975  -0.007   1.784 -0.6313  0.3342 -0.5902
  177SAPS  O13A20152   2.075  -0.072   1.738  0.1659 -0.0624  0.5391
  177SAPS  O13B20153   1.890   0.044   1.707  0.1928  0.6287  0.3942
  177SAPS   C1120154   1.875   0.084   2.011 -0.1268  0.0561 -1.5035
  177SAPS  H11A20155   1.828  -0.010   2.050  1.1155 -0.2588 -0.7102
  177SAPS  H11B20156   1.812   0.132   1.934  1.6750  2.0686 -1.7923
  177SAPS     P20157   1.786   0.248   2.187  0.3828  0.4248 -0.1148
  177SAPS   O1320158   1.708   0.330   2.096 -0.1158  0.2277 -0.4060
  177SAPS   O1420159   1.708   0.142   2.255  0.3851 -0.1210 -0.0262
  177SAPS   O1220160   1.910   0.184   2.112  0.3546  0.1114 -0.0125
  177SAPS   O1120161   1.853   0.331   2.304  0.1176 -0.0378 -0.2489
  177SAPS    C120162   1.970   0.403   2.270 -0.1224 -0.2592 -0.5243
  177SAPS    HA20163   2.050   0.329   2.249  1.4004 -0.7052  5.0376
  177SAPS    HB20164   1.947   0.466   2.182 -1.3242 -0.2511 -0.2327
  177SAPS    C220165   2.019   0.484   2.396  0.9098  0.0553 -0.0802
  177SAPS    HS20166   2.113   0.527   2.356 -0.2471 -0.2844 -3.5336
  177SAPS   O2120167   2.033   0.411   2.520 -0.0432 -0.0348  0.4570
  177SAPS   C2120168   2.144   0.342   2.523 -0.3563 -0.3279  0.4951
  177SAPS   O2220169   2.234   0.344   2.440  0.1064  0.1997  0.3765
  177SAPS   C2220170   2.144   0.254   2.642 -0.6086  0.2053  0.2240
  177SAPS   H2R20171   2.039   0.264   2.679 -0.5718 -0.2687  0.4646
  177SAPS   H2S20172   2.166   0.149   2.613  1.6115  0.9873 -1.1436
  177SAPS    C320173   1.923   0.608   2.419 -0.6128 -0.0983 -0.3120
  177SAPS    HX20174   1.823   0.562   2.403 -1.1386  1.4204 -1.6209
  177SAPS    HY20175   1.935   0.678   2.334  0.0636 -1.3254 -1.2643
  177SAPS   O3120176   1.945   0.660   2.549  0.3444 -0.1592 -0.7263
  177SAPS   C3120177   2.026   0.758   2.559  0.3511 -0.0971  0.9642
  177SAPS   O3220178   2.102   0.793   2.472 -0.5706 -0.5203  0.8119
  177SAPS   C3220179   2.050   0.787   2.703 -0.7273 -0.3508  0.0330
  177SAPS   H2X20180   2.157   0.759   2.718 -0.1513  1.2394 -0.8404
  177SAPS   H2Y20181   1.987   0.720   2.765  1.9497 -1.2183  2.0294
  177SAPS   C2320182   2.257   0.301   2.742 -0.3519 -0.7293  0.0371
  177SAPS   H3R20183   2.356   0.299   2.691 -0.2675  1.1758  0.0795
  177SAPS   H3S20184   2.258   0.238   2.833 -0.3296 -0.2669  0.3564
  177SAPS   C2420185   2.218   0.437   2.791 -0.9065  0.4403  0.1743
  177SAPS   H4R20186   2.112   0.432   2.824 -0.6916 -2.4010  0.7198
  177SAPS   H4S20187   2.217   0.508   2.705 -1.2862 -1.5814 -1.5846
  177SAPS   C2520188   2.309   0.475   2.904 -0.4717  0.9228  0.0889
  177SAPS   H5R20189   2.413   0.450   2.879 -1.7150 -2.0094 -2.9889
  177SAPS   C2620190   2.275   0.521   3.027 -0.0688  0.0371  0.0493
  177SAPS   H6R20191   2.355   0.526   3.102  0.7023  0.1453 -0.7619
  177SAPS   C2720192   2.139   0.563   3.074 -0.3916 -0.1026  0.6829
  177SAPS   H7R20193   2.087   0.471   3.108 -2.0914  0.9564  1.0602
  177SAPS   H7S20194   2.086   0.616   2.992  0.0081  0.3506  0.7085
  177SAPS   C2820195   2.143   0.653   3.198  0.3831  0.2966  0.2983
  177SAPS   H8R20196   2.227   0.624   3.263  1.0592  0.0163 -0.6788
  177SAPS   C2920197   2.079   0.767   3.231 -0.1638 -0.3346  0.0680
  177SAPS   H9R20198   2.099   0.817   3.327  1.0704  0.1473 -0.4204
  177SAPS  C21020199   1.963   0.838   3.161  0.0614 -0.2831  0.3335
  177SAPS  H10R20200   1.989   0.876   3.060 -2.8937  3.7955  0.8057
  177SAPS  H10S20201   1.932   0.923   3.227  2.2011 -0.6310  1.8839
  177SAPS  C21120202   1.833   0.755   3.136 -0.5092 -0.2406 -0.2780
  177SAPS  H11R20203   1.863   0.666   3.079  2.5054 -0.4007  1.3703
  177SAPS  C21220204   1.702   0.788   3.160 -0.0033 -0.4208  0.6291
  177SAPS  H12R20205   1.620   0.718   3.142 -1.5457  1.2198  1.0076
  177SAPS  C21320206   1.669   0.913   3.244  0.6102  0.2751  0.3899
  177SAPS  H13R20207   1.697   1.001   3.181 -0.8694 -0.1479 -0.9382
  177SAPS  H13S20208   1.734   0.914   3.334  0.1736  1.7460  0.7300
  177SAPS  C21420209   1.525   0.906   3.294  1.1258 -0.0419  0.4646
  177SAPS  H14R20210   1.450   0.906   3.214  2.7902  0.6114 -1.1761
  177SAPS  C21520211   1.483   0.919   3.420  0.4482 -0.5486  1.4640
  177SAPS  H15R20212   1.378   0.893   3.439  0.2274  0.8410  2.2210
  177SAPS  C21620213   1.572   0.935   3.534 -0.5119 -0.4374 -0.6502
  177SAPS  H16R20214   1.634   1.027   3.531  1.8470 -1.9644 -1.6034
  177SAPS  H16S20215   1.653   0.859   3.545 -1.0455 -1.0841 -1.0799
  177SAPS  C21720216   1.487   0.936   3.666  0.3979 -0.0696 -0.0709
  177SAPS  H17R20217   1.385   0.895   3.650 -0.4226  2.2241 -1.3136
  177SAPS  H17S20218   1.455   1.039   3.693 -0.9605 -0.5396  0.1560
  177SAPS  C21820219   1.579   0.872   3.778  0.5698  0.1293  0.0985
  177SAPS  H18R20220   1.667   0.939   3.788 -0.1752  1.0206  0.8498
  177SAPS  H18S20221   1.623   0.772   3.756 -0.0058 -0.2551  0.6481
  177SAPS  C21920222   1.505   0.871   3.906  0.4529 -0.2332 -0.3734
  177SAPS  H19R20223   1.422   0.945   3.908  0.4352 -0.2056  2.6528
  177SAPS  H19S20224   1.574   0.906   3.986  0.5974 -0.8519 -0.2176
  177SAPS  C22020225   1.456   0.734   3.941 -0.6723 -0.5202 -0.4068
  177SAPS  H20R20226   1.544   0.667   3.925 -0.7211 -1.1929  1.6966
  177SAPS  H20S20227   1.369   0.705   3.879  0.0009  0.4549 -1.8349
  177SAPS  H20T20228   1.438   0.713   4.049  1.0528 -0.7396 -0.1312
  177SAPS   C3320229   2.024   0.937   2.733  0.0675 -0.2942  0.5326
  177SAPS   H3X20230   2.065   0.998   2.649 -0.1519 -0.8396  0.0225
  177SAPS   H3Y20231   2.078   0.974   2.822  2.2583 -0.1827 -0.7762
  177SAPS   C3420232   1.874   0.965   2.749 -0.2605  0.8193  0.6334
  177SAPS   H4X20233   1.809   0.897   2.807 -0.2399  0.2621  0.0123
  177SAPS   H4Y20234   1.836   0.965   2.645  0.2955  0.6986  0.4241
  177SAPS   C3520235   1.850   1.113   2.792  0.0840  0.8758  0.3789
  177SAPS   H5X20236   1.763   1.159   2.739  0.2601 -1.0664 -1.7788
  177SAPS   H5Y20237   1.944   1.163   2.760 -0.1514  1.6263  0.8442
  177SAPS   C3620238   1.828   1.128   2.943 -0.5283 -0.2774 -0.2924
  177SAPS   H6X20239   1.921   1.094   2.993 -0.9541 -2.5166 -0.8971
  177SAPS   H6Y20240   1.750   1.058   2.979 -0.5462  0.8546  2.0876
  177SAPS   C3720241   1.781   1.271   2.983  0.2205 -0.0237 -0.3370
  177SAPS   H7X20242   1.686   1.288   2.928  0.4880  1.2622 -0.4393
  177SAPS   H7Y20243   1.858   1.340   2.943 -0.9794  1.4014 -0.2710
  177SAPS   C3820244   1.741   1.265   3.132 -0.3999  1.1469 -0.2284
  177SAPS   H8X20245   1.829   1.219   3.181  1.0558  1.5139 -2.3367
  177SAPS   H8Y20246   1.660   1.195   3.162 -0.1110  1.5423  1.5461
  177SAPS   C3920247   1.731   1.404   3.187 -0.1590 -0.6315  0.7920
  177SAPS   H9X20248   1.625   1.432   3.175  0.5891  2.8324  1.2633
  177SAPS   H9Y20249   1.795   1.472   3.127 -0.0556 -0.7198  0.7998
  177SAPS  C31020250   1.768   1.424   3.335  0.3232  0.3061 -0.0285
  177SAPS  H10X20251   1.727   1.523   3.367  0.3083  0.7756 -1.4548
  177SAPS  H10Y20252   1.878   1.426   3.349  0.4432  0.6506 -0.9345
  177SAPS  C31120253   1.700   1.326   3.431  0.3071  0.0699 -0.3707
  177SAPS  H11X20254   1.734   1.221   3.415 -0.0441  0.0351 -0.9340
  177SAPS  H11Y20255   1.590   1.323   3.411  0.1979  1.5578 -0.0400
  177SAPS  C31220256   1.723   1.368   3.580  0.1019 -0.0596  0.3187
  177SAPS  H12X20257   1.694   1.474   3.593  1.1333  0.0861  1.7232
  177SAPS  H12Y20258   1.833   1.368   3.595  0.0417 -0.9802  0.8019
  177SAPS  C31320259   1.663   1.279   3.688  0.0014 -0.1434 -0.6404
  177SAPS  H13X20260   1.702   1.177   3.670  0.3490 -0.3746  1.1681
  177SAPS  H13Y20261   1.556   1.282   3.657 -0.2520 -1.6880  0.0012
  177SAPS  C31420262   1.676   1.318   3.836 -0.3538  0.5024 -0.1319
  177SAPS  H14X20263   1.626   1.414   3.860  1.3057  1.4401 -0.2464
  177SAPS  H14Y20264   1.783   1.337   3.860  0.5267 -0.7197 -2.7564
  177SAPS  C31520265   1.627   1.207   3.924  0.4608 -0.2180 -0.3011
  177SAPS  H15X20266   1.705   1.131   3.903  1.8449  0.6600  1.3934
  177SAPS  H15Y20267   1.528   1.177   3.884  0.9311 -2.2723 -0.0464
  177SAPS  C31620268   1.622   1.233   4.075  0.4369 -1.0208  0.7093
  177SAPS  H16X20269   1.552   1.315   4.101 -0.0368 -1.0043 -0.5812
  177SAPS  H16Y20270   1.722   1.268   4.108  0.3757  0.5341 -0.6684
  177SAPS  C31720271   1.586   1.106   4.151 -0.6459 -1.1563  0.6733
  177SAPS  H17X20272   1.654   1.020   4.134  1.7678  0.5025  1.3757
  177SAPS  H17Y20273   1.482   1.077   4.127 -0.8592 -1.3012  1.7369
  177SAPS  C31820274   1.587   1.122   4.305 -0.1582  0.1125  0.4499
  177SAPS  H18X20275   1.687   1.147   4.346 -0.1960 -2.2353  2.1795
  177SAPS  H18Y20276   1.550   1.026   4.349 -0.1653 -0.9846 -1.7758
  177SAPS  H18Z20277   1.511   1.194   4.340 -0.6580 -0.3142  0.2599
  178SAPS     N20278   6.495   2.248   2.146  0.0485  0.3575 -0.4151
  178SAPS   HN120279   6.544   2.292   2.226  1.6055  0.9314 -1.6389
  178SAPS   HN220280   6.478   2.146   2.153 -0.3272  0.4096 -0.5344
  178SAPS   HN320281   6.547   2.279   2.061  0.2987  2.7538  0.5580
  178SAPS   C1220282   6.360   2.301   2.144 -0.2161  0.1892 -0.1713
  178SAPS  H12A20283   6.356   2.400   2.100  0.9942 -0.2874 -1.3970
  178SAPS   C1320284   6.255   2.228   2.059  0.8030  0.2129  0.0212
  178SAPS  O13A20285   6.277   2.115   2.005  0.0619 -0.0398 -0.4817
  178SAPS  O13B20286   6.144   2.288   2.050  0.3164 -0.1453  0.7775
  178SAPS   C1120287   6.308   2.324   2.290  0.2381 -0.3740  0.0065
  178SAPS  H11A20288   6.287   2.224   2.333  0.3889 -0.3973  0.0271
  178SAPS  H11B20289   6.213   2.381   2.275  0.4928 -0.4560 -2.3272
  178SAPS     P20290   6.431   2.356   2.513  0.3660 -0.4943 -0.0782
  178SAPS   O1320291   6.331   2.263   2.560  0.0758  0.2582 -0.1985
  178SAPS   O1420292   6.572   2.317   2.526 -0.1063  0.2512 -0.2667
  178SAPS   O1220293   6.409   2.399   2.364  0.1921  0.4139  0.3923
  178SAPS   O1120294   6.419   2.493   2.589  0.3214  0.4260 -0.5170
  178SAPS    C120295   6.488   2.519   2.710  0.4741  0.2040  0.2049
  178SAPS    HA20296   6.598   2.520   2.695  0.6815 -1.0897  1.3657
  178SAPS    HB20297   6.469   2.623   2.745  1.8154  0.1364  1.2195
  178SAPS    C220298   6.454   2.419   2.824 -0.3549 -1.4134  0.1925
  178SAPS    HS20299   6.503   2.322   2.802  1.0369 -0.7972  0.4546
  178SAPS   O2120300   6.312   2.405   2.828  0.6440 -0.3746  0.3182
  178SAPS   C2120301   6.272   2.305   2.906  0.6193  0.4192  0.2035
  178SAPS   O2220302   6.339   2.220   2.961 -0.0515  0.2168  0.1092
  178SAPS   C2220303   6.113   2.295   2.924  0.0307 -0.0224  0.4413
  178SAPS   H2R20304   6.075   2.275   2.821  0.7938  2.1467 -0.3169
  178SAPS   H2S20305   6.095   2.201   2.980 -0.8858  0.8374  1.6430
  178SAPS    C320306   6.497   2.485   2.964  0.1405  0.1046 -0.9570
  178SAPS    HX20307   6.482   2.402   3.036 -1.6116  0.5068 -0.8195
  178SAPS    HY20308   6.425   2.567   2.986  0.8079  0.7161 -1.0153
  178SAPS   O3120309   6.632   2.538   2.968  0.2058 -0.9902 -0.7607
  178SAPS   C3120310   6.708   2.510   3.080  0.4541 -0.2544 -0.1871
  178SAPS   O3220311   6.661   2.460   3.179 -0.7368  0.4657  0.6102
  178SAPS   C3220312   6.854   2.535   3.059  0.5893 -0.0460  0.0165
  178SAPS   H2X20313   6.879   2.638   3.026 -0.4215  1.1011  2.5724
  178SAPS   H2Y20314   6.878   2.464   2.977 -0.5311 -1.2200  0.6698
  178SAPS   C2320315   6.033   2.412   2.979 -0.1367  0.3070 -0.6106
  178SAPS   H3R20316   5.928   2.388   3.009  0.1912  0.5683  0.8509
  178SAPS   H3S20317   6.035   2.491   2.901  4.3238  1.3354  0.2674
  178SAPS   C2420318   6.110   2.473   3.099  0.1124  0.2592  0.2017
  178SAPS   H4R20319   6.046   2.559   3.128  1.2871  1.8744 -1.7194
  178SAPS   H4S20320   6.199   2.522   3.055 -0.3151  0.8251 -0.0531
  178SAPS   C2520321   6.127   2.374   3.213 -0.6293 -0.6855 -0.3188
  178SAPS   H5R20322   6.137   2.267   3.188 -1.3899 -0.8786  0.1673
  178SAPS   C2620323   6.121   2.402   3.344  0.4494 -0.2826  0.0597
  178SAPS   H6R20324   6.114   2.315   3.411  1.4989 -0.7374 -0.3937
  178SAPS   C2720325   6.096   2.538   3.407 -0.1300  0.2483 -0.0559
  178SAPS   H7R20326   6.000   2.535   3.462  0.2391 -1.3486  0.5615
  178SAPS   H7S20327   6.103   2.612   3.324  0.0425  1.4804  1.0413
  178SAPS   C2820328   6.203   2.581   3.505  0.2832 -0.8442  0.3672
  178SAPS   H8R20329   6.306   2.569   3.469  0.2834 -1.2025  0.4787
  178SAPS   C2920330   6.176   2.644   3.618 -0.4834 -0.2267  0.4577
  178SAPS   H9R20331   6.263   2.677   3.678 -0.8061  0.5492  0.4992
  178SAPS  C21020332   6.046   2.685   3.684 -0.0227 -0.3178 -0.1569
  178SAPS  H10R20333   6.036   2.623   3.776  0.6787  1.0530  0.8987
  178SAPS  H10S20334   5.953   2.672   3.625  1.0104 -1.0943 -1.6646
  178SAPS  C21120335   6.056   2.832   3.734 -0.2154  0.3077 -0.0481
  178SAPS  H11R20336   6.026   2.904   3.656  0.9694  2.5757  1.4843
  178SAPS  C21220337   6.094   2.872   3.853  0.7109 -0.3419 -0.2049
  178SAPS  H12R20338   6.109   2.980   3.864  1.7924 -0.2927 -1.8099
  178SAPS  C21320339   6.139   2.790   3.970 -0.2603 -0.4897 -0.0379
  178SAPS  H13R20340   6.249   2.774   3.961 -0.2692 -2.3459  2.3909
  178SAPS  H13S20341   6.096   2.689   3.957 -1.4324  0.1382 -1.3117
  178SAPS  C21420342   6.109   2.845   4.104  0.0701  0.1577  0.5230
  178SAPS  H14R20343   6.028   2.919   4.108  0.2390  0.2984  2.0767
  178SAPS  C21520344   6.162   2.804   4.222  0.5172  0.4494 -0.0652
  178SAPS  H15R20345   6.130   2.856   4.313  0.6513  0.1825  0.1358
  178SAPS  C21620346   6.260   2.689   4.228  0.5851 -0.3672 -0.4851
  178SAPS  H16R20347   6.360   2.731   4.253  1.1726 -1.0788 -1.5569
  178SAPS  H16S20348   6.262   2.635   4.131 -0.5837 -1.4369  0.0515
  178SAPS  C21720349   6.219   2.592   4.341 -0.5437 -0.4190  0.0639
  178SAPS  H17R20350   6.308   2.528   4.355 -1.3443 -1.1837  2.0646
  178SAPS  H17S20351   6.136   2.530   4.301  1.7043 -1.7755 -2.9466
  178SAPS  C21820352   6.173   2.656   4.470 -0.3506 -0.2280 -1.1109
  178SAPS  H18R20353   6.075   2.705   4.455 -1.0506 -0.8654  1.0234
  178SAPS  H18S20354   6.255   2.720   4.508  0.7874 -2.8064  1.1423
  178SAPS  C21920355   6.144   2.547   4.579  0.3405 -0.0223  0.5389
  178SAPS  H19R20356   6.124   2.591   4.679  0.7954 -1.9183  1.5314
  178SAPS  H19S20357   6.242   2.496   4.592 -0.6008 -2.2680 -0.6373
  178SAPS  C22020358   6.032   2.445   4.533  0.0732 -0.1578 -0.0474
  178SAPS  H20R20359   6.012   2.375   4.617  3.8474 -0.6366  0.6183
  178SAPS  H20S20360   6.080   2.379   4.458  4.0412  1.4413  0.8149
  178SAPS  H20T20361   5.936   2.483   4.492 -0.8879 -2.6413 -0.2599
  178SAPS   C3320362   6.945   2.502   3.182 -0.7361  0.8411 -0.1134
  178SAPS   H3X20363   6.965   2.393   3.190 -0.3959  0.7435 -1.8793
  178SAPS   H3Y20364   6.887   2.536   3.270  0.7324  0.1069  1.1857
  178SAPS   C3420365   7.071   2.583   3.179  0.9181 -0.2060 -0.2731
  178SAPS   H4X20366   7.047   2.688   3.152  1.6349 -0.7730 -3.5554
  178SAPS   H4Y20367   7.125   2.541   3.092  0.8927 -2.4502  0.7261
  178SAPS   C3520368   7.158   2.575   3.306 -0.7866 -0.1248 -0.2032
  178SAPS   H5X20369   7.117   2.654   3.373 -0.6918  0.7605 -1.1770
  178SAPS   H5Y20370   7.259   2.607   3.274  0.1094 -3.4597 -1.0658
  178SAPS   C3620371   7.156   2.437   3.381 -0.0225  0.0500 -0.4270
  178SAPS   H6X20372   7.208   2.366   3.313 -0.0190  0.1400 -0.5193
  178SAPS   H6Y20373   7.060   2.401   3.423  0.3230  0.5608  0.8397
  178SAPS   C3720374   7.244   2.444   3.503  0.1507 -0.4570  0.7217
  178SAPS   H7X20375   7.342   2.486   3.475 -1.0680  1.3855 -1.0381
  178SAPS   H7Y20376   7.263   2.345   3.551  1.3124  0.0184  1.2579
  178SAPS   C3820377   7.175   2.525   3.613 -0.3521 -0.5593  0.4424
  178SAPS   H8X20378   7.074   2.483   3.630 -0.0273 -0.3386  3.5281
  178SAPS   H8Y20379   7.161   2.626   3.567  1.4771 -1.5902 -2.6830
  178SAPS   C3920380   7.247   2.527   3.748 -0.1424  0.1761 -0.2103
  178SAPS   H9X20381   7.357   2.520   3.732 -0.0691  1.3224 -0.3216
  178SAPS   H9Y20382   7.226   2.431   3.800 -1.2447  0.2716 -0.4625
  178SAPS  C31020383   7.214   2.654   3.828 -0.5474  0.4411 -0.4453
  178SAPS  H10X20384   7.106   2.660   3.856 -0.4166  0.7968 -0.0135
  178SAPS  H10Y20385   7.240   2.748   3.775  2.4633 -0.4649 -0.7397
  178SAPS  C31120386   7.280   2.637   3.974 -0.8814  0.2228  0.3883
  178SAPS  H11X20387   7.391   2.639   3.966 -0.8206  0.4302  1.1484
  178SAPS  H11Y20388   7.256   2.540   4.024 -0.7410  0.3803  0.7617
  178SAPS  C31220389   7.243   2.749   4.068 -0.2158 -0.2415 -0.2506
  178SAPS  H12X20390   7.133   2.750   4.082 -0.2005 -0.4423 -0.1049
  178SAPS  H12Y20391   7.264   2.852   4.031 -2.3231  0.5942  0.7486
  178SAPS  C31320392   7.309   2.748   4.211  0.1250 -0.4777  0.5512
  178SAPS  H13X20393   7.421   2.747   4.210  0.1280 -0.2953 -0.6075
  178SAPS  H13Y20394   7.280   2.655   4.264 -0.2876  0.9744  3.0064
  178SAPS  C31420395   7.270   2.871   4.290 -0.8028 -0.2817  0.0238
  178SAPS  H14X20396   7.161   2.891   4.282 -1.2289 -2.1146  0.7938
  178SAPS  H14Y20397   7.317   2.956   4.234  1.2216 -0.3586  1.4863
  178SAPS  C31520398   7.323   2.877   4.437 -0.3077  0.0144 -0.5282
  178SAPS  H15X20399   7.308   2.778   4.485  1.8805 -0.6757 -1.1363
  178SAPS  H15Y20400   7.269   2.956   4.494  0.8148  0.2711  0.2284
  178SAPS  C31620401   7.477   2.900   4.450 -0.0208 -0.7756 -0.0795
  178SAPS  H16X20402   7.515   2.998   4.414  0.2176 -0.6886  0.4021
  178SAPS  H16Y20403   7.515   2.826   4.377 -0.5597  0.0514 -1.2269
  178SAPS  C31720404   7.544   2.870   4.586  0.1170 -0.0874  0.2414
  178SAPS  H17X20405   7.653   2.855   4.567 -0.3935 -0.8182 -2.4089
  178SAPS  H17Y20406   7.503   2.777   4.633 -0.1571 -0.2360 -0.2898
  178SAPS  C31820407   7.517   2.989   4.683 -0.5808  0.5331  0.1178
  178SAPS  H18X20408   7.549   3.085   4.637  0.5075 -0.1903 -0.6829
  178SAPS  H18Y20409   7.573   2.976   4.778 -0.1133  0.6396 -0.1376
  178SAPS  H18Z20410   7.408   2.980   4.701 -0.8028  1.1836 -0.8181
  179SAPS     N20411   2.181   5.194   2.595 -0.8369  0.1399  0.1912
  179SAPS   HN120412   2.086   5.198   2.553 -0.8482  0.7007  0.2711
  179SAPS   HN220413   2.185   5.117   2.665 -1.6176 -2.1531 -2.1453
  179SAPS   HN320414   2.202   5.285   2.641  0.3451 -0.8345  1.6719
  179SAPS   C1220415   2.281   5.157   2.487  0.1013 -0.2532 -0.1731
  179SAPS  H12A20416   2.280   5.049   2.484  1.1477 -0.2859  0.3388
  179SAPS   C1320417   2.227   5.204   2.349  0.2687  0.2746  0.5469
  179SAPS  O13A20418   2.103   5.229   2.333 -1.0610  0.2542  0.5487
  179SAPS  O13B20419   2.297   5.165   2.251 -0.0831 -0.1387 -0.6930
  179SAPS   C1120420   2.422   5.217   2.511  0.2902  0.2772  0.7518
  179SAPS  H11A20421   2.410   5.323   2.542  2.1028  0.1754  2.0124
  179SAPS  H11B20422   2.480   5.221   2.417 -0.9291 -0.4878 -0.0569
  179SAPS     P20423   2.584   5.029   2.590  0.3334  0.2308  0.0542
  179SAPS   O1320424   2.519   4.930   2.487 -0.6813  0.0696 -0.0217
  179SAPS   O1420425   2.721   5.076   2.552  0.0664  0.1469  0.0820
  179SAPS   O1220426   2.494   5.150   2.616  0.3451 -0.4260 -0.1026
  179SAPS   O1120427   2.602   4.949   2.726  0.1206  0.2745  0.0306
  179SAPS    C120428   2.664   5.011   2.833  0.0369 -0.3133 -0.6594
  179SAPS    HA20429   2.658   5.121   2.837  1.6519 -0.2378  0.1024
  179SAPS    HB20430   2.620   4.979   2.930 -0.5822  0.3435 -0.7144
  179SAPS    C220431   2.814   4.970   2.842  0.0148 -0.2566 -0.0007
  179SAPS    HS20432   2.857   4.988   2.741  0.3780 -1.7701 -0.1465
  179SAPS   O2120433   2.837   4.829   2.876  0.0041  0.2722 -0.1948
  179SAPS   C2120434   2.958   4.788   2.848  0.1407 -0.2498  0.0546
  179SAPS   O2220435   3.044   4.855   2.794 -0.0346 -0.2608  0.0895
  179SAPS   C2220436   2.995   4.655   2.922  0.1365  0.5005  0.4537
  179SAPS   H2R20437   2.956   4.653   3.026  0.3392 -1.4756  0.5292
  179SAPS   H2S20438   2.942   4.578   2.863  1.0879 -0.4835  0.8522
  179SAPS    C320439   2.882   5.064   2.945 -0.1807 -1.3949 -0.4916
  179SAPS    HX20440   2.858   5.168   2.914  0.5720 -2.1101 -3.8748
  179SAPS    HY20441   2.990   5.040   2.935  0.0079 -0.2545 -1.3068
  179SAPS   O3120442   2.831   5.038   3.076  0.2161 -0.1559  0.9073
  179SAPS   C3120443   2.893   5.112   3.169  0.0297 -0.0917  0.0949
  179SAPS   O3220444   2.971   5.204   3.152 -0.2175 -0.0428  0.8950
  179SAPS   C3220445   2.844   5.066   3.310 -0.0509  0.3938  0.5771
  179SAPS   H2X20446   2.880   4.961   3.322  1.8107  1.0189  0.8262
  179SAPS   H2Y20447   2.734   5.083   3.309  0.2031  2.2795  1.2170
  179SAPS   C2320448   3.145   4.630   2.916 -0.5561  0.6601 -0.1715
  179SAPS   H3R20449   3.191   4.686   2.832 -1.2237  2.1355  0.4108
  179SAPS   H3S20450   3.167   4.522   2.903  1.3759  0.7814  1.4270
  179SAPS   C2420451   3.221   4.672   3.047  0.2366  0.0313 -1.5902
  179SAPS   H4R20452   3.325   4.634   3.037  0.1762 -0.0367 -1.9797
  179SAPS   H4S20453   3.182   4.607   3.128  0.9323  0.5820 -0.7980
  179SAPS   C2520454   3.211   4.825   3.088 -0.2990  0.1607  0.2276
  179SAPS   H5R20455   3.225   4.904   3.012 -0.0732 -0.7121 -0.6548
  179SAPS   C2620456   3.181   4.865   3.216  0.6154  0.2931 -0.2960
  179SAPS   H6R20457   3.176   4.973   3.238 -0.9003  0.2747 -0.4098
  179SAPS   C2720458   3.159   4.772   3.339 -0.4323  0.3072  0.7409
  179SAPS   H7R20459   3.193   4.669   3.315 -0.0805  0.8439 -1.2618
  179SAPS   H7S20460   3.050   4.771   3.359 -0.5255  2.4916  0.6111
  179SAPS   C2820461   3.229   4.817   3.467  0.4994 -0.3108 -0.0191
  179SAPS   H8R20462   3.299   4.901   3.455 -0.5887  0.7171  0.6325
  179SAPS   C2920463   3.204   4.769   3.588  0.2211  0.9201 -0.3860
  179SAPS   H9R20464   3.255   4.800   3.681 -0.3723 -2.1006  1.0727
  179SAPS  C21020465   3.109   4.651   3.623 -0.7239  0.1919  0.4625
  179SAPS  H10R20466   3.153   4.575   3.691 -1.7679  0.0270  0.9662
  179SAPS  H10S20467   3.080   4.605   3.526 -1.1649  2.7790 -0.7375
  179SAPS  C21120468   2.986   4.713   3.682  0.5464 -0.8739  0.1265
  179SAPS  H11R20469   2.932   4.776   3.609  0.2669 -0.6441  0.5274
  179SAPS  C21220470   2.922   4.700   3.795  0.1852 -0.0678  0.2335
  179SAPS  H12R20471   2.828   4.756   3.802  1.1466  1.8945 -1.4802
  179SAPS  C21320472   2.964   4.598   3.900  0.5631  0.7881 -0.6567
  179SAPS  H13R20473   3.056   4.632   3.951  0.4821  0.7698 -0.4955
  179SAPS  H13S20474   2.988   4.501   3.853 -1.7741 -0.1515 -0.0739
  179SAPS  C21420475   2.842   4.569   3.988  0.1387 -0.3234  0.5571
  179SAPS  H14R20476   2.774   4.493   3.948  0.4310  1.0796 -3.0033
  179SAPS  C21520477   2.816   4.631   4.101 -0.4350  0.4496  0.4225
  179SAPS  H15R20478   2.728   4.604   4.161 -0.5235  2.1117  1.0983
  179SAPS  C21620479   2.898   4.750   4.150  0.4054  0.3994  0.2465
  179SAPS  H16R20480   2.839   4.845   4.155  3.8186  2.7979 -1.2639
  179SAPS  H16S20481   2.979   4.772   4.077 -1.3718  0.3609 -1.8404
  179SAPS  C21720482   2.956   4.730   4.292 -0.4630 -0.6267  0.2872
  179SAPS  H17R20483   3.001   4.628   4.293  0.2617 -0.3289  1.7556
  179SAPS  H17S20484   2.883   4.729   4.376  0.5756  0.1406  1.2385
  179SAPS  C21820485   3.076   4.823   4.339  0.2840 -0.5062  0.5383
  179SAPS  H18R20486   3.041   4.928   4.351  0.0580 -0.6940  1.6532
  179SAPS  H18S20487   3.146   4.823   4.253 -0.2184  2.9400 -0.0119
  179SAPS  C21920488   3.137   4.764   4.464  0.2777 -0.9923  0.3064
  179SAPS  H19R20489   3.198   4.675   4.438  0.8085 -0.8459  1.0281
  179SAPS  H19S20490   3.065   4.730   4.542 -1.1731 -0.5539 -0.7761
  179SAPS  C22020491   3.211   4.871   4.537 -0.1787  0.0178 -0.1741
  179SAPS  H20R20492   3.304   4.907   4.489  0.1981  0.1289  0.6268
  179SAPS  H20S20493   3.243   4.844   4.640  1.9647  2.2801 -0.1741
  179SAPS  H20T20494   3.145   4.958   4.554 -1.4167 -0.9142 -0.0360
  179SAPS   C3320495   2.918   5.156   3.414 -0.3197  0.4586 -0.2486
  179SAPS   H3X20496   2.889   5.260   3.390  0.9533  0.5594 -1.4821
  179SAPS   H3Y20497   3.029   5.152   3.404 -0.3527  0.1670 -0.5086
  179SAPS   C3420498   2.866   5.133   3.567 -0.5831  0.1842 -0.5069
  179SAPS   H4X20499   2.948   5.196   3.609 -2.9017  3.5371 -0.5927
  179SAPS   H4Y20500   2.888   5.027   3.593  1.7927  0.8827  0.6108
  179SAPS   C3520501   2.722   5.176   3.596 -0.3008 -0.4532 -0.7921
  179SAPS   H5X20502   2.714   5.177   3.707 -1.7428  0.4841 -0.8792
  179SAPS   H5Y20503   2.647   5.107   3.551 -0.0945 -0.0035 -1.8465
  179SAPS   C3620504   2.702   5.326   3.561 -0.1751 -0.4883  0.1875
  179SAPS   H6X20505   2.697   5.347   3.452  1.1798 -0.4666  0.1078
  179SAPS   H6Y20506   2.790   5.383   3.597 -0.4954 -0.0334  0.2548
  179SAPS   C3720507   2.573   5.391   3.626 -0.2242  0.5551  0.1081
  179SAPS   H7X20508   2.554   5.494   3.590 -0.8373 -0.1412 -1.6372
  179SAPS   H7Y20509   2.585   5.397   3.737 -2.0133  0.0079  0.3593
  179SAPS   C3820510   2.453   5.297   3.608  0.2220  0.4431  0.5140
  179SAPS   H8X20511   2.482   5.204   3.660 -0.2861  1.0302  1.8950
  179SAPS   H8Y20512   2.442   5.262   3.503  2.6193 -1.2310  0.7571
  179SAPS   C3920513   2.316   5.337   3.665  0.0179 -0.2113 -0.0292
  179SAPS   H9X20514   2.248   5.251   3.649 -0.8151  0.1919  1.2008
  179SAPS   H9Y20515   2.274   5.422   3.608 -2.2744 -1.3684 -0.1571
  179SAPS  C31020516   2.321   5.361   3.821 -0.3279  0.8213  0.0584
  179SAPS  H10X20517   2.222   5.382   3.867 -0.0384  1.3952  0.4374
  179SAPS  H10Y20518   2.373   5.460   3.822 -1.5510  1.4843 -0.4237
  179SAPS  C31120519   2.394   5.253   3.906 -0.1911  0.3701  0.2697
  179SAPS  H11X20520   2.501   5.237   3.880  0.4840  0.4741  2.7278
  179SAPS  H11Y20521   2.341   5.157   3.894 -0.9771  0.6403  1.4550
  179SAPS  C31220522   2.368   5.291   4.052  0.3384 -0.2703  0.0250
  179SAPS  H12X20523   2.264   5.302   4.089  0.9216  1.9666  1.1505
  179SAPS  H12Y20524   2.406   5.394   4.065 -0.6562  0.1011  0.0373
  179SAPS  C31320525   2.441   5.192   4.146  0.3464  1.2214 -1.1641
  179SAPS  H13X20526   2.545   5.179   4.110 -0.0062 -1.6055 -1.3859
  179SAPS  H13Y20527   2.394   5.091   4.149  0.0751  1.1872 -4.0743
  179SAPS  C31420528   2.439   5.252   4.289  0.2076  0.4233  0.1750
  179SAPS  H14X20529   2.333   5.255   4.323  0.5023  0.4943  1.1155
  179SAPS  H14Y20530   2.485   5.353   4.296  1.4845 -0.1600  0.7045
  179SAPS  C31520531   2.510   5.168   4.396 -0.3745  0.4297  0.2840
  179SAPS  H15X20532   2.474   5.063   4.394 -0.6863  0.5374 -2.0099
  179SAPS  H15Y20533   2.502   5.208   4.500  1.9478  0.1719  0.6121
  179SAPS  C31620534   2.660   5.169   4.372  0.5481  0.0224 -0.0542
  179SAPS  H16X20535   2.690   5.275   4.362  0.1578  0.2088  0.7262
  179SAPS  H16Y20536   2.688   5.129   4.272 -2.0044  0.4930 -1.0203
  179SAPS  C31720537   2.733   5.090   4.488 -0.1095  0.0143 -0.3355
  179SAPS  H17X20538   2.732   5.150   4.582 -1.1783  1.1585 -1.0423
  179SAPS  H17Y20539   2.840   5.080   4.462  0.2795  1.0262  0.7952
  179SAPS  C31820540   2.686   4.950   4.511 -0.8618 -0.4133  0.3437
  179SAPS  H18X20541   2.694   4.887   4.419 -0.4974 -1.5634  1.1339
  179SAPS  H18Y20542   2.581   4.936   4.542 -0.8796 -1.0276  0.0386
  179SAPS  H18Z20543   2.747   4.903   4.591 -1.9836 -2.5507  0.0282
  180SAPS     N20544   2.849   3.023   2.176 -0.2785 -0.2098 -0.4824
  180SAPS   HN120545   2.833   2.921   2.188 -1.2371  0.0089  0.1957
  180SAPS   HN220546   2.793   3.061   2.256  0.0020  3.3505 -1.8007
  180SAPS   HN320547   2.798   3.056   2.092 -0.6797  1.8069  0.4844
  180SAPS   C1220548   2.990   3.066   2.198 -0.0743 -0.0378 -0.6932
  180SAPS  H12A20549   3.015   3.051   2.302 -0.7150  2.3740 -0.1467
  180SAPS   C1320550   3.089   2.973   2.105  0.5453 -0.1049 -0.2648
  180SAPS  O13A20551   3.039   2.882   2.043 -0.0781  0.3280 -0.4478
  180SAPS  O13B20552   3.212   2.977   2.141  0.1215  0.0178 -0.1987
  180SAPS   C1120553   3.015   3.211   2.152  0.1194 -0.2826 -0.6591
  180SAPS  H11A20554   2.986   3.211   2.045  2.6504  0.6834 -1.4035
  180SAPS  H11B20555   3.122   3.238   2.154  0.5625 -1.9080 -1.3338
  180SAPS     P20556   2.997   3.392   2.339  0.0853  0.1330  0.2641
  180SAPS   O1320557   3.063   3.499   2.258 -0.0978  0.3818 -0.0674
  180SAPS   O1420558   2.899   3.431   2.442  0.1559  0.0814 -0.2534
  180SAPS   O1220559   2.930   3.305   2.231 -0.6692  0.3879  0.0478
  180SAPS   O1120560   3.108   3.297   2.392  0.0339  0.0969 -0.0759
  180SAPS    C120561   3.084   3.228   2.508 -0.6242  0.1263 -0.7554
  180SAPS    HA20562   2.980   3.194   2.527  0.4054 -1.0682  3.7245
  180SAPS    HB20563   3.127   3.126   2.511  0.8231  0.5190 -3.7454
  180SAPS    C220564   3.128   3.314   2.633  0.0400  0.6040 -0.7970
  180SAPS    HS20565   3.053   3.395   2.647 -0.0363  0.5836 -1.0732
  180SAPS   O2120566   3.257   3.359   2.617  0.4440  0.1603  0.3833
  180SAPS   C2120567   3.290   3.473   2.680 -0.3542  0.0141 -0.9441
  180SAPS   O2220568   3.218   3.538   2.752  0.5731  0.0081  0.0977
  180SAPS   C2220569   3.431   3.510   2.647 -0.2983 -0.0644  0.1918
  180SAPS   H2R20570   3.466   3.467   2.551  2.2274  0.1255  0.9617
  180SAPS   H2S20571   3.424   3.619   2.626  0.5370  0.2088  1.2689
  180SAPS    C320572   3.116   3.227   2.756  0.0621 -0.2997 -0.0037
  180SAPS    HX20573   3.194   3.149   2.746  0.1497 -0.0566 -1.6337
  180SAPS    HY20574   3.022   3.167   2.748 -0.2865  0.4197 -2.0431
  180SAPS   O3120575   3.110   3.293   2.888  0.3483 -0.0664  0.2859
  180SAPS   C3120576   3.198   3.258   2.970  0.2598 -0.4719 -0.0636
  180SAPS   O3220577   3.291   3.180   2.959  0.5383  0.4050 -0.0035
  180SAPS   C3220578   3.175   3.341   3.097  0.8485 -0.1234 -0.3353
  180SAPS   H2X20579   3.079   3.299   3.134  0.3463  0.3761 -1.0546
  180SAPS   H2Y20580   3.148   3.441   3.057 -2.5214 -1.1723 -1.0157
  180SAPS   C2320581   3.535   3.490   2.770 -0.1349 -0.3770  0.3781
  180SAPS   H3R20582   3.638   3.519   2.739 -0.3254 -0.8701 -0.7711
  180SAPS   H3S20583   3.532   3.380   2.785 -0.6555 -0.8660 -2.6834
  180SAPS   C2420584   3.488   3.561   2.904  0.5985  0.3421 -0.9630
  180SAPS   H4R20585   3.557   3.535   2.987  0.0949 -0.8783 -0.9078
  180SAPS   H4S20586   3.390   3.520   2.934  0.7843  0.3367 -0.3557
  180SAPS   C2520587   3.488   3.709   2.890  0.3228  0.1147 -0.2720
  180SAPS   H5R20588   3.549   3.743   2.805 -1.5230 -0.0398 -1.7330
  180SAPS   C2620589   3.429   3.790   2.975  0.5712 -0.0207 -0.5360
  180SAPS   H6R20590   3.427   3.898   2.953 -0.6155 -0.2892 -1.9333
  180SAPS   C2720591   3.355   3.744   3.102  0.2878 -0.4383 -0.3935
  180SAPS   H7R20592   3.378   3.821   3.178  0.5325 -2.1626  1.3516
  180SAPS   H7S20593   3.405   3.654   3.143  2.2203  0.4109 -0.7465
  180SAPS   C2820594   3.208   3.735   3.072 -0.9689 -0.0086 -0.0127
  180SAPS   H8R20595   3.178   3.659   2.999 -3.9601 -1.6770  2.7105
  180SAPS   C2920596   3.108   3.798   3.131 -0.4970 -0.4747  0.5231
  180SAPS   H9R20597   3.002   3.791   3.102 -0.2951 -0.3546 -0.2604
  180SAPS  C21020598   3.128   3.900   3.242  0.6942 -0.0321  1.0441
  180SAPS  H10R20599   3.038   3.965   3.240 -0.5181 -1.6310 -0.9010
  180SAPS  H10S20600   3.213   3.964   3.212  1.1652  0.9836  4.1969
  180SAPS  C21120601   3.153   3.839   3.379  0.0705  0.1803  0.3293
  180SAPS  H11R20602   3.159   3.729   3.385 -5.1624 -0.2733  2.5220
  180SAPS  C21220603   3.168   3.915   3.491 -0.1619  0.2758  0.3079
  180SAPS  H12R20604   3.193   3.864   3.585 -1.7500 -0.2720  0.4761
  180SAPS  C21320605   3.164   4.068   3.490  0.1235  0.2601  0.5005
  180SAPS  H13R20606   3.073   4.110   3.538  1.3207  1.1951  2.0508
  180SAPS  H13S20607   3.174   4.113   3.388 -1.4715 -0.0901  0.1680
  180SAPS  C21420608   3.289   4.119   3.566  0.1006  0.6675 -0.0576
  180SAPS  H14R20609   3.385   4.117   3.511  1.4371  0.9771  2.1272
  180SAPS  C21520610   3.296   4.152   3.699  0.4224  0.3417 -0.1756
  180SAPS  H15R20611   3.387   4.192   3.744 -1.2510  0.3142  3.5731
  180SAPS  C21620612   3.179   4.157   3.799 -0.3361  0.6518  0.3429
  180SAPS  H16R20613   3.084   4.158   3.742  1.1691  0.5525 -2.3352
  180SAPS  H16S20614   3.194   4.254   3.851  3.5410 -0.2557  1.2782
  180SAPS  C21720615   3.157   4.039   3.899  0.0143  0.6279 -0.0941
  180SAPS  H17R20616   3.245   3.973   3.910 -0.8934 -1.3861 -3.5004
  180SAPS  H17S20617   3.077   3.975   3.855  0.6721 -1.2531  1.3365
  180SAPS  C21820618   3.109   4.083   4.042 -0.3021 -0.1523 -0.1608
  180SAPS  H18R20619   3.008   4.127   4.053  0.4598  1.1186  2.4835
  180SAPS  H18S20620   3.183   4.153   4.087  4.2276 -3.9433 -0.8422
  180SAPS  C21920621   3.104   3.964   4.138  1.0561 -0.1338  0.0408
  180SAPS  H19R20622   3.030   3.888   4.103  0.2774  0.8682 -0.5381
  180SAPS  H19S20623   3.049   4.000   4.227 -2.2930 -1.3112 -1.3845
  180SAPS  C22020624   3.238   3.894   4.174  0.1481 -0.5817 -0.1022
  180SAPS  H20R20625   3.303   3.971   4.220 -0.3922  1.4280 -2.4822
  180SAPS  H20S20626   3.223   3.822   4.257 -0.1319 -0.4849 -0.0667
  180SAPS  H20T20627   3.297   3.850   4.091  1.3494  0.4937  0.1586
  180SAPS   C3320628   3.293   3.351   3.197 -0.2909  0.3036 -0.8977
  180SAPS   H3X20629   3.382   3.381   3.138 -0.5534  2.7474 -0.1491
  180SAPS   H3Y20630   3.313   3.249   3.237  2.5796  1.0199 -0.2606
  180SAPS   C3420631   3.259   3.439   3.319  0.3757 -0.6590 -0.2773
  180SAPS   H4X20632   3.152   3.432   3.345  0.9561  1.0007  3.1902
  180SAPS   H4Y20633   3.285   3.541   3.284 -2.0918 -0.2188 -0.9596
  180SAPS   C3520634   3.338   3.403   3.441 -0.6161 -0.7196  0.3515
  180SAPS   H5X20635   3.443   3.433   3.425  0.1658 -2.4095  1.9041
  180SAPS   H5Y20636   3.343   3.292   3.452 -0.0827 -0.9812 -2.0197
  180SAPS   C3620637   3.270   3.470   3.568  0.3887 -0.3388 -0.5569
  180SAPS   H6X20638   3.169   3.425   3.585  0.2583  1.0264  3.0676
  180SAPS   H6Y20639   3.254   3.579   3.554  0.3819 -0.0625  1.3983
  180SAPS   C3720640   3.343   3.452   3.701 -0.4019  0.6492 -0.3322
  180SAPS   H7X20641   3.435   3.515   3.699  0.7705 -1.0187 -1.7458
  180SAPS   H7Y20642   3.373   3.345   3.711 -1.2768  0.4453  0.2417
  180SAPS   C3820643   3.263   3.501   3.830  0.3187  0.3799  0.1847
  180SAPS   H8X20644   3.165   3.451   3.823 -0.1715  1.4852 -1.4021
  180SAPS   H8Y20645   3.253   3.611   3.821  0.6266  0.4745  0.9568
  180SAPS   C3920646   3.339   3.458   3.961 -0.2543  0.3920 -0.3409
  180SAPS   H9X20647   3.440   3.502   3.961  0.1955 -0.5338  1.7835
  180SAPS   H9Y20648   3.363   3.349   3.962  0.8417  0.5819 -2.0875
  180SAPS  C31020649   3.267   3.502   4.092  0.2263 -0.0664 -0.1024
  180SAPS  H10X20650   3.188   3.427   4.113 -0.5826 -0.6646 -4.3762
  180SAPS  H10Y20651   3.214   3.598   4.074  0.2904  0.1727  0.9461
  180SAPS  C31120652   3.372   3.509   4.208 -0.1993 -0.0206  0.0899
  180SAPS  H11X20653   3.329   3.570   4.290 -2.0522 -0.0550 -0.8109
  180SAPS  H11Y20654   3.467   3.553   4.171 -0.4855  0.4754 -0.0664
  180SAPS  C31220655   3.387   3.368   4.250  0.8072 -0.5996  0.7293
  180SAPS  H12X20656   3.389   3.288   4.173 -1.5150 -1.3191  1.3429
  180SAPS  H12Y20657   3.299   3.333   4.307 -0.1435 -1.5226 -1.2230
  180SAPS  C31320658   3.506   3.348   4.339  0.4446 -1.1341  0.1507
  180SAPS  H13X20659   3.482   3.422   4.419  2.7073 -0.0589 -0.0638
  180SAPS  H13Y20660   3.601   3.380   4.291 -0.2831 -0.3145 -0.7734
  180SAPS  C31420661   3.514   3.205   4.399 -0.1094  0.1021  0.4097
  180SAPS  H14X20662   3.512   3.132   4.315 -2.3747  2.0913 -1.4043
  180SAPS  H14Y20663   3.426   3.194   4.466 -0.5546 -3.9052 -0.5734
  180SAPS  C31520664   3.652   3.187   4.463  0.9830  0.4104  0.1927
  180SAPS  H15X20665   3.670   3.276   4.528  1.2019  0.8470 -0.4587
  180SAPS  H15Y20666   3.729   3.185   4.383 -0.2446 -0.9053 -0.9939
  180SAPS  C31620667   3.653   3.050   4.529 -0.1463  0.1028 -0.1077
  180SAPS  H16X20668   3.648   2.969   4.454 -0.8634 -0.8001  0.8707
  180SAPS  H16Y20669   3.562   3.032   4.592  1.8243 -0.3589  2.8187
  180SAPS  C31720670   3.770   3.011   4.616 -0.1328  0.1586  0.1610
  180SAPS  H17X20671   3.773   3.065   4.713 -1.1414  0.6279 -0.0502
  180SAPS  H17Y20672   3.863   3.033   4.560 -1.4082  0.7830 -1.8201
  180SAPS  C31820673   3.775   2.860   4.649 -0.5519  0.8921 -0.2622
  180SAPS  H18X20674   3.695   2.833   4.721  0.0615 -0.9160 -0.1996
  180SAPS  H18Y20675   3.874   2.816   4.675 -0.4647  1.9779  1.3390
  180SAPS  H18Z20676   3.749   2.807   4.554  0.4387  1.1135 -0.6729
  181POPC     N20677   2.957   0.054   7.434 -0.2585  0.1269 -0.2577
  181POPC   C1220678   2.920   0.081   7.286 -0.6485 -0.7245 -0.4580
  181POPC  H12A20679   2.822   0.126   7.282  0.2301  1.1728 -3.3310
  181POPC  H12B20680   2.909  -0.020   7.251 -1.4405 -1.9045  2.8081
  181POPC   C1320681   3.086  -0.024   7.445  0.3082  0.2940  0.2872
  181POPC  H13A20682   3.161   0.028   7.387  0.2316 -1.7283 -1.7470
  181POPC  H13B20683   3.126  -0.036   7.545 -1.2965 -1.4107  0.7731
  181POPC  H13C20684   3.079  -0.120   7.396  2.1952  0.4664 -0.3982
  181POPC   C1420685   2.977   0.185   7.505 -0.2487 -0.8201 -0.2093
  181POPC  H14A20686   3.069   0.234   7.478 -1.3990  2.6075  1.5874
  181POPC  H14B20687   2.910   0.266   7.484  4.5371  3.7067 -0.0156
  181POPC  H14C20688   2.996   0.168   7.610 -0.4006  1.9376  0.3346
  181POPC   C1520689   2.852  -0.024   7.493  0.3469 -0.0237 -0.1541
  181POPC  H15A20690   2.830  -0.119   7.446  0.8198 -0.6699  0.8946
  181POPC  H15B20691   2.766   0.039   7.514  0.9103  1.8094 -2.8988
  181POPC  H15C20692   2.877  -0.060   7.592  0.6200  0.0625 -0.1931
  181POPC   C1120693   3.025   0.167   7.211  0.4307  0.3426  0.1895
  181POPC  H11A20694   3.061   0.255   7.268 -0.6296  0.0895  1.2876
  181POPC  H11B20695   2.977   0.208   7.119  0.9666 -0.2302 -0.3537
  181POPC     P20696   3.126  -0.017   7.060 -0.2984  0.0318  0.3405
  181POPC   O1320697   3.006  -0.093   7.072  0.1187 -0.4332  0.4569
  181POPC   O1420698   3.249  -0.091   7.052  0.4677 -0.2111  0.6420
  181POPC   O1220699   3.142   0.086   7.182 -0.0196  0.0110 -0.7760
  181POPC   O1120700   3.125   0.074   6.929  0.2894  0.1944 -0.5276
  181POPC    C120701   3.240   0.105   6.860 -0.1282 -0.0569  0.0960
  181POPC    HA20702   3.314   0.022   6.862 -0.5505 -0.4706  2.6858
  181POPC    HB20703   3.289   0.177   6.929 -1.4135  1.3765 -0.4226
  181POPC    C220704   3.216   0.154   6.718  0.6681 -0.2462  0.1802
  181POPC    HS20705   3.190   0.069   6.650  0.5226 -0.4490  0.4873
  181POPC   O2120706   3.334   0.217   6.663 -0.3777 -0.3891  0.4436
  181POPC   C2120707   3.427   0.135   6.621 -1.0171  0.7919 -0.1953
  181POPC   O2220708   3.430   0.012   6.629  0.5524 -0.1452 -0.3297
  181POPC   C2220709   3.546   0.221   6.574 -0.7453  0.5266  0.4622
  181POPC   H2R20710   3.605   0.251   6.663  1.6005 -3.6101  0.5277
  181POPC   H2S20711   3.512   0.306   6.511 -1.0795 -0.3671 -0.5952
  181POPC    C320712   3.091   0.256   6.698 -0.2724 -0.1732 -0.5446
  181POPC    HX20713   3.097   0.335   6.776 -0.5699 -1.1426  0.4699
  181POPC    HY20714   3.004   0.193   6.722 -0.6604 -0.2762 -2.0995
  181POPC   O3120715   3.099   0.309   6.560  0.0824 -0.2522  0.4459
  181POPC   C3120716   2.981   0.320   6.489  0.4106  0.7020  0.4680
  181POPC   O3220717   2.879   0.272   6.527  0.1840  0.0583 -0.2698
  181POPC   C3220718   3.014   0.393   6.360  0.4775  0.2651 -0.1806
  181POPC   H2X20719   3.107   0.363   6.308  2.4278  1.0865  2.6021
  181POPC   H2Y20720   3.021   0.502   6.382 -2.8617  0.5811 -0.1764
  181POPC   C2320721   3.647   0.137   6.484  0.5981 -0.7316 -0.5650
  181POPC   H3R20722   3.676   0.042   6.534  1.7935  0.2584  0.7295
  181POPC   H3S20723   3.739   0.197   6.470 -1.2441  2.5659  0.3539
  181POPC   C2420724   3.601   0.122   6.344 -0.0048 -0.3768  0.1386
  181POPC   H4R20725   3.575   0.216   6.293  1.9572 -0.6359 -1.4949
  181POPC   H4S20726   3.513   0.054   6.347  1.1764 -1.9571  1.8089
  181POPC   C2520727   3.713   0.050   6.265  0.6628  0.0195  0.0684
  181POPC   H5R20728   3.744  -0.036   6.329 -1.0378 -0.0523  0.8629
  181POPC   H5S20729   3.794   0.125   6.263  2.3033 -1.6716  0.3778
  181POPC   C2620730   3.672  -0.007   6.131  0.2904  0.2444 -0.4745
  181POPC   H6R20731   3.596  -0.086   6.151  0.7780  0.3077  1.9470
  181POPC   H6S20732   3.772  -0.047   6.103  0.1157  0.0034 -0.7545
  181POPC   C2720733   3.637   0.116   6.035  0.3582  0.7061 -0.6976
  181POPC   H7R20734   3.738   0.159   6.016  1.3555 -1.2024 -0.0201
  181POPC   H7S20735   3.582   0.192   6.096 -0.4043  0.7880 -1.4744
  181POPC   C2820736   3.569   0.079   5.904 -0.0884 -0.6098 -1.2607
  181POPC   H8R20737   3.476   0.017   5.909  0.9397 -2.1262  0.1115
  181POPC   H8S20738   3.634   0.027   5.830  0.7297 -3.4437  1.2265
  181POPC   C2920739   3.521   0.210   5.846 -0.1319 -0.3145 -0.0703
  181POPC   H9120740   3.438   0.252   5.904  1.1873  1.1179  0.8671
  181POPC  C21020741   3.551   0.268   5.732 -0.1515 -0.6888  0.5660
  181POPC  H10120742   3.509   0.370   5.725 -2.1977 -1.5216 -0.0063
  181POPC  C21120743   3.650   0.226   5.623  0.2713 -0.0083  1.1620
  181POPC  H11R20744   3.690   0.125   5.644  0.1949 -0.0662  1.0300
  181POPC  H11S20745   3.728   0.305   5.625  0.4868 -0.0764 -1.4061
  181POPC  C21220746   3.586   0.228   5.481  0.4333 -0.2693  0.4831
  181POPC  H12R20747   3.562   0.332   5.450 -1.7969 -0.5152  1.2160
  181POPC  H12S20748   3.490   0.172   5.489 -0.3389  0.8274 -0.5093
  181POPC  C21320749   3.675   0.155   5.379  0.8714  0.2471 -0.0599
  181POPC  H13R20750   3.711   0.063   5.430 -0.5922  0.5640  1.6629
  181POPC  H13S20751   3.763   0.219   5.358  2.6526 -2.1454 -0.2382
  181POPC  C21420752   3.611   0.106   5.241 -0.3839 -0.3421  0.3109
  181POPC  H14R20753   3.543   0.022   5.266 -0.1732  0.0016  2.1936
  181POPC  H14S20754   3.682   0.064   5.167  0.6120 -0.1354  1.1315
  181POPC  C21520755   3.520   0.211   5.180  0.0553 -0.6227 -0.0776
  181POPC  H15R20756   3.429   0.221   5.242  0.0449  1.8453 -0.4113
  181POPC  H15S20757   3.491   0.173   5.080  0.8706 -2.0531  0.1965
  181POPC  C21620758   3.589   0.347   5.147  0.0197 -0.0112  0.2927
  181POPC  H16R20759   3.649   0.387   5.232 -1.3895 -0.9763  1.8044
  181POPC  H16S20760   3.500   0.411   5.132  0.5718  0.4496 -1.1942
  181POPC  C21720761   3.673   0.341   5.023 -0.8743 -0.1838  0.0471
  181POPC  H17R20762   3.641   0.294   4.928  2.3527 -1.4114 -0.5855
  181POPC  H17S20763   3.761   0.280   5.052  0.2036 -0.1566 -2.7956
  181POPC  C21820764   3.719   0.483   4.986  0.0655 -0.1985  0.3199
  181POPC  H18R20765   3.631   0.545   4.958  1.1458  0.8928 -0.7495
  181POPC  H18S20766   3.795   0.486   4.905 -0.9514  3.7375 -0.7025
  181POPC  H18T20767   3.766   0.526   5.077  2.4089  1.1170 -1.4039
  181POPC   C3320768   2.898   0.375   6.256 -0.1069  0.6030  0.5915
  181POPC   H3X20769   2.807   0.429   6.291 -0.1088  1.4513 -0.6447
  181POPC   H3Y20770   2.874   0.267   6.258  1.0294  0.3583  1.9049
  181POPC   C3420771   2.939   0.398   6.116  0.1815 -0.3718  0.3783
  181POPC   H4X20772   3.025   0.330   6.101  0.7308  0.4580 -0.3778
  181POPC   H4Y20773   2.971   0.504   6.112 -0.0549 -0.3205 -0.2312
  181POPC   C3520774   2.818   0.395   6.013  0.1204 -0.0759 -0.3685
  181POPC   H5X20775   2.741   0.453   6.067  2.2876 -0.1402  3.1004
  181POPC   H5Y20776   2.776   0.292   6.007  1.3348 -0.5654 -1.1415
  181POPC   C3620777   2.841   0.460   5.876 -0.0686 -0.7082 -0.2577
  181POPC   H6X20778   2.906   0.549   5.884 -0.4913 -0.4988  1.1217
  181POPC   H6Y20779   2.749   0.483   5.819  0.9673 -1.2489 -2.2244
  181POPC   C3720780   2.917   0.371   5.774  0.1320  0.9047 -0.4030
  181POPC   H7X20781   2.981   0.313   5.844 -1.8189 -0.9582 -0.0538
  181POPC   H7Y20782   2.978   0.436   5.708  2.3975  0.5547  1.2282
  181POPC   C3820783   2.835   0.271   5.697 -0.6688  0.0145  0.2418
  181POPC   H8X20784   2.769   0.202   5.753 -0.0027 -2.1542 -1.5211
  181POPC   H8Y20785   2.903   0.201   5.645 -0.6207  0.8775 -0.9033
  181POPC   C3920786   2.752   0.341   5.583  0.0662 -0.1150  0.1712
  181POPC   H9X20787   2.694   0.427   5.621  2.9421  2.1160 -0.1782
  181POPC   H9Y20788   2.682   0.259   5.557  0.7967 -0.8936  0.6018
  181POPC  C31020789   2.846   0.371   5.466 -0.1373 -0.0846 -0.2602
  181POPC  H10X20790   2.914   0.284   5.451 -0.4241 -0.2393 -0.6627
  181POPC  H10Y20791   2.899   0.458   5.510 -0.8501  0.2361 -0.0332
  181POPC  C31120792   2.790   0.418   5.330  0.3498  0.1586 -0.8227
  181POPC  H11X20793   2.874   0.460   5.269  0.8193 -0.7040 -0.7847
  181POPC  H11Y20794   2.708   0.491   5.348  0.8148  0.3597  0.5853
  181POPC  C31220795   2.739   0.299   5.256  0.5096 -0.6399  0.3227
  181POPC  H12X20796   2.659   0.252   5.318  1.2161 -1.5421  0.5768
  181POPC  H12Y20797   2.814   0.217   5.246 -0.7574 -1.6432 -1.5703
  181POPC  C31320798   2.693   0.329   5.118  0.9477 -0.0270 -0.1173
  181POPC  H13X20799   2.606   0.397   5.130  0.7476 -0.5106  1.3917
  181POPC  H13Y20800   2.662   0.236   5.065 -0.2290  1.2520 -1.7908
  181POPC  C31420801   2.786   0.417   5.026  0.7319 -0.0860  0.0379
  181POPC  H14X20802   2.882   0.363   5.031  0.5364 -0.3042  2.7184
  181POPC  H14Y20803   2.806   0.521   5.061 -1.7220  0.3308  0.4447
  181POPC  C31520804   2.732   0.441   4.879  0.0664 -0.7610 -0.7479
  181POPC  H15X20805   2.649   0.511   4.903  2.4133  1.0988  2.8637
  181POPC  H15Y20806   2.699   0.353   4.820 -1.9183 -0.2966 -0.4135
  181POPC  C31620807   2.837   0.516   4.791 -0.7024  0.7882 -0.0339
  181POPC  H16X20808   2.927   0.450   4.796 -1.6603 -0.4883  1.1354
  181POPC  H16Y20809   2.862   0.612   4.841 -0.9725  0.5058  0.6669
  181POPC  H16Z20810   2.799   0.543   4.691  1.1633  0.0770 -0.9810
  182POPC     N20811   0.569   3.689   6.836 -0.7785  0.6396 -0.3467
  182POPC   C1220812   0.545   3.699   6.994 -0.4537  0.0032  0.5870
  182POPC  H12A20813   0.512   3.597   7.008  0.0527 -0.3122 -0.3980
  182POPC  H12B20814   0.465   3.769   7.012  0.7669  2.3573 -2.3613
  182POPC   C1320815   0.435   3.663   6.773  0.2164  0.2191  0.0809
  182POPC  H13A20816   0.442   3.662   6.666  3.6439 -0.0451  0.2189
  182POPC  H13B20817   0.398   3.566   6.804 -1.1155 -0.0117 -2.0606
  182POPC  H13C20818   0.370   3.740   6.813  0.5508  0.4564  0.1631
  182POPC   C1420819   0.622   3.816   6.780  0.0399 -0.2615  0.5211
  182POPC  H14A20820   0.622   3.802   6.673 -1.0924  0.5138  0.4005
  182POPC  H14B20821   0.561   3.898   6.816 -0.7747  0.9555 -3.2028
  182POPC  H14C20822   0.724   3.827   6.811  0.5559 -0.4841 -1.0105
  182POPC   C1520823   0.658   3.573   6.798  0.2518  0.3628 -0.0221
  182POPC  H15A20824   0.750   3.559   6.853  0.1089 -1.6618 -0.2149
  182POPC  H15B20825   0.681   3.572   6.693 -0.0290 -1.1612 -0.0826
  182POPC  H15C20826   0.605   3.482   6.821 -1.7448  1.7156  1.1373
  182POPC   C1120827   0.665   3.732   7.082  0.2276  0.1153  0.8721
  182POPC  H11A20828   0.728   3.650   7.040 -0.2562 -0.2999  0.9438
  182POPC  H11B20829   0.653   3.707   7.190  3.6859 -0.7958  1.1701
  182POPC     P20830   0.669   3.993   7.117  0.6510  0.2202 -0.0085
  182POPC   O1320831   0.779   4.090   7.134  0.3708  0.7341  0.1241
  182POPC   O1420832   0.574   3.970   7.234 -0.4389 -0.2991  0.5044
  182POPC   O1220833   0.733   3.854   7.068  0.7842 -0.1110 -0.3050
  182POPC   O1120834   0.590   4.030   6.987  0.0515 -0.3810  0.6767
  182POPC    C120835   0.516   4.149   6.960 -0.2565  0.8405 -0.3967
  182POPC    HA20836   0.533   4.235   7.029 -1.6282  0.1418  0.8639
  182POPC    HB20837   0.410   4.119   6.957 -0.6801  2.0693  0.8517
  182POPC    C220838   0.556   4.204   6.823  0.6392 -0.3614  0.3921
  182POPC    HS20839   0.492   4.294   6.810  0.1980 -0.8326 -0.7679
  182POPC   O2120840   0.526   4.114   6.717  0.4884 -0.0459  0.0714
  182POPC   C2120841   0.394   4.111   6.683 -0.1962 -0.5759 -0.1727
  182POPC   O2220842   0.316   4.198   6.710  0.3211  0.0185  0.1736
  182POPC   C2220843   0.366   3.996   6.590  0.3100 -0.3185 -0.0488
  182POPC   H2R20844   0.264   3.955   6.607  0.9049 -1.8291  0.0098
  182POPC   H2S20845   0.431   3.912   6.621  1.4582 -0.1899 -1.9710
  182POPC    C320846   0.704   4.244   6.823  0.2678 -0.0499  0.7320
  182POPC    HX20847   0.752   4.148   6.852 -1.0333 -1.0097 -0.2093
  182POPC    HY20848   0.728   4.317   6.904 -0.8801  2.2045 -0.8503
  182POPC   O3120849   0.752   4.296   6.693 -0.0662 -0.3541 -0.1690
  182POPC   C3120850   0.715   4.420   6.664  0.2582  0.1174 -0.4876
  182POPC   O3220851   0.650   4.488   6.735 -0.9397 -0.0113  0.9749
  182POPC   C3220852   0.744   4.452   6.520  0.4670 -0.1685  0.5645
  182POPC   H2X20853   0.654   4.484   6.462  1.1349  1.3433  0.3161
  182POPC   H2Y20854   0.785   4.361   6.472 -0.5962  0.6142 -2.0428
  182POPC   C2320855   0.363   4.038   6.435 -0.7987  0.7002  0.6331
  182POPC   H3R20856   0.286   4.117   6.425 -1.0059  0.5834  1.2841
  182POPC   H3S20857   0.324   3.944   6.389  2.5916 -1.1747  1.2326
  182POPC   C2420858   0.490   4.077   6.372 -0.1063 -0.7408 -0.5062
  182POPC   H4R20859   0.557   3.990   6.358  2.0208  0.0795  3.2646
  182POPC   H4S20860   0.555   4.132   6.442 -0.4732 -0.5934 -0.2762
  182POPC   C2520861   0.466   4.162   6.254 -0.4206 -0.2401  0.4575
  182POPC   H5R20862   0.416   4.256   6.286 -0.3516 -0.3088  0.7671
  182POPC   H5S20863   0.404   4.101   6.184  0.6970 -1.2326  0.3021
  182POPC   C2620864   0.600   4.188   6.181  0.7773  0.0996 -0.1610
  182POPC   H6R20865   0.667   4.100   6.179  0.0993 -0.4434  0.4270
  182POPC   H6S20866   0.638   4.271   6.244 -0.1775  0.6328 -0.2619
  182POPC   C2720867   0.589   4.230   6.033  0.0845 -0.1659 -0.8682
  182POPC   H7R20868   0.696   4.221   6.005  0.4041 -2.2229  0.8330
  182POPC   H7S20869   0.550   4.334   6.024  0.3437 -0.0448 -0.5965
  182POPC   C2820870   0.501   4.147   5.939  0.1868 -0.1924 -0.8999
  182POPC   H8R20871   0.393   4.156   5.965  0.3982  0.6140 -0.2550
  182POPC   H8S20872   0.534   4.042   5.957  0.3756  0.0646  0.3591
  182POPC   C2920873   0.522   4.199   5.798  0.6720  0.6627  0.0445
  182POPC   H9120874   0.451   4.280   5.776 -0.2605  0.1977  1.2448
  182POPC  C21020875   0.618   4.153   5.715 -0.2802 -0.1006  0.3441
  182POPC  H10120876   0.614   4.203   5.617  1.0133 -0.9483 -0.1700
  182POPC  C21120877   0.721   4.042   5.736 -0.0562  0.2425 -0.5610
  182POPC  H11R20878   0.680   3.939   5.728 -0.5750  0.4181 -0.2210
  182POPC  H11S20879   0.747   4.042   5.844  0.2393 -2.7696 -0.5497
  182POPC  C21220880   0.837   4.070   5.635 -0.1613  0.5697  0.6424
  182POPC  H12R20881   0.931   4.019   5.664 -0.0232  0.7761  0.5647
  182POPC  H12S20882   0.871   4.176   5.636  1.6901  0.0899 -1.6128
  182POPC  C21320883   0.793   4.031   5.497  0.0778  1.1097  0.5393
  182POPC  H13R20884   0.700   4.084   5.466  0.2793  0.5550 -1.1468
  182POPC  H13S20885   0.763   3.924   5.493 -2.3297  1.7467 -0.7243
  182POPC  C21420886   0.896   4.067   5.388 -0.4285 -0.1190 -0.3947
  182POPC  H14R20887   0.904   3.980   5.319  0.2890 -2.8178  2.8246
  182POPC  H14S20888   0.991   4.056   5.444 -1.3649 -0.7701  1.1544
  182POPC  C21520889   0.884   4.199   5.307  0.4302 -0.0016  0.0420
  182POPC  H15R20890   0.973   4.205   5.240 -0.3874 -1.4759 -1.2397
  182POPC  H15S20891   0.907   4.278   5.382  0.9961 -1.1656  1.1349
  182POPC  C21620892   0.744   4.227   5.243  0.1934 -0.0328  0.1317
  182POPC  H16R20893   0.665   4.258   5.314 -0.9138 -2.3059 -0.0242
  182POPC  H16S20894   0.703   4.134   5.199 -1.1968  0.7629 -0.3055
  182POPC  C21720895   0.750   4.322   5.118  0.5474  0.7326 -0.3447
  182POPC  H17R20896   0.651   4.312   5.069 -0.0799  0.1836  0.9726
  182POPC  H17S20897   0.825   4.270   5.055  1.5635 -0.1656  1.5118
  182POPC  C21820898   0.777   4.470   5.160 -0.3737  0.0692  0.3134
  182POPC  H18R20899   0.880   4.482   5.199  0.4615 -1.2711 -1.3894
  182POPC  H18S20900   0.702   4.498   5.237 -1.0770 -2.5683  0.6976
  182POPC  H18T20901   0.762   4.538   5.074 -2.3134 -1.2841 -0.4874
  182POPC   C3320902   0.856   4.555   6.508  0.8311 -0.1466 -0.4642
  182POPC   H3X20903   0.927   4.534   6.590 -0.1054 -1.2720  0.0875
  182POPC   H3Y20904   0.804   4.653   6.517  0.7762 -0.1739 -0.4814
  182POPC   C3420905   0.930   4.558   6.373  0.5277 -0.3293  0.0822
  182POPC   H4X20906   0.998   4.470   6.376  2.4171  1.0432 -0.3651
  182POPC   H4Y20907   0.988   4.653   6.373  0.6326 -0.3794 -1.1003
  182POPC   C3520908   0.841   4.556   6.250 -0.0820 -0.4928 -0.3861
  182POPC   H5X20909   0.777   4.647   6.249 -0.9409 -1.0828 -0.2717
  182POPC   H5Y20910   0.768   4.472   6.253 -1.0903  0.3380  2.2046
  182POPC   C3620911   0.920   4.562   6.119 -0.1745 -0.6891  0.4736
  182POPC   H6X20912   0.991   4.478   6.121  0.3980 -0.2879 -1.2241
  182POPC   H6Y20913   0.978   4.657   6.118 -1.4151  0.1210  1.3626
  182POPC   C3720914   0.837   4.548   5.987  0.1059  0.1915  0.3208
  182POPC   H7X20915   0.748   4.482   5.991 -0.4066  0.7968 -0.5810
  182POPC   H7Y20916   0.911   4.502   5.919  0.9246  1.1724  0.5166
  182POPC   C3820917   0.806   4.694   5.928  0.7031  0.8507  0.6033
  182POPC   H8X20918   0.891   4.761   5.906 -0.0591  1.7237  0.2571
  182POPC   H8Y20919   0.735   4.738   6.001  0.6210  2.0495 -0.1708
  182POPC   C3920920   0.733   4.686   5.791  0.4910 -0.7666 -0.5618
  182POPC   H9X20921   0.720   4.796   5.776 -1.7696 -0.9269 -0.1295
  182POPC   H9Y20922   0.631   4.646   5.805  0.1621  0.0969 -0.4177
  182POPC  C31020923   0.810   4.620   5.677  0.0394 -0.1386  0.2002
  182POPC  H10X20924   0.810   4.512   5.705  1.1011 -0.5816 -1.3998
  182POPC  H10Y20925   0.918   4.646   5.684  0.6368 -2.0209 -1.1076
  182POPC  C31120926   0.758   4.661   5.538  0.3967  0.2144  0.3485
  182POPC  H11X20927   0.649   4.645   5.526  0.7649 -1.3790 -1.2407
  182POPC  H11Y20928   0.793   4.588   5.463 -2.0455  0.5378 -1.1959
  182POPC  C31220929   0.793   4.805   5.492 -0.1891 -0.0921 -0.3730
  182POPC  H12X20930   0.902   4.816   5.507 -0.3604 -0.4919  1.3919
  182POPC  H12Y20931   0.743   4.882   5.554  0.8760 -0.2832  0.7569
  182POPC  C31320932   0.747   4.838   5.350  0.5936  0.0297 -0.3416
  182POPC  H13X20933   0.770   4.756   5.279 -0.8125 -1.8905  1.3191
  182POPC  H13Y20934   0.805   4.929   5.321  0.7727  0.1259  0.2942
  182POPC  C31420935   0.602   4.878   5.335  0.7507  0.2575 -0.1314
  182POPC  H14X20936   0.570   4.968   5.391  1.9605  0.4191  0.3236
  182POPC  H14Y20937   0.530   4.800   5.366 -2.1686  2.3976 -1.0543
  182POPC  C31520938   0.567   4.910   5.191 -0.4395  0.4570 -0.6048
  182POPC  H15X20939   0.601   4.834   5.117  0.7889  0.3036  0.0891
  182POPC  H15Y20940   0.605   5.009   5.157  2.1254 -0.8816 -1.9606
  182POPC  C31620941   0.409   4.915   5.168 -0.2674 -0.2260  0.5241
  182POPC  H16X20942   0.376   4.928   5.063 -1.0886 -1.6513  0.5790
  182POPC  H16Y20943   0.372   5.002   5.227 -1.0110  0.2380 -0.6060
  182POPC  H16Z20944   0.358   4.823   5.205  0.0827 -0.2662  0.9228
  183POPC     N20945   4.272   5.988   6.690  0.4333 -0.1488 -0.4269
  183POPC   C1220946   4.307   6.005   6.543 -0.2051  0.2330 -0.7444
  183POPC  H12A20947   4.317   6.106   6.506 -1.9239  0.4651 -0.6725
  183POPC  H12B20948   4.219   5.971   6.489 -0.0747 -1.9267  0.3032
  183POPC   C1320949   4.140   6.055   6.709  0.0486  0.6234 -0.2719
  183POPC  H13A20950   4.070   5.999   6.648  0.7775 -1.0000  0.3089
  183POPC  H13B20951   4.110   6.040   6.812 -0.8443 -1.8212 -0.8122
  183POPC  H13C20952   4.126   6.158   6.680 -3.0177 -0.3704 -2.9403
  183POPC   C1420953   4.256   5.844   6.719  0.2014  0.0563 -0.1000
  183POPC  H14A20954   4.268   5.840   6.827  0.6875  2.0159 -0.0379
  183POPC  H14B20955   4.160   5.801   6.696 -0.5464 -0.4140  3.2741
  183POPC  H14C20956   4.333   5.784   6.674  1.0194  0.7993  0.2688
  183POPC   C1520957   4.377   6.046   6.779 -0.1223 -0.1644  0.1243
  183POPC  H15A20958   4.461   5.981   6.763 -1.5221 -2.0653  0.1793
  183POPC  H15B20959   4.354   6.041   6.885  0.3336  1.4432  0.3345
  183POPC  H15C20960   4.398   6.148   6.750 -1.4624 -0.0067 -0.3623
  183POPC   C1120961   4.436   5.939   6.495  0.8975 -0.6398  0.3415
  183POPC  H11A20962   4.429   5.931   6.385 -0.5817  0.8929  0.2831
  183POPC  H11B20963   4.436   5.833   6.528 -0.6567 -0.4170  1.1621
  183POPC     P20964   4.592   6.150   6.496  0.2875 -0.0306 -0.5209
  183POPC   O1320965   4.735   6.171   6.527 -0.0998 -0.0470 -0.1173
  183POPC   O1420966   4.494   6.250   6.553  0.1035  0.8226  0.3131
  183POPC   O1220967   4.555   6.006   6.547  0.3164  0.1560 -0.6331
  183POPC   O1120968   4.566   6.134   6.343  0.1961  0.4438  0.0240
  183POPC    C120969   4.668   6.207   6.265 -0.6473 -0.0997  0.4894
  183POPC    HA20970   4.682   6.154   6.168  1.8488 -0.4181  0.9477
  183POPC    HB20971   4.772   6.203   6.304  0.5469  2.2772 -2.0566
  183POPC    C220972   4.642   6.360   6.238 -0.2117  0.2095 -0.3621
  183POPC    HS20973   4.609   6.407   6.332 -3.0351 -1.2403 -0.5278
  183POPC   O2120974   4.553   6.368   6.124  0.8098 -0.4444  0.3219
  183POPC   C2120975   4.480   6.485   6.129 -0.0954 -0.2917  0.0138
  183POPC   O2220976   4.471   6.562   6.222 -0.3410 -0.3400  0.3543
  183POPC   C2220977   4.423   6.507   5.993 -0.2918 -0.4981  0.4927
  183POPC   H2R20978   4.361   6.418   5.968 -2.1657  1.0341 -0.5839
  183POPC   H2S20979   4.502   6.506   5.915 -0.3198 -0.0845  0.4537
  183POPC    C320980   4.776   6.433   6.190  0.5490  0.0610 -0.1631
  183POPC    HX20981   4.825   6.435   6.290 -1.4418 -0.0140  0.8520
  183POPC    HY20982   4.746   6.535   6.156 -1.8096 -0.5111  0.0714
  183POPC   O3120983   4.836   6.349   6.084  0.0292  0.0186  0.9602
  183POPC   C3120984   4.809   6.400   5.967 -0.1133 -0.3280 -0.2955
  183POPC   O3220985   4.759   6.506   5.936 -0.8635 -0.1354 -0.4391
  183POPC   C3220986   4.847   6.308   5.863  0.2647 -0.1902 -0.3209
  183POPC   H2X20987   4.847   6.208   5.912 -0.5001 -1.3946 -2.6413
  183POPC   H2Y20988   4.951   6.329   5.829 -0.2663  1.9062 -0.7986
  183POPC   C2320989   4.334   6.634   5.982  0.0802 -0.0503  0.0990
  183POPC   H3R20990   4.394   6.723   6.009 -1.9445  1.9780 -1.5584
  183POPC   H3S20991   4.258   6.623   6.062 -0.3977  0.9575 -0.1938
  183POPC   C2420992   4.265   6.646   5.846  0.5680 -0.5731  0.7764
  183POPC   H4R20993   4.209   6.742   5.855 -1.5312 -1.2974 -2.6597
  183POPC   H4S20994   4.191   6.569   5.815  0.2848  0.2331 -0.6445
  183POPC   C2520995   4.362   6.642   5.724  0.4714  0.6096 -0.9252
  183POPC   H5R20996   4.412   6.544   5.714 -1.4039 -0.5181  0.0658
  183POPC   H5S20997   4.443   6.716   5.743  2.0291 -1.2270 -0.0536
  183POPC   C2620998   4.296   6.696   5.599  0.3169  0.0006  0.2783
  183POPC   H6R20999   4.253   6.795   5.625  0.2252 -0.3709  1.6029
  183POPC   H6S21000   4.211   6.628   5.578  0.1121  0.0620  0.8820
  183POPC   C2721001   4.386   6.699   5.475  0.3637 -0.7503 -0.4218
  183POPC   H7R21002   4.458   6.783   5.488 -0.0510 -0.5812  0.8853
  183POPC   H7S21003   4.325   6.724   5.385 -1.0951 -0.2988  0.6676
  183POPC   C2821004   4.452   6.567   5.431  0.0970 -0.4299  0.1037
  183POPC   H8R21005   4.537   6.544   5.500  0.3610 -2.4539 -0.8268
  183POPC   H8S21006   4.493   6.577   5.328  1.2171  0.1602  0.5820
  183POPC   C2921007   4.376   6.432   5.438  0.2694 -0.0319 -1.0399
  183POPC   H9121008   4.378   6.395   5.541  2.7543  0.1730 -0.9552
  183POPC  C21021009   4.313   6.369   5.338 -0.5150  0.1271  0.1296
  183POPC  H10121010   4.284   6.265   5.359  1.0948 -0.3279  0.2378
  183POPC  C21121011   4.311   6.402   5.187  0.6168  1.3207 -1.1540
  183POPC  H11R21012   4.378   6.327   5.140  3.5771  3.2280 -0.2788
  183POPC  H11S21013   4.362   6.499   5.168 -1.3467  2.1532 -2.4745
  183POPC  C21221014   4.175   6.405   5.132 -0.5045 -0.4099  0.4272
  183POPC  H12R21015   4.114   6.482   5.185  0.5116  1.5615 -1.0892
  183POPC  H12S21016   4.132   6.303   5.138  0.3325 -1.0044 -2.2722
  183POPC  C21321017   4.169   6.423   4.981  0.0704 -0.0303 -0.0856
  183POPC  H13R21018   4.207   6.332   4.929  1.5064 -0.1080  1.0427
  183POPC  H13S21019   4.237   6.504   4.946 -1.5348  0.5214 -2.1196
  183POPC  C21421020   4.031   6.476   4.935  0.6396 -0.0478 -0.2604
  183POPC  H14R21021   4.008   6.555   5.010  2.7168 -0.5063  0.9576
  183POPC  H14S21022   3.958   6.393   4.947 -1.3372  1.4515 -1.3123
  183POPC  C21521023   4.031   6.534   4.791 -0.5540  0.5081  0.1792
  183POPC  H15R21024   4.088   6.630   4.787  0.7879 -0.2392  0.5807
  183POPC  H15S21025   3.930   6.564   4.757  0.1336  0.7997 -1.6981
  183POPC  C21621026   4.096   6.435   4.687 -0.2939  0.0661 -0.1883
  183POPC  H16R21027   4.082   6.336   4.735  1.8759 -0.4167 -0.4497
  183POPC  H16S21028   4.205   6.452   4.675 -0.5450  1.1403 -1.1471
  183POPC  C21721029   4.027   6.461   4.547 -0.7603  0.0889  0.1667
  183POPC  H17R21030   3.917   6.464   4.562 -0.6046 -2.7482  2.9832
  183POPC  H17S21031   4.038   6.378   4.473 -1.0487  0.5307 -0.3769
  183POPC  C21821032   4.088   6.582   4.480 -0.0137  0.0713 -0.1483
  183POPC  H18R21033   4.198   6.578   4.469 -0.0292  0.3530 -0.4243
  183POPC  H18S21034   4.070   6.675   4.539  2.2996  0.3434  0.2100
  183POPC  H18T21035   4.039   6.587   4.381  1.7100 -1.7174 -1.1540
  183POPC   C3321036   4.752   6.318   5.737 -0.6058 -0.6506  0.2031
  183POPC   H3X21037   4.770   6.418   5.692  1.1179 -1.1159 -0.2514
  183POPC   H3Y21038   4.645   6.305   5.763 -0.7386 -0.4091 -0.2127
  183POPC   C3421039   4.768   6.211   5.630  0.1933  0.4281 -0.2396
  183POPC   H4X21040   4.706   6.125   5.664 -1.7210  2.0229  0.4546
  183POPC   H4Y21041   4.875   6.179   5.626 -0.3025 -1.4182 -3.9701
  183POPC   C3521042   4.724   6.259   5.489 -0.4958 -0.1176 -0.0947
  183POPC   H5X21043   4.780   6.345   5.447 -0.7398  0.2472  0.3152
  183POPC   H5Y21044   4.618   6.291   5.494 -0.2431  0.5749  1.2559
  183POPC   C3621045   4.722   6.140   5.389  0.4734 -0.1888 -0.2039
  183POPC   H6X21046   4.641   6.069   5.415 -0.5041  1.5297  1.7214
  183POPC   H6Y21047   4.821   6.089   5.395  0.7191  0.4232  1.0655
  183POPC   C3721048   4.679   6.192   5.247  0.4606 -0.5813  0.0265
  183POPC   H7X21049   4.760   6.244   5.192  0.6611  0.5302  1.3165
  183POPC   H7Y21050   4.593   6.259   5.266 -1.3187 -2.2616 -1.6078
  183POPC   C3821051   4.641   6.091   5.138  0.4763  0.5312  0.7881
  183POPC   H8X21052   4.549   6.036   5.168 -0.1217 -0.2352 -2.1705
  183POPC   H8Y21053   4.727   6.023   5.121 -0.0211  0.0508  0.1275
  183POPC   C3921054   4.586   6.155   5.007 -0.2133  0.3055 -0.0936
  183POPC   H9X21055   4.663   6.230   4.976 -1.3590  1.6685  0.2408
  183POPC   H9Y21056   4.497   6.216   5.034  0.3233  1.0868 -0.0381
  183POPC  C31021057   4.542   6.053   4.900  0.0780 -0.3921  0.7915
  183POPC  H10X21058   4.459   5.991   4.938 -1.4775  2.1752  1.8686
  183POPC  H10Y21059   4.634   5.991   4.892  0.4368  0.1451  0.6789
  183POPC  C31121060   4.511   6.124   4.774 -0.0703 -1.0799  0.4093
  183POPC  H11X21061   4.590   6.192   4.737 -0.4013 -1.7782 -1.7123
  183POPC  H11Y21062   4.412   6.174   4.779 -0.7391 -1.8822 -2.6811
  183POPC  C31221063   4.487   6.022   4.657 -0.0403  0.2902  0.0809
  183POPC  H12X21064   4.561   5.939   4.661  0.0809  0.4035  0.1890
  183POPC  H12Y21065   4.490   6.078   4.561  0.3457 -1.0279 -0.7089
  183POPC  C31321066   4.349   5.962   4.662 -0.4681  0.7995 -0.8996
  183POPC  H13X21067   4.278   6.047   4.669  0.5167  1.4753  2.5574
  183POPC  H13Y21068   4.353   5.904   4.756  1.9512  2.5119  0.1558
  183POPC  C31421069   4.310   5.865   4.542  0.0051 -0.6148 -0.3263
  183POPC  H14X21070   4.362   5.770   4.564 -0.5609 -0.5732  1.3117
  183POPC  H14Y21071   4.357   5.901   4.448 -1.6604  0.9283 -0.6314
  183POPC  C31521072   4.154   5.868   4.527 -0.8134 -0.3937  0.0748
  183POPC  H15X21073   4.127   5.975   4.512  1.9645  0.3940  0.2042
  183POPC  H15Y21074   4.110   5.838   4.625  1.3562 -1.6128  0.7360
  183POPC  C31621075   4.092   5.769   4.420  0.0388  0.1803 -0.0873
  183POPC  H16X21076   3.983   5.777   4.397  0.1669  0.3054 -0.6535
  183POPC  H16Y21077   4.119   5.669   4.459  1.2711  0.6731  0.3797
  183POPC  H16Z21078   4.150   5.783   4.327 -0.9791 -1.7675 -1.0710
  184POPC     N21079   4.435   4.176   6.923  0.1541  0.8501  0.2692
  184POPC   C1221080   4.389   4.142   7.069 -0.0044 -0.4743  0.6402
  184POPC  H12A21081   4.291   4.183   7.086  0.4383  2.7612 -3.1378
  184POPC  H12B21082   4.449   4.186   7.147 -0.0072 -1.1593  1.0346
  184POPC   C1321083   4.328   4.153   6.823 -0.1900  0.0075 -0.0176
  184POPC  H13A21084   4.235   4.202   6.849 -0.5508 -1.1435  0.9525
  184POPC  H13B21085   4.363   4.189   6.727 -2.3195 -1.3931 -1.4059
  184POPC  H13C21086   4.312   4.047   6.827 -0.9081  0.1327  0.9951
  184POPC   C1421087   4.468   4.321   6.925 -0.2463  0.2628  0.4282
  184POPC  H14A21088   4.513   4.365   6.837  0.8797  0.3878  1.0410
  184POPC  H14B21089   4.384   4.383   6.954 -1.1866  1.1105 -3.4845
  184POPC  H14C21090   4.546   4.341   6.997  0.2891  3.7056 -0.8937
  184POPC   C1521091   4.557   4.102   6.885  0.1283  0.7944 -0.1888
  184POPC  H15A21092   4.636   4.108   6.958 -0.8056 -1.7990  1.1635
  184POPC  H15B21093   4.584   4.128   6.783 -0.1340 -0.8695 -0.7287
  184POPC  H15C21094   4.533   3.997   6.888 -0.7274  1.0101  1.0942
  184POPC   C1121095   4.382   3.989   7.094 -0.5101 -0.4136  0.0830
  184POPC  H11A21096   4.372   3.969   7.203  0.6255 -0.3077  0.2232
  184POPC  H11B21097   4.483   3.951   7.066 -1.1290 -1.1340 -1.2680
  184POPC     P21098   4.137   3.903   7.053 -0.3927 -0.2610 -0.0072
  184POPC   O1321099   4.080   4.038   7.046  0.6181  0.0936 -0.0349
  184POPC   O1421100   4.123   3.831   7.178 -0.1506 -0.1712  0.3989
  184POPC   O1221101   4.291   3.912   7.023  0.7651 -0.4563 -0.1130
  184POPC   O1121102   4.084   3.819   6.926 -0.0032 -0.2619  0.0032
  184POPC    C121103   4.142   3.688   6.904  0.1746  0.1306  0.0504
  184POPC    HA21104   4.124   3.613   6.984  2.5133 -0.3150  0.2424
  184POPC    HB21105   4.251   3.698   6.885  0.0817  1.0927 -0.0600
  184POPC    C221106   4.076   3.632   6.772  0.2938  0.6070  0.8291
  184POPC    HS21107   4.108   3.525   6.769 -0.3398  0.4306 -0.4231
  184POPC   O2121108   4.132   3.706   6.664 -0.1240 -0.2813 -0.2752
  184POPC   C2121109   4.118   3.652   6.549 -0.4191  0.8297  0.2996
  184POPC   O2221110   4.106   3.533   6.530 -0.3419 -0.0080  0.3113
  184POPC   C2221111   4.110   3.761   6.448 -0.4334  0.7888  0.4632
  184POPC   H2R21112   4.213   3.790   6.417 -0.3263  1.1376  1.1282
  184POPC   H2S21113   4.046   3.842   6.487 -0.9078  1.0303 -0.7838
  184POPC    C321114   3.918   3.644   6.773 -0.5807  0.0066  0.1372
  184POPC    HX21115   3.911   3.754   6.778  1.1087  0.1084  0.6668
  184POPC    HY21116   3.878   3.601   6.867 -0.7220 -0.9577 -0.3471
  184POPC   O3121117   3.861   3.581   6.658  0.0457  0.0874 -0.4804
  184POPC   C3121118   3.730   3.598   6.637  0.2419 -0.5220  0.0832
  184POPC   O3221119   3.661   3.673   6.704  0.0904 -0.2587 -0.3808
  184POPC   C3221120   3.673   3.515   6.520  0.1799  0.1894 -0.6459
  184POPC   H2X21121   3.714   3.412   6.534  0.8440  0.8217  3.0709
  184POPC   H2Y21122   3.711   3.560   6.426 -0.8612 -1.8586 -2.1187
  184POPC   C2321123   4.039   3.714   6.321 -0.2700 -0.3577 -0.1771
  184POPC   H3R21124   3.930   3.722   6.342 -0.6436  0.0493 -2.0716
  184POPC   H3S21125   4.076   3.614   6.291  0.0589 -0.1464 -0.4724
  184POPC   C2421126   4.065   3.806   6.200 -0.3070  0.6481 -0.1834
  184POPC   H4R21127   4.162   3.784   6.151 -0.4765  1.1663 -0.7748
  184POPC   H4S21128   4.065   3.909   6.243 -2.2459  1.1501 -1.2566
  184POPC   C2521129   3.948   3.802   6.098  0.0387  0.1073 -0.8118
  184POPC   H5R21130   3.859   3.791   6.164  1.3392  0.4119  1.0646
  184POPC   H5S21131   3.968   3.706   6.047  0.8438 -0.5099  0.6171
  184POPC   C2621132   3.946   3.914   5.997  0.2351  1.2751  0.2840
  184POPC   H6R21133   3.944   4.008   6.058 -0.0693  0.8909  0.8858
  184POPC   H6S21134   3.850   3.915   5.941 -0.4247 -1.2008  1.2368
  184POPC   C2721135   4.068   3.915   5.901  0.7955  0.0329 -0.2431
  184POPC   H7R21136   4.053   3.832   5.829 -0.7905  0.4650 -0.4380
  184POPC   H7S21137   4.159   3.896   5.963 -1.4631 -2.1102  2.7162
  184POPC   C2821138   4.076   4.045   5.822  0.1333  0.0242  0.3663
  184POPC   H8R21139   4.086   4.126   5.898  3.1240 -0.7665  0.9405
  184POPC   H8S21140   3.978   4.060   5.771  0.9875 -0.0272 -1.3631
  184POPC   C2921141   4.199   4.059   5.728 -0.0438  0.9834 -0.3214
  184POPC   H9121142   4.293   4.069   5.784  0.1390 -1.6093 -0.0364
  184POPC  C21021143   4.195   4.069   5.598 -0.1632  0.2767 -0.8449
  184POPC  H10121144   4.287   4.072   5.537  0.7907  0.5223  0.5528
  184POPC  C21121145   4.072   4.052   5.514  0.3948  0.3877 -0.0587
  184POPC  H11R21146   4.035   4.156   5.496  2.3299  1.2840  0.8466
  184POPC  H11S21147   3.992   3.997   5.568  0.8993  0.5274  0.8447
  184POPC  C21221148   4.088   4.009   5.364  0.5468 -0.1423  0.2180
  184POPC  H12R21149   3.992   3.988   5.312  0.5364  0.8568 -0.1785
  184POPC  H12S21150   4.126   3.906   5.383 -2.3408 -1.0366  1.7565
  184POPC  C21321151   4.180   4.094   5.282  0.1061 -1.1462 -0.6139
  184POPC  H13R21152   4.280   4.116   5.326 -0.2603 -0.3183 -0.1675
  184POPC  H13S21153   4.126   4.191   5.281  0.8584 -0.6478  1.5972
  184POPC  C21421154   4.191   4.049   5.137  0.3199 -0.0025  0.0452
  184POPC  H14R21155   4.090   4.057   5.093 -0.5649  1.5688  2.1553
  184POPC  H14S21156   4.226   3.943   5.132  2.9313  0.8356 -1.0600
  184POPC  C21521157   4.289   4.132   5.066 -0.3175 -0.2560  0.1173
  184POPC  H15R21158   4.358   4.186   5.134  0.7001 -0.5297 -0.6869
  184POPC  H15S21159   4.246   4.217   5.008  1.2868  0.6752  0.2565
  184POPC  C21621160   4.368   4.053   4.962  0.1320 -0.0635  0.6084
  184POPC  H16R21161   4.292   4.032   4.884 -0.1083  1.2251  0.4643
  184POPC  H16S21162   4.409   3.955   4.993 -0.6725 -0.8052 -0.6228
  184POPC  C21721163   4.485   4.136   4.897 -0.7135  0.3486 -0.0566
  184POPC  H17R21164   4.551   4.181   4.974  1.5148  2.1743 -2.8067
  184POPC  H17S21165   4.431   4.217   4.843 -0.9333 -1.2923 -2.5068
  184POPC  C21821166   4.577   4.056   4.805  0.9408 -0.3580 -0.0138
  184POPC  H18R21167   4.532   3.990   4.727 -1.4645 -1.6491  2.2882
  184POPC  H18S21168   4.639   3.986   4.865  0.3468  0.7631  1.9741
  184POPC  H18T21169   4.652   4.114   4.748  0.4124  0.1044 -0.2421
  184POPC   C3321170   3.519   3.505   6.532  0.0030  0.4160 -0.2557
  184POPC   H3X21171   3.471   3.605   6.533  0.5147  0.6620 -0.1548
  184POPC   H3Y21172   3.498   3.448   6.625  0.2745 -3.5627 -2.3823
  184POPC   C3421173   3.452   3.417   6.423 -0.3423 -0.6075 -0.4836
  184POPC   H4X21174   3.351   3.382   6.451 -0.9458  1.2556 -0.1890
  184POPC   H4Y21175   3.506   3.320   6.412  1.0325 -0.0561  1.0405
  184POPC   C3521176   3.459   3.475   6.291  0.0716  0.4177 -0.2488
  184POPC   H5X21177   3.566   3.468   6.264  0.3053  3.0071 -0.2707
  184POPC   H5Y21178   3.416   3.577   6.280 -0.5832  0.0396 -1.5086
  184POPC   C3621179   3.388   3.389   6.189 -0.1638  0.2405 -0.0056
  184POPC   H6X21180   3.419   3.287   6.219  0.7057  1.0153  1.9435
  184POPC   H6Y21181   3.417   3.416   6.086 -1.7739  1.1840 -0.2515
  184POPC   C3721182   3.235   3.403   6.206 -0.3091  0.0228  0.1882
  184POPC   H7X21183   3.211   3.467   6.293 -1.7991 -1.2269  0.7612
  184POPC   H7Y21184   3.204   3.297   6.217 -2.3066  0.3440 -1.6846
  184POPC   C3821185   3.161   3.446   6.085  0.4417 -0.0482  0.3978
  184POPC   H8X21186   3.206   3.542   6.051  2.5166 -1.9730 -2.8708
  184POPC   H8Y21187   3.054   3.463   6.108  0.2506 -0.3483 -0.2443
  184POPC   C3921188   3.168   3.348   5.961  0.3726  0.1983  0.0200
  184POPC   H9X21189   3.069   3.342   5.911  1.7861  0.7364 -3.0491
  184POPC   H9Y21190   3.193   3.246   5.997 -0.3842  0.0627  0.1836
  184POPC  C31021191   3.257   3.401   5.850  0.1634 -0.1666  0.3806
  184POPC  H10X21192   3.259   3.318   5.775 -1.8890  0.3113 -0.2789
  184POPC  H10Y21193   3.359   3.420   5.889  0.8178  1.7851 -2.0309
  184POPC  C31121194   3.236   3.534   5.783  0.4036 -0.0872 -0.4048
  184POPC  H11X21195   3.229   3.611   5.863  0.2022  0.0051 -0.5103
  184POPC  H11Y21196   3.142   3.522   5.725 -0.1565 -0.0203  0.4678
  184POPC  C31221197   3.353   3.572   5.687 -0.4849 -0.2272 -0.2451
  184POPC  H12X21198   3.443   3.571   5.752 -1.9380  1.1488  1.9250
  184POPC  H12Y21199   3.338   3.675   5.651 -1.0800  0.2976  1.3899
  184POPC  C31321200   3.357   3.490   5.554  0.0735 -0.2946  0.4505
  184POPC  H13X21201   3.374   3.382   5.575 -1.4981 -0.4573  1.0330
  184POPC  H13Y21202   3.456   3.519   5.514  1.6964 -3.7937  1.5369
  184POPC  C31421203   3.245   3.518   5.454 -0.6825 -0.0360  0.0006
  184POPC  H14X21204   3.217   3.624   5.440 -1.8066 -0.3690 -0.3541
  184POPC  H14Y21205   3.164   3.466   5.510  1.4311 -2.4298  1.0788
  184POPC  C31521206   3.259   3.457   5.315  0.3926 -1.3260 -0.4333
  184POPC  H15X21207   3.287   3.351   5.328 -0.4427 -1.2982  2.1076
  184POPC  H15Y21208   3.329   3.515   5.252 -0.9993  0.4920 -0.4101
  184POPC  C31621209   3.127   3.464   5.231  0.0179 -0.3141 -0.0854
  184POPC  H16X21210   3.042   3.420   5.287  1.0510  0.4212  2.1802
  184POPC  H16Y21211   3.136   3.412   5.133  0.4941 -0.9441  0.2810
  184POPC  H16Z21212   3.110   3.571   5.207  1.0968  0.1210  1.0176
  185POPC     N21213   6.614   0.141   2.600  0.8313  0.2693 -1.1699
  185POPC   C1221214   6.506   0.043   2.647  0.0836 -0.8658  0.1706
  185POPC  H12A21215   6.518  -0.044   2.584  3.8027 -0.2842 -0.1835
  185POPC  H12B21216   6.410   0.088   2.628  0.9686  0.4326 -1.4563
  185POPC   C1321217   6.592   0.182   2.455 -0.2199  0.6864 -0.7991
  185POPC  H13A21218   6.499   0.232   2.433 -0.5084 -0.3218 -1.9997
  185POPC  H13B21219   6.657   0.264   2.431  1.5369 -0.5095 -0.3022
  185POPC  H13C21220   6.609   0.097   2.390 -2.0430 -1.5874  1.4761
  185POPC   C1421221   6.621   0.262   2.691 -0.3593 -0.5125  0.2333
  185POPC  H14A21222   6.671   0.238   2.784 -0.1394  1.0621  0.5572
  185POPC  H14B21223   6.689   0.335   2.650  2.5221 -1.6990  2.5357
  185POPC  H14C21224   6.523   0.302   2.713 -0.9781 -1.9930  0.2583
  185POPC   C1521225   6.757   0.079   2.613 -0.8245 -0.0976 -0.1317
  185POPC  H15A21226   6.768   0.026   2.707  1.6092 -1.7509 -1.2447
  185POPC  H15B21227   6.843   0.144   2.610 -0.7737  0.0855  2.4707
  185POPC  H15C21228   6.762  -0.008   2.549 -0.5437  0.3434 -0.7092
  185POPC   C1121229   6.516   0.004   2.796  0.6341  0.0614  0.3062
  185POPC  H11A21230   6.436  -0.071   2.816  1.7315 -0.8665  1.3960
  185POPC  H11B21231   6.496   0.086   2.867 -2.2848 -1.4794  1.3995
  185POPC     P21232   6.666  -0.220   2.800 -0.3260  0.1322  0.2778
  185POPC   O1321233   6.811  -0.239   2.781  0.4617  0.0704 -0.0452
  185POPC   O1421234   6.565  -0.272   2.706 -0.5395  0.2608 -0.3478
  185POPC   O1221235   6.641  -0.067   2.828  0.1821  0.1309 -0.3057
  185POPC   O1121236   6.632  -0.277   2.938  0.4759  0.3786  0.0725
  185POPC    C121237   6.499  -0.322   2.980  0.3131 -0.1012  0.5274
  185POPC    HA21238   6.423  -0.255   2.936  1.1390  0.7710  0.3861
  185POPC    HB21239   6.491  -0.305   3.090 -1.8083  0.5028  0.3279
  185POPC    C221240   6.465  -0.473   2.947 -0.3516  0.4632  0.0487
  185POPC    HS21241   6.477  -0.483   2.838  0.9579  0.3875  0.1848
  185POPC   O2121242   6.329  -0.496   2.990 -0.1740  0.0631 -0.7767
  185POPC   C2121243   6.283  -0.601   2.927  0.2491 -0.0768 -0.7145
  185POPC   O2221244   6.344  -0.678   2.857  0.1015  0.6148 -0.1147
  185POPC   C2221245   6.132  -0.602   2.953  0.2562  0.0250 -0.2197
  185POPC   H2R21246   6.077  -0.574   2.861 -1.1618 -2.5558 -0.2377
  185POPC   H2S21247   6.101  -0.529   3.031  0.6334 -0.9151  0.8320
  185POPC    C321248   6.574  -0.551   3.030  0.3716  0.3340 -0.2775
  185POPC    HX21249   6.663  -0.545   2.964  1.0132 -1.9258  0.3093
  185POPC    HY21250   6.546  -0.658   3.032  1.9399 -0.1510 -1.7779
  185POPC   O3121251   6.586  -0.506   3.167  0.2854  0.3201 -1.0191
  185POPC   C3121252   6.692  -0.548   3.232 -0.2275 -0.6048 -0.0975
  185POPC   O3221253   6.765  -0.636   3.192 -0.9273 -0.3880  0.0698
  185POPC   C3221254   6.722  -0.470   3.355 -0.4941  0.1391  0.6032
  185POPC   H2X21255   6.747  -0.363   3.344 -0.5785  0.0566 -0.5895
  185POPC   H2Y21256   6.823  -0.505   3.385  0.9917  0.5847 -3.2463
  185POPC   C2321257   6.079  -0.746   2.987  0.3005 -0.3514 -0.2484
  185POPC   H3R21258   6.128  -0.792   3.076 -2.6806 -2.2122  0.5572
  185POPC   H3S21259   6.120  -0.810   2.906  0.9352 -0.1150 -0.1250
  185POPC   C2421260   5.924  -0.752   3.021 -0.3602  0.3032 -0.2755
  185POPC   H4R21261   5.877  -0.699   2.935  0.2462  0.1448 -0.7187
  185POPC   H4S21262   5.904  -0.684   3.106  3.5455  0.5676  0.6309
  185POPC   C2521263   5.872  -0.892   3.050 -0.1007  0.0260  0.0266
  185POPC   H5R21264   5.944  -0.939   3.122  1.0106 -0.8596 -1.5990
  185POPC   H5S21265   5.887  -0.953   2.958  2.3629 -0.6770  0.8058
  185POPC   C2621266   5.732  -0.909   3.100  0.1238  0.2313  0.6422
  185POPC   H6R21267   5.696  -1.011   3.076  0.7178  0.0130  0.6685
  185POPC   H6S21268   5.665  -0.848   3.036 -1.5759 -1.9676  0.2402
  185POPC   C2721269   5.705  -0.857   3.243  0.7894 -0.1476 -0.0739
  185POPC   H7R21270   5.738  -0.752   3.253  0.3913 -0.0900  0.7157
  185POPC   H7S21271   5.767  -0.913   3.316  1.2028  1.4176  0.8224
  185POPC   C2821272   5.559  -0.884   3.287  0.4198  0.5074 -0.2587
  185POPC   H8R21273   5.535  -0.990   3.266 -1.3195  1.1340 -1.6491
  185POPC   H8S21274   5.490  -0.836   3.214  0.7987 -0.1560 -1.0708
  185POPC   C2921275   5.525  -0.840   3.425 -0.0445 -0.6693 -0.1676
  185POPC   H9121276   5.457  -0.753   3.425 -0.4256 -0.9334 -1.7566
  185POPC  C21021277   5.570  -0.888   3.541  0.2416 -0.1808 -0.1399
  185POPC  H10121278   5.524  -0.838   3.628 -1.5310 -0.0753 -1.0946
  185POPC  C21121279   5.661  -1.007   3.563  0.4893  0.1369  0.5817
  185POPC  H11R21280   5.765  -0.967   3.570  0.2562  0.8308  0.2544
  185POPC  H11S21281   5.657  -1.083   3.482 -2.3919 -0.0234  0.7779
  185POPC  C21221282   5.635  -1.091   3.695  1.1603  0.1333  0.2328
  185POPC  H12R21283   5.533  -1.136   3.700  1.4491 -0.4323  1.1721
  185POPC  H12S21284   5.635  -1.016   3.777 -1.9208 -0.3751  0.8469
  185POPC  C21321285   5.735  -1.198   3.723 -0.1198 -0.0754  0.1835
  185POPC  H13R21286   5.834  -1.147   3.723  0.8702 -1.9039 -1.1305
  185POPC  H13S21287   5.732  -1.280   3.648 -2.8629  1.8794 -2.0439
  185POPC  C21421288   5.718  -1.255   3.870 -0.0961  0.0398  0.3022
  185POPC  H14R21289   5.762  -1.357   3.868  2.3219  0.9801 -1.8262
  185POPC  H14S21290   5.608  -1.258   3.883 -0.0190  2.0617  1.8769
  185POPC  C21521291   5.802  -1.185   3.978  0.0685 -0.3891  0.8222
  185POPC  H15R21292   5.793  -1.075   3.990  1.7215 -0.1362  0.1093
  185POPC  H15S21293   5.906  -1.202   3.942 -0.0856 -1.9033  1.0468
  185POPC  C21621294   5.779  -1.252   4.119 -0.2944  0.0983 -0.5028
  185POPC  H16R21295   5.796  -1.361   4.105 -0.6530 -0.0152 -0.0673
  185POPC  H16S21296   5.678  -1.227   4.157 -0.7024 -0.5832 -1.1196
  185POPC  C21721297   5.895  -1.210   4.218  0.5923  0.1588  0.2742
  185POPC  H17R21298   5.878  -1.103   4.240 -1.6258 -0.1405  0.2869
  185POPC  H17S21299   5.992  -1.225   4.168  0.8095 -0.9522  0.9917
  185POPC  C21821300   5.907  -1.293   4.347  0.0949  0.2473  0.1362
  185POPC  H18R21301   5.998  -1.263   4.403  0.0501 -0.1222  0.4167
  185POPC  H18S21302   5.913  -1.403   4.334 -1.1283  0.0364  1.1470
  185POPC  H18T21303   5.820  -1.274   4.414 -1.4342  0.4762 -1.8126
  185POPC   C3321304   6.618  -0.501   3.460  0.3741 -0.1935  0.0669
  185POPC   H3X21305   6.513  -0.493   3.426  0.2739  1.2436  0.6462
  185POPC   H3Y21306   6.632  -0.416   3.530 -1.1358 -0.6825  1.0355
  185POPC   C3421307   6.637  -0.639   3.530 -0.0841  0.5068 -0.0317
  185POPC   H4X21308   6.727  -0.626   3.594  0.1670 -0.4397 -0.1766
  185POPC   H4Y21309   6.668  -0.721   3.461  2.5954 -1.2750  3.0366
  185POPC   C3521310   6.521  -0.688   3.622  0.1429  0.5936  0.0094
  185POPC   H5X21311   6.537  -0.790   3.664  0.0430  1.8416  3.4051
  185POPC   H5Y21312   6.434  -0.689   3.554  0.5292  0.1207 -0.4891
  185POPC   C3621313   6.505  -0.597   3.746 -0.1284 -0.5528  0.3129
  185POPC   H6X21314   6.402  -0.616   3.783 -0.9094  0.4030 -1.2212
  185POPC   H6Y21315   6.507  -0.494   3.704 -0.1596 -0.9688 -0.7438
  185POPC   C3721316   6.613  -0.619   3.855  0.3462 -0.3299  0.4240
  185POPC   H7X21317   6.716  -0.589   3.824  0.3407 -1.7264 -1.0399
  185POPC   H7Y21318   6.601  -0.719   3.901 -2.0561  0.3794  1.4798
  185POPC   C3821319   6.575  -0.528   3.972 -0.2628 -0.1290 -0.2048
  185POPC   H8X21320   6.465  -0.534   3.988 -0.0992 -0.6764  0.7760
  185POPC   H8Y21321   6.598  -0.423   3.947  3.1435 -0.9608 -1.0027
  185POPC   C3921322   6.639  -0.556   4.108 -0.2586  0.4636  0.1097
  185POPC   H9X21323   6.613  -0.662   4.132 -1.9518  0.9565  0.5791
  185POPC   H9Y21324   6.597  -0.492   4.189 -0.7342  1.8537 -1.1959
  185POPC  C31021325   6.784  -0.550   4.108 -0.2154 -0.4275  0.8339
  185POPC  H10X21326   6.808  -0.460   4.048 -0.7623 -0.9680 -0.2315
  185POPC  H10Y21327   6.826  -0.627   4.040 -1.1143  1.0876 -1.5645
  185POPC  C31121328   6.841  -0.563   4.250 -0.1232  0.2166 -0.5248
  185POPC  H11X21329   6.817  -0.465   4.297  2.7366  0.3508  0.8725
  185POPC  H11Y21330   6.952  -0.565   4.243  0.0050 -2.2689  1.0502
  185POPC  C31221331   6.802  -0.688   4.327 -0.0653 -0.0366 -1.2988
  185POPC  H12X21332   6.826  -0.783   4.274  2.1888 -0.5157  0.4630
  185POPC  H12Y21333   6.693  -0.677   4.347  0.5004  1.1351  1.5840
  185POPC  C31321334   6.870  -0.692   4.465  1.3353 -0.5655  0.9835
  185POPC  H13X21335   6.847  -0.594   4.511  4.5298  0.8648 -0.1715
  185POPC  H13Y21336   6.981  -0.687   4.463  1.4372 -0.4068  3.4538
  185POPC  C31421337   6.844  -0.816   4.549  0.0818 -0.2899  0.0260
  185POPC  H14X21338   6.895  -0.901   4.497  1.8555  1.7334 -1.7552
  185POPC  H14Y21339   6.733  -0.825   4.552 -0.0152 -0.2337 -1.8544
  185POPC  C31521340   6.899  -0.787   4.696 -0.4505 -0.1730  0.6277
  185POPC  H15X21341   6.835  -0.711   4.745 -1.4335 -1.0419  0.7141
  185POPC  H15Y21342   7.001  -0.748   4.674 -0.0568 -1.9911 -1.1233
  185POPC  C31621343   6.914  -0.907   4.794  0.0569 -0.7272  0.6148
  185POPC  H16X21344   6.972  -0.876   4.884  0.9936 -1.4069  0.2587
  185POPC  H16Y21345   6.944  -1.004   4.748  0.0870 -0.5080  0.1709
  185POPC  H16Z21346   6.809  -0.930   4.822 -1.0824  2.5024 -0.6070
  186POPC     N21347   1.420   2.452   2.239 -0.5629 -0.5379  0.5882
  186POPC   C1221348   1.502   2.390   2.352  0.1578 -0.8329 -0.4607
  186POPC  H12A21349   1.606   2.375   2.330  1.1609  1.9340  1.7221
  186POPC  H12B21350   1.458   2.291   2.358 -0.0183 -0.7689 -0.7044
  186POPC   C1321351   1.507   2.557   2.171 -1.8748 -0.5455  0.4079
  186POPC  H13A21352   1.479   2.573   2.068 -0.8495  0.4701  0.2697
  186POPC  H13B21353   1.508   2.652   2.223 -1.0568 -0.4143  0.1516
  186POPC  H13C21354   1.605   2.516   2.155 -1.3772  0.7708 -0.0149
  186POPC   C1421355   1.380   2.349   2.136 -0.2550  0.1277  0.3360
  186POPC  H14A21356   1.461   2.310   2.076 -1.4954 -1.0391 -0.6320
  186POPC  H14B21357   1.337   2.269   2.194  0.0038 -0.8841 -0.8195
  186POPC  H14C21358   1.305   2.382   2.066  1.3288  0.2553 -1.4060
  186POPC   C1521359   1.294   2.513   2.275  0.5878  1.2213 -0.8721
  186POPC  H15A21360   1.232   2.454   2.342 -0.1679  2.3703 -0.5153
  186POPC  H15B21361   1.229   2.548   2.197 -2.2529  2.1320  1.7072
  186POPC  H15C21362   1.312   2.598   2.340  0.9137  1.0386 -0.7209
  186POPC   C1121363   1.482   2.458   2.495  0.2335  0.1982 -0.6039
  186POPC  H11A21364   1.515   2.564   2.484  1.4323 -0.0151  0.6674
  186POPC  H11B21365   1.559   2.408   2.557  0.5359 -0.6171 -1.6004
  186POPC     P21366   1.310   2.528   2.675  0.3069  0.3139  0.0512
  186POPC   O1321367   1.221   2.445   2.759 -0.0240  0.3950 -0.0729
  186POPC   O1421368   1.253   2.654   2.626  0.3985 -0.5488  0.0636
  186POPC   O1221369   1.347   2.445   2.543 -0.0333 -0.2961 -0.2289
  186POPC   O1121370   1.447   2.561   2.747 -0.3006 -0.3242  0.2513
  186POPC    C121371   1.485   2.491   2.868  0.5239  0.6704  0.6416
  186POPC    HA21372   1.596   2.479   2.865  0.4385 -0.6787  1.6722
  186POPC    HB21373   1.445   2.387   2.865  2.4426 -0.1058 -0.2360
  186POPC    C221374   1.442   2.560   2.995  0.2952  0.2434  0.2461
  186POPC    HS21375   1.331   2.557   2.987  0.4515 -1.9381 -2.0792
  186POPC   O2121376   1.494   2.689   3.002  0.6033 -0.6681 -0.2785
  186POPC   C2121377   1.422   2.788   3.049 -0.7889  0.3012  0.3856
  186POPC   O2221378   1.310   2.784   3.096 -0.1745 -0.3865 -0.2133
  186POPC   C2221379   1.497   2.914   3.035 -0.2717 -0.3234  1.2181
  186POPC   H2R21380   1.501   2.950   2.930  1.7621 -0.8778  1.0482
  186POPC   H2S21381   1.600   2.884   3.065  0.1786 -1.2531 -0.9836
  186POPC    C321382   1.485   2.486   3.112  0.2658  0.6653 -0.5741
  186POPC    HX21383   1.594   2.489   3.130  0.1713 -1.5611  0.8582
  186POPC    HY21384   1.469   2.377   3.093  0.3996  0.2378  1.5580
  186POPC   O3121385   1.417   2.534   3.230  0.1249 -0.3327 -0.1076
  186POPC   C3121386   1.305   2.470   3.264 -0.0934 -0.2695  0.5624
  186POPC   O3221387   1.257   2.374   3.203 -0.1174 -0.3644 -0.2662
  186POPC   C3221388   1.243   2.532   3.390 -0.3346 -0.7686  0.0010
  186POPC   H2X21389   1.140   2.494   3.408  0.0701 -1.4730  0.9015
  186POPC   H2Y21390   1.250   2.639   3.359  2.7082 -0.9600 -0.2102
  186POPC   C2321391   1.458   3.030   3.123  0.6850 -0.0865  0.1888
  186POPC   H3R21392   1.353   3.065   3.115  0.4193 -0.4097  2.0385
  186POPC   H3S21393   1.522   3.113   3.085  1.7466 -1.4930 -1.2636
  186POPC   C2421394   1.486   3.009   3.275 -0.2537  0.1731 -0.5459
  186POPC   H4R21395   1.585   2.968   3.303 -0.7790 -0.2391  0.8381
  186POPC   H4S21396   1.415   2.936   3.320 -1.5127  0.7268 -1.5576
  186POPC   C2521397   1.459   3.132   3.354  0.4883 -0.0044 -0.4051
  186POPC   H5R21398   1.356   3.175   3.348  1.3005  2.2747  0.9264
  186POPC   H5S21399   1.524   3.218   3.330 -0.6488  0.5624 -1.6299
  186POPC   C2621400   1.483   3.092   3.511  0.5839 -0.8094  0.5958
  186POPC   H6R21401   1.588   3.054   3.518  0.6197 -0.5646  1.4831
  186POPC   H6S21402   1.410   3.009   3.524  0.4726 -1.0856 -1.5409
  186POPC   C2721403   1.453   3.195   3.620 -0.6691  0.0306  0.1134
  186POPC   H7R21404   1.343   3.206   3.634 -0.5358 -0.3602  1.7339
  186POPC   H7S21405   1.486   3.297   3.591 -0.2089  0.1207  0.9190
  186POPC   C2821406   1.516   3.156   3.762  0.2721 -0.1827 -0.0380
  186POPC   H8R21407   1.483   3.233   3.835  0.4361 -0.8933  0.7947
  186POPC   H8S21408   1.627   3.167   3.759  0.3065 -0.5937 -0.2769
  186POPC   C2921409   1.467   3.020   3.813 -0.7698  0.0803  0.5060
  186POPC   H9121410   1.418   2.958   3.736 -0.5331 -0.5680  0.8644
  186POPC  C21021411   1.496   2.965   3.934  0.9630 -0.1049  0.0403
  186POPC  H10121412   1.455   2.868   3.964  0.6732  0.0270  0.0766
  186POPC  C21121413   1.573   3.033   4.042 -0.2143  0.2661  0.3028
  186POPC  H11R21414   1.607   3.138   4.028  0.7853 -0.2232 -1.0997
  186POPC  H11S21415   1.668   2.976   4.047  0.9873  2.2250  0.5833
  186POPC  C21221416   1.490   3.021   4.164  0.5002  0.5493  0.1853
  186POPC  H12R21417   1.485   2.915   4.196  0.4803  0.1788 -1.0088
  186POPC  H12S21418   1.388   3.057   4.138  0.3634 -0.3885 -0.5966
  186POPC  C21321419   1.557   3.099   4.282  0.3745  0.5693  0.3263
  186POPC  H13R21420   1.477   3.094   4.358 -0.7782  0.0539 -0.8834
  186POPC  H13S21421   1.581   3.204   4.257 -1.2369  0.4398 -2.0936
  186POPC  C21421422   1.681   3.039   4.336 -0.6588 -0.0792 -0.5432
  186POPC  H14R21423   1.701   3.092   4.432 -1.2550 -0.5500 -0.1504
  186POPC  H14S21424   1.769   3.057   4.272  2.2921 -2.4127  2.4994
  186POPC  C21521425   1.660   2.890   4.375 -0.0101  0.2833 -0.0099
  186POPC  H15R21426   1.656   2.825   4.285  0.5586 -0.6797  0.6380
  186POPC  H15S21427   1.562   2.883   4.427 -0.8209  2.3276 -1.1645
  186POPC  C21621428   1.780   2.829   4.443  0.3913 -0.5643  0.0887
  186POPC  H16R21429   1.784   2.879   4.542  1.0608  0.6507 -0.5338
  186POPC  H16S21430   1.876   2.852   4.392  0.0758  1.4872  0.3308
  186POPC  C21721431   1.765   2.679   4.475  0.4640 -0.1588  0.3251
  186POPC  H17R21432   1.779   2.617   4.384  3.0393 -0.9610  1.1990
  186POPC  H17S21433   1.667   2.653   4.521 -0.4662  0.1131 -1.3836
  186POPC  C21821434   1.864   2.613   4.569  0.3828  0.0121 -0.0996
  186POPC  H18R21435   1.970   2.618   4.537 -0.7387  0.7013 -4.4038
  186POPC  H18S21436   1.857   2.657   4.670  0.5424 -0.9261  0.3271
  186POPC  H18T21437   1.856   2.502   4.569  2.8324 -0.2574  2.3422
  186POPC   C3321438   1.320   2.500   3.521  0.0069  0.2373  0.0310
  186POPC   H3X21439   1.428   2.521   3.516  0.4032 -1.3179  1.1925
  186POPC   H3Y21440   1.319   2.390   3.539  2.9228  0.3426  1.3329
  186POPC   C3421441   1.275   2.573   3.639  0.2704  0.2057 -0.5517
  186POPC   H4X21442   1.166   2.571   3.659  0.3338 -0.3989 -0.2286
  186POPC   H4Y21443   1.302   2.680   3.624  1.1799  0.4118  2.0469
  186POPC   C3521444   1.348   2.516   3.761 -0.0925  0.4447 -0.2601
  186POPC   H5X21445   1.458   2.528   3.752 -0.3916  3.0572 -1.4209
  186POPC   H5Y21446   1.321   2.409   3.751 -2.3511  0.8703  0.6145
  186POPC   C3621447   1.299   2.572   3.900  0.1591 -0.6315  0.2979
  186POPC   H6X21448   1.190   2.586   3.913  0.2549 -0.1534  0.5981
  186POPC   H6Y21449   1.342   2.674   3.912  0.4091 -0.8294  1.1957
  186POPC   C3721450   1.358   2.481   4.009  0.2843 -0.1443  0.3903
  186POPC   H7X21451   1.459   2.442   3.982  0.6987 -0.9303  2.7645
  186POPC   H7Y21452   1.297   2.388   4.008  1.6804 -1.1002 -0.8915
  186POPC   C3821453   1.366   2.556   4.145  0.3015  0.1664  0.1195
  186POPC   H8X21454   1.263   2.587   4.172 -0.0770 -0.7051 -0.2912
  186POPC   H8Y21455   1.425   2.650   4.129 -0.6767  0.8262  0.3358
  186POPC   C3921456   1.421   2.465   4.252 -0.3917  0.0838 -0.3442
  186POPC   H9X21457   1.521   2.435   4.215 -1.6852 -3.2867 -1.5010
  186POPC   H9Y21458   1.361   2.375   4.276 -1.1525  0.3427 -1.2321
  186POPC  C31021459   1.442   2.542   4.385  0.4775 -0.3444 -0.0257
  186POPC  H10X21460   1.346   2.577   4.429  1.3128  2.3258 -0.1596
  186POPC  H10Y21461   1.506   2.629   4.359  0.3908 -0.3367 -0.2135
  186POPC  C31121462   1.503   2.446   4.488 -0.7679 -0.5390  0.1558
  186POPC  H11X21463   1.527   2.509   4.576  1.9401 -0.1074 -0.7990
  186POPC  H11Y21464   1.597   2.399   4.453 -1.3076 -1.3013 -0.3299
  186POPC  C31221465   1.412   2.343   4.550  0.7952  0.4197  0.0284
  186POPC  H12X21466   1.402   2.271   4.467 -1.3670 -1.3487  1.6854
  186POPC  H12Y21467   1.315   2.386   4.582  1.5804  2.1630  0.2038
  186POPC  C31321468   1.468   2.277   4.679 -0.3490 -0.3283  0.2860
  186POPC  H13X21469   1.464   2.348   4.763 -1.8836 -1.3486  1.1124
  186POPC  H13Y21470   1.573   2.240   4.673  0.2904  1.5703 -1.4390
  186POPC  C31421471   1.410   2.134   4.706 -0.2688  0.1855 -0.0729
  186POPC  H14X21472   1.435   2.079   4.613  0.5960 -1.2909  0.9804
  186POPC  H14Y21473   1.300   2.135   4.717 -0.3831  0.4306 -1.1525
  186POPC  C31521474   1.466   2.048   4.826 -0.2361 -0.0440  0.1181
  186POPC  H15X21475   1.572   2.067   4.853 -0.1177 -1.5955  0.8390
  186POPC  H15Y21476   1.471   1.943   4.792 -0.3452 -0.5488  1.6114
  186POPC  C31621477   1.375   2.057   4.946  0.0964  0.8077  0.3037
  186POPC  H16X21478   1.344   2.160   4.971 -2.1886  0.1683  0.3017
  186POPC  H16Y21479   1.434   2.024   5.034 -0.5200 -0.4668  0.2645
  186POPC  H16Z21480   1.289   1.987   4.940 -0.2734  1.2567  0.2968
  187POPC     N21481   5.033   4.964   2.083  0.0133 -0.5570 -0.2998
  187POPC   C1221482   4.914   4.996   1.993 -0.3929  0.2294  0.3814
  187POPC  H12A21483   4.833   4.933   2.027 -0.0745 -1.6967 -2.1404
  187POPC  H12B21484   4.937   4.951   1.898  0.2948 -2.6521  1.8057
  187POPC   C1321485   5.042   4.821   2.104 -0.4548  0.0589 -0.3991
  187POPC  H13A21486   5.050   4.768   2.011 -0.1239 -0.0058 -0.3364
  187POPC  H13B21487   5.113   4.794   2.181  0.8013 -0.2675 -1.6271
  187POPC  H13C21488   4.947   4.796   2.149 -0.7504  3.3229  1.0867
  187POPC   C1421489   5.154   5.018   2.033  0.6074 -0.9265 -0.0865
  187POPC  H14A21490   5.167   4.992   1.929 -0.5006 -4.3289  0.4965
  187POPC  H14B21491   5.145   5.125   2.046  0.6793 -0.9554  0.2104
  187POPC  H14C21492   5.245   4.995   2.088  1.0906  1.8425  0.4390
  187POPC   C1521493   5.002   5.038   2.211 -0.8029  0.2287 -0.3581
  187POPC  H15A21494   4.927   4.978   2.262 -0.0380 -0.1960  0.2818
  187POPC  H15B21495   4.960   5.136   2.196 -0.8609  0.0118 -1.8063
  187POPC  H15C21496   5.088   5.032   2.275  0.4828  1.1246 -1.9382
  187POPC   C1121497   4.867   5.147   1.970  0.9924  0.6111  0.0713
  187POPC  H11A21498   4.784   5.155   1.896  1.5491 -1.2333 -0.8013
  187POPC  H11B21499   4.946   5.196   1.908 -0.8442 -0.0470 -3.0501
  187POPC     P21500   4.695   5.201   2.150 -0.1085 -0.0153  0.1796
  187POPC   O1321501   4.681   5.069   2.207  0.5982  0.6637 -0.1372
  187POPC   O1421502   4.597   5.236   2.054  0.1883  0.3596  0.8545
  187POPC   O1221503   4.833   5.226   2.087 -0.4191  0.6744  0.0521
  187POPC   O1121504   4.693   5.307   2.262 -0.1320 -0.0942  0.1921
  187POPC    C121505   4.781   5.307   2.375 -0.5574 -0.5721  0.3902
  187POPC    HA21506   4.867   5.373   2.350 -0.7619  0.0205  1.2044
  187POPC    HB21507   4.818   5.206   2.403  0.9576 -0.5410 -1.3418
  187POPC    C221508   4.707   5.380   2.495 -0.3460  0.0843 -0.4827
  187POPC    HS21509   4.786   5.398   2.571 -1.0924 -2.5616  1.0411
  187POPC   O2121510   4.593   5.311   2.542  0.5888  0.1534 -0.0617
  187POPC   C2121511   4.615   5.221   2.628  0.8653 -0.3039  0.0118
  187POPC   O2221512   4.723   5.188   2.673 -0.1918  0.9151 -0.3724
  187POPC   C2221513   4.480   5.154   2.672 -0.4775 -0.5452 -0.4124
  187POPC   H2R21514   4.495   5.055   2.720 -1.7429 -1.0338 -0.9841
  187POPC   H2S21515   4.428   5.144   2.575 -0.0178  0.3837 -0.7707
  187POPC    C321516   4.664   5.524   2.459  0.2517 -0.0233  0.0700
  187POPC    HX21517   4.588   5.529   2.378  1.6606  2.6472 -1.2390
  187POPC    HY21518   4.753   5.573   2.414  1.5849 -1.6733  0.7848
  187POPC   O3121519   4.630   5.597   2.582  0.1786  0.5061  0.4062
  187POPC   C3121520   4.504   5.603   2.614 -0.0657  0.0415 -0.0324
  187POPC   O3221521   4.413   5.554   2.549  0.2914 -0.5772 -0.1411
  187POPC   C3221522   4.476   5.687   2.742  0.8237  0.9101  0.1275
  187POPC   H2X21523   4.381   5.643   2.779  1.3902 -0.7022 -0.2485
  187POPC   H2Y21524   4.464   5.793   2.712 -3.9286  0.9652  1.4597
  187POPC   C2321525   4.413   5.254   2.771  0.4653  0.2585  0.8396
  187POPC   H3R21526   4.305   5.228   2.779  0.2831  1.3350  2.2495
  187POPC   H3S21527   4.411   5.357   2.729 -1.6281 -0.0456  0.0581
  187POPC   C2421528   4.472   5.251   2.905  0.4536  0.2348  0.4554
  187POPC   H4R21529   4.557   5.323   2.902  1.6394 -1.0857  0.8523
  187POPC   H4S21530   4.497   5.145   2.927 -0.6375 -0.1714 -0.1959
  187POPC   C2521531   4.390   5.303   3.020  0.1751 -0.3851  0.2542
  187POPC   H5R21532   4.296   5.246   3.033 -0.4735  0.4116 -0.7288
  187POPC   H5S21533   4.350   5.404   2.993 -0.9133 -1.0760 -0.8452
  187POPC   C2621534   4.456   5.303   3.154 -0.3120  0.1246 -1.2217
  187POPC   H6R21535   4.543   5.370   3.133  0.2903 -0.7536 -1.5513
  187POPC   H6S21536   4.497   5.206   3.190 -0.8178  0.1801 -0.4702
  187POPC   C2721537   4.379   5.377   3.262  0.3558  0.6379 -0.3519
  187POPC   H7R21538   4.287   5.315   3.272  0.7272  0.2183  0.6051
  187POPC   H7S21539   4.355   5.476   3.220 -1.6680  0.7178  0.8600
  187POPC   C2821540   4.454   5.382   3.392 -0.6814 -0.3712  0.0567
  187POPC   H8R21541   4.553   5.423   3.363 -0.3766 -0.6196  0.7375
  187POPC   H8S21542   4.454   5.275   3.422 -0.7301 -0.0950  1.0718
  187POPC   C2921543   4.384   5.468   3.494  0.2072 -0.0019 -0.5069
  187POPC   H9121544   4.345   5.563   3.455 -0.7821 -1.3816 -3.1319
  187POPC  C21021545   4.392   5.435   3.628  0.9006 -0.2410 -0.0176
  187POPC  H10121546   4.338   5.493   3.704  1.4892 -0.2229  0.3955
  187POPC  C21121547   4.480   5.333   3.691 -0.7338 -0.7674  0.3390
  187POPC  H11R21548   4.560   5.379   3.753 -0.2106  0.9386 -1.5064
  187POPC  H11S21549   4.525   5.277   3.606  2.0625 -1.6427  2.2255
  187POPC  C21221550   4.411   5.225   3.777  0.3443  0.1839 -0.4124
  187POPC  H12R21551   4.487   5.146   3.797  0.6438  0.5507 -0.0828
  187POPC  H12S21552   4.318   5.179   3.736 -0.3164  2.5551 -1.7843
  187POPC  C21321553   4.371   5.279   3.912  0.5939 -0.2711 -0.9231
  187POPC  H13R21554   4.289   5.353   3.912  0.8992  0.1791  1.9529
  187POPC  H13S21555   4.460   5.329   3.955  2.3231 -3.8753  0.1287
  187POPC  C21421556   4.316   5.162   4.013 -0.3947 -0.6118 -0.5100
  187POPC  H14R21557   4.247   5.095   3.959 -0.4609  0.7709 -2.2436
  187POPC  H14S21558   4.254   5.216   4.088 -2.4740  0.9241 -3.1544
  187POPC  C21521559   4.416   5.083   4.093  0.6371 -0.5989 -0.0580
  187POPC  H15R21560   4.483   5.031   4.022 -0.0049  0.7959 -1.7635
  187POPC  H15S21561   4.360   5.009   4.154 -1.2426  1.1354  0.4265
  187POPC  C21621562   4.496   5.166   4.194 -0.3404 -0.7498 -0.1729
  187POPC  H16R21563   4.431   5.242   4.243 -0.3004  0.2402 -1.5960
  187POPC  H16S21564   4.561   5.224   4.125 -0.2189  0.0254  0.5740
  187POPC  C21721565   4.596   5.091   4.277  0.2221 -0.0205 -1.0664
  187POPC  H17R21566   4.677   5.162   4.305 -0.0424 -0.4851  1.1040
  187POPC  H17S21567   4.635   5.014   4.207  0.3260 -0.5242 -0.4690
  187POPC  C21821568   4.530   5.027   4.406  0.0485  0.2393 -0.1543
  187POPC  H18R21569   4.437   4.972   4.378 -0.2582 -0.9258  2.8144
  187POPC  H18S21570   4.512   5.112   4.475 -0.1797  1.0502 -1.1909
  187POPC  H18T21571   4.591   4.958   4.468 -1.3274  0.8819  2.0225
  187POPC   C3321572   4.578   5.669   2.856  0.2863 -0.6957  0.2484
  187POPC   H3X21573   4.670   5.721   2.821 -0.1860 -0.3475 -0.5008
  187POPC   H3Y21574   4.606   5.564   2.879  2.2089 -1.3726 -4.1303
  187POPC   C3421575   4.532   5.735   2.989 -0.4182  0.3090 -0.6735
  187POPC   H4X21576   4.439   5.687   3.026 -1.7514  4.1963  1.7175
  187POPC   H4Y21577   4.509   5.844   2.984 -2.9160 -0.1184 -0.0474
  187POPC   C3521578   4.641   5.711   3.104  0.3246  0.0719  0.0969
  187POPC   H5X21579   4.741   5.719   3.056  0.9534  1.5631  1.5870
  187POPC   H5Y21580   4.627   5.608   3.144  0.6072  0.3193  0.8438
  187POPC   C3621581   4.624   5.809   3.220  1.1895 -0.9267 -0.1587
  187POPC   H6X21582   4.535   5.797   3.286  1.3760  0.2620  0.3416
  187POPC   H6Y21583   4.609   5.907   3.169  1.2524 -1.6869 -1.6925
  187POPC   C3721584   4.754   5.821   3.319  0.0752  0.4062  0.8214
  187POPC   H7X21585   4.748   5.910   3.387 -1.7204  0.1244  1.1020
  187POPC   H7Y21586   4.847   5.845   3.264  0.2302  2.7451  1.9478
  187POPC   C3821587   4.791   5.699   3.401  0.1852 -1.0520 -0.0630
  187POPC   H8X21588   4.897   5.698   3.436  0.6480 -0.6460 -1.4102
  187POPC   H8Y21589   4.795   5.615   3.329  2.1907  0.9595 -2.4797
  187POPC   C3921590   4.694   5.670   3.519 -0.1028 -0.2219 -0.4951
  187POPC   H9X21591   4.731   5.581   3.573 -1.1959  1.0915  2.6996
  187POPC   H9Y21592   4.592   5.641   3.485 -0.9846 -0.6975  2.2919
  187POPC  C31021593   4.689   5.776   3.630 -0.5332 -0.4831  0.1777
  187POPC  H10X21594   4.628   5.762   3.722  2.4058 -0.8292  2.2076
  187POPC  H10Y21595   4.644   5.870   3.591 -0.8178 -0.5884  0.2532
  187POPC  C31121596   4.832   5.812   3.679 -0.2356 -0.1705  0.1558
  187POPC  H11X21597   4.884   5.856   3.591 -2.0285 -0.5189 -1.1429
  187POPC  H11Y21598   4.893   5.727   3.717 -1.1116  0.4846  3.3417
  187POPC  C31221599   4.827   5.902   3.801 -0.3813 -0.1982 -0.0450
  187POPC  H12X21600   4.926   5.950   3.816 -1.2179  1.2910  0.9230
  187POPC  H12Y21601   4.797   5.839   3.888  1.1351 -0.1804  0.5096
  187POPC  C31321602   4.722   6.015   3.803 -0.7887 -0.3642  0.4759
  187POPC  H13X21603   4.617   5.980   3.795 -0.6804 -0.2724 -2.7034
  187POPC  H13Y21604   4.733   6.085   3.717 -0.6805 -1.4724 -0.4432
  187POPC  C31421605   4.745   6.091   3.938  0.1062  1.0576 -0.4195
  187POPC  H14X21606   4.854   6.099   3.953  0.4030 -3.0372  0.7558
  187POPC  H14Y21607   4.707   6.031   4.024  1.8214 -1.9103 -1.5831
  187POPC  C31521608   4.678   6.224   3.944  0.2915  0.1241 -0.2831
  187POPC  H15X21609   4.573   6.205   3.913  0.6536 -0.2290 -1.3499
  187POPC  H15Y21610   4.732   6.291   3.874  0.4878 -0.4070 -0.6533
  187POPC  C31621611   4.681   6.287   4.084 -0.0755  0.0229 -0.0903
  187POPC  H16X21612   4.645   6.392   4.075  0.1881 -0.0672 -3.2354
  187POPC  H16Y21613   4.786   6.287   4.120  0.5938  2.0843 -1.8384
  187POPC  H16Z21614   4.616   6.228   4.153  0.5936 -1.7402 -0.9037
  188POPC     N21615   2.195   0.833   2.026  0.0159 -0.1298  0.5317
  188POPC   C1221616   2.197   0.984   2.032  0.7097 -0.1974  0.5879
  188POPC  H12A21617   2.201   1.013   1.928 -0.6191  1.3579  0.9349
  188POPC  H12B21618   2.288   1.008   2.086  0.2150  1.9639  0.5659
  188POPC   C1321619   2.321   0.773   1.975 -0.6375  0.1396  1.1852
  188POPC  H13A21620   2.308   0.665   1.972 -2.1981  0.3266  0.5230
  188POPC  H13B21621   2.346   0.807   1.876 -3.5049  0.6007  0.5292
  188POPC  H13C21622   2.400   0.804   2.043 -0.5113 -0.7038  1.4389
  188POPC   C1421623   2.199   0.783   2.167  0.4293 -0.1482 -1.0653
  188POPC  H14A21624   2.107   0.805   2.221  0.3412 -1.6668 -0.5438
  188POPC  H14B21625   2.212   0.676   2.169  2.5406  0.0831 -0.6484
  188POPC  H14C21626   2.281   0.837   2.211  0.1766 -0.9181  0.4249
  188POPC   C1521627   2.074   0.776   1.958 -0.0936  0.6274  0.5038
  188POPC  H15A21628   2.061   0.821   1.861  2.2683  0.1612 -0.1032
  188POPC  H15B21629   1.996   0.783   2.033  2.0205  1.8277  2.7403
  188POPC  H15C21630   2.086   0.673   1.927  2.4034  1.4016 -1.4461
  188POPC   C1121631   2.087   1.064   2.096 -0.1221 -0.1078  0.4393
  188POPC  H11A21632   2.095   1.035   2.203 -0.0990  2.9222  1.3413
  188POPC  H11B21633   1.984   1.032   2.069 -0.4092  0.8345  0.3633
  188POPC     P21634   2.051   1.306   2.185 -0.2914  0.0993  0.4795
  188POPC   O1321635   1.907   1.314   2.164  0.2160  0.2020  0.1136
  188POPC   O1421636   2.133   1.425   2.178  0.2453  0.3789  0.0288
  188POPC   O1221637   2.101   1.202   2.079  0.5343  0.0160 -0.5087
  188POPC   O1121638   2.069   1.234   2.323 -0.9308 -0.0951 -0.2129
  188POPC    C121639   2.182   1.240   2.403 -0.9100  0.0912 -0.0000
  188POPC    HA21640   2.252   1.318   2.365  1.1625  0.2486  3.6925
  188POPC    HB21641   2.238   1.145   2.394  0.6529  1.0127 -0.2901
  188POPC    C221642   2.153   1.273   2.550 -0.0653 -0.1428 -0.0384
  188POPC    HS21643   2.091   1.192   2.595 -0.6595  0.3124 -0.0293
  188POPC   O2121644   2.099   1.407   2.557  0.6929  0.1302  0.0594
  188POPC   C2121645   1.974   1.426   2.520  1.0484  0.5877 -0.1334
  188POPC   O2221646   1.886   1.338   2.505 -0.0153 -0.7763 -0.3075
  188POPC   C2221647   1.957   1.577   2.491 -0.4624  0.0092 -0.3422
  188POPC   H2R21648   1.959   1.585   2.380 -2.0425  3.6325 -0.2425
  188POPC   H2S21649   2.044   1.636   2.526  1.1516 -2.0464 -0.6331
  188POPC    C321650   2.273   1.275   2.649  0.3777  0.2687 -0.2107
  188POPC    HX21651   2.350   1.354   2.636  0.9431 -0.2849 -0.2960
  188POPC    HY21652   2.325   1.179   2.627  2.4320  0.9911  1.2517
  188POPC   O3121653   2.228   1.258   2.785  0.2863 -0.2303 -0.2318
  188POPC   C3121654   2.236   1.348   2.866  0.4597 -0.6822  0.1259
  188POPC   O3221655   2.285   1.464   2.861 -0.1359 -0.4517 -0.1522
  188POPC   C3221656   2.167   1.299   2.995  0.0535 -1.2712  0.5623
  188POPC   H2X21657   2.158   1.188   2.987  2.8554 -1.6042  0.9294
  188POPC   H2Y21658   2.065   1.342   2.994  0.3676 -0.3730  2.8134
  188POPC   C2321659   1.824   1.636   2.538 -0.4238  0.5751 -0.3061
  188POPC   H3R21660   1.732   1.586   2.500  0.6819 -2.4300  0.6453
  188POPC   H3S21661   1.819   1.744   2.512 -0.3439  0.6110 -0.1725
  188POPC   C2421662   1.813   1.632   2.698 -0.3512  0.0041  0.5192
  188POPC   H4R21663   1.796   1.530   2.738  0.3375  0.4333  1.9879
  188POPC   H4S21664   1.727   1.689   2.739 -0.5875 -1.8315  2.7717
  188POPC   C2521665   1.940   1.672   2.768  0.3313 -0.3441  0.0081
  188POPC   H5R21666   1.950   1.782   2.750  3.9777 -0.0905  2.5066
  188POPC   H5S21667   2.031   1.629   2.722 -0.0098  0.2130 -1.2207
  188POPC   C2621668   1.935   1.660   2.916 -0.3151 -0.5158 -0.3433
  188POPC   H6R21669   1.968   1.559   2.948  2.2313  0.4172  0.1779
  188POPC   H6S21670   1.827   1.657   2.942 -0.2244  1.1296  0.3586
  188POPC   C2721671   2.015   1.761   2.999 -0.5411 -0.0032  0.1314
  188POPC   H7R21672   1.985   1.866   2.977  1.1901  0.7046  0.9838
  188POPC   H7S21673   2.116   1.741   2.957 -1.1585  0.2217 -1.5248
  188POPC   C2821674   2.023   1.731   3.150  0.2950  0.0378  0.0469
  188POPC   H8R21675   2.090   1.813   3.182 -2.0264  1.8887  0.4891
  188POPC   H8S21676   2.063   1.628   3.163  0.4934  0.2338  1.1165
  188POPC   C2921677   1.886   1.745   3.214 -0.2380  0.3757 -0.0657
  188POPC   H9121678   1.799   1.742   3.146  0.3560 -0.0133 -0.8312
  188POPC  C21021679   1.873   1.760   3.347  0.1664 -0.2160  0.3261
  188POPC  H10121680   1.771   1.761   3.388  0.1842 -1.0624  0.3959
  188POPC  C21121681   1.990   1.787   3.435  0.3135 -0.1903  0.5766
  188POPC  H11R21682   1.987   1.887   3.483 -1.0018 -0.0172  0.1819
  188POPC  H11S21683   2.089   1.782   3.384  0.4169  3.5484  0.0761
  188POPC  C21221684   1.992   1.688   3.558 -0.4866  0.1333  0.7264
  188POPC  H12R21685   2.091   1.683   3.609 -0.2362 -1.5405  0.1076
  188POPC  H12S21686   1.977   1.585   3.522 -0.5563  0.6405 -0.7487
  188POPC  C21321687   1.898   1.724   3.676 -0.4860  0.4507  0.8883
  188POPC  H13R21688   1.792   1.717   3.645 -0.9337  2.5840  1.7798
  188POPC  H13S21689   1.916   1.826   3.715  1.8924 -0.4824  2.4256
  188POPC  C21421690   1.917   1.634   3.794  0.4825 -0.6754 -0.4414
  188POPC  H14R21691   2.019   1.652   3.834  0.2463  3.1093 -1.1577
  188POPC  H14S21692   1.907   1.528   3.765  2.1162 -0.9126 -0.2673
  188POPC  C21521693   1.806   1.662   3.902  0.3221  0.3171 -0.2420
  188POPC  H15R21694   1.704   1.627   3.874 -0.4588  1.1962  1.4191
  188POPC  H15S21695   1.794   1.772   3.906  3.1235  0.6723  0.0020
  188POPC  C21621696   1.846   1.605   4.047  0.0514  0.7277 -0.2500
  188POPC  H16R21697   1.951   1.637   4.060  0.5444  0.1733 -2.5666
  188POPC  H16S21698   1.846   1.494   4.037  3.0193  0.7189 -1.0001
  188POPC  C21721699   1.754   1.650   4.160  0.0486  0.5593  0.3726
  188POPC  H17R21700   1.662   1.590   4.141  0.1715  1.2411 -2.9918
  188POPC  H17S21701   1.731   1.758   4.159  1.0665  0.7823 -0.1949
  188POPC  C21821702   1.801   1.614   4.297  0.1314  0.3282  0.6395
  188POPC  H18R21703   1.720   1.631   4.371 -0.3288 -0.2472  0.2748
  188POPC  H18S21704   1.887   1.674   4.332  0.9446 -0.2994 -0.2612
  188POPC  H18T21705   1.815   1.505   4.312  2.2394  0.7563  2.2544
  188POPC   C3321706   2.235   1.342   3.124  0.2840  0.4472 -0.2417
  188POPC   H3X21707   2.244   1.452   3.135 -1.9775  0.5447  1.3953
  188POPC   H3Y21708   2.336   1.298   3.137 -0.6262 -1.5795  0.4185
  188POPC   C3421709   2.154   1.289   3.251  0.3683 -0.3656 -0.1949
  188POPC   H4X21710   2.168   1.179   3.247  1.1458 -0.3833  1.9368
  188POPC   H4Y21711   2.045   1.298   3.229  0.4074 -0.1603 -0.3104
  188POPC   C3521712   2.197   1.337   3.383  0.1567  0.7659  1.2213
  188POPC   H5X21713   2.185   1.447   3.389 -0.1222  1.0594 -2.6020
  188POPC   H5Y21714   2.308   1.324   3.384 -0.0068 -0.9254  1.7413
  188POPC   C3621715   2.133   1.264   3.502  0.1370 -0.1711  0.5395
  188POPC   H6X21716   2.170   1.160   3.496 -1.1710 -0.5436 -2.6145
  188POPC   H6Y21717   2.024   1.258   3.482  0.2625 -0.6178 -0.0106
  188POPC   C3721718   2.151   1.333   3.640  0.1794 -0.6471  0.1880
  188POPC   H7X21719   2.091   1.427   3.632  0.9975 -0.1950 -1.0267
  188POPC   H7Y21720   2.258   1.364   3.647  0.3249 -0.6866 -1.4020
  188POPC   C3821721   2.111   1.257   3.760  0.4412  0.7518  0.4923
  188POPC   H8X21722   2.171   1.164   3.763  0.6421  0.8342 -0.7093
  188POPC   H8Y21723   2.002   1.239   3.744  0.6261 -0.8570  0.9101
  188POPC   C3921724   2.122   1.337   3.892 -0.0038 -0.1580  0.1914
  188POPC   H9X21725   2.057   1.427   3.882  1.2289  0.9230  1.4432
  188POPC   H9Y21726   2.223   1.377   3.912 -0.4641  1.5282 -0.6268
  188POPC  C31021727   2.089   1.254   4.013  1.0027 -0.6208  0.4454
  188POPC  H10X21728   2.165   1.173   4.019 -1.1804 -2.7660  0.5745
  188POPC  H10Y21729   1.996   1.201   3.984 -0.0823  1.0516  0.7157
  188POPC  C31121730   2.080   1.325   4.146 -0.5081 -0.0676  1.0381
  188POPC  H11X21731   2.026   1.263   4.221 -1.2538 -0.0364  0.5380
  188POPC  H11Y21732   2.020   1.419   4.137  2.9751  2.3567  1.0775
  188POPC  C31221733   2.226   1.357   4.193  0.2017 -0.4738 -0.1318
  188POPC  H12X21734   2.266   1.429   4.118 -0.5151  0.4944  0.3935
  188POPC  H12Y21735   2.282   1.263   4.173 -1.1217 -1.6057  1.2497
  188POPC  C31321736   2.241   1.402   4.335  0.7890  0.3952  0.3774
  188POPC  H13X21737   2.287   1.323   4.399 -0.1918 -0.3643  0.1667
  188POPC  H13Y21738   2.145   1.420   4.388  0.9208  1.1233  0.3832
  188POPC  C31421739   2.341   1.522   4.341 -0.4462  0.1152 -0.4090
  188POPC  H14X21740   2.291   1.615   4.307 -1.8866 -0.7120 -0.6498
  188POPC  H14Y21741   2.426   1.506   4.271 -1.3759 -0.7450 -1.3955
  188POPC  C31521742   2.405   1.548   4.481 -0.8423 -0.3769 -0.1690
  188POPC  H15X21743   2.337   1.560   4.569 -1.3099  1.0795 -0.6920
  188POPC  H15Y21744   2.451   1.648   4.462 -1.8933  0.5104  1.6659
  188POPC  C31621745   2.516   1.449   4.516  0.3997  0.0901  0.1797
  188POPC  H16X21746   2.597   1.432   4.442  0.2361  0.1093 -0.0031
  188POPC  H16Y21747   2.465   1.354   4.541 -1.3148  1.1252  0.8229
  188POPC  H16Z21748   2.565   1.473   4.613  0.2087 -1.8596  0.8034
  189SAPI   C1221749   2.061   6.240   6.794 -0.3747 -0.3772  0.7879
  189SAPI    H221750   2.017   6.140   6.814 -2.0355 -0.4188 -2.4079
  189SAPI    O221751   1.965   6.342   6.839  0.1957 -0.0907  0.0328
  189SAPI   HO221752   1.906   6.291   6.894  0.2616 -1.2695 -0.9678
  189SAPI   C1321753   2.197   6.251   6.847  0.1866  0.0809  0.2107
  189SAPI    H321754   2.248   6.165   6.798  2.9591  2.7587 -2.0296
  189SAPI    O321755   2.193   6.227   6.989  0.2078 -0.6868  0.3356
  189SAPI   HO321756   2.119   6.274   7.027  1.3697  1.9347 -0.3755
  189SAPI   C1421757   2.272   6.368   6.806  0.1167  0.3037 -0.4181
  189SAPI    H421758   2.229   6.445   6.874 -1.2302 -0.9643  0.2311
  189SAPI    O421759   2.410   6.355   6.843 -0.2038  0.6486  0.0046
  189SAPI   HO421760   2.450   6.299   6.777 -0.4152  0.3510  0.1265
  189SAPI   C1521761   2.248   6.420   6.665  0.2923 -0.4666 -0.5057
  189SAPI    H521762   2.339   6.385   6.612  0.8321 -0.0399  0.1269
  189SAPI    O521763   2.261   6.564   6.664  0.7728 -0.2924 -0.1675
  189SAPI   HO521764   2.171   6.595   6.677  0.3524 -1.4280 -0.2388
  189SAPI   C1621765   2.131   6.368   6.587 -0.5425 -0.1747  0.0627
  189SAPI    H621766   2.051   6.442   6.609 -1.1514 -0.6318 -0.5611
  189SAPI    O621767   2.147   6.359   6.451  0.3890 -0.1111 -0.0543
  189SAPI   HO621768   2.063   6.383   6.411 -0.9307  1.6769  3.3710
  189SAPI   C1121769   2.068   6.233   6.642  0.0486  0.3007  0.4411
  189SAPI    H121770   2.138   6.150   6.621 -0.4818  0.5342 -2.9154
  189SAPI     P21771   1.915   6.106   6.455 -0.2389  0.1804  0.0535
  189SAPI   O1321772   1.801   6.019   6.481 -0.0169  0.0912 -0.4147
  189SAPI   O1421773   2.043   6.032   6.430 -0.3222 -0.0665  0.9452
  189SAPI   O1221774   1.941   6.210   6.579  0.0948  1.1420  0.0936
  189SAPI   O1121775   1.896   6.210   6.333  0.7626 -0.0241  0.0921
  189SAPI    C121776   1.801   6.318   6.346 -0.7859  0.2841 -0.1555
  189SAPI    HA21777   1.696   6.281   6.348  0.0295 -2.2878 -0.8563
  189SAPI    HB21778   1.804   6.373   6.443 -0.3164  0.0175 -0.0174
  189SAPI    C221779   1.832   6.431   6.239 -0.0984  0.5065  0.3168
  189SAPI    HS21780   1.787   6.384   6.149 -0.4898  0.6298  0.4437
  189SAPI   O2121781   1.973   6.457   6.234 -0.3913  0.0720 -0.1635
  189SAPI   C2121782   2.031   6.470   6.118  0.0463  0.3008  1.1123
  189SAPI   O2221783   1.975   6.476   6.011 -0.8328 -0.4309 -0.3138
  189SAPI   C2221784   2.184   6.484   6.128 -0.3673  0.3629 -0.6159
  189SAPI   H2R21785   2.210   6.545   6.217 -3.2458  1.6969 -0.5745
  189SAPI   H2S21786   2.221   6.382   6.152 -1.3465  0.3581  0.9874
  189SAPI    C321787   1.757   6.564   6.264 -0.3758 -0.7966  0.4104
  189SAPI    HX21788   1.819   6.618   6.340  1.1627 -2.2577  0.2382
  189SAPI    HY21789   1.656   6.551   6.308 -0.8420  1.7283  0.2546
  189SAPI   O3121790   1.756   6.643   6.140  0.3521  0.6349 -0.0240
  189SAPI   C3121791   1.664   6.608   6.054 -0.9996 -0.8717 -0.6285
  189SAPI   O3221792   1.574   6.530   6.072  0.7010 -1.0923 -0.8281
  189SAPI   C3221793   1.693   6.682   5.924 -0.8436 -0.0166 -0.1562
  189SAPI   H2X21794   1.774   6.624   5.876 -0.3954 -0.4709  1.0966
  189SAPI   H2Y21795   1.723   6.784   5.957 -3.8207  0.3520  1.8310
  189SAPI   C2321796   2.255   6.544   6.005 -0.5840  0.0056  1.0079
  189SAPI   H3R21797   2.352   6.584   6.040  0.4338 -1.1776 -0.3286
  189SAPI   H3S21798   2.207   6.634   5.961  0.4428  0.7842  1.4593
  189SAPI   C2421799   2.282   6.450   5.888 -0.1445 -0.2678 -0.0782
  189SAPI   H4R21800   2.186   6.427   5.839  0.2641 -2.8263  0.1771
  189SAPI   H4S21801   2.319   6.350   5.922  1.3689  1.0309  2.4169
  189SAPI   C2521802   2.375   6.502   5.788  0.4282 -0.4736 -0.2732
  189SAPI   H5R21803   2.469   6.536   5.834 -1.2543  3.5042  0.7125
  189SAPI   C2621804   2.350   6.545   5.662  0.5718  0.1064  0.2158
  189SAPI   H6R21805   2.434   6.591   5.609  0.8301 -0.6524 -0.0541
  189SAPI   C2721806   2.224   6.525   5.583  0.0721  0.6118  0.3212
  189SAPI   H7R21807   2.179   6.424   5.592 -0.0887  0.3078 -2.9950
  189SAPI   H7S21808   2.236   6.539   5.474  2.4048  0.0654  0.4643
  189SAPI   C2821809   2.117   6.620   5.642 -0.1004  0.1185  0.1394
  189SAPI   H8R21810   2.137   6.670   5.738 -0.9454  1.1846 -0.2242
  189SAPI   C2921811   1.996   6.643   5.583  0.6177  0.1476  0.0212
  189SAPI   H9R21812   1.921   6.698   5.642  1.7063  2.3880 -0.5555
  189SAPI  C21021813   1.941   6.575   5.460  0.9212 -0.0685 -0.3127
  189SAPI  H10R21814   1.831   6.555   5.463  1.0974 -1.5249 -2.0684
  189SAPI  H10S21815   1.983   6.472   5.453  0.2684 -0.5820  2.3701
  189SAPI  C21121816   1.970   6.670   5.347  0.4067  0.0553  0.8098
  189SAPI  H11R21817   1.953   6.776   5.371 -0.3580 -0.2255  1.5476
  189SAPI  C21221818   1.999   6.640   5.218 -0.5710  0.5252  0.0237
  189SAPI  H12R21819   2.007   6.719   5.142 -0.5323 -1.7448 -2.4845
  189SAPI  C21321820   2.020   6.502   5.160  0.3772 -0.0385  0.4269
  189SAPI  H13R21821   1.983   6.423   5.230  3.1259 -1.3920  0.4919
  189SAPI  H13S21822   2.127   6.474   5.155  0.7765  1.0582  1.9887
  189SAPI  C21421823   1.936   6.494   5.034 -0.6898 -0.0949  0.0854
  189SAPI  H14R21824   1.830   6.471   5.045 -0.5566 -2.1406 -2.1135
  189SAPI  C21521825   1.983   6.503   4.907 -0.4070 -0.4847 -0.3171
  189SAPI  H15R21826   1.907   6.482   4.830 -2.2152  0.5273  1.1185
  189SAPI  C21621827   2.132   6.516   4.877 -0.2651  0.3126  0.2194
  189SAPI  H16R21828   2.182   6.561   4.965 -1.5502  2.1279  0.0849
  189SAPI  H16S21829   2.150   6.585   4.791  0.2963 -1.9251 -1.5469
  189SAPI  C21721830   2.177   6.370   4.836 -0.1858  0.2120 -0.2741
  189SAPI  H17R21831   2.151   6.294   4.912  1.0221  0.1050  0.0545
  189SAPI  H17S21832   2.288   6.366   4.831 -0.2131 -2.0686 -0.2048
  189SAPI  C21821833   2.126   6.322   4.698  0.3498 -0.2843 -0.7044
  189SAPI  H18R21834   2.134   6.404   4.624  1.3680  1.3474  1.1265
  189SAPI  H18S21835   2.022   6.281   4.700  0.3336 -0.4654 -2.7385
  189SAPI  C21921836   2.204   6.200   4.639 -0.2984 -0.8109 -0.3651
  189SAPI  H19R21837   2.243   6.144   4.727 -0.0189  0.0536  0.0765
  189SAPI  H19S21838   2.285   6.239   4.574  0.2629  1.3205  1.4601
  189SAPI  C22021839   2.119   6.104   4.560  0.4797  0.5004  0.4964
  189SAPI  H20R21840   2.057   6.155   4.484 -0.2133 -1.0367 -0.0228
  189SAPI  H20S21841   2.043   6.049   4.620 -0.5275  1.0638 -0.2388
  189SAPI  H20T21842   2.183   6.037   4.498 -1.0098 -0.7300  0.2396
  189SAPI   C3321843   1.569   6.689   5.836 -0.4669 -0.0639  0.0404
  189SAPI   H3X21844   1.486   6.730   5.897  2.0025  2.2844  2.0589
  189SAPI   H3Y21845   1.520   6.591   5.816 -1.6648  0.6442 -0.6097
  189SAPI   C3421846   1.593   6.773   5.709 -0.0072  0.8090 -0.2772
  189SAPI   H4X21847   1.674   6.729   5.648  0.4257  1.1918  0.0113
  189SAPI   H4Y21848   1.638   6.869   5.740 -0.4833  0.5306  1.3706
  189SAPI   C3521849   1.477   6.770   5.609 -0.4113 -1.1689 -0.2204
  189SAPI   H5X21850   1.389   6.826   5.647 -1.4523 -1.1889 -2.4675
  189SAPI   H5Y21851   1.430   6.670   5.595  1.3564 -2.0626 -0.1656
  189SAPI   C3621852   1.533   6.833   5.482 -0.5651 -0.1758  0.1896
  189SAPI   H6X21853   1.635   6.795   5.462  0.0222  1.3368  0.1636
  189SAPI   H6Y21854   1.539   6.943   5.501  0.7451 -0.4497  1.4557
  189SAPI   C3721855   1.438   6.801   5.365  0.0998 -0.3895  0.1036
  189SAPI   H7X21856   1.334   6.834   5.384  0.2640  0.4314 -0.3856
  189SAPI   H7Y21857   1.425   6.692   5.347 -2.1202 -0.1472 -0.0338
  189SAPI   C3821858   1.491   6.862   5.239 -0.5123 -0.5236  0.6358
  189SAPI   H8X21859   1.543   6.956   5.268 -0.2142  0.2861 -2.2230
  189SAPI   H8Y21860   1.403   6.888   5.178  0.0807  0.6684  0.2559
  189SAPI   C3921861   1.567   6.762   5.151  0.4433 -0.0589  0.7122
  189SAPI   H9X21862   1.497   6.677   5.136  0.0855  0.0853  1.4844
  189SAPI   H9Y21863   1.663   6.721   5.190  0.6433 -1.4725 -1.1372
  189SAPI  C31021864   1.607   6.842   5.014  0.1220 -0.2551 -0.6155
  189SAPI  H10X21865   1.673   6.926   5.045  2.1520 -0.7425 -3.1940
  189SAPI  H10Y21866   1.514   6.880   4.968 -0.4203  0.8236  1.2436
  189SAPI  C31121867   1.697   6.758   4.922 -0.5596 -0.5884  0.3384
  189SAPI  H11X21868   1.649   6.660   4.901  1.7236 -1.8543  0.7485
  189SAPI  H11Y21869   1.796   6.744   4.971  0.3163 -1.3129 -1.5322
  189SAPI  C31221870   1.715   6.826   4.784  0.4437  0.1810 -0.2565
  189SAPI  H12X21871   1.747   6.926   4.821 -0.5449  0.6824 -0.7271
  189SAPI  H12Y21872   1.619   6.827   4.729  1.2321  2.4057 -1.7451
  189SAPI  C31321873   1.839   6.775   4.702  0.6197  0.2034  0.1705
  189SAPI  H13X21874   1.907   6.726   4.775 -0.8851 -1.4034  0.5408
  189SAPI  H13Y21875   1.893   6.864   4.663  0.5993 -0.1396 -0.6388
  189SAPI  C31421876   1.771   6.688   4.587 -0.2808  0.0304 -1.0470
  189SAPI  H14X21877   1.715   6.756   4.518  2.0336  1.0666 -1.9994
  189SAPI  H14Y21878   1.701   6.611   4.627  0.9948 -1.1252 -0.9678
  189SAPI  C31521879   1.891   6.617   4.519 -0.1137 -0.0671  0.0388
  189SAPI  H15X21880   1.955   6.566   4.593  0.4056  1.6134  0.7879
  189SAPI  H15Y21881   1.956   6.695   4.475 -0.1434 -0.0022  0.1106
  189SAPI  C31621882   1.842   6.526   4.407 -0.2319  0.3468  0.4409
  189SAPI  H16X21883   1.750   6.577   4.370 -1.3759 -1.0517  1.2876
  189SAPI  H16Y21884   1.822   6.432   4.462  1.0176  0.8140  1.7557
  189SAPI  C31721885   1.946   6.496   4.301  0.1891 -0.0483  0.4437
  189SAPI  H17X21886   2.017   6.421   4.341  1.8428  1.3750  0.2549
  189SAPI  H17Y21887   1.997   6.592   4.279  1.8489 -1.1165 -0.6089
  189SAPI  C31821888   1.885   6.445   4.172  0.0455 -0.0709  0.0630
  189SAPI  H18X21889   1.845   6.342   4.179 -0.7138  0.0567 -1.7843
  189SAPI  H18Y21890   1.965   6.445   4.094 -0.1701  1.0446 -0.1711
  189SAPI  H18Z21891   1.800   6.511   4.145  0.5779  0.2342 -0.9477
  190SAPI   C1221892   4.439   5.351   6.713 -0.1405  0.2954  0.5292
  190SAPI    H221893   4.358   5.317   6.645 -1.3279 -0.9342  2.4632
  190SAPI    O221894   4.565   5.341   6.647 -0.2115 -0.5685  0.1255
  190SAPI   HO221895   4.563   5.255   6.604  0.4976  0.3927 -1.9824
  190SAPI   C1321896   4.403   5.488   6.755  0.2043 -0.1537  0.2690
  190SAPI    H321897   4.297   5.488   6.792 -0.3429  0.9863 -1.2191
  190SAPI    O321898   4.397   5.572   6.637  0.6782 -0.5752  0.2501
  190SAPI   HO321899   4.476   5.560   6.584 -0.2757  2.7098 -2.2219
  190SAPI   C1421900   4.499   5.540   6.858  0.1582  0.0380  0.8066
  190SAPI    H421901   4.601   5.539   6.813 -0.6517 -1.7164 -1.1684
  190SAPI    O421902   4.473   5.672   6.889 -0.1776  0.2162 -0.2933
  190SAPI   HO421903   4.514   5.731   6.825  2.5269 -0.9607  0.1874
  190SAPI   C1521904   4.523   5.450   6.985  0.7494 -0.2719  0.3705
  190SAPI    H521905   4.441   5.486   7.051 -0.3915  0.9564 -1.5977
  190SAPI    O521906   4.632   5.494   7.054 -1.0043 -0.3492  0.6575
  190SAPI   HO521907   4.612   5.523   7.143 -0.8334  1.3422  0.1876
  190SAPI   C1621908   4.506   5.303   6.962  0.1185  0.1481  0.5085
  190SAPI    H621909   4.610   5.267   6.945 -0.2300 -0.1446 -1.2798
  190SAPI    O621910   4.456   5.233   7.071  0.5191  0.2817  0.4438
  190SAPI   HO621911   4.484   5.142   7.064  2.3104  0.8501 -0.1864
  190SAPI   C1121912   4.434   5.259   6.837  0.0458 -0.4413  0.4327
  190SAPI    H121913   4.325   5.271   6.855  0.3534  1.6186  1.2754
  190SAPI     P21914   4.394   5.018   6.718  0.1383  0.4549 -0.0148
  190SAPI   O1321915   4.248   5.054   6.706  0.3834 -0.3996 -0.4649
  190SAPI   O1421916   4.421   4.877   6.756 -0.2343  0.2451 -0.3378
  190SAPI   O1221917   4.468   5.123   6.819  0.4043 -0.0941  0.3271
  190SAPI   O1121918   4.466   5.058   6.584 -0.1321 -0.5429 -0.0717
  190SAPI    C121919   4.580   4.987   6.538  0.7520  0.5047 -0.1250
  190SAPI    HA21920   4.657   5.067   6.535 -0.3983  1.7892  1.8183
  190SAPI    HB21921   4.612   4.908   6.609 -4.4278 -1.4857  0.4638
  190SAPI    C221922   4.548   4.926   6.404  0.3974 -0.6272  0.2669
  190SAPI    HS21923   4.489   5.003   6.350 -0.7610 -1.9317 -0.3971
  190SAPI   O2121924   4.457   4.819   6.408  0.0485 -0.1784 -0.2453
  190SAPI   C2121925   4.484   4.715   6.482  0.0031  0.3149 -0.0853
  190SAPI   O2221926   4.590   4.679   6.528  0.0582 -0.6540 -0.2634
  190SAPI   C2221927   4.349   4.635   6.512 -0.1146 -0.1011  0.2967
  190SAPI   H2R21928   4.362   4.624   6.622  1.2934  0.8556  0.2574
  190SAPI   H2S21929   4.257   4.694   6.497 -1.6457 -1.5501  3.1315
  190SAPI    C321930   4.669   4.885   6.323 -0.5966 -0.2956  0.2377
  190SAPI    HX21931   4.720   4.799   6.373 -1.0390 -1.0631 -0.5970
  190SAPI    HY21932   4.739   4.971   6.316  0.1651 -0.9424 -0.3753
  190SAPI   O3121933   4.636   4.837   6.191  0.4509 -0.3012  0.4767
  190SAPI   C3121934   4.593   4.923   6.104  0.5150  0.0758 -0.1135
  190SAPI   O3221935   4.579   5.042   6.127 -0.0054 -0.7989 -0.5532
  190SAPI   C3221936   4.562   4.861   5.965 -0.3755  0.2069 -0.0626
  190SAPI   H2X21937   4.662   4.832   5.927 -1.5693 -2.4249 -1.5026
  190SAPI   H2Y21938   4.540   4.947   5.899  3.3400  2.3607  1.2555
  190SAPI   C2321939   4.349   4.493   6.448 -0.1627 -0.3210  0.0931
  190SAPI   H3R21940   4.262   4.442   6.495 -0.4978  0.0576 -0.1092
  190SAPI   H3S21941   4.439   4.437   6.480 -0.6340 -0.0962  1.9468
  190SAPI   C2421942   4.321   4.480   6.301  0.4483 -0.0238  0.5432
  190SAPI   H4R21943   4.407   4.525   6.246 -0.8056  0.4137 -1.1185
  190SAPI   H4S21944   4.238   4.551   6.284  1.5461  0.8214 -1.7531
  190SAPI   C2521945   4.298   4.340   6.262  0.3546  0.8945  0.0628
  190SAPI   H5R21946   4.391   4.282   6.249 -0.6274 -0.3002 -2.4313
  190SAPI   C2621947   4.185   4.275   6.224  1.1469  0.6187  0.2867
  190SAPI   H6R21948   4.184   4.169   6.193 -1.8504  0.8755 -0.9011
  190SAPI   C2721949   4.052   4.342   6.208  1.3536 -0.2028  0.2843
  190SAPI   H7R21950   4.052   4.391   6.109 -3.2177  1.5593  0.9048
  190SAPI   H7S21951   4.052   4.417   6.290 -1.3598 -0.3926  0.5555
  190SAPI   C2821952   3.942   4.242   6.215 -0.1290  0.4109  0.0341
  190SAPI   H8R21953   3.954   4.160   6.286 -1.1758  0.7641  0.6405
  190SAPI   C2921954   3.838   4.230   6.129 -0.0393  0.1038 -0.4046
  190SAPI   H9R21955   3.765   4.151   6.149 -0.7672  1.1327  1.2046
  190SAPI  C21021956   3.778   4.326   6.043 -0.6494 -0.4263  0.0469
  190SAPI  H10R21957   3.862   4.377   5.990  0.2917  0.3091  2.1307
  190SAPI  H10S21958   3.726   4.394   6.113  0.9341 -0.3507  1.2200
  190SAPI  C21121959   3.667   4.287   5.954 -0.1449 -0.1657  0.4658
  190SAPI  H11R21960   3.571   4.268   6.005 -1.5170  2.1321 -1.1036
  190SAPI  C21221961   3.660   4.280   5.817 -0.8268 -0.4005  0.0654
  190SAPI  H12R21962   3.564   4.241   5.780 -0.2723  0.3046 -2.2621
  190SAPI  C21321963   3.767   4.287   5.706  0.3037 -0.4920 -0.3684
  190SAPI  H13R21964   3.779   4.186   5.662  1.8092 -1.2144  1.5404
  190SAPI  H13S21965   3.865   4.313   5.751  0.0320 -1.0593  0.5828
  190SAPI  C21421966   3.732   4.378   5.588  0.3664 -0.2905 -0.6059
  190SAPI  H14R21967   3.703   4.480   5.617  3.3488  0.2567  0.9314
  190SAPI  C21521968   3.714   4.353   5.458 -0.1627 -0.3571 -0.7419
  190SAPI  H15R21969   3.701   4.438   5.389 -2.0703  1.6032  1.8038
  190SAPI  C21621970   3.753   4.224   5.389 -0.3343  0.0066  0.1902
  190SAPI  H16R21971   3.666   4.155   5.377 -0.8275  0.5096  0.7624
  190SAPI  H16S21972   3.827   4.173   5.454 -1.5310  0.8546  2.3392
  190SAPI  C21721973   3.829   4.252   5.256 -0.0188 -0.4518 -0.0310
  190SAPI  H17R21974   3.874   4.159   5.214  0.1617 -0.2694 -0.2459
  190SAPI  H17S21975   3.923   4.309   5.274  0.4436  0.2706 -3.8286
  190SAPI  C21821976   3.746   4.317   5.144  0.9435  0.5309  0.2273
  190SAPI  H18R21977   3.687   4.399   5.190  1.2499  0.4847  0.7078
  190SAPI  H18S21978   3.667   4.242   5.123 -0.2058  1.5771  0.6155
  190SAPI  C21921979   3.818   4.350   5.015 -0.1981 -0.4279 -0.5143
  190SAPI  H19R21980   3.908   4.409   5.042  0.1921 -1.6662  1.0629
  190SAPI  H19S21981   3.754   4.414   4.950 -0.1793  1.2572  1.0708
  190SAPI  C22021982   3.867   4.220   4.937 -0.3686  0.4643 -0.7354
  190SAPI  H20R21983   3.960   4.176   4.978 -1.1636  1.9841  3.0997
  190SAPI  H20S21984   3.881   4.236   4.828 -2.7635 -1.5782 -1.4444
  190SAPI  H20T21985   3.790   4.140   4.942 -1.0097  1.1378  0.8866
  190SAPI   C3321986   4.471   4.735   5.966  0.1433 -0.4220  0.1213
  190SAPI   H3X21987   4.372   4.770   6.003  0.4480 -0.0892  0.6348
  190SAPI   H3Y21988   4.506   4.663   6.043  2.1665  1.7202  1.3573
  190SAPI   C3421989   4.449   4.675   5.836  0.3982  0.5708  0.2491
  190SAPI   H4X21990   4.540   4.624   5.797 -1.3933 -0.1753 -3.4591
  190SAPI   H4Y21991   4.432   4.751   5.757 -2.1682 -0.4599 -0.2767
  190SAPI   C3521992   4.340   4.566   5.839  1.1735  0.4927  0.2654
  190SAPI   H5X21993   4.359   4.502   5.928  1.1036 -1.2283 -0.9118
  190SAPI   H5Y21994   4.358   4.504   5.748 -0.3227  0.1790  0.1693
  190SAPI   C3621995   4.194   4.615   5.817  0.5230 -0.2203 -0.5048
  190SAPI   H6X21996   4.181   4.709   5.758 -1.2795 -0.1801 -0.0996
  190SAPI   H6Y21997   4.154   4.645   5.917  1.2926 -0.3349 -0.1541
  190SAPI   C3721998   4.099   4.506   5.767  0.0291 -0.4913  0.3056
  190SAPI   H7X21999   4.000   4.555   5.765 -0.4169 -1.3687 -1.4493
  190SAPI   H7Y22000   4.099   4.420   5.838 -0.5365  0.2838  1.2699
  190SAPI   C3822001   4.129   4.461   5.623 -0.5420  0.0642  0.2721
  190SAPI   H8X22002   4.033   4.415   5.591 -0.5392  0.2293  0.0185
  190SAPI   H8Y22003   4.196   4.372   5.630 -1.7678 -0.8685  0.4399
  190SAPI   C3922004   4.185   4.559   5.518 -0.1647 -0.5627 -0.4887
  190SAPI   H9X22005   4.290   4.589   5.538 -0.2694  1.2018 -2.2726
  190SAPI   H9Y22006   4.121   4.649   5.509 -0.0860 -0.5344 -0.7638
  190SAPI  C31022007   4.181   4.487   5.387 -0.5946  0.3206 -0.1535
  190SAPI  H10X22008   4.082   4.438   5.379 -0.4977  0.3525 -2.0879
  190SAPI  H10Y22009   4.251   4.401   5.382 -0.0905  0.7647 -0.8711
  190SAPI  C31122010   4.216   4.575   5.260  0.2870  0.7036  0.0090
  190SAPI  H11X22011   4.317   4.613   5.283  0.4743 -0.3039  0.9054
  190SAPI  H11Y22012   4.139   4.653   5.241  1.5255  1.6135 -1.4519
  190SAPI  C31222013   4.223   4.490   5.132 -0.0046 -0.6154  0.4533
  190SAPI  H12X22014   4.122   4.449   5.111 -0.2683  1.2353 -2.3907
  190SAPI  H12Y22015   4.295   4.408   5.149  0.6061 -0.3406 -0.7612
  190SAPI  C31322016   4.274   4.577   5.017 -0.2408  0.4670 -0.1016
  190SAPI  H13X22017   4.366   4.633   5.044  0.0828 -0.9206  1.9632
  190SAPI  H13Y22018   4.200   4.653   4.984 -1.7507 -1.2306 -0.8490
  190SAPI  C31422019   4.298   4.497   4.887  0.2438  0.3455  0.2448
  190SAPI  H14X22020   4.375   4.418   4.899 -0.0847 -0.0166 -0.0208
  190SAPI  H14Y22021   4.345   4.569   4.816 -1.2007 -0.2009 -1.3248
  190SAPI  C31522022   4.179   4.445   4.817 -0.3630 -0.7443  0.8430
  190SAPI  H15X22023   4.109   4.530   4.799 -0.7779 -1.6026 -2.0798
  190SAPI  H15Y22024   4.134   4.362   4.875  2.3093 -3.4433 -0.7179
  190SAPI  C31622025   4.213   4.377   4.681 -0.0592 -0.1874 -0.9543
  190SAPI  H16X22026   4.144   4.292   4.660  0.6296 -1.3758  1.2968
  190SAPI  H16Y22027   4.313   4.329   4.684  0.5263  0.8468 -2.6268
  190SAPI  C31722028   4.209   4.476   4.563 -0.1729 -0.2191  0.4182
  190SAPI  H17X22029   4.275   4.560   4.594  0.4470 -1.1610  1.7311
  190SAPI  H17Y22030   4.105   4.511   4.543 -0.6310 -0.6525  1.9104
  190SAPI  C31822031   4.262   4.413   4.434  0.0178  0.3238  0.3036
  190SAPI  H18X22032   4.264   4.484   4.348  3.2000 -0.0645 -0.0520
  190SAPI  H18Y22033   4.197   4.328   4.405  0.6791 -0.0107 -0.2162
  190SAPI  H18Z22034   4.363   4.372   4.455 -0.7496 -2.7545 -1.4567
  191SAPI   C1222035   3.463   1.207   2.567 -0.8662 -0.0588  0.5111
  191SAPI    H222036   3.523   1.135   2.507 -2.2467  1.8102 -3.4379
  191SAPI    O222037   3.513   1.339   2.533  0.1005 -0.4460 -0.3207
  191SAPI   HO222038   3.597   1.353   2.578 -0.7101  0.4341  0.9999
  191SAPI   C1322039   3.322   1.187   2.521 -0.5239  0.2911  0.5072
  191SAPI    H322040   3.292   1.081   2.536  0.0220 -0.2055 -1.6562
  191SAPI    O322041   3.304   1.223   2.382  0.4257 -0.5795 -0.1363
  191SAPI   HO322042   3.356   1.299   2.356 -1.2613  0.7272  0.0891
  191SAPI   C1422043   3.237   1.270   2.620  0.5795 -0.4866 -0.4610
  191SAPI    H422044   3.261   1.377   2.599 -0.2885 -0.0146  0.8233
  191SAPI    O422045   3.098   1.262   2.586  0.5838  0.2475 -0.2642
  191SAPI   HO422046   3.071   1.352   2.568 -1.6034 -0.4133 -0.5113
  191SAPI   C1522047   3.261   1.262   2.767 -0.5626 -0.0299 -0.3435
  191SAPI    H522048   3.206   1.168   2.790  0.7834 -0.4410  1.3613
  191SAPI    O522049   3.198   1.367   2.844  0.1409  0.7627 -0.0927
  191SAPI   HO522050   3.108   1.338   2.859 -0.0237  0.2850 -1.7479
  191SAPI   C1622051   3.405   1.256   2.806  0.9418  0.1165  0.4797
  191SAPI    H622052   3.445   1.360   2.803 -1.6915  1.1972 -1.9619
  191SAPI    O622053   3.423   1.217   2.940 -0.2756 -0.1004  0.3588
  191SAPI   HO622054   3.450   1.125   2.949  0.2769  0.0887  0.7156
  191SAPI   C1122055   3.480   1.163   2.709 -0.4062 -0.7701  0.1331
  191SAPI    H122056   3.450   1.056   2.707  0.6186 -1.2065 -4.5448
  191SAPI     P22057   3.699   1.072   2.850  0.4766 -0.1875 -0.0792
  191SAPI   O1322058   3.810   0.991   2.800  0.3377 -0.0135  0.3126
  191SAPI   O1422059   3.593   1.009   2.934  0.2203  0.1702 -1.3150
  191SAPI   O1222060   3.626   1.156   2.727  0.0833 -0.6933  0.3340
  191SAPI   O1122061   3.765   1.188   2.937 -0.1777  0.2172  0.3859
  191SAPI    C122062   3.844   1.295   2.880 -0.0510  0.2226 -0.0518
  191SAPI    HA22063   3.879   1.275   2.777  0.9303  0.6064  0.1875
  191SAPI    HB22064   3.779   1.385   2.876 -2.8815 -1.7034  0.0831
  191SAPI    C222065   3.972   1.336   2.961  0.0192 -0.0408 -0.3661
  191SAPI    HS22066   4.063   1.287   2.918  1.0283 -0.3741  2.0208
  191SAPI   O2122067   3.969   1.298   3.096  0.3681 -0.0713 -0.4320
  191SAPI   C2122068   3.984   1.167   3.123 -1.1753  0.0654  0.5774
  191SAPI   O2222069   4.052   1.088   3.054 -1.1682  0.4532 -0.2885
  191SAPI   C2222070   3.900   1.132   3.246  0.2269  0.3156  0.5113
  191SAPI   H2R22071   3.898   1.224   3.308 -0.2069  0.3970  0.3820
  191SAPI   H2S22072   3.798   1.105   3.212  0.6242 -2.2380  1.1634
  191SAPI    C322073   4.008   1.484   2.952 -0.4356 -0.8375 -0.1251
  191SAPI    HX22074   4.035   1.508   2.847  0.2417 -0.5882  0.0977
  191SAPI    HY22075   4.103   1.496   3.008 -1.6466  0.7770  1.7122
  191SAPI   O3122076   3.900   1.577   2.991 -0.5708  0.1622  0.5328
  191SAPI   C3122077   3.915   1.652   3.098  0.9322  0.2878 -0.4819
  191SAPI   O3222078   4.003   1.650   3.180  0.1159  0.3359 -0.6625
  191SAPI   C3222079   3.781   1.743   3.106 -0.9380  0.2697  0.3887
  191SAPI   H2X22080   3.694   1.675   3.090 -1.9168  1.2114  1.5316
  191SAPI   H2Y22081   3.779   1.823   3.029 -1.0087  2.3152  2.4203
  191SAPI   C2322082   3.965   1.020   3.326  0.1239  0.9863 -0.5793
  191SAPI   H3R22083   4.074   1.043   3.329  0.2521  0.3031  0.7239
  191SAPI   H3S22084   3.952   0.917   3.288 -0.7931  1.2471 -0.9901
  191SAPI   C2422085   3.918   1.038   3.475  0.0875  0.3954  0.7762
  191SAPI   H4R22086   3.814   1.003   3.486  0.9287 -2.8734 -0.5615
  191SAPI   H4S22087   3.930   1.143   3.511  0.8090  0.7648 -0.4997
  191SAPI   C2522088   3.999   0.941   3.557 -0.4084  0.5622 -0.1889
  191SAPI   H5R22089   4.057   0.870   3.496  2.2723  2.0086  0.4733
  191SAPI   C2622090   4.038   0.948   3.691 -0.1091 -0.1774 -0.5078
  191SAPI   H6R22091   4.097   0.872   3.745  1.7017  1.5593  0.1217
  191SAPI   C2722092   4.008   1.062   3.781  0.1489 -0.4276  0.7015
  191SAPI   H7R22093   4.006   1.029   3.886  2.5262 -1.2740  0.5422
  191SAPI   H7S22094   3.902   1.090   3.764  0.1945 -0.9043 -0.4766
  191SAPI   C2822095   4.098   1.172   3.754  0.0980  0.0812  0.3476
  191SAPI   H8R22096   4.106   1.200   3.648 -0.3708  0.8942  0.5213
  191SAPI   C2922097   4.178   1.225   3.849  0.1536 -0.2439  0.2882
  191SAPI   H9R22098   4.237   1.316   3.828  0.1266 -0.4560 -0.7768
  191SAPI  C21022099   4.191   1.174   3.994  0.7617 -0.6493 -0.1988
  191SAPI  H10R22100   4.295   1.180   4.032  0.8978 -2.0228 -0.3247
  191SAPI  H10S22101   4.169   1.066   3.998  0.6908 -0.7251 -1.9623
  191SAPI  C21122102   4.094   1.242   4.093  0.1832  0.7881 -0.1616
  191SAPI  H11R22103   3.991   1.208   4.078 -0.3805  1.9013  1.1239
  191SAPI  C21222104   4.126   1.326   4.193  0.4123  0.4538 -0.1996
  191SAPI  H12R22105   4.037   1.363   4.246  0.1090 -0.8428  0.2391
  191SAPI  C21322106   4.258   1.391   4.218 -0.0320  0.8093  0.1264
  191SAPI  H13R22107   4.292   1.418   4.116 -1.1984 -0.5103 -0.6606
  191SAPI  H13S22108   4.329   1.313   4.253 -0.2096 -0.5105 -2.2529
  191SAPI  C21422109   4.254   1.505   4.315  0.2445 -1.1095  0.2048
  191SAPI  H14R22110   4.247   1.601   4.260 -0.3263 -1.8112 -1.0003
  191SAPI  C21522111   4.250   1.492   4.451  0.0071  0.3188 -0.0481
  191SAPI  H15R22112   4.238   1.578   4.518  0.3278  1.3943 -1.3348
  191SAPI  C21622113   4.258   1.362   4.523  0.6627 -0.5689  0.5585
  191SAPI  H16R22114   4.269   1.278   4.450  1.1278 -0.6759  0.7481
  191SAPI  H16S22115   4.163   1.356   4.580 -0.8107  0.2247 -1.6929
  191SAPI  C21722116   4.370   1.336   4.630 -0.6363  0.0656  0.0560
  191SAPI  H17R22117   4.477   1.342   4.601 -0.5591 -0.4690  0.2247
  191SAPI  H17S22118   4.352   1.229   4.654  0.3221 -0.6660 -2.2268
  191SAPI  C21822119   4.346   1.422   4.753 -0.3417 -0.6377 -0.9501
  191SAPI  H18R22120   4.258   1.383   4.810  1.3572  0.0427  2.4247
  191SAPI  H18S22121   4.317   1.526   4.730 -0.4645 -0.3420  0.4240
  191SAPI  C21922122   4.466   1.424   4.851  0.4548 -0.6444 -0.3367
  191SAPI  H19R22123   4.499   1.530   4.850 -1.3698  0.0060  1.6586
  191SAPI  H19S22124   4.538   1.347   4.817  0.2275 -0.2374 -1.8110
  191SAPI  C22022125   4.434   1.380   4.998  0.7055  0.1036  0.2463
  191SAPI  H20R22126   4.500   1.439   5.065 -0.1098 -0.7507  1.8698
  191SAPI  H20S22127   4.450   1.270   5.005 -0.9517 -0.0529  2.9432
  191SAPI  H20T22128   4.332   1.402   5.035  0.6757  1.0770 -0.3768
  191SAPI   C3322129   3.746   1.800   3.244 -0.1602  0.1416 -0.3306
  191SAPI   H3X22130   3.839   1.846   3.282 -0.9674  0.2272  1.6393
  191SAPI   H3Y22131   3.712   1.713   3.305  0.2383  1.4312  1.8100
  191SAPI   C3422132   3.636   1.902   3.247  0.6853  0.0545  0.2410
  191SAPI   H4X22133   3.550   1.852   3.196  1.3378 -0.4896 -0.3364
  191SAPI   H4Y22134   3.673   1.982   3.179 -1.2279  1.0694  0.3023
  191SAPI   C3522135   3.615   1.967   3.381 -0.1747 -0.6921 -0.5952
  191SAPI   H5X22136   3.523   2.030   3.373 -1.1099 -1.6905  1.5308
  191SAPI   H5Y22137   3.702   2.028   3.414 -0.6275 -1.2480  1.8722
  191SAPI   C3622138   3.576   1.865   3.486  0.8894 -0.4665 -0.5261
  191SAPI   H6X22139   3.651   1.786   3.508  0.7732 -0.9091 -1.6684
  191SAPI   H6Y22140   3.496   1.800   3.447 -0.4196  0.9272 -0.2647
  191SAPI   C3722141   3.536   1.929   3.621 -0.2457 -0.5984 -0.3100
  191SAPI   H7X22142   3.441   1.983   3.600  0.0270 -0.5576 -1.4861
  191SAPI   H7Y22143   3.608   2.006   3.655  0.2522 -0.6914 -1.1473
  191SAPI   C3822144   3.492   1.834   3.733 -0.4455 -0.2786 -0.5652
  191SAPI   H8X22145   3.581   1.775   3.763 -0.6681 -1.2214 -1.6699
  191SAPI   H8Y22146   3.413   1.771   3.687 -2.9285  3.2735 -1.6344
  191SAPI   C3922147   3.422   1.905   3.850 -0.2109  0.2175  0.0384
  191SAPI   H9X22148   3.317   1.930   3.823 -1.1266  0.0576  3.1426
  191SAPI   H9Y22149   3.490   1.992   3.867  0.1304  0.0752 -0.5733
  191SAPI  C31022150   3.421   1.810   3.968  0.8889  0.6699 -0.7759
  191SAPI  H10X22151   3.527   1.798   3.999  0.2505  2.3979  2.4908
  191SAPI  H10Y22152   3.374   1.712   3.944  1.9599 -0.3609  1.0742
  191SAPI  C31122153   3.347   1.866   4.091 -0.0439  0.4394 -1.1130
  191SAPI  H11X22154   3.317   1.781   4.156 -0.9255  0.5139 -1.4052
  191SAPI  H11Y22155   3.260   1.925   4.055  1.0632  1.5707 -2.0197
  191SAPI  C31222156   3.428   1.966   4.178  0.2873 -0.0439 -0.0927
  191SAPI  H12X22157   3.457   2.057   4.121  0.6251 -0.0221  0.1119
  191SAPI  H12Y22158   3.522   1.909   4.194  0.6732 -0.0214 -2.0309
  191SAPI  C31322159   3.355   2.004   4.307  0.2939  0.8159 -0.3738
  191SAPI  H13X22160   3.313   1.908   4.343 -2.3507  1.5996 -1.1404
  191SAPI  H13Y22161   3.268   2.070   4.286 -1.0399 -0.4219  1.0227
  191SAPI  C31422162   3.452   2.072   4.404 -0.0623 -0.0421  0.0443
  191SAPI  H14X22163   3.452   2.181   4.387  0.5084  0.1851  1.3630
  191SAPI  H14Y22164   3.555   2.038   4.383  0.0707  1.3414 -1.6974
  191SAPI  C31522165   3.413   2.068   4.554  0.8197 -0.0180 -0.5949
  191SAPI  H15X22166   3.319   2.124   4.574  1.9240  1.6427  0.1615
  191SAPI  H15Y22167   3.494   2.119   4.611  1.9865 -2.3630 -0.0344
  191SAPI  C31622168   3.416   1.937   4.628 -0.1291  0.3678  0.3876
  191SAPI  H16X22169   3.516   1.891   4.612  0.3832  1.2953  0.8143
  191SAPI  H16Y22170   3.351   1.866   4.573  2.0891 -0.5741 -1.1928
  191SAPI  C31722171   3.389   1.948   4.777 -0.6961 -0.0389  0.7161
  191SAPI  H17X22172   3.476   2.002   4.821 -1.2707  0.3587  1.3906
  191SAPI  H17Y22173   3.389   1.840   4.804 -0.2452 -0.4785 -0.9325
  191SAPI  C31822174   3.254   2.003   4.819  0.6123  0.1388 -0.0079
  191SAPI  H18X22175   3.249   2.113   4.802  1.0707 -0.0327 -1.4500
  191SAPI  H18Y22176   3.223   1.972   4.921 -3.5635 -0.5028 -1.2935
  191SAPI  H18Z22177   3.180   1.951   4.754 -0.8153  0.5461  1.2405
  192SAPI   C1222178   6.286   3.016   2.533 -0.5934  0.6032  0.2098
  192SAPI    H222179   6.320   3.120   2.551  1.8201 -0.3980  2.0637
  192SAPI    O222180   6.212   2.961   2.641  0.4692  0.2231  0.5441
  192SAPI   HO222181   6.283   2.947   2.704  2.1590 -0.7543 -1.4744
  192SAPI   C1322182   6.201   3.014   2.404  0.6912  0.2116  0.0668
  192SAPI    H322183   6.270   3.046   2.323 -0.2011 -0.7831 -1.1193
  192SAPI    O322184   6.104   3.118   2.409  0.1785 -0.4353 -0.5175
  192SAPI   HO322185   6.065   3.125   2.497  2.9150  1.8986  0.7147
  192SAPI   C1422186   6.143   2.881   2.371  0.0622 -0.1588  0.3267
  192SAPI    H422187   6.069   2.847   2.446  0.0524 -0.6394  0.1035
  192SAPI    O422188   6.069   2.875   2.248 -0.5489 -0.1529  0.0246
  192SAPI   HO422189   6.132   2.879   2.176  1.2301 -0.7212  1.4451
  192SAPI   C1522190   6.249   2.770   2.359 -0.5728  0.4416 -0.0583
  192SAPI    H522191   6.286   2.774   2.255 -0.1560  1.7604  0.1264
  192SAPI    O522192   6.195   2.636   2.380 -0.0165 -0.8100 -0.2970
  192SAPI   HO522193   6.239   2.578   2.318  0.7691  0.6105 -1.1133
  192SAPI   C1622194   6.374   2.791   2.447  0.1642  0.3392  0.5343
  192SAPI    H622195   6.357   2.739   2.543 -0.6555  1.7319  1.1675
  192SAPI    O622196   6.487   2.732   2.383  0.1033  0.6103  0.2628
  192SAPI   HO622197   6.535   2.687   2.454 -1.7104  0.7044  1.6270
  192SAPI   C1122198   6.412   2.924   2.502  0.5436 -0.0196  0.1947
  192SAPI    H122199   6.478   2.971   2.426 -0.4022 -1.1324 -1.3638
  192SAPI     P22200   6.551   3.018   2.714  0.0971 -0.1105 -0.3297
  192SAPI   O1322201   6.538   3.150   2.654 -0.8751 -0.3897 -0.4119
  192SAPI   O1422202   6.689   2.979   2.757 -0.5903  0.5112  0.7583
  192SAPI   O1222203   6.494   2.902   2.618 -0.6390 -0.2696  0.2441
  192SAPI   O1122204   6.458   2.988   2.838 -0.0712 -0.7308  0.0627
  192SAPI    C122205   6.466   2.869   2.910 -0.2306  0.1956  0.6255
  192SAPI    HA22206   6.388   2.806   2.862  1.0754 -1.4287  0.5415
  192SAPI    HB22207   6.562   2.814   2.897 -0.5027 -0.0609 -0.3395
  192SAPI    C222208   6.446   2.887   3.063 -0.6030  1.1055  0.1561
  192SAPI    HS22209   6.452   2.784   3.103  0.9277  1.4496  0.8754
  192SAPI   O2122210   6.323   2.949   3.105 -0.1135 -0.1397  0.4779
  192SAPI   C2122211   6.218   2.872   3.093 -0.5227  0.4730  0.0610
  192SAPI   O2222212   6.217   2.760   3.042 -0.1962  0.0519  0.0509
  192SAPI   C2222213   6.104   2.941   3.163  0.7604 -0.0804 -0.7074
  192SAPI   H2R22214   6.066   3.028   3.105 -0.1947  0.7888  1.1159
  192SAPI   H2S22215   6.017   2.872   3.168 -1.3597  2.5175  1.2229
  192SAPI    C322216   6.559   2.976   3.119  0.4962  0.5459 -0.3973
  192SAPI    HX22217   6.535   3.079   3.083 -1.4769  0.9705  1.8185
  192SAPI    HY22218   6.664   2.949   3.095  1.0953  2.6411 -0.4118
  192SAPI   O3122219   6.543   2.993   3.267 -0.3907 -0.2931 -0.0609
  192SAPI   C3122220   6.610   2.910   3.341  1.1602  0.1446  0.2952
  192SAPI   O3222221   6.675   2.814   3.307  0.1970  0.5516  0.2513
  192SAPI   C3222222   6.603   2.958   3.483 -0.3754  0.1363  0.3312
  192SAPI   H2X22223   6.649   3.059   3.482 -0.7678  0.3153 -0.2419
  192SAPI   H2Y22224   6.663   2.881   3.535 -0.4389  1.3200  2.2613
  192SAPI   C2322225   6.125   3.001   3.311  0.2844 -0.1725 -1.3839
  192SAPI   H3R22226   6.195   2.926   3.354 -1.1866 -1.6755 -1.5126
  192SAPI   H3S22227   6.033   2.985   3.371  1.9284  1.9418  1.9666
  192SAPI   C2422228   6.182   3.148   3.319  0.2363  0.1203  0.1330
  192SAPI   H4R22229   6.287   3.140   3.284 -0.2986 -0.6457 -1.3783
  192SAPI   H4S22230   6.203   3.186   3.422 -0.1733  0.8238 -0.0386
  192SAPI   C2522231   6.091   3.249   3.252  0.5115  0.4229  0.5146
  192SAPI   H5R22232   6.115   3.252   3.145 -1.3104 -1.0966  0.0141
  192SAPI   C2622233   5.994   3.321   3.309 -0.4560  0.6082  0.8607
  192SAPI   H6R22234   5.942   3.398   3.251 -1.3190  0.1557  1.0243
  192SAPI   C2722235   5.959   3.308   3.453  1.2581  0.3904 -0.1542
  192SAPI   H7R22236   6.021   3.384   3.504  0.6427  1.5589 -1.0879
  192SAPI   H7S22237   5.987   3.208   3.494  0.2849  1.1103  2.3953
  192SAPI   C2822238   5.811   3.342   3.486  0.1487  0.7016  0.0870
  192SAPI   H8R22239   5.733   3.344   3.408  1.0112  1.6215 -0.7700
  192SAPI   C2922240   5.763   3.369   3.606 -0.0945 -0.3391  0.3338
  192SAPI   H9R22241   5.657   3.396   3.615 -0.4433 -1.2334 -0.7814
  192SAPI  C21022242   5.840   3.376   3.733 -0.3836 -0.3674 -0.1987
  192SAPI  H10R22243   5.798   3.447   3.807 -1.7992 -0.3633 -0.9864
  192SAPI  H10S22244   5.940   3.424   3.717 -0.9131  0.1018 -2.4067
  192SAPI  C21122245   5.864   3.238   3.795 -0.4103 -0.0482 -0.0478
  192SAPI  H11R22246   5.821   3.152   3.743 -2.0622  1.1875 -0.8073
  192SAPI  C21222247   5.923   3.202   3.913 -0.3006  0.0928  0.1846
  192SAPI  H12R22248   5.931   3.095   3.934  1.6389  0.2470  0.3366
  192SAPI  C21322249   5.967   3.293   4.028  0.2383 -0.4793  0.9372
  192SAPI  H13R22250   5.981   3.395   3.985  0.1136 -0.4958  0.8546
  192SAPI  H13S22251   6.068   3.254   4.053  1.2679  1.4450  0.0604
  192SAPI  C21422252   5.862   3.292   4.132 -0.3256  0.3977  0.1332
  192SAPI  H14R22253   5.756   3.301   4.105 -0.1415 -0.8218 -1.1481
  192SAPI  C21522254   5.897   3.289   4.265  0.5162 -0.5447  0.2126
  192SAPI  H15R22255   5.817   3.301   4.340  0.4228  0.4995 -0.0367
  192SAPI  C21622256   6.030   3.286   4.326 -0.4975  0.5567 -0.3817
  192SAPI  H16R22257   6.041   3.377   4.390  1.3149  0.6354 -0.7351
  192SAPI  H16S22258   6.107   3.293   4.246  1.1794 -0.1109  1.1112
  192SAPI  C21722259   6.051   3.148   4.398  0.3936  0.1102  0.8843
  192SAPI  H17R22260   6.157   3.143   4.430  1.3275  0.9924 -1.8340
  192SAPI  H17S22261   6.018   3.061   4.338 -3.9615  1.5146  0.9015
  192SAPI  C21822262   5.976   3.134   4.531 -0.9514 -0.0127 -0.3198
  192SAPI  H18R22263   5.992   3.030   4.567  0.5779 -0.6833 -2.6875
  192SAPI  H18S22264   5.867   3.147   4.514 -0.6258  0.9236 -1.8292
  192SAPI  C21922265   6.014   3.222   4.644  0.5847 -0.1066  0.4138
  192SAPI  H19R22266   6.014   3.329   4.612  2.8384  0.2668  1.4518
  192SAPI  H19S22267   6.118   3.194   4.670  0.3560 -2.1878 -0.7276
  192SAPI  C22022268   5.923   3.212   4.760 -0.2642  0.0086 -0.4510
  192SAPI  H20R22269   5.968   3.262   4.848  0.3213 -1.1986 -0.0334
  192SAPI  H20S22270   5.900   3.109   4.797  0.1592  0.4868  1.2522
  192SAPI  H20T22271   5.829   3.263   4.731  0.4864  1.6501 -0.0952
  192SAPI   C3322272   6.458   2.968   3.535  0.1035  0.2716 -0.3710
  192SAPI   H3X22273   6.432   2.864   3.563 -1.5414  0.5101 -0.9036
  192SAPI   H3Y22274   6.387   3.017   3.465 -1.8914 -1.0066  0.6564
  192SAPI   C3422275   6.454   3.037   3.675  0.2762 -0.7726  0.2213
  192SAPI   H4X22276   6.346   3.063   3.680  0.1201 -0.9542 -1.6866
  192SAPI   H4Y22277   6.505   3.136   3.673 -0.7571 -0.2254 -2.1885
  192SAPI   C3522278   6.502   2.941   3.788 -0.8388 -0.0288 -0.4531
  192SAPI   H5X22279   6.602   2.900   3.762  0.7594  2.9971  0.5148
  192SAPI   H5Y22280   6.426   2.860   3.781  1.4561 -2.6094  1.8821
  192SAPI   C3622281   6.489   3.014   3.923  0.5672  0.1902 -0.7452
  192SAPI   H6X22282   6.387   3.058   3.934  0.3061 -0.9611  2.0098
  192SAPI   H6Y22283   6.544   3.110   3.919  1.3577 -0.2819 -1.6812
  192SAPI   C3722284   6.527   2.934   4.048  0.2017 -0.0343  0.4120
  192SAPI   H7X22285   6.634   2.908   4.033 -0.4512 -2.8074  0.0326
  192SAPI   H7Y22286   6.476   2.836   4.055 -1.4097  0.6292 -1.3563
  192SAPI   C3822287   6.504   3.030   4.177 -0.0047  0.2775  0.1965
  192SAPI   H8X22288   6.393   3.033   4.176 -0.0162  0.7327 -2.0908
  192SAPI   H8Y22289   6.547   3.130   4.155  2.1480 -0.1886  1.9663
  192SAPI   C3922290   6.553   2.961   4.298  0.5856  0.3194  0.2100
  192SAPI   H9X22291   6.661   2.942   4.283  0.8599  1.3846  0.7005
  192SAPI   H9Y22292   6.507   2.861   4.309  0.7172  0.1530 -0.6876
  192SAPI  C31022293   6.522   3.038   4.429 -0.3324  0.0087  0.2921
  192SAPI  H10X22294   6.414   3.023   4.446 -1.0665  1.8920 -2.1987
  192SAPI  H10Y22295   6.530   3.147   4.412  1.2198  0.4852  3.3085
  192SAPI  C31122296   6.597   3.004   4.556 -0.3103  0.7999 -0.6792
  192SAPI  H11X22297   6.701   3.035   4.532  0.7370 -1.4136  0.6898
  192SAPI  H11Y22298   6.606   2.896   4.578  0.1728  1.0615  0.4591
  192SAPI  C31222299   6.533   3.063   4.683  0.4362 -0.0021  0.9129
  192SAPI  H12X22300   6.489   3.164   4.664  1.5057  0.3872  0.4165
  192SAPI  H12Y22301   6.596   3.060   4.774 -0.9441  1.4244  1.9741
  192SAPI  C31322302   6.421   2.966   4.731 -1.0297  0.0687  0.0819
  192SAPI  H13X22303   6.468   2.868   4.755  1.2868  1.1825  0.3940
  192SAPI  H13Y22304   6.359   2.940   4.642  1.1344 -0.2654 -1.4178
  192SAPI  C31422305   6.349   3.010   4.858 -0.2799  1.0257 -0.5597
  192SAPI  H14X22306   6.258   2.946   4.866 -1.0372  1.4316 -4.1245
  192SAPI  H14Y22307   6.308   3.112   4.838  1.0005  1.6258 -0.1957
  192SAPI  C31522308   6.431   2.989   4.990  0.8062 -0.0786 -1.0899
  192SAPI  H15X22309   6.517   3.060   4.994 -0.8579  1.9983  0.0734
  192SAPI  H15Y22310   6.460   2.882   4.995  1.8550  0.2407  0.7297
  192SAPI  C31622311   6.331   3.015   5.109  0.9395  0.2145 -0.2599
  192SAPI  H16X22312   6.243   2.947   5.109  0.5372  0.6940  0.9579
  192SAPI  H16Y22313   6.288   3.116   5.096 -0.1285 -0.4391 -2.2692
  192SAPI  C31722314   6.402   3.006   5.248 -0.4935  0.5944  0.1898
  192SAPI  H17X22315   6.497   3.064   5.243 -1.1534  1.5935 -1.2637
  192SAPI  H17Y22316   6.427   2.899   5.269 -0.9118  0.4106 -0.2506
  192SAPI  C31822317   6.315   3.053   5.361  0.5309 -0.5880  0.5144
  192SAPI  H18X22318   6.262   3.147   5.334  1.0266 -0.6562 -0.7393
  192SAPI  H18Y22319   6.376   3.083   5.449  1.9570  0.6844 -0.8463
  192SAPI  H18Z22320   6.240   2.977   5.393  0.0867  0.1745  1.3169
  193SOD    SOD22321   6.340   5.495   1.581 -0.1017  0.3993  0.1072
  194SOD    SOD22322   6.260   1.398   2.255 -0.4865  0.1319 -0.3293
  195SOD    SOD22323   5.692   3.854   8.058  0.2980  0.1560  0.0107
  196SOD    SOD22324   6.132   1.146   0.547 -0.1741  0.1050  0.0162
  197SOD    SOD22325   0.880   5.480   7.083  0.2670 -0.3176 -0.0215
  198SOD    SOD22326   2.813   0.468   8.141 -0.3083  0.1053  0.3753
  199SOD    SOD22327   0.027   2.528   2.638 -0.3648  0.3380 -0.0281
  200SOD    SOD22328   1.999   0.126   0.039 -0.4296  0.0932 -0.1287
  201SOD    SOD22329   6.828   2.437   0.962 -0.7464  0.2710 -0.9224
  202SOD    SOD22330   4.107   1.475   8.018 -0.2047  0.1936 -0.6420
  203SOD    SOD22331   0.607   3.329   0.799 -0.1818 -0.2076  0.0108
  204SOD    SOD22332   4.434   1.504   2.460  0.0128 -0.1707  0.0875
  205SOD    SOD22333   5.780   1.816   1.553 -0.2099 -0.1234  0.5860
  206SOD    SOD22334   0.673   1.258   8.437 -0.3562  0.6755  0.0624
  207SOD    SOD22335   0.186   6.274   2.236 -0.2958 -0.0515 -0.2535
  208SOD    SOD22336   5.011   5.739   7.674  0.3826  0.6045  0.2497
  209SOD    SOD22337   4.742   0.707   7.205 -0.2765  0.1363  0.1713
  210SOD    SOD22338   1.911   5.047   1.995 -0.5543  0.0434  0.6960
  211SOD    SOD22339   5.554   4.684   1.536 -0.1586  0.2707  0.3535
  212SOD    SOD22340   5.809   5.794   2.376  0.5500  0.1453  0.3585
  213SOD    SOD22341   2.258   2.456   2.658  0.2486  0.7301 -0.4095
  214SOD    SOD22342   4.953   4.822   6.807  0.0119  0.1270 -0.0960
  215SOD    SOD22343   3.725   5.551   7.795  0.8992 -0.3035  0.3353
  216SOD    SOD22344   6.266   5.994   8.099 -0.4099  0.0635 -0.2033
  217SOD    SOD22345   0.253   6.565   1.202  0.1999  0.5336 -0.3374
  218SOD    SOD22346   4.664   3.747   2.704  0.2788 -0.6311  0.0698
  219SOD    SOD22347   4.099   0.570   7.466 -0.1599 -0.5382  0.1947
  220SOD    SOD22348   3.322   0.601   1.328  0.3506 -0.2743 -0.4096
  221SOD    SOD22349   2.291   1.902   8.713  0.2426 -0.5985 -0.3239
  222SOD    SOD22350   2.319   5.527   6.779 -0.0028 -0.0997  0.6053
  223SOD    SOD22351   4.423   6.769   0.223 -0.0305 -0.1881 -0.1688
  224SOD    SOD22352   2.689   6.498   7.225 -0.3073 -0.3903 -0.1019
  225SOD    SOD22353   0.927   5.831   8.229 -0.0682  0.1898  0.0997
  226SOD    SOD22354   0.254   5.792   8.388 -0.3371  0.3032  0.1625
  227SOD    SOD22355   1.703   0.156   1.355 -0.0012 -0.4463 -0.3226
  228SOD    SOD22356   2.753   3.239   0.763 -0.7760  0.0770 -0.3377
  229SOD    SOD22357   1.928   3.653   7.580 -0.3190  0.0258  0.0254
  230CLA    CLA22358   6.201   4.167   0.014 -0.1032  0.1610 -0.1295
  231CLA    CLA22359   1.324   5.743   0.338  0.4079 -0.0127  0.4733
  232CLA    CLA22360   5.192   1.403   0.901 -0.0094  0.3286 -0.0137
  233CLA    CLA22361   1.126   5.033   1.137 -0.1855 -0.3277 -0.0170
  234CLA    CLA22362   3.243   1.184   0.546 -0.4480  0.3387  0.1209
  235CLA    CLA22363   5.604   3.252   7.800 -0.0654 -0.3862 -0.0801
  236CLA    CLA22364   6.242   4.556   1.657 -0.2333 -0.2578 -0.4740
  237CLA    CLA22365   5.906   5.114   0.712  0.0114  0.0754 -0.3942
  238CLA    CLA22366   6.454   0.458   0.745  0.0638  0.1188  0.2635
  239CLA    CLA22367   5.838   1.661   0.657  0.0060 -0.2683  0.1024
  240CLA    CLA22368   1.939   2.507   0.443  0.0638 -0.5338  0.3377
  241CLA    CLA22369   3.892   6.742   7.708  0.0115  0.1650 -0.3878
  242CLA    CLA22370   5.771   0.297   7.527 -0.4315  0.0659 -0.0141
  243CLA    CLA22371   0.198   5.122   1.866 -0.5747 -0.0101 -0.1352
  244CLA    CLA22372   0.613   0.693   7.884 -0.1776 -0.2800 -0.0765
  245CLA    CLA22373   3.568   0.942   7.692  0.7012 -0.4433 -0.0848
  246CLA    CLA22374   2.103   1.193   1.436 -0.1574 -0.1077  0.1055
  247TIP3   OH222375   6.404   5.723   1.530 -0.1192  0.0734 -0.0114
  247TIP3    H122376   6.452   5.738   1.611 -0.2341  0.4253 -0.0069
  247TIP3    H222377   6.368   5.808   1.507  0.8292  0.2292 -1.0226
  248TIP3   OH222378   3.495   5.715   0.949  0.1250 -0.2088 -0.4971
  248TIP3    H122379   3.454   5.781   1.006 -0.0804 -1.5864  1.0181
  248TIP3    H222380   3.528   5.765   0.874 -0.1475  1.5931  0.5322
  249TIP3   OH222381   0.866   5.173   1.653 -0.4118  0.3100  0.2858
  249TIP3    H122382   0.942   5.131   1.693 -0.1774  1.7131  1.3716
  249TIP3    H222383   0.871   5.148   1.561  0.2308 -1.2357  0.6967
  250TIP3   OH222384   3.661   3.229   1.760  0.2426 -0.0540 -0.4624
  250TIP3    H122385   3.748   3.212   1.797 -0.0514  2.0307  1.3943
  250TIP3    H222386   3.600   3.210   1.831 -0.8312 -1.0272 -1.5905
  251TIP3   OH222387   0.611   4.368   0.956  0.1219 -0.2466 -0.3693
  251TIP3    H122388   0.655   4.369   1.041 -0.3281  0.7594 -0.1380
  251TIP3    H222389   0.534   4.423   0.969  0.0107 -0.1525 -1.4064
  252TIP3   OH222390   2.492   6.559   7.727  0.0496 -0.3399 -0.5452
  252TIP3    H122391   2.453   6.567   7.814 -1.4726 -0.1999 -1.2034
  252TIP3    H222392   2.548   6.481   7.733 -1.0496 -1.1008  0.2099
  253TIP3   OH222393   2.253   0.623   8.279 -0.1147 -0.3211 -0.1598
  253TIP3    H122394   2.208   0.685   8.221  1.3700  1.7731  0.7944
  253TIP3    H222395   2.246   0.662   8.366  0.7635 -1.5790  0.5139
  254TIP3   OH222396   4.636   5.955   1.695 -0.0149 -0.0156 -1.1891
  254TIP3    H122397   4.548   5.971   1.659 -0.7576  0.3831  0.6792
  254TIP3    H222398   4.630   5.984   1.786  1.2564 -2.5524 -0.2182
  255TIP3   OH222399   6.163   1.440   1.319 -0.1923  0.2325 -0.1786
  255TIP3    H122400   6.213   1.518   1.297 -1.8738  1.6602  0.7706
  255TIP3    H222401   6.125   1.411   1.236  1.9754 -0.7655 -0.8742
  256TIP3   OH222402   1.705   3.670   2.209  0.0541 -0.3489  0.4398
  256TIP3    H122403   1.626   3.671   2.263 -0.0216 -0.3977  0.3296
  256TIP3    H222404   1.681   3.618   2.132 -0.5999  1.6901 -0.8177
  257TIP3   OH222405   1.629   4.513   7.690  0.1386 -0.0144 -0.1228
  257TIP3    H122406   1.559   4.514   7.756  1.4157  0.3299  1.3050
  257TIP3    H222407   1.631   4.603   7.657  0.5991  0.2565  0.6240
  258TIP3   OH222408   4.870   0.144   8.572  0.9833 -0.1806  0.3503
  258TIP3    H122409   4.935   0.117   8.637 -0.0596 -1.8623  0.7444
  258TIP3    H222410   4.897   0.099   8.492 -0.1681 -1.6626  0.7489
  259TIP3   OH222411   2.089   5.279   6.471 -0.2798 -0.2758 -0.4088
  259TIP3    H122412   2.083   5.369   6.502 -0.6924 -1.0501  1.9532
  259TIP3    H222413   2.008   5.265   6.423 -0.9978  0.1243  0.6544
  260TIP3   OH222414   4.040   4.780   1.135  0.1286  0.5235 -1.0778
  260TIP3    H122415   4.045   4.809   1.226 -1.7098  2.4172 -1.5119
  260TIP3    H222416   4.026   4.686   1.141  0.5571  0.5189  0.5590
  261TIP3   OH222417   4.074   5.431   0.380  0.2785  0.1735 -0.0000
  261TIP3    H122418   4.156   5.415   0.427  1.1580 -1.6470 -1.9326
  261TIP3    H222419   4.093   5.506   0.324  1.1148 -0.9760 -1.3270
  262TIP3   OH222420   6.563   2.827   0.824  0.3730  0.1210 -0.7972
  262TIP3    H122421   6.605   2.827   0.910 -0.5528 -0.4122 -0.3272
  262TIP3    H222422   6.476   2.790   0.840  0.0821  0.2869 -1.9141
  263TIP3   OH222423   0.366   3.653   2.192 -0.3249  0.0279 -0.1552
  263TIP3    H122424   0.275   3.673   2.172 -1.3212 -2.3898  1.4436
  263TIP3    H222425   0.371   3.557   2.193  2.0217  0.0715  0.6332
  264TIP3   OH222426   3.558   0.317   0.187 -0.3534 -0.0795  0.0658
  264TIP3    H122427   3.596   0.401   0.165 -0.3283  0.0027  0.4163
  264TIP3    H222428   3.472   0.317   0.144  0.5382 -0.7869 -1.7894
  265TIP3   OH222429   0.398   5.615   1.816  0.2641 -0.1526 -0.5661
  265TIP3    H122430   0.329   5.577   1.762  0.2072  0.2468 -0.7724
  265TIP3    H222431   0.371   5.596   1.906 -0.4504  0.5773 -0.6199
  266TIP3   OH222432   6.063   2.415   1.155  0.5239  0.3434  0.0103
  266TIP3    H122433   6.089   2.507   1.160  0.3995  0.3109  2.3091
  266TIP3    H222434   6.108   2.373   1.228 -0.5996 -1.1064 -0.0831
  267TIP3   OH222435   6.715   4.881   7.107  0.0430 -0.6970  0.1599
  267TIP3    H122436   6.788   4.941   7.095  1.2055 -2.0773  0.1026
  267TIP3    H222437   6.712   4.829   7.026 -0.6123 -1.0779  0.4151
  268TIP3   OH222438   5.941   1.047   1.735  0.2533  0.5090 -0.1207
  268TIP3    H122439   5.953   0.972   1.677 -1.2725  0.4099 -0.3581
  268TIP3    H222440   5.891   1.013   1.808  0.8977  0.9662  0.5530
  269TIP3   OH222441   0.058   3.876   1.671 -0.3055  0.0002  0.6123
  269TIP3    H122442   0.095   3.859   1.757  1.0307 -1.2624 -0.1725
  269TIP3    H222443  -0.027   3.916   1.689  0.1142  0.1265  2.4981
  270TIP3   OH222444   1.684   5.890   8.343 -0.3319 -0.6668  0.4036
  270TIP3    H122445   1.618   5.948   8.380  1.2618  1.8766 -0.4682
  270TIP3    H222446   1.662   5.804   8.377 -2.4547  0.5214  2.3307
  271TIP3   OH222447   4.034   5.202   6.733 -0.4609 -0.2822 -0.8230
  271TIP3    H122448   4.108   5.150   6.701  0.3211  0.5134 -0.3783
  271TIP3    H222449   3.980   5.140   6.782 -0.4459 -1.0188 -1.7220
  272TIP3   OH222450   6.502   4.618   1.469 -0.4703  0.4705  0.0655
  272TIP3    H122451   6.537   4.531   1.449 -0.0921  0.7027 -0.2964
  272TIP3    H222452   6.437   4.602   1.538 -0.5513 -0.1233 -0.1427
  273TIP3   OH222453   3.605   5.700   6.422 -0.1383 -0.2819  0.3131
  273TIP3    H122454   3.642   5.624   6.378 -0.2239 -0.0534 -0.1606
  273TIP3    H222455   3.628   5.688   6.515  0.8287 -0.3115  0.0801
  274TIP3   OH222456   0.519   3.488   1.269 -0.4225  0.3422 -0.3521
  274TIP3    H122457   0.609   3.517   1.256  0.0083 -0.4702  0.6707
  274TIP3    H222458   0.502   3.503   1.362 -1.2663  0.2663 -0.4862
  275TIP3   OH222459   0.886   4.389   1.856  0.3205  0.5142 -0.0474
  275TIP3    H122460   0.900   4.307   1.903 -0.7273 -0.1513 -0.8442
  275TIP3    H222461   0.862   4.362   1.767 -0.0949  1.6872 -0.3125
  276TIP3   OH222462   1.968   4.546   0.408  0.2672  0.1745 -0.5116
  276TIP3    H122463   2.055   4.529   0.445  0.5276  1.2556 -0.5756
  276TIP3    H222464   1.908   4.533   0.481  0.6318  0.7936 -0.0930
  277TIP3   OH222465   0.996   1.457   2.848 -0.2707  0.5846  0.5761
  277TIP3    H122466   1.015   1.434   2.938  0.2237  1.9601  0.8547
  277TIP3    H222467   1.030   1.384   2.796  4.5979  2.0827  1.1399
  278TIP3   OH222468   1.320   5.443   8.528  0.0006 -0.0785 -0.6357
  278TIP3    H122469   1.364   5.509   8.474  0.6895 -0.9925 -1.2205
  278TIP3    H222470   1.269   5.494   8.591  1.3777  1.0219 -0.3572
  279TIP3   OH222471   0.726   2.304   0.161 -0.8233 -0.0358  0.2862
  279TIP3    H122472   0.781   2.259   0.097 -1.4428 -0.5609  0.1144
  279TIP3    H222473   0.657   2.345   0.109 -0.6731  0.5102  0.5122
  280TIP3   OH222474   0.425   5.424   8.271 -0.4990  0.3852  0.2175
  280TIP3    H122475   0.493   5.451   8.209 -0.4986 -0.3178 -0.0979
  280TIP3    H222476   0.343   5.449   8.228 -0.5004 -0.1414 -0.0902
  281TIP3   OH222477   6.859   1.715   8.460 -0.5624  0.6521 -0.1777
  281TIP3    H122478   6.947   1.749   8.445  0.8450 -1.3958  2.4605
  281TIP3    H222479   6.827   1.766   8.535  0.0139 -1.0843  1.3197
  282TIP3   OH222480   1.152   2.653   8.157  0.2826 -0.7954 -0.0925
  282TIP3    H122481   1.153   2.706   8.236  1.0879 -1.2734  0.2352
  282TIP3    H222482   1.223   2.687   8.103 -0.2870 -0.4436 -0.6415
  283TIP3   OH222483   5.624   5.586   7.898  0.1298 -0.3283 -0.0105
  283TIP3    H122484   5.673   5.505   7.884  1.7877  0.6094  0.2232
  283TIP3    H222485   5.554   5.561   7.958  1.1799 -1.3974  0.8120
  284TIP3   OH222486   4.666   4.074   6.540 -0.4092  0.4501 -0.1759
  284TIP3    H122487   4.706   3.989   6.558 -1.3464  0.1761  0.6576
  284TIP3    H222488   4.740   4.135   6.538  0.3113 -0.4095 -1.1157
  285TIP3   OH222489   4.391   3.710   7.833  0.0758  0.4589  0.1859
  285TIP3    H122490   4.427   3.623   7.850  0.0246  0.2388 -0.8093
  285TIP3    H222491   4.440   3.767   7.893 -0.6482 -0.3849  1.6354
  286TIP3   OH222492   2.376   3.680   1.302  0.0495  0.6803 -0.1725
  286TIP3    H122493   2.345   3.658   1.390 -0.6381 -0.0588 -0.5967
  286TIP3    H222494   2.417   3.766   1.313  0.8851  0.1611  1.0730
  287TIP3   OH222495   5.960   1.817   7.484 -0.6498 -0.1783  0.5182
  287TIP3    H122496   6.012   1.866   7.420 -0.3839 -1.0689  0.0422
  287TIP3    H222497   5.912   1.885   7.532 -0.7142  0.5201 -0.4958
  288TIP3   OH222498   2.670   0.239   7.294  0.5211  0.1110  0.4505
  288TIP3    H122499   2.609   0.239   7.221 -0.0864 -2.2458  0.8618
  288TIP3    H222500   2.649   0.318   7.344 -0.1630  0.8727 -0.9908
  289TIP3   OH222501   3.587   2.411   7.972  0.7604 -0.1592 -0.0150
  289TIP3    H122502   3.623   2.398   7.884 -1.6576  2.8492 -1.6418
  289TIP3    H222503   3.521   2.343   7.981  1.3404 -0.7765 -0.3127
  290TIP3   OH222504   1.689   5.073   7.927  0.2832  0.4190 -0.2693
  290TIP3    H122505   1.696   5.058   7.833 -0.2146  1.5921 -0.5123
  290TIP3    H222506   1.728   5.159   7.941 -1.0872  0.9615  0.3537
  291TIP3   OH222507   0.410   0.276   0.594 -0.1516  0.3726 -0.0817
  291TIP3    H122508   0.407   0.371   0.582 -1.4472  0.2894 -0.5716
  291TIP3    H222509   0.320   0.247   0.579  0.1462 -0.8909  0.4658
  292TIP3   OH222510   0.902   0.392   7.607 -0.1482  0.2209 -0.0906
  292TIP3    H122511   0.896   0.302   7.640  0.5780 -0.2869 -1.2714
  292TIP3    H222512   0.987   0.397   7.565 -0.9361  0.8660 -1.7063
  293TIP3   OH222513   5.642   5.399   7.469 -0.0161  0.3791  0.1454
  293TIP3    H122514   5.651   5.444   7.385  2.8600  0.8382  0.5944
  293TIP3    H222515   5.731   5.375   7.493 -0.8733 -0.7257  2.5638
  294TIP3   OH222516   0.141   1.265   1.849 -0.1697  0.2989  0.1266
  294TIP3    H122517   0.056   1.301   1.875  0.5794  2.1893  0.1084
  294TIP3    H222518   0.204   1.334   1.870  1.3613 -0.9908 -0.0146
  295TIP3   OH222519   2.140   1.388   7.312  0.1312 -0.2391 -0.1281
  295TIP3    H122520   2.222   1.437   7.317 -1.9158  3.7723 -1.1925
  295TIP3    H222521   2.139   1.353   7.223  0.9218 -0.8675  0.1001
  296TIP3   OH222522   5.074   1.831   1.165 -0.0232  0.8042  0.4709
  296TIP3    H122523   4.984   1.804   1.183 -0.2713  1.9163  1.0089
  296TIP3    H222524   5.122   1.806   1.244  0.6195 -1.6915 -0.6240
  297TIP3   OH222525   5.154   6.429   0.221 -0.2186 -0.3653  0.5027
  297TIP3    H122526   5.075   6.416   0.168 -0.8512  0.0977  1.2943
  297TIP3    H222527   5.158   6.524   0.234  0.2895 -0.4153  0.7308
  298TIP3   OH222528   6.313   1.544   1.892  0.1460 -0.1558 -0.6684
  298TIP3    H122529   6.344   1.514   1.806 -0.7936 -0.7509 -0.8081
  298TIP3    H222530   6.233   1.593   1.873  0.0879 -0.0551 -0.1524
  299TIP3   OH222531   3.102   6.774   1.714 -0.3238 -0.1712  0.1423
  299TIP3    H122532   3.053   6.777   1.631 -0.8184  0.5817  0.4530
  299TIP3    H222533   3.129   6.865   1.729  1.7953 -0.6615 -0.3756
  300TIP3   OH222534   1.295   0.121   0.541  0.6960  0.1949 -0.1812
  300TIP3    H122535   1.345   0.153   0.466  0.5715 -2.3561 -1.4688
  300TIP3    H222536   1.303   0.026   0.536 -2.1211 -0.2045  1.0783
  301TIP3   OH222537   2.034   0.009   2.334  0.6414 -0.0241  0.3947
  301TIP3    H122538   1.974  -0.008   2.405 -0.6917  0.7643 -0.4978
  301TIP3    H222539   2.020  -0.062   2.272  0.0965  0.5459 -0.1444
  302TIP3   OH222540   1.655   1.776   1.730 -0.0830  0.1625  0.6608
  302TIP3    H122541   1.616   1.831   1.662  0.0399  0.7017  1.0249
  302TIP3    H222542   1.584   1.716   1.756  0.6722 -2.2125 -2.1156
  303TIP3   OH222543   1.491   6.756   2.534  0.3729 -0.7068  0.2746
  303TIP3    H122544   1.500   6.838   2.582  2.1447  0.1467 -1.3462
  303TIP3    H222545   1.398   6.752   2.511  0.2460  0.8753  0.3731
  304TIP3   OH222546   2.711   5.988   8.484  0.3010 -0.4580 -0.3265
  304TIP3    H122547   2.638   5.938   8.520  0.8929 -1.8189 -0.9253
  304TIP3    H222548   2.783   5.925   8.480  1.0686  0.4412 -1.1530
  305TIP3   OH222549   6.699   1.458   7.559  0.1134  0.1606 -0.5261
  305TIP3    H122550   6.719   1.393   7.627  1.2472 -0.3777 -1.3493
  305TIP3    H222551   6.782   1.503   7.544 -0.3082  0.7789 -1.0438
  306TIP3   OH222552   1.776   6.571   2.021 -0.0692 -0.9032  0.4475
  306TIP3    H122553   1.805   6.537   1.936 -0.3968  1.0979 -0.5141
  306TIP3    H222554   1.853   6.615   2.057 -0.9363  1.7526 -0.7144
  307TIP3   OH222555   4.192   4.488   0.903  0.0355 -0.6846 -0.0459
  307TIP3    H122556   4.280   4.467   0.933 -0.8974 -1.1740  2.7142
  307TIP3    H222557   4.178   4.433   0.826  1.0314 -3.0870  1.3954
  308TIP3   OH222558   5.903   1.320   8.594  0.2043  0.2180  0.2127
  308TIP3    H122559   5.862   1.400   8.563 -0.2940  0.4044  1.3095
  308TIP3    H222560   5.839   1.282   8.654  0.6438 -0.7391  0.0961
  309TIP3   OH222561   0.638   2.307   1.688  0.4267  0.2043  0.5315
  309TIP3    H122562   0.696   2.234   1.710  0.9018  0.4438  0.0755
  309TIP3    H222563   0.685   2.385   1.718 -0.4677  0.2776  1.8352
  310TIP3   OH222564   3.343   4.936   0.521 -0.3291 -0.0659  0.0404
  310TIP3    H122565   3.331   4.871   0.591 -0.9298 -2.2958 -1.9920
  310TIP3    H222566   3.286   5.009   0.547  1.3188  0.3323  3.0354
  311TIP3   OH222567   4.768   4.833   0.674  0.7874  0.1605 -0.4228
  311TIP3    H122568   4.827   4.828   0.598  1.5931  2.0787  0.0182
  311TIP3    H222569   4.827   4.837   0.749  0.2440  3.6916 -0.0487
  312TIP3   OH222570   5.274   0.488   8.437 -0.0348 -0.7504 -0.1671
  312TIP3    H122571   5.335   0.484   8.511  0.4361  1.3061 -0.3752
  312TIP3    H222572   5.219   0.411   8.448  0.5438 -0.9554  1.8746
  313TIP3   OH222573   3.917   2.862   8.005  0.3864  0.6723  0.0506
  313TIP3    H122574   3.966   2.880   7.925  1.7168  1.4280  0.9924
  313TIP3    H222575   3.827   2.848   7.976  0.8833  0.7244 -1.5845
  314TIP3   OH222576   2.529   6.705   7.242 -0.2860  0.3568  0.0684
  314TIP3    H122577   2.516   6.770   7.311 -1.3175 -0.0840  0.3017
  314TIP3    H222578   2.441   6.673   7.221  0.2675 -2.0664  1.0484
  315TIP3   OH222579   5.920   2.220   1.054  0.6239  0.4615 -0.4525
  315TIP3    H122580   5.971   2.297   1.081  1.7344 -0.9815  1.8943
  315TIP3    H222581   5.982   2.147   1.059 -0.8120 -0.8514 -1.0116
  316TIP3   OH222582   5.960   1.775   1.420  0.0581 -0.4470  0.2869
  316TIP3    H122583   6.050   1.793   1.447 -0.1892  2.3391 -0.4326
  316TIP3    H222584   5.969   1.726   1.339  0.8786 -1.3699  0.9078
  317TIP3   OH222585   3.107   6.047   8.554 -0.1850 -0.2628 -0.1058
  317TIP3    H122586   3.167   6.046   8.479  1.6812  1.8000  1.2290
  317TIP3    H222587   3.079   6.138   8.561 -0.6761 -0.4985  1.3951
  318TIP3   OH222588   2.083   5.218   0.172 -0.1357 -0.2241  0.0463
  318TIP3    H122589   2.029   5.150   0.130  0.2405 -1.2627  1.2004
  318TIP3    H222590   2.033   5.244   0.249  0.6518 -0.6281  0.6966
  319TIP3   OH222591   4.807   3.803   1.608  0.3562 -0.1831  0.1149
  319TIP3    H122592   4.765   3.850   1.680  1.0929  0.3146  0.2271
  319TIP3    H222593   4.741   3.740   1.579 -0.9038  1.3132 -0.4227
  320TIP3   OH222594   0.670   5.765   7.980 -0.3333 -0.2771  0.5049
  320TIP3    H122595   0.670   5.755   8.075 -0.7172  0.0006  0.5390
  320TIP3    H222596   0.712   5.850   7.965 -0.6171 -0.1448  0.4509
  321TIP3   OH222597   0.447   3.320   1.698 -0.6509  0.0580 -0.0684
  321TIP3    H122598   0.395   3.245   1.669  0.8017 -1.0455  0.0949
  321TIP3    H222599   0.537   3.299   1.672  0.1631  0.6311  2.1146
  322TIP3   OH222600   6.472   0.927   7.732 -0.0784 -0.3708 -0.1402
  322TIP3    H122601   6.381   0.919   7.703  0.4799  0.3407 -2.2966
  322TIP3    H222602   6.519   0.864   7.678  0.8511 -0.0010  0.2293
  323TIP3   OH222603   0.517   2.253   0.500  0.4638 -0.3974 -0.5092
  323TIP3    H122604   0.510   2.159   0.515 -0.1594 -0.3096 -0.2538
  323TIP3    H222605   0.466   2.270   0.421 -2.0700  0.1770  1.1498
  324TIP3   OH222606   0.206   3.117   1.355  0.4333  0.5217  0.1719
  324TIP3    H122607   0.296   3.098   1.382  0.0425  1.0132  1.9765
  324TIP3    H222608   0.152   3.076   1.422 -0.6600  0.9580 -0.4192
  325TIP3   OH222609   2.087   3.134   0.330 -0.0643  0.5116 -0.1623
  325TIP3    H122610   2.037   3.201   0.283 -2.0409 -0.3235  0.6794
  325TIP3    H222611   2.168   3.179   0.355 -1.6290  2.8708  1.0740
  326TIP3   OH222612   5.493   5.217   1.474  0.3490  0.4246  0.0227
  326TIP3    H122613   5.524   5.161   1.544 -0.8590 -0.5636 -0.1939
  326TIP3    H222614   5.467   5.157   1.404 -1.4223  1.1797 -0.0407
  327TIP3   OH222615   3.680   6.312   1.571 -0.1266 -0.0389  0.3686
  327TIP3    H122616   3.610   6.363   1.532  0.0216  1.5336  2.0222
  327TIP3    H222617   3.651   6.296   1.661  1.3523  0.1526  0.9204
  328TIP3   OH222618   0.674   0.779   8.663  0.3931  0.0661  0.0010
  328TIP3    H122619   0.757   0.753   8.624  0.7768  0.6243  0.4265
  328TIP3    H222620   0.646   0.702   8.712 -1.1420 -1.4150 -2.9548
  329TIP3   OH222621   3.356   2.109   1.189 -0.1173  0.3791  0.1263
  329TIP3    H122622   3.364   2.120   1.094  0.2754 -0.4525  0.0525
  329TIP3    H222623   3.444   2.130   1.222 -0.5390  1.7552  0.4319
  330TIP3   OH222624   0.581   0.381   1.292 -0.3462  0.0912  0.1524
  330TIP3    H122625   0.640   0.429   1.351 -1.4979 -0.0765  1.4894
  330TIP3    H222626   0.500   0.372   1.342 -1.3152 -0.2067 -1.4200
  331TIP3   OH222627   4.006   2.503   0.020  0.6787  0.0403  0.6647
  331TIP3    H122628   3.935   2.453   0.059 -1.0551  3.1355  1.9039
  331TIP3    H222629   3.985   2.507  -0.073  0.2971 -0.6741  0.7159
  332TIP3   OH222630   6.375   5.495   2.079 -0.1793  0.0776 -0.2208
  332TIP3    H122631   6.402   5.452   2.160  2.1532  1.0351 -0.4224
  332TIP3    H222632   6.314   5.563   2.107 -0.2713 -0.3328  0.5946
  333TIP3   OH222633   4.302   1.243   0.378 -0.1029  0.0765 -0.0926
  333TIP3    H122634   4.264   1.189   0.448  2.5975  0.0958  1.5103
  333TIP3    H222635   4.370   1.188   0.339  0.9147  1.3836 -0.2254
  334TIP3   OH222636   5.601   6.560   1.951  0.1268  0.3636  0.0838
  334TIP3    H122637   5.641   6.608   2.023 -2.3110  2.3832  0.2608
  334TIP3    H222638   5.644   6.475   1.951  3.2758  1.8330  1.0611
  335TIP3   OH222639   1.951   3.801   2.210 -0.0104  0.1739 -0.5045
  335TIP3    H122640   1.956   3.841   2.297  0.0330 -1.1072  0.1135
  335TIP3    H222641   1.865   3.759   2.209 -1.1427  2.3351 -2.0967
  336TIP3   OH222642   4.086   6.279   1.917  1.1299 -0.2073  0.2459
  336TIP3    H122643   4.151   6.237   1.972 -0.2074 -0.4844  1.6754
  336TIP3    H222644   4.020   6.313   1.978 -1.2355 -1.9083 -1.1665
  337TIP3   OH222645   6.853   0.781   0.877 -0.4399 -0.4107 -0.8257
  337TIP3    H122646   6.771   0.829   0.868  0.9824  2.2214 -0.6496
  337TIP3    H222647   6.895   0.788   0.792  0.3953 -0.1237 -0.4051
  338TIP3   OH222648   0.844   6.578   8.086 -0.4990  0.1881 -0.3469
  338TIP3    H122649   0.923   6.534   8.116 -0.9146 -0.1948  0.1988
  338TIP3    H222650   0.774   6.543   8.141 -0.6347  2.6807  1.2733
  339TIP3   OH222651   0.127   3.511   2.416 -0.3622 -0.3822  0.3143
  339TIP3    H122652   0.042   3.514   2.460  0.3289  1.7254  1.6485
  339TIP3    H222653   0.175   3.587   2.449  2.6809 -2.3410  0.8418
  340TIP3   OH222654   5.654   4.732   8.682 -0.1621  0.6025  0.3581
  340TIP3    H122655   5.686   4.796   8.746 -1.7320  1.2521  0.5456
  340TIP3    H222656   5.646   4.651   8.733 -2.4297  1.3679  1.3496
  341TIP3   OH222657   6.648   4.078   0.118  0.0343 -0.1128  0.0583
  341TIP3    H122658   6.567   4.096   0.166 -0.0102  1.5238 -0.5594
  341TIP3    H222659   6.619   4.058   0.029  0.2952  0.3205 -0.1251
  342TIP3   OH222660   0.882   6.859   8.092 -0.2458 -0.8924  0.3948
  342TIP3    H122661   0.796   6.898   8.072  0.0194 -0.4276  0.1437
  342TIP3    H222662   0.865   6.765   8.098 -0.3708 -1.0840 -2.0055
  343TIP3   OH222663   5.973   1.032   8.439 -0.7379 -0.3304 -0.2220
  343TIP3    H122664   6.034   1.021   8.366 -0.5805 -1.3075  0.0435
  343TIP3    H222665   6.001   1.113   8.481 -0.9310  0.3292 -1.3349
  344TIP3   OH222666   5.435   0.511   8.708  0.0973 -0.3765  0.5690
  344TIP3    H122667   5.481   0.434   8.740  3.3367  1.7166  1.3845
  344TIP3    H222668   5.366   0.526   8.772 -0.8971 -2.7548  0.1505
  345TIP3   OH222669   3.101   0.739   0.677  0.0651  0.2513 -0.0289
  345TIP3    H122670   3.109   0.784   0.593 -1.6620  1.4015  0.3763
  345TIP3    H222671   3.008   0.744   0.699  0.2958 -1.0064  1.4298
  346TIP3   OH222672   3.255   1.069   0.837 -0.3047 -0.4135 -0.0118
  346TIP3    H122673   3.319   1.000   0.854 -0.3320 -0.9735 -1.9438
  346TIP3    H222674   3.274   1.098   0.748 -1.1801  1.1355  0.2694
  347TIP3   OH222675   4.644   2.856   0.588 -0.1809  0.1462  0.8650
  347TIP3    H122676   4.567   2.907   0.612 -0.6469  0.0855 -0.3963
  347TIP3    H222677   4.700   2.858   0.665 -0.9371  1.1659  1.4060
  348TIP3   OH222678   0.557   1.380   7.586 -0.5676 -0.1526 -0.3985
  348TIP3    H122679   0.593   1.393   7.498 -1.2454 -1.5567 -0.9249
  348TIP3    H222680   0.609   1.308   7.623 -1.5979 -0.9689 -0.4781
  349TIP3   OH222681   6.562   1.754   1.922  0.7236  0.1372  0.0123
  349TIP3    H122682   6.518   1.839   1.931  1.0855  0.2514  0.8344
  349TIP3    H222683   6.614   1.762   1.842 -0.3144  0.1931 -0.6675
  350TIP3   OH222684   0.653   5.018   1.417 -0.0119  0.3186  0.6215
  350TIP3    H122685   0.732   5.074   1.417 -0.3040  0.8132  2.2816
  350TIP3    H222686   0.684   4.933   1.387  1.5276  0.1003  2.5952
  351TIP3   OH222687   1.093   1.994   2.000 -0.0234  0.7787  0.1215
  351TIP3    H122688   1.160   2.016   2.065 -0.8318  3.2249  0.2260
  351TIP3    H222689   1.102   2.062   1.932 -0.5332 -0.5289 -1.3234
  352TIP3   OH222690   0.571   6.606   1.777 -0.3460  0.0836  0.0581
  352TIP3    H122691   0.604   6.644   1.696 -2.2449  1.1904 -0.2470
  352TIP3    H222692   0.618   6.523   1.786 -1.1633 -0.8227 -2.9966
  353TIP3   OH222693   2.073   4.570   0.021  0.3966 -0.6530  0.1334
  353TIP3    H122694   2.017   4.646   0.002  0.4720 -0.5126  0.4628
  353TIP3    H222695   2.017   4.511   0.071  0.3435 -0.8118 -0.1075
  354TIP3   OH222696   1.975   0.340   7.581 -0.1703  0.6361 -0.4767
  354TIP3    H122697   2.010   0.398   7.513  0.8916  0.3881 -0.1694
  354TIP3    H222698   2.034   0.264   7.580  2.1381  2.0967  3.0220
  355TIP3   OH222699   2.318   3.193   8.287  0.0171 -0.0719  0.7074
  355TIP3    H122700   2.311   3.288   8.296  3.4183  0.3786  0.2126
  355TIP3    H222701   2.324   3.177   8.193 -0.3997 -0.7701  0.7889
  356TIP3   OH222702   1.168   4.946   1.502 -0.1010 -0.4488 -0.1538
  356TIP3    H122703   1.188   4.935   1.409  2.5028 -0.0179  0.2842
  356TIP3    H222704   1.175   5.040   1.518  1.2342 -0.6704  0.7828
  357TIP3   OH222705   6.542   0.578   2.231  0.2645  0.0352 -0.0759
  357TIP3    H122706   6.513   0.487   2.243  0.0448  0.1735  0.4696
  357TIP3    H222707   6.462   0.626   2.213 -0.0673  0.6169  2.5647
  358TIP3   OH222708   3.274   6.512   7.854  0.4437  0.4025  0.3693
  358TIP3    H122709   3.196   6.554   7.888  1.0776  2.0992 -0.1536
  358TIP3    H222710   3.346   6.568   7.882  1.3774 -0.5410 -0.0535
  359TIP3   OH222711   2.675   0.767   2.006  0.2870 -0.2071  0.1115
  359TIP3    H122712   2.702   0.859   2.005 -0.9419  0.2333  2.0147
  359TIP3    H222713   2.680   0.740   1.914 -0.1001  2.0079 -0.6359
  360TIP3   OH222714   0.133   0.769   0.030  0.6126  0.3198 -0.0682
  360TIP3    H122715   0.141   0.738  -0.060  2.4427 -1.6501  0.6880
  360TIP3    H222716   0.099   0.695   0.078  0.9358  0.8997  1.0915
  361TIP3   OH222717   2.607   3.263   1.177 -0.0080  0.3313  0.0695
  361TIP3    H122718   2.593   3.242   1.269  3.1501 -1.4870  0.2690
  361TIP3    H222719   2.561   3.346   1.164 -2.1918 -0.3167  2.7193
  362TIP3   OH222720   3.236   4.941   8.365 -0.1774 -0.6266  0.0018
  362TIP3    H122721   3.213   4.892   8.444 -0.7800 -1.0797 -0.4530
  362TIP3    H222722   3.162   4.929   8.306  0.0838  0.0537 -0.4794
  363TIP3   OH222723   6.749   0.486   0.569 -0.0986  0.6450 -0.1323
  363TIP3    H122724   6.682   0.513   0.631  0.7825  2.2348  0.1881
  363TIP3    H222725   6.726   0.396   0.546 -0.4550 -0.0126  2.5133
  364TIP3   OH222726   4.892   4.208   7.779  0.4716  0.1943  0.2526
  364TIP3    H122727   4.956   4.278   7.770  0.7867 -0.0907  0.2398
  364TIP3    H222728   4.932   4.133   7.734 -0.2627  0.2647 -0.5560
  365TIP3   OH222729   5.172   2.208   8.066 -0.3416  0.2059 -0.1641
  365TIP3    H122730   5.153   2.206   7.972  0.0979  1.0727 -0.2839
  365TIP3    H222731   5.233   2.135   8.079  2.0504  1.8778 -1.1578
  366TIP3   OH222732   6.074   3.963   7.738  0.2104 -0.3082 -1.1661
  366TIP3    H122733   6.154   3.941   7.786  0.1241 -1.9080 -1.6826
  366TIP3    H222734   6.059   4.055   7.756  1.1221 -0.4518  0.4750
  367TIP3   OH222735   1.744   4.221   1.223  0.1903 -0.1721  0.4841
  367TIP3    H122736   1.723   4.314   1.215 -1.2878 -0.5555 -0.4695
  367TIP3    H222737   1.719   4.197   1.312 -0.2858  0.1421  0.4337
  368TIP3   OH222738   5.897   1.643   7.805 -0.5951 -0.5351 -0.0228
  368TIP3    H122739   5.926   1.691   7.883 -0.2922 -2.6642  1.2531
  368TIP3    H222740   5.933   1.693   7.731  1.1700  0.2413  1.2883
  369TIP3   OH222741   3.226   0.374   7.551 -0.1745  0.0924  0.5789
  369TIP3    H122742   3.249   0.297   7.603 -1.6551 -0.7411  0.0734
  369TIP3    H222743   3.290   0.376   7.480 -0.5126 -1.0670  0.2302
  370TIP3   OH222744   4.351   6.808   0.439  0.0645 -0.7517  0.4619
  370TIP3    H122745   4.423   6.806   0.503 -0.6634 -0.3998  1.3184
  370TIP3    H222746   4.273   6.786   0.491 -0.7961  1.1233  0.0423
  371TIP3   OH222747   1.412   3.659   0.321 -0.5632  0.7336  0.0605
  371TIP3    H122748   1.416   3.753   0.305  2.2112  0.6997  0.1697
  371TIP3    H222749   1.448   3.648   0.409 -0.0190 -0.5023 -0.2972
  372TIP3   OH222750   3.735   6.003   6.896  0.4369  0.4305  0.1789
  372TIP3    H122751   3.720   6.060   6.821 -0.0791  1.5291  1.0813
  372TIP3    H222752   3.809   5.948   6.870  0.5979  1.1348 -0.9298
  373TIP3   OH222753   3.009   0.109   1.930  0.2342  0.3197  0.8537
  373TIP3    H122754   2.950   0.152   1.992  1.1845  0.2962  1.8093
  373TIP3    H222755   3.007   0.017   1.955 -0.9797 -0.0520 -0.5075
  374TIP3   OH222756   5.304   6.856   7.475 -0.2155 -0.7715  0.1358
  374TIP3    H122757   5.306   6.891   7.564 -1.0199  2.4140 -0.9827
  374TIP3    H222758   5.395   6.864   7.444  0.1367 -2.1922  0.6983
  375TIP3   OH222759   1.153   0.382   0.236  0.3884 -0.3258  0.6001
  375TIP3    H122760   1.144   0.306   0.179  2.2852  0.4616 -0.8596
  375TIP3    H222761   1.137   0.347   0.324  2.1497 -2.6976  0.1025
  376TIP3   OH222762   5.549   6.635   7.254  0.6913 -0.1307  0.0587
  376TIP3    H122763   5.598   6.594   7.326 -1.3926 -2.0353  0.4992
  376TIP3    H222764   5.457   6.615   7.273  0.0792 -1.6056 -3.6439
  377TIP3   OH222765   5.135   2.673   8.102 -0.3158 -0.3441  0.1866
  377TIP3    H122766   5.146   2.714   8.189 -2.4840 -0.7202  0.6912
  377TIP3    H222767   5.198   2.601   8.102 -0.7075 -0.7203  1.7054
  378TIP3   OH222768   2.794   4.769   7.822 -0.0966 -0.0489 -0.2548
  378TIP3    H122769   2.783   4.694   7.882  0.5590 -0.0512 -0.1284
  378TIP3    H222770   2.889   4.776   7.811 -0.1690  0.6348 -0.4369
  379TIP3   OH222771   3.006   0.977   0.225  0.8666 -0.2694  0.3424
  379TIP3    H122772   3.036   1.055   0.178 -1.2794  0.3771 -0.0709
  379TIP3    H222773   3.008   0.908   0.159  0.6009 -0.0171  0.0601
  380TIP3   OH222774   5.102   0.564   8.205  0.3014  0.2267  0.2647
  380TIP3    H122775   5.145   0.515   8.276  0.2292  0.8669  0.7527
  380TIP3    H222776   5.077   0.647   8.244 -2.6211 -0.6109  0.3969
  381TIP3   OH222777   5.337   4.143   8.447 -0.0198 -0.3085 -0.4032
  381TIP3    H122778   5.419   4.176   8.412  0.0162  0.7019  0.5935
  381TIP3    H222779   5.315   4.069   8.389  1.2036 -0.1530 -1.1128
  382TIP3   OH222780   2.565   5.112   2.137 -0.6026 -0.5777  0.3653
  382TIP3    H122781   2.638   5.104   2.198 -0.3403 -2.6736 -0.1121
  382TIP3    H222782   2.488   5.089   2.189 -0.6234 -0.5395  0.3511
  383TIP3   OH222783   2.390   2.123   0.819 -0.0296  0.2849  0.6597
  383TIP3    H122784   2.307   2.150   0.859  0.0424 -0.5149  1.3805
  383TIP3    H222785   2.390   2.028   0.827 -0.7607 -0.1323 -2.7340
  384TIP3   OH222786   0.585   1.091   0.927  0.2652  0.2872  0.3007
  384TIP3    H122787   0.583   1.131   1.014  2.4952  3.2964 -0.8643
  384TIP3    H222788   0.670   1.117   0.891 -0.6277 -0.7382 -2.8490
  385TIP3   OH222789   4.271   1.813   1.485  0.0324 -0.4736  0.0025
  385TIP3    H122790   4.296   1.854   1.568  0.1293 -0.7555  0.1130
  385TIP3    H222791   4.234   1.884   1.433 -2.0207 -0.6792  1.0809
  386TIP3   OH222792   1.192   6.862   7.699 -0.3757 -0.3983  0.0094
  386TIP3    H122793   1.115   6.815   7.731 -1.1203 -0.2290 -1.4638
  386TIP3    H222794   1.257   6.794   7.682  0.0436 -0.4915  1.8164
  387TIP3   OH222795   2.287   4.579   0.844  0.6192 -0.5293  0.3614
  387TIP3    H122796   2.269   4.669   0.819  1.1939 -0.2441  0.9458
  387TIP3    H222797   2.338   4.543   0.771  0.0196 -0.5168 -0.0659
  388TIP3   OH222798   3.295   3.655   0.325 -0.0140  0.5566  0.2088
  388TIP3    H122799   3.242   3.663   0.405 -3.1591 -0.3559 -1.6064
  388TIP3    H222800   3.278   3.737   0.278  1.0143  0.6591  0.0068
  389TIP3   OH222801   3.144   3.020   1.100  0.5477 -0.4526  0.0604
  389TIP3    H122802   3.118   3.079   1.171 -1.4345 -1.3058  0.1167
  389TIP3    H222803   3.195   2.952   1.144  0.8955  0.0020  0.3680
  390TIP3   OH222804   6.046   6.191   1.715  0.1509 -0.2785 -0.0197
  390TIP3    H122805   6.058   6.245   1.794 -0.1550 -0.6758  0.3067
  390TIP3    H222806   5.964   6.143   1.732 -1.5975  1.8595 -1.8733
  391TIP3   OH222807   2.023   5.661   1.905  0.7599  0.1992  0.1344
  391TIP3    H122808   2.101   5.607   1.895  1.4717  1.0950  0.6619
  391TIP3    H222809   1.987   5.668   1.816  0.1183 -1.8632  0.1827
  392TIP3   OH222810   5.708   1.174   0.034 -0.4601  0.4564  0.2156
  392TIP3    H122811   5.679   1.142   0.119 -0.0564  1.0994  0.5999
  392TIP3    H222812   5.629   1.177  -0.019 -0.6129 -0.5570  0.3621
  393TIP3   OH222813   4.243   2.637   0.883  0.1541 -0.3025 -0.2522
  393TIP3    H122814   4.161   2.687   0.886  0.1332 -0.3635  0.3381
  393TIP3    H222815   4.291   2.665   0.960  1.2808  0.6907 -1.2785
  394TIP3   OH222816   4.889   0.857   1.500 -0.0394 -0.8131 -0.5454
  394TIP3    H122817   4.824   0.927   1.509 -1.1263 -1.7999 -0.5625
  394TIP3    H222818   4.856   0.801   1.430  0.3375 -1.8548  0.0850
  395TIP3   OH222819   2.146   6.093   7.756 -0.2317  0.0193  0.6924
  395TIP3    H122820   2.222   6.037   7.769 -1.0544 -1.2266  0.3392
  395TIP3    H222821   2.128   6.130   7.843  0.3856 -0.1942  0.9127
  396TIP3   OH222822   6.516   1.935   0.057 -0.5412  0.0018 -0.3247
  396TIP3    H122823   6.498   1.922   0.150 -0.9003 -1.0588 -0.5286
  396TIP3    H222824   6.453   2.001   0.029  1.2422  2.2639  0.7207
  397TIP3   OH222825   3.348   3.194   2.046 -0.9385  0.2808 -0.5945
  397TIP3    H122826   3.425   3.155   2.087 -0.6563  0.0232 -1.3673
  397TIP3    H222827   3.275   3.141   2.078 -1.1453  1.9215  2.0392
  398TIP3   OH222828   2.760   4.236   2.490  0.2117 -0.1256 -0.0807
  398TIP3    H122829   2.783   4.286   2.568  0.7754 -2.1317  1.0972
  398TIP3    H222830   2.844   4.213   2.450 -0.0250 -0.3845 -0.4488
  399TIP3   OH222831   6.428   1.099   1.914  0.6161  0.5928 -0.1568
  399TIP3    H122832   6.398   1.024   1.863  0.2064  0.4884  0.2239
  399TIP3    H222833   6.449   1.166   1.849  0.8940  0.1816 -0.4956
  400TIP3   OH222834   4.123   3.932   8.385  0.1239 -0.1909 -0.2328
  400TIP3    H122835   4.136   3.991   8.459 -1.5132  2.8386 -2.1396
  400TIP3    H222836   4.194   3.868   8.392 -0.1915 -0.3133  4.0649
  401TIP3   OH222837   4.596   0.254   8.274 -0.3648 -0.1854  0.4622
  401TIP3    H122838   4.575   0.171   8.233 -1.0803  0.1649  0.1021
  401TIP3    H222839   4.541   0.257   8.353 -0.2172 -0.1256  0.5638
  402TIP3   OH222840   3.975   4.635   2.144  0.4955  0.3061 -0.1130
  402TIP3    H122841   3.889   4.645   2.185  0.5594  1.5729 -0.2660
  402TIP3    H222842   4.036   4.630   2.217  0.2323 -1.5125  0.0266
  403TIP3   OH222843   1.202   2.453   1.892 -0.1557  0.9112  0.1256
  403TIP3    H122844   1.216   2.499   1.809  0.7803  2.3565  1.0490
  403TIP3    H222845   1.137   2.506   1.938  1.6230  1.9049  1.5934
  404TIP3   OH222846   0.649   4.346   0.694  0.3436  0.2724 -0.0147
  404TIP3    H122847   0.638   4.252   0.706 -0.8757  0.4640  0.5106
  404TIP3    H222848   0.637   4.383   0.781  1.5166  0.8696 -0.0876
  405TIP3   OH222849   2.477   3.998   7.100  0.0342  0.0386  0.1904
  405TIP3    H122850   2.384   3.993   7.077  0.4818 -0.6778 -1.6179
  405TIP3    H222851   2.516   4.053   7.032  1.1165 -0.5800  0.2899
  406TIP3   OH222852   1.178   5.340   7.536  0.3912  0.1441  0.0629
  406TIP3    H122853   1.135   5.265   7.578 -1.6962  0.6118 -1.1122
  406TIP3    H222854   1.245   5.300   7.481  1.1430 -0.6574  1.4994
  407TIP3   OH222855   2.069   4.884   2.470 -0.0213 -0.2259  0.1104
  407TIP3    H122856   1.992   4.936   2.448  0.2610 -0.5609 -1.8120
  407TIP3    H222857   2.034   4.795   2.484  0.1074 -0.7199 -2.2397
  408TIP3   OH222858   5.237   0.639   1.681 -0.5534  0.5477 -0.7770
  408TIP3    H122859   5.165   0.585   1.650 -1.0566  1.3194 -0.9579
  408TIP3    H222860   5.195   0.717   1.719  0.1066  0.3475  0.4310
  409TIP3   OH222861   5.830   1.529   7.158  0.5151 -0.0882  0.2767
  409TIP3    H122862   5.888   1.454   7.161 -0.0077 -0.6724 -2.0076
  409TIP3    H222863   5.881   1.602   7.193  1.5018 -1.2155  1.2238
  410TIP3   OH222864   0.215   4.393   2.680  1.1124  0.7132  0.7708
  410TIP3    H122865   0.210   4.323   2.745  1.1822 -0.4346 -0.4269
  410TIP3    H222866   0.308   4.414   2.674  1.4698 -1.1072 -0.8994
  411TIP3   OH222867   2.952   0.507   8.578  0.3735 -0.2978  0.2802
  411TIP3    H122868   2.857   0.498   8.577  0.4607 -1.3710  0.3454
  411TIP3    H222869   2.970   0.569   8.649 -0.4373  2.6514 -1.9057
  412TIP3   OH222870   4.079   4.332   0.133  0.4313 -0.1220 -0.5601
  412TIP3    H122871   4.004   4.283   0.167  0.3588  0.3494 -0.0141
  412TIP3    H222872   4.095   4.399   0.200  0.7330  0.3829 -1.1304
  413TIP3   OH222873   6.431   2.370   7.833 -0.4105  0.3781 -0.1222
  413TIP3    H122874   6.430   2.275   7.829 -0.6761  0.4143 -1.1514
  413TIP3    H222875   6.461   2.390   7.922 -0.2493 -0.6577  0.0672
  414TIP3   OH222876   4.557   5.976   0.733  0.0912  0.0565 -0.1713
  414TIP3    H122877   4.519   6.058   0.700 -0.3793 -0.8211 -1.9256
  414TIP3    H222878   4.625   5.955   0.669 -1.1118 -1.9198 -0.8889
  415TIP3   OH222879   4.786   6.566   0.502  0.2360  0.0229  0.4740
  415TIP3    H122880   4.705   6.587   0.548  0.6767 -0.1744  1.3503
  415TIP3    H222881   4.855   6.605   0.555  0.7844 -0.5634  0.2078
  416TIP3   OH222882   1.348   1.405   1.036  0.3778 -0.1821 -0.5909
  416TIP3    H122883   1.290   1.357   1.096  0.5144  0.9172  0.4748
  416TIP3    H222884   1.292   1.428   0.962 -0.1306 -0.4795 -0.3112
  417TIP3   OH222885   4.357   3.999   1.127  0.2661 -0.5232  0.0529
  417TIP3    H122886   4.442   4.033   1.101  0.1325  0.2854  0.6063
  417TIP3    H222887   4.366   3.983   1.221 -0.6609  1.1614  0.4780
  418TIP3   OH222888   2.168   5.732   0.761 -0.0089 -0.0299  0.4866
  418TIP3    H122889   2.077   5.703   0.764 -0.2651  0.8146  2.1949
  418TIP3    H222890   2.174   5.799   0.829  1.9294 -0.1773  0.5241
  419TIP3   OH222891   2.678   6.821   1.691  0.1988  1.0774 -0.1148
  419TIP3    H122892   2.768   6.793   1.705 -0.2917 -0.2183  0.5629
  419TIP3    H222893   2.633   6.800   1.772 -0.6535  1.9960 -0.3373
  420TIP3   OH222894   4.758   1.808   0.106  0.0561  0.2522  0.5061
  420TIP3    H122895   4.801   1.889   0.132  0.3551  0.2527  0.0035
  420TIP3    H222896   4.689   1.835   0.045  0.0445  0.1468  0.4707
  421TIP3   OH222897   2.929   2.798   1.278  0.1150  0.2666  0.4788
  421TIP3    H122898   2.981   2.878   1.288 -0.5133  0.4666  2.4485
  421TIP3    H222899   2.877   2.814   1.199  0.9894  1.2211  0.0621
  422TIP3   OH222900   0.588   0.479   1.020  0.4746 -0.1115  0.6291
  422TIP3    H122901   0.578   0.472   1.114  1.8239 -1.8531  0.7050
  422TIP3    H222902   0.509   0.439   0.984 -0.3798  1.2021  0.9719
  423TIP3   OH222903   5.294   3.635   0.372  0.1806 -0.3638 -0.2606
  423TIP3    H122904   5.279   3.730   0.375 -1.5457 -0.4707 -2.4341
  423TIP3    H222905   5.230   3.599   0.433 -1.0248 -0.2221 -1.3948
  424TIP3   OH222906   6.146   6.539   1.566 -0.1702 -0.6220 -0.0167
  424TIP3    H122907   6.121   6.631   1.560 -0.9741 -0.9023 -1.4205
  424TIP3    H222908   6.064   6.492   1.578  0.1491 -1.2131 -0.0982
  425TIP3   OH222909   1.907   2.917   1.928 -0.3531 -0.3670  0.4752
  425TIP3    H122910   1.973   2.904   1.997  1.0109  0.1066 -0.6818
  425TIP3    H222911   1.889   2.830   1.895  0.3685 -0.4222  0.2132
  426TIP3   OH222912   1.031   5.113   7.592 -0.1871 -0.2078 -0.4769
  426TIP3    H122913   1.001   5.080   7.507 -1.9152 -0.0490  0.0417
  426TIP3    H222914   0.959   5.096   7.652 -0.0579  2.0022  0.4127
  427TIP3   OH222915   4.216   4.267   1.380  0.2726 -0.6681 -0.5264
  427TIP3    H122916   4.164   4.223   1.313  0.0533  0.2033 -0.9456
  427TIP3    H222917   4.156   4.276   1.454 -0.6181  1.3720 -1.4067
  428TIP3   OH222918   6.164   2.368   0.876  0.3546 -0.2644  0.2312
  428TIP3    H122919   6.187   2.452   0.835  3.1346 -0.3848  1.3273
  428TIP3    H222920   6.142   2.391   0.966 -0.3996 -0.5567  0.1224
  429TIP3   OH222921   2.579   0.152   1.939  0.1717 -0.0037 -0.1129
  429TIP3    H122922   2.602   0.060   1.922 -1.5173 -0.7179  1.2162
  429TIP3    H222923   2.593   0.163   2.033  0.4114  1.1367 -0.2702
  430TIP3   OH222924   4.966   4.855   8.369  0.3363  0.1464 -0.0606
  430TIP3    H122925   5.013   4.914   8.428 -0.4716  2.0294 -1.1994
  430TIP3    H222926   4.874   4.866   8.393  0.2235 -1.3327  0.2626
  431TIP3   OH222927   0.264   1.307   1.377 -0.0444  0.5367 -0.2224
  431TIP3    H122928   0.187   1.250   1.370  0.5965 -0.7346  2.1091
  431TIP3    H222929   0.232   1.384   1.424  0.3392 -0.7066  2.2589
  432TIP3   OH222930   6.144   3.624   6.822 -0.3451 -0.1958  0.3087
  432TIP3    H122931   6.160   3.543   6.871 -2.7462 -0.1498  1.3086
  432TIP3    H222932   6.065   3.660   6.861 -0.0541  2.0053 -0.9649
  433TIP3   OH222933   6.532   4.259   8.035  0.5719 -0.5048  0.2181
  433TIP3    H122934   6.482   4.245   7.955  1.5315  1.5424 -0.8130
  433TIP3    H222935   6.469   4.300   8.095  0.1034 -1.1519  0.1747
  434TIP3   OH222936   0.802   2.991   7.712  0.7800 -0.6577 -0.4180
  434TIP3    H122937   0.788   2.897   7.716 -1.1949 -0.3971 -0.0733
  434TIP3    H222938   0.842   3.014   7.796  1.7490 -1.2403 -0.7123
  435TIP3   OH222939   4.463   3.437   7.959  0.0037 -0.3491 -0.0264
  435TIP3    H122940   4.430   3.369   7.900 -0.3965 -0.3328  0.1743
  435TIP3    H222941   4.461   3.396   8.046  1.2912 -0.6291 -0.1095
  436TIP3   OH222942   2.945   4.354   7.649 -0.2747  0.5612  0.0001
  436TIP3    H122943   2.889   4.348   7.571 -1.1466 -0.4360  0.6597
  436TIP3    H222944   2.950   4.264   7.681  0.9545  0.7892  0.5043
  437TIP3   OH222945   5.148   2.196   8.513  0.1932  0.3070  0.2539
  437TIP3    H122946   5.126   2.124   8.573  1.6304 -0.0607  0.3831
  437TIP3    H222947   5.102   2.175   8.432  1.3809 -1.3350 -0.0493
  438TIP3   OH222948   6.548   6.031   0.789  0.1760  0.2471 -0.1667
  438TIP3    H122949   6.498   6.095   0.738 -0.6176 -0.3603 -0.1575
  438TIP3    H222950   6.578   6.081   0.865  0.2288  0.8075 -0.5446
  439TIP3   OH222951   4.539   3.266   1.872  0.1283  0.0846 -0.6443
  439TIP3    H122952   4.606   3.286   1.807  2.5217 -1.0327  1.3440
  439TIP3    H222953   4.571   3.305   1.953 -0.9822 -1.5304  0.6385
  440TIP3   OH222954   0.300   2.333   7.019 -0.3596  0.2264  0.2405
  440TIP3    H122955   0.338   2.419   7.002  1.5869 -0.5477  0.4081
  440TIP3    H222956   0.228   2.350   7.081 -1.8157  2.0014 -1.8127
  441TIP3   OH222957   6.145   6.151   7.472 -0.5140 -0.3765  0.7106
  441TIP3    H122958   6.113   6.234   7.437  0.7328  0.6597  1.9116
  441TIP3    H222959   6.231   6.139   7.430 -0.3009 -0.6016  1.1972
  442TIP3   OH222960   0.298   3.378   2.271 -0.0296 -0.0801 -0.4857
  442TIP3    H122961   0.230   3.428   2.317  0.2205  1.1342 -1.3944
  442TIP3    H222962   0.374   3.383   2.329 -0.0438  0.4997 -0.5123
  443TIP3   OH222963   0.813   3.815   1.948  0.1247 -0.4225 -0.0239
  443TIP3    H122964   0.817   3.772   2.034  0.6374 -0.6038 -0.1387
  443TIP3    H222965   0.769   3.898   1.966 -0.8676 -0.9826  0.2017
  444TIP3   OH222966   5.068   5.816   0.440 -0.9397  0.1643 -0.2339
  444TIP3    H122967   5.156   5.783   0.460 -1.2272  0.0727  0.9549
  444TIP3    H222968   5.081   5.874   0.365  0.1647  0.2655  0.0129
  445TIP3   OH222969   5.341   1.599   8.294 -0.5122  0.0074 -0.1301
  445TIP3    H122970   5.393   1.556   8.362 -0.8359 -0.4993 -0.1982
  445TIP3    H222971   5.402   1.661   8.252  0.9323 -2.6088 -2.1706
  446TIP3   OH222972   2.231   5.721   6.890  0.0830  0.0629 -0.1098
  446TIP3    H122973   2.195   5.788   6.832 -1.6781 -1.3156 -0.7085
  446TIP3    H222974   2.222   5.758   6.978 -1.2738  0.4505 -0.3883
  447TIP3   OH222975   4.172   3.195   7.637 -0.0833  0.3127 -0.1702
  447TIP3    H122976   4.177   3.265   7.701 -1.7707 -0.5138  0.9441
  447TIP3    H222977   4.175   3.240   7.552  1.5731  1.4713  0.4547
  448TIP3   OH222978   0.939   5.130   1.373 -0.5492 -0.4443  0.3371
  448TIP3    H122979   0.969   5.077   1.299  0.5759  0.4002  0.1519
  448TIP3    H222980   1.020   5.166   1.410 -1.1891  0.0275  1.2989
  449TIP3   OH222981   2.149   4.371   0.597 -0.1057  0.2907 -0.2383
  449TIP3    H122982   2.235   4.411   0.582  0.4313  0.1619  2.0908
  449TIP3    H222983   2.157   4.283   0.562  1.0363 -0.0054  0.6940
  450TIP3   OH222984   3.876   0.494   1.155 -0.1756  0.2738  0.5653
  450TIP3    H122985   3.818   0.427   1.118 -1.4206  1.3184  0.5905
  450TIP3    H222986   3.930   0.446   1.218 -0.3931 -0.8844 -0.0990
  451TIP3   OH222987   0.637   4.525   1.480 -0.1053  0.5153 -0.8759
  451TIP3    H122988   0.549   4.515   1.517 -0.1348 -1.7500 -1.4590
  451TIP3    H222989   0.681   4.585   1.541 -1.0223 -0.8568  1.2745
  452TIP3   OH222990   0.900   3.631   7.719 -0.1611 -0.3199  0.3281
  452TIP3    H122991   0.883   3.659   7.629  0.7245 -1.4610 -0.2226
  452TIP3    H222992   0.846   3.689   7.773 -0.2702  0.7718 -0.8967
  453TIP3   OH222993   4.396   2.694   8.476 -0.7347 -0.2266  0.2999
  453TIP3    H122994   4.347   2.770   8.507 -0.6246  0.1097 -0.3355
  453TIP3    H222995   4.471   2.688   8.534  0.3124  1.3312 -0.8055
  454TIP3   OH222996   4.277   0.998   0.006  0.4432  0.6176  0.1796
  454TIP3    H122997   4.241   1.022  -0.079  1.5455  1.5132 -0.0647
  454TIP3    H222998   4.372   1.000  -0.007  0.6713  1.9156  1.7122
  455TIP3   OH222999   1.837   1.808   0.621  0.5740  0.1699  0.6036
  455TIP3    H123000   1.814   1.758   0.699  0.1193  0.2263  0.5045
  455TIP3    H223001   1.754   1.824   0.577  1.0219 -2.0201 -1.2191
  456TIP3   OH223002   2.862   6.361   0.374  0.1860 -0.0408  0.1652
  456TIP3    H123003   2.860   6.422   0.447  1.0338  0.3732 -0.1414
  456TIP3    H223004   2.770   6.342   0.355 -0.0356 -1.1108  2.1110
  457TIP3   OH223005   0.414   1.967   0.499  0.4586 -0.0118 -0.2202
  457TIP3    H123006   0.351   1.899   0.526  1.5270 -1.5448 -1.4044
  457TIP3    H223007   0.405   1.971   0.404  1.0883  0.8330 -0.2512
  458TIP3   OH223008   0.299   5.628   7.994 -0.1816  0.3372  0.2586
  458TIP3    H123009   0.306   5.635   7.898 -0.2655  0.5352  0.2671
  458TIP3    H223010   0.207   5.609   8.010 -0.0753 -0.1763  0.2732
  459TIP3   OH223011   5.842   4.794   1.140 -0.0210  0.5037  0.1263
  459TIP3    H123012   5.891   4.870   1.109  1.4487 -0.1569  0.7687
  459TIP3    H223013   5.801   4.758   1.061  0.7290  0.9387 -0.4717
  460TIP3   OH223014   1.429   1.191   0.866  0.3019 -0.3406 -0.0180
  460TIP3    H123015   1.416   1.263   0.927  0.8275 -1.1137  1.0540
  460TIP3    H223016   1.363   1.126   0.890 -0.5678 -0.0058 -1.3681
  461TIP3   OH223017   5.245   4.981   8.662  0.7166 -0.2932  0.0554
  461TIP3    H123018   5.239   5.038   8.739  0.0666 -0.4726  0.1398
  461TIP3    H223019   5.186   5.020   8.599  1.0913 -0.2662 -0.2840
  462TIP3   OH223020   3.992   5.195   0.239 -0.0853  0.0685 -0.0192
  462TIP3    H123021   3.997   5.285   0.272 -0.0405  0.3179 -0.6960
  462TIP3    H223022   4.008   5.141   0.316  3.7363  0.6783 -0.1973
  463TIP3   OH223023   2.962   6.308   8.435  0.2976  0.0570  0.2549
  463TIP3    H123024   2.887   6.309   8.494 -1.8389  1.5987 -2.2732
  463TIP3    H223025   3.031   6.355   8.482 -1.1694  0.8587  1.6723
  464TIP3   OH223026   0.947   1.145   1.163  0.1203 -0.4079  0.0116
  464TIP3    H123027   0.966   1.051   1.171 -2.7830 -1.2272 -1.2400
  464TIP3    H223028   0.883   1.150   1.093 -0.1690  2.5040  0.3721
  465TIP3   OH223029   2.200   4.160   0.435 -0.3300  0.3162  0.3244
  465TIP3    H123030   2.138   4.089   0.417 -0.8649  0.4684  1.4354
  465TIP3    H223031   2.284   4.127   0.404 -0.6842 -0.5511  0.2548
  466TIP3   OH223032   1.053   4.627   1.825  0.1316  0.1610 -0.3621
  466TIP3    H123033   1.002   4.547   1.816 -0.2886  0.3897 -0.0621
  466TIP3    H223034   1.038   4.674   1.742  2.2814 -1.1311 -1.5469
  467TIP3   OH223035   0.264   4.851   8.228  0.3321 -0.2378 -0.7258
  467TIP3    H123036   0.305   4.840   8.314 -0.9919  0.2359  0.0093
  467TIP3    H223037   0.245   4.761   8.199 -1.3053 -0.3866  0.5936
  468TIP3   OH223038   1.980   4.637   2.496  0.1930 -0.0301  0.3613
  468TIP3    H123039   2.028   4.618   2.415 -0.4279 -0.9379  0.2000
  468TIP3    H223040   2.008   4.569   2.557 -0.8041 -0.5045  0.2976
  469TIP3   OH223041   5.967   3.521   0.834 -0.7081 -0.3937  0.0992
  469TIP3    H123042   5.972   3.603   0.785 -0.8739 -0.3183  0.2100
  469TIP3    H223043   6.059   3.501   0.855 -0.4261 -1.3858 -1.8020
  470TIP3   OH223044   2.136   2.088   0.464  0.1836  0.3729  0.0030
  470TIP3    H123045   2.105   2.001   0.438  2.2963 -1.0177  1.7421
  470TIP3    H223046   2.058   2.132   0.498 -0.6992 -1.3653  0.3562
  471TIP3   OH223047   3.845   3.306   7.812  0.4324  0.5015 -0.5304
  471TIP3    H123048   3.940   3.306   7.829  0.1684 -1.0628  1.2524
  471TIP3    H223049   3.827   3.217   7.781 -0.4855  0.7475 -0.7077
  472TIP3   OH223050   6.785   4.550   7.462  0.1335  0.5776 -1.1918
  472TIP3    H123051   6.765   4.606   7.538 -0.3509 -1.3000  0.1478
  472TIP3    H223052   6.725   4.580   7.394 -0.4335  1.3770 -0.3699
  473TIP3   OH223053   2.810   5.499   1.118  0.2843  0.1344 -0.3572
  473TIP3    H123054   2.873   5.561   1.082  0.9321 -0.7618 -0.8093
  473TIP3    H223055   2.847   5.413   1.098 -0.6956 -0.4019  0.0688
  474TIP3   OH223056   5.783   3.749   0.032  0.1952 -0.0633  0.8617
  474TIP3    H123057   5.870   3.711   0.027 -0.0975 -0.6116 -0.3483
  474TIP3    H223058   5.724   3.673   0.034 -0.2895  0.3099  0.9036
  475TIP3   OH223059   3.061   2.133   2.336  0.2464  0.2567 -0.0051
  475TIP3    H123060   2.984   2.182   2.366 -0.4761 -0.6860 -0.2722
  475TIP3    H223061   3.112   2.197   2.287 -0.7528  0.7150 -0.4763
  476TIP3   OH223062   3.309   0.081   0.756  0.4440  0.8581 -0.2292
  476TIP3    H123063   3.307   0.019   0.683 -0.3209 -2.1530  2.1179
  476TIP3    H223064   3.217   0.105   0.769  0.5716  1.3538 -0.2338
  477TIP3   OH223065   0.765   3.479   7.457  0.0154 -0.1207  0.2536
  477TIP3    H123066   0.732   3.413   7.517  1.1066  0.2058  1.2596
  477TIP3    H223067   0.687   3.517   7.417 -0.6574 -1.4152  0.2964
  478TIP3   OH223068   6.834   2.630   6.857  0.1007  0.3931 -0.0480
  478TIP3    H123069   6.819   2.535   6.861 -2.2387  0.7498  1.8337
  478TIP3    H223070   6.780   2.660   6.784  0.5440  0.3617 -0.3989
  479TIP3   OH223071   3.248   4.735   0.705  0.0757  0.1488  0.6671
  479TIP3    H123072   3.233   4.642   0.692 -1.3977  0.4327  0.1505
  479TIP3    H223073   3.250   4.746   0.800 -2.3323 -0.0654  0.7917
  480TIP3   OH223074   6.025   3.484   1.909 -0.1499 -0.2228 -0.1931
  480TIP3    H123075   5.977   3.566   1.901  1.3399  0.5422 -2.0281
  480TIP3    H223076   5.962   3.423   1.947 -1.8939  1.2626 -0.5871
  481TIP3   OH223077   1.492   1.352   0.121  0.0390 -0.3372 -0.0954
  481TIP3    H123078   1.585   1.362   0.103 -0.5001  1.9254 -2.2539
  481TIP3    H223079   1.484   1.266   0.162  2.9684 -0.8800 -0.4708
  482TIP3   OH223080   3.279   5.354   7.912  0.2544 -0.3249  0.6907
  482TIP3    H123081   3.209   5.354   7.977  1.5592 -0.4216  2.1517
  482TIP3    H223082   3.323   5.270   7.924  0.5226 -0.3453 -0.3418
  483TIP3   OH223083   3.199   4.847   0.277 -0.1575 -0.0399  0.6087
  483TIP3    H123084   3.253   4.847   0.356  0.5882  0.3047  0.1142
  483TIP3    H223085   3.193   4.939   0.252 -1.1116 -0.0616  0.7366
  484TIP3   OH223086   1.971   5.957   8.196  0.1887  0.1175 -0.2463
  484TIP3    H123087   2.020   5.961   8.114  0.7065  0.8029  0.0906
  484TIP3    H223088   1.886   5.994   8.175 -0.1099 -0.8327 -0.7701
  485TIP3   OH223089   6.104   2.415   1.792 -0.1646  0.6827 -0.5555
  485TIP3    H123090   6.067   2.344   1.739  0.4200  0.6540 -0.9317
  485TIP3    H223091   6.113   2.378   1.880  0.3936  0.2004 -0.8128
  486TIP3   OH223092   5.552   5.107   0.213  0.0642 -0.3574 -0.0342
  486TIP3    H123093   5.513   5.191   0.237  0.1411 -1.0639  2.9608
  486TIP3    H223094   5.614   5.088   0.283 -0.2830 -3.1060 -0.3422
  487TIP3   OH223095   0.388   2.653   0.700 -0.1589  0.0587  0.0643
  487TIP3    H123096   0.344   2.714   0.759 -0.2712 -0.9631  1.0723
  487TIP3    H223097   0.319   2.595   0.669  0.1896 -0.4961  0.3106
  488TIP3   OH223098   3.850   4.265   1.849 -0.5178  0.4787  0.3921
  488TIP3    H123099   3.810   4.241   1.766  1.6346  0.0084 -0.5613
  488TIP3    H223100   3.908   4.192   1.870 -2.2390 -0.2521  3.2361
  489TIP3   OH223101   6.751   2.529   8.619 -0.1861 -0.1564 -0.1412
  489TIP3    H123102   6.733   2.472   8.694 -0.8946  0.2722  0.0133
  489TIP3    H223103   6.706   2.487   8.545  1.9482 -1.5641 -0.7673
  490TIP3   OH223104   3.441   3.005   0.229 -0.0808 -0.5057 -0.7539
  490TIP3    H123105   3.392   2.925   0.251 -0.0229 -0.2504  0.3911
  490TIP3    H223106   3.381   3.076   0.252  1.3285 -0.1357  2.2251
  491TIP3   OH223107   6.444   5.033   1.274  0.5021  0.1729  0.0159
  491TIP3    H123108   6.485   5.070   1.352 -1.0389  0.5864  0.6631
  491TIP3    H223109   6.392   4.960   1.307 -1.1316  1.0947 -0.4214
  492TIP3   OH223110   6.204   3.805   0.464 -0.5426 -0.0316  0.2005
  492TIP3    H123111   6.132   3.742   0.472 -2.9203  2.2368 -1.7659
  492TIP3    H223112   6.201   3.854   0.546 -2.3803  1.0647 -0.4592
  493TIP3   OH223113   3.408   1.609   2.579  0.3321 -0.1550 -0.4330
  493TIP3    H123114   3.440   1.558   2.505 -0.0469 -0.8207 -0.1471
  493TIP3    H223115   3.478   1.604   2.644  0.3407 -0.2268 -0.4475
  494TIP3   OH223116   6.763   4.182   8.332 -0.0558 -0.8491 -0.4411
  494TIP3    H123117   6.682   4.218   8.369  0.0265 -0.1103 -0.9657
  494TIP3    H223118   6.833   4.218   8.387  0.0400 -0.0385 -1.0748
  495TIP3   OH223119   5.282   6.348   6.347  0.0505  0.5596 -0.0449
  495TIP3    H123120   5.330   6.341   6.265 -2.1283  1.2680 -1.4340
  495TIP3    H223121   5.210   6.286   6.339 -1.6752  2.4308  0.2254
  496TIP3   OH223122   0.771   2.026   0.313  0.1183 -0.0020 -0.1091
  496TIP3    H123123   0.746   1.936   0.330  1.5258 -0.3069  0.4493
  496TIP3    H223124   0.724   2.050   0.233  0.2840 -1.4538 -0.6551
  497TIP3   OH223125   1.343   3.568   8.447  0.2005 -0.9335  0.1496
  497TIP3    H123126   1.313   3.490   8.495  2.1920 -1.0488  1.3401
  497TIP3    H223127   1.399   3.532   8.378  1.2623 -0.5913  0.8085
  498TIP3   OH223128   2.358   3.635   8.636 -0.5167  0.3636  0.3479
  498TIP3    H123129   2.439   3.668   8.596 -0.7642  0.5038 -0.0348
  498TIP3    H223130   2.371   3.540   8.641 -0.2580  0.4020  0.4500
  499TIP3   OH223131   3.916   5.172   7.101  0.4736  0.6741  0.6265
  499TIP3    H123132   3.891   5.119   7.026  1.1239 -1.1114  1.6275
  499TIP3    H223133   3.987   5.228   7.069  0.9673 -0.2964 -0.0071
  500TIP3   OH223134   1.117   6.655   1.998 -0.1460 -0.4119 -0.0569
  500TIP3    H123135   1.060   6.695   2.064  1.4179 -1.2923  1.9540
  500TIP3    H223136   1.160   6.583   2.045  1.0313 -1.0952 -2.0786
  501TIP3   OH223137   0.065   5.736   3.188 -0.1976  0.7001 -0.0793
  501TIP3    H123138   0.014   5.815   3.203 -2.0911 -0.3527 -0.5900
  501TIP3    H223139   0.041   5.708   3.100  0.4243 -0.4255  0.0829
  502TIP3   OH223140   6.047   5.771   2.704 -0.1336  0.2250 -0.4247
  502TIP3    H123141   6.071   5.799   2.792 -0.6273 -0.5652 -0.0265
  502TIP3    H223142   6.008   5.685   2.716  0.8272 -0.3896 -1.5528
  503TIP3   OH223143   4.512   5.234   7.482 -0.1674  0.0238 -0.1717
  503TIP3    H123144   4.515   5.139   7.499 -1.5602 -0.2395 -1.1557
  503TIP3    H223145   4.523   5.274   7.568 -0.1278 -1.0433  0.3440
  504TIP3   OH223146   5.202   5.400   1.347  0.4479  0.2741 -0.5334
  504TIP3    H123147   5.217   5.488   1.313 -1.3004  0.1920 -1.6291
  504TIP3    H223148   5.162   5.414   1.433 -1.8542  0.6533 -1.5939
  505TIP3   OH223149   2.254   1.484   1.395 -0.2908  0.3913  0.5349
  505TIP3    H123150   2.224   1.394   1.380 -1.7519  0.9912 -0.3784
  505TIP3    H223151   2.322   1.498   1.329 -1.2663  0.4874 -0.4772
  506TIP3   OH223152   0.247   3.840   7.571 -0.0520 -0.2413 -0.3690
  506TIP3    H123153   0.172   3.781   7.577 -0.1451 -0.2682 -1.5573
  506TIP3    H223154   0.260   3.853   7.477  1.0392  0.2667 -0.1657
  507TIP3   OH223155   1.629   4.655   0.412  0.4435  0.2521 -0.2914
  507TIP3    H123156   1.563   4.713   0.450 -1.7939 -1.3020 -1.5739
  507TIP3    H223157   1.599   4.641   0.322  1.7865 -1.6213 -0.4987
  508TIP3   OH223158   2.453   0.018   2.605  0.2975  0.2230 -0.7557
  508TIP3    H123159   2.517  -0.052   2.590  0.7498  1.0323 -2.9426
  508TIP3    H223160   2.369  -0.026   2.601  0.6000 -0.3072 -1.6063
  509TIP3   OH223161   1.608   2.953   7.607  0.6604  0.0661 -0.0450
  509TIP3    H123162   1.577   3.043   7.601  1.6276  0.4399  0.2563
  509TIP3    H223163   1.682   2.957   7.669  1.8006 -0.6283 -1.3000
  510TIP3   OH223164   5.989   0.626   6.279 -0.0005  0.0486 -0.0299
  510TIP3    H123165   5.980   0.714   6.316 -2.1189  0.5622 -1.5266
  510TIP3    H223166   5.932   0.572   6.333 -0.0314 -0.0283 -0.1383
  511TIP3   OH223167   4.439   3.770   8.593  0.7901  0.5290 -0.2430
  511TIP3    H123168   4.353   3.782   8.633  1.1713  0.7996  0.5094
  511TIP3    H223169   4.420   3.752   8.500 -0.0889  0.1110  0.0089
  512TIP3   OH223170   3.335   0.569   2.107 -0.2326  0.5667 -0.5240
  512TIP3    H123171   3.247   0.604   2.120  0.6145  2.3373  0.8565
  512TIP3    H223172   3.380   0.636   2.055  0.2716 -0.4046 -1.3742
  513TIP3   OH223173   3.435   2.557   2.108 -0.1867  0.0815 -0.8581
  513TIP3    H123174   3.449   2.464   2.127 -1.1005  0.2435  0.8232
  513TIP3    H223175   3.523   2.594   2.101  0.2285 -0.4722  0.9722
  514TIP3   OH223176   5.833   5.800   7.909 -0.3297 -0.3340 -0.2626
  514TIP3    H123177   5.763   5.741   7.879  0.0370  0.0246 -1.9576
  514TIP3    H223178   5.805   5.887   7.878 -0.1249  0.1625  0.8829
  515TIP3   OH223179   2.272   6.071   8.051  0.1247  0.1935  0.2571
  515TIP3    H123180   2.190   6.119   8.046  0.5765  1.0063  0.5092
  515TIP3    H223181   2.246   5.979   8.052 -0.7939  0.4471  0.5605
  516TIP3   OH223182   0.539   1.696   7.590  0.1890  0.2883  0.8206
  516TIP3    H123183   0.577   1.611   7.567 -0.8192  0.1439 -0.4178
  516TIP3    H223184   0.594   1.760   7.545 -0.9993  0.0762 -1.0503
  517TIP3   OH223185   0.111   4.409   0.961  0.1216 -0.4105 -0.0054
  517TIP3    H123186   0.123   4.333   1.017 -0.1888 -0.5729 -0.1541
  517TIP3    H223187   0.133   4.377   0.873  0.5414 -0.1764  0.0120
  518TIP3   OH223188   3.743   0.517   0.067 -0.6459 -0.1392 -0.5023
  518TIP3    H123189   3.708   0.573   0.137  0.7229 -1.0477  0.9905
  518TIP3    H223190   3.788   0.578   0.008 -0.6908  0.5324  0.1362
  519TIP3   OH223191   5.170   0.325   7.875  0.1639  0.6144  0.0431
  519TIP3    H123192   5.088   0.363   7.908  0.5487 -0.1770  2.0597
  519TIP3    H223193   5.234   0.395   7.882 -0.0780  0.8889 -0.4397
  520TIP3   OH223194   4.311   3.519   2.403 -0.4465  0.2379  0.1962
  520TIP3    H123195   4.307   3.547   2.495  1.0666  0.9416  0.0803
  520TIP3    H223196   4.242   3.570   2.360  0.8097  2.2179  0.4055
  521TIP3   OH223197   1.569   5.215   0.226  0.9761  0.1176 -0.5037
  521TIP3    H123198   1.631   5.235   0.156  0.3802 -1.0243 -1.3871
  521TIP3    H223199   1.567   5.120   0.230  0.8828  0.1603  0.9827
  522TIP3   OH223200   1.492   0.303   7.487  0.3258 -0.6010 -0.3951
  522TIP3    H123201   1.570   0.249   7.475  0.9085  0.0796  0.3026
  522TIP3    H223202   1.422   0.239   7.503  1.5024 -1.1876  3.4716
  523TIP3   OH223203   6.855   0.483   7.202  0.5644  0.1966  0.2237
  523TIP3    H123204   6.933   0.442   7.165  0.9069  0.1778  0.9598
  523TIP3    H223205   6.800   0.501   7.126  1.8548  1.4287 -0.4630
  524TIP3   OH223206   6.341   1.742   2.295  0.1265 -0.7594  0.0862
  524TIP3    H123207   6.363   1.683   2.222  0.0824 -1.2120  0.4349
  524TIP3    H223208   6.291   1.688   2.355  1.4999 -0.8229  1.2077
  525TIP3   OH223209   5.934   5.676   0.302  0.8616 -0.0439  0.1897
  525TIP3    H123210   5.872   5.604   0.310  1.2789 -0.3939  0.3557
  525TIP3    H223211   5.880   5.755   0.294  0.4126 -0.2160  1.4305
  526TIP3   OH223212   0.711   4.192   1.353  0.5534 -0.1568  0.6307
  526TIP3    H123213   0.625   4.161   1.382  0.1555  0.6085  0.3060
  526TIP3    H223214   0.707   4.186   1.257  0.0831  1.8082  0.4920
  527TIP3   OH223215   3.448   2.519   8.275  0.2354 -0.2465  0.3320
  527TIP3    H123216   3.444   2.592   8.213  0.6289 -1.7027 -1.5146
  527TIP3    H223217   3.389   2.453   8.238  3.1712 -2.6076 -0.5972
  528TIP3   OH223218   5.748   4.543   7.044  0.3650  0.0094  0.2808
  528TIP3    H123219   5.753   4.448   7.035 -0.4788 -0.0990  0.8224
  528TIP3    H223220   5.661   4.565   7.010  0.4363  0.5525  0.4397
  529TIP3   OH223221   2.540   3.024   8.037  0.1326  0.5122  0.0722
  529TIP3    H123222   2.470   3.081   8.005  0.6001  0.0805 -1.8733
  529TIP3    H223223   2.570   3.066   8.117 -3.6988 -0.3652  2.2286
  530TIP3   OH223224   1.400   4.012   1.847  0.8012 -0.2871 -0.0228
  530TIP3    H123225   1.325   3.952   1.850 -0.2954  1.0427 -0.1115
  530TIP3    H223226   1.462   3.976   1.911 -1.6705  0.8511  3.2769
  531TIP3   OH223227   0.637   6.425   0.693 -0.4066 -0.0423 -0.0177
  531TIP3    H123228   0.701   6.404   0.761  0.4306  0.1279 -0.7387
  531TIP3    H223229   0.631   6.520   0.693 -1.2217 -0.0901  0.5513
  532TIP3   OH223230   2.756   4.234   0.870 -0.4959 -0.4872  0.0802
  532TIP3    H123231   2.844   4.268   0.885 -0.6848 -0.2954  0.7496
  532TIP3    H223232   2.699   4.310   0.880 -0.9035 -0.9504  1.3876
  533TIP3   OH223233   5.353   2.945   8.488 -0.0667 -0.4211  0.5737
  533TIP3    H123234   5.342   2.914   8.578  0.2152  0.2215  0.8308
  533TIP3    H223235   5.274   2.914   8.443 -1.1596  0.8552  1.4933
  534TIP3   OH223236   2.647   4.959   8.673  0.4066 -0.4954  0.4513
  534TIP3    H123237   2.675   4.949   8.582 -1.6814  0.3267 -0.3296
  534TIP3    H223238   2.721   5.002   8.716  1.0220  0.0717 -1.1008
  535TIP3   OH223239   0.175   4.817   7.492 -0.1902 -0.3034  0.1970
  535TIP3    H123240   0.172   4.760   7.568  1.3525  0.0199  0.5270
  535TIP3    H223241   0.165   4.757   7.417  0.1971 -0.8692  0.5871
  536TIP3   OH223242   1.702   6.315   0.471  0.0734 -0.1242  0.0611
  536TIP3    H123243   1.640   6.258   0.426  1.4017  0.1152 -2.2703
  536TIP3    H223244   1.763   6.343   0.402  2.2249  0.3709  2.0287
  537TIP3   OH223245   2.565   3.909   1.591 -0.0463 -0.3132  0.1244
  537TIP3    H123246   2.516   3.833   1.622  0.1952 -0.1841  0.8402
  537TIP3    H223247   2.566   3.900   1.495  0.3589 -1.4456  0.2220
  538TIP3   OH223248   0.494   1.635   0.983 -0.0332 -0.3061 -0.1046
  538TIP3    H123249   0.541   1.554   0.999 -0.7211 -0.2579  2.5849
  538TIP3    H223250   0.539   1.700   1.037 -1.7975  0.2161  0.7924
  539TIP3   OH223251   0.917   3.487   1.020  0.2837  0.4885  0.5850
  539TIP3    H123252   0.837   3.435   1.022  0.5506  0.0361 -0.2348
  539TIP3    H223253   0.986   3.425   1.041  0.6674  0.3667 -0.9515
  540TIP3   OH223254   2.958   1.499   1.946  0.4364  0.0544 -0.2574
  540TIP3    H123255   2.921   1.586   1.962 -0.9894 -0.7234  0.9178
  540TIP3    H223256   3.046   1.503   1.983 -0.2156  0.5249  1.3549
  541TIP3   OH223257   4.154   5.660   0.252  0.1604 -0.4246  0.4684
  541TIP3    H123258   4.101   5.697   0.181 -0.6077  0.9043  1.6843
  541TIP3    H223259   4.238   5.705   0.245  0.1981 -0.5354  0.2020
  542TIP3   OH223260   2.787   6.868   0.062 -0.0456  1.1152  0.4942
  542TIP3    H123261   2.823   6.779   0.055 -1.1491  0.5666  1.4789
  542TIP3    H223262   2.864   6.925   0.061  0.7505  0.0830  0.9240
  543TIP3   OH223263   3.479   1.171   8.701 -0.2348 -0.7489 -0.3445
  543TIP3    H123264   3.504   1.091   8.655 -0.6177 -1.2892  0.3845
  543TIP3    H223265   3.455   1.143   8.789  0.8082  0.3109  0.3223
  544TIP3   OH223266   2.079   6.235   7.967 -0.0118 -0.5275 -0.1333
  544TIP3    H123267   2.026   6.286   8.028 -1.7189 -1.0369 -1.1241
  544TIP3    H223268   2.128   6.301   7.918  0.4695 -0.0553  0.9374
  545TIP3   OH223269   0.195   2.496   8.348  0.1437 -0.7504  0.5961
  545TIP3    H123270   0.244   2.531   8.273 -0.2360 -0.2778  0.5646
  545TIP3    H223271   0.105   2.490   8.316 -0.2360  0.5303  1.3661
  546TIP3   OH223272   3.021   4.394   0.948 -0.3765  0.2419  0.6073
  546TIP3    H123273   3.005   4.483   0.917 -0.4499 -0.2266 -0.7748
  546TIP3    H223274   3.106   4.371   0.912  0.0258  0.0410  1.6585
  547TIP3   OH223275   5.327   1.861   7.600 -0.0175 -0.1808  0.0050
  547TIP3    H123276   5.353   1.777   7.561 -0.9670 -0.4365 -0.1186
  547TIP3    H223277   5.340   1.925   7.531  0.1069 -0.3293 -0.1106
  548TIP3   OH223278   0.451   6.451   1.275  0.2030  0.4008 -0.1745
  548TIP3    H123279   0.546   6.456   1.287  0.2122 -1.5971  0.9034
  548TIP3    H223280   0.426   6.369   1.317 -1.9217  0.5619 -1.0395
  549TIP3   OH223281   0.002   3.873   0.543  0.1409 -0.3256 -0.0993
  549TIP3    H123282  -0.047   3.809   0.491  0.1786  0.1697 -0.7615
  549TIP3    H223283  -0.026   3.857   0.633  1.1542 -2.1784 -0.0418
  550TIP3   OH223284   2.239   0.518   6.787 -0.6882 -0.5656  0.0413
  550TIP3    H123285   2.206   0.444   6.735 -0.2299 -1.2462  0.6947
  550TIP3    H223286   2.296   0.477   6.852 -0.4807  0.3695  0.4536
  551TIP3   OH223287   5.643   3.609   1.723  0.2936 -0.2657 -0.6512
  551TIP3    H123288   5.687   3.642   1.802 -1.3615  0.7271 -0.1011
  551TIP3    H223289   5.706   3.623   1.653  2.0477 -1.6977  0.5365
  552TIP3   OH223290   0.055   4.229   8.564 -0.2884  0.4655  0.4318
  552TIP3    H123291   0.136   4.277   8.550  2.3910 -3.6174  0.3136
  552TIP3    H223292   0.050   4.217   8.658  1.1650 -1.9613  0.2890
  553TIP3   OH223293   4.495   2.897   1.289 -0.1566 -0.2159  0.3967
  553TIP3    H123294   4.540   2.970   1.331  0.0620  1.1630 -2.0591
  553TIP3    H223295   4.406   2.901   1.322 -0.0499  0.9597  0.5828
  554TIP3   OH223296   4.249   1.648   1.106 -0.4664  0.0318  0.2294
  554TIP3    H123297   4.280   1.701   1.033 -0.1218 -0.7263 -0.1811
  554TIP3    H223298   4.207   1.711   1.165 -0.3871  0.7048 -0.4205
  555TIP3   OH223299   5.378   2.405   1.226  0.7919 -0.0719  0.2913
  555TIP3    H123300   5.380   2.405   1.322 -0.2638 -2.1488  0.3612
  555TIP3    H223301   5.429   2.328   1.201  0.4505  0.0401 -0.7903
  556TIP3   OH223302   5.860   6.246   1.176 -0.1387 -0.0674 -0.0310
  556TIP3    H123303   5.894   6.180   1.237 -1.4742 -0.0734  0.7474
  556TIP3    H223304   5.835   6.196   1.098 -0.3635 -0.3632  0.2293
  557TIP3   OH223305   6.337   5.810   7.290 -0.5472  0.3805  0.0088
  557TIP3    H123306   6.372   5.891   7.324  1.4581 -0.2002 -0.5630
  557TIP3    H223307   6.294   5.835   7.207 -2.4370  1.2354  1.1726
  558TIP3   OH223308   4.895   0.345   7.735  0.1506  0.0889 -0.1883
  558TIP3    H123309   4.838   0.360   7.659 -0.6397 -1.7466 -0.0100
  558TIP3    H223310   4.984   0.354   7.700 -0.1585 -2.1051 -1.7267
  559TIP3   OH223311   0.831   0.496   1.417  0.2017  1.0417 -0.3401
  559TIP3    H123312   0.916   0.452   1.427  0.2474  0.8734 -1.3266
  559TIP3    H223313   0.810   0.529   1.504  1.5150  1.5176 -0.1950
  560TIP3   OH223314   1.396   1.707   1.011  0.8536  0.6380  0.7238
  560TIP3    H123315   1.339   1.631   1.004  1.4803  0.1877  0.4845
  560TIP3    H223316   1.365   1.766   0.942  1.2244  0.0272  0.0183
  561TIP3   OH223317   5.500   5.083   7.372 -0.0028 -0.4673 -0.1273
  561TIP3    H123318   5.419   5.111   7.330 -1.2162 -3.0200  0.3346
  561TIP3    H223319   5.501   5.131   7.455 -0.8479 -0.1179 -0.3040
  562TIP3   OH223320   0.801   5.645   1.254  0.4933 -0.1205  0.2288
  562TIP3    H123321   0.730   5.656   1.190  1.8902  1.5816 -1.1003
  562TIP3    H223322   0.766   5.684   1.334 -0.4005 -0.0937 -0.1551
  563TIP3   OH223323   6.256   0.895   8.507 -0.8340  0.2564 -0.3038
  563TIP3    H123324   6.180   0.919   8.560 -0.1074 -0.3878  1.0872
  563TIP3    H223325   6.276   0.805   8.535 -0.7566 -0.3204 -2.0935
  564TIP3   OH223326   5.657   0.025   8.503  0.4024 -0.1567  0.3944
  564TIP3    H123327   5.693   0.082   8.435  0.0238 -1.2552 -0.7808
  564TIP3    H223328   5.573  -0.005   8.468  1.5871 -3.2614 -0.1782
  565TIP3   OH223329   4.482   6.787   6.345 -0.1490  0.0177  0.3382
  565TIP3    H123330   4.473   6.717   6.281 -1.7259  0.8496 -0.3986
  565TIP3    H223331   4.554   6.759   6.401  0.0577 -1.5982 -0.6781
  566TIP3   OH223332   6.270   3.560   1.273 -0.0310  0.3273 -0.2361
  566TIP3    H123333   6.330   3.562   1.347  0.7006 -0.1984 -0.7890
  566TIP3    H223334   6.191   3.518   1.306 -0.8130  2.6089  0.9855
  567TIP3   OH223335   3.459   1.004   1.080  0.4141 -0.0206  0.2215
  567TIP3    H123336   3.375   1.050   1.087 -0.5436 -1.6241 -0.2794
  567TIP3    H223337   3.521   1.061   1.125 -0.8398  1.4468  0.1786
  568TIP3   OH223338   4.884   2.032   0.137 -0.2622  0.0703 -0.1206
  568TIP3    H123339   4.800   2.077   0.152 -0.6896 -0.7642  0.0923
  568TIP3    H223340   4.950   2.097   0.159 -0.8659  0.4611  0.6156
  569TIP3   OH223341   2.621   5.704   7.167 -0.0424  0.3582 -0.3719
  569TIP3    H123342   2.591   5.613   7.173 -1.9661  0.8792 -1.2460
  569TIP3    H223343   2.677   5.706   7.090  0.8744 -0.2934  0.2663
  570TIP3   OH223344   4.341   4.459   0.585 -0.0671  0.5716  0.6156
  570TIP3    H123345   4.305   4.477   0.498 -0.2312 -1.7917  0.1092
  570TIP3    H223346   4.389   4.377   0.573  0.3493  0.4873  2.6506
  571TIP3   OH223347   1.745   5.226   0.451  0.2478  0.8912  0.2892
  571TIP3    H123348   1.692   5.234   0.372 -1.0678 -1.2394  0.8510
  571TIP3    H223349   1.809   5.158   0.431 -0.2462  0.1636  1.0736
  572TIP3   OH223350   3.163   4.509   8.189 -0.1208 -0.6868 -0.5121
  572TIP3    H123351   3.126   4.441   8.133 -0.1431 -0.5989 -0.6048
  572TIP3    H223352   3.098   4.521   8.258 -1.1332  0.7422 -1.6522
  573TIP3   OH223353   2.349   2.863   7.932 -0.8026  0.3736  0.2199
  573TIP3    H123354   2.296   2.815   7.995 -0.1275 -2.0276 -0.9298
  573TIP3    H223355   2.419   2.902   7.985  0.7467 -3.0014  0.9031
  574TIP3   OH223356   1.342   3.524   1.933 -0.2713 -0.3062 -0.5447
  574TIP3    H123357   1.250   3.538   1.954 -0.4961 -1.2235 -0.9038
  574TIP3    H223358   1.349   3.431   1.915  0.9691 -0.4822  0.6695
  575TIP3   OH223359   1.389   2.843   1.481  0.1419 -0.0901  0.6504
  575TIP3    H123360   1.449   2.883   1.419  0.2349  0.8610  1.3335
  575TIP3    H223361   1.305   2.838   1.434 -0.0353  1.5240  0.7599
  576TIP3   OH223362   6.078   6.766   1.145  0.2258 -0.1561  0.7499
  576TIP3    H123363   6.109   6.773   1.054  0.7697  0.9523  1.0035
  576TIP3    H223364   6.004   6.706   1.140 -0.0500  0.2545 -0.5057
  577TIP3   OH223365   1.483   1.751   7.777 -0.0670 -0.8910 -0.5894
  577TIP3    H123366   1.533   1.820   7.822  0.0133 -0.8812 -0.6936
  577TIP3    H223367   1.424   1.716   7.844  1.6833 -2.4956  0.1859
  578TIP3   OH223368   6.594   1.271   2.091  0.4102 -0.0202  0.0571
  578TIP3    H123369   6.667   1.301   2.037 -1.8905  1.0902 -2.7396
  578TIP3    H223370   6.559   1.351   2.130  0.3596 -0.4610  0.9324
  579TIP3   OH223371   4.572   6.054   8.600  0.1311 -0.4358  0.0696
  579TIP3    H123372   4.644   6.008   8.643  1.5186 -0.1056 -1.7756
  579TIP3    H223373   4.536   5.991   8.538 -0.5272 -0.2801  0.2879
  580TIP3   OH223374   6.146   1.198   7.900  0.1890 -0.2433 -0.3526
  580TIP3    H123375   6.182   1.260   7.963 -0.3815  0.6912 -0.8999
  580TIP3    H223376   6.109   1.254   7.831 -2.0807 -1.1108  0.0656
  581TIP3   OH223377   3.118   2.273   0.401  0.1769 -0.0871  0.4231
  581TIP3    H123378   3.116   2.268   0.306 -1.6187  2.6279  0.2144
  581TIP3    H223379   3.049   2.214   0.430 -1.6761  1.6313 -0.2431
  582TIP3   OH223380   2.169   4.696   8.091 -0.2762 -0.0320  0.3755
  582TIP3    H123381   2.223   4.656   8.023 -1.9756 -2.3255  0.2226
  582TIP3    H223382   2.084   4.709   8.049 -1.0223 -0.4372  1.7085
  583TIP3   OH223383   3.856   6.122   8.182  0.4154  1.1544 -0.5852
  583TIP3    H123384   3.813   6.187   8.127  0.1078  2.0571  0.6866
  583TIP3    H223385   3.854   6.042   8.130  0.9171  2.1748 -2.2324
  584TIP3   OH223386   6.518   0.386   8.554 -0.2664 -0.1352  0.2954
  584TIP3    H123387   6.493   0.361   8.465  0.3890  0.6654 -0.1301
  584TIP3    H223388   6.455   0.453   8.579 -1.3226 -1.3282  1.0029
  585TIP3   OH223389   5.048   5.904   0.141 -0.4067  0.4513 -0.3413
  585TIP3    H123390   4.966   5.919   0.095  0.5855  1.4377 -1.8531
  585TIP3    H223391   5.100   5.983   0.126  0.1234  0.6962  2.2154
  586TIP3   OH223392   3.319   3.763   1.833  0.2070 -0.3274  0.2848
  586TIP3    H123393   3.278   3.677   1.833  2.4524 -1.4876  0.7252
  586TIP3    H223394   3.360   3.771   1.747 -1.1330  0.9471 -0.2770
  587TIP3   OH223395   4.865   1.698   7.622  0.5975  0.3191 -0.4707
  587TIP3    H123396   4.927   1.761   7.659 -1.6224  1.6325  1.2987
  587TIP3    H223397   4.813   1.750   7.561 -1.1366  0.2447  0.8573
  588TIP3   OH223398   3.969   2.293   7.764 -0.5756 -0.4772 -0.5119
  588TIP3    H123399   4.033   2.329   7.826 -0.6794 -0.5394 -0.3680
  588TIP3    H223400   3.921   2.370   7.732 -1.0024 -0.5104  0.0248
  589TIP3   OH223401   0.165   1.780   1.924  0.2822 -0.2892 -0.5661
  589TIP3    H123402   0.233   1.802   1.988 -0.8277 -2.9802  1.7563
  589TIP3    H223403   0.128   1.865   1.899  2.1292  1.0083  0.7849
  590TIP3   OH223404   4.798   3.370   1.823  0.1557 -0.1477 -0.2305
  590TIP3    H123405   4.860   3.369   1.896  0.9012  1.1903 -0.8052
  590TIP3    H223406   4.853   3.363   1.745 -0.5069 -0.0060 -0.7172
  591TIP3   OH223407   3.456   0.674   1.147  0.0535 -0.2083 -0.1780
  591TIP3    H123408   3.485   0.597   1.098  0.5956  0.6693 -1.2706
  591TIP3    H223409   3.427   0.736   1.080  0.5974  0.9404  0.6080
  592TIP3   OH223410   4.418   5.410   0.996  0.1019  0.4267  0.4817
  592TIP3    H123411   4.499   5.455   0.974 -0.2583  1.2841  0.8738
  592TIP3    H223412   4.442   5.349   1.066  0.4638  0.4707  0.3933
  593TIP3   OH223413   5.707   6.288   7.098  0.2026  0.0188 -0.2286
  593TIP3    H123414   5.731   6.333   7.017 -1.8318  0.5915 -0.5893
  593TIP3    H223415   5.640   6.344   7.137  0.2575 -0.8752  1.2298
  594TIP3   OH223416   4.369   1.979   8.261  0.3848 -0.6339 -0.3060
  594TIP3    H123417   4.361   2.031   8.181 -0.3220 -0.3167 -0.0467
  594TIP3    H223418   4.452   1.933   8.252  0.4843 -0.3289 -1.0588
  595TIP3   OH223419   5.191   0.793   0.824 -0.0843 -0.4636 -0.3136
  595TIP3    H123420   5.105   0.781   0.864 -0.6961  0.6542 -1.2191
  595TIP3    H223421   5.235   0.858   0.878 -0.7502  0.7326 -1.1447
  596TIP3   OH223422   4.188   1.046   6.665 -0.0963  0.2133  0.9086
  596TIP3    H123423   4.278   1.044   6.632 -0.9424 -0.1720 -1.6210
  596TIP3    H223424   4.145   1.114   6.612 -1.5180 -0.2419  1.4389
  597TIP3   OH223425   5.231   2.692   2.134 -0.0686  0.3049 -0.0635
  597TIP3    H123426   5.234   2.690   2.230  0.4027 -0.6425 -0.0922
  597TIP3    H223427   5.161   2.754   2.114 -0.0167  0.6918  0.8903
  598TIP3   OH223428   0.455   3.096   1.453 -0.4421 -0.8501  0.7707
  598TIP3    H123429   0.537   3.095   1.404 -1.1413 -0.0589 -0.4637
  598TIP3    H223430   0.479   3.063   1.540  1.4502  0.6418  0.8811
  599TIP3   OH223431   1.113   4.450   0.081  0.5663 -0.5339 -0.0751
  599TIP3    H123432   1.056   4.445   0.004 -0.9926  1.1365  0.8900
  599TIP3    H223433   1.094   4.371   0.131 -1.3849  0.2472  0.4970
  600TIP3   OH223434   4.722   6.456   2.093  0.9106 -0.5958  0.1840
  600TIP3    H123435   4.684   6.488   2.174 -0.9830 -0.8633 -0.5419
  600TIP3    H223436   4.780   6.384   2.120  1.1485  0.0141  1.3556
  601TIP3   OH223437   0.165   1.568   8.707 -0.5009 -0.1522  0.3647
  601TIP3    H123438   0.200   1.489   8.749 -0.4029 -0.7000 -0.7262
  601TIP3    H223439   0.133   1.539   8.622 -2.7355  0.5253  0.8974
  602TIP3   OH223440   0.909   6.727   7.024  0.3293  0.7060 -0.1608
  602TIP3    H123441   0.929   6.693   6.937  0.9447  0.0619  0.2147
  602TIP3    H223442   0.995   6.752   7.060  0.4063 -1.1267  1.0874
  603TIP3   OH223443   2.885   2.911   1.608 -0.1193  0.4986  0.1612
  603TIP3    H123444   2.949   2.952   1.666 -0.2236 -0.5552  1.0605
  603TIP3    H223445   2.914   2.820   1.600 -0.6837  0.3730 -0.6231
  604TIP3   OH223446   3.579   0.215   8.568 -0.0702 -0.4056  0.2835
  604TIP3    H123447   3.507   0.172   8.613 -0.5032 -0.1828 -0.1799
  604TIP3    H223448   3.563   0.198   8.475  0.8081 -0.8603  0.2019
  605TIP3   OH223449   1.678   6.276   1.786 -0.6154 -0.5263 -0.9564
  605TIP3    H123450   1.736   6.303   1.857 -0.9160  0.6076 -1.1180
  605TIP3    H223451   1.602   6.334   1.793  0.2999  1.1746 -3.4963
  606TIP3   OH223452   2.081   4.541   8.336  0.1128 -0.4231  0.2392
  606TIP3    H123453   2.130   4.569   8.259 -0.9347 -1.0933 -0.7078
  606TIP3    H223454   2.004   4.599   8.338 -1.7714 -2.6540 -1.4041
  607TIP3   OH223455   4.375   2.904   0.017 -0.1371 -0.3842 -0.2598
  607TIP3    H123456   4.375   2.818   0.060 -0.5156 -0.0415  0.4433
  607TIP3    H223457   4.294   2.905  -0.035 -0.0567 -0.5121 -0.3876
  608TIP3   OH223458   5.241   4.638   7.172 -0.1494 -1.0369  0.5551
  608TIP3    H123459   5.236   4.733   7.166  2.2318 -0.9229 -2.4202
  608TIP3    H223460   5.332   4.621   7.197  0.4965 -2.4287 -2.3241
  609TIP3   OH223461   6.439   0.769   0.995 -0.1409  0.2718 -0.0118
  609TIP3    H123462   6.499   0.733   1.061 -0.4961 -0.3333 -0.0133
  609TIP3    H223463   6.445   0.709   0.921  0.7425  1.3022 -0.8093
  610TIP3   OH223464   6.594   2.455   0.987 -0.3469 -0.7081 -0.2153
  610TIP3    H123465   6.539   2.533   0.997  0.3036 -0.2997  0.2855
  610TIP3    H223466   6.534   2.387   0.958 -0.6060  0.4770 -2.8000
  611TIP3   OH223467   0.755   5.569   1.597  0.1273  0.2075  0.0037
  611TIP3    H123468   0.693   5.524   1.540 -1.3285  0.4524  1.3204
  611TIP3    H223469   0.765   5.656   1.558 -0.3627  0.1582 -0.2392
  612TIP3   OH223470   3.522   1.138   7.005 -0.5788 -0.2940  0.3004
  612TIP3    H123471   3.601   1.149   7.059 -0.8595  0.1085  0.6263
  612TIP3    H223472   3.536   1.054   6.960  0.2940  0.0405 -0.0772
  613TIP3   OH223473   5.705   0.721   6.457  1.0093 -0.0258  0.1191
  613TIP3    H123474   5.743   0.805   6.431 -1.7042  2.6820  3.8590
  613TIP3    H223475   5.772   0.680   6.512  0.6983  2.0496  2.1544
  614TIP3   OH223476   1.480   0.477   1.136 -0.7786  0.4725 -0.0603
  614TIP3    H123477   1.451   0.532   1.063  2.0238  0.6472 -1.1615
  614TIP3    H223478   1.453   0.389   1.112 -2.9451  0.9554  0.4291
  615TIP3   OH223479   2.872   5.640   0.687 -0.0310 -0.2422 -0.1809
  615TIP3    H123480   2.949   5.627   0.741  1.4678  3.1088 -1.2328
  615TIP3    H223481   2.884   5.581   0.613  1.3428 -0.0806 -0.1061
  616TIP3   OH223482   2.862   3.479   0.024  0.0273  0.3342  0.1125
  616TIP3    H123483   2.800   3.545  -0.008  0.5209  1.2735  1.0286
  616TIP3    H223484   2.938   3.488  -0.033  0.8620  1.9305  1.3979
  617TIP3   OH223485   1.486   4.945   7.384  0.3663 -0.0876  0.0959
  617TIP3    H123486   1.398   4.908   7.390 -0.6301  2.0471 -0.2472
  617TIP3    H223487   1.488   4.987   7.298  1.6960 -0.0003  0.1529
  618TIP3   OH223488   4.965   4.067   1.769 -0.2173  0.4914  0.5456
  618TIP3    H123489   4.886   4.024   1.802 -1.3743 -0.1515 -2.6886
  618TIP3    H223490   4.947   4.160   1.777 -1.1394  0.3461  0.3184
  619TIP3   OH223491   0.461   2.701   2.301 -0.8480  0.6071  0.1932
  619TIP3    H123492   0.458   2.732   2.392 -0.5570  1.8462 -0.2005
  619TIP3    H223493   0.548   2.727   2.271 -0.3115 -1.2542  0.0438
  620TIP3   OH223494   4.927   6.443   7.582 -0.1023  0.6804  0.0262
  620TIP3    H123495   4.865   6.490   7.637 -0.3835 -1.4340  1.6712
  620TIP3    H223496   5.008   6.493   7.588 -0.2443  0.7259  2.1200
  621TIP3   OH223497   6.367   0.608   8.322 -0.1430  0.4395 -0.5063
  621TIP3    H123498   6.332   0.624   8.410 -0.5109 -0.1008 -0.5454
  621TIP3    H223499   6.387   0.695   8.288 -0.4905  0.6906 -0.0867
  622TIP3   OH223500   5.201   1.203   1.176 -0.2879 -0.0899  0.2166
  622TIP3    H123501   5.209   1.273   1.111 -0.1857 -0.7476 -0.4895
  622TIP3    H223502   5.232   1.124   1.131  1.9767 -0.1932  1.7393
  623TIP3   OH223503   6.383   6.441   1.682 -0.0339 -0.0319 -0.1595
  623TIP3    H123504   6.436   6.511   1.719 -0.6230  0.0317  0.6051
  623TIP3    H223505   6.316   6.486   1.630  1.4123 -0.1501 -2.2509
  624TIP3   OH223506   1.051   1.472   2.235 -0.4325 -0.0628  0.4358
  624TIP3    H123507   1.133   1.426   2.218 -0.1729 -0.1565  1.8172
  624TIP3    H223508   1.045   1.476   2.331 -2.7097 -1.2692  0.4153
  625TIP3   OH223509   5.005   0.340   1.984 -0.1170  0.2173  0.1355
  625TIP3    H123510   5.034   0.333   1.894  0.4731 -0.3288  0.3584
  625TIP3    H223511   4.925   0.287   1.988  0.0942 -0.1135  0.0309
  626TIP3   OH223512   2.939   5.265   1.314 -0.0516  0.3517 -0.2228
  626TIP3    H123513   2.911   5.255   1.223  1.1015 -0.8178 -0.4778
  626TIP3    H223514   3.000   5.193   1.328  0.1573  0.8050  1.3411
  627TIP3   OH223515   4.880   2.684   7.228  0.0294 -0.1716  0.5959
  627TIP3    H123516   4.917   2.683   7.316 -1.5387  1.7297  1.3365
  627TIP3    H223517   4.824   2.607   7.225 -1.8950  1.0709  2.2345
  628TIP3   OH223518   6.080   4.156   1.069  0.4026  0.1531  0.3992
  628TIP3    H123519   6.154   4.155   1.130  2.1559 -0.5113 -1.6230
  628TIP3    H223520   6.109   4.211   0.997 -0.4732 -1.2736 -1.1130
  629TIP3   OH223521   4.040   2.836   7.439 -0.0376  0.0374 -0.3288
  629TIP3    H123522   4.048   2.823   7.345  0.2192 -1.6775 -0.1111
  629TIP3    H223523   3.948   2.816   7.459  0.1104 -0.4747 -0.1220
  630TIP3   OH223524   0.122   4.321   2.059 -0.1862  0.1996 -0.1211
  630TIP3    H123525   0.039   4.337   2.013  0.7738 -1.1250 -2.5176
  630TIP3    H223526   0.134   4.226   2.053  0.0917 -0.0490  2.8897
  631TIP3   OH223527   3.196   1.635   2.751  0.2729 -0.0689 -0.2246
  631TIP3    H123528   3.272   1.628   2.694  1.6148 -1.0662  1.5855
  631TIP3    H223529   3.173   1.545   2.773 -1.4180  0.2129 -0.6560
  632TIP3   OH223530   6.419   1.307   2.389  0.3116 -0.1283  0.1826
  632TIP3    H123531   6.367   1.325   2.467 -0.6664 -0.4005 -0.3969
  632TIP3    H223532   6.509   1.302   2.422 -0.0878 -0.3371  1.3079
  633TIP3   OH223533   1.676   2.771   8.597  0.4062 -0.7100  0.4518
  633TIP3    H123534   1.672   2.723   8.679 -0.5739 -0.5428  0.5085
  633TIP3    H223535   1.658   2.705   8.530 -0.8534 -0.4579  0.5240
  634TIP3   OH223536   2.985   0.464   2.302 -0.1040  0.1101 -0.2217
  634TIP3    H123537   2.977   0.555   2.273 -0.8414 -0.2275 -1.1260
  634TIP3    H223538   2.895   0.435   2.316  0.1855 -0.0920  1.3654
  635TIP3   OH223539   6.549   1.357   0.711  0.4726 -0.2718  0.2242
  635TIP3    H123540   6.474   1.402   0.749  0.0984  0.6930 -1.5368
  635TIP3    H223541   6.604   1.426   0.676  1.2887 -1.0474 -0.0713
  636TIP3   OH223542   4.985   2.181   7.636 -0.2054  0.1270 -0.5879
  636TIP3    H123543   5.064   2.235   7.634 -0.2253  0.1562 -2.6180
  636TIP3    H223544   4.956   2.184   7.727  2.8340 -0.9576  0.5346
  637TIP3   OH223545   2.199   4.024   7.044 -0.1375  0.2076  0.0833
  637TIP3    H123546   2.124   4.019   6.985 -1.4165 -0.8777  1.6929
  637TIP3    H223547   2.195   4.112   7.081  0.0856  0.5497 -0.6951
  638TIP3   OH223548   3.321   5.523   1.641  0.3414 -0.2128 -0.4444
  638TIP3    H123549   3.358   5.559   1.560  0.2604 -1.2853 -0.9694
  638TIP3    H223550   3.383   5.548   1.709  1.2282 -0.6339 -1.0807
  639TIP3   OH223551   4.486   5.717   2.213 -0.3947 -0.3913 -0.1556
  639TIP3    H123552   4.491   5.741   2.305  3.5141 -4.0231  0.9136
  639TIP3    H223553   4.551   5.773   2.170  0.6629 -1.3676  0.1383
  640TIP3   OH223554   3.301   3.570   2.307  0.0533 -0.0199 -0.6254
  640TIP3    H123555   3.353   3.489   2.314 -0.0439 -0.0339 -0.0080
  640TIP3    H223556   3.212   3.540   2.292  0.2812  0.0125 -2.1888
  641TIP3   OH223557   6.225   2.004   7.555  0.2897  0.2518 -0.3130
  641TIP3    H123558   6.176   2.065   7.501 -1.6912 -1.0760 -0.0944
  641TIP3    H223559   6.279   1.955   7.494  0.5482  0.9768 -0.6808
  642TIP3   OH223560   2.332   4.064   8.018 -0.6595  0.1667 -0.2615
  642TIP3    H123561   2.396   4.135   8.013 -0.7398  0.5167  2.4161
  642TIP3    H223562   2.267   4.087   7.951 -0.2609  2.2075 -0.0264
  643TIP3   OH223563   5.940   4.465   7.744  0.2891  0.1442  0.2816
  643TIP3    H123564   5.947   4.502   7.833  0.0361 -0.9430  0.7696
  643TIP3    H223565   6.005   4.396   7.742 -1.8444 -2.0245  0.7655
  644TIP3   OH223566   0.811   2.811   2.572 -0.2634  0.2934  0.4146
  644TIP3    H123567   0.751   2.885   2.565  0.4210  0.6775 -2.1299
  644TIP3    H223568   0.891   2.849   2.610 -0.3871  0.5739  0.3998
  645TIP3   OH223569   1.643   5.624   8.425 -0.2512  0.0059  0.7813
  645TIP3    H123570   1.703   5.574   8.369  1.2080  2.6595 -0.2117
  645TIP3    H223571   1.677   5.611   8.513  0.7587  0.0977  0.4218
  646TIP3   OH223572   4.570   2.074   8.014  0.8090  0.5596 -0.4292
  646TIP3    H123573   4.550   2.137   8.084  1.5656 -0.0126  0.3249
  646TIP3    H223574   4.515   2.101   7.941  0.4873  1.5756  0.1702
  647TIP3   OH223575   0.933   6.345   0.266  0.5793  0.2340 -0.1525
  647TIP3    H123576   0.988   6.330   0.344 -0.3311  0.1929  0.4935
  647TIP3    H223577   0.933   6.440   0.255 -0.8729  0.4124  1.0919
  648TIP3   OH223578   4.959   6.647   6.862  0.2991  0.7439  0.1995
  648TIP3    H123579   5.001   6.612   6.940 -0.3993  0.6761  0.5430
  648TIP3    H223580   4.889   6.703   6.895 -1.7776 -1.3964 -0.3609
  649TIP3   OH223581   1.175   4.927   6.586  0.2842 -0.0147 -0.0775
  649TIP3    H123582   1.170   5.023   6.583 -0.0043 -0.0168  0.2680
  649TIP3    H223583   1.268   4.908   6.575  0.2471  0.2693 -0.9598
  650TIP3   OH223584   0.061   2.855   1.783 -0.1835  0.1422  0.2649
  650TIP3    H123585   0.012   2.774   1.770  0.8925 -0.3967 -0.6511
  650TIP3    H223586   0.144   2.828   1.823  1.6798  0.2138 -3.1103
  651TIP3   OH223587   3.931   3.209   1.127 -0.1122  0.4134  0.7391
  651TIP3    H123588   3.872   3.278   1.097  0.0522  0.4838  0.5703
  651TIP3    H223589   4.013   3.255   1.147  0.4307  0.1152 -0.6335
  652TIP3   OH223590   3.201   6.057   7.090  0.2536  0.4110 -0.0729
  652TIP3    H123591   3.119   6.037   7.136  0.1972  1.7184  0.4483
  652TIP3    H223592   3.173   6.085   7.003  0.0347  1.8349  0.4248
  653TIP3   OH223593   2.038   3.096   1.604  0.1361  0.0450  0.3743
  653TIP3    H123594   2.029   3.177   1.655  0.7046 -0.5225  1.3880
  653TIP3    H223595   2.032   3.125   1.513 -2.2646  0.9300  0.7158
  654TIP3   OH223596   0.508   6.440   0.244  0.2200 -0.1471  0.0898
  654TIP3    H123597   0.542   6.353   0.261  0.1607 -0.4778 -1.3674
  654TIP3    H223598   0.556   6.470   0.167 -1.1822  0.2852 -0.6471
  655TIP3   OH223599   1.820   2.820   7.856 -0.1092  0.2131 -0.1388
  655TIP3    H123600   1.849   2.769   7.780 -1.8750  1.0311 -1.4341
  655TIP3    H223601   1.853   2.771   7.931  0.6355 -1.3161 -1.3936
  656TIP3   OH223602   5.361   1.161   7.419 -0.6593 -0.4591 -0.5530
  656TIP3    H123603   5.363   1.112   7.336 -0.4256 -0.9812 -0.2437
  656TIP3    H223604   5.365   1.093   7.487  0.6827  0.0143 -0.1246
  657TIP3   OH223605   1.438   1.048   1.132 -0.1989 -0.3046 -0.2805
  657TIP3    H123606   1.453   0.959   1.100  1.4963  0.6326 -2.3299
  657TIP3    H223607   1.523   1.091   1.125 -0.7762  1.2575  1.4941
  658TIP3   OH223608   1.962   1.155   6.779 -0.2362 -0.0923  0.5158
  658TIP3    H123609   2.052   1.134   6.806  0.6223  1.2397 -1.1861
  658TIP3    H223610   1.937   1.229   6.835  0.3599  0.6133 -0.1359
  659TIP3   OH223611   3.108   0.470   0.754 -0.1370  0.1820  0.0425
  659TIP3    H123612   3.191   0.465   0.802 -1.2493 -0.2158  2.0784
  659TIP3    H223613   3.112   0.552   0.706  1.5796 -0.0283 -0.2513
  660TIP3   OH223614   5.410   1.300   2.084  0.0942 -0.1985  0.3211
  660TIP3    H123615   5.445   1.253   2.008 -1.6869  0.6381 -1.0998
  660TIP3    H223616   5.434   1.392   2.068  0.4616 -0.1278  1.2358
  661TIP3   OH223617   5.755   3.634   8.472 -0.7896  0.6073  0.3427
  661TIP3    H123618   5.822   3.565   8.476 -0.2136  1.0529 -0.9664
  661TIP3    H223619   5.714   3.632   8.558  0.2866 -0.3080  0.8708
  662TIP3   OH223620   0.666   5.160   0.188 -0.2326 -0.0283  0.5122
  662TIP3    H123621   0.658   5.183   0.096  1.7782 -0.7691  0.1096
  662TIP3    H223622   0.727   5.225   0.224 -1.5778  0.7211  1.5407
  663TIP3   OH223623   0.631   1.212   7.033  1.3468 -0.1345  0.1527
  663TIP3    H123624   0.639   1.116   7.033  1.6844 -0.1202 -0.8824
  663TIP3    H223625   0.706   1.242   6.983 -0.1743  0.5023 -1.8600
  664TIP3   OH223626   6.797   5.259   8.183  0.0860 -0.1177 -0.0133
  664TIP3    H123627   6.775   5.204   8.108  1.6370  0.8240 -1.2157
  664TIP3    H223628   6.862   5.210   8.232  1.3482  0.5100 -0.9968
  665TIP3   OH223629   4.072   6.477   0.231  0.3527 -0.1939 -0.2924
  665TIP3    H123630   4.101   6.437   0.149  0.8365  2.1025 -1.2971
  665TIP3    H223631   4.129   6.438   0.298  0.7611 -1.2088 -1.2024
  666TIP3   OH223632   3.738   6.025   0.427  0.1193 -0.4609  0.2578
  666TIP3    H123633   3.768   6.067   0.508 -1.0715  0.1738  0.3953
  666TIP3    H223634   3.779   6.076   0.357 -1.7342  1.3851  0.4071
  667TIP3   OH223635   1.364   5.756   1.676  0.4233  0.3239 -0.0770
  667TIP3    H123636   1.451   5.718   1.686 -1.1974 -3.5542  1.0770
  667TIP3    H223637   1.362   5.828   1.740  3.4326  2.1930 -1.8625
  668TIP3   OH223638   4.450   6.493   0.610 -0.6205  0.0913  0.3495
  668TIP3    H123639   4.486   6.560   0.666 -2.0655  0.1941  1.2170
  668TIP3    H223640   4.358   6.487   0.636 -0.8786 -1.1735 -0.7260
  669TIP3   OH223641   0.694   6.859   0.231  0.4836  0.2740 -0.2235
  669TIP3    H123642   0.626   6.920   0.202  0.0638 -0.0403  0.0926
  669TIP3    H223643   0.774   6.891   0.189 -0.1945 -0.4992 -2.2202
  670TIP3   OH223644   3.759   1.916   6.776  0.5297  0.2639 -0.4258
  670TIP3    H123645   3.773   1.965   6.857  0.4713  0.0892 -0.3101
  670TIP3    H223646   3.682   1.958   6.736  1.0733  0.9072 -0.8230
  671TIP3   OH223647   5.422   5.980   2.367 -0.1655  0.3716 -0.2102
  671TIP3    H123648   5.353   5.915   2.375 -0.7583  1.2592  3.0446
  671TIP3    H223649   5.388   6.044   2.304 -2.2165  0.6289  1.1037
  672TIP3   OH223650   1.606   1.788   8.399  0.3552  0.2423 -0.2697
  672TIP3    H123651   1.538   1.823   8.341 -0.3832  0.5582  0.7534
  672TIP3    H223652   1.647   1.866   8.437  2.5424  0.1427 -2.1920
  673TIP3   OH223653   6.158   4.947   8.244  0.2892 -0.0319  0.6658
  673TIP3    H123654   6.231   4.913   8.193 -0.5245  1.9428 -2.0475
  673TIP3    H223655   6.181   5.039   8.260 -0.4117 -0.0857  2.1245
  674TIP3   OH223656   6.044   3.178   1.788  0.2373 -0.1234 -0.5432
  674TIP3    H123657   6.062   3.087   1.766  1.4823 -0.0156 -0.0476
  674TIP3    H223658   6.128   3.222   1.780  0.2831  0.3972  2.0053
  675TIP3   OH223659   2.455   4.060   6.814  0.2944 -0.5901 -0.2944
  675TIP3    H123660   2.424   3.969   6.815  0.9440 -0.8192  0.5991
  675TIP3    H223661   2.377   4.112   6.793  0.1275 -1.4082 -1.8398
  676TIP3   OH223662   4.849   4.773   7.255 -0.3284  0.0963  0.1846
  676TIP3    H123663   4.840   4.867   7.243  0.1248  0.0299 -0.7940
  676TIP3    H223664   4.855   4.761   7.349 -0.2637  1.0604  0.3107
  677TIP3   OH223665   2.330   4.963   0.303  0.0787  0.4076  0.1126
  677TIP3    H123666   2.251   4.992   0.350 -0.5534  1.2169 -1.3913
  677TIP3    H223667   2.312   4.872   0.281  0.2332  0.1253  1.1062
  678TIP3   OH223668   6.034   2.771   2.859  0.6837 -0.5561  0.1955
  678TIP3    H123669   6.103   2.732   2.806  1.4233 -0.3494  0.9846
  678TIP3    H223670   6.058   2.751   2.949 -0.8268 -1.3611  0.4544
  679TIP3   OH223671   1.316   4.138   0.131  0.1574  0.1045 -0.5947
  679TIP3    H123672   1.347   4.184   0.054  0.2741  0.1312 -0.5326
  679TIP3    H223673   1.302   4.048   0.102  0.0834  0.1423 -0.6760
  680TIP3   OH223674   2.687   5.029   7.889 -0.2446  0.0691 -0.0566
  680TIP3    H123675   2.771   5.044   7.846  0.1115 -0.0323  0.6036
  680TIP3    H223676   2.685   4.935   7.906 -0.6590  0.0091 -0.4081
  681TIP3   OH223677   1.099   2.833   0.195  0.1598  0.4459  0.5291
  681TIP3    H123678   1.091   2.928   0.194  0.4410  0.4784  1.2885
  681TIP3    H223679   1.056   2.806   0.276  2.3036  0.1518  1.6351
  682TIP3   OH223680   4.198   1.970   7.546  0.3865 -0.3105  0.2302
  682TIP3    H123681   4.169   2.029   7.477  1.1413 -0.0103  0.1703
  682TIP3    H223682   4.190   1.883   7.508 -1.8110 -0.3802  0.6874
  683TIP3   OH223683   0.999   2.529   1.034 -0.0447 -0.4128 -0.7203
  683TIP3    H123684   1.087   2.528   1.073 -0.0446 -1.6635 -0.7134
  683TIP3    H223685   0.997   2.452   0.978 -0.6267  0.4455 -1.9132
  684TIP3   OH223686   6.232   3.304   8.564 -0.1845 -0.1059  0.6106
  684TIP3    H123687   6.270   3.338   8.482 -1.9975 -0.2735 -0.3447
  684TIP3    H223688   6.214   3.212   8.545 -0.1031 -0.2861  1.4050
  685TIP3   OH223689   5.985   1.888   0.821 -0.4866 -0.0112 -0.3911
  685TIP3    H123690   5.972   1.953   0.752  0.1299  0.7608  0.2134
  685TIP3    H223691   5.952   1.807   0.783 -0.5063  0.4794 -1.4537
  686TIP3   OH223692   6.761   4.266   1.648  0.2640  0.1853 -0.1446
  686TIP3    H123693   6.708   4.274   1.569 -1.0088 -1.0929  0.5372
  686TIP3    H223694   6.808   4.349   1.654  0.5337  0.2361 -2.3246
  687TIP3   OH223695   2.863   2.447   1.339  0.3044  0.2748 -0.3419
  687TIP3    H123696   2.949   2.462   1.377 -0.0348 -0.0108  0.5645
  687TIP3    H223697   2.849   2.353   1.348  0.1863  0.2109 -1.1268
  688TIP3   OH223698   6.383   4.827   7.725 -0.4333  0.1593 -0.2684
  688TIP3    H123699   6.463   4.874   7.705 -1.0864  0.6255 -1.9320
  688TIP3    H223700   6.342   4.878   7.796 -0.9748  1.9967 -1.8182
  689TIP3   OH223701   0.052   4.544   7.033 -0.4484  0.2928 -0.5599
  689TIP3    H123702   0.073   4.478   6.967 -0.2394 -1.6877  1.4054
  689TIP3    H223703   0.018   4.618   6.982 -1.7309 -1.7001 -2.7824
  690TIP3   OH223704   0.174   6.621   0.096 -0.3392  0.2911 -0.2894
  690TIP3    H123705   0.104   6.674   0.057 -1.3651 -0.6353  0.2794
  690TIP3    H223706   0.252   6.677   0.088 -1.1357  1.3668 -0.8705
  691TIP3   OH223707   2.360   5.187   7.411  0.0099  0.0352  0.2376
  691TIP3    H123708   2.359   5.144   7.326 -2.2031 -0.9788  0.7138
  691TIP3    H223709   2.273   5.172   7.447  1.7683 -2.4137  4.0980
  692TIP3   OH223710   0.342   1.657   0.713 -0.3407 -0.2015 -0.3511
  692TIP3    H123711   0.257   1.698   0.728 -0.8029 -0.3653 -2.2158
  692TIP3    H223712   0.398   1.691   0.783 -1.1657  2.2362 -0.7698
  693TIP3   OH223713   6.518   5.122   2.102  0.1070  0.2820  0.8688
  693TIP3    H123714   6.431   5.136   2.065  0.7835  0.6289 -0.7271
  693TIP3    H223715   6.505   5.118   2.196 -1.5027  1.3783  0.7257
  694TIP3   OH223716   4.113   3.117   8.030  0.2486 -0.0683  0.1780
  694TIP3    H123717   4.095   3.169   8.108 -1.8333  0.7923 -0.7838
  694TIP3    H223718   4.076   3.030   8.049  0.3604 -0.0691  0.3898
  695TIP3   OH223719   5.007   1.577   1.398 -0.0709  0.1822  0.1414
  695TIP3    H123720   4.995   1.552   1.306  1.9089  2.3076 -0.8294
  695TIP3    H223721   5.037   1.497   1.441  3.5501  0.0092 -2.1918
  696TIP3   OH223722   1.626   6.589   1.252  0.0003  0.0993 -0.0807
  696TIP3    H123723   1.721   6.596   1.242 -0.1452 -0.0993 -2.2876
  696TIP3    H223724   1.613   6.513   1.309  1.1994 -0.9506 -1.1283
  697TIP3   OH223725   0.595   0.101   0.691 -0.1076  0.1836 -0.2264
  697TIP3    H123726   0.672   0.152   0.714 -1.4726  1.8771  0.9321
  697TIP3    H223727   0.542   0.161   0.638 -1.7718  0.0308  1.1857
  698TIP3   OH223728   0.112   5.078   0.575  1.1582  0.4744 -0.4495
  698TIP3    H123729   0.168   5.021   0.523  1.6089 -0.5074  1.0543
  698TIP3    H223730   0.039   5.022   0.603  0.4780  1.2062 -0.7057
  699TIP3   OH223731   4.556   0.768   0.778 -0.2086 -0.1601  0.0889
  699TIP3    H123732   4.523   0.689   0.822  1.4185 -0.8278  0.1781
  699TIP3    H223733   4.485   0.794   0.719 -0.8103 -1.6659  0.1042
  700TIP3   OH223734   6.327   0.466   7.649 -0.1702  0.3812 -0.0231
  700TIP3    H123735   6.249   0.485   7.701 -0.9265 -2.1246 -0.1009
  700TIP3    H223736   6.313   0.513   7.567 -0.7639  1.3406  0.6157
  701TIP3   OH223737   1.420   6.782   1.212 -0.1772 -0.4400 -0.7121
  701TIP3    H123738   1.416   6.854   1.275 -0.9224 -0.4543 -0.7355
  701TIP3    H223739   1.483   6.720   1.249  0.7962  0.4098 -0.8935
  702TIP3   OH223740   6.794   0.768   1.550  0.3910 -0.1604  0.4138
  702TIP3    H123741   6.862   0.770   1.483 -0.1031 -0.4453 -0.1098
  702TIP3    H223742   6.721   0.722   1.509 -0.2989  0.5522  0.7935
  703TIP3   OH223743   2.886   5.667   7.480 -0.1031  0.2678  0.0597
  703TIP3    H123744   2.945   5.598   7.511  0.0924  0.5307  0.2825
  703TIP3    H223745   2.945   5.740   7.458 -0.3128  0.3835 -0.1154
  704TIP3   OH223746   4.585   3.510   7.546  0.2811 -0.3726 -0.5136
  704TIP3    H123747   4.489   3.512   7.545  0.1322  2.9815  1.9147
  704TIP3    H223748   4.611   3.571   7.477  0.4845  0.8490  0.5960
  705TIP3   OH223749   5.031   6.607   8.557 -0.1581 -0.0238 -0.3720
  705TIP3    H123750   4.996   6.625   8.470  0.4724  1.0946 -0.4155
  705TIP3    H223751   5.096   6.539   8.543 -0.5593 -0.3524 -0.6606
  706TIP3   OH223752   2.062   2.695   1.270 -0.2945  0.5671  0.4953
  706TIP3    H123753   2.151   2.710   1.241  0.0444  0.4687  1.4443
  706TIP3    H223754   2.010   2.759   1.222  0.4984  1.6577  1.0591
  707TIP3   OH223755   2.282   6.609   7.228  0.2120  0.4476  0.1203
  707TIP3    H123756   2.203   6.619   7.175 -0.7207  1.1073  1.5897
  707TIP3    H223757   2.281   6.518   7.258  0.4272  0.2432 -0.4760
  708TIP3   OH223758   5.975   3.756   0.702 -0.6441  0.1817  0.2578
  708TIP3    H123759   5.913   3.827   0.718  0.4362  1.2714 -0.2350
  708TIP3    H223760   5.947   3.717   0.619 -0.6054  0.7449 -0.0229
  709TIP3   OH223761   3.578   5.811   7.181  0.1182  0.3110  0.8727
  709TIP3    H123762   3.637   5.749   7.224 -1.4635 -1.8060  0.1992
  709TIP3    H223763   3.516   5.755   7.134 -0.8513  2.4697 -0.5460
  710TIP3   OH223764   1.943   3.949   8.586  0.0030 -0.1224  0.1184
  710TIP3    H123765   1.992   3.905   8.517  0.8649  2.3010 -0.9375
  710TIP3    H223766   1.851   3.929   8.567  0.3293 -1.0466 -0.5609
  711TIP3   OH223767   1.166   2.300   2.454 -0.2637  0.2962  0.0528
  711TIP3    H123768   1.206   2.214   2.440 -0.1722  0.0054  1.8417
  711TIP3    H223769   1.238   2.356   2.481 -0.4805  0.6939 -0.1892
  712TIP3   OH223770   6.176   0.774   6.647 -0.3722 -0.2934  0.2724
  712TIP3    H123771   6.253   0.810   6.690  0.3450  0.4204 -1.4973
  712TIP3    H223772   6.205   0.689   6.613 -0.4017 -0.1124 -0.2203
  713TIP3   OH223773   0.402   0.583   8.072 -0.0371 -0.0622  0.1282
  713TIP3    H123774   0.449   0.604   7.992  0.5575 -1.3325  0.1191
  713TIP3    H223775   0.457   0.619   8.142 -1.6719  3.1165 -0.0412
  714TIP3   OH223776   2.706   2.036   7.877  0.5225 -0.2268  0.3823
  714TIP3    H123777   2.658   1.965   7.920  0.6052 -0.3961  0.1961
  714TIP3    H223778   2.797   2.024   7.905  1.0668 -1.8991 -1.8461
  715TIP3   OH223779   3.280   0.463   0.529  0.4999  0.3454 -0.2609
  715TIP3    H123780   3.301   0.505   0.612  1.4057 -0.9085  0.1550
  715TIP3    H223781   3.203   0.409   0.548  0.6120  0.1789 -0.2844
  716TIP3   OH223782   2.874   2.660   1.944 -0.6737 -0.1084 -0.1059
  716TIP3    H123783   2.904   2.748   1.969 -0.8605 -0.2660  0.7158
  716TIP3    H223784   2.939   2.630   1.880  0.9303 -0.4099  1.5516
  717TIP3   OH223785   6.682   3.012   7.351 -0.2760 -0.5163 -0.0317
  717TIP3    H123786   6.624   2.954   7.302  0.0191 -0.1768 -0.7947
  717TIP3    H223787   6.668   3.099   7.312  1.9665 -0.6972 -1.3829
  718TIP3   OH223788   6.183   2.692   0.098 -0.0689 -0.0391  0.1808
  718TIP3    H123789   6.170   2.745   0.177  0.9878 -0.8825  0.9589
  718TIP3    H223790   6.208   2.755   0.031 -1.3554  0.7424  0.3970
  719TIP3   OH223791   6.735   2.045   2.605 -0.3169 -0.5155  0.4810
  719TIP3    H123792   6.721   2.139   2.622  1.2084 -0.2409  0.3729
  719TIP3    H223793   6.812   2.022   2.657  0.2910 -1.3127 -0.7132
  720TIP3   OH223794   6.515   5.632   8.053 -0.1262 -0.2452 -0.4426
  720TIP3    H123795   6.553   5.564   7.998  0.7127  1.2840 -1.8741
  720TIP3    H223796   6.506   5.708   7.994 -1.2290  0.8065  1.0079
  721TIP3   OH223797   5.656   3.953   7.842  0.4213  0.5026 -0.0152
  721TIP3    H123798   5.568   3.983   7.817 -0.1615 -0.7997  0.4028
  721TIP3    H223799   5.678   3.887   7.776 -0.2547 -1.4440  1.5964
  722TIP3   OH223800   3.210   3.393   7.251  0.1327  0.0001 -0.5089
  722TIP3    H123801   3.138   3.331   7.262 -0.7921  1.0588 -0.4031
  722TIP3    H223802   3.254   3.364   7.172  0.2696 -1.3058  0.0069
  723TIP3   OH223803   6.213   0.229   7.808  0.1551 -0.3787  0.0685
  723TIP3    H123804   6.189   0.308   7.857  0.1391 -0.6487  0.5023
  723TIP3    H223805   6.303   0.210   7.835  1.8074  1.9204 -3.2496
  724TIP3   OH223806   0.124   6.351   7.256  0.0452  0.2320 -0.9159
  724TIP3    H123807   0.194   6.293   7.287 -0.6417  0.3571  1.0172
  724TIP3    H223808   0.071   6.368   7.334 -1.4105  1.1766 -2.0596
  725TIP3   OH223809   2.764   1.852   2.585 -0.6119 -0.3774  0.1723
  725TIP3    H123810   2.839   1.876   2.639 -0.4125 -0.3398 -0.1227
  725TIP3    H223811   2.740   1.933   2.539 -0.0528 -0.6824 -0.6834
  726TIP3   OH223812   0.681   6.308   7.693 -0.1648  0.2423  0.2047
  726TIP3    H123813   0.625   6.253   7.747  0.1516  0.9537  1.2892
  726TIP3    H223814   0.679   6.394   7.735  0.1049  0.8184 -0.9103
  727TIP3   OH223815   4.813   0.004   6.935  0.5398  0.2093 -0.2813
  727TIP3    H123816   4.772   0.090   6.921  2.1787  1.5315  2.1841
  727TIP3    H223817   4.775  -0.026   7.018 -0.1628 -1.6022 -1.2182
  728TIP3   OH223818   6.634   2.509   1.497  0.0799 -0.0395  0.0025
  728TIP3    H123819   6.629   2.605   1.499 -1.8925 -0.0690 -0.5875
  728TIP3    H223820   6.602   2.485   1.409  1.6556 -1.2205 -0.2897
  729TIP3   OH223821   1.206   6.090   2.293 -0.0779 -0.4917  0.8451
  729TIP3    H123822   1.162   6.057   2.214  2.6218  0.0565 -1.0385
  729TIP3    H223823   1.262   6.018   2.321  2.0304  0.6117 -0.2713
  730TIP3   OH223824   1.117   0.668   1.487  0.4499 -0.0212 -0.4745
  730TIP3    H123825   1.136   0.633   1.399  1.8226 -0.4408 -0.0387
  730TIP3    H223826   1.183   0.736   1.500  1.5102 -1.2621  0.9635
  731TIP3   OH223827   4.367   4.939   0.745 -0.5066  0.5042  0.4055
  731TIP3    H123828   4.437   5.002   0.764 -0.3832 -0.2435  2.6785
  731TIP3    H223829   4.308   4.945   0.820 -0.8635 -1.5648  0.3434
  732TIP3   OH223830   2.982   5.391   2.988  0.6135 -0.3042  0.2047
  732TIP3    H123831   3.049   5.361   2.927  0.9140  0.7570 -0.0155
  732TIP3    H223832   2.992   5.335   3.065  0.4883 -1.3964 -0.5525
  733TIP3   OH223833   0.242   0.474   2.811 -0.0841  0.2044  0.2181
  733TIP3    H123834   0.257   0.385   2.843 -0.3983  0.3325  0.7406
  733TIP3    H223835   0.165   0.504   2.859  1.1005  1.4229  1.4711
  734TIP3   OH223836   1.915   1.151   8.722 -0.0168  0.0238 -0.1142
  734TIP3    H123837   1.844   1.089   8.703  0.8869 -1.2428  0.4860
  734TIP3    H223838   1.983   1.130   8.658  0.5076  0.0286  0.4301
  735TIP3   OH223839   1.786   4.202   8.659 -0.9266  0.8997  0.1005
  735TIP3    H123840   1.863   4.165   8.702  0.7426  2.5575 -1.3034
  735TIP3    H223841   1.715   4.191   8.723  0.1078 -1.9073  0.8958
  736TIP3   OH223842   4.019   1.035   0.173 -0.0363 -0.9496 -0.3033
  736TIP3    H123843   4.087   0.967   0.175 -0.4081 -1.3007  1.1062
  736TIP3    H223844   3.995   1.048   0.264 -0.4063  0.6714 -0.6102
  737TIP3   OH223845   3.272   1.239   7.115 -0.2744  0.0646  0.4431
  737TIP3    H123846   3.348   1.183   7.095 -0.0903 -0.2244  1.8740
  737TIP3    H223847   3.231   1.253   7.030  0.6858 -0.7970 -0.1971
  738TIP3   OH223848   2.759   4.852   1.803 -0.8028 -0.2280 -0.7346
  738TIP3    H123849   2.768   4.768   1.758  0.0387 -0.4653 -0.1396
  738TIP3    H223850   2.829   4.852   1.868 -3.5661 -1.1290  2.5117
  739TIP3   OH223851   1.010   1.042   7.469 -0.3207  0.5165  0.0503
  739TIP3    H123852   0.967   1.096   7.535  0.4115 -0.2545  1.1928
  739TIP3    H223853   0.942   1.022   7.406 -0.5019  3.2412 -0.7568
  740TIP3   OH223854   0.654   2.207   2.617 -0.4619 -0.2784  0.2952
  740TIP3    H123855   0.738   2.219   2.662 -0.6813 -3.1393  1.6779
  740TIP3    H223856   0.595   2.270   2.659  0.2762 -0.3223  1.4512
  741TIP3   OH223857   5.274   3.789   1.594 -0.1387 -0.0817 -0.3573
  741TIP3    H123858   5.188   3.818   1.566 -0.3977 -0.2402  0.2627
  741TIP3    H223859   5.267   3.694   1.599 -0.5309  0.0048  1.5683
  742TIP3   OH223860   0.563   2.399   8.680 -0.6465 -0.4172  0.1471
  742TIP3    H123861   0.590   2.317   8.639 -1.0524 -0.2978 -0.3718
  742TIP3    H223862   0.468   2.399   8.672 -0.8031 -0.7115  1.7048
  743TIP3   OH223863   1.951   4.355   0.182  0.1672 -0.3646  0.6134
  743TIP3    H123864   1.957   4.375   0.275  0.0677  0.4187  0.4527
  743TIP3    H223865   1.966   4.260   0.177 -0.5656 -0.5337  1.4933
  744TIP3   OH223866   5.717   5.992   6.183  0.5806 -0.1529  0.0782
  744TIP3    H123867   5.749   5.949   6.262 -1.3696 -1.2508  0.3500
  744TIP3    H223868   5.713   6.085   6.206  1.7826 -0.2117  0.6045
  745TIP3   OH223869   3.921   0.583   7.637  0.3304  0.0636  0.4344
  745TIP3    H123870   3.892   0.530   7.710  2.1470 -2.6832 -0.6913
  745TIP3    H223871   3.846   0.640   7.617 -1.1236 -0.9343  2.7156
  746TIP3   OH223872   1.800   0.239   0.411 -0.2279  0.5128 -0.1332
  746TIP3    H123873   1.827   0.290   0.487  1.1337 -1.4976  0.8094
  746TIP3    H223874   1.758   0.162   0.447 -0.6815  0.0900 -1.4784
  747TIP3   OH223875   2.300   4.505   2.431 -0.3853 -0.8167 -0.1153
  747TIP3    H123876   2.291   4.459   2.514 -2.9968  0.4403  0.3818
  747TIP3    H223877   2.335   4.590   2.455  0.8626 -1.1681 -0.6021
  748TIP3   OH223878   3.065   5.542   0.847  0.1325  0.0001  0.4665
  748TIP3    H123879   3.116   5.477   0.896 -2.8792 -1.1210  2.3852
  748TIP3    H223880   3.061   5.618   0.905 -3.4340 -1.3251  2.2625
  749TIP3   OH223881   3.724   5.065   6.420  0.6336 -0.0961  0.1625
  749TIP3    H123882   3.741   4.971   6.410  0.8452 -0.1591  1.0529
  749TIP3    H223883   3.807   5.102   6.449  0.9966  0.6354 -1.6559
  750TIP3   OH223884   0.603   2.900   8.476  0.2082 -0.1743 -0.1703
  750TIP3    H123885   0.589   2.891   8.571 -1.7829 -1.6130 -0.5313
  750TIP3    H223886   0.587   2.992   8.458 -1.0019 -0.1798  0.7153
  751TIP3   OH223887   5.685   5.945   8.476 -0.4137  0.7651 -0.1924
  751TIP3    H123888   5.722   5.866   8.438 -1.5823 -0.4276  1.0293
  751TIP3    H223889   5.757   5.986   8.523 -0.3122 -0.8864  1.1747
  752TIP3   OH223890   4.139   6.371   1.656 -0.0106 -0.5713  0.2382
  752TIP3    H123891   4.050   6.398   1.634 -0.6228 -2.5622  0.0459
  752TIP3    H223892   4.136   6.353   1.750  0.2637 -0.3801  0.2843
  753TIP3   OH223893   5.518   5.643   8.284 -0.1259  0.1570 -0.1151
  753TIP3    H123894   5.611   5.621   8.280 -0.0551  0.4668 -0.1703
  753TIP3    H223895   5.491   5.615   8.372  0.1006  0.3916  0.0299
  754TIP3   OH223896   3.252   3.464   0.655  0.3657 -0.1015  0.5252
  754TIP3    H123897   3.166   3.504   0.667 -0.4966 -1.7912  0.2312
  754TIP3    H223898   3.235   3.370   0.650  2.3409 -0.5726  1.4860
  755TIP3   OH223899   2.091   3.313   8.046 -0.4150  0.8503 -0.4904
  755TIP3    H123900   2.053   3.278   8.127  2.3126 -0.6985  0.2558
  755TIP3    H223901   2.149   3.383   8.075  2.6254 -1.4061 -0.6244
  756TIP3   OH223902   2.153   4.586   7.253 -0.6992 -0.2370  0.1543
  756TIP3    H123903   2.060   4.567   7.240 -0.2696 -2.3890 -0.2270
  756TIP3    H223904   2.169   4.564   7.345 -0.6736  0.6800  0.3742
  757TIP3   OH223905   6.559   0.872   8.448 -0.0442  0.2683  0.1076
  757TIP3    H123906   6.566   0.956   8.493  0.7984 -0.5015  1.4784
  757TIP3    H223907   6.469   0.871   8.414 -0.2518  1.4719  0.5578
  758TIP3   OH223908   3.685   5.185   7.607  0.0504 -0.0924 -0.1553
  758TIP3    H123909   3.746   5.187   7.533 -0.2671  0.1617 -0.4107
  758TIP3    H223910   3.719   5.115   7.664  0.6423  0.1241 -0.2388
  759TIP3   OH223911   0.125   6.203   0.364  0.5194 -0.5843  0.6151
  759TIP3    H123912   0.159   6.257   0.292 -0.7465 -2.4748 -1.5237
  759TIP3    H223913   0.033   6.188   0.342 -0.0235 -0.9115  2.8800
  760TIP3   OH223914   3.202   2.633   1.907  0.7129 -0.3267  0.3059
  760TIP3    H123915   3.287   2.619   1.865  0.5527 -0.0934 -0.1037
  760TIP3    H223916   3.164   2.706   1.858 -0.3026 -1.2981 -0.3963
  761TIP3   OH223917   0.552   5.429   7.978 -0.3915  0.0323  0.0930
  761TIP3    H123918   0.518   5.518   7.970  0.5291  0.5911  1.7822
  761TIP3    H223919   0.620   5.423   7.910 -1.4832  0.0665 -1.0312
  762TIP3   OH223920   3.370   3.130   8.060  0.1195 -0.2222 -0.4231
  762TIP3    H123921   3.407   3.191   7.996  2.3443 -0.9551  0.0917
  762TIP3    H223922   3.313   3.074   8.008  0.7201  0.1329 -1.5141
  763TIP3   OH223923   6.579   5.344   0.557  0.3593  0.3234  0.0006
  763TIP3    H123924   6.599   5.256   0.589  1.9250  0.4645 -0.5206
  763TIP3    H223925   6.546   5.390   0.635 -0.7841 -0.7915  0.2041
  764TIP3   OH223926   2.265   1.121   1.161 -0.6205  0.9962 -0.2472
  764TIP3    H123927   2.206   1.078   1.224  0.3884  0.0931  0.1057
  764TIP3    H223928   2.304   1.194   1.211 -0.2292  0.6090  0.0213
  765TIP3   OH223929   1.635   5.996   8.637  0.4437 -0.4985  0.3361
  765TIP3    H123930   1.603   5.932   8.700  1.1152 -0.8254  0.3501
  765TIP3    H223931   1.724   5.967   8.616  0.0776 -0.6653 -1.1050
  766TIP3   OH223932   1.588   0.645   0.500 -0.3006  0.0902  0.2350
  766TIP3    H123933   1.584   0.656   0.595 -0.9143 -2.0747  0.5357
  766TIP3    H223934   1.680   0.660   0.478  0.0967 -0.4822  1.3777
  767TIP3   OH223935   6.242   4.599   2.476 -0.2961  0.1679  0.0670
  767TIP3    H123936   6.311   4.542   2.441 -0.2831 -0.1026  0.5259
  767TIP3    H223937   6.237   4.577   2.569  0.4229  1.6621  0.4800
  768TIP3   OH223938   0.890   1.549   1.620 -0.0938  0.5767  0.4939
  768TIP3    H123939   0.968   1.564   1.674 -0.0981  0.3901  0.5496
  768TIP3    H223940   0.924   1.526   1.534 -0.0832 -0.4191  0.7569
  769TIP3   OH223941   5.643   5.698   1.982  0.1042 -0.2677 -0.0392
  769TIP3    H123942   5.709   5.634   2.009 -1.0911 -1.5442 -0.0000
  769TIP3    H223943   5.653   5.704   1.887  2.0235  1.6096  0.2184
  770TIP3   OH223944   4.762   4.896   0.019  0.3188 -0.2733 -0.2528
  770TIP3    H123945   4.689   4.922   0.075  0.6240  0.4100 -0.1572
  770TIP3    H223946   4.725   4.891  -0.069  0.2547  0.5998 -0.2911
  771TIP3   OH223947   4.911   4.042   1.128 -0.0710 -0.0015  0.4678
  771TIP3    H123948   4.888   4.134   1.115  2.8937  0.6556 -0.9532
  771TIP3    H223949   5.000   4.034   1.094  0.4051 -3.0648  2.0663
  772TIP3   OH223950   1.417   2.802   7.444  0.0803  0.3639  0.1332
  772TIP3    H123951   1.346   2.866   7.446  0.1401  0.4544 -0.4965
  772TIP3    H223952   1.496   2.852   7.462 -0.2056 -0.0486  2.9002
  773TIP3   OH223953   6.020   6.808   1.572  0.3395 -0.1848 -0.4665
  773TIP3    H123954   5.975   6.753   1.508 -0.3516  0.4231 -0.5141
  773TIP3    H223955   5.963   6.884   1.583  1.9123  1.2260 -1.4544
  774TIP3   OH223956   4.973   2.879   1.205  0.3373  0.5665  0.4584
  774TIP3    H123957   5.036   2.807   1.200 -0.6023 -0.3407  0.9740
  774TIP3    H223958   4.888   2.834   1.209 -0.1992  1.6459  2.5238
  775TIP3   OH223959   2.420   4.871   1.264  0.0244  0.6330  0.6958
  775TIP3    H123960   2.444   4.890   1.173 -0.5756 -0.3404  0.3243
  775TIP3    H223961   2.327   4.892   1.270  0.2812  1.6674  1.3762
  776TIP3   OH223962   5.511   2.789   8.266 -0.1090  0.5815  0.4507
  776TIP3    H123963   5.510   2.732   8.343  0.4695  1.2742  0.9798
  776TIP3    H223964   5.450   2.860   8.288 -1.7932 -0.4302 -0.7010
  777TIP3   OH223965   6.435   0.195   8.056 -0.2239 -0.5773 -0.2004
  777TIP3    H123966   6.439   0.282   8.018 -0.4876 -1.0324 -1.3084
  777TIP3    H223967   6.476   0.204   8.142 -1.3107  0.8967  0.1996
  778TIP3   OH223968   3.358   6.305   0.224  0.0242 -0.0862  0.9152
  778TIP3    H123969   3.271   6.268   0.237 -1.1410  2.6607  1.7623
  778TIP3    H223970   3.407   6.279   0.302 -0.4267 -0.6121  1.0292
  779TIP3   OH223971   2.660   2.846   0.474  0.0269  0.3279  0.2714
  779TIP3    H123972   2.571   2.814   0.460  0.2532  0.0158 -0.5422
  779TIP3    H223973   2.716   2.774   0.443  0.5478  1.2563 -1.0276
  780TIP3   OH223974   3.558   6.407   2.452  0.0025  0.2471  0.0172
  780TIP3    H123975   3.508   6.352   2.513  0.0207 -0.4075 -0.5401
  780TIP3    H223976   3.605   6.468   2.508  0.1183 -0.4271  0.6746
  781TIP3   OH223977   0.854   5.419   8.097 -0.2983 -0.9004 -0.3801
  781TIP3    H123978   0.827   5.334   8.130  2.2964 -1.1260  1.4366
  781TIP3    H223979   0.941   5.405   8.061  0.5768  1.1100  0.7735
  782TIP3   OH223980   5.760   3.379   7.213  0.3979 -0.1406  0.2175
  782TIP3    H123981   5.763   3.307   7.150 -0.3188  0.3463 -0.4020
  782TIP3    H223982   5.694   3.352   7.277  0.2074 -0.0848  0.0461
  783TIP3   OH223983   0.636   5.737   0.057  0.0979  0.9511 -0.2342
  783TIP3    H123984   0.574   5.666   0.042  0.2235  0.9986 -1.0737
  783TIP3    H223985   0.591   5.798   0.116  0.4923 -0.4591  1.6048
  784TIP3   OH223986   2.350   3.314   2.668  0.1422 -0.3015  0.3225
  784TIP3    H123987   2.287   3.302   2.739  1.7072  0.1266  1.8791
  784TIP3    H223988   2.431   3.339   2.713  1.4755 -1.0079 -1.5612
  785TIP3   OH223989   6.786   0.509   1.343  0.1603 -0.4502 -0.3176
  785TIP3    H123990   6.825   0.461   1.270  0.9086 -2.3539  1.2718
  785TIP3    H223991   6.848   0.580   1.361  0.6170 -0.7484 -0.6929
  786TIP3   OH223992   6.414   6.502   2.526 -0.5287  0.0902  0.4526
  786TIP3    H123993   6.340   6.460   2.571 -0.3129 -1.9220 -0.9349
  786TIP3    H223994   6.474   6.526   2.596 -0.8714 -1.5860  1.3680
  787TIP3   OH223995   4.462   2.896   8.203 -0.4929  0.3886 -0.2907
  787TIP3    H123996   4.556   2.909   8.185 -0.5177 -0.4414 -1.1047
  787TIP3    H223997   4.444   2.953   8.277  0.6896  0.4858 -0.0508
  788TIP3   OH223998   0.171   3.160   1.964  0.4997 -0.0608 -0.1529
  788TIP3    H123999   0.214   3.121   1.887  2.9822  0.2608  0.9934
  788TIP3    H224000   0.213   3.118   2.039  0.4559  1.9925  1.0786
  789TIP3   OH224001   4.438   0.449   8.004 -0.1232  0.2272 -0.1736
  789TIP3    H124002   4.528   0.473   7.980 -0.3317 -0.9508 -2.3273
  789TIP3    H224003   4.441   0.355   8.018 -1.1632  0.0379 -1.0801
  790TIP3   OH224004   0.985   2.390   7.517 -0.1902 -0.2336  0.2382
  790TIP3    H124005   0.947   2.316   7.470  0.3029 -0.4035  0.0961
  790TIP3    H224006   1.052   2.424   7.457  0.9398 -0.8909  1.0895
  791TIP3   OH224007   6.287   6.729   1.328  0.4772  0.1869 -0.0397
  791TIP3    H124008   6.232   6.759   1.255  2.1318  1.0859 -0.9713
  791TIP3    H224009   6.237   6.658   1.368 -0.9665  0.3996 -1.3787
  792TIP3   OH224010   4.284   0.160   7.686  0.0486 -0.5140  0.8670
  792TIP3    H124011   4.250   0.134   7.600  0.4791  0.7428  0.2820
  792TIP3    H224012   4.239   0.103   7.748 -0.7514 -1.0153 -0.1413
  793TIP3   OH224013   1.460   1.010   8.629  0.3831  0.6435  0.6793
  793TIP3    H124014   1.505   1.014   8.714 -0.7427  0.3823  1.3062
  793TIP3    H224015   1.373   0.976   8.650 -0.3738  1.8416 -0.3975
  794TIP3   OH224016   3.987   5.586   8.134 -0.2589 -0.1954 -0.4475
  794TIP3    H124017   4.080   5.594   8.154 -0.3467  0.0041 -0.1264
  794TIP3    H224018   3.966   5.495   8.154 -0.1781 -0.1887 -0.3302
  795TIP3   OH224019   1.484   5.706   7.260  0.6347  0.0173 -0.0074
  795TIP3    H124020   1.537   5.781   7.290  1.9185 -1.6672  2.3021
  795TIP3    H224021   1.421   5.692   7.331  1.6241 -2.1317  0.5517
  796TIP3   OH224022   6.194   6.314   8.684 -0.2635  0.4989 -0.0828
  796TIP3    H124023   6.148   6.398   8.682  0.4725  0.9001 -0.5836
  796TIP3    H224024   6.189   6.286   8.775 -0.4117  1.1404  0.1114
  797TIP3   OH224025   3.991   2.468   2.364 -0.1464 -0.7412  0.0032
  797TIP3    H124026   3.995   2.381   2.405  2.1531 -0.0322  1.4920
  797TIP3    H224027   3.903   2.500   2.382 -0.3003 -1.8731  1.4057
  798TIP3   OH224028   3.518   2.743   0.016  0.0755  0.4474  0.3098
  798TIP3    H124029   3.482   2.694  -0.057 -0.3292 -0.3082  0.9977
  798TIP3    H224030   3.605   2.771  -0.013 -1.0151  2.3335 -1.3967
  799TIP3   OH224031   1.961   4.522   7.038 -0.7675  0.0725  0.1868
  799TIP3    H124032   1.898   4.473   6.985 -0.0100 -1.8603  0.9530
  799TIP3    H224033   1.953   4.612   7.008 -3.8560 -0.0737  0.2429
  800TIP3   OH224034   0.738   0.833   8.349 -1.0027 -0.1562  0.3096
  800TIP3    H124035   0.795   0.814   8.423 -0.9766  0.9147  0.5813
  800TIP3    H224036   0.795   0.828   8.272 -0.2592  1.9235  0.6672
  801TIP3   OH224037   6.799   0.606   7.601  0.2379 -0.3658 -0.0913
  801TIP3    H124038   6.892   0.599   7.578  0.5137  0.2496  0.8151
  801TIP3    H224039   6.790   0.554   7.681  0.2456  1.2416  0.9930
  802TIP3   OH224040   0.278   0.137   1.897  0.2600  0.1693 -0.3880
  802TIP3    H124041   0.369   0.166   1.907 -0.5664  2.2772  1.7677
  802TIP3    H224042   0.232   0.214   1.865 -0.9219 -0.6917 -0.8210
  803TIP3   OH224043   1.502   6.514   7.129 -0.1420  0.1870 -0.1722
  803TIP3    H124044   1.492   6.422   7.106  3.0254 -0.1033 -0.8217
  803TIP3    H224045   1.419   6.555   7.102 -0.5382 -1.9631 -2.5881
  804TIP3   OH224046   2.596   0.289   1.332  0.2164 -0.7700 -0.2680
  804TIP3    H124047   2.577   0.254   1.245 -2.8593 -0.6110  0.2303
  804TIP3    H224048   2.616   0.212   1.385 -0.6668 -1.1829 -0.5138
  805TIP3   OH224049   6.674   3.726   0.414  0.1954 -0.3003  0.2899
  805TIP3    H124050   6.682   3.739   0.319  1.7861  0.1702  0.4585
  805TIP3    H224051   6.584   3.697   0.426 -0.1359 -0.0785 -1.3338
  806TIP3   OH224052   3.828   2.336   8.113 -0.2510 -0.6383 -0.2999
  806TIP3    H124053   3.741   2.361   8.079 -0.1779 -1.3136 -0.9995
  806TIP3    H224054   3.889   2.394   8.068 -0.0500 -2.2026 -2.1681
  807TIP3   OH224055   2.333   3.566   7.376  0.7078  0.5093  0.4402
  807TIP3    H124056   2.397   3.519   7.323  1.4271  1.2693  0.6112
  807TIP3    H224057   2.365   3.657   7.376  1.1957  0.3851  2.8583
  808TIP3   OH224058   5.048   4.447   7.193 -0.4216 -0.3323  0.0594
  808TIP3    H124059   5.130   4.493   7.210 -0.1860 -0.5174 -0.5523
  808TIP3    H224060   5.011   4.490   7.116  0.4315 -1.9429 -1.3159
  809TIP3   OH224061   6.335   0.054   8.357  0.3031  0.3415  0.5888
  809TIP3    H124062   6.306   0.024   8.271 -1.1101 -0.3948  1.2825
  809TIP3    H224063   6.399   0.123   8.338  1.7602 -1.3569 -1.0378
  810TIP3   OH224064   0.911   0.797   1.769  0.5867  0.3285  0.2528
  810TIP3    H124065   0.972   0.802   1.843 -0.0312  0.5779  0.7556
  810TIP3    H224066   0.911   0.705   1.745 -3.0633 -0.9475  3.9400
  811TIP3   OH224067   6.579   6.277   1.732 -0.3153 -0.5202 -0.3008
  811TIP3    H124068   6.653   6.330   1.702 -0.1332 -2.2832 -3.3465
  811TIP3    H224069   6.502   6.329   1.712 -0.0735 -0.7678 -2.0349
  812TIP3   OH224070   4.639   5.184   8.376  0.6699  0.7116 -0.1782
  812TIP3    H124071   4.648   5.175   8.281 -0.1147  1.8956 -0.3848
  812TIP3    H224072   4.661   5.276   8.393  1.3021  0.3784  0.8603
  813TIP3   OH224073   6.686   4.677   8.662 -0.1512 -0.7854 -0.0257
  813TIP3    H124074   6.668   4.714   8.576  0.6866  0.6399  0.3739
  813TIP3    H224075   6.623   4.719   8.720  0.2800 -0.5858  0.3044
  814TIP3   OH224076   3.694   1.018   0.299  0.5101 -0.0128 -0.1885
  814TIP3    H124077   3.733   1.022   0.211 -0.7429  0.2839 -0.7439
  814TIP3    H224078   3.713   1.103   0.337  0.5989  0.0535 -0.3760
  815TIP3   OH224079   0.144   5.299   7.345 -0.2570 -0.2714 -0.5682
  815TIP3    H124080   0.082   5.365   7.314 -0.7964 -1.5426 -2.3478
  815TIP3    H224081   0.091   5.222   7.362  0.7608 -1.4109 -2.2047
  816TIP3   OH224082   0.582   0.560   2.336 -0.7249 -0.0566  0.8409
  816TIP3    H124083   0.666   0.566   2.291 -1.1579  0.4225  0.0909
  816TIP3    H224084   0.604   0.528   2.424  0.0896 -1.3590  0.1939
  817TIP3   OH224085   5.266   6.848   6.927 -0.0316  0.2535 -0.1528
  817TIP3    H124086   5.199   6.833   6.994 -0.2417 -1.7128 -0.7356
  817TIP3    H224087   5.226   6.816   6.846  1.6851 -1.2431 -0.4624
  818TIP3   OH224088   3.454   0.428   8.279  0.0927  0.5811 -0.2561
  818TIP3    H124089   3.536   0.378   8.269 -0.1044  0.4903 -1.5134
  818TIP3    H224090   3.414   0.426   8.192 -1.5334  0.1456  0.4623
  819TIP3   OH224091   0.426   2.025   2.409  0.0437 -0.5416 -0.4540
  819TIP3    H124092   0.467   2.026   2.323 -0.8531  1.0358 -0.8937
  819TIP3    H224093   0.478   2.086   2.462 -0.9093  0.4761 -0.6472
  820TIP3   OH224094   3.587   4.114   8.030 -0.6251  0.1018  0.1265
  820TIP3    H124095   3.563   4.022   8.038 -0.3851  0.0249 -0.0269
  820TIP3    H224096   3.651   4.116   7.958 -1.5915  0.5662 -0.7399
  821TIP3   OH224097   1.269   5.174   8.270 -0.3173  0.1752 -0.2075
  821TIP3    H124098   1.258   5.088   8.311  1.0110  0.4694  0.8364
  821TIP3    H224099   1.363   5.192   8.276 -0.8151  2.6912  1.7046
  822TIP3   OH224100   5.692   6.328   2.485  0.0828  0.2775  0.0125
  822TIP3    H124101   5.710   6.374   2.403 -1.4728  1.6559  0.3991
  822TIP3    H224102   5.597   6.324   2.490  0.1063 -2.8215  0.1566
  823TIP3   OH224103   6.710   1.832   1.677  0.2055 -0.3990  0.4659
  823TIP3    H124104   6.799   1.837   1.642  0.5828 -1.0517  1.3190
  823TIP3    H224105   6.654   1.847   1.601  1.0327 -0.2890 -0.1365
  824TIP3   OH224106   2.286   3.302   0.824  0.1471  0.2888  0.1818
  824TIP3    H124107   2.293   3.363   0.898 -1.1111  0.2220  0.3756
  824TIP3    H224108   2.309   3.217   0.861  1.4635  0.5591  0.0167
  825TIP3   OH224109   4.006   5.328   2.291 -0.0813  0.4667  0.3773
  825TIP3    H124110   3.936   5.392   2.304  0.5250  1.1728  0.2400
  825TIP3    H224111   4.079   5.362   2.342 -0.4904 -1.4051  2.3771
  826TIP3   OH224112   5.601   0.730   1.905  0.2908 -0.3457  0.2412
  826TIP3    H124113   5.544   0.738   1.828  1.4701 -2.2557 -0.9198
  826TIP3    H224114   5.543   0.697   1.974 -0.8104  1.5035  0.2659
  827TIP3   OH224115   5.050   3.657   8.069 -0.5154  0.4668 -0.0090
  827TIP3    H124116   5.094   3.637   7.987  0.6553  1.6556  0.2959
  827TIP3    H224117   5.090   3.597   8.133 -0.3634  0.5567 -0.0195
  828TIP3   OH224118   1.714   1.501   2.183 -0.0687  0.0061 -0.0313
  828TIP3    H124119   1.779   1.435   2.161 -2.1233 -1.9106 -0.7261
  828TIP3    H224120   1.662   1.462   2.254 -1.1178  1.0153 -0.1977
  829TIP3   OH224121   0.272   6.483   0.387 -0.5433  0.1138  0.5597
  829TIP3    H124122   0.240   6.543   0.320  0.9003 -0.2123 -0.4638
  829TIP3    H224123   0.346   6.438   0.346  1.2846  0.8893  2.7817
  830TIP3   OH224124   4.310   3.451   8.707  0.4978  0.0161 -0.5565
  830TIP3    H124125   4.360   3.398   8.770 -0.2396 -3.5790 -2.7120
  830TIP3    H224126   4.365   3.453   8.628 -0.4980  0.5540 -1.2579
  831TIP3   OH224127   4.015   1.726   0.739  0.2107  0.6168 -0.6826
  831TIP3    H124128   4.055   1.748   0.655  0.7276  2.2662 -0.0270
  831TIP3    H224129   4.071   1.657   0.775  0.9149  1.0245 -0.9744
  832TIP3   OH224130   2.997   3.737   2.094 -0.0443 -0.1225 -0.3649
  832TIP3    H124131   3.084   3.754   2.058  0.6589  1.1577  1.8181
  832TIP3    H224132   3.012   3.677   2.167 -0.5690  2.1623  1.7420
  833TIP3   OH224133   6.562   0.214   8.294  0.2616  0.6406 -0.0505
  833TIP3    H124134   6.604   0.186   8.375  0.0452 -1.1971 -0.5466
  833TIP3    H224135   6.628   0.269   8.251  0.7745  0.7597  0.8538
  834TIP3   OH224136   2.257   0.122   1.051 -0.2883  0.0245  0.2443
  834TIP3    H124137   2.216   0.036   1.046 -1.0212  0.4358 -2.7618
  834TIP3    H224138   2.350   0.106   1.035 -0.7266 -0.1117 -2.7015
  835TIP3   OH224139   5.356   0.726   7.164 -0.3003 -0.1813  0.3053
  835TIP3    H124140   5.349   0.802   7.221  1.1631 -0.2337  0.5953
  835TIP3    H224141   5.449   0.705   7.163 -0.6839 -2.0622  0.3528
  836TIP3   OH224142   4.744   1.328   2.100 -0.2125 -0.3179  0.8239
  836TIP3    H124143   4.792   1.345   2.018 -2.8662 -0.5031 -0.8700
  836TIP3    H224144   4.778   1.394   2.161 -1.1392  2.7771 -1.7338
  837TIP3   OH224145   1.837   4.501   7.884 -0.6536 -0.3694 -0.6440
  837TIP3    H124146   1.810   4.458   7.965 -2.3457  0.2981 -0.7938
  837TIP3    H224147   1.763   4.487   7.824  0.3142 -0.3446 -1.8769
  838TIP3   OH224148   6.844   5.481   8.573  0.4191 -0.8238  1.0263
  838TIP3    H124149   6.757   5.479   8.533  0.3853 -2.3860  1.1029
  838TIP3    H224150   6.835   5.428   8.652  1.0279  0.4393  1.9792
  839TIP3   OH224151   5.658   1.916   2.186 -0.0649 -0.7444 -1.0321
  839TIP3    H124152   5.683   1.992   2.238 -0.5940 -0.6223 -0.9542
  839TIP3    H224153   5.618   1.855   2.249 -0.8627 -0.5251 -1.3127
  840TIP3   OH224154   5.183   6.568   1.654  0.2347  0.1153 -0.2784
  840TIP3    H124155   5.235   6.529   1.725  0.5426  0.2940 -0.4043
  840TIP3    H224156   5.166   6.658   1.684 -3.3137 -0.9864  1.5786
  841TIP3   OH224157   3.902   3.764   0.113 -0.2756 -0.2852 -0.2637
  841TIP3    H124158   3.966   3.824   0.153 -2.4608  0.6177  2.1128
  841TIP3    H224159   3.950   3.682   0.103  1.7172  0.7932 -0.1182
  842TIP3   OH224160   5.313   3.929   0.129 -0.5167 -0.5568 -0.6181
  842TIP3    H124161   5.285   3.844   0.094  1.9832 -1.0155 -1.7060
  842TIP3    H224162   5.381   3.959   0.069 -0.8987  1.9849  0.0730
  843TIP3   OH224163   5.953   4.082   0.463  0.0532 -0.4841 -0.4737
  843TIP3    H124164   5.956   4.025   0.386 -0.2096  0.0956 -0.9268
  843TIP3    H224165   6.003   4.160   0.436 -2.1051  0.7945 -0.9868
  844TIP3   OH224166   6.359   2.172   8.696  0.6842  0.1234 -0.1691
  844TIP3    H124167   6.314   2.213   8.771  2.0562 -0.6897  1.1688
  844TIP3    H224168   6.307   2.197   8.620  0.0903  2.3168  0.8529
  845TIP3   OH224169   2.556   3.115   0.712 -0.0281  0.2478 -0.8769
  845TIP3    H124170   2.542   3.034   0.761  0.7391 -0.9842 -2.6124
  845TIP3    H224171   2.482   3.120   0.652  0.0030  0.7713 -0.8776
  846TIP3   OH224172   4.786   0.462   8.555 -0.4367 -0.4089 -0.2003
  846TIP3    H124173   4.858   0.453   8.492  0.6037  0.1326  0.8854
  846TIP3    H224174   4.769   0.372   8.584  1.0227 -0.3924  0.8330
  847TIP3   OH224175   0.205   2.580   1.640 -0.3019 -0.5661 -0.0878
  847TIP3    H124176   0.259   2.633   1.698 -1.0184  0.2190 -0.1094
  847TIP3    H224177   0.138   2.542   1.698 -2.2795  1.8508 -0.6014
  848TIP3   OH224178   0.033   4.635   2.281  0.2692 -0.3922  0.0512
  848TIP3    H124179   0.050   4.729   2.276  1.1381 -0.5343  0.2557
  848TIP3    H224180   0.080   4.605   2.358 -1.3553 -0.7295  0.9655
  849TIP3   OH224181   4.366   2.136   0.961  0.0690 -0.5982 -0.0712
  849TIP3    H124182   4.432   2.132   1.029  0.6580  0.1342 -0.5810
  849TIP3    H224183   4.288   2.095   1.000  0.7690 -1.3546  0.5776
  850TIP3   OH224184   1.949   0.110   8.065  0.0096  0.2946 -0.1909
  850TIP3    H124185   1.999   0.064   8.133 -0.6408 -0.9562 -0.5402
  850TIP3    H224186   1.863   0.124   8.105  0.0880  0.9154 -0.2233
  851TIP3   OH224187   4.789   3.821   7.548 -0.3249 -0.8784  0.6970
  851TIP3    H124188   4.807   3.775   7.466 -1.3383 -0.2820  0.1108
  851TIP3    H224189   4.693   3.817   7.557 -0.4360  1.0268  0.6575
  852TIP3   OH224190   3.934   3.937   0.670  0.4893  0.0587  0.5136
  852TIP3    H124191   4.004   3.882   0.706  0.9158  0.9174  1.0029
  852TIP3    H224192   3.977   3.992   0.605  0.1105  0.0301  0.2325
  853TIP3   OH224193   0.179   3.787   0.024  0.3908 -0.4333 -0.0890
  853TIP3    H124194   0.166   3.871   0.068  2.4110 -0.3319  0.3810
  853TIP3    H224195   0.154   3.804  -0.067  0.6926  0.6519  0.0238
  854TIP3   OH224196   6.351   1.860   1.092  0.0032 -0.1851 -0.0608
  854TIP3    H124197   6.426   1.888   1.145 -0.1620  1.9782 -0.8575
  854TIP3    H224198   6.389   1.836   1.008 -0.0359 -0.8756  0.1093
  855TIP3   OH224199   1.739   0.813   2.162 -0.1374  0.1446  0.5342
  855TIP3    H124200   1.730   0.843   2.252 -0.9213  0.9183  0.2170
  855TIP3    H224201   1.699   0.726   2.161  0.8723 -0.3330  1.1634
  856TIP3   OH224202   5.770   4.752   7.212  0.1593  0.1063 -0.0876
  856TIP3    H124203   5.677   4.763   7.231  0.4446  0.7038  0.9915
  856TIP3    H224204   5.771   4.688   7.140 -1.0755  0.1063 -0.1392
  857TIP3   OH224205   5.986   1.020   1.035 -0.2238 -0.2017 -0.1862
  857TIP3    H124206   5.915   1.041   0.974 -1.8012  1.1564  1.9302
  857TIP3    H224207   6.066   1.049   0.991 -1.2008  0.0669 -1.8607
  858TIP3   OH224208   5.613   5.701   7.647  0.5539  0.0266  0.4856
  858TIP3    H124209   5.677   5.649   7.597  1.3481  0.3899  1.0988
  858TIP3    H224210   5.614   5.662   7.734 -0.1312 -0.0132  0.4782
  859TIP3   OH224211   3.215   2.498   0.695 -0.0703 -0.5658  0.7890
  859TIP3    H124212   3.142   2.558   0.682  0.1321 -0.6713 -1.1786
  859TIP3    H224213   3.185   2.415   0.656  1.1063 -0.5715 -0.1780
  860TIP3   OH224214   4.202   1.495   2.479 -0.4738 -0.2197  0.0498
  860TIP3    H124215   4.199   1.450   2.564  2.2799 -1.7306 -0.5450
  860TIP3    H224216   4.128   1.459   2.430  0.0096 -2.0700  0.5881
  861TIP3   OH224217   3.416   5.635   7.007 -0.5251  0.0104 -0.2600
  861TIP3    H124218   3.355   5.708   6.993  0.2358  1.1153  1.7713
  861TIP3    H224219   3.359   5.561   7.029 -1.2308  0.8203  0.8165
  862TIP3   OH224220   1.960   3.702   0.862  0.1365 -0.4355 -0.2055
  862TIP3    H124221   2.022   3.763   0.902  0.2580 -0.9224  0.3624
  862TIP3    H224222   1.956   3.629   0.923  0.2295 -1.1459 -1.0324
  863TIP3   OH224223   1.552   2.238   0.995  0.2183  0.0796 -0.1521
  863TIP3    H124224   1.561   2.333   1.005  0.1869 -0.0117  0.8068
  863TIP3    H224225   1.468   2.218   1.035  0.0642 -0.3063 -0.6718
  864TIP3   OH224226   5.326   0.933   8.182  0.3248  0.1708  0.2607
  864TIP3    H124227   5.378   0.870   8.232  0.0101  1.3266  2.1302
  864TIP3    H224228   5.387   1.003   8.161  0.0103  0.5819  0.7025
  865TIP3   OH224229   2.097   6.037   7.191  0.7925 -0.1562  0.3151
  865TIP3    H124230   2.152   6.040   7.270  2.3768 -0.9354 -0.7223
  865TIP3    H224231   2.156   6.063   7.120  0.0582 -1.8246 -0.9526
  866TIP3   OH224232   2.549   2.151   7.128 -1.0379  0.6597 -0.1656
  866TIP3    H124233   2.468   2.190   7.096  0.4980  4.5867  0.1588
  866TIP3    H224234   2.615   2.174   7.063  0.0858 -1.6295  0.0336
  867TIP3   OH224235   0.090   5.236   7.837  0.1265  0.4157  0.2224
  867TIP3    H124236   0.059   5.173   7.902 -1.2146  0.8409  0.0190
  867TIP3    H224237   0.076   5.193   7.753  1.8735 -0.1388  0.1711
  868TIP3   OH224238   0.458   6.692   8.708 -0.5020  0.1947 -0.4368
  868TIP3    H124239   0.478   6.729   8.622  1.2583  2.6418  0.8919
  868TIP3    H224240   0.522   6.622   8.719 -0.3204  0.2884 -0.8687
  869TIP3   OH224241   4.588   5.716   1.186  0.0792  0.3836  0.1787
  869TIP3    H124242   4.634   5.764   1.256  3.1802  0.2679 -1.5892
  869TIP3    H224243   4.602   5.624   1.207 -0.9298  0.3038  0.5458
  870TIP3   OH224244   0.575   2.623   1.699  0.7589 -0.0282  0.0000
  870TIP3    H124245   0.586   2.606   1.605  0.2275  0.8991 -0.2403
  870TIP3    H224246   0.640   2.690   1.719  0.7856 -0.1344  0.2664
  871TIP3   OH224247   0.576   4.941   2.418  0.2258  0.5554  0.3376
  871TIP3    H124248   0.669   4.956   2.402  0.6160  0.2907  2.1608
  871TIP3    H224249   0.552   4.874   2.355  1.2052  0.7921 -0.3141
  872TIP3   OH224250   0.336   6.468   8.237  0.2915 -0.3347  0.0628
  872TIP3    H124251   0.324   6.428   8.151  1.3638 -0.3379 -0.0975
  872TIP3    H224252   0.271   6.539   8.239 -1.0877 -1.5378  0.0454
  873TIP3   OH224253   3.822   6.851   6.856  0.3324 -0.1015 -0.3718
  873TIP3    H124254   3.811   6.868   6.762 -1.3505 -0.5552 -0.2985
  873TIP3    H224255   3.760   6.911   6.898  0.9953  0.0190  0.4510
  874TIP3   OH224256   2.895   4.365   2.727  0.4020  0.1342 -0.1606
  874TIP3    H124257   2.954   4.342   2.799  0.2441 -0.6589 -0.2789
  874TIP3    H224258   2.952   4.400   2.660  0.4148  2.2890  0.8793
  875TIP3   OH224259   3.412   3.114   6.847 -0.0378 -0.5894 -0.3702
  875TIP3    H124260   3.431   3.021   6.854 -0.0107 -0.7670 -2.2599
  875TIP3    H224261   3.488   3.150   6.800 -0.3090  0.2870 -0.1525
  876TIP3   OH224262   1.806   2.559   1.981  0.3302 -0.6624  0.3465
  876TIP3    H124263   1.840   2.619   2.047 -1.6683  0.8016  0.1257
  876TIP3    H224264   1.790   2.478   2.028 -0.1767  0.0683  1.4658
  877TIP3   OH224265   2.338   1.527   8.253  0.3094  0.3931  0.0630
  877TIP3    H124266   2.383   1.562   8.176  0.4476 -2.6818 -1.4144
  877TIP3    H224267   2.260   1.485   8.218  0.6583 -1.5835  1.5037
  878TIP3   OH224268   6.055   2.423   0.132  0.2207 -0.0255  0.0528
  878TIP3    H124269   6.126   2.487   0.125 -0.4466  0.9457  1.5799
  878TIP3    H224270   6.028   2.407   0.041  1.9638  0.0287 -0.5129
  879TIP3   OH224271   3.332   4.272   0.328  0.2986 -0.8573  0.0152
  879TIP3    H124272   3.392   4.240   0.261  0.6451 -0.6953  0.2419
  879TIP3    H224273   3.384   4.335   0.378 -0.7271  1.1100 -1.2496
  880TIP3   OH224274   0.172   0.147   0.788 -0.4477  0.6012  0.3908
  880TIP3    H124275   0.227   0.073   0.811 -1.5740 -0.3543  0.1078
  880TIP3    H224276   0.145   0.129   0.698 -1.3808  0.9444  0.5926
  881TIP3   OH224277   6.268   5.993   7.686  0.4934  0.0842  0.1374
  881TIP3    H124278   6.360   6.012   7.668  0.1954  0.3626 -1.2087
  881TIP3    H224279   6.220   6.044   7.620 -0.5102 -2.0528 -0.8570
  882TIP3   OH224280   4.242   1.449   6.801 -0.2227 -0.9487 -0.4998
  882TIP3    H124281   4.227   1.357   6.819 -0.9702 -0.4807  1.5907
  882TIP3    H224282   4.168   1.476   6.747 -1.6973 -0.9404  1.4231
  883TIP3   OH224283   1.640   5.313   1.729 -0.2978 -0.2149 -0.6753
  883TIP3    H124284   1.598   5.271   1.653  0.0596 -0.4604 -0.7385
  883TIP3    H224285   1.614   5.405   1.722  0.2745 -0.1058 -1.4753
  884TIP3   OH224286   0.173   1.365   0.695  0.4484  0.3321 -0.1736
  884TIP3    H124287   0.251   1.344   0.748  0.8158  1.7662 -0.0976
  884TIP3    H224288   0.113   1.292   0.711  1.0561  0.1024  1.2213
  885TIP3   OH224289   3.708   6.225   8.697  0.1566  0.2373 -0.5190
  885TIP3    H124290   3.692   6.229   8.602 -2.1741 -1.6301 -0.3141
  885TIP3    H224291   3.621   6.236   8.736  1.2367  2.2130  1.5133
  886TIP3   OH224292   6.048   5.734   0.043  0.4622  0.0008 -0.3483
  886TIP3    H124293   6.033   5.681   0.121 -1.1826  0.0406 -0.6073
  886TIP3    H224294   6.113   5.799   0.070  1.0265 -0.9088  0.5387
  887TIP3   OH224295   4.418   6.289   1.653 -0.5423 -0.4712  0.4312
  887TIP3    H124296   4.330   6.291   1.615 -1.1353 -0.9237  1.7220
  887TIP3    H224297   4.421   6.368   1.707 -0.7473 -1.2516  1.6155
  888TIP3   OH224298   1.254   3.775   2.115  0.0914 -0.3470 -0.0479
  888TIP3    H124299   1.215   3.802   2.032  0.2745 -0.6304 -0.2257
  888TIP3    H224300   1.346   3.800   2.108  0.4523 -1.7411 -0.5442
  889TIP3   OH224301   6.767   1.837   6.761 -0.0052  0.1586  0.3794
  889TIP3    H124302   6.756   1.741   6.763 -0.1177  0.1460 -0.4662
  889TIP3    H224303   6.685   1.869   6.724  0.3695  0.5241 -0.1381
  890TIP3   OH224304   6.171   4.761   6.780 -1.1528  0.2836  0.1282
  890TIP3    H124305   6.090   4.711   6.791 -0.1604 -1.6897 -0.9842
  890TIP3    H224306   6.192   4.752   6.687  0.2937  0.8276  0.3736
  891TIP3   OH224307   3.154   1.884   1.795 -0.0814  0.1813  0.1302
  891TIP3    H124308   3.173   1.954   1.858  0.0885  1.2071 -1.0145
  891TIP3    H224309   3.096   1.824   1.842 -0.7593  1.4335  0.9489
  892TIP3   OH224310   1.574   4.165   8.406 -0.1095  0.2977  0.2435
  892TIP3    H124311   1.669   4.170   8.395  0.1097 -1.0687  1.2888
  892TIP3    H224312   1.548   4.088   8.356 -0.3690 -0.4783  1.5170
  893TIP3   OH224313   5.264   1.382   8.588 -0.4126  0.3999  0.1190
  893TIP3    H124314   5.340   1.363   8.533 -0.5417 -0.7421  0.3089
  893TIP3    H224315   5.231   1.296   8.615 -0.1530  0.9147  2.2617
  894TIP3   OH224316   0.416   3.963   2.947 -0.0990 -0.0183 -0.3838
  894TIP3    H124317   0.486   3.995   2.890  2.1052 -2.0846  0.9954
  894TIP3    H224318   0.411   3.869   2.930 -2.2052 -0.0384 -0.0109
  895TIP3   OH224319   1.203   4.808   0.467 -0.2707  0.3565  0.2590
  895TIP3    H124320   1.235   4.718   0.453 -1.3239 -0.6182  3.3055
  895TIP3    H224321   1.132   4.798   0.530 -1.0890  3.2945 -0.0752
  896TIP3   OH224322   4.099   3.872   7.712  0.5803  0.1293  0.3642
  896TIP3    H124323   4.193   3.885   7.725  0.4091  0.7649  1.0099
  896TIP3    H224324   4.082   3.906   7.624  1.1570 -1.1147 -0.2542
  897TIP3   OH224325   3.422   5.373   0.236  0.7323  0.4804  0.1655
  897TIP3    H124326   3.389   5.442   0.178 -0.1995 -1.0437 -1.1923
  897TIP3    H224327   3.361   5.373   0.310  0.3879  0.7206 -0.1140
  898TIP3   OH224328   0.669   3.039   1.664  0.4232 -0.4017  0.1086
  898TIP3    H124329   0.689   3.039   1.758  3.1959  0.7705 -0.4023
  898TIP3    H224330   0.681   2.949   1.637 -0.1622 -0.7021  0.7915
  899TIP3   OH224331   5.625   3.560   7.502 -0.1239  0.3829  0.1316
  899TIP3    H124332   5.649   3.507   7.578  1.5718  1.0123  0.0751
  899TIP3    H224333   5.580   3.636   7.539 -0.7572 -0.1073  0.3720
  900TIP3   OH224334   4.553   3.328   1.534  0.0118  0.1831  0.2625
  900TIP3    H124335   4.502   3.254   1.502  0.4277 -0.3890  0.8843
  900TIP3    H224336   4.633   3.288   1.569  0.5864  0.9971 -0.0921
  901TIP3   OH224337   3.790   6.705   8.548 -0.1038  0.3871 -0.2889
  901TIP3    H124338   3.875   6.683   8.510 -0.1975 -0.6939  0.1039
  901TIP3    H224339   3.740   6.624   8.543 -1.1462  1.0264 -0.5643
  902TIP3   OH224340   1.180   4.335   7.510 -0.3622 -0.7720 -0.7926
  902TIP3    H124341   1.177   4.348   7.605  0.8002 -1.3180 -0.6624
  902TIP3    H224342   1.096   4.294   7.489 -0.6294 -0.6471  0.0003
  903TIP3   OH224343   0.935   5.916   8.011  0.3160  0.2676  0.1788
  903TIP3    H124344   0.884   5.988   7.974  2.5564  1.8521  0.0225
  903TIP3    H224345   1.021   5.923   7.970  0.5796 -2.6742  0.0003
  904TIP3   OH224346   4.753   3.492   2.429 -0.0883 -0.2984  0.2316
  904TIP3    H124347   4.757   3.583   2.398 -0.1117  0.8002  3.1100
  904TIP3    H224348   4.805   3.492   2.509 -0.6320 -2.6979  0.6592
  905TIP3   OH224349   5.517   5.799   1.395 -0.0302  0.4306 -0.3280
  905TIP3    H124350   5.549   5.711   1.375 -0.6729  0.0903  0.1065
  905TIP3    H224351   5.568   5.856   1.338  0.8395 -0.1590 -0.1740
  906TIP3   OH224352   4.588   6.569   8.343 -0.9689 -0.8332 -0.2728
  906TIP3    H124353   4.588   6.488   8.394  0.1073 -1.8349 -1.7640
  906TIP3    H224354   4.545   6.545   8.261  0.5872 -0.2965 -1.2866
  907TIP3   OH224355   3.974   0.051   0.274 -0.1089  0.5028  0.6935
  907TIP3    H124356   3.950   0.056   0.367 -1.7282  0.0484  0.3334
  907TIP3    H224357   3.900   0.007   0.233  0.7148  0.4430 -0.7840
  908TIP3   OH224358   1.577   1.040   8.090 -0.2806  0.9085 -0.0786
  908TIP3    H124359   1.647   1.041   8.024  0.3413 -1.7221  0.4215
  908TIP3    H224360   1.605   1.104   8.155 -0.0018  2.2464 -1.4681
  909TIP3   OH224361   0.487   2.375   2.789  0.0297 -0.0743  0.3113
  909TIP3    H124362   0.485   2.430   2.711  0.4103  1.1089  1.1106
  909TIP3    H224363   0.395   2.364   2.813 -0.0997 -0.6072 -0.4033
  910TIP3   OH224364   6.581   5.251   0.993 -0.3780  0.2677  0.6828
  910TIP3    H124365   6.645   5.307   0.949  0.2129 -1.5891 -1.0174
  910TIP3    H224366   6.634   5.186   1.039 -0.9735 -0.9146 -0.2187
  911TIP3   OH224367   4.577   4.953   0.415 -0.0816  0.2869 -0.0760
  911TIP3    H124368   4.577   4.860   0.436  0.2329  0.3660  0.2854
  911TIP3    H224369   4.515   4.992   0.478 -0.9769  0.1916 -0.8636
  912TIP3   OH224370   4.096   5.073   0.467  0.0765 -0.1951  0.2697
  912TIP3    H124371   4.097   5.051   0.560 -1.3344 -0.4390  0.2578
  912TIP3    H224372   4.167   5.136   0.456 -0.4586  0.7147  1.7410
  913TIP3   OH224373   4.275   3.375   0.304 -0.1884  0.0840 -0.2535
  913TIP3    H124374   4.369   3.365   0.290  0.0857  2.5714 -0.5079
  913TIP3    H224375   4.235   3.303   0.254  1.4774  0.1392 -1.7444
  914TIP3   OH224376   0.805   0.601   0.136 -0.3279  0.6027 -0.7313
  914TIP3    H124377   0.732   0.546   0.107  0.9350 -1.1376 -0.7752
  914TIP3    H224378   0.808   0.589   0.230  0.4681 -0.1024 -0.8361
  915TIP3   OH224379   6.446   6.389   8.200 -0.0679  0.3960 -0.2948
  915TIP3    H124380   6.396   6.467   8.225  0.2535  0.5250 -0.0486
  915TIP3    H224381   6.526   6.394   8.253 -0.7591 -0.9514  0.9389
  916TIP3   OH224382   3.854   3.657   2.658 -0.0294 -0.9434 -0.4849
  916TIP3    H124383   3.839   3.637   2.565 -0.9234 -0.7777 -0.3920
  916TIP3    H224384   3.912   3.588   2.689  0.8066 -0.6355 -1.3264
  917TIP3   OH224385   4.039   1.692   0.458  0.0435 -0.2890 -0.2582
  917TIP3    H124386   3.959   1.706   0.407  0.7528 -0.1336 -1.3466
  917TIP3    H224387   4.099   1.760   0.428  1.4051 -1.8215 -1.1461
  918TIP3   OH224388   5.842   2.018   0.341  0.4625  0.5357 -0.3357
  918TIP3    H124389   5.926   2.063   0.347  0.6048  0.1532  0.9883
  918TIP3    H224390   5.864   1.925   0.351 -0.2995  0.5859  3.1883
  919TIP3   OH224391   3.778   1.148   0.052  0.3671 -0.1257 -0.8419
  919TIP3    H124392   3.873   1.131   0.056  0.0401 -2.2225 -0.8701
  919TIP3    H224393   3.770   1.242   0.070  2.4435  0.0955 -0.8032
  920TIP3   OH224394   3.158   4.637   0.103 -0.1243 -0.5068  0.4796
  920TIP3    H124395   3.190   4.710   0.156  0.0771 -0.4031  0.2189
  920TIP3    H224396   3.148   4.565   0.165  0.0956 -0.3828  0.6609
  921TIP3   OH224397   5.311   0.582   0.218  0.1605  0.3148 -0.1302
  921TIP3    H124398   5.217   0.571   0.228  0.1235  0.0959 -0.7323
  921TIP3    H224399   5.348   0.544   0.298 -0.1848 -0.8470 -0.5083
  922TIP3   OH224400   0.751   0.373   2.474  0.2459  0.0004  0.9491
  922TIP3    H124401   0.771   0.299   2.416 -1.9391  0.2787 -0.2980
  922TIP3    H224402   0.677   0.342   2.527 -1.4697  1.5718 -0.3844
  923TIP3   OH224403   6.771   4.525   1.754 -0.2305  0.3130 -0.2314
  923TIP3    H124404   6.845   4.578   1.783 -0.2852  0.4196 -0.2888
  923TIP3    H224405   6.748   4.560   1.669 -0.1286  0.0571 -0.3661
  924TIP3   OH224406   0.600   1.818   1.328 -0.4546  0.3753  0.2195
  924TIP3    H124407   0.683   1.858   1.300 -0.1945  0.1231  0.6314
  924TIP3    H224408   0.623   1.767   1.405 -1.1366  0.8916  0.7702
  925TIP3   OH224409   0.617   1.041   1.941 -0.1195  0.2758  0.2244
  925TIP3    H124410   0.653   0.956   1.968 -0.7040  0.1995  0.7935
  925TIP3    H224411   0.523   1.033   1.956 -0.0389  1.5171  1.7036
  926TIP3   OH224412   1.833   0.972   8.352 -0.0612 -1.1275 -0.3782
  926TIP3    H124413   1.879   0.921   8.286 -0.5248 -1.2027 -0.6503
  926TIP3    H224414   1.837   1.062   8.320  1.0421 -0.9343  0.2678
  927TIP3   OH224415   3.634   4.128   7.463 -0.2158 -0.0285  0.3042
  927TIP3    H124416   3.608   4.092   7.548  0.4846  0.3431  0.6779
  927TIP3    H224417   3.557   4.177   7.434 -0.1081  0.6967  1.1983
  928TIP3   OH224418   6.518   0.372   7.844 -0.6835  0.1714 -0.0200
  928TIP3    H124419   6.586   0.351   7.781 -1.0673  1.1934 -0.8005
  928TIP3    H224420   6.449   0.414   7.792  0.6195  4.7906  1.5240
  929TIP3   OH224421   4.844   2.654   7.529 -0.5446  0.3877 -0.5832
  929TIP3    H124422   4.839   2.563   7.498  0.0879  0.7262 -1.7460
  929TIP3    H224423   4.934   2.664   7.557 -0.4302  0.8379 -1.0911
  930TIP3   OH224424   5.450   4.182   0.005 -0.2327  0.0584  0.6069
  930TIP3    H124425   5.396   4.197  -0.072 -2.0404 -0.1573  1.7789
  930TIP3    H224426   5.509   4.110  -0.021 -0.9018 -0.1083 -0.5107
  931TIP3   OH224427   3.457   6.356   8.713  0.6766  0.5704  0.0776
  931TIP3    H124428   3.430   6.293   8.647  0.3180  2.0111 -1.2092
  931TIP3    H224429   3.410   6.330   8.792 -0.8513  0.2622 -0.8939
  932TIP3   OH224430   6.764   3.090   1.359 -0.4213 -0.4026 -0.1563
  932TIP3    H124431   6.735   3.180   1.366  2.1273  0.5285 -0.3919
  932TIP3    H224432   6.782   3.063   1.449  1.6598  0.4259 -0.2659
  933TIP3   OH224433   3.011   1.738   2.930 -0.2303 -0.7291 -0.2377
  933TIP3    H124434   3.081   1.762   2.990 -0.9631 -2.5959  1.4913
  933TIP3    H224435   3.053   1.689   2.860  0.9922  3.4269 -2.7473
  934TIP3   OH224436   2.213   5.525   7.163  0.0378 -0.3885 -0.2120
  934TIP3    H124437   2.189   5.487   7.079 -0.0733  1.4178 -1.0304
  934TIP3    H224438   2.298   5.485   7.184  0.3535 -0.4058 -1.4706
  935TIP3   OH224439   6.464   1.331   8.378  0.3965 -0.1800 -0.2041
  935TIP3    H124440   6.410   1.408   8.390 -0.6138 -0.7446 -1.0131
  935TIP3    H224441   6.537   1.361   8.323  0.8226  0.5238  0.7077
  936TIP3   OH224442   6.404   0.361   1.925 -0.7782 -0.0784  0.1054
  936TIP3    H124443   6.342   0.292   1.900 -2.7261  0.6690  2.4470
  936TIP3    H224444   6.351   0.425   1.974  1.5709  1.4140  0.9096
  937TIP3   OH224445   6.023   3.592   0.487 -0.1286  0.0575 -0.6708
  937TIP3    H124446   6.021   3.515   0.543 -2.8118  1.3057  1.1341
  937TIP3    H224447   6.032   3.557   0.398 -0.8266 -2.2855  0.1140
  938TIP3   OH224448   0.867   6.611   8.614  0.7357  0.7858 -0.0118
  938TIP3    H124449   0.919   6.561   8.551  1.2132  1.4255 -0.1457
  938TIP3    H224450   0.889   6.703   8.594 -0.4202  1.0677 -0.0435
  939TIP3   OH224451   4.321   0.265   7.322  0.4376  0.0092 -1.0252
  939TIP3    H124452   4.257   0.218   7.375  0.5195 -0.7476 -1.5912
  939TIP3    H224453   4.377   0.197   7.285  4.2832  0.7358  2.7402
  940TIP3   OH224454   1.198   3.075   8.101  0.5368 -0.3217 -0.1955
  940TIP3    H124455   1.194   3.135   8.026 -0.6392 -1.1843 -0.8453
  940TIP3    H224456   1.251   3.002   8.069  1.1585 -0.0891  0.2795
  941TIP3   OH224457   1.736   4.396   6.857  0.3712  0.2421  0.4138
  941TIP3    H124458   1.748   4.418   6.764  0.7712  2.9929  1.0235
  941TIP3    H224459   1.667   4.330   6.858  0.3036  0.2067 -1.8341
  942TIP3   OH224460   6.102   3.365   6.946  0.3810  0.0455  0.6053
  942TIP3    H124461   6.048   3.307   7.000 -1.0286  0.6847 -0.0698
  942TIP3    H224462   6.173   3.309   6.915 -1.0424 -1.3894 -0.1780
  943TIP3   OH224463   5.749   4.735   1.649  0.7134  0.0806 -0.1661
  943TIP3    H124464   5.834   4.716   1.607  1.4643  1.5828  0.5806
  943TIP3    H224465   5.762   4.821   1.689 -0.2360 -0.9082  2.4287
  944TIP3   OH224466   1.664   1.275   7.414  0.3707  0.2797  0.7394
  944TIP3    H124467   1.684   1.183   7.397  0.5103  0.4187  0.1619
  944TIP3    H224468   1.637   1.276   7.506 -1.6196 -0.6910  0.2430
  945TIP3   OH224469   3.143   2.716   8.485  0.1620  0.2685 -0.5448
  945TIP3    H124470   3.173   2.797   8.444 -4.1055  2.2317 -0.2243
  945TIP3    H224471   3.100   2.668   8.414 -1.2503  0.4422  0.1693
  946TIP3   OH224472   3.848   5.870   7.139  0.5083  0.3411  0.5841
  946TIP3    H124473   3.847   5.831   7.226 -0.3189 -1.4601 -0.1844
  946TIP3    H224474   3.755   5.883   7.117  0.2372 -4.0101 -1.9624
  947TIP3   OH224475   3.890   5.207   1.301  0.0994 -0.2137 -0.5205
  947TIP3    H124476   3.977   5.224   1.338  0.2112 -0.6853 -0.5665
  947TIP3    H224477   3.830   5.244   1.365  0.3593  3.2598 -2.0278
  948TIP3   OH224478   4.645   1.702   7.045  0.4944  0.1330 -0.3271
  948TIP3    H124479   4.602   1.787   7.049 -0.4208 -0.3018 -0.8059
  948TIP3    H224480   4.604   1.656   6.972  0.0098 -1.2418  0.7541
  949TIP3   OH224481   4.526   0.679   7.680  0.3071 -0.6717 -0.0034
  949TIP3    H124482   4.507   0.687   7.773 -0.7095  0.0760 -0.2562
  949TIP3    H224483   4.571   0.596   7.671 -1.3996 -1.7443  0.8982
  950TIP3   OH224484   1.342   5.801   0.798  0.1238  0.2104  0.2118
  950TIP3    H124485   1.434   5.777   0.807 -0.2361 -0.7027  1.9029
  950TIP3    H224486   1.301   5.724   0.759 -0.1765  0.0291  0.8790
  951TIP3   OH224487   0.326   2.977   8.246 -0.1555  0.1875  0.9846
  951TIP3    H124488   0.239   2.974   8.285 -0.7865  1.1504 -0.2740
  951TIP3    H224489   0.374   2.905   8.288 -2.1762 -1.6667  0.2889
  952TIP3   OH224490   6.487   6.673   0.768  0.4434  0.5328  0.6196
  952TIP3    H124491   6.549   6.713   0.707  1.2667  1.9497  2.2717
  952TIP3    H224492   6.435   6.747   0.800  1.0104  0.1100  2.6672
  953TIP3   OH224493   4.100   6.177   7.591  0.7684 -0.1883  0.3168
  953TIP3    H124494   4.103   6.268   7.561  0.0256 -0.2325  0.0996
  953TIP3    H224495   4.058   6.129   7.519 -0.8847 -0.3233  1.3274
  954TIP3   OH224496   1.864   5.168   7.021  0.1091  0.3638  0.3920
  954TIP3    H124497   1.874   5.118   6.940 -1.6851  0.7889 -0.1302
  954TIP3    H224498   1.833   5.105   7.086 -0.9591  0.5125  0.0496
  955TIP3   OH224499   3.778   2.376   1.684  0.6057 -0.3274 -0.2113
  955TIP3    H124500   3.714   2.305   1.677 -0.3994  0.5594 -0.3707
  955TIP3    H224501   3.752   2.424   1.763  1.2866 -0.1509 -0.0878
  956TIP3   OH224502   4.669   0.826   2.393  0.2637  1.0313 -0.0355
  956TIP3    H124503   4.697   0.872   2.472  0.9312 -2.0597  1.6857
  956TIP3    H224504   4.578   0.852   2.381 -0.5610 -0.0367  3.1107
  957TIP3   OH224505   0.185   2.370   2.558 -0.3834 -0.2686  0.3778
  957TIP3    H124506   0.278   2.393   2.555  0.0199 -1.6606  1.1982
  957TIP3    H224507   0.178   2.291   2.504 -0.8946 -0.7467  1.1245
  958TIP3   OH224508   5.918   5.932   8.632  0.5202 -0.2249  0.1816
  958TIP3    H124509   5.980   5.908   8.563  2.5893  0.2570  1.7873
  958TIP3    H224510   5.944   5.879   8.707 -2.0389 -1.1578  0.5013
  959TIP3   OH224511   6.332   1.500   0.816  0.1307  0.0774  0.4615
  959TIP3    H124512   6.238   1.513   0.833 -0.3385 -1.2763 -0.7797
  959TIP3    H224513   6.348   1.546   0.734  0.1330 -1.0008 -0.1749
  960TIP3   OH224514   4.496   2.306   1.184  0.2006  0.0025  0.7183
  960TIP3    H124515   4.419   2.339   1.137  0.1619  0.6235  1.2176
  960TIP3    H224516   4.551   2.268   1.115  0.7566  2.0645 -0.0532
  961TIP3   OH224517   5.833   1.244   2.268 -0.0482  1.2237  0.7469
  961TIP3    H124518   5.833   1.300   2.190  0.4417  2.2273  1.4405
  961TIP3    H224519   5.921   1.253   2.304 -0.4524  1.2819  1.7567
  962TIP3   OH224520   1.768   0.629   1.710  0.5607 -0.4063  0.9754
  962TIP3    H124521   1.779   0.581   1.792  3.3569  0.2198  1.0560
  962TIP3    H224522   1.824   0.584   1.647 -1.7000 -1.0129 -0.7574
  963TIP3   OH224523   0.280   4.367   0.685  0.5406  0.0566  0.7430
  963TIP3    H124524   0.288   4.271   0.685 -1.8533 -0.2156 -0.2624
  963TIP3    H224525   0.338   4.396   0.756  3.4226 -1.8651 -0.6088
  964TIP3   OH224526   5.385   4.674   0.605  0.4587 -0.0817 -0.2533
  964TIP3    H124527   5.401   4.585   0.572  1.8223 -0.4927  1.3661
  964TIP3    H224528   5.292   4.675   0.626  0.4655 -1.2189 -0.0840
  965TIP3   OH224529   0.414   4.828   7.723  0.5481  0.3052  0.7754
  965TIP3    H124530   0.387   4.859   7.809 -0.4160 -1.2286  1.0646
  965TIP3    H224531   0.501   4.865   7.710 -0.0994  2.2437  1.5011
  966TIP3   OH224532   4.271   6.708   8.051 -0.6467  0.4011 -0.0344
  966TIP3    H124533   4.190   6.666   8.080 -1.4310 -0.1385 -2.6716
  966TIP3    H224534   4.340   6.644   8.069 -1.3370 -0.6077 -0.8739
  967TIP3   OH224535   4.784   1.306   7.839  0.1792  0.0047 -0.5138
  967TIP3    H124536   4.866   1.276   7.800 -0.1583  1.3988 -2.4338
  967TIP3    H224537   4.804   1.393   7.872 -0.4453  0.2382 -0.7363
  968TIP3   OH224538   4.516   2.230   0.348  0.0552 -0.3181 -0.6342
  968TIP3    H124539   4.446   2.186   0.397 -0.2353  0.9930  0.1609
  968TIP3    H224540   4.578   2.259   0.415  1.0544 -0.8898 -1.2791
  969TIP3   OH224541   6.633   1.001   7.236 -0.3201 -0.4026  0.2065
  969TIP3    H124542   6.540   1.011   7.256 -0.1563  0.3285  0.6520
  969TIP3    H224543   6.637   0.929   7.173 -1.3116  0.4808 -0.8912
  970TIP3   OH224544   3.771   5.090   0.136  0.0121 -0.2379  0.4577
  970TIP3    H124545   3.760   5.000   0.165  0.6604  0.2134  2.2132
  970TIP3    H224546   3.848   5.122   0.184  1.1289  0.6131 -1.7349
  971TIP3   OH224547   4.251   1.122   0.607 -0.4058 -0.1168  0.1568
  971TIP3    H124548   4.187   1.159   0.667  0.3649  0.3262  0.7220
  971TIP3    H224549   4.327   1.103   0.661  0.9747  1.9482 -0.9348
  972TIP3   OH224550   5.549   4.809   7.379 -0.0504  0.1194  0.5874
  972TIP3    H124551   5.586   4.785   7.464  1.4347  1.1503  0.2660
  972TIP3    H224552   5.526   4.901   7.387 -2.2572 -0.3830  0.6334
  973TIP3   OH224553   2.637   4.309   6.982 -0.3489 -0.0818  0.0025
  973TIP3    H124554   2.668   4.355   6.904 -1.3435  2.3608  0.9200
  973TIP3    H224555   2.716   4.271   7.021  0.2301 -0.8767 -1.8503
  974TIP3   OH224556   0.627   5.818   0.872 -0.5376  0.2142  0.0829
  974TIP3    H124557   0.621   5.731   0.910 -1.0413  0.4855  0.6594
  974TIP3    H224558   0.539   5.855   0.885 -0.2639  0.8842  0.0408
  975TIP3   OH224559   4.773   0.703   1.014  0.9939 -0.0843  0.6182
  975TIP3    H124560   4.838   0.771   1.032  1.2392 -0.4699  1.1862
  975TIP3    H224561   4.691   0.738   1.049  1.0836 -0.0070  0.7486
  976TIP3   OH224562   5.652   4.961   0.870  0.6728 -0.4075  0.1132
  976TIP3    H124563   5.608   5.018   0.932 -0.3274 -0.8320 -0.1809
  976TIP3    H224564   5.702   5.020   0.813  1.0618  0.0269  0.8998
  977TIP3   OH224565   2.911   3.951   7.637  0.1502 -0.3660 -0.0706
  977TIP3    H124566   2.881   3.922   7.551  1.5531  0.6818 -0.9553
  977TIP3    H224567   3.002   3.923   7.641  0.0805 -0.4542  1.1223
  978TIP3   OH224568   4.561   1.560   7.974  0.8341 -0.1476  0.3979
  978TIP3    H124569   4.524   1.649   7.976  0.2817 -0.3416 -0.4896
  978TIP3    H224570   4.582   1.546   7.881 -1.9859 -2.0724 -0.0780
  979TIP3   OH224571   4.114   6.458   0.552 -0.3178  0.3301  0.1838
  979TIP3    H124572   4.136   6.551   0.549  0.5210  0.1385 -0.0017
  979TIP3    H224573   4.148   6.428   0.636 -2.9637  0.7363  1.4691
  980TIP3   OH224574   2.558   5.951   7.937  0.2496  0.1200  0.5691
  980TIP3    H124575   2.536   5.942   8.029 -2.2059  1.2290  0.1563
  980TIP3    H224576   2.483   5.917   7.890  0.9869  0.5819 -1.0225
  981TIP3   OH224577   5.408   6.631   0.382 -0.0825  0.3414 -0.0392
  981TIP3    H124578   5.396   6.679   0.464 -2.5297 -0.2873  0.0475
  981TIP3    H224579   5.456   6.552   0.408 -1.0252  0.0421  0.8537
  982TIP3   OH224580   1.618   3.584   1.959  0.5777  0.0029 -0.3079
  982TIP3    H124581   1.523   3.570   1.950  0.2183  2.7143 -1.4948
  982TIP3    H224582   1.652   3.574   1.870  1.5780 -1.6747  0.2225
  983TIP3   OH224583   1.616   4.937   0.253  0.5052 -0.2523  0.4488
  983TIP3    H124584   1.617   4.843   0.231  3.0953 -0.2003 -0.0147
  983TIP3    H224585   1.583   4.940   0.343 -0.8749 -1.4502  0.0231
  984TIP3   OH224586   6.206   4.823   0.012  0.1721  0.5213 -0.1789
  984TIP3    H124587   6.112   4.814  -0.003 -0.0225 -0.5095  1.4353
  984TIP3    H224588   6.236   4.734   0.030  1.1188  1.0548  1.0568
  985TIP3   OH224589   2.036   3.717   1.543 -0.1797 -0.1954 -0.1976
  985TIP3    H124590   2.025   3.761   1.459 -2.2010  0.5670  0.4127
  985TIP3    H224591   1.952   3.674   1.559 -0.4190  0.9852  2.1480
  986TIP3   OH224592   2.572   4.147   7.909 -0.3076  0.2938  0.3307
  986TIP3    H124593   2.657   4.106   7.928 -0.9083 -0.0636  2.5351
  986TIP3    H224594   2.555   4.126   7.817  0.4425 -2.5540  0.7418
  987TIP3   OH224595   5.126   2.955   2.067 -0.3142  0.7472 -0.3824
  987TIP3    H124596   5.110   2.977   2.159  2.1294  1.0742  0.0356
  987TIP3    H224597   5.106   3.035   2.019  0.7868  1.3865  0.1914
  988TIP3   OH224598   2.897   0.414   1.124 -0.3092 -0.2237  0.9041
  988TIP3    H124599   2.848   0.362   1.188 -1.2618  0.9719  1.1660
  988TIP3    H224600   2.935   0.486   1.175  0.4555 -0.2678  0.4282
  989TIP3   OH224601   5.308   2.596   8.445  0.0648  0.2963  0.1956
  989TIP3    H124602   5.306   2.685   8.480 -0.6351  1.8392 -3.3461
  989TIP3    H224603   5.216   2.571   8.436  0.2175 -0.1363 -0.2544
  990TIP3   OH224604   3.021   5.584   8.459 -0.0059 -0.6626 -0.5111
  990TIP3    H124605   2.999   5.517   8.524 -0.5445 -0.5385 -0.5645
  990TIP3    H224606   2.956   5.572   8.389 -1.6862  1.4956  0.5662
  991TIP3   OH224607   2.955   4.644   0.655  0.0654 -0.6205  0.2258
  991TIP3    H124608   3.020   4.574   0.661  1.3554  0.5849  0.9167
  991TIP3    H224609   2.972   4.685   0.570  0.6577  0.0930  0.6763
  992TIP3   OH224610   6.810   1.384   8.006  0.2081  0.6463 -0.5666
  992TIP3    H124611   6.805   1.307   7.949  1.7953  0.5058 -0.5589
  992TIP3    H224612   6.899   1.383   8.041 -0.4830  1.1559  1.3412
  993TIP3   OH224613   1.014   1.168   0.689  0.2343  0.1884  0.1571
  993TIP3    H124614   1.078   1.214   0.636  1.0054 -2.2872 -1.2233
  993TIP3    H224615   0.938   1.158   0.632 -1.0193  2.0369  1.3750
  994TIP3   OH224616   2.473   3.072   1.567  0.0231  0.2105 -0.4232
  994TIP3    H124617   2.393   3.064   1.620  0.0544  0.5355 -0.3224
  994TIP3    H224618   2.504   2.982   1.557 -0.6265  0.0246 -0.8852
  995TIP3   OH224619   5.045   4.041   0.270 -0.1840 -0.5416  0.3228
  995TIP3    H124620   5.062   3.957   0.227 -0.7345 -1.4448  1.8013
  995TIP3    H224621   5.117   4.098   0.241  0.2190 -1.5203 -0.6708
  996TIP3   OH224622   3.198   2.177   0.142  0.1091  0.0037 -0.3781
  996TIP3    H124623   3.212   2.237   0.068 -0.6905 -0.3945 -0.8643
  996TIP3    H224624   3.286   2.146   0.164  0.3081 -0.3235 -1.5477
  997TIP3   OH224625   3.656   1.211   8.487 -0.0560  0.3246 -0.0166
  997TIP3    H124626   3.578   1.263   8.467  0.0635  0.6503  0.3761
  997TIP3    H224627   3.655   1.201   8.582  0.5117  0.5286  0.0119
  998TIP3   OH224628   4.441   0.992   2.358 -0.1803  0.6148  0.1583
  998TIP3    H124629   4.496   1.053   2.310 -1.7523  0.8099 -1.4826
  998TIP3    H224630   4.379   0.958   2.293 -1.2988 -0.4214  1.6757
  999TIP3   OH224631   5.777   1.055   0.877 -0.3493  0.1488  0.0325
  999TIP3    H124632   5.702   1.054   0.936 -0.3086 -0.1813  0.0854
  999TIP3    H224633   5.742   1.024   0.793 -0.0244 -1.2344  0.3856
 1000TIP3   OH224634   3.048   0.942   2.557 -0.1572  0.3491 -0.4008
 1000TIP3    H124635   3.048   1.036   2.578 -0.8983 -0.0364  1.5053
 1000TIP3    H224636   3.083   0.900   2.635 -0.8552 -1.0473 -0.8030
 1001TIP3   OH224637   3.379   3.201   1.775  1.1163 -0.6970 -0.0282
 1001TIP3    H124638   3.344   3.184   1.863  0.6800 -0.0060 -0.0634
 1001TIP3    H224639   3.406   3.293   1.777  0.3599 -0.4380 -0.8556
 1002TIP3   OH224640   3.487   4.866   8.181  0.1269  0.2183 -0.2656
 1002TIP3    H124641   3.432   4.802   8.135  0.3174 -0.1915  0.0753
 1002TIP3    H224642   3.426   4.912   8.239 -0.0115  0.3584 -0.5166
 1003TIP3   OH224643   1.848   1.523   8.235  0.1616  0.0721 -0.4218
 1003TIP3    H124644   1.943   1.509   8.232  0.0622 -0.8168  0.2579
 1003TIP3    H224645   1.828   1.571   8.154  1.2279  0.5383 -0.4191
 1004TIP3   OH224646   5.195   5.404   0.006 -0.1366  0.2245  0.2997
 1004TIP3    H124647   5.159   5.483   0.046  0.0797  0.4323  0.0958
 1004TIP3    H224648   5.167   5.409  -0.086  0.2803  0.3144  0.1739
 1005TIP3   OH224649   0.698   6.534   7.833  0.0532 -0.3025  0.6890
 1005TIP3    H124650   0.685   6.602   7.767  0.1761 -0.9617 -0.0321
 1005TIP3    H224651   0.754   6.574   7.899 -0.0548  0.3639  0.3796
 1006TIP3   OH224652   2.903   6.275   7.737 -0.0736  0.3276  0.1491
 1006TIP3    H124653   2.959   6.208   7.776  0.6334  1.4252  1.0870
 1006TIP3    H224654   2.936   6.286   7.648 -0.1210 -0.4848  0.0313
 1007TIP3   OH224655   1.849   5.771   8.655 -0.1539  0.6117  0.1118
 1007TIP3    H124656   1.914   5.763   8.585 -0.7751  0.0300 -0.4140
 1007TIP3    H224657   1.815   5.683   8.666 -0.7085  0.8742  0.5355
 1008TIP3   OH224658   0.114   2.896   0.321 -0.0139  0.3673 -0.0536
 1008TIP3    H124659   0.023   2.923   0.315 -0.8175 -2.0378  0.2943
 1008TIP3    H224660   0.164   2.975   0.298 -2.1042  2.1823  1.2545
 1009TIP3   OH224661   3.488   6.213   7.015 -0.1207  0.6151  0.2208
 1009TIP3    H124662   3.454   6.185   7.100 -1.1155  1.4069  0.1111
 1009TIP3    H224663   3.578   6.181   7.012 -0.5939 -0.8314  0.8922
 1010TIP3   OH224664   4.228   3.098   0.186 -0.8413 -0.5320 -0.1978
 1010TIP3    H124665   4.262   3.054   0.264  2.3790  1.4040 -0.3212
 1010TIP3    H224666   4.277   3.060   0.113 -1.6412 -0.2011 -0.9347
 1011TIP3   OH224667   6.653   0.212   1.867  0.1712 -0.2652 -0.0182
 1011TIP3    H124668   6.709   0.193   1.942 -0.7520 -0.9434  0.5299
 1011TIP3    H224669   6.574   0.251   1.906 -1.0972 -2.2847 -0.4217
 1012TIP3   OH224670   5.303   4.273   1.833 -0.1105 -0.3638 -0.5260
 1012TIP3    H124671   5.316   4.267   1.928  1.4781  0.1480 -0.6808
 1012TIP3    H224672   5.310   4.182   1.803 -0.5033 -0.5155 -0.1680
 1013TIP3   OH224673   5.931   4.646   6.743  0.4809  0.3238 -0.6775
 1013TIP3    H124674   5.837   4.634   6.733  0.2953  1.0991  0.0501
 1013TIP3    H224675   5.967   4.558   6.735 -0.6278 -0.5269  2.3491
 1014TIP3   OH224676   2.392   4.601   7.163  0.3046 -0.2324 -0.2294
 1014TIP3    H124677   2.393   4.666   7.093 -1.6713 -1.9183 -1.9454
 1014TIP3    H224678   2.306   4.609   7.202  0.4725 -1.0080  0.3275
 1015TIP3   OH224679   2.661   3.121   2.001 -0.2729  0.0256 -0.0842
 1015TIP3    H124680   2.670   3.163   1.915  0.0175 -1.0919 -0.6105
 1015TIP3    H224681   2.569   3.134   2.024 -0.5760 -0.4346 -0.9723
 1016TIP3   OH224682   0.848   4.354   7.208 -0.9198  0.3995 -0.5105
 1016TIP3    H124683   0.767   4.404   7.218 -1.5419 -0.8589  1.0825
 1016TIP3    H224684   0.820   4.265   7.192  0.1797  0.4101 -2.9611
 1017TIP3   OH224685   5.025   1.987   7.013  1.0009 -0.4788  0.3503
 1017TIP3    H124686   5.083   2.063   7.002  0.1910 -0.1786 -2.6311
 1017TIP3    H224687   5.083   1.916   7.039  2.5358  0.1480 -1.1817
 1018TIP3   OH224688   5.383   4.687   6.709  0.1470  0.3770  0.2448
 1018TIP3    H124689   5.417   4.773   6.684  0.3709  0.0175 -0.7475
 1018TIP3    H224690   5.393   4.634   6.629  2.5577 -1.3445  1.5422
 1019TIP3   OH224691   2.127   3.572   7.686  0.0793 -0.0034  0.1006
 1019TIP3    H124692   2.170   3.571   7.600 -0.9661  1.1068 -0.4528
 1019TIP3    H224693   2.110   3.479   7.704  2.0587 -0.4341  0.0429
 1020TIP3   OH224694   5.060   0.863   8.252 -0.3103  0.4568  0.1071
 1020TIP3    H124695   5.021   0.899   8.172  0.5905 -1.1284 -1.0820
 1020TIP3    H224696   5.153   0.854   8.232 -0.3066 -1.3312  0.7840
 1021TIP3   OH224697   0.606   5.700   7.723  0.0620 -0.8386  0.6848
 1021TIP3    H124698   0.652   5.701   7.807  0.5436  0.5340  0.4230
 1021TIP3    H224699   0.540   5.770   7.731 -0.3274 -1.1372  0.1578
 1022TIP3   OH224700   2.303   5.983   1.621  0.1348 -0.0617 -0.7730
 1022TIP3    H124701   2.289   5.927   1.698 -1.4905  1.9101  0.4734
 1022TIP3    H224702   2.251   5.943   1.552 -0.5438 -0.4116 -0.0682
 1023TIP3   OH224703   0.472   2.454   0.879 -0.4692  0.0749 -0.2205
 1023TIP3    H124704   0.492   2.541   0.844 -2.3605  0.6576  0.0299
 1023TIP3    H224705   0.536   2.396   0.837  1.6344  1.7286  0.5307
 1024TIP3   OH224706   0.805   0.747   1.273  0.1466 -0.3610 -0.9109
 1024TIP3    H124707   0.716   0.769   1.300 -0.6334 -2.9475 -1.0895
 1024TIP3    H224708   0.830   0.674   1.330  1.8579 -0.1953 -1.3952
 1025TIP3   OH224709   4.931   1.663   1.872 -0.3019  0.1379 -0.4046
 1025TIP3    H124710   5.026   1.661   1.858 -0.1403 -0.2973  0.6382
 1025TIP3    H224711   4.907   1.755   1.858  0.3848  0.3758 -0.0813
 1026TIP3   OH224712   6.422   3.092   8.632 -0.0486  0.5295  0.1310
 1026TIP3    H124713   6.403   3.064   8.721 -0.6546  2.2202  0.5612
 1026TIP3    H224714   6.480   3.167   8.642 -0.5063  1.0348 -0.8750
 1027TIP3   OH224715   4.958   1.523   1.096 -0.0707  0.8544 -0.2933
 1027TIP3    H124716   4.899   1.458   1.057  1.3928  0.1957 -1.4832
 1027TIP3    H224717   5.045   1.499   1.065  1.0642  1.0089  2.4757
 1028TIP3   OH224718   2.717   0.682   1.747 -0.1503  0.3785  0.5371
 1028TIP3    H124719   2.675   0.606   1.706 -0.6933  0.0073  1.7299
 1028TIP3    H224720   2.687   0.757   1.694  0.4971 -0.2255 -0.7339
 1029TIP3   OH224721   5.807   3.706   2.240  0.3077  0.2504  0.1536
 1029TIP3    H124722   5.742   3.642   2.213  1.3248  0.5646 -3.6583
 1029TIP3    H224723   5.879   3.654   2.276 -1.0752 -0.2244  2.4315
 1030TIP3   OH224724   5.106   6.307   8.043  0.1723 -0.0582  0.0256
 1030TIP3    H124725   5.087   6.309   7.950  3.7905 -0.9763 -0.8881
 1030TIP3    H224726   5.113   6.214   8.064 -0.2039  0.1489  1.1521
 1031TIP3   OH224727   1.385   3.167   1.528 -0.1350  0.5806  0.2413
 1031TIP3    H124728   1.290   3.170   1.544 -0.1484  0.4002  0.1902
 1031TIP3    H224729   1.399   3.085   1.481  0.3652 -0.5264  2.2344
 1032TIP3   OH224730   4.879   1.578   0.109 -0.5995  0.3512 -0.0672
 1032TIP3    H124731   4.846   1.666   0.126 -1.9586 -0.2159  0.3287
 1032TIP3    H224732   4.833   1.550   0.030  0.5566  0.3434 -0.7665
 1033TIP3   OH224733   5.065   4.161   7.516  0.3631 -0.1590 -0.2790
 1033TIP3    H124734   5.122   4.087   7.538 -0.0631 -0.7714 -1.1871
 1033TIP3    H224735   5.126   4.232   7.492  0.7603 -0.3810  0.0634
 1034TIP3   OH224736   5.225   2.441   2.024 -0.1638 -0.3792  0.5229
 1034TIP3    H124737   5.240   2.522   2.073  1.7716 -0.2350 -0.2253
 1034TIP3    H224738   5.255   2.461   1.935 -1.0519 -1.4836 -0.0478
 1035TIP3   OH224739   3.615   4.250   0.822 -0.3144  0.1346 -0.0757
 1035TIP3    H124740   3.691   4.308   0.830 -1.7107  1.9423  0.9643
 1035TIP3    H224741   3.652   4.162   0.814  1.8608  0.9571  0.3097
 1036TIP3   OH224742   2.459   0.720   8.561 -0.0962  0.1180 -0.1243
 1036TIP3    H124743   2.455   0.628   8.586  2.0416 -0.1030 -0.4249
 1036TIP3    H224744   2.408   0.766   8.628 -2.5471 -1.3836 -0.8286
 1037TIP3   OH224745   2.192   3.665   2.188 -0.6321 -0.2238  0.1794
 1037TIP3    H124746   2.109   3.711   2.202 -0.1786  0.4986  0.5704
 1037TIP3    H224747   2.222   3.695   2.102 -1.3828 -1.4707 -0.5537
 1038TIP3   OH224748   3.299   0.193   8.574  0.0767 -0.2751 -0.1570
 1038TIP3    H124749   3.205   0.208   8.559  0.0158 -0.3817  0.0992
 1038TIP3    H224750   3.330   0.152   8.493  0.0021  0.1757 -0.4161
 1039TIP3   OH224751   4.564   6.714   6.888 -0.1691  0.8884 -0.2090
 1039TIP3    H124752   4.548   6.646   6.954 -0.2439 -0.8295 -1.9356
 1039TIP3    H224753   4.657   6.734   6.898  1.0552 -2.6908 -2.4443
 1040TIP3   OH224754   5.006   2.396   7.313  0.0330  0.3821 -0.4173
 1040TIP3    H124755   4.994   2.400   7.218 -1.0216  0.9389 -0.2860
 1040TIP3    H224756   5.071   2.464   7.332  0.1622  0.3475 -0.7348
 1041TIP3   OH224757   3.976   2.151   8.241  0.4442 -0.2985 -0.3917
 1041TIP3    H124758   4.023   2.210   8.301 -0.8536 -0.3096  0.6835
 1041TIP3    H224759   3.897   2.200   8.217  0.9912 -0.2543 -2.2220
 1042TIP3   OH224760   1.072   3.566   8.419  0.1955  0.1507  0.1056
 1042TIP3    H124761   1.163   3.564   8.449 -0.4536  0.5946  2.3361
 1042TIP3    H224762   1.065   3.646   8.367  1.5706 -1.0371 -2.0611
 1043TIP3   OH224763   3.533   3.692   2.028 -0.0508  0.0606 -0.1194
 1043TIP3    H124764   3.521   3.607   2.070  0.7724 -0.5835 -1.1245
 1043TIP3    H224765   3.448   3.712   1.990 -0.8740  0.7569  1.9405
 1044TIP3   OH224766   4.134   0.800   7.446 -1.1670  0.2640 -0.3631
 1044TIP3    H124767   4.191   0.805   7.522 -2.3425 -0.7968  0.6427
 1044TIP3    H224768   4.115   0.891   7.423 -1.8162  0.6053  1.4129
 1045TIP3   OH224769   1.718   5.674   1.471  0.5383 -0.0013  0.1142
 1045TIP3    H124770   1.775   5.678   1.394 -0.2177 -1.8715 -0.5999
 1045TIP3    H224771   1.682   5.763   1.479  0.5816  0.2117 -1.7337
 1046TIP3   OH224772   1.844   2.680   2.202  0.0528  0.3576  0.4152
 1046TIP3    H124773   1.923   2.734   2.192 -0.2781  0.9168  0.7221
 1046TIP3    H224774   1.826   2.681   2.297 -0.7876  0.9316  0.2653
 1047TIP3   OH224775   6.284   0.619   8.573  0.0330 -0.1665 -0.6789
 1047TIP3    H124776   6.300   0.646   8.663  1.0936 -0.4797 -0.7699
 1047TIP3    H224777   6.196   0.582   8.574 -0.3940  0.8214 -0.0035
 1048TIP3   OH224778   3.517   4.482   0.318 -0.5813  0.2316  1.4563
 1048TIP3    H124779   3.529   4.573   0.345  0.2612  0.6622 -0.2383
 1048TIP3    H224780   3.547   4.480   0.227 -2.0684 -1.3997  0.9510
 1049TIP3   OH224781   2.441   2.677   1.404  0.2228 -0.3772  0.6354
 1049TIP3    H124782   2.457   2.727   1.484  2.3313 -1.0228  0.6703
 1049TIP3    H224783   2.428   2.744   1.337  1.0033  0.1990  1.0458
 1050TIP3   OH224784   2.411   0.704   0.243  0.4887  0.4884 -0.0335
 1050TIP3    H124785   2.425   0.705   0.338 -0.2467 -0.9267  0.1125
 1050TIP3    H224786   2.397   0.612   0.222 -2.5378  1.0556 -1.0262
 1051TIP3   OH224787   0.298   6.735   7.482 -0.1289 -0.4761 -0.0102
 1051TIP3    H124788   0.208   6.703   7.480 -0.4696  0.3491  0.9868
 1051TIP3    H224789   0.290   6.830   7.477  0.6989 -0.3946 -0.0496
 1052TIP3   OH224790   5.130   4.031   7.283  0.2526  0.6418  0.3006
 1052TIP3    H124791   5.093   4.054   7.368 -0.5373 -0.0662  0.1505
 1052TIP3    H224792   5.211   4.084   7.277 -1.0634  2.7816  0.3029
 1053TIP3   OH224793   2.062   0.305   0.909  0.3857 -0.4665 -0.2182
 1053TIP3    H124794   1.985   0.254   0.934 -0.3583  0.6138 -0.2385
 1053TIP3    H224795   2.133   0.268   0.960 -0.5162 -0.2392  1.2474
 1054TIP3   OH224796   6.428   5.334   0.033 -0.0321  0.0995  0.1140
 1054TIP3    H124797   6.455   5.248   0.001  0.9406  0.0613  0.9646
 1054TIP3    H224798   6.403   5.318   0.124  1.7358  0.9673  0.8005
 1055TIP3   OH224799   5.233   5.513   0.375  0.3261 -0.4043 -0.0951
 1055TIP3    H124800   5.189   5.428   0.381  0.4090 -0.4319  0.1495
 1055TIP3    H224801   5.169   5.569   0.331 -0.8624  0.1201  2.1080
 1056TIP3   OH224802   2.897   1.515   0.386  0.1992 -0.4018 -0.4882
 1056TIP3    H124803   2.898   1.564   0.468 -2.1829 -1.4937  0.2892
 1056TIP3    H224804   2.810   1.533   0.349  0.0755 -2.3067 -1.2262
 1057TIP3   OH224805   5.683   3.468   1.266  0.3735  0.7381  0.4553
 1057TIP3    H124806   5.749   3.465   1.196  0.2767 -0.7541  0.3854
 1057TIP3    H224807   5.657   3.560   1.271  1.7510  1.1881 -0.1814
 1058TIP3   OH224808   1.265   4.280   8.384  0.5613 -0.1979 -0.1605
 1058TIP3    H124809   1.330   4.327   8.434  1.5266  0.9093 -2.3177
 1058TIP3    H224810   1.200   4.251   8.449  1.3535  1.7221  1.5810
 1059TIP3   OH224811   2.600   1.403   0.387  0.2479  0.4170  0.1810
 1059TIP3    H124812   2.506   1.384   0.385  0.3198  0.0019 -2.0596
 1059TIP3    H224813   2.635   1.356   0.312  1.9908  1.8557  0.0393
 1060TIP3   OH224814   1.525   2.504   0.318 -0.1331 -0.0598  0.1530
 1060TIP3    H124815   1.525   2.485   0.411 -0.8067 -0.7668  0.0212
 1060TIP3    H224816   1.440   2.472   0.287 -1.0919  2.5750 -0.2291
 1061TIP3   OH224817   5.947   1.168   7.244 -0.3521  0.8565 -0.3556
 1061TIP3    H124818   5.855   1.184   7.226 -0.6159 -0.0669  0.1274
 1061TIP3    H224819   5.981   1.133   7.161 -0.2616  1.8597 -0.7513
 1062TIP3   OH224820   0.283   1.856   7.320  0.9521  1.0921  0.2791
 1062TIP3    H124821   0.288   1.793   7.248 -2.7552 -0.5182  1.2193
 1062TIP3    H224822   0.251   1.936   7.279 -1.6292  0.0402  0.0523
 1063TIP3   OH224823   6.287   6.297   7.039  0.2192  0.9485  0.1515
 1063TIP3    H124824   6.258   6.280   6.950 -1.1383  0.1281  0.7116
 1063TIP3    H224825   6.381   6.280   7.038  0.0327 -0.1422 -0.8651
 1064TIP3   OH224826   2.995   1.300   2.316  0.3884  0.6607  0.1113
 1064TIP3    H124827   3.049   1.263   2.386 -0.2044  0.7300  0.6141
 1064TIP3    H224828   3.058   1.343   2.258  1.0408 -0.6527 -0.1976
 1065TIP3   OH224829   1.187   5.262   0.381  0.4851  0.0157  0.7551
 1065TIP3    H124830   1.166   5.315   0.304  2.2493  0.9960  0.9098
 1065TIP3    H224831   1.134   5.299   0.451  0.1888  0.2474  0.4123
 1066TIP3   OH224832   1.146   0.827   7.980 -0.5641 -0.2821 -0.1568
 1066TIP3    H124833   1.139   0.775   7.900  0.8637  1.3062 -1.4027
 1066TIP3    H224834   1.209   0.895   7.958 -1.7603  1.5116  1.6250
 1067TIP3   OH224835   2.540   3.632   1.805 -0.3591 -0.3586  0.0873
 1067TIP3    H124836   2.565   3.550   1.846  2.2277 -0.4501 -1.4291
 1067TIP3    H224837   2.617   3.688   1.815 -2.0557  1.9406  1.1010
 1068TIP3   OH224838   4.024   3.484   2.067 -0.5418  0.2225  0.2088
 1068TIP3    H124839   3.950   3.533   2.030  0.1144  0.8507 -0.2927
 1068TIP3    H224840   4.079   3.550   2.108 -0.4066 -0.2797  0.8498
 1069TIP3   OH224841   4.689   3.374   2.107 -0.2314 -0.4734 -0.1188
 1069TIP3    H124842   4.605   3.414   2.132 -0.6204 -1.0105 -0.5340
 1069TIP3    H224843   4.692   3.292   2.158 -0.1668 -0.6719 -0.4401
 1070TIP3   OH224844   0.383   5.854   1.636  0.6368  0.2983 -0.2641
 1070TIP3    H124845   0.293   5.840   1.607 -0.0052  0.8455  1.3915
 1070TIP3    H224846   0.398   5.787   1.703  1.9498 -0.6560 -1.4211
 1071TIP3   OH224847   2.553   5.583   1.064 -0.3554 -0.2668  0.2384
 1071TIP3    H124848   2.524   5.546   0.981 -0.6083 -0.1190  0.2619
 1071TIP3    H224849   2.621   5.523   1.095  0.4578  0.2211 -0.5666
 1072TIP3   OH224850   2.817   2.231   8.643  0.1831 -0.0258  0.1336
 1072TIP3    H124851   2.837   2.143   8.675  0.8046  0.2471  0.5138
 1072TIP3    H224852   2.820   2.286   8.721 -0.9429  0.2212  0.0240
 1073TIP3   OH224853   2.400   0.475   0.573 -0.0567  0.1495 -0.2030
 1073TIP3    H124854   2.378   0.471   0.666  0.0998  0.9548 -0.1237
 1073TIP3    H224855   2.321   0.444   0.529  0.8374 -3.0970  0.2438
 1074TIP3   OH224856   0.398   1.695   1.761 -0.9120  0.0436 -0.2122
 1074TIP3    H124857   0.343   1.620   1.784 -1.2328  1.2067  3.5448
 1074TIP3    H224858   0.335   1.764   1.736 -0.9344  0.2435  0.3735
 1075TIP3   OH224859   5.205   2.457   8.721 -0.0309  0.1459  0.1979
 1075TIP3    H124860   5.296   2.460   8.694 -0.2494 -1.7418 -0.9070
 1075TIP3    H224861   5.157   2.496   8.647 -0.3040 -1.3390 -0.4384
 1076TIP3   OH224862   1.132   0.511   8.443  0.0422 -0.5613  0.3913
 1076TIP3    H124863   1.079   0.526   8.365 -2.4232  1.0894  2.2136
 1076TIP3    H224864   1.208   0.568   8.432 -0.0495 -0.6713 -0.9759
 1077TIP3   OH224865   4.292   0.821   0.677 -0.2764  0.1729 -0.1678
 1077TIP3    H124866   4.246   0.775   0.607 -1.1550 -0.6963  0.9316
 1077TIP3    H224867   4.224   0.871   0.722  0.2233  0.5228  0.2155
 1078TIP3   OH224868   0.456   4.648   7.011  0.2171 -0.0078 -0.6757
 1078TIP3    H124869   0.366   4.659   6.983 -1.0263 -5.2598  0.2964
 1078TIP3    H224870   0.496   4.591   6.945  2.0465  0.0717  0.2847
 1079TIP3   OH224871   1.629   1.447   1.071  0.4665  0.0007  0.5496
 1079TIP3    H124872   1.608   1.455   1.164 -0.7398  2.3072  0.1538
 1079TIP3    H224873   1.544   1.435   1.028  0.8639  0.3278 -0.3644
 1080TIP3   OH224874   0.549   4.353   7.465  1.0638  0.0055  0.0937
 1080TIP3    H124875   0.541   4.405   7.545  0.6129 -1.0490  0.7623
 1080TIP3    H224876   0.529   4.414   7.394  1.1817  0.8885  0.7990
 1081TIP3   OH224877   6.231   6.457   0.489  0.2973  0.4399 -0.3801
 1081TIP3    H124878   6.182   6.375   0.480  3.1273 -1.4835  0.3371
 1081TIP3    H224879   6.227   6.477   0.583  2.0471 -0.6158 -0.0313
 1082TIP3   OH224880   2.296   0.485   2.200 -0.5694 -0.2879  0.4909
 1082TIP3    H124881   2.285   0.408   2.255 -0.4312 -0.6546  0.0126
 1082TIP3    H224882   2.380   0.523   2.229 -0.8382 -0.0727  1.0097
 1083TIP3   OH224883   1.582   1.351   2.406  0.8658 -0.4880 -0.4222
 1083TIP3    H124884   1.525   1.315   2.474  0.3778 -0.0435 -0.5816
 1083TIP3    H224885   1.671   1.332   2.436  0.6896  0.3825  0.7446
 1084TIP3   OH224886   3.807   6.131   0.661  0.1800  0.4301  0.1762
 1084TIP3    H124887   3.781   6.070   0.731 -0.0145 -1.0445 -1.1112
 1084TIP3    H224888   3.778   6.216   0.691 -0.3708 -0.2487  1.6605
 1085TIP3   OH224889   0.223   1.130   8.661 -0.5132  0.2001  0.0197
 1085TIP3    H124890   0.280   1.056   8.683 -0.6894  0.3210  0.9167
 1085TIP3    H224891   0.146   1.119   8.718  0.2994  2.1207  1.5963
 1086TIP3   OH224892   5.216   5.845   5.893  0.5006  0.2562 -0.1635
 1086TIP3    H124893   5.204   5.750   5.894  2.1771  0.0133 -0.0704
 1086TIP3    H224894   5.128   5.881   5.883 -0.0313 -1.3478 -1.7365
 1087TIP3   OH224895   1.434   4.032   7.556  0.5134  0.4320  0.1769
 1087TIP3    H124896   1.477   4.084   7.623 -0.7605 -0.8542  2.0992
 1087TIP3    H224897   1.506   3.983   7.514  1.2776  0.8326  0.9873
 1088TIP3   OH224898   3.649   0.033   0.517 -0.6581 -0.0671 -0.0366
 1088TIP3    H124899   3.653   0.018   0.422  0.2107  2.5090 -0.4940
 1088TIP3    H224900   3.594   0.110   0.527  0.3934  0.5570  1.4082
 1089TIP3   OH224901   0.817   0.328   8.470 -0.2213 -0.3880  0.1464
 1089TIP3    H124902   0.867   0.358   8.545 -0.8548  0.3203  0.2955
 1089TIP3    H224903   0.881   0.283   8.415  0.2779 -0.7750  1.0237
 1090TIP3   OH224904   2.414   2.153   1.214  0.1424 -0.2271  0.3547
 1090TIP3    H124905   2.361   2.102   1.276  0.3528 -0.9085 -0.0229
 1090TIP3    H224906   2.357   2.226   1.189 -0.3412 -0.5385  0.5346
 1091TIP3   OH224907   1.020   1.000   8.371 -0.2552 -0.2732  0.1971
 1091TIP3    H124908   1.054   0.935   8.310 -0.6581 -0.5190  0.2311
 1091TIP3    H224909   1.098   1.046   8.403  0.1834 -1.6298  1.1987
 1092TIP3   OH224910   6.141   5.667   8.424 -0.1694  0.6286 -0.0487
 1092TIP3    H124911   6.221   5.647   8.374  0.4474  2.1980  0.2587
 1092TIP3    H224912   6.127   5.589   8.478  0.9022  0.1409 -0.4365
 1093TIP3   OH224913   2.108   5.169   0.745 -0.0413  0.0069 -0.3252
 1093TIP3    H124914   2.062   5.093   0.780  1.6229 -0.7232  0.3832
 1093TIP3    H224915   2.041   5.217   0.697 -1.3357 -1.4451 -0.0671
 1094TIP3   OH224916   0.802   4.630   0.406 -0.1252  0.6698 -0.1137
 1094TIP3    H124917   0.726   4.578   0.433  1.3202  0.0787  3.4279
 1094TIP3    H224918   0.855   4.570   0.355  0.2613 -0.6035  1.6819
 1095TIP3   OH224919   5.244   0.930   7.537 -0.8831  0.1069 -0.8199
 1095TIP3    H124920   5.181   0.860   7.556 -1.9855  0.8740 -1.5263
 1095TIP3    H224921   5.318   0.885   7.495 -1.6728 -0.6134 -1.4659
 1096TIP3   OH224922   5.014   3.376   8.462 -0.2297 -0.3400 -0.2274
 1096TIP3    H124923   5.086   3.323   8.497  0.3070  0.0793 -0.6719
 1096TIP3    H224924   4.952   3.382   8.534  0.2347 -0.6233  0.2065
 1097TIP3   OH224925   0.802   2.123   1.074  0.2979  0.7137 -0.0444
 1097TIP3    H124926   0.741   2.057   1.040 -1.6411  1.0700  2.4907
 1097TIP3    H224927   0.760   2.206   1.055  0.5072  1.0129  0.7644
 1098TIP3   OH224928   5.539   6.766   0.148 -0.1148 -0.2912 -0.4793
 1098TIP3    H124929   5.628   6.738   0.170  0.0155  0.5784  0.1620
 1098TIP3    H224930   5.485   6.729   0.218  0.0711  1.0798  0.4273
 1099TIP3   OH224931   1.688   4.305   0.203  0.2096  0.2419  0.1434
 1099TIP3    H124932   1.711   4.254   0.281 -0.9242  0.4337  0.6262
 1099TIP3    H224933   1.771   4.344   0.175  1.4973 -3.1860 -1.2927
 1100TIP3   OH224934   3.692   4.987   0.992  0.4902  0.2680 -0.1435
 1100TIP3    H124935   3.621   5.025   0.941  0.4764  0.5369  0.0760
 1100TIP3    H224936   3.772   5.012   0.944  0.4072 -0.6124 -0.7698
 1101TIP3   OH224937   5.059   0.725   7.623  0.6383  0.1049 -0.5753
 1101TIP3    H124938   5.073   0.633   7.602 -0.0785 -0.0453 -0.4214
 1101TIP3    H224939   4.964   0.734   7.630  0.6710  0.9528 -1.0187
 1102TIP3   OH224940   3.714   5.326   7.856  0.1161 -0.1209 -0.5187
 1102TIP3    H124941   3.678   5.280   7.932  4.0629 -3.0680 -0.1119
 1102TIP3    H224942   3.689   5.272   7.781 -2.4730  1.9762 -1.3411
 1103TIP3   OH224943   2.949   4.071   0.439 -0.6156  0.3534 -0.2722
 1103TIP3    H124944   3.013   4.088   0.370 -0.8619 -0.1741 -0.6353
 1103TIP3    H224945   2.912   4.157   0.458 -0.3243  0.5516 -0.5768
 1104TIP3   OH224946   1.059   2.046   1.393 -0.2243  0.2702 -0.3402
 1104TIP3    H124947   1.048   2.100   1.472 -0.9219  0.6270 -0.6681
 1104TIP3    H224948   1.148   2.012   1.399 -0.0830  0.7395  0.3277
 1105TIP3   OH224949   2.926   5.229   0.304  0.2375  0.6532  0.4956
 1105TIP3    H124950   3.019   5.207   0.301  0.1460  0.2003  0.8483
 1105TIP3    H224951   2.886   5.158   0.355 -0.0557  1.7031  1.7640
 1106TIP3   OH224952   5.531   6.236   7.511 -0.3098  0.1640 -0.4061
 1106TIP3    H124953   5.531   6.170   7.580 -1.7694 -0.2908 -0.8133
 1106TIP3    H224954   5.571   6.313   7.551 -0.3059 -0.3767  0.6549
 1107TIP3   OH224955   2.585   3.826   2.103  0.4009 -1.2295  0.3121
 1107TIP3    H124956   2.592   3.731   2.114 -0.5823 -1.4674 -0.9138
 1107TIP3    H224957   2.617   3.842   2.014 -1.8464 -0.7660 -0.4756
 1108TIP3   OH224958   4.504   3.289   8.199  0.7237  0.0511 -0.1274
 1108TIP3    H124959   4.555   3.343   8.260 -2.5803  0.8036  2.3092
 1108TIP3    H224960   4.529   3.199   8.220 -0.5639  0.2505  2.8715
 1109TIP3   OH224961   1.517   4.664   8.120 -0.1090  0.3538  0.7263
 1109TIP3    H124962   1.579   4.728   8.085  0.8578 -1.5015 -1.1460
 1109TIP3    H224963   1.550   4.646   8.208  0.4245  1.3879  0.7580
 1110TIP3   OH224964   1.769   5.892   7.236 -0.3228  0.1307  0.1161
 1110TIP3    H124965   1.796   5.951   7.306 -1.3580  0.7294  0.0356
 1110TIP3    H224966   1.754   5.949   7.161  1.4560 -0.5711 -0.8496
 1111TIP3   OH224967   5.763   0.190   0.392 -0.4006  0.1635  0.0222
 1111TIP3    H124968   5.849   0.197   0.351 -0.7332  1.0895 -0.5380
 1111TIP3    H224969   5.728   0.279   0.391 -0.8401  0.0420  1.4131
 1112TIP3   OH224970   5.488   5.892   1.649  0.1009  0.1091  0.0644
 1112TIP3    H124971   5.497   5.857   1.560  1.0528 -1.4301  0.7104
 1112TIP3    H224972   5.403   5.861   1.679  0.6792 -1.2267  0.4101
 1113TIP3   OH224973   3.567   0.428   7.868  0.5505  0.1500  0.7834
 1113TIP3    H124974   3.614   0.512   7.868 -0.2464  0.6124  1.1886
 1113TIP3    H224975   3.481   0.449   7.904  0.0782 -0.7082  0.1861
 1114TIP3   OH224976   4.327   3.789   0.531 -0.2883 -0.0508 -0.2717
 1114TIP3    H124977   4.388   3.833   0.590 -0.4970 -1.4088  1.0218
 1114TIP3    H224978   4.309   3.853   0.462  1.3308  0.9476  0.1872
 1115TIP3   OH224979   5.733   6.143   1.558  0.2167 -0.4032 -0.0246
 1115TIP3    H124980   5.637   6.134   1.556  0.2839 -1.3287  0.3050
 1115TIP3    H224981   5.756   6.121   1.648  0.6729  0.7078  0.1440
 1116TIP3   OH224982   3.606   6.206   1.166  0.4516  0.1257  0.3039
 1116TIP3    H124983   3.606   6.193   1.261  0.8277  0.7001  0.3912
 1116TIP3    H224984   3.683   6.261   1.150 -0.3596  1.1559 -0.1645
 1117TIP3   OH224985   0.453   0.882   7.494 -0.2424 -0.0185 -0.0788
 1117TIP3    H124986   0.426   0.855   7.582 -2.0625 -0.7280 -0.8098
 1117TIP3    H224987   0.504   0.809   7.461 -0.9800 -0.4767 -0.2195
 1118TIP3   OH224988   1.353   3.413   2.386 -0.9153 -0.0203  0.4389
 1118TIP3    H124989   1.413   3.470   2.432 -0.2385 -1.1491  1.0002
 1118TIP3    H224990   1.292   3.472   2.342 -0.2501  1.1123  1.0058
 1119TIP3   OH224991   6.360   1.605   1.229  0.1332  0.1141  0.2425
 1119TIP3    H124992   6.456   1.604   1.229  0.1389  0.3798  0.4995
 1119TIP3    H224993   6.336   1.674   1.168  0.0986 -0.1879 -0.0880
 1120TIP3   OH224994   3.868   3.318   2.918 -0.1210 -0.2138 -0.1883
 1120TIP3    H124995   3.873   3.325   3.013 -0.5095 -1.7029 -0.0329
 1120TIP3    H224996   3.929   3.385   2.886  0.2626  0.0889  1.1088
 1121TIP3   OH224997   1.550   3.432   1.352 -0.1070 -0.6465  0.3710
 1121TIP3    H124998   1.557   3.421   1.447  0.8679  2.0683  0.7135
 1121TIP3    H224999   1.638   3.414   1.319  0.6871  2.2183  0.5900
 1122TIP3   OH225000   4.268   6.027   1.316  0.0986 -0.0982  0.0283
 1122TIP3    H125001   4.229   5.946   1.348  0.7071 -0.1031  0.7968
 1122TIP3    H225002   4.209   6.096   1.348  1.0211 -0.0513  1.7901
 1123TIP3   OH225003   0.184   2.191   7.636  0.4320  0.3818  0.1886
 1123TIP3    H125004   0.157   2.100   7.648 -0.0212  0.4824 -0.0791
 1123TIP3    H225005   0.230   2.213   7.717  0.1903  0.0406  0.4195
 1124TIP3   OH225006   1.777   3.345   7.228  0.1017  0.1491 -0.4853
 1124TIP3    H125007   1.863   3.319   7.196 -1.1607 -1.1707 -3.0977
 1124TIP3    H225008   1.735   3.387   7.153 -1.8881 -0.1337  0.4040
 1125TIP3   OH225009   2.666   5.502   7.395 -0.5049 -0.2627  0.3261
 1125TIP3    H125010   2.724   5.553   7.452  0.1008 -1.5933  0.9516
 1125TIP3    H225011   2.720   5.430   7.363 -0.5419  0.9305 -2.7688
 1126TIP3   OH225012   3.217   4.443   7.711  0.4237 -0.2760 -0.7282
 1126TIP3    H125013   3.222   4.400   7.796 -0.1211 -2.0555 -1.5425
 1126TIP3    H225014   3.124   4.458   7.697  0.3906 -1.0055 -1.4403
 1127TIP3   OH225015   0.751   6.029   7.828  0.1945 -0.4734 -0.1744
 1127TIP3    H125016   0.806   6.054   7.754  0.4783  0.9889  0.4865
 1127TIP3    H225017   0.662   6.048   7.800  0.4362  2.0881  0.5210
 1128TIP3   OH225018   0.510   5.086   1.738 -0.3167  0.4882  0.6307
 1128TIP3    H125019   0.513   4.992   1.718  0.8695  0.1408  2.2277
 1128TIP3    H225020   0.424   5.099   1.779 -0.5008  0.1145  0.3686
 1129TIP3   OH225021   5.675   4.658   1.337  0.0574 -0.7318 -0.1015
 1129TIP3    H125022   5.719   4.716   1.275  0.2253 -0.6380  0.1039
 1129TIP3    H225023   5.746   4.612   1.382 -0.0163 -0.0606  0.7294
 1130TIP3   OH225024   5.285   6.570   7.314 -0.3393  0.3938 -0.2953
 1130TIP3    H125025   5.235   6.510   7.260  0.4203 -0.3722 -0.1662
 1130TIP3    H225026   5.227   6.645   7.327 -0.6427  0.4873 -1.9427
 1131TIP3   OH225027   3.607   6.137   7.760 -0.8259  0.4926 -0.0047
 1131TIP3    H125028   3.689   6.108   7.719 -0.7530 -0.7153  0.9124
 1131TIP3    H225029   3.629   6.219   7.803 -0.6501  1.2559 -1.5109
 1132TIP3   OH225030   0.319   4.381   7.111  0.3239 -0.0726 -0.1399
 1132TIP3    H125031   0.336   4.302   7.162  1.2187 -0.1842 -0.5877
 1132TIP3    H225032   0.255   4.355   7.046  0.8529 -0.5281 -0.4891
 1133TIP3   OH225033   1.669   3.986   7.831  0.4409  0.2180 -0.3447
 1133TIP3    H125034   1.659   4.067   7.780 -0.9934 -0.3674 -1.0300
 1133TIP3    H225035   1.672   3.917   7.766  1.2007 -0.3496  0.2685
 1134TIP3   OH225036   1.884   1.117   0.792 -0.2365  0.0342 -0.2106
 1134TIP3    H125037   1.975   1.112   0.763 -0.3740 -1.4706 -0.4946
 1134TIP3    H225038   1.879   1.199   0.842  1.1827  0.3069 -0.4610
 1135TIP3   OH225039   4.029   4.535   7.315  0.9628 -0.5454  0.3163
 1135TIP3    H125040   4.049   4.446   7.287  0.6904 -0.3465 -0.5660
 1135TIP3    H225041   3.934   4.537   7.325  1.0656 -0.6410  1.4029
 1136TIP3   OH225042   2.620   2.215   0.414 -0.3203  0.5377  0.3447
 1136TIP3    H125043   2.593   2.227   0.323 -0.2911  1.8192  0.4861
 1136TIP3    H225044   2.540   2.188   0.460 -0.3783  0.0869 -0.0132
 1137TIP3   OH225045   5.619   5.081   7.107 -0.3768  0.0744  0.2067
 1137TIP3    H125046   5.584   5.095   7.194 -1.5432  0.8556 -0.3650
 1137TIP3    H225047   5.589   4.993   7.083  2.9309 -1.7173  1.9165
 1138TIP3   OH225048   2.800   2.655   0.310  0.0062  0.2035 -0.8997
 1138TIP3    H125049   2.812   2.567   0.346 -0.3839  0.7209  0.5829
 1138TIP3    H225050   2.888   2.685   0.289  0.4316  0.3976  1.0045
 1139TIP3   OH225051   2.641   3.322   7.730 -0.5731 -0.1635 -0.2559
 1139TIP3    H125052   2.555   3.359   7.710 -1.0331 -0.0790  1.6699
 1139TIP3    H225053   2.685   3.389   7.783  0.1918 -0.7245 -0.1555
 1140TIP3   OH225054   5.387   0.425   2.674 -0.1303 -0.7140 -0.9445
 1140TIP3    H125055   5.442   0.413   2.751  0.6482  0.5868 -1.2685
 1140TIP3    H225056   5.338   0.505   2.692 -1.7751 -1.7106 -0.7693
 1141TIP3   OH225057   0.624   3.185   1.922 -0.2987  0.0126  0.4804
 1141TIP3    H125058   0.696   3.248   1.920 -0.2781 -0.0216 -0.3082
 1141TIP3    H225059   0.551   3.233   1.962  0.3485 -0.1721  1.9349
 1142TIP3   OH225060   1.636   3.416   7.005 -0.4866  0.0993 -0.1035
 1142TIP3    H125061   1.718   3.419   6.955 -1.2231  2.7277 -1.2945
 1142TIP3    H225062   1.569   3.444   6.943 -2.2946 -1.6413  0.9508
 1143TIP3   OH225063   5.330   4.255   2.104 -0.1522  0.4290 -0.1207
 1143TIP3    H125064   5.408   4.204   2.126 -1.0357 -1.3526 -0.9407
 1143TIP3    H225065   5.267   4.235   2.173 -0.4984  0.4426 -0.4313
 1144TIP3   OH225066   3.164   1.989   1.545  0.0512 -0.0383 -0.3620
 1144TIP3    H125067   3.152   1.937   1.624 -2.5764  0.4070 -0.3584
 1144TIP3    H225068   3.141   1.930   1.473  0.0193  0.2560 -0.5958
 1145TIP3   OH225069   2.708   3.962   0.893 -0.1140 -0.2245  0.0543
 1145TIP3    H125070   2.780   3.917   0.849 -0.2230  0.0126 -0.3737
 1145TIP3    H225071   2.726   4.055   0.880 -0.2014 -0.1513  0.4316
 1146TIP3   OH225072   0.201   4.851   0.437 -0.4769  0.5843  0.4799
 1146TIP3    H125073   0.291   4.821   0.421 -1.4811 -1.2219 -2.4407
 1146TIP3    H225074   0.157   4.775   0.474 -0.9556  1.3348  1.4929
 1147TIP3   OH225075   6.634   4.032   8.140  0.1357  0.1923  0.1987
 1147TIP3    H125076   6.589   4.107   8.101  0.3262  0.7672  1.0653
 1147TIP3    H225077   6.701   4.070   8.196  0.9900 -0.6420 -0.2155
 1148TIP3   OH225078   3.320   2.077   0.901  0.3774  0.6901  0.3079
 1148TIP3    H125079   3.253   2.118   0.848 -2.6904 -2.1540  1.6279
 1148TIP3    H225080   3.377   2.033   0.838 -2.2982 -1.3795 -0.8599
 1149TIP3   OH225081   2.454   4.799   8.103 -0.2088 -0.3206 -0.3580
 1149TIP3    H125082   2.543   4.793   8.137  1.2929  2.0788 -3.3875
 1149TIP3    H225083   2.408   4.725   8.143  2.6460 -0.7783  2.5282
 1150TIP3   OH225084   5.232   1.623   6.736 -0.1836 -0.1500  0.2034
 1150TIP3    H125085   5.189   1.546   6.773 -0.8692 -1.0207 -2.2036
 1150TIP3    H225086   5.309   1.588   6.690  1.3049  1.0176  1.6747
 1151TIP3   OH225087   0.805   0.525   2.164  0.5595  0.5980 -0.2645
 1151TIP3    H125088   0.880   0.466   2.163  0.4653  0.3194  1.9889
 1151TIP3    H225089   0.792   0.550   2.073  1.0269 -2.3219 -1.2347
 1152TIP3   OH225090   6.657   0.724   1.148  0.8355  0.0335  0.0215
 1152TIP3    H125091   6.677   0.705   1.240  1.7905 -0.0858 -0.2043
 1152TIP3    H225092   6.689   0.648   1.100  1.6844  0.7524 -0.5590
 1153TIP3   OH225093   1.276   4.535   8.134 -0.2431  0.2746  0.2819
 1153TIP3    H125094   1.351   4.594   8.132  0.6769 -0.8283  1.3701
 1153TIP3    H225095   1.200   4.594   8.140  0.3930  1.4466 -1.8863
 1154TIP3   OH225096   6.848   3.559   0.641 -0.2636  0.4659 -0.3069
 1154TIP3    H125097   6.782   3.545   0.572 -0.0657 -0.7013 -0.2870
 1154TIP3    H225098   6.834   3.486   0.702  1.1886  0.0556 -0.4219
 1155TIP3   OH225099   0.568   4.528   0.495  0.5938 -0.0192  0.0818
 1155TIP3    H125100   0.533   4.615   0.511  1.1350  0.1977  0.0844
 1155TIP3    H225101   0.576   4.489   0.583 -0.2355 -0.3108  0.0431
 1156TIP3   OH225102   4.422   0.174   8.018  0.0577 -0.2954 -0.2711
 1156TIP3    H125103   4.329   0.173   8.042  0.6325  1.9365  2.5044
 1156TIP3    H225104   4.460   0.103   8.070  0.0637 -0.7218 -0.8441
 1157TIP3   OH225105   2.972   1.040   8.351 -0.2319  0.2403 -0.5365
 1157TIP3    H125106   3.037   0.993   8.404 -1.4920 -0.4728  0.4356
 1157TIP3    H225107   2.968   1.127   8.390 -1.7774 -0.5343  1.1997
 1158TIP3   OH225108   2.112   0.103   7.495 -0.1160  0.2840 -0.1958
 1158TIP3    H125109   2.167   0.118   7.417 -0.6407  1.1946 -0.4028
 1158TIP3    H225110   2.165   0.045   7.551  0.8068  0.6711 -0.6511
 1159TIP3   OH225111   1.389   1.078   1.966  0.3508 -0.3181  0.0400
 1159TIP3    H125112   1.350   1.163   1.948  1.0248 -0.2361 -1.1749
 1159TIP3    H225113   1.454   1.095   2.035  2.4690  0.7852 -2.0636
 1160TIP3   OH225114   6.010   5.331   2.138  0.2914 -0.2331  0.0523
 1160TIP3    H125115   5.955   5.272   2.191 -0.0510 -1.6224 -1.7647
 1160TIP3    H225116   6.100   5.309   2.164  0.1057 -0.1939  0.7586
 1161TIP3   OH225117   0.957   4.834   8.490  0.9648  1.2199 -0.0664
 1161TIP3    H125118   1.044   4.825   8.528  0.8330  0.2015  0.0105
 1161TIP3    H225119   0.898   4.837   8.566  0.9464  2.3181 -0.1005
 1162TIP3   OH225120   3.713   4.351   7.096  0.3488  0.3291 -0.2654
 1162TIP3    H125121   3.713   4.420   7.030 -0.1327  2.6237  1.9859
 1162TIP3    H225122   3.716   4.397   7.180  3.1097 -2.4239  1.4117
 1163TIP3   OH225123   4.240   0.833   0.263  0.3727 -0.0260  0.0967
 1163TIP3    H125124   4.251   0.880   0.180 -1.0615 -0.8127 -0.5785
 1163TIP3    H225125   4.305   0.872   0.321  0.0332  1.9688 -0.7794
 1164TIP3   OH225126   3.181   4.230   7.261 -0.5162 -0.1755  0.3443
 1164TIP3    H125127   3.087   4.221   7.249 -0.5875 -1.4287  1.5663
 1164TIP3    H225128   3.201   4.318   7.230 -2.5462  1.2143  2.5953
 1165TIP3   OH225129   4.440   5.859   2.447  0.7814  0.0967 -0.0169
 1165TIP3    H125130   4.384   5.912   2.391 -0.8972 -1.1055  0.4411
 1165TIP3    H225131   4.472   5.921   2.513  1.2385  1.1167 -1.1498
 1166TIP3   OH225132   5.175   5.244   0.418 -0.4271  0.4592  0.0810
 1166TIP3    H125133   5.172   5.276   0.508 -0.4236  2.4126 -0.5679
 1166TIP3    H225134   5.234   5.169   0.422 -1.6751 -0.5127  1.9666
 1167TIP3   OH225135   1.268   2.405   0.299  0.3487 -0.4574  0.1575
 1167TIP3    H125136   1.298   2.314   0.297 -0.7932 -0.9631  2.6109
 1167TIP3    H225137   1.173   2.399   0.290  0.2359  0.4626  0.6482
 1168TIP3   OH225138   0.302   1.431   7.698  0.2376 -0.3104 -0.0714
 1168TIP3    H125139   0.391   1.425   7.662  0.4770  0.5550  0.3266
 1168TIP3    H225140   0.301   1.516   7.743 -1.1349  0.1805 -0.9976
 1169TIP3   OH225141   2.447   2.600   0.317 -0.1180  0.2021 -0.0608
 1169TIP3    H125142   2.505   2.630   0.246  0.9458  0.9278  1.0765
 1169TIP3    H225143   2.403   2.678   0.347  0.5721  0.1762  1.0644
 1170TIP3   OH225144   2.579   4.067   7.341  0.3772 -0.5706  0.4276
 1170TIP3    H125145   2.552   4.158   7.330  1.6157 -0.1884  0.3113
 1170TIP3    H225146   2.540   4.021   7.267  0.9810  0.1763 -0.3753
 1171TIP3   OH225147   3.359   1.873   2.645  0.2574  0.0524 -0.1248
 1171TIP3    H125148   3.264   1.886   2.640  0.3161  0.3898 -0.4381
 1171TIP3    H225149   3.373   1.785   2.612 -0.0106 -0.2602  0.5695
 1172TIP3   OH225150   1.384   5.561   7.572 -0.3103 -0.0659 -0.6719
 1172TIP3    H125151   1.473   5.596   7.567 -0.2853 -0.2388 -1.6180
 1172TIP3    H225152   1.392   5.483   7.627 -0.2610  1.0531  0.9559
 1173TIP3   OH225153   0.197   6.485   0.828  0.2464  0.2403 -0.1953
 1173TIP3    H125154   0.122   6.532   0.793  0.7050 -0.2479 -1.9020
 1173TIP3    H225155   0.252   6.465   0.752  1.0981 -1.1982  0.7311
 1174TIP3   OH225156   3.732   0.935   7.953  0.1392 -0.2754  0.2585
 1174TIP3    H125157   3.691   0.968   7.874  1.0461 -1.7587 -0.8884
 1174TIP3    H225158   3.663   0.939   8.020 -1.1675 -0.6192 -1.0266
 1175TIP3   OH225159   6.056   3.266   7.537  0.1652  0.3819 -0.5443
 1175TIP3    H125160   6.031   3.227   7.621  0.5646  0.1916 -0.5113
 1175TIP3    H225161   6.085   3.191   7.484 -2.4648  0.0920 -1.7543
 1176TIP3   OH225162   4.958   1.357   8.595 -0.1803  0.1303  0.3025
 1176TIP3    H125163   5.038   1.403   8.571 -0.6151  0.0595 -1.3936
 1176TIP3    H225164   4.932   1.310   8.516 -2.0758  0.4063  0.6965
 1177TIP3   OH225165   5.988   6.516   7.860 -0.4216  0.1438 -0.9355
 1177TIP3    H125166   6.005   6.477   7.946 -3.2916  0.6034 -0.0687
 1177TIP3    H225167   6.036   6.600   7.861  1.9903 -1.1352 -1.0386
 1178TIP3   OH225168   0.482   1.453   1.297 -0.1498 -0.4123  0.3551
 1178TIP3    H125169   0.402   1.411   1.330 -1.0731 -0.0560 -1.3110
 1178TIP3    H225170   0.517   1.500   1.373 -1.4003 -0.7726  1.1923
 1179TIP3   OH225171   4.404   6.076   7.192 -0.2725  0.4537  0.0630
 1179TIP3    H125172   4.476   6.114   7.141 -0.3384 -0.4148 -0.7063
 1179TIP3    H225173   4.336   6.057   7.126  1.1624 -4.5165 -0.3576
 1180TIP3   OH225174   2.586   5.213   7.584 -0.1045  0.6387  0.3878
 1180TIP3    H125175   2.642   5.150   7.539  0.2799  1.6000 -0.5436
 1180TIP3    H225176   2.504   5.211   7.535  0.1400  1.3233 -0.0706
 1181TIP3   OH225177   5.680   3.043   7.531 -0.7511  0.3635 -0.1089
 1181TIP3    H125178   5.670   3.138   7.538  0.1867  0.5643 -1.2298
 1181TIP3    H225179   5.758   3.031   7.477 -0.7958 -1.0536  0.1081
 1182TIP3   OH225180   4.595   6.533   1.186  0.4296  0.2708  0.2105
 1182TIP3    H125181   4.655   6.546   1.260 -3.0487 -0.3946  3.4889
 1182TIP3    H225182   4.575   6.439   1.187 -1.9507  0.7050  0.5191
 1183TIP3   OH225183   0.840   5.514   8.687 -0.1861  0.3083 -0.2980
 1183TIP3    H125184   0.876   5.449   8.626  1.6371 -1.7321  2.6765
 1183TIP3    H225185   0.900   5.588   8.680  0.9033 -0.5062 -0.0073
 1184TIP3   OH225186   3.246   3.254   1.454 -0.3285  0.3065 -0.4586
 1184TIP3    H125187   3.268   3.329   1.509 -1.3566  0.7880 -0.6949
 1184TIP3    H225188   3.330   3.226   1.418  0.2761  0.3814  0.8316
 1185TIP3   OH225189   5.892   5.002   7.350 -0.5020  0.2135 -0.6616
 1185TIP3    H125190   5.871   4.923   7.300  0.2408 -0.7575  0.4888
 1185TIP3    H225191   5.828   5.002   7.421  0.6015 -0.3585  0.3638
 1186TIP3   OH225192   1.149   2.839   2.455 -0.2501  0.1073  0.1072
 1186TIP3    H125193   1.208   2.779   2.501  0.3725 -0.4457 -1.3679
 1186TIP3    H225194   1.207   2.898   2.407 -0.8901  0.3742 -0.3455
 1187TIP3   OH225195   0.365   6.326   8.003  0.1664  0.6127 -0.1557
 1187TIP3    H125196   0.450   6.324   7.959  0.6308 -1.0011  0.6979
 1187TIP3    H225197   0.301   6.325   7.932  0.8697 -2.6860 -0.9502
 1188TIP3   OH225198   4.854   5.604   6.708  0.1682 -0.0046 -0.1944
 1188TIP3    H125199   4.842   5.512   6.731 -0.1507  0.2559  0.7087
 1188TIP3    H225200   4.922   5.603   6.641  0.0712 -0.9082 -0.2901
 1189TIP3   OH225201   2.629   4.415   7.657 -0.0667  0.5080 -0.4676
 1189TIP3    H125202   2.648   4.385   7.568  0.5730 -1.2299  0.1972
 1189TIP3    H225203   2.668   4.502   7.662  2.3445 -0.4613 -1.0763
 1190TIP3   OH225204   0.756   0.939   7.804 -0.2577  0.1208 -0.4329
 1190TIP3    H125205   0.811   0.906   7.732  0.3585 -0.0929  0.1304
 1190TIP3    H225206   0.707   0.862   7.833  0.0812  0.0249 -0.1048
 1191TIP3   OH225207   3.857   0.833   2.049  0.7841  0.2805 -0.0478
 1191TIP3    H125208   3.877   0.798   1.962 -0.3918 -3.4247  0.9651
 1191TIP3    H225209   3.937   0.817   2.099  0.2948 -1.0060  0.3773
 1192TIP3   OH225210   4.738   5.851   8.132 -1.2007 -0.2422 -0.5772
 1192TIP3    H125211   4.755   5.780   8.070 -2.7348 -0.9054 -0.3069
 1192TIP3    H225212   4.792   5.830   8.208 -0.7666 -0.4916 -0.9510
 1193TIP3   OH225213   4.041   1.810   1.208 -0.7993  0.2403  0.2320
 1193TIP3    H125214   3.991   1.728   1.208  0.6487 -0.6994  0.4619
 1193TIP3    H225215   4.025   1.847   1.294 -0.4098 -0.5196  0.6479
 1194TIP3   OH225216   0.065   1.954   7.593  0.4324 -0.4172 -0.4216
 1194TIP3    H125217  -0.016   1.939   7.545  0.8626  0.4403 -1.4593
 1194TIP3    H225218   0.127   1.892   7.554  0.9873  0.8000 -1.5545
 1195TIP3   OH225219   2.629   6.749   1.955  0.4578 -0.4547 -0.2796
 1195TIP3    H125220   2.573   6.672   1.961 -0.4704  0.2028 -0.2595
 1195TIP3    H225221   2.716   6.718   1.980  0.2259 -1.6210 -0.8606
 1196TIP3   OH225222   5.228   3.409   7.958 -0.5927 -0.3235 -0.1478
 1196TIP3    H125223   5.196   3.392   8.047 -1.8936  2.7774  0.1055
 1196TIP3    H225224   5.315   3.445   7.971 -0.4188 -0.7302 -0.1928
 1197TIP3   OH225225   4.174   3.265   2.188  0.6273  0.3168  0.2540
 1197TIP3    H125226   4.216   3.243   2.105  1.1775 -0.8106  0.8016
 1197TIP3    H225227   4.114   3.336   2.167  0.6111 -0.0789 -1.1458
 1198TIP3   OH225228   3.773   6.187   7.121  0.4059  0.6783 -0.2740
 1198TIP3    H125229   3.799   6.116   7.179  0.6818  0.6204 -0.4677
 1198TIP3    H225230   3.782   6.151   7.033  1.5823  1.2814 -0.4247
 1199TIP3   OH225231   5.054   0.843   1.708  0.1109  0.5938  0.1270
 1199TIP3    H125232   4.994   0.817   1.638  0.9954  0.8138 -0.7420
 1199TIP3    H225233   4.998   0.871   1.780 -0.8257 -0.4838 -0.1711
 1200TIP3   OH225234   4.688   4.791   7.565  0.2835 -0.5651 -0.5775
 1200TIP3    H125235   4.619   4.727   7.583  0.2109 -0.2681  0.2271
 1200TIP3    H225236   4.769   4.740   7.562  0.0392 -0.9114 -1.5058
 1201TIP3   OH225237   0.724   6.403   1.328 -0.4397  0.2304  0.1706
 1201TIP3    H125238   0.772   6.358   1.259 -1.3091  1.0160 -0.9734
 1201TIP3    H225239   0.773   6.485   1.341  0.1382 -0.2362  1.0156
 1202TIP3   OH225240   5.027   5.123   7.146 -0.8519  0.4279 -0.1594
 1202TIP3    H125241   5.103   5.122   7.204 -1.1864  2.9683  0.4247
 1202TIP3    H225242   4.952   5.140   7.204 -1.3587  1.7224 -1.1367
 1203TIP3   OH225243   2.301   2.346   8.677  0.4415 -0.2018  0.3706
 1203TIP3    H125244   2.338   2.423   8.634  1.7120 -0.5577  0.7818
 1203TIP3    H225245   2.284   2.374   8.767 -2.5209  0.6403 -0.3588
 1204TIP3   OH225246   3.542   2.080   7.743 -0.0171  0.0630 -0.3518
 1204TIP3    H125247   3.637   2.073   7.748  0.1427  1.6860 -0.6513
 1204TIP3    H225248   3.510   2.008   7.798  1.4213  2.2508  3.7464
 1205TIP3   OH225249   0.462   4.713   7.475 -0.3392 -0.3404 -0.1214
 1205TIP3    H125250   0.430   4.736   7.563 -1.9625 -1.1026 -0.4746
 1205TIP3    H225251   0.416   4.632   7.453  1.4992 -1.2462 -0.9181
 1206TIP3   OH225252   6.199   4.231   1.297  0.5193 -0.3286 -0.1806
 1206TIP3    H125253   6.216   4.324   1.283  1.8430 -0.5138  0.0268
 1206TIP3    H225254   6.120   4.228   1.351  1.1588  0.7217  0.8515
 1207TIP3   OH225255   1.014   2.531   2.555 -0.5699 -0.1942  0.9048
 1207TIP3    H125256   1.053   2.614   2.582  0.8168  0.0633 -1.6354
 1207TIP3    H225257   1.070   2.464   2.595 -0.4442  0.1109  1.2443
 1208TIP3   OH225258   0.082   1.855   1.523 -0.0435 -0.1686 -0.2968
 1208TIP3    H125259   0.067   1.943   1.489  0.0178  0.2401  0.6784
 1208TIP3    H225260   0.171   1.857   1.557 -0.4482 -0.2149  0.8263
 1209TIP3   OH225261   5.782   6.264   2.069  0.6898 -0.0289 -0.1853
 1209TIP3    H125262   5.825   6.200   2.125 -0.8083  0.7186  1.9753
 1209TIP3    H225263   5.749   6.330   2.130 -2.3342  0.0981 -1.7763
 1210TIP3   OH225264   6.700   2.980   0.209 -0.2575  0.3801 -0.7053
 1210TIP3    H125265   6.631   2.916   0.223  1.2109 -0.6297  3.2798
 1210TIP3    H225266   6.656   3.065   0.218 -1.1413 -0.2179  0.8871
 1211TIP3   OH225267   5.097   1.652   0.659  0.7188  0.0362  0.2362
 1211TIP3    H125268   5.063   1.627   0.573  0.7266 -0.9997  0.5228
 1211TIP3    H225269   5.128   1.570   0.698  2.8275  0.7849  0.3147
 1212TIP3   OH225270   2.882   1.742   7.502 -0.2572 -0.2775  0.0116
 1212TIP3    H125271   2.936   1.663   7.501 -1.6441 -1.2633 -0.1636
 1212TIP3    H225272   2.792   1.710   7.509 -0.9333  1.2473 -1.0411
 1213TIP3   OH225273   4.091   0.651   1.268 -0.0056 -0.1142  0.1312
 1213TIP3    H125274   4.059   0.740   1.281  0.0032 -0.1130  0.1456
 1213TIP3    H225275   4.013   0.599   1.252 -0.1657 -0.3872  1.6483
 1214TIP3   OH225276   3.733   4.754   2.277 -0.1115 -0.0493 -0.7118
 1214TIP3    H125277   3.662   4.801   2.322 -0.5365 -1.3062 -0.0371
 1214TIP3    H225278   3.811   4.774   2.329 -0.5892 -1.4522  0.6068
 1215TIP3   OH225279   3.019   4.276   8.114 -0.0720  0.2570 -0.4825
 1215TIP3    H125280   2.964   4.227   8.175 -2.2249  1.3308 -1.4828
 1215TIP3    H225281   3.015   4.226   8.032 -2.6293  2.1520 -1.6401
 1216TIP3   OH225282   0.036   1.618   7.516 -0.0412  0.1783 -0.7346
 1216TIP3    H125283   0.123   1.653   7.532  0.7056 -1.1768 -1.6302
 1216TIP3    H225284  -0.011   1.687   7.469  0.6578  0.7756 -0.5648
 1217TIP3   OH225285   1.252   5.953   7.265  0.7742 -0.1013  0.2930
 1217TIP3    H125286   1.228   5.914   7.181 -2.2887  0.6035  0.7156
 1217TIP3    H225287   1.245   6.047   7.250 -0.5499  0.0152  1.4759
 1218TIP3   OH225288   2.143   6.750   1.077  0.0183 -0.3334 -0.2695
 1218TIP3    H125289   2.105   6.662   1.072  0.6290 -0.7185  1.3080
 1218TIP3    H225290   2.148   6.769   1.171 -0.1410  1.4193 -0.5781
 1219TIP3   OH225291   0.901   5.947   7.252  0.4146  0.0276 -0.0327
 1219TIP3    H125292   0.928   6.019   7.195 -1.7471 -0.2674 -1.5214
 1219TIP3    H225293   0.873   5.989   7.333  1.7052  0.5947  0.1528
 1220TIP3   OH225294   5.194   2.361   7.668 -0.2005 -0.0060  0.2361
 1220TIP3    H125295   5.254   2.388   7.598 -0.1263 -0.9228 -0.0685
 1220TIP3    H225296   5.241   2.382   7.749  0.7566 -1.1315  0.0085
 1221TIP3   OH225297   2.199   3.867   1.718 -0.5444  0.0648 -0.5704
 1221TIP3    H125298   2.124   3.830   1.672 -0.5566 -0.2133 -0.3236
 1221TIP3    H225299   2.186   3.962   1.712 -0.7374  0.0241 -0.8202
 1222TIP3   OH225300   6.030   0.187   0.316  0.1203 -0.4567  0.1109
 1222TIP3    H125301   6.062   0.253   0.254  0.3915  0.8303  1.5810
 1222TIP3    H225302   6.050   0.222   0.402 -2.4131 -1.0742  1.0453
 1223TIP3   OH225303   4.043   1.253   0.745 -0.2315 -0.3816  0.1269
 1223TIP3    H125304   3.962   1.283   0.705 -0.1151 -0.1582  0.0548
 1223TIP3    H225305   4.026   1.254   0.839 -0.0893  0.3357  0.1510
 1224TIP3   OH225306   0.387   6.843   0.794 -0.1306 -0.7518 -0.6062
 1224TIP3    H125307   0.460   6.879   0.744  0.1637 -2.1991 -1.2751
 1224TIP3    H225308   0.333   6.797   0.729  0.6498 -3.3153  0.4176
 1225TIP3   OH225309   2.677   3.442   0.826  0.5199  0.1802 -0.1321
 1225TIP3    H125310   2.629   3.504   0.770 -0.8608  0.2193  1.0331
 1225TIP3    H225311   2.689   3.490   0.908 -0.7647 -1.1473  0.8685
 1226TIP3   OH225312   1.221   4.200   8.135 -0.6898  0.2500  0.2712
 1226TIP3    H125313   1.228   4.211   8.230 -0.6869  0.3017  0.2649
 1226TIP3    H225314   1.192   4.286   8.104 -1.1383  0.0998  0.2732
 1227TIP3   OH225315   1.127   5.618   0.944  0.0642  0.4894  0.8570
 1227TIP3    H125316   1.088   5.658   1.022 -1.4820  0.3868  0.1580
 1227TIP3    H225317   1.102   5.676   0.872  1.6927  0.7240  0.4437
 1228TIP3   OH225318   2.241   6.696   2.526  0.7875  0.5097  0.1760
 1228TIP3    H125319   2.154   6.666   2.500  0.4618  2.9387 -1.8971
 1228TIP3    H225320   2.298   6.620   2.512 -0.6770 -0.5626 -0.2166
 1229TIP3   OH225321   2.172   6.108   0.196 -0.1597 -0.1395  0.4212
 1229TIP3    H125322   2.086   6.067   0.185 -0.5541 -0.1014  2.8250
 1229TIP3    H225323   2.200   6.128   0.107 -1.2298 -2.9791 -0.6735
 1230TIP3   OH225324   2.232   1.203   1.837  0.3934  0.3569 -0.3317
 1230TIP3    H125325   2.208   1.270   1.774 -0.3423  0.7350  0.3313
 1230TIP3    H225326   2.164   1.207   1.905  0.1584 -1.2641 -0.4176
 1231TIP3   OH225327   3.145   2.887   2.611 -0.2107 -0.2753  0.4711
 1231TIP3    H125328   3.237   2.909   2.594  0.3224 -2.0355  0.9132
 1231TIP3    H225329   3.103   2.889   2.525 -0.1166  1.8699  0.4120
 1232TIP3   OH225330   5.861   0.478   1.406  0.2054 -0.5574  0.1973
 1232TIP3    H125331   5.861   0.401   1.350  0.9673 -1.7103  1.7024
 1232TIP3    H225332   5.952   0.506   1.409 -0.0077  0.1960 -0.0367
 1233TIP3   OH225333   5.727   0.552   0.536 -0.5637 -0.3445 -0.0530
 1233TIP3    H125334   5.730   0.471   0.587 -0.9130 -0.1512  0.2736
 1233TIP3    H225335   5.804   0.601   0.566  0.7628 -1.3550 -1.6091
 1234TIP3   OH225336   5.276   5.352   2.000 -0.3277  0.1441  0.3580
 1234TIP3    H125337   5.233   5.365   2.085  0.5874 -1.9059  1.2262
 1234TIP3    H225338   5.351   5.295   2.020  0.9281  1.0111 -1.5820
 1235TIP3   OH225339   2.042   2.142   1.141  0.1133  0.1449 -0.3011
 1235TIP3    H125340   2.091   2.216   1.106  0.2930  0.4681  0.6144
 1235TIP3    H225341   2.100   2.102   1.205  0.2157 -1.1112 -1.1507
 1236TIP3   OH225342   6.696   6.362   0.639 -0.0607  0.1833  0.3338
 1236TIP3    H125343   6.730   6.273   0.636 -1.2326 -0.2730  0.0280
 1236TIP3    H225344   6.731   6.403   0.559 -1.8600 -0.9283 -1.1173
 1237TIP3   OH225345   3.627   3.314   0.958  0.5589 -0.0534 -0.5279
 1237TIP3    H125346   3.562   3.251   0.989  1.3203 -1.0341 -0.8660
 1237TIP3    H225347   3.575   3.390   0.930 -0.3336 -0.3100  0.3828
 1238TIP3   OH225348   1.034   4.250   8.587  0.7241 -0.5302  0.8094
 1238TIP3    H125349   0.974   4.238   8.661  0.2508 -0.1806  0.4921
 1238TIP3    H225350   1.013   4.337   8.553  0.9617 -0.6699  0.2866
 1239TIP3   OH225351   5.540   1.086   1.514 -0.1363  0.2209  0.1761
 1239TIP3    H125352   5.524   0.994   1.538 -1.0434  0.4566  0.5212
 1239TIP3    H225353   5.559   1.084   1.421 -1.7421 -0.1631 -0.1733
 1240TIP3   OH225354   1.738   4.503   1.622 -0.0267 -0.4931  0.1068
 1240TIP3    H125355   1.755   4.410   1.634  0.0916 -0.1830  3.0973
 1240TIP3    H225356   1.810   4.547   1.667 -0.8747  1.0134  0.0725
 1241TIP3   OH225357   2.214   3.674   2.856  0.0704  1.2418 -0.1889
 1241TIP3    H125358   2.283   3.731   2.824  0.0608  0.3106 -2.0657
 1241TIP3    H225359   2.133   3.724   2.843  0.2821  1.9574  1.1025
 1242TIP3   OH225360   5.346   1.093   7.837 -0.2655 -0.4422 -0.1624
 1242TIP3    H125361   5.340   1.183   7.806 -0.9600 -0.5117 -0.2435
 1242TIP3    H225362   5.258   1.057   7.825  0.1498 -1.3179 -0.7031
 1243TIP3   OH225363   1.187   6.400   2.108 -0.1441 -0.5747  0.3363
 1243TIP3    H125364   1.256   6.442   2.160 -0.0454 -1.7850  1.2210
 1243TIP3    H225365   1.202   6.307   2.120 -0.3014 -0.9075 -1.6564
 1244TIP3   OH225366   2.493   4.322   7.236 -0.0621  0.6392  0.0090
 1244TIP3    H125367   2.478   4.415   7.253 -0.8715  0.3454  1.0621
 1244TIP3    H225368   2.541   4.319   7.153 -1.0347  1.9396 -0.6262
 1245TIP3   OH225369   0.917   5.883   2.811 -0.5044  0.3398  0.7764
 1245TIP3    H125370   0.853   5.940   2.768 -1.1273 -0.3512  0.7659
 1245TIP3    H225371   0.869   5.846   2.885 -0.5934 -1.3138 -0.0634
 1246TIP3   OH225372   5.569   0.290   0.116 -0.1454  0.6175 -0.1566
 1246TIP3    H125373   5.605   0.349   0.182 -1.4083  0.3808  0.7914
 1246TIP3    H225374   5.645   0.260   0.066  0.7879  1.1612  0.8907
 1247TIP3   OH225375   0.924   6.680   2.223  0.4648  0.1200  0.0847
 1247TIP3    H125376   0.954   6.675   2.314  0.7107  1.5808  0.0988
 1247TIP3    H225377   0.839   6.635   2.223  1.3195 -1.5852  0.6183
 1248TIP3   OH225378   5.244   1.682   1.353 -0.0866  0.0201  0.4476
 1248TIP3    H125379   5.263   1.642   1.268  1.5620  1.4839  0.0829
 1248TIP3    H225380   5.158   1.647   1.377  0.6005 -2.5679 -0.5037
 1249TIP3   OH225381   3.538   1.988   8.273 -0.4904 -0.2804  0.3107
 1249TIP3    H125382   3.604   2.016   8.209  0.0405  3.6858  2.2875
 1249TIP3    H225383   3.454   2.009   8.231 -0.2337  0.3770  0.1142
 1250TIP3   OH225384   0.203   5.855   2.722 -0.1104 -0.3343  0.4353
 1250TIP3    H125385   0.275   5.812   2.674  1.1552  0.9090  1.1490
 1250TIP3    H225386   0.245   5.929   2.766 -2.4536  2.7060 -2.0586
 1251TIP3   OH225387   6.108   0.297   0.540  0.0632 -0.6284 -0.4214
 1251TIP3    H125388   6.201   0.310   0.522 -0.1536  0.7796 -0.6791
 1251TIP3    H225389   6.078   0.382   0.575 -1.0871 -1.1052 -0.1902
 1252TIP3   OH225390   0.096   6.852   2.821 -0.3465 -0.0471 -0.0948
 1252TIP3    H125391   0.126   6.866   2.911  0.8763 -1.0666 -0.3154
 1252TIP3    H225392   0.050   6.768   2.824 -3.3236  1.4849  0.2310
 1253TIP3   OH225393   0.089   3.955   8.520  0.6548 -0.0556 -0.1403
 1253TIP3    H125394   0.062   4.046   8.526  2.5822  0.4490  3.2968
 1253TIP3    H225395   0.159   3.954   8.454  1.6303  1.2744  0.8399
 1254TIP3   OH225396   3.227   2.740   7.015 -0.5037 -0.4765 -0.2382
 1254TIP3    H125397   3.287   2.701   7.079  1.5199  2.4114 -0.1601
 1254TIP3    H225398   3.265   2.719   6.930  0.6855  1.2835 -0.1915
 1255TIP3   OH225399   6.789   4.168   6.906  0.0233 -0.3226  0.2008
 1255TIP3    H125400   6.722   4.150   6.841  1.1129 -0.2317 -0.9838
 1255TIP3    H225401   6.743   4.162   6.990 -0.8863 -3.0120 -0.3858
 1256TIP3   OH225402   1.633   3.286   1.955 -0.1964  0.0377 -0.1258
 1256TIP3    H125403   1.650   3.361   2.011 -1.3380  1.2963 -1.3846
 1256TIP3    H225404   1.542   3.263   1.972 -0.2802 -0.1559 -0.8018
 1257TIP3   OH225405   3.219   4.668   1.342 -0.3161 -0.5469 -0.3706
 1257TIP3    H125406   3.181   4.752   1.318 -0.4937 -0.5465 -0.0913
 1257TIP3    H225407   3.170   4.604   1.289 -1.0955 -0.5997  0.3924
 1258TIP3   OH225408   3.605   0.997   2.217  0.4227 -0.7588 -0.2901
 1258TIP3    H125409   3.610   1.091   2.199 -0.2592 -0.7728 -0.5737
 1258TIP3    H225410   3.669   0.983   2.287 -1.7108  0.4858  2.0619
 1259TIP3   OH225411   3.872   0.086   8.093  0.3900  0.4600  0.1594
 1259TIP3    H125412   3.961   0.082   8.126  0.9905  0.1038 -1.4097
 1259TIP3    H225413   3.871   0.162   8.036 -0.2770  0.3908  0.0733
 1260TIP3   OH225414   2.024   1.928   2.270 -0.2289  1.0747 -0.2820
 1260TIP3    H125415   2.103   1.874   2.276 -0.8511  0.2771  1.3037
 1260TIP3    H225416   2.005   1.933   2.176 -0.4153 -1.8568 -0.4763
 1261TIP3   OH225417   5.819   5.569   8.280 -0.2935 -0.6137  0.3934
 1261TIP3    H125418   5.855   5.553   8.193 -1.5817 -1.2127 -0.0583
 1261TIP3    H225419   5.846   5.493   8.331  0.2250 -0.4006  0.4363
 1262TIP3   OH225420   4.764   3.943   0.097 -0.0521  0.3783  0.2276
 1262TIP3    H125421   4.854   3.940   0.128 -0.5807  1.3068  1.9778
 1262TIP3    H225422   4.763   4.016   0.035  0.5397 -0.0841 -0.3365
 1263TIP3   OH225423   0.154   2.872   7.552  0.1680 -1.0298 -0.4722
 1263TIP3    H125424   0.225   2.934   7.571  0.1222 -0.7256 -1.2724
 1263TIP3    H225425   0.177   2.794   7.603  0.5671 -0.5910  0.0328
 1264TIP3   OH225426   4.727   4.627   0.055 -0.6613 -0.5552  0.7272
 1264TIP3    H125427   4.754   4.713   0.025  1.8075 -1.3594  0.4498
 1264TIP3    H225428   4.638   4.641   0.090 -0.3083  2.0893  0.7897
 1265TIP3   OH225429   5.603   6.175   8.200  0.1069 -0.3882  0.7754
 1265TIP3    H125430   5.532   6.236   8.181  0.3254 -0.8809 -1.9532
 1265TIP3    H225431   5.560   6.094   8.225 -0.3463 -0.6205 -0.6627
 1266TIP3   OH225432   4.764   1.408   7.559  0.1038 -0.4838 -0.2843
 1266TIP3    H125433   4.842   1.445   7.602  0.1154 -1.0445  0.1967
 1266TIP3    H225434   4.742   1.331   7.613 -0.4754 -0.6238 -0.7181
 1267TIP3   OH225435   0.125   1.654   8.072 -0.1959  0.1559 -0.3005
 1267TIP3    H125436   0.132   1.563   8.046  2.2335  0.2600 -0.2665
 1267TIP3    H225437   0.147   1.703   7.993  1.5849  0.5818  0.3910
 1268TIP3   OH225438   6.273   3.177   2.918  0.0386 -0.8202  0.4252
 1268TIP3    H125439   6.330   3.121   2.866 -2.2106 -2.4316 -0.4724
 1268TIP3    H225440   6.284   3.145   3.008  2.4872  0.7073  0.7644
 1269TIP3   OH225441   6.512   6.694   1.439  0.2369 -0.0727  0.1357
 1269TIP3    H125442   6.569   6.628   1.400 -1.4560 -1.7301  0.3481
 1269TIP3    H225443   6.429   6.685   1.392 -0.4994  0.8788  1.2043
 1270TIP3   OH225444   6.699   6.753   8.456 -0.2966  0.2194 -0.0226
 1270TIP3    H125445   6.663   6.835   8.490 -0.1044  0.6361 -0.7887
 1270TIP3    H225446   6.707   6.768   8.361  0.6255 -0.3446 -0.0470
 1271TIP3   OH225447   1.216   5.042   0.828  0.1047 -0.1003  0.0994
 1271TIP3    H125448   1.147   5.069   0.767  0.5040 -1.5483 -1.0782
 1271TIP3    H225449   1.174   5.043   0.914 -1.3633 -0.7819 -0.5613
 1272TIP3   OH225450   2.128   2.871   0.257  0.5206 -0.7074 -0.3660
 1272TIP3    H125451   2.127   2.898   0.165 -2.5343 -0.2227 -0.2964
 1272TIP3    H225452   2.095   2.947   0.304  0.8393 -1.3941  1.0060
 1273TIP3   OH225453   0.635   1.931   8.714  0.1326 -0.0296 -0.1605
 1273TIP3    H125454   0.596   1.974   8.638 -1.0762 -0.3605  0.2603
 1273TIP3    H225455   0.729   1.947   8.704 -0.1285  1.2035 -0.9399
 1274TIP3   OH225456   0.274   3.382   0.355 -0.2485  0.5440 -0.0319
 1274TIP3    H125457   0.316   3.377   0.269  2.4612  1.1437  1.1357
 1274TIP3    H225458   0.277   3.475   0.377  1.2360  0.1644  1.6069
 1275TIP3   OH225459   4.961   2.449   7.783  0.2003 -0.3663 -0.1739
 1275TIP3    H125460   5.005   2.529   7.811  0.6215 -0.7884  0.4007
 1275TIP3    H225461   5.016   2.413   7.714 -0.3019  0.1400 -0.8546
 1276TIP3   OH225462   4.638   3.511   7.256  0.1961 -0.6371 -0.3117
 1276TIP3    H125463   4.579   3.437   7.268 -0.1164 -0.1576  1.4370
 1276TIP3    H225464   4.584   3.580   7.217  0.6640 -1.5068 -2.6361
 1277TIP3   OH225465   5.928   5.548   6.603  0.6885  0.0594 -0.1440
 1277TIP3    H125466   6.016   5.528   6.571 -0.4813 -1.6258 -2.7050
 1277TIP3    H225467   5.879   5.466   6.590 -1.2999  1.0140  0.9832
 1278TIP3   OH225468   0.470   6.522   7.127  0.6137 -0.0403 -0.3861
 1278TIP3    H125469   0.498   6.578   7.055 -0.8856 -0.2329 -1.1372
 1278TIP3    H225470   0.401   6.467   7.091 -1.6656  1.2758  1.6802
 1279TIP3   OH225471   1.488   0.816   1.820  0.6933  0.0144  0.4416
 1279TIP3    H125472   1.453   0.905   1.829  0.0007 -0.1195 -0.6916
 1279TIP3    H225473   1.581   0.825   1.839  0.6311  0.9877  0.3634
 1280TIP3   OH225474   1.877   1.191   0.258  0.0307 -0.3366  0.1414
 1280TIP3    H125475   1.798   1.238   0.285 -0.5803 -0.6430 -1.0437
 1280TIP3    H225476   1.878   1.197   0.163  1.4444 -0.3510  0.1257
 1281TIP3   OH225477   5.170   2.697   1.175  0.3339  0.6142  0.0977
 1281TIP3    H125478   5.173   2.618   1.122  0.4173  1.3636 -1.0666
 1281TIP3    H225479   5.258   2.704   1.213 -0.4281 -1.2408  2.4099
 1282TIP3   OH225480   6.247   5.373   0.560 -0.4405  0.2877  0.4347
 1282TIP3    H125481   6.220   5.460   0.529  1.7264  0.4696 -1.1690
 1282TIP3    H225482   6.316   5.391   0.624 -0.2246 -0.2345  0.3507
 1283TIP3   OH225483   1.428   0.771   0.122 -0.2087 -0.6721  0.0812
 1283TIP3    H125484   1.378   0.743   0.199 -0.1398  2.3929  1.3906
 1283TIP3    H225485   1.363   0.812   0.065  0.3497  1.2564  0.7418
 1284TIP3   OH225486   4.305   3.997   0.341  0.2189  0.1958 -0.1798
 1284TIP3    H125487   4.395   4.005   0.309 -0.3245  1.4912 -1.5049
 1284TIP3    H225488   4.256   3.963   0.267 -0.1131 -2.3672  1.1078
 1285TIP3   OH225489   4.706   4.695   8.178 -0.5785 -0.0111 -0.3796
 1285TIP3    H125490   4.623   4.649   8.165 -0.3089 -0.3541 -0.9157
 1285TIP3    H225491   4.769   4.647   8.124 -0.3904  1.2851 -1.3438
 1286TIP3   OH225492   2.441   3.392   8.626  0.9984  0.1113  0.2605
 1286TIP3    H125493   2.425   3.336   8.702 -0.4125  0.8129  0.5008
 1286TIP3    H225494   2.536   3.388   8.614  1.0489 -1.4874  0.9099
 1287TIP3   OH225495   2.281   5.784   1.205 -0.2942  0.9068 -0.1696
 1287TIP3    H125496   2.327   5.715   1.253  0.1040  1.0791 -0.3051
 1287TIP3    H225497   2.206   5.739   1.165 -0.1851  0.6073 -0.0430
 1288TIP3   OH225498   4.130   3.938   0.127 -0.4987 -0.1177  0.0758
 1288TIP3    H125499   4.121   4.026   0.089  1.6828  0.3558  0.5163
 1288TIP3    H225500   4.148   3.882   0.052  1.1571  0.3733  0.0609
 1289TIP3   OH225501   1.699   1.175   7.109 -0.1168  0.6298  0.0971
 1289TIP3    H125502   1.783   1.162   7.152 -1.7614  1.3746  3.9969
 1289TIP3    H225503   1.686   1.097   7.056  2.9220  0.4851 -0.6148
 1290TIP3   OH225504   1.466   3.967   8.255 -0.0936 -0.1967 -0.0991
 1290TIP3    H125505   1.461   3.906   8.182 -0.0809 -0.7822  0.3870
 1290TIP3    H225506   1.377   3.970   8.290  0.0868 -0.5704  0.3919
 1291TIP3   OH225507   0.817   5.539   0.226  0.1745  0.1743  0.2369
 1291TIP3    H125508   0.806   5.628   0.259 -2.8416 -0.1605  0.3475
 1291TIP3    H225509   0.794   5.545   0.133  1.6317 -0.2177 -0.1755
 1292TIP3   OH225510   2.371   6.496   1.772 -0.3979  0.1046 -0.0615
 1292TIP3    H125511   2.380   6.528   1.861 -0.1568  0.4196 -0.1957
 1292TIP3    H225512   2.452   6.446   1.755  0.5316  1.7794 -0.7992
 1293TIP3   OH225513   3.774   0.771   7.526  0.3110 -0.3312 -0.0467
 1293TIP3    H125514   3.805   0.794   7.438  2.5597  0.9608  0.9998
 1293TIP3    H225515   3.704   0.834   7.544  0.3649 -0.1011 -0.6219
 1294TIP3   OH225516   6.093   2.013   1.044  0.4501  0.2399 -0.1863
 1294TIP3    H125517   6.162   1.957   1.080 -1.1508 -1.1037  0.9559
 1294TIP3    H225518   6.080   1.981   0.954  1.4986  0.7195 -0.5236
 1295TIP3   OH225519   4.556   4.304   8.387  0.8381 -0.4238 -0.6074
 1295TIP3    H125520   4.569   4.371   8.454  1.4932 -0.3515 -0.7988
 1295TIP3    H225521   4.466   4.316   8.359  0.0702 -1.4116  1.2797
 1296TIP3   OH225522   4.379   5.566   8.706 -0.2745 -0.5508  0.5934
 1296TIP3    H125523   4.310   5.500   8.711  0.2617 -1.0552  1.7800
 1296TIP3    H225524   4.354   5.633   8.770 -1.4337  1.0623 -1.4327
 1297TIP3   OH225525   3.351   1.912   7.986 -0.0090  0.2157 -0.2639
 1297TIP3    H125526   3.269   1.900   7.938 -0.0264  0.5812 -0.3294
 1297TIP3    H225527   3.410   1.848   7.948 -0.6908 -1.0912  0.7906
 1298TIP3   OH225528   1.280   2.366   8.179 -0.2698 -0.1817  0.0132
 1298TIP3    H125529   1.225   2.340   8.105  0.2479  1.3681 -0.9748
 1298TIP3    H225530   1.233   2.438   8.221  0.3846  0.3070 -0.0669
 1299TIP3   OH225531   1.217   3.059   0.077  0.1450 -0.1169  0.3151
 1299TIP3    H125532   1.181   3.029  -0.006  0.2593 -1.6143  0.7924
 1299TIP3    H225533   1.305   3.089   0.056  0.7619 -1.9422  0.1301
 1300TIP3   OH225534   3.795   6.495   0.228  0.2648  0.3444 -0.1275
 1300TIP3    H125535   3.768   6.514   0.317  1.9664  1.6498  0.1814
 1300TIP3    H225536   3.890   6.503   0.230  0.3066  0.9969 -2.1669
 1301TIP3   OH225537   1.465   0.822   7.584 -0.3816 -0.1875 -0.0135
 1301TIP3    H125538   1.374   0.852   7.588 -0.5691 -0.6528 -0.6149
 1301TIP3    H225539   1.458   0.731   7.555  0.1985 -0.6495  1.2413
 1302TIP3   OH225540   2.188   2.567   7.435 -0.2272  0.0577  0.1095
 1302TIP3    H125541   2.231   2.651   7.417 -0.9391  0.3577 -0.2176
 1302TIP3    H225542   2.211   2.512   7.360  2.0866 -0.8125  1.3427
 1303TIP3   OH225543   4.256   6.020   0.098  0.0095 -0.3825  0.1246
 1303TIP3    H125544   4.180   6.032   0.154 -0.9190  0.2331 -1.2086
 1303TIP3    H225545   4.222   5.979   0.019  0.7417  1.2931 -1.1344
 1304TIP3   OH225546   3.319   5.577   0.074  0.2238  0.2157  0.1980
 1304TIP3    H125547   3.236   5.623   0.064 -0.4750 -0.9613  0.4924
 1304TIP3    H225548   3.335   5.536  -0.011  1.8390  2.5196 -0.7312
 1305TIP3   OH225549   2.338   3.362   0.546 -0.2270  0.2330  0.3489
 1305TIP3    H125550   2.346   3.350   0.641 -1.3745 -2.1170  0.2220
 1305TIP3    H225551   2.255   3.408   0.535 -0.3579  0.0281  0.4711
 1306TIP3   OH225552   2.690   1.290   0.158 -0.1751  0.3497 -0.1017
 1306TIP3    H125553   2.731   1.374   0.136 -0.9075  0.1145 -2.6575
 1306TIP3    H225554   2.742   1.225   0.111 -0.1381 -0.5657  1.1630
 1307TIP3   OH225555   3.711   2.671   7.941  0.0648 -0.2158  0.2109
 1307TIP3    H125556   3.662   2.721   7.876 -1.5742  0.3269  1.7914
 1307TIP3    H225557   3.667   2.587   7.946  0.5273 -0.4627  0.2397
 1308TIP3   OH225558   2.427   4.473   0.599  0.3933 -0.3112 -0.0044
 1308TIP3    H125559   2.411   4.524   0.519 -0.4366 -0.0085  0.3363
 1308TIP3    H225560   2.521   4.479   0.613  0.2946  1.3031  0.1284
 1309TIP3   OH225561   0.665   4.930   7.701  0.2712  0.0316  0.0521
 1309TIP3    H125562   0.737   4.957   7.758 -0.0956  0.2130  0.4361
 1309TIP3    H225563   0.627   5.013   7.671 -0.7453 -0.0349  1.0887
 1310TIP3   OH225564   2.652   5.382   2.677  0.0358  0.0358  0.0095
 1310TIP3    H125565   2.592   5.313   2.649 -0.8568  1.2569 -1.2271
 1310TIP3    H225566   2.734   5.362   2.633 -0.7584  0.7542 -1.8964
 1311TIP3   OH225567   4.710   1.711   8.489 -0.6470 -0.3556 -0.2863
 1311TIP3    H125568   4.650   1.771   8.533 -0.7271  0.1361 -1.0400
 1311TIP3    H225569   4.677   1.624   8.510 -0.2032 -0.1834  1.2930
 1312TIP3   OH225570   2.300   4.918   1.946 -0.2114 -0.8178 -0.1466
 1312TIP3    H125571   2.311   4.884   2.035 -0.6621  0.4414  0.4164
 1312TIP3    H225572   2.388   4.949   1.922 -0.2653 -0.3951  0.1931
 1313TIP3   OH225573   0.205   6.349   0.102  0.5872  0.2907  0.5483
 1313TIP3    H125574   0.199   6.444   0.108  1.4261  0.2938  1.4259
 1313TIP3    H225575   0.277   6.333   0.041  0.7640  0.2068  0.7822
 1314TIP3   OH225576   5.414   1.018   2.270  0.3455  0.5190 -0.1389
 1314TIP3    H125577   5.398   1.111   2.252  0.6204  0.3869 -1.1853
 1314TIP3    H225578   5.399   0.975   2.185 -3.1535 -0.8940  1.0319
 1315TIP3   OH225579   4.968   1.128   0.879 -0.4213 -0.2820 -0.2243
 1315TIP3    H125580   5.009   1.213   0.895  0.8648 -1.0500  0.6715
 1315TIP3    H225581   4.877   1.150   0.858 -0.6781  1.2123  2.1168
 1316TIP3   OH225582   0.087   1.616   0.805 -0.5545 -0.0696 -0.1549
 1316TIP3    H125583  -0.001   1.580   0.813 -1.0984  1.4944  1.1868
 1316TIP3    H225584   0.136   1.547   0.761 -3.1188  0.1234 -3.8100
 1317TIP3   OH225585   5.694   0.479   1.620 -0.3656  0.1617  0.2575
 1317TIP3    H125586   5.745   0.482   1.539 -3.1778 -0.0784 -1.6279
 1317TIP3    H225587   5.654   0.566   1.626 -1.6499 -0.4307  0.3902
 1318TIP3   OH225588   5.423   3.562   2.627 -0.3346  0.0583 -0.1336
 1318TIP3    H125589   5.515   3.586   2.634 -0.1045 -1.2855  2.4809
 1318TIP3    H225590   5.375   3.642   2.649  0.1831  0.5882 -0.8700
 1319TIP3   OH225591   1.931   1.388   6.894 -1.0220  0.1067 -0.0491
 1319TIP3    H125592   1.855   1.443   6.875 -2.7319 -1.7150  1.2066
 1319TIP3    H225593   1.935   1.383   6.989  0.9522  0.4758 -0.0648
 1320TIP3   OH225594   0.427   0.951   0.020 -0.1290 -0.0212 -0.0132
 1320TIP3    H125595   0.504   0.928  -0.032 -0.5473  0.5490 -0.8991
 1320TIP3    H225596   0.405   0.870   0.067  0.5733 -0.3939 -0.3120
 1321TIP3   OH225597   6.660   3.871   2.494 -0.3018 -0.6033  0.0787
 1321TIP3    H125598   6.737   3.838   2.539  2.4763  2.4442 -2.0273
 1321TIP3    H225599   6.625   3.939   2.553 -0.6088 -1.0539  0.4260
 1322TIP3   OH225600   3.714   3.953   0.488  0.0613  0.2669 -0.0518
 1322TIP3    H125601   3.781   3.981   0.550  1.0547  0.5868 -1.2363
 1322TIP3    H225602   3.652   4.026   0.485 -0.9045 -0.4157  1.7579
 1323TIP3   OH225603   0.842   4.782   8.205 -0.3380 -0.3161  0.0955
 1323TIP3    H125604   0.784   4.857   8.197  1.1347  0.8758  0.1845
 1323TIP3    H225605   0.880   4.790   8.292  0.4021 -0.7160 -0.1771
 1324TIP3   OH225606   0.666   6.694   2.752 -0.2929  0.1253 -0.0891
 1324TIP3    H125607   0.695   6.637   2.681  1.3798  0.1362  0.5427
 1324TIP3    H225608   0.591   6.647   2.790 -0.5966 -0.3457 -1.2271
 1325TIP3   OH225609   3.837   5.150   2.172  0.0883 -0.0583  0.1565
 1325TIP3    H125610   3.746   5.180   2.174  0.3808  0.9042  2.8086
 1325TIP3    H225611   3.888   5.224   2.204  1.4125 -1.6428  1.9404
 1326TIP3   OH225612   3.093   2.487   0.150 -0.0587  0.0046 -0.2653
 1326TIP3    H125613   3.179   2.468   0.111 -0.3019  0.7787 -1.1917
 1326TIP3    H225614   3.064   2.567   0.107 -1.8394 -0.9462 -0.9267
 1327TIP3   OH225615   0.238   0.322   1.310 -0.4869  0.1391 -0.4655
 1327TIP3    H125616   0.180   0.397   1.292  0.1716  0.4923 -1.1948
 1327TIP3    H225617   0.272   0.298   1.224  0.6376  0.1044 -0.0229
 1328TIP3   OH225618   5.266   0.696   2.728  0.5831 -0.2191 -0.3538
 1328TIP3    H125619   5.267   0.771   2.670 -0.1962  0.4009  0.4167
 1328TIP3    H225620   5.333   0.715   2.793  0.0698  0.0247  0.1054
 1329TIP3   OH225621   5.359   4.306   0.930  0.0755 -0.0156 -0.2045
 1329TIP3    H125622   5.343   4.309   0.836 -2.8430  0.8495  0.2279
 1329TIP3    H225623   5.370   4.398   0.956  3.8856 -0.3643 -0.0187
 1330TIP3   OH225624   6.104   6.606   1.982  0.2041  0.3361 -0.4816
 1330TIP3    H125625   6.115   6.518   1.948  1.8192  1.1809 -2.3146
 1330TIP3    H225626   6.018   6.634   1.949 -0.7281 -0.8107  0.8635
 1331TIP3   OH225627   3.813   0.985   1.123  0.1308 -0.2306  0.7518
 1331TIP3    H125628   3.751   1.046   1.162  0.0162  0.8375 -1.0006
 1331TIP3    H225629   3.890   1.039   1.103 -0.1324 -0.4890 -1.2159
 1332TIP3   OH225630   6.427   2.901   2.042  0.4222 -0.3355 -0.4144
 1332TIP3    H125631   6.414   2.996   2.047  0.9977 -0.2791  0.2290
 1332TIP3    H225632   6.521   2.889   2.057  0.2457 -1.0511  0.1679
 1333TIP3   OH225633   6.794   3.128   2.206  0.6251 -0.1368  0.4237
 1333TIP3    H125634   6.737   3.164   2.275  0.7548 -0.3322  0.6321
 1333TIP3    H225635   6.813   3.204   2.150  2.1119  0.4637  1.6899
 1334TIP3   OH225636   0.385   3.919   2.062  0.1753 -0.1289  0.3245
 1334TIP3    H125637   0.392   3.838   2.112 -3.9845  0.1955  1.8333
 1334TIP3    H225638   0.337   3.895   1.983  1.8252  0.3690 -0.8836
 1335TIP3   OH225639   0.752   3.892   2.554  0.0556  0.2669 -0.5331
 1335TIP3    H125640   0.796   3.967   2.513 -0.5604  0.4358 -0.8973
 1335TIP3    H225641   0.692   3.860   2.486  0.3668 -0.6052 -0.4071
 1336TIP3   OH225642   1.456   4.469   1.725 -0.1964  0.2184 -0.6232
 1336TIP3    H125643   1.421   4.407   1.789 -2.0433  0.6646 -1.1480
 1336TIP3    H225644   1.548   4.479   1.749 -0.8198  0.3496  1.9344
 1337TIP3   OH225645   6.774   2.556   2.455  0.2740  0.3571 -0.1428
 1337TIP3    H125646   6.731   2.483   2.410 -0.1661  0.0054  0.8168
 1337TIP3    H225647   6.806   2.613   2.384  1.8582 -1.4379 -0.9653
 1338TIP3   OH225648   2.242   6.074   2.532 -0.0640 -0.1201 -0.5448
 1338TIP3    H125649   2.283   6.029   2.457  0.4318 -1.2101  0.3421
 1338TIP3    H225650   2.164   6.022   2.550  0.0033 -0.0658 -0.0977
 1339TIP3   OH225651   3.139   3.132   8.550 -0.1804 -0.7379  0.1989
 1339TIP3    H125652   3.177   3.158   8.466 -0.3665  1.4481  0.7343
 1339TIP3    H225653   3.213   3.105   8.604  0.4740  1.7474  0.6344
 1340TIP3   OH225654   5.138   2.850   8.339  0.4173 -0.5890  0.0838
 1340TIP3    H125655   5.117   2.919   8.277  0.8330 -2.4127 -2.2249
 1340TIP3    H225656   5.056   2.834   8.387  0.3229  1.4188  0.6728
 1341TIP3   OH225657   5.633   1.468   8.128 -0.0264 -0.3023  0.4825
 1341TIP3    H125658   5.631   1.555   8.169  0.9091 -0.0882  0.0920
 1341TIP3    H225659   5.668   1.411   8.196  1.1997 -0.0084  0.1275
 1342TIP3   OH225660   5.619   1.475   0.075 -0.2111  0.0275  0.1690
 1342TIP3    H125661   5.631   1.406   0.010 -2.6954  0.4120 -0.8296
 1342TIP3    H225662   5.524   1.492   0.075  0.1704  2.7543  1.0539
 1343TIP3   OH225663   5.629   0.018   1.114 -0.4293  0.1278 -0.4605
 1343TIP3    H125664   5.549  -0.034   1.099  1.0656 -1.9696 -1.7602
 1343TIP3    H225665   5.657   0.044   1.027 -0.0351  1.4605  0.0396
 1344TIP3   OH225666   4.745   5.861   0.008  0.3147  0.5644  0.1317
 1344TIP3    H125667   4.740   5.777  -0.038 -1.5461  1.2245 -0.9713
 1344TIP3    H225668   4.732   5.838   0.100  1.9138 -0.5358  0.1333
 1345TIP3   OH225669   5.387   0.330   1.245  0.2162  0.4920  0.5295
 1345TIP3    H125670   5.433   0.348   1.163  2.3250  2.6575  2.0306
 1345TIP3    H225671   5.297   0.358   1.229  1.1265  3.1897 -0.4177
 1346TIP3   OH225672   6.025   6.057   1.959  0.1626  0.2193 -0.3156
 1346TIP3    H125673   5.999   6.064   2.051 -0.0155 -0.2791 -0.3312
 1346TIP3    H225674   6.120   6.044   1.963  0.2483  0.8136 -0.2266
 1347TIP3   OH225675   6.459   6.455   6.459  0.2808  0.1557  0.3848
 1347TIP3    H125676   6.553   6.471   6.474  0.3013 -0.6651  1.2464
 1347TIP3    H225677   6.424   6.438   6.547 -0.8074  1.0833  0.1551
 1348TIP3   OH225678   1.398   5.031   7.812  0.8132 -0.3076 -0.2777
 1348TIP3    H125679   1.370   5.115   7.849 -0.6948 -0.4714 -0.9422
 1348TIP3    H225680   1.487   5.018   7.845  0.7189  1.0861  0.6119
 1349TIP3   OH225681   0.111   5.086   8.298 -0.2234  0.7266  0.1019
 1349TIP3    H125682   0.157   5.166   8.325  1.3829  1.6030 -4.3883
 1349TIP3    H225683   0.163   5.015   8.335  0.9870  1.7705  0.5060
 1350TIP3   OH225684   1.656   1.991   2.422 -1.0054 -0.4155  0.4956
 1350TIP3    H125685   1.685   2.023   2.336 -3.1120 -0.6468 -0.3695
 1350TIP3    H225686   1.574   2.039   2.439 -0.5994 -0.3364  2.4183
 1351TIP3   OH225687   0.491   2.775   1.316 -0.6063 -0.6358 -0.2021
 1351TIP3    H125688   0.457   2.803   1.231 -1.3100 -2.0624 -0.4306
 1351TIP3    H225689   0.413   2.773   1.373 -0.2700 -0.4232  0.2715
 1352TIP3   OH225690   3.805   1.234   0.402 -0.2346  0.1947 -0.0846
 1352TIP3    H125691   3.882   1.180   0.418  0.6119  1.3436 -0.1972
 1352TIP3    H225692   3.823   1.316   0.447 -1.4849  0.4151  0.0552
 1353TIP3   OH225693   1.871   1.562   0.455  0.4158 -0.2357  0.7624
 1353TIP3    H125694   1.910   1.635   0.503  1.2996  0.0423 -0.3575
 1353TIP3    H225695   1.838   1.600   0.374  1.4726 -1.1404 -0.1418
 1354TIP3   OH225696   1.550   5.428   1.465  0.3272 -0.5640 -0.3639
 1354TIP3    H125697   1.568   5.358   1.402 -0.0121 -1.1374  0.1637
 1354TIP3    H225698   1.635   5.470   1.480  0.4944 -0.7313 -0.8393
 1355TIP3   OH225699   3.071   3.118   1.670 -0.3458 -0.1563 -0.0744
 1355TIP3    H125700   3.145   3.169   1.635 -0.1986 -0.0457  0.3729
 1355TIP3    H225701   2.997   3.179   1.669 -0.3636 -0.1832 -0.2800
 1356TIP3   OH225702   4.199   5.481   2.413 -0.2303 -0.3671 -0.2556
 1356TIP3    H125703   4.283   5.525   2.430 -0.1161 -1.2361  1.8008
 1356TIP3    H225704   4.134   5.534   2.459 -0.8429  0.2712 -1.7937
 1357TIP3   OH225705   1.056   2.618   7.831  0.1103  0.5903  0.3904
 1357TIP3    H125706   1.110   2.582   7.902  0.4906  0.5985  0.1069
 1357TIP3    H225707   1.097   2.587   7.751 -0.1249  0.8577  0.1623
 1358TIP3   OH225708   3.055   1.287   1.232  0.3933 -0.2029  0.3217
 1358TIP3    H125709   3.126   1.351   1.227  0.5689 -0.4642 -0.6587
 1358TIP3    H225710   3.086   1.212   1.182 -0.9109 -0.0000 -0.8610
 1359TIP3   OH225711   3.410   0.979   1.728  0.1883  0.1114 -0.0555
 1359TIP3    H125712   3.351   1.015   1.662 -1.1749  3.1060  2.5522
 1359TIP3    H225713   3.401   0.884   1.719  0.0803  0.3416 -4.0317
 1360TIP3   OH225714   4.610   5.391   0.288  0.0632 -0.0385  0.1562
 1360TIP3    H125715   4.606   5.339   0.369 -0.9322  1.2446  0.9642
 1360TIP3    H225716   4.523   5.380   0.248 -0.2040  1.0751  0.4016
 1361TIP3   OH225717   0.557   0.207   1.867  0.7388 -0.1354 -0.3619
 1361TIP3    H125718   0.599   0.234   1.949  0.0937  0.8803 -0.3402
 1361TIP3    H225719   0.554   0.287   1.815  1.8449 -0.9289 -1.7166
 1362TIP3   OH225720   4.609   1.582   7.707 -0.8009  0.4144 -0.3250
 1362TIP3    H125721   4.683   1.638   7.731 -1.4724  0.5902  1.4906
 1362TIP3    H225722   4.649   1.513   7.653  0.7839  0.2870  0.9185
 1363TIP3   OH225723   0.216   0.850   8.133  0.0374 -0.0172  0.1620
 1363TIP3    H125724   0.146   0.854   8.198  1.8294  0.3585  2.1751
 1363TIP3    H225725   0.185   0.786   8.069 -2.7148  1.1510  0.1834
 1364TIP3   OH225726   6.359   1.598   7.132 -0.1643  0.8288  0.1328
 1364TIP3    H125727   6.411   1.549   7.195  1.3854  1.1905 -0.8062
 1364TIP3    H225728   6.423   1.627   7.066 -1.6580  0.7829 -1.3923
 1365TIP3   OH225729   6.460   5.844   8.418  0.0736  0.1329  0.4377
 1365TIP3    H125730   6.376   5.859   8.460 -0.4641 -1.2435 -0.0854
 1365TIP3    H225731   6.525   5.862   8.486 -0.6982 -0.1524  1.2597
 1366TIP3   OH225732   5.489   4.137   7.699 -0.1259  0.0853 -0.5524
 1366TIP3    H125733   5.492   4.232   7.706  1.9416 -0.0433  1.4613
 1366TIP3    H225734   5.510   4.119   7.608  0.5233  1.5449 -0.7119
 1367TIP3   OH225735   0.928   2.720   1.862  0.2044  0.3145 -0.1194
 1367TIP3    H125736   0.970   2.695   1.944 -0.5017 -1.8229 -0.3704
 1367TIP3    H225737   0.881   2.801   1.883  1.1330  0.5412  1.2015
 1368TIP3   OH225738   5.812   1.146   7.848 -0.5300  0.3636 -0.3237
 1368TIP3    H125739   5.770   1.230   7.868 -1.5310 -0.2236  0.1519
 1368TIP3    H225740   5.881   1.167   7.785  0.7436  1.8494  1.4747
 1369TIP3   OH225741   3.192   4.019   0.884 -0.2913 -0.2372  0.5809
 1369TIP3    H125742   3.288   4.009   0.885 -0.2403 -0.2654 -1.3525
 1369TIP3    H225743   3.161   3.953   0.822 -1.1992  2.0682 -1.5837
 1370TIP3   OH225744   5.594   4.226   1.657  0.2209 -0.5756  0.0360
 1370TIP3    H125745   5.604   4.170   1.580 -0.5668 -0.0746 -0.4488
 1370TIP3    H225746   5.653   4.188   1.722  2.2967  0.0398 -1.3771
 1371TIP3   OH225747   2.915   3.966   2.248 -0.2915 -0.0357 -0.3557
 1371TIP3    H125748   2.881   3.933   2.331  1.8998 -0.3936  0.4693
 1371TIP3    H225749   2.939   3.888   2.199 -1.1840  0.1890 -1.1773
 1372TIP3   OH225750   6.397   5.607   8.681 -0.0269 -0.4989 -0.3784
 1372TIP3    H125751   6.459   5.535   8.689 -0.7569 -0.9026  2.3930
 1372TIP3    H225752   6.311   5.567   8.688 -0.4477  0.5972  1.3408
 1373TIP3   OH225753   3.713   4.211   1.593 -0.7499  0.1379  0.7915
 1373TIP3    H125754   3.628   4.209   1.550 -0.4847 -1.4052  0.2724
 1373TIP3    H225755   3.774   4.238   1.524 -0.5318 -0.9082  0.5532
 1374TIP3   OH225756   1.168   1.232   6.933 -0.4795 -0.1043  0.4667
 1374TIP3    H125757   1.196   1.243   6.842 -1.5454  1.9989  0.3242
 1374TIP3    H225758   1.194   1.313   6.976  0.5254 -1.3018  2.2267
 1375TIP3   OH225759   1.915   3.424   7.523  0.7041  0.2734  0.5725
 1375TIP3    H125760   1.848   3.416   7.455  0.2601  0.5676  0.9615
 1375TIP3    H225761   1.915   3.339   7.567  0.0963  0.4863  1.0038
 1376TIP3   OH225762   5.759   2.338   2.512 -0.2319 -0.1728 -0.2769
 1376TIP3    H125763   5.774   2.426   2.545 -1.7531  0.7570 -1.8922
 1376TIP3    H225764   5.847   2.299   2.508  0.2556  0.4195  2.5410
 1377TIP3   OH225765   1.839   0.665   8.683 -0.0772 -0.0795  0.3919
 1377TIP3    H125766   1.864   0.657   8.591 -2.4619  2.6551 -0.6524
 1377TIP3    H225767   1.903   0.725   8.721  0.6673 -0.8931  0.4597
 1378TIP3   OH225768   5.081   4.374   0.842  0.1978 -0.0492  0.4172
 1378TIP3    H125769   4.995   4.354   0.804  0.4741  0.1329 -0.3262
 1378TIP3    H225770   5.117   4.288   0.866 -0.0938 -0.1432  0.5245
 1379TIP3   OH225771   0.598   3.352   2.188 -0.0476 -0.0708 -0.6483
 1379TIP3    H125772   0.534   3.403   2.138  1.8737  0.5565 -2.6652
 1379TIP3    H225773   0.682   3.374   2.147  1.4429 -1.0357  1.7073
 1380TIP3   OH225774   3.059   2.515   8.314  0.5928  0.0105 -0.2325
 1380TIP3    H125775   3.100   2.445   8.263  1.1130  0.8633 -1.0225
 1380TIP3    H225776   2.965   2.507   8.296  0.6892 -0.2405 -0.6340
 1381TIP3   OH225777   3.753   2.774   7.497 -0.4349  0.2624  0.3148
 1381TIP3    H125778   3.677   2.813   7.541 -1.6129  1.0351 -2.2108
 1381TIP3    H225779   3.773   2.834   7.425  2.9736  0.3601  1.1877
 1382TIP3   OH225780   4.251   5.495   0.699 -0.1819 -0.2223 -0.3548
 1382TIP3    H125781   4.233   5.582   0.736 -0.9483  0.4482 -2.2007
 1382TIP3    H225782   4.336   5.505   0.656  0.6587 -0.9745  1.0373
 1383TIP3   OH225783   2.149   2.065   8.293  0.3207 -0.5497 -0.1278
 1383TIP3    H125784   2.089   2.082   8.221 -0.0329  0.1023  0.3116
 1383TIP3    H225785   2.236   2.074   8.255  0.1402 -0.4386 -0.5195
 1384TIP3   OH225786   0.207   2.116   1.135 -0.9815  0.1603 -0.4872
 1384TIP3    H125787   0.278   2.137   1.074 -1.1553 -0.2759 -0.8404
 1384TIP3    H225788   0.233   2.034   1.176 -1.8336 -0.6256 -1.4864
 1385TIP3   OH225789   2.461   5.977   2.370  0.5197  0.6712  0.0301
 1385TIP3    H125790   2.536   6.029   2.398  0.2279  2.3161 -2.0201
 1385TIP3    H225791   2.500   5.896   2.337  1.5703  1.8786 -1.9030
 1386TIP3   OH225792   1.905   1.653   1.731  0.2346 -0.0667 -0.1783
 1386TIP3    H125793   1.819   1.696   1.734  1.8542  3.5329 -0.0630
 1386TIP3    H225794   1.920   1.624   1.821 -1.6985 -2.8971 -0.6371
 1387TIP3   OH225795   4.199   1.828   8.411 -0.0369  0.6142 -0.8642
 1387TIP3    H125796   4.260   1.757   8.427 -1.1144  0.1362  1.5780
 1387TIP3    H225797   4.253   1.899   8.376  1.9075  0.1435  0.9601
 1388TIP3   OH225798   3.936   3.148   2.679  0.3205 -0.1431  0.1318
 1388TIP3    H125799   4.009   3.211   2.678  1.3468 -1.2707  0.6359
 1388TIP3    H225800   3.919   3.134   2.773  0.3668 -0.8726  0.0392
 1389TIP3   OH225801   1.397   0.376   7.766 -0.1842 -0.2440  0.2593
 1389TIP3    H125802   1.319   0.430   7.753  0.5044  0.8295  0.5168
 1389TIP3    H225803   1.440   0.375   7.681  0.6150  0.9189  0.6339
 1390TIP3   OH225804   5.108   2.193   1.110  0.2083 -0.1111 -0.4572
 1390TIP3    H125805   5.145   2.281   1.106  0.6581 -0.2585  0.2079
 1390TIP3    H225806   5.184   2.135   1.121 -0.1229 -0.5251 -0.3132
 1391TIP3   OH225807   2.724   1.028   8.269  0.0376  0.2653  0.2489
 1391TIP3    H125808   2.819   1.027   8.279  0.2304  2.7725 -0.5234
 1391TIP3    H225809   2.691   1.065   8.350 -0.2601 -0.1432  0.3197
 1392TIP3   OH225810   3.672   5.309   0.331 -0.2139 -0.0176 -0.3807
 1392TIP3    H125811   3.742   5.264   0.282  1.0900  1.6401 -0.1433
 1392TIP3    H225812   3.601   5.319   0.267  0.4432 -0.2204 -1.1694
 1393TIP3   OH225813   1.006   1.433   1.403  0.2328  0.0026  0.4393
 1393TIP3    H125814   1.092   1.398   1.378  0.1404  0.1706 -0.1403
 1393TIP3    H225815   0.984   1.493   1.332  0.4314  1.3041  1.4411
 1394TIP3   OH225816   5.449   6.526   6.447 -0.1086 -0.2166  0.0917
 1394TIP3    H125817   5.474   6.454   6.505  0.6450 -1.9423 -2.1739
 1394TIP3    H225818   5.373   6.493   6.400  0.4702  0.2703 -1.2473
 1395TIP3   OH225819   2.686   6.708   0.840 -0.7315 -0.3517  0.0180
 1395TIP3    H125820   2.703   6.742   0.752 -0.1140  0.9970  0.6337
 1395TIP3    H225821   2.603   6.662   0.832  0.5286 -2.5561 -1.8710
 1396TIP3   OH225822   2.350   6.130   8.386 -0.0916  0.0917  0.8396
 1396TIP3    H125823   2.419   6.196   8.398 -1.7945  1.7956  1.9518
 1396TIP3    H225824   2.324   6.140   8.295  2.0297 -1.5789 -0.0180
 1397TIP3   OH225825   6.841   5.905   7.655 -0.8942  0.0138  0.1000
 1397TIP3    H125826   6.780   5.926   7.585 -1.5073 -1.2306  0.2330
 1397TIP3    H225827   6.927   5.931   7.622 -0.9994 -1.7037 -1.6264
 1398TIP3   OH225828   3.837   5.688   0.688  0.0453  0.5281  0.7351
 1398TIP3    H125829   3.899   5.714   0.620 -2.8288  2.5043 -1.3856
 1398TIP3    H225830   3.820   5.596   0.671 -0.0920  0.8146 -0.8277
 1399TIP3   OH225831   4.854   1.981   2.705 -0.4282 -0.1023 -0.2508
 1399TIP3    H125832   4.918   2.012   2.769  1.0885 -1.3343 -1.1247
 1399TIP3    H225833   4.868   2.036   2.628  1.8923 -2.3985 -1.6075
 1400TIP3   OH225834   0.037   2.647   7.770 -0.0018  0.2725 -0.4596
 1400TIP3    H125835   0.102   2.638   7.700 -0.4243 -0.1997 -0.7903
 1400TIP3    H225836   0.023   2.558   7.802 -2.7600 -0.0995 -2.4440
 1401TIP3   OH225837   0.652   3.744   0.992 -0.5726 -0.4390  0.1102
 1401TIP3    H125838   0.680   3.836   1.002  1.2763 -0.9128 -0.3117
 1401TIP3    H225839   0.674   3.722   0.902 -2.4784 -0.8603 -0.2769
 1402TIP3   OH225840   1.843   2.162   0.073 -0.1975  0.4368 -0.4167
 1402TIP3    H125841   1.818   2.230   0.136 -1.2811 -0.9275  0.6816
 1402TIP3    H225842   1.887   2.095   0.125 -1.0237 -0.6773 -1.0986
 1403TIP3   OH225843   4.951   4.960   0.222 -0.2139  0.0281 -0.6483
 1403TIP3    H125844   5.032   5.001   0.192  0.9584 -2.0979 -0.5339
 1403TIP3    H225845   4.901   4.944   0.141 -0.0058  0.2835 -0.8296
 1404TIP3   OH225846   1.795   5.433   7.734  0.3659  0.1055 -0.5939
 1404TIP3    H125847   1.853   5.452   7.808  1.0827  0.0444 -1.1327
 1404TIP3    H225848   1.707   5.453   7.767  0.9757  5.0894 -1.2006
 1405TIP3   OH225849   0.601   1.461   8.353  0.7568 -0.1750  0.2386
 1405TIP3    H125850   0.578   1.445   8.261 -0.2777  0.7847  0.3086
 1405TIP3    H225851   0.665   1.533   8.349 -1.7462  2.2017  0.3802
 1406TIP3   OH225852   5.796   6.188   0.035  0.1843 -0.0245  0.3653
 1406TIP3    H125853   5.847   6.129  -0.020 -0.0020  1.4023 -1.4511
 1406TIP3    H225854   5.859   6.226   0.096  1.0576  0.6840 -0.9463
 1407TIP3   OH225855   5.084   4.361   6.797  0.1236  0.0309  0.9608
 1407TIP3    H125856   5.042   4.339   6.714  0.6241  0.2032  0.6527
 1407TIP3    H225857   5.175   4.335   6.784  1.1788  3.6553 -0.0402
 1408TIP3   OH225858   0.808   3.398   1.997 -1.0722 -0.3842  0.3468
 1408TIP3    H125859   0.778   3.448   1.921 -2.5445 -1.2498  0.3291
 1408TIP3    H225860   0.854   3.462   2.051  0.6827  0.0931 -1.6026
 1409TIP3   OH225861   1.540   0.772   8.136 -0.1178 -0.3283  0.2072
 1409TIP3    H125862   1.620   0.741   8.095 -0.8507  0.2550 -1.7598
 1409TIP3    H225863   1.551   0.867   8.142 -0.5007 -0.2862  0.2844
 1410TIP3   OH225864   3.374   2.675   0.555 -0.4312  0.4627 -0.5082
 1410TIP3    H125865   3.326   2.607   0.602 -1.4697  0.8112 -1.0402
 1410TIP3    H225866   3.393   2.741   0.621  1.5289 -0.7716  0.2675
 1411TIP3   OH225867   2.386   0.477   8.668  0.1458  0.3762 -0.2160
 1411TIP3    H125868   2.301   0.483   8.624  0.8657 -3.1309 -2.5371
 1411TIP3    H225869   2.365   0.453   8.758 -1.3663  0.1044 -0.6121
 1412TIP3   OH225870   1.251   0.836   8.634 -0.3231  0.1213  0.7961
 1412TIP3    H125871   1.182   0.774   8.661 -0.5675  0.3225  0.6406
 1412TIP3    H225872   1.232   0.853   8.542  1.9142 -2.4336 -0.2724
 1413TIP3   OH225873   1.981   1.939   0.202 -0.3468  0.3688  0.3501
 1413TIP3    H125874   2.064   1.982   0.181  0.0237 -0.9449 -1.0143
 1413TIP3    H225875   2.001   1.886   0.280 -0.0602  0.5073  0.3718
 1414TIP3   OH225876   6.805   5.960   0.363 -0.1852 -0.4254 -0.2152
 1414TIP3    H125877   6.870   5.969   0.294 -0.2694  1.4903 -0.0868
 1414TIP3    H225878   6.738   6.025   0.342 -0.6827 -0.4678  1.1526
 1415TIP3   OH225879   4.463   5.284   1.284  0.1960 -0.0667 -0.1371
 1415TIP3    H125880   4.525   5.210   1.285  0.0273 -0.2422 -1.1441
 1415TIP3    H225881   4.421   5.281   1.369  0.7589 -0.6572  0.1310
 1416TIP3   OH225882   3.715   3.984   8.628 -0.3568 -0.0629 -0.0438
 1416TIP3    H125883   3.719   4.074   8.659  0.6192 -0.1686  0.1650
 1416TIP3    H225884   3.697   3.932   8.706  0.0895 -0.1367  0.0144
 1417TIP3   OH225885   4.422   6.637   1.500  0.3355  0.1330 -0.0759
 1417TIP3    H125886   4.361   6.582   1.452  0.7566  0.2776 -0.7951
 1417TIP3    H225887   4.502   6.635   1.448  1.9213 -2.3298  2.2502
 1418TIP3   OH225888   2.991   6.748   2.730  0.2305 -0.6418 -0.0774
 1418TIP3    H125889   3.083   6.757   2.703  0.1976  0.0637  0.0315
 1418TIP3    H225890   2.955   6.836   2.721 -0.3444 -0.8455  0.2226
 1419TIP3   OH225891   4.891   6.093   1.610  0.3633 -0.1946 -0.1803
 1419TIP3    H125892   4.809   6.127   1.646  0.7720 -1.6396  2.3804
 1419TIP3    H225893   4.891   6.000   1.634  2.6209 -0.2774 -0.2999
 1420TIP3   OH225894   3.848   1.435   0.130 -0.4002  0.4169  0.1367
 1420TIP3    H125895   3.808   1.498   0.190  0.5933  0.4842  0.7510
 1420TIP3    H225896   3.915   1.391   0.182  3.1477  3.0579 -1.7905
 1421TIP3   OH225897   2.615   2.824   1.577 -0.8646  0.6164  0.3546
 1421TIP3    H125898   2.606   2.800   1.669 -2.5509  1.1340  0.3598
 1421TIP3    H225899   2.707   2.850   1.568 -0.0371 -1.6714  1.3136
 1422TIP3   OH225900   3.377   5.274   7.368  0.8108 -0.0560 -0.1175
 1422TIP3    H125901   3.424   5.335   7.424 -0.4247 -1.5620  2.8159
 1422TIP3    H225902   3.431   5.195   7.368  0.1171 -0.5436  0.1681
 1423TIP3   OH225903   3.159   1.932   1.104  0.1399  0.5925 -0.0369
 1423TIP3    H125904   3.081   1.987   1.098 -0.8693 -0.4330  2.2009
 1423TIP3    H225905   3.232   1.990   1.081 -0.9534  2.6277  1.3238
 1424TIP3   OH225906   5.782   4.448   1.006  0.4877 -0.1673 -0.7647
 1424TIP3    H125907   5.739   4.522   0.963 -2.3877 -1.5670 -0.5177
 1424TIP3    H225908   5.869   4.481   1.028 -0.7185  3.2370 -0.4642
 1425TIP3   OH225909   1.142   5.874   2.081 -0.2543  0.2004  0.0640
 1425TIP3    H125910   1.144   5.779   2.089 -0.7339  0.0813 -0.9654
 1425TIP3    H225911   1.068   5.892   2.023 -0.0299  1.1840  0.0532
 1426TIP3   OH225912   4.262   5.133   1.791  0.2899  0.6512  0.5385
 1426TIP3    H125913   4.309   5.062   1.747 -1.0765 -0.8468  1.4425
 1426TIP3    H225914   4.259   5.107   1.883 -1.4170  1.2019  0.6647
 1427TIP3   OH225915   5.793   3.576   1.505  0.1582 -0.1724 -0.2921
 1427TIP3    H125916   5.876   3.545   1.541 -1.1199 -1.0500  2.0995
 1427TIP3    H225917   5.775   3.517   1.432  0.5233 -1.4847  0.6523
 1428TIP3   OH225918   1.737   3.316   7.803  0.1111  0.2576 -0.5078
 1428TIP3    H125919   1.804   3.254   7.777  0.1841  0.6952 -1.3987
 1428TIP3    H225920   1.684   3.329   7.724 -0.7564  0.2610  0.0515
 1429TIP3   OH225921   5.840   3.248   2.495 -1.1189  0.3606  0.3996
 1429TIP3    H125922   5.862   3.178   2.434 -1.2213 -0.6304  1.4603
 1429TIP3    H225923   5.858   3.210   2.582 -2.5740  1.1224  1.0701
 1430TIP3   OH225924   3.913   1.459   0.524  0.0424  0.2704  0.0827
 1430TIP3    H125925   3.957   1.541   0.501 -0.7724  0.6379 -0.2412
 1430TIP3    H225926   3.867   1.479   0.605  1.2132 -0.3931  0.9318
 1431TIP3   OH225927   0.143   2.728   7.052  0.5071 -0.2152 -0.0185
 1431TIP3    H125928   0.128   2.670   7.127  0.2274  0.3790  0.3915
 1431TIP3    H225929   0.092   2.690   6.981 -0.5981  0.1506  0.5609
 1432TIP3   OH225930   6.502   1.109   8.193 -0.1752  0.2340  0.2964
 1432TIP3    H125931   6.479   1.022   8.226  0.9949  0.4530  1.7897
 1432TIP3    H225932   6.511   1.163   8.271  1.8505  0.9904 -0.3913
 1433TIP3   OH225933   1.963   5.744   8.397  0.4918  0.1533 -0.2716
 1433TIP3    H125934   1.905   5.680   8.354  0.9628  0.0687 -0.7957
 1433TIP3    H225935   1.946   5.826   8.350  1.2282 -0.0063 -0.8373
 1434TIP3   OH225936   6.092   3.508   0.252  0.2190 -0.2776  0.0262
 1434TIP3    H125937   6.104   3.563   0.174  0.6116 -1.4822 -0.7848
 1434TIP3    H225938   6.060   3.425   0.218  2.2679 -1.5103  0.9292
 1435TIP3   OH225939   0.009   6.168   7.045  0.4253  0.0979 -0.4805
 1435TIP3    H125940   0.017   6.073   7.053 -0.3970 -0.1502 -2.0835
 1435TIP3    H225941   0.064   6.203   7.115  3.6106 -1.5382 -1.9528
 1436TIP3   OH225942   0.695   1.195   1.604 -0.0389  0.0663  0.2871
 1436TIP3    H125943   0.745   1.115   1.621 -1.5695 -0.9004  0.4330
 1436TIP3    H225944   0.718   1.221   1.515  0.6297 -0.4144  0.3186
 1437TIP3   OH225945   0.177   1.769   0.138 -0.4626 -0.3374 -0.6983
 1437TIP3    H125946   0.122   1.833   0.094  1.2679  1.8664  0.1941
 1437TIP3    H225947   0.161   1.687   0.091 -1.9268  0.9555 -2.5753
 1438TIP3   OH225948   0.613   0.224   3.086  0.1852  0.9225  0.9289
 1438TIP3    H125949   0.662   0.148   3.057 -0.2959  0.0094  2.3687
 1438TIP3    H225950   0.522   0.195   3.087 -0.0635  1.6711  1.0349
 1439TIP3   OH225951   6.500   4.011   8.606  0.1559 -0.6072  0.0351
 1439TIP3    H125952   6.413   3.999   8.643  0.3115 -0.2617  0.5378
 1439TIP3    H225953   6.502   3.955   8.529 -1.0723  0.6229 -0.9410
 1440TIP3   OH225954   5.302   3.210   1.976  0.3596  0.1909 -0.3380
 1440TIP3    H125955   5.385   3.181   2.012  0.0288 -3.1686 -1.9213
 1440TIP3    H225956   5.252   3.242   2.052  2.0442 -0.3535  1.0445
 1441TIP3   OH225957   1.476   3.864   7.992 -0.3457  0.4773 -0.2493
 1441TIP3    H125958   1.536   3.856   7.918  0.7772 -1.5780  0.7998
 1441TIP3    H225959   1.394   3.825   7.961  0.1541 -0.4876 -0.3853
 1442TIP3   OH225960   5.225   6.511   6.931  0.4553  0.0108 -0.1367
 1442TIP3    H125961   5.170   6.435   6.913  0.1938  0.0256  0.6021
 1442TIP3    H225962   5.223   6.561   6.849  2.3248 -1.7871 -1.4046
 1443TIP3   OH225963   0.059   1.593   2.090  0.1471  0.2026  0.4476
 1443TIP3    H125964   0.085   1.669   2.038 -1.5995  0.1814 -0.4989
 1443TIP3    H225965   0.137   1.573   2.142  0.2356  3.5226  1.8514
 1444TIP3   OH225966   3.463   6.724   8.580  0.0631  0.5023  0.3144
 1444TIP3    H125967   3.498   6.639   8.606 -0.6912  0.3707  0.9333
 1444TIP3    H225968   3.515   6.749   8.504 -1.4402 -1.7553 -1.6158
 1445TIP3   OH225969   1.568   2.077   0.032 -0.5218  0.4604  0.0665
 1445TIP3    H125970   1.654   2.116   0.041 -0.6789  0.3251  3.0696
 1445TIP3    H225971   1.514   2.145  -0.009  0.2696  1.7499  1.1098
 1446TIP3   OH225972   3.336   3.689   8.177  0.0545  0.3291  0.2128
 1446TIP3    H125973   3.336   3.594   8.191 -0.0717  0.3951  0.6797
 1446TIP3    H225974   3.276   3.703   8.103  0.4936 -0.0003 -0.2104
 1447TIP3   OH225975   6.300   6.699   0.391  0.1668 -1.0041  0.2005
 1447TIP3    H125976   6.216   6.721   0.350  0.3751 -1.1148 -0.2933
 1447TIP3    H225977   6.280   6.625   0.448 -0.1360 -0.8182  0.3418
 1448TIP3   OH225978   5.176   4.052   0.752  0.5121 -0.0759 -0.2746
 1448TIP3    H125979   5.266   4.020   0.754  0.1675 -1.0699  1.8667
 1448TIP3    H225980   5.152   4.064   0.844 -1.1349  1.4128 -0.8261
 1449TIP3   OH225981   0.494   3.721   8.254  0.4138  0.2562 -0.0337
 1449TIP3    H125982   0.560   3.713   8.324  0.1913 -0.5766  0.0909
 1449TIP3    H225983   0.545   3.717   8.173  0.6115  0.6112  0.0685
 1450TIP3   OH225984   1.208   4.647   1.394 -0.0946  0.3582 -0.1706
 1450TIP3    H125985   1.273   4.578   1.407 -1.7191 -0.9689  1.4786
 1450TIP3    H225986   1.131   4.601   1.360 -0.4854  1.7533 -1.2749
 1451TIP3   OH225987   1.440   3.079   7.326 -0.6598  0.0304 -0.1822
 1451TIP3    H125988   1.411   3.115   7.243  1.1939  0.8468 -0.5274
 1451TIP3    H225989   1.364   3.031   7.359 -1.6224  0.1824 -2.0377
 1452TIP3   OH225990   6.276   2.180   1.212 -0.1271  0.3605  0.4343
 1452TIP3    H125991   6.262   2.121   1.286  0.5929  0.0655  0.3377
 1452TIP3    H225992   6.226   2.141   1.140 -0.0433  0.1283  0.5009
 1453TIP3   OH225993   0.116   2.123   2.390  0.0418 -0.3878  0.2521
 1453TIP3    H125994   0.188   2.069   2.423 -0.2385 -1.2304 -0.4923
 1453TIP3    H225995   0.135   2.134   2.297 -0.0917  0.5199  0.3192
 1454TIP3   OH225996   0.654   6.258   7.971 -0.3209  0.2868  0.1873
 1454TIP3    H125997   0.710   6.325   7.930  1.9262 -0.2523  2.1628
 1454TIP3    H225998   0.694   6.175   7.945 -0.2971 -0.1202  1.4683
 1455TIP3   OH225999   5.240   1.635   8.674  0.5807 -0.7996 -0.0393
 1455TIP3    H126000   5.253   1.690   8.597 -1.0010 -0.1752  0.0862
 1455TIP3    H226001   5.264   1.547   8.645 -0.3995 -0.6574 -1.4146
 1456TIP3   OH226002   6.300   5.245   6.412 -0.5440 -0.1487 -0.9907
 1456TIP3    H126003   6.270   5.309   6.476 -0.9275 -2.2116  1.0070
 1456TIP3    H226004   6.386   5.218   6.443 -1.0084 -1.6441 -0.9440
 1457TIP3   OH226005   3.121   0.369   8.416  0.0534 -0.0897 -0.3312
 1457TIP3    H126006   3.039   0.418   8.432  1.2635  1.6602  0.9820
 1457TIP3    H226007   3.187   0.419   8.464  1.9574 -1.3044 -1.5970
 1458TIP3   OH226008   1.892   5.481   6.786 -0.8551  0.1633  0.2397
 1458TIP3    H126009   1.877   5.566   6.744 -1.4284 -0.6993 -1.3798
 1458TIP3    H226010   1.849   5.489   6.871 -0.9690  1.4639  0.0874
 1459TIP3   OH226011   0.706   3.996   0.648  0.3255  0.3040  0.1633
 1459TIP3    H126012   0.736   4.032   0.564  0.9762 -0.6030 -0.0122
 1459TIP3    H226013   0.702   3.901   0.633 -0.6764  0.2259  0.8165
 1460TIP3   OH226014   3.730   3.084   2.500  0.1124 -0.2569 -0.1492
 1460TIP3    H126015   3.686   3.011   2.543  0.9044 -0.0901  0.9986
 1460TIP3    H226016   3.787   3.121   2.568 -3.6838  4.5320  1.0459
 1461TIP3   OH226017   5.028   4.837   8.109  0.2125  0.5830 -0.4668
 1461TIP3    H126018   4.985   4.849   8.194 -1.0726 -2.4964 -0.5558
 1461TIP3    H226019   5.121   4.837   8.129 -0.0615  0.3732  0.8728
 1462TIP3   OH226020   3.914   2.630   1.228  0.2434  0.7407  0.0924
 1462TIP3    H126021   3.986   2.632   1.291  0.3033  1.8160  0.0093
 1462TIP3    H226022   3.855   2.700   1.257  0.6608  1.8089 -1.4898
 1463TIP3   OH226023   5.738   5.009   7.624  0.0510 -0.1126 -0.0719
 1463TIP3    H126024   5.689   4.927   7.616  0.6633 -0.4982  0.0639
 1463TIP3    H226025   5.673   5.074   7.649 -0.4920 -0.5012 -0.4507
 1464TIP3   OH226026   4.141   4.229   8.104  0.0444  0.0910  0.0469
 1464TIP3    H126027   4.086   4.151   8.112 -0.6360  0.6447  0.8782
 1464TIP3    H226028   4.202   4.208   8.033  0.1377 -1.3546  0.5338
 1465TIP3   OH226029   6.739   3.449   0.221 -0.1512  0.5790 -0.3896
 1465TIP3    H126030   6.710   3.505   0.150 -1.1127 -0.9107 -1.2277
 1465TIP3    H226031   6.663   3.394   0.241  0.8880 -0.7680  0.0178
 1466TIP3   OH226032   1.429   0.807   1.421 -0.1408 -0.2155 -0.5532
 1466TIP3    H126033   1.382   0.877   1.376 -1.1115 -0.5994 -0.1571
 1466TIP3    H226034   1.481   0.853   1.487 -1.1071  0.1209 -0.0016
 1467TIP3   OH226035   2.745   5.396   2.328  0.2104 -0.0943  0.0933
 1467TIP3    H126036   2.663   5.437   2.356  0.5982  1.6297 -1.1363
 1467TIP3    H226037   2.809   5.424   2.392  0.0115 -0.7748  0.5980
 1468TIP3   OH226038   5.478   4.218   8.159 -0.2482 -0.0793 -0.0614
 1468TIP3    H126039   5.483   4.248   8.068  0.3784 -1.2824 -0.4398
 1468TIP3    H226040   5.567   4.190   8.180 -0.2088  0.9248  1.1982
 1469TIP3   OH226041   0.781   1.523   2.241  0.1201  0.0631  0.1307
 1469TIP3    H126042   0.761   1.472   2.162 -2.2356 -2.9996  2.4848
 1469TIP3    H226043   0.870   1.496   2.265 -0.4786 -1.7299  0.4173
 1470TIP3   OH226044   3.444   6.305   2.678  0.2037 -0.6070  0.1018
 1470TIP3    H126045   3.419   6.233   2.619 -1.5697  0.3914 -0.4255
 1470TIP3    H226046   3.379   6.302   2.748  0.3549  0.2135  0.2871
 1471TIP3   OH226047   3.028   0.604   2.593  0.3964 -0.0285 -0.0349
 1471TIP3    H126048   2.976   0.680   2.566 -0.4283 -0.7161 -0.4284
 1471TIP3    H226049   2.965   0.533   2.599  0.6114 -0.0760  3.1966
 1472TIP3   OH226050   1.417   2.930   2.295 -0.1734 -0.3302 -0.4069
 1472TIP3    H126051   1.511   2.927   2.278 -0.5244  0.6403 -2.9047
 1472TIP3    H226052   1.400   3.019   2.327 -0.5208  0.2778 -2.1975
 1473TIP3   OH226053   6.297   4.446   7.427  0.3584  0.1508  0.2674
 1473TIP3    H126054   6.207   4.474   7.412  0.4660  1.2290  1.5180
 1473TIP3    H226055   6.307   4.443   7.522  1.7251  0.3195  0.1597
 1474TIP3   OH226056   1.749   2.331   0.258 -0.4787 -0.0861  0.1781
 1474TIP3    H126057   1.669   2.382   0.267 -0.7706 -0.4725 -0.2134
 1474TIP3    H226058   1.812   2.376   0.314 -1.1198 -0.1083  0.9348
 1475TIP3   OH226059   4.908   5.818   0.847  0.2175 -0.2615 -0.4267
 1475TIP3    H126060   4.954   5.746   0.890 -0.4143 -0.1964  0.3603
 1475TIP3    H226061   4.964   5.894   0.861  0.3908 -0.3936 -0.3958
 1476TIP3   OH226062   3.737   0.634   6.766 -0.4425 -0.2386 -0.1549
 1476TIP3    H126063   3.781   0.577   6.703  0.7576  0.4327  0.0457
 1476TIP3    H226064   3.692   0.699   6.711  2.4611  1.7405 -0.4108
 1477TIP3   OH226065   2.387   5.708   0.255  0.3458 -0.0004 -0.1369
 1477TIP3    H126066   2.311   5.666   0.214  0.1207 -0.8827  1.1019
 1477TIP3    H226067   2.461   5.652   0.233  0.1551 -0.7155  0.9650
 1478TIP3   OH226068   1.379   2.436   7.578  0.0498  0.2232  0.1136
 1478TIP3    H126069   1.432   2.359   7.557  0.4524  0.3153  0.7561
 1478TIP3    H226070   1.318   2.444   7.505 -0.5660 -1.2085  0.4300
 1479TIP3   OH226071   5.567   4.351   7.429  0.0563 -0.5936 -0.6185
 1479TIP3    H126072   5.655   4.367   7.393  0.0497 -0.8350 -0.7446
 1479TIP3    H226073   5.543   4.264   7.397  0.0522 -0.8202 -0.0220
 1480TIP3   OH226074   2.322   4.621   8.612  0.2689  0.4502  0.0152
 1480TIP3    H126075   2.362   4.682   8.674 -1.5900  0.5485  1.1608
 1480TIP3    H226076   2.229   4.624   8.631 -0.2668 -0.1847 -2.2206
 1481TIP3   OH226077   0.842   5.100   8.436 -0.3102 -0.2246 -0.2471
 1481TIP3    H126078   0.866   5.008   8.452  0.1414  0.0431  0.7317
 1481TIP3    H226079   0.761   5.112   8.485 -1.4072 -0.5895 -1.9214
 1482TIP3   OH226080   5.811   2.460   8.276 -0.6479  0.7889 -0.1970
 1482TIP3    H126081   5.737   2.477   8.218  0.5880 -0.7275 -2.3801
 1482TIP3    H226082   5.871   2.408   8.223  1.0332  0.1404  2.1799
 1483TIP3   OH226083   0.926   5.170   0.075 -0.8865 -0.5448 -0.4305
 1483TIP3    H126084   0.899   5.159   0.166  0.3638  0.6135  0.1143
 1483TIP3    H226085   0.912   5.084   0.036  0.6995 -1.7518  1.4512
 1484TIP3   OH226086   0.507   5.902   1.137  0.6413 -0.2444  0.2631
 1484TIP3    H126087   0.595   5.935   1.115  1.2111 -1.2553  0.9331
 1484TIP3    H226088   0.510   5.891   1.232 -0.5109  0.4967  0.4094
 1485TIP3   OH226089   6.567   5.240   0.298 -0.7589 -0.1518  0.2969
 1485TIP3    H126090   6.593   5.294   0.373  3.3927 -1.2630 -0.1304
 1485TIP3    H226091   6.585   5.150   0.326  0.6386 -0.6082 -1.8434
 1486TIP3   OH226092   4.809   5.619   8.611  0.0072 -0.6412  0.4030
 1486TIP3    H126093   4.899   5.604   8.582  0.3707 -2.2500  2.1389
 1486TIP3    H226094   4.758   5.548   8.572 -0.2965 -0.3649  0.2934
 1487TIP3   OH226095   2.723   5.546   0.465 -0.8933  0.2522 -0.3572
 1487TIP3    H126096   2.765   5.553   0.380 -1.6249 -1.9213 -0.9596
 1487TIP3    H226097   2.633   5.521   0.446 -0.4648 -2.8155  1.0374
 1488TIP3   OH226098   4.623   6.024   1.966  0.6586 -0.0409  0.6756
 1488TIP3    H126099   4.590   6.101   2.012  0.7292 -0.2074  1.0044
 1488TIP3    H226100   4.669   5.974   2.033  0.2407 -0.5835  0.5579
 1489TIP3   OH226101   0.956   2.846   8.100  0.2571 -0.0106  0.2562
 1489TIP3    H126102   0.938   2.860   8.193  3.5220  1.5888  0.7873
 1489TIP3    H226103   1.008   2.766   8.097 -1.1509 -0.9367 -0.4349
 1490TIP3   OH226104   1.439   5.787   1.378 -0.1474  0.2944 -0.3837
 1490TIP3    H126105   1.441   5.769   1.472  1.0250  1.5117 -0.1490
 1490TIP3    H226106   1.432   5.700   1.338  1.1988 -0.4116  0.8006
 1491TIP3   OH226107   6.806   3.036   8.683 -0.2157  0.0298 -0.0497
 1491TIP3    H126108   6.810   2.945   8.655  2.2036 -0.1184  0.5939
 1491TIP3    H226109   6.790   3.032   8.778 -2.1886  0.3776 -0.3225
 1492TIP3   OH226110   4.645   2.435   0.161 -0.1089 -0.2810 -0.2304
 1492TIP3    H126111   4.565   2.408   0.208 -0.2256  0.4791  0.0164
 1492TIP3    H226112   4.702   2.469   0.230 -0.8386  2.1959 -0.7812
 1493TIP3   OH226113   6.802   4.947   1.900 -0.5489  0.4858  0.9861
 1493TIP3    H126114   6.894   4.964   1.879 -0.2783  0.6838  2.2376
 1493TIP3    H226115   6.801   4.935   1.995 -2.0360  1.9782  1.1967
 1494TIP3   OH226116   6.097   6.200   1.430  0.0466 -0.3873  0.5733
 1494TIP3    H126117   6.093   6.194   1.525  0.5248 -3.5986  0.4849
 1494TIP3    H226118   6.017   6.156   1.400  0.7797 -1.0431 -0.4890
 1495TIP3   OH226119   6.728   5.468   1.392 -0.3070 -0.6904 -0.4097
 1495TIP3    H126120   6.818   5.443   1.411 -0.5128 -0.0883  1.5378
 1495TIP3    H226121   6.732   5.507   1.304  1.7099  1.1957  0.4387
 1496TIP3   OH226122   3.635   2.736   0.454 -0.8879  0.3610 -0.3815
 1496TIP3    H126123   3.671   2.724   0.366 -0.5142  0.8699 -0.3063
 1496TIP3    H226124   3.544   2.709   0.447 -0.9835  0.8271 -1.0452
 1497TIP3   OH226125   4.707   5.167   1.266  0.0561  0.1925 -0.7408
 1497TIP3    H126126   4.801   5.167   1.283  0.2561 -0.2997 -1.7652
 1497TIP3    H226127   4.694   5.099   1.200 -0.7478  1.4407 -1.9454
 1498TIP3   OH226128   0.293   2.391   7.424 -0.0600 -0.4389 -0.1622
 1498TIP3    H126129   0.295   2.329   7.351  1.2623 -1.3613  0.6177
 1498TIP3    H226130   0.302   2.337   7.502 -1.0037  0.5772  0.6789
 1499TIP3   OH226131   0.383   6.363   0.640  0.0030 -0.2733  0.5538
 1499TIP3    H126132   0.476   6.356   0.662  0.2814 -0.3984 -0.5730
 1499TIP3    H226133   0.380   6.428   0.570 -0.7221 -0.4846  0.3781
 1500TIP3   OH226134   2.464   5.413   7.258 -0.2992  0.3176 -0.2987
 1500TIP3    H126135   2.456   5.318   7.263 -0.2949  0.3730  2.2124
 1500TIP3    H226136   2.537   5.434   7.317  1.3079  1.7357 -2.6330
 1501TIP3   OH226137   2.992   2.229   1.940 -0.8666  0.1816 -0.3141
 1501TIP3    H126138   3.033   2.286   2.004 -1.0159 -0.8653  0.7628
 1501TIP3    H226139   3.019   2.140   1.966 -0.4380 -0.2414 -2.0735
 1502TIP3   OH226140   3.507   1.801   7.782 -0.4987 -0.3621 -0.1795
 1502TIP3    H126141   3.512   1.803   7.686 -0.7476  1.1918 -0.1838
 1502TIP3    H226142   3.598   1.795   7.811 -0.4567 -1.4462 -0.5093
 1503TIP3   OH226143   4.354   5.251   2.326  0.7444 -0.1484 -0.0743
 1503TIP3    H126144   4.435   5.288   2.361 -0.4049  0.7511  1.8054
 1503TIP3    H226145   4.292   5.324   2.327 -0.5632 -1.2214  0.1752
 1504TIP3   OH226146   3.953   2.598   8.048 -0.4157  0.1967  0.1992
 1504TIP3    H126147   3.867   2.637   8.036  0.1965  1.4187 -0.4010
 1504TIP3    H226148   4.009   2.670   8.076  0.3768 -0.6253  0.8097
 1505TIP3   OH226149   6.480   2.828   7.843 -0.7210  0.1218 -0.2929
 1505TIP3    H126150   6.391   2.794   7.829 -1.9747  2.8101  0.5563
 1505TIP3    H226151   6.477   2.917   7.809  1.6859  0.3015 -0.1935
 1506TIP3   OH226152   3.732   2.655   1.833  0.0028 -0.4313 -0.2220
 1506TIP3    H126153   3.671   2.721   1.799  0.2464  0.1299  0.4026
 1506TIP3    H226154   3.729   2.666   1.928 -1.6726 -2.8604  0.0933
 1507TIP3   OH226155   4.754   0.970   6.654  0.7336  0.4718  0.2947
 1507TIP3    H126156   4.810   0.963   6.577 -0.3804 -2.6268 -0.4108
 1507TIP3    H226157   4.809   0.941   6.727  0.8029 -0.0836  0.0276
 1508TIP3   OH226158   1.523   4.691   0.168  0.5305  0.2199 -0.3113
 1508TIP3    H126159   1.430   4.710   0.175  0.1811 -0.9212 -1.4168
 1508TIP3    H226160   1.528   4.619   0.105  2.0949 -0.2854  0.3424
 1509TIP3   OH226161   2.797   4.162   8.253 -0.0337 -0.4019 -0.0594
 1509TIP3    H126162   2.781   4.089   8.314 -1.4656  0.3476  0.4981
 1509TIP3    H226163   2.766   4.239   8.300  2.3092  0.7465 -0.2695
 1510TIP3   OH226164   5.916   1.149   2.632  0.1386 -0.0853  0.1474
 1510TIP3    H126165   5.874   1.064   2.617  2.2383 -1.0059 -0.8584
 1510TIP3    H226166   6.000   1.143   2.587  1.1676  1.8470  1.6609
 1511TIP3   OH226167   4.562   1.004   6.858  0.0373  0.1841  0.3105
 1511TIP3    H126168   4.569   1.098   6.847 -0.1057  0.4487  2.1501
 1511TIP3    H226169   4.605   0.967   6.781 -2.4023  1.7068 -1.9011
 1512TIP3   OH226170   4.029   5.919   7.889 -0.0642  0.4031  0.2341
 1512TIP3    H126171   4.099   5.854   7.900  0.7179  1.1507 -0.2169
 1512TIP3    H226172   3.966   5.898   7.959 -0.9549 -2.1989 -1.1864
 1513TIP3   OH226173   5.755   5.887   0.299 -0.6767 -0.3804 -0.4998
 1513TIP3    H126174   5.716   5.902   0.385  0.1580 -5.1630  1.0132
 1513TIP3    H226175   5.695   5.828   0.255  0.9294 -1.4852 -1.3301
 1514TIP3   OH226176   0.275   0.873   0.288  0.3305  0.4984 -0.4235
 1514TIP3    H126177   0.212   0.836   0.226 -1.2464 -0.4135  1.5980
 1514TIP3    H226178   0.349   0.813   0.285  0.3251  0.5147 -1.4560
 1515TIP3   OH226179   5.096   2.938   7.692  0.4500 -0.1038 -0.1238
 1515TIP3    H126180   5.158   2.893   7.750  0.2418 -0.0284  0.1627
 1515TIP3    H226181   5.054   3.003   7.748 -1.6129 -1.7180  0.3487
 1516TIP3   OH226182   3.065   2.125   7.890 -0.2783  0.2925 -0.5400
 1516TIP3    H126183   3.159   2.142   7.896 -0.5561  1.6773  0.4598
 1516TIP3    H226184   3.042   2.146   7.799  0.6040 -1.5802 -1.2569
 1517TIP3   OH226185   6.685   2.094   0.410  0.5578 -0.3304 -0.4537
 1517TIP3    H126186   6.655   2.184   0.409  2.0289  0.1832 -0.7011
 1517TIP3    H226187   6.607   2.043   0.432 -0.0042  1.1051  1.1145
 1518TIP3   OH226188   4.733   1.403   0.467  0.0378 -1.0960  0.5067
 1518TIP3    H126189   4.693   1.360   0.391 -0.2021 -2.7815  1.5416
 1518TIP3    H226190   4.822   1.367   0.471  0.2432 -0.5738  0.6848
 1519TIP3   OH226191   0.915   1.118   6.958 -0.6152 -0.1330 -0.4024
 1519TIP3    H126192   1.005   1.145   6.971 -1.3262  2.2956 -0.0697
 1519TIP3    H226193   0.885   1.169   6.883 -2.0132 -0.0442  0.1824
 1520TIP3   OH226194   2.111   5.063   0.417  0.7361 -0.1432 -0.1740
 1520TIP3    H126195   2.078   5.147   0.449 -0.0888 -0.7546  0.6334
 1520TIP3    H226196   2.037   5.003   0.426  0.8500 -0.6300 -2.1677
 1521TIP3   OH226197   2.419   2.576   2.789 -0.0612  0.0128 -0.2635
 1521TIP3    H126198   2.463   2.631   2.724 -0.0774  2.0957  1.3676
 1521TIP3    H226199   2.485   2.560   2.855 -1.1002  1.4315  1.1959
 1522TIP3   OH226200   1.409   0.442   0.031  0.5059 -0.4364 -0.5567
 1522TIP3    H126201   1.486   0.471   0.080 -0.7316  0.7265  0.8207
 1522TIP3    H226202   1.357   0.394   0.096 -0.1266 -0.8480 -1.3531
 1523TIP3   OH226203   4.733   0.308   6.485  0.2827 -0.0823  0.1445
 1523TIP3    H126204   4.820   0.347   6.483 -0.5434  1.9217  0.8946
 1523TIP3    H226205   4.688   0.345   6.409 -0.7106  0.9992  1.2106
 1524TIP3   OH226206   4.791   3.539   8.097 -0.1905 -0.2433 -0.1590
 1524TIP3    H126207   4.886   3.546   8.103 -0.0716 -0.9270 -1.0138
 1524TIP3    H226208   4.774   3.530   8.003 -1.1460  0.4883 -0.0708
 1525TIP3   OH226209   1.783   5.772   6.493  0.4689  0.1774  0.0416
 1525TIP3    H126210   1.838   5.796   6.567  0.0818  0.4871  0.2332
 1525TIP3    H226211   1.762   5.856   6.450 -1.7470  0.3579  1.3202
 1526TIP3   OH226212   2.678   5.370   2.064 -0.0263  0.4628 -0.0656
 1526TIP3    H126213   2.718   5.377   2.151  1.0323  1.5015 -0.6103
 1526TIP3    H226214   2.657   5.278   2.054  2.3183 -0.1590  0.2361
 1527TIP3   OH226215   2.847   5.546   8.245  0.3049  0.3524 -0.2675
 1527TIP3    H126216   2.766   5.496   8.257 -0.5647  1.7697 -0.0067
 1527TIP3    H226217   2.818   5.636   8.237  1.8718  0.8791 -0.2577
 1528TIP3   OH226218   1.319   1.418   8.639  0.0025 -0.3868  0.5058
 1528TIP3    H126219   1.369   1.417   8.721  0.5720  0.3508  0.1823
 1528TIP3    H226220   1.275   1.333   8.637  2.2028 -1.5942  0.2366
 1529TIP3   OH226221   5.883   4.705   7.603  0.2238 -0.2436 -0.0082
 1529TIP3    H126222   5.899   4.624   7.652  1.2604 -0.5058 -0.7473
 1529TIP3    H226223   5.953   4.764   7.630 -0.7692  0.5594  0.8324
 1530TIP3   OH226224   2.916   1.909   1.314 -0.1895  0.2907  0.4245
 1530TIP3    H126225   2.827   1.882   1.292  0.2045 -1.0144  0.3545
 1530TIP3    H226226   2.972   1.854   1.259  0.6580  1.5321 -0.0053
 1531TIP3   OH226227   1.566   5.856   0.164  0.4590  0.0459 -0.3991
 1531TIP3    H126228   1.643   5.800   0.178 -0.2844 -0.9634 -0.2875
 1531TIP3    H226229   1.504   5.828   0.232  0.0037  0.8886 -0.4600
 1532TIP3   OH226230   5.945   2.374   7.957  0.3199 -0.3770  0.4243
 1532TIP3    H126231   5.986   2.459   7.973  1.2953 -0.6175 -0.6839
 1532TIP3    H226232   5.970   2.320   8.032  1.4549 -0.2967  0.1192
 1533TIP3   OH226233   0.782   4.754   1.357 -0.1023 -0.5516 -0.4175
 1533TIP3    H126234   0.844   4.710   1.298  0.1443  1.3820 -1.7184
 1533TIP3    H226235   0.697   4.716   1.336  0.2662 -1.2957 -0.5878
 1534TIP3   OH226236   2.688   2.100   7.436  0.0585 -0.7094  0.6929
 1534TIP3    H126237   2.749   2.147   7.379 -0.4541 -0.6185  0.2094
 1534TIP3    H226238   2.604   2.146   7.425  0.2086  0.0801  2.4531
 1535TIP3   OH226239   0.842   0.286   7.070  0.3388 -0.7916 -0.1307
 1535TIP3    H126240   0.751   0.259   7.055  0.1828  0.4087 -1.5418
 1535TIP3    H226241   0.849   0.372   7.029  2.1324 -0.8692 -0.0720
 1536TIP3   OH226242   0.217   1.584   1.054  0.5379  0.4055  0.1849
 1536TIP3    H126243   0.172   1.599   0.971  1.0272 -2.2788 -0.6574
 1536TIP3    H226244   0.310   1.597   1.034  0.5418  1.4847  0.8011
 1537TIP3   OH226245   5.878   3.748   7.968  0.6965 -0.4322  0.1688
 1537TIP3    H126246   5.873   3.661   7.929 -0.4947  0.1888 -1.1158
 1537TIP3    H226247   5.951   3.790   7.923  1.4578 -0.8330  0.9904
 1538TIP3   OH226248   0.696   0.020   1.678  0.0249 -0.0964 -0.3340
 1538TIP3    H126249   0.672   0.110   1.697  1.3380  0.6545 -1.9616
 1538TIP3    H226250   0.767   0.027   1.614 -0.5564 -2.2986 -1.3317
 1539TIP3   OH226251   3.742   6.387   0.749  0.4647 -0.1844  0.3253
 1539TIP3    H126252   3.828   6.387   0.792  0.1383  1.2352  1.0183
 1539TIP3    H226253   3.680   6.410   0.818 -0.5968 -1.8611  0.0036
 1540TIP3   OH226254   6.775   4.759   1.014  0.3059  0.5339  0.1444
 1540TIP3    H126255   6.744   4.680   0.969  0.4667  0.6139 -0.1103
 1540TIP3    H226256   6.866   4.739   1.038  0.4851  0.7987 -0.3017
 1541TIP3   OH226257   6.299   4.451   2.066 -0.2355  0.6494  0.8527
 1541TIP3    H126258   6.266   4.378   2.118 -1.2082  0.3011 -0.1920
 1541TIP3    H226259   6.374   4.415   2.018 -0.1539  0.5939  1.0248
 1542TIP3   OH226260   2.885   4.819   2.057 -0.2786 -0.2422 -0.4680
 1542TIP3    H126261   2.808   4.835   2.111 -1.0550 -2.9066 -0.6311
 1542TIP3    H226262   2.915   4.731   2.083  3.6365  1.1861  0.6141
 1543TIP3   OH226263   5.684   1.021   2.175  0.1193 -0.4582 -0.0189
 1543TIP3    H126264   5.612   1.016   2.238 -0.2083  3.4753  0.1833
 1543TIP3    H226265   5.725   1.106   2.192  1.2400 -0.0234 -3.8369
 1544TIP3   OH226266   2.272   2.565   7.848  0.0286  0.5684 -0.0621
 1544TIP3    H126267   2.297   2.519   7.928 -0.8555  0.5904  0.2444
 1544TIP3    H226268   2.297   2.656   7.864 -0.3447  0.6121  0.2821
 1545TIP3   OH226269   0.103   0.731   1.333  0.0364  0.6533  0.0581
 1545TIP3    H126270   0.189   0.712   1.371 -0.4266 -1.2486  0.2692
 1545TIP3    H226271   0.123   0.780   1.253  1.1485  2.4162  1.3551
 1546TIP3   OH226272   2.016   3.973   8.252  0.2297 -0.0390 -0.7383
 1546TIP3    H126273   1.943   3.917   8.278  0.4414  1.5600  4.2514
 1546TIP3    H226274   1.991   4.006   8.165 -2.7582 -2.9726 -1.1818
 1547TIP3   OH226275   2.823   1.116   7.333  0.7398 -0.5338  0.2985
 1547TIP3    H126276   2.770   1.097   7.256 -0.8567  0.9568  0.9426
 1547TIP3    H226277   2.913   1.118   7.301  0.1992 -0.8952 -1.3180
 1548TIP3   OH226278   0.206   0.454   7.041  0.6093 -0.2596 -0.2908
 1548TIP3    H126279   0.302   0.451   7.038  0.7014  1.6709 -0.2850
 1548TIP3    H226280   0.181   0.503   6.962 -0.4202 -1.2153 -0.5769
 1549TIP3   OH226281   1.526   1.215   2.167  0.0443  0.2818  0.0484
 1549TIP3    H126282   1.548   1.232   2.258  2.7114  0.9216 -0.6526
 1549TIP3    H226283   1.499   1.300   2.132 -1.4574 -0.0530  0.2983
 1550TIP3   OH226284   1.521   1.475   1.641  0.0482 -0.7184  0.1830
 1550TIP3    H126285   1.456   1.532   1.681 -0.8353 -0.3916 -1.6360
 1550TIP3    H226286   1.604   1.503   1.680 -0.4021  1.5359 -0.3337
 1551TIP3   OH226287   2.321   2.434   1.393 -0.1485  0.2359 -0.1095
 1551TIP3    H126288   2.236   2.460   1.430 -0.5537 -0.6591 -0.3845
 1551TIP3    H226289   2.365   2.517   1.374 -1.0747  0.7165 -0.2303
 1552TIP3   OH226290   4.163   1.042   8.466 -0.1616 -0.1601 -0.1265
 1552TIP3    H126291   4.153   1.087   8.383 -0.8144 -0.9295 -0.4799
 1552TIP3    H226292   4.108   0.964   8.459  1.0276 -1.1052  0.4016
 1553TIP3   OH226293   1.763   6.675   0.991 -0.4522 -0.2704  0.0064
 1553TIP3    H126294   1.827   6.673   1.061 -1.0110 -1.7807  0.5103
 1553TIP3    H226295   1.732   6.585   0.983 -1.6009  0.1773 -1.0601
 1554TIP3   OH226296   3.718   4.490   1.225  0.0946  0.0456  0.2329
 1554TIP3    H126297   3.667   4.423   1.269 -1.0205 -0.3470 -1.5537
 1554TIP3    H226298   3.654   4.556   1.200  0.4656 -0.2837 -1.7309
 1555TIP3   OH226299   2.454   0.096   7.459 -0.4303  0.0187 -0.2731
 1555TIP3    H126300   2.511   0.150   7.405  0.7266  0.2438  1.1241
 1555TIP3    H226301   2.367   0.108   7.421  0.0989  1.3701 -1.1213
 1556TIP3   OH226302   0.122   0.256   2.508  0.0492 -0.2826 -0.6728
 1556TIP3    H126303   0.139   0.350   2.499 -0.6278 -0.0690  0.1706
 1556TIP3    H226304   0.116   0.225   2.417 -1.0911  0.7491 -0.9854
 1557TIP3   OH226305   0.117   1.834   2.257  0.1930  0.2665 -0.4234
 1557TIP3    H126306   0.184   1.843   2.190 -0.9633 -3.0427 -2.2556
 1557TIP3    H226307   0.119   1.742   2.282 -1.4332  0.7594  1.9731
 1558TIP3   OH226308   0.411   5.497   1.171 -0.5156  0.2564  0.2955
 1558TIP3    H126309   0.355   5.543   1.233 -0.8289  2.2192 -1.3521
 1558TIP3    H226310   0.351   5.440   1.123 -0.6979  0.6179  0.0946
 1559TIP3   OH226311   2.773   5.219   1.118 -0.0462  0.5246 -0.1092
 1559TIP3    H126312   2.682   5.249   1.125  1.0849  4.8913 -1.1290
 1559TIP3    H226313   2.778   5.177   1.033 -0.8301  1.8269 -0.8393
 1560TIP3   OH226314   3.630   0.808   1.377 -0.1123 -0.0443 -0.3026
 1560TIP3    H126315   3.673   0.763   1.303 -0.6000 -0.0296 -0.5973
 1560TIP3    H226316   3.703   0.841   1.430  0.2536  0.7647 -1.2718
 1561TIP3   OH226317   2.274   0.946   7.820 -0.4341 -0.4468 -0.6876
 1561TIP3    H126318   2.365   0.916   7.817 -0.0409  0.3452  1.2543
 1561TIP3    H226319   2.258   0.983   7.733  2.1292  2.0768 -0.2732
 1562TIP3   OH226320   0.142   0.464   2.078  0.0397 -0.0598  0.4992
 1562TIP3    H126321   0.052   0.430   2.075  0.6625 -1.8322  0.5003
 1562TIP3    H226322   0.132   0.559   2.080 -1.8844 -0.2328  2.2266
 1563TIP3   OH226323   6.756   1.494   0.339  0.3943 -0.1183 -0.4909
 1563TIP3    H126324   6.736   1.433   0.268 -0.0652 -0.2547 -0.2502
 1563TIP3    H226325   6.821   1.553   0.302 -0.7928  0.6347 -1.4646
 1564TIP3   OH226326   1.980   3.919   2.462  0.1275 -0.2216  0.1329
 1564TIP3    H126327   2.002   4.010   2.442 -1.8896 -0.1015 -1.8624
 1564TIP3    H226328   1.914   3.925   2.530 -0.6553 -0.1275 -0.6229
 1565TIP3   OH226329   5.490   2.930   0.043 -0.2419 -0.2534  0.8750
 1565TIP3    H126330   5.584   2.946   0.050 -0.3229  0.0851  1.2248
 1565TIP3    H226331   5.452   2.977   0.118 -0.4141 -2.7674  2.4889
 1566TIP3   OH226332   0.495   1.613   8.611 -0.4702  0.1110  0.0514
 1566TIP3    H126333   0.481   1.524   8.580  0.6305 -0.6539  1.6527
 1566TIP3    H226334   0.526   1.661   8.533  0.0147 -1.1788 -0.5762
 1567TIP3   OH226335   4.402   3.976   1.785 -0.5947  0.2915  0.3729
 1567TIP3    H126336   4.457   4.035   1.733  1.0273 -2.0977 -0.7794
 1567TIP3    H226337   4.422   3.998   1.876  3.3713 -1.3018  0.0453
 1568TIP3   OH226338   6.532   6.450   7.393 -0.0495  0.1763  0.0164
 1568TIP3    H126339   6.554   6.532   7.437 -0.5402 -0.2799  1.1566
 1568TIP3    H226340   6.455   6.472   7.341 -0.2003  0.4460  0.3422
 1569TIP3   OH226341   1.050   2.324   7.091  0.2286  0.6662  0.3356
 1569TIP3    H126342   0.973   2.266   7.085 -0.0845  0.7709  2.5546
 1569TIP3    H226343   1.023   2.404   7.046 -0.3820  0.1465 -0.2540
 1570TIP3   OH226344   3.669   0.839   2.492 -0.0567  0.2616  0.3632
 1570TIP3    H126345   3.673   0.826   2.587 -2.7648  1.1552  0.7019
 1570TIP3    H226346   3.601   0.780   2.463 -0.1788  0.9563 -0.8104
 1571TIP3   OH226347   0.791   5.946   8.688 -0.2481  0.0068 -0.5810
 1571TIP3    H126348   0.854   5.955   8.760  0.1223 -1.0787 -0.7533
 1571TIP3    H226349   0.726   5.884   8.720 -0.9834  0.7403 -0.5952
 1572TIP3   OH226350   6.270   1.552   8.428  0.3510  0.4605 -0.5864
 1572TIP3    H126351   6.269   1.631   8.482 -0.7264 -0.1485  0.3289
 1572TIP3    H226352   6.293   1.583   8.341 -1.1469  1.9797 -0.4950
 1573TIP3   OH226353   2.985   5.392   8.053  0.0299 -0.3030  0.4377
 1573TIP3    H126354   2.917   5.440   8.099 -1.0523 -1.6384  0.2972
 1573TIP3    H226355   2.962   5.400   7.961  1.4817  1.2952  0.1570
 1574TIP3   OH226356   3.098   2.881   1.792  0.3148  0.2500 -0.2908
 1574TIP3    H126357   3.110   2.974   1.770 -1.3975  0.4051 -0.6736
 1574TIP3    H226358   3.067   2.882   1.882  1.3755 -0.0382  0.0913
 1575TIP3   OH226359   5.966   3.729   1.215  0.5248  0.0627 -0.4374
 1575TIP3    H126360   5.977   3.731   1.310 -0.9819 -1.8434 -0.1819
 1575TIP3    H226361   5.954   3.821   1.190  1.4974  0.6357  1.1231
 1576TIP3   OH226362   5.010   6.012   1.090 -0.0985 -0.3040  0.4880
 1576TIP3    H126363   5.070   6.073   1.045 -0.0404  0.0828  1.0823
 1576TIP3    H226364   4.925   6.027   1.047  0.2517 -0.9867 -0.4833
 1577TIP3   OH226365   4.464   3.283   7.293  0.2015  0.1867  0.5258
 1577TIP3    H126366   4.370   3.266   7.299 -0.4005  1.1238 -3.4706
 1577TIP3    H226367   4.499   3.212   7.239  1.8254 -0.0935  1.8559
 1578TIP3   OH226368   3.499   4.766   0.361  0.1399  0.1929 -0.4497
 1578TIP3    H126369   3.444   4.749   0.284 -0.1717  0.4057 -0.2797
 1578TIP3    H226370   3.461   4.845   0.400  0.1525 -0.0447  0.0513
 1579TIP3   OH226371   4.700   2.908   1.529 -0.0581  0.3159 -0.6707
 1579TIP3    H126372   4.665   2.820   1.533  0.2997  0.1413 -1.2307
 1579TIP3    H226373   4.731   2.918   1.439 -1.4794  1.5560 -1.0598
 1580TIP3   OH226374   1.936   3.792   3.057 -0.3423 -0.0823  0.5177
 1580TIP3    H126375   1.853   3.804   3.102 -0.5847 -0.5212  0.1912
 1580TIP3    H226376   1.997   3.763   3.125 -0.0787  1.5991  1.0607
 1581TIP3   OH226377   0.024   6.792   7.458 -0.7381  0.1979 -0.2107
 1581TIP3    H126378  -0.057   6.755   7.423 -1.1916  1.8275 -0.9634
 1581TIP3    H226379   0.030   6.879   7.420  0.7764  0.5696  0.7594
 1582TIP3   OH226380   0.647   6.181   0.557 -0.2635 -0.3716 -0.1616
 1582TIP3    H126381   0.704   6.115   0.597 -2.4364 -1.7263  0.9002
 1582TIP3    H226382   0.655   6.258   0.614  1.7556  0.1317 -1.0179
 1583TIP3   OH226383   2.778   5.572   2.947  0.2649 -0.5002  0.2635
 1583TIP3    H126384   2.837   5.497   2.953 -0.0583 -0.7353  0.5712
 1583TIP3    H226385   2.835   5.648   2.954  0.4815 -0.7290  1.1645
 1584TIP3   OH226386   5.345   0.476   0.528 -0.8080 -0.1820 -0.2624
 1584TIP3    H126387   5.400   0.403   0.500 -1.5217  0.0011 -2.3109
 1584TIP3    H226388   5.266   0.435   0.561 -1.5165 -0.4026 -2.0891
 1585TIP3   OH226389   0.161   4.409   7.830  0.2612 -0.2490  0.0343
 1585TIP3    H126390   0.164   4.341   7.763 -1.0189  1.1150 -1.5136
 1585TIP3    H226391   0.110   4.371   7.902 -0.3337 -0.9706 -0.7470
 1586TIP3   OH226392   4.985   3.681   1.291  0.6678 -0.1560  0.8187
 1586TIP3    H126393   4.993   3.693   1.196  1.8485 -1.1075  0.7813
 1586TIP3    H226394   4.901   3.722   1.313 -0.4010 -1.3163 -0.8729
 1587TIP3   OH226395   1.379   2.238   8.395  0.0548  0.6742  0.2606
 1587TIP3    H126396   1.348   2.148   8.387  0.9380  0.3736  0.1943
 1587TIP3    H226397   1.354   2.279   8.312 -1.8228  0.9728  0.9217
 1588TIP3   OH226398   2.196   3.831   8.520 -0.4920  0.1417 -0.3511
 1588TIP3    H126399   2.237   3.839   8.434  0.7191  0.4814  0.2424
 1588TIP3    H226400   2.215   3.742   8.548 -2.1870 -0.4846 -1.0526
 1589TIP3   OH226401   1.734   5.590   7.281 -0.7616 -0.0372 -0.0383
 1589TIP3    H126402   1.705   5.585   7.372  1.0999  1.0195  0.6743
 1589TIP3    H226403   1.705   5.677   7.252  1.6578  1.1112  0.7446
 1590TIP3   OH226404   1.479   4.478   7.911  0.3983  0.2925  0.2732
 1590TIP3    H126405   1.479   4.529   7.992  2.2747 -0.5467  0.8524
 1590TIP3    H226406   1.482   4.387   7.940  0.0252 -0.0492 -0.7378
 1591TIP3   OH226407   3.681   5.052   1.546  0.0826 -0.3192  0.0955
 1591TIP3    H126408   3.666   5.026   1.455  0.6795 -0.3350 -0.0015
 1591TIP3    H226409   3.694   5.147   1.542  1.1784 -0.4594  0.0143
 1592TIP3   OH226410   3.477   6.416   1.423 -0.0327 -0.1018  0.4598
 1592TIP3    H126411   3.464   6.469   1.345  0.7448  1.7877  1.5365
 1592TIP3    H226412   3.393   6.371   1.437 -0.6295  0.6330 -0.6519
 1593TIP3   OH226413   3.069   5.112   8.199  0.1220 -0.1305  0.3204
 1593TIP3    H126414   3.006   5.134   8.131 -1.1301  0.2842  1.5751
 1593TIP3    H226415   3.100   5.196   8.232  2.0034 -0.3176 -0.8296
 1594TIP3   OH226416   3.856   0.078   8.459  0.0946  0.1549  0.3861
 1594TIP3    H126417   3.813  -0.001   8.492  1.0704  0.4080  2.3835
 1594TIP3    H226418   3.871   0.132   8.536  1.0772  1.5036 -0.6934
 1595TIP3   OH226419   5.093   5.985   7.434 -1.0378 -0.1051  0.0646
 1595TIP3    H126420   5.154   5.970   7.362 -0.4001  1.0542  0.3341
 1595TIP3    H226421   5.149   6.013   7.507 -1.8483  0.7534  0.3783
 1596TIP3   OH226422   1.000   1.131   1.769  0.0794  0.4986 -0.5726
 1596TIP3    H126423   1.001   1.209   1.824 -0.2717  0.7190 -0.8725
 1596TIP3    H226424   1.077   1.142   1.712 -1.6996  2.2637 -2.8282
 1597TIP3   OH226425   5.050   1.735   7.858  0.0134 -0.6963  0.1723
 1597TIP3    H126426   5.070   1.797   7.788  0.1391 -0.9870 -0.0516
 1597TIP3    H226427   5.136   1.701   7.884  0.1903  0.8712  1.8395
 1598TIP3   OH226428   5.354   6.799   8.142  0.2542  0.5887 -0.8152
 1598TIP3    H126429   5.265   6.821   8.114  1.1173  2.5339 -2.2407
 1598TIP3    H226430   5.391   6.753   8.066  0.0573 -1.6300  0.3331
 1599TIP3   OH226431   5.605   5.752   0.498 -0.1985  0.1718  0.1213
 1599TIP3    H126432   5.696   5.772   0.520 -0.3889 -0.1593  1.2866
 1599TIP3    H226433   5.573   5.699   0.572 -1.0554 -0.5184 -0.7223
 1600TIP3   OH226434   1.646   5.611   7.579 -0.8064  0.0433  0.9868
 1600TIP3    H126435   1.719   5.551   7.591 -0.7550  0.0157  0.5568
 1600TIP3    H226436   1.683   5.698   7.592  0.3569  0.4363 -3.2776
 1601TIP3   OH226437   1.739   4.482   0.584 -0.5222 -0.4354  0.0119
 1601TIP3    H126438   1.703   4.400   0.550 -0.8079 -0.0213 -0.7051
 1601TIP3    H226439   1.698   4.550   0.531  0.9512  0.0876 -0.5095
 1602TIP3   OH226440   5.350   0.140   7.696 -0.6176  0.2799  0.5084
 1602TIP3    H126441   5.373   0.221   7.649  0.1010 -0.2639 -0.1032
 1602TIP3    H226442   5.277   0.165   7.752 -0.3364  1.3870  0.4089
 1603TIP3   OH226443   5.358   1.595   7.101  0.0493  0.6153 -0.2141
 1603TIP3    H126444   5.351   1.541   7.180 -1.2784  1.3887  0.2459
 1603TIP3    H226445   5.427   1.555   7.050 -0.0146 -0.7356  0.7082
 1604TIP3   OH226446   1.691   3.581   0.956 -0.0339  0.0029 -0.0777
 1604TIP3    H126447   1.646   3.625   1.028 -0.8165  1.3109 -1.3112
 1604TIP3    H226448   1.764   3.535   0.998 -0.4331  0.7617  1.5329
 1605TIP3   OH226449   0.708   1.308   0.338  0.3347  0.0470  0.0963
 1605TIP3    H126450   0.784   1.303   0.397  0.3161  0.7757  0.1951
 1605TIP3    H226451   0.663   1.388   0.365 -0.4478 -0.3601  0.0021
 1606TIP3   OH226452   4.338   4.387   8.248  0.5395  0.2109  0.4737
 1606TIP3    H126453   4.265   4.328   8.231  0.8439 -0.3151  0.9623
 1606TIP3    H226454   4.297   4.472   8.266  0.0514 -0.0642  0.6644
 1607TIP3   OH226455   0.594   6.168   1.465 -0.0244  0.0532  1.1539
 1607TIP3    H126456   0.638   6.244   1.428 -0.1246 -0.7630 -0.7546
 1607TIP3    H226457   0.503   6.176   1.437  0.4489 -2.0092 -1.3489
 1608TIP3   OH226458   5.516   3.462   0.948 -0.7891 -0.8841 -0.2267
 1608TIP3    H126459   5.581   3.527   0.974 -0.7439 -1.2161  0.5245
 1608TIP3    H226460   5.452   3.462   1.020 -1.9844 -0.1053 -1.2399
 1609TIP3   OH226461   2.420   3.829   7.364 -1.0698 -0.3045 -0.2809
 1609TIP3    H126462   2.448   3.804   7.276 -0.5597  0.0372 -0.2199
 1609TIP3    H226463   2.489   3.888   7.395 -2.3633  1.4078 -0.5239
 1610TIP3   OH226464   3.645   0.757   0.562 -0.0144 -0.0007 -0.1132
 1610TIP3    H126465   3.565   0.794   0.523 -0.4590  0.6781  1.3822
 1610TIP3    H226466   3.686   0.831   0.608  0.6616 -0.6980  0.4368
 1611TIP3   OH226467   0.564   0.361   7.489 -0.1508  0.1864 -0.2100
 1611TIP3    H126468   0.559   0.426   7.419  1.6932 -0.7558 -1.2961
 1611TIP3    H226469   0.655   0.365   7.518 -0.6707 -0.0437  1.5899
 1612TIP3   OH226470   3.233   0.157   8.174 -0.4390  0.4898 -0.3116
 1612TIP3    H126471   3.193   0.104   8.105  1.4228 -1.2874 -0.0903
 1612TIP3    H226472   3.216   0.109   8.255  2.2073 -0.4603 -0.2296
 1613TIP3   OH226473   1.908   6.056   7.430  0.2144  0.0214  0.8263
 1613TIP3    H126474   2.002   6.057   7.414  0.3206  0.6219  1.3986
 1613TIP3    H226475   1.885   6.149   7.440 -0.2916 -0.1655  1.4768
 1614TIP3   OH226476   5.140   3.232   2.511  0.0184  0.0881  0.2120
 1614TIP3    H126477   5.205   3.214   2.578 -1.7179 -1.0521  1.6546
 1614TIP3    H226478   5.089   3.151   2.503 -1.4237  1.0225 -0.6273
 1615TIP3   OH226479   1.883   5.479   2.071 -0.1244  0.3610 -0.1072
 1615TIP3    H126480   1.907   5.548   2.009  1.4500 -0.0966 -0.0418
 1615TIP3    H226481   1.953   5.481   2.137 -2.5898  2.0232  2.7419
 1616TIP3   OH226482   5.006   6.401   1.555  0.6065  0.6517  0.3759
 1616TIP3    H126483   5.044   6.476   1.600 -1.6234  2.2901 -0.2848
 1616TIP3    H226484   4.943   6.365   1.618  1.4471 -0.5208  0.5768
 1617TIP3   OH226485   2.949   4.942   8.658  0.2660 -0.2766 -0.1106
 1617TIP3    H126486   2.982   5.010   8.717  0.1506 -0.6985  0.4505
 1617TIP3    H226487   2.927   4.989   8.577  0.1558  0.3540  0.2769
 1618TIP3   OH226488   5.565   1.812   7.922 -0.1625  0.7345 -0.0034
 1618TIP3    H126489   5.648   1.856   7.903  1.1373 -1.7414 -0.4856
 1618TIP3    H226490   5.577   1.776   8.009 -1.7449  2.4322  0.9702
 1619TIP3   OH226491   1.836   5.812   7.581 -0.0966 -0.2925  0.1983
 1619TIP3    H126492   1.912   5.811   7.639 -0.6802 -0.0102  0.9801
 1619TIP3    H226493   1.855   5.882   7.519  0.2172 -0.1206  0.4807
 1620TIP3   OH226494   6.083   2.535   1.499  0.0172 -0.7618 -0.3687
 1620TIP3    H126495   6.144   2.502   1.433 -0.2246 -1.0738 -0.4396
 1620TIP3    H226496   6.100   2.482   1.577  0.4015 -0.2968 -0.1320
 1621TIP3   OH226497   3.336   2.626   7.235 -0.2799  0.0108  0.3632
 1621TIP3    H126498   3.303   2.568   7.303 -2.2141 -0.1794 -0.6599
 1621TIP3    H226499   3.399   2.682   7.280 -3.6222  1.9883  3.1465
 1622TIP3   OH226500   0.450   2.449   2.528  0.4782 -0.0412 -0.8699
 1622TIP3    H126501   0.535   2.491   2.514  1.3462 -1.1016  0.8550
 1622TIP3    H226502   0.411   2.445   2.441  2.6744 -0.4893 -1.9129
 1623TIP3   OH226503   3.576   2.849   6.890 -0.3512 -0.2286  0.6293
 1623TIP3    H126504   3.666   2.822   6.873 -0.6352 -0.3572 -0.8023
 1623TIP3    H226505   3.573   2.864   6.984  1.9315  2.5575  0.4024
 1624TIP3   OH226506   6.552   3.036   7.615  0.1634 -0.2229  0.0252
 1624TIP3    H126507   6.592   3.115   7.652 -2.0420  0.5941  0.8238
 1624TIP3    H226508   6.609   3.012   7.541  1.5338  1.4107  0.4998
 1625TIP3   OH226509   1.933   6.380   8.168  0.5133 -0.1678  0.6848
 1625TIP3    H126510   1.867   6.337   8.223 -1.1051  2.1117  0.6329
 1625TIP3    H226511   1.992   6.422   8.231  0.8606 -0.6640  0.6990
 1626TIP3   OH226512   3.287   3.520   6.854  0.1681  0.0118 -0.2388
 1626TIP3    H126513   3.294   3.522   6.759  0.1193 -0.0331 -0.2436
 1626TIP3    H226514   3.271   3.612   6.879  3.2351  0.6077 -0.0249
 1627TIP3   OH226515   3.413   2.896   2.010  0.5745 -0.2380  0.7331
 1627TIP3    H126516   3.476   2.887   2.082  1.0675  1.9959  0.6597
 1627TIP3    H226517   3.337   2.938   2.051  0.9066  1.1678 -0.0362
 1628TIP3   OH226518   2.978   6.145   8.155 -0.0338  0.2872  0.3370
 1628TIP3    H126519   2.991   6.196   8.235 -1.2872  0.4344  0.4723
 1628TIP3    H226520   2.890   6.108   8.165  0.2877 -0.7217 -0.4146
 1629TIP3   OH226521   5.831   0.556   7.360 -0.3652  0.9234 -0.7733
 1629TIP3    H126522   5.833   0.518   7.272  1.6361  0.1970 -0.4688
 1629TIP3    H226523   5.819   0.480   7.417 -0.3429  1.2360 -0.3560
 1630TIP3   OH226524   5.965   4.174   1.473 -0.1975 -0.2647 -0.2093
 1630TIP3    H126525   5.927   4.092   1.443  0.4799 -1.2612  1.4702
 1630TIP3    H226526   5.957   4.170   1.569 -1.1895  2.1656 -0.1220
 1631TIP3   OH226527   4.376   0.099   2.449  0.5133  0.2361  0.1794
 1631TIP3    H126528   4.419   0.013   2.450 -1.2013 -0.7407  2.9623
 1631TIP3    H226529   4.437   0.156   2.496  0.8831  0.0768 -0.1015
 1632TIP3   OH226530   6.192   0.369   0.198 -0.4874 -0.1649  0.5206
 1632TIP3    H126531   6.168   0.418   0.118  1.2057  0.0240  0.0940
 1632TIP3    H226532   6.189   0.435   0.267 -0.2694  0.0766  0.3068
 1633TIP3   OH226533   2.807   4.747   0.847  0.4619  0.5139 -0.4250
 1633TIP3    H126534   2.721   4.750   0.807 -0.2197 -1.1666  0.8103
 1633TIP3    H226535   2.864   4.708   0.781 -0.7657 -2.7733  0.2823
 1634TIP3   OH226536   0.096   3.763   2.198 -0.2480 -0.0185  0.4500
 1634TIP3    H126537   0.014   3.812   2.200 -0.2226  0.0229  0.4821
 1634TIP3    H226538   0.125   3.761   2.289  0.8746  1.8084  0.1917
 1635TIP3   OH226539   5.668   6.833   7.118 -0.3296  0.0213 -0.6012
 1635TIP3    H126540   5.746   6.778   7.119 -0.4613 -0.1668  0.2481
 1635TIP3    H226541   5.605   6.787   7.173 -0.0573  1.5352  1.0732
 1636TIP3   OH226542   4.415   3.469   2.111  0.4877  0.2440  0.4719
 1636TIP3    H126543   4.376   3.500   2.193 -0.8836  0.7719 -0.3497
 1636TIP3    H226544   4.370   3.519   2.042 -1.1601 -2.7899 -0.8658
 1637TIP3   OH226545   6.592   3.214   1.906  0.4531 -0.1331 -0.0310
 1637TIP3    H126546   6.607   3.257   1.822  0.5529  0.0751  0.0953
 1637TIP3    H226547   6.600   3.120   1.886 -0.2489 -0.1261 -0.4043
 1638TIP3   OH226548   6.793   0.349   7.433  0.0500  0.1908  0.3903
 1638TIP3    H126549   6.817   0.388   7.349  1.7043 -1.1626  0.1799
 1638TIP3    H226550   6.798   0.421   7.495 -1.5251  1.2892 -0.6817
 1639TIP3   OH226551   1.535   2.312   1.796  0.1307 -0.2483  1.0813
 1639TIP3    H126552   1.619   2.271   1.774  0.3476  0.7108  0.0907
 1639TIP3    H226553   1.487   2.242   1.841  2.1687 -0.2650  3.4745
 1640TIP3   OH226554   0.696   1.931   2.549  0.3460  0.0670 -0.4853
 1640TIP3    H126555   0.770   1.893   2.597  0.6524  1.4003  0.1453
 1640TIP3    H226556   0.707   2.026   2.559 -0.9788  0.3108 -1.0992
 1641TIP3   OH226557   4.861   6.554   0.040 -0.1373 -0.4210 -0.1513
 1641TIP3    H126558   4.894   6.571  -0.048 -0.0569 -0.3021 -0.0966
 1641TIP3    H226559   4.868   6.637   0.086  1.1931 -0.8341  0.4263
 1642TIP3   OH226560   0.014   3.780   8.296  0.4347 -0.1133  0.7515
 1642TIP3    H126561   0.038   3.820   8.380  1.6710 -1.0058  0.8464
 1642TIP3    H226562   0.096   3.773   8.248  0.2568 -2.2946  0.6486
 1643TIP3   OH226563   6.027   5.640   1.781  0.0317 -0.2290  0.1489
 1643TIP3    H126564   5.956   5.580   1.757  0.0131 -0.0470 -0.2681
 1643TIP3    H226565   5.983   5.714   1.822  0.0710 -0.5811  0.8377
 1644TIP3   OH226566   4.640   2.194   8.495 -0.6271 -0.5471 -0.1718
 1644TIP3    H126567   4.713   2.134   8.480 -0.1783  0.0301 -0.3404
 1644TIP3    H226568   4.663   2.240   8.575 -0.0542  0.7112 -1.0293
 1645TIP3   OH226569   2.884   1.695   6.833  0.2306  0.1912  0.0454
 1645TIP3    H126570   2.966   1.678   6.786 -0.1108 -0.9704 -0.1497
 1645TIP3    H226571   2.816   1.663   6.775 -0.3447  0.6938  0.4279
 1646TIP3   OH226572   4.667   4.165   8.694 -0.0061  0.0649 -0.1417
 1646TIP3    H126573   4.643   4.256   8.674 -0.9922 -0.2559 -0.4635
 1646TIP3    H226574   4.705   4.132   8.613  1.5862  0.5721  0.3673
 1647TIP3   OH226575   0.495   5.049   0.545 -0.2088  0.3096  0.6339
 1647TIP3    H126576   0.430   5.066   0.477  0.7561  1.9484  0.0618
 1647TIP3    H226577   0.551   5.127   0.545  0.4236 -0.0830  2.6337
 1648TIP3   OH226578   2.798   2.138   2.848 -0.2578  0.0804 -0.1064
 1648TIP3    H126579   2.837   2.161   2.932 -1.7272 -0.0691  0.6473
 1648TIP3    H226580   2.711   2.104   2.870 -1.6648  2.2523 -1.8009
 1649TIP3   OH226581   1.626   1.513   1.923 -0.2305 -0.3708  0.0957
 1649TIP3    H126582   1.545   1.537   1.969 -0.4196 -0.1634 -0.3367
 1649TIP3    H226583   1.688   1.493   1.992 -0.4149  0.2571  0.4464
 1650TIP3   OH226584   5.439   1.139   8.723 -0.6492 -0.3411  0.3250
 1650TIP3    H126585   5.379   1.148   8.649  0.0255  1.6940 -0.0354
 1650TIP3    H226586   5.387   1.164   8.800  0.0769  3.2861 -0.1905
 1651TIP3   OH226587   3.588   6.559   2.074 -0.1843 -0.6543  0.3344
 1651TIP3    H126588   3.567   6.555   1.981  0.9621 -0.7508  0.0590
 1651TIP3    H226589   3.529   6.626   2.109  0.8075  0.9597 -0.9030
 1652TIP3   OH226590   2.434   5.682   8.471  0.4991  0.1223  0.5203
 1652TIP3    H126591   2.453   5.696   8.379 -1.0171  1.3682  0.3590
 1652TIP3    H226592   2.423   5.587   8.479 -3.2887  0.2083 -1.4985
 1653TIP3   OH226593   6.830   2.131   8.057  0.0904 -0.4668  0.6417
 1653TIP3    H126594   6.867   2.220   8.056  0.9304 -0.7972  1.0500
 1653TIP3    H226595   6.799   2.117   7.968  0.1519  0.1550  0.5157
 1654TIP3   OH226596   1.294   0.245   1.188  0.1480  0.6568  0.4805
 1654TIP3    H126597   1.267   0.200   1.268 -1.2409  3.0019  1.4312
 1654TIP3    H226598   1.244   0.326   1.188  0.7410  1.1255 -2.3718
 1655TIP3   OH226599   0.357   1.884   2.088 -0.1612  0.3481 -0.6780
 1655TIP3    H126600   0.411   1.962   2.078  1.5935 -1.0229 -2.6656
 1655TIP3    H226601   0.412   1.821   2.133 -0.6717 -0.5445 -1.2646
 1656TIP3   OH226602   4.838   3.826   0.950  0.0623  0.1398 -0.1419
 1656TIP3    H126603   4.862   3.892   1.015  2.0063 -3.1019  2.7384
 1656TIP3    H226604   4.750   3.799   0.976  0.5231 -0.5845  0.7343
 1657TIP3   OH226605   3.241   6.733   0.029 -0.0434 -0.3882 -0.7515
 1657TIP3    H126606   3.216   6.820   0.062 -2.4745 -0.0301 -3.1601
 1657TIP3    H226607   3.282   6.750  -0.055 -1.9210 -1.5469 -1.9826
 1658TIP3   OH226608   4.435   6.518   0.335 -0.2623  0.1564  0.3822
 1658TIP3    H126609   4.501   6.553   0.395 -0.9682  1.8640  0.1991
 1658TIP3    H226610   4.392   6.449   0.385  0.6525  0.0303  1.0341
 1659TIP3   OH226611   2.490   2.893   0.842  0.1488 -0.0856 -0.0798
 1659TIP3    H126612   2.433   2.830   0.798  0.5174 -1.1573  0.9198
 1659TIP3    H226613   2.567   2.842   0.866 -0.1413  0.3688  1.9964
 1660TIP3   OH226614   2.556   2.908   7.708  0.5381 -0.6779 -0.0966
 1660TIP3    H126615   2.474   2.898   7.756  0.0174 -1.4748 -1.0994
 1660TIP3    H226616   2.593   2.819   7.705  1.1487 -0.4274 -0.1417
 1661TIP3   OH226617   2.865   1.306   7.892  0.6436  0.5615 -0.0713
 1661TIP3    H126618   2.850   1.234   7.830  0.0441 -0.8738  1.6450
 1661TIP3    H226619   2.960   1.316   7.893  0.7633 -0.4066 -0.1647
 1662TIP3   OH226620   4.049   1.489   0.946  0.2775 -0.1115  0.1136
 1662TIP3    H126621   4.114   1.540   0.994  0.3421  0.4167 -0.5142
 1662TIP3    H226622   4.095   1.463   0.866  0.4370 -1.6730  0.6784
 1663TIP3   OH226623   1.765   5.256   1.287 -0.0450 -0.3723  0.0023
 1663TIP3    H126624   1.818   5.177   1.300  0.2954 -0.3413 -1.0947
 1663TIP3    H226625   1.829   5.327   1.280 -0.2370 -0.2759 -0.9134
 1664TIP3   OH226626   2.588   3.305   1.452 -0.1632 -0.1984 -0.5533
 1664TIP3    H126627   2.679   3.277   1.461  0.2601  1.2957  0.1496
 1664TIP3    H226628   2.537   3.235   1.493  0.7054 -0.7335 -0.3555
 1665TIP3   OH226629   5.905   1.767   2.137 -0.8559  0.0478 -0.6599
 1665TIP3    H126630   5.959   1.820   2.197  0.6972 -1.5028 -0.6084
 1665TIP3    H226631   5.815   1.784   2.165 -0.2135 -0.5139  2.0854
 1666TIP3   OH226632   6.610   6.677   6.792 -0.0468  0.3580 -0.4564
 1666TIP3    H126633   6.520   6.688   6.823  0.3714  2.1150  0.2655
 1666TIP3    H226634   6.607   6.598   6.739 -1.9601  0.2203 -0.2337
 1667TIP3   OH226635   4.672   3.833   0.556  0.2478 -0.4286 -0.1607
 1667TIP3    H126636   4.767   3.835   0.568  0.1734  1.4534  0.3155
 1667TIP3    H226637   4.647   3.744   0.582  1.9446 -1.2049 -1.0208
 1668TIP3   OH226638   0.923   3.713   8.087 -0.2576 -0.2170  0.2246
 1668TIP3    H126639   0.979   3.748   8.157  0.0688 -1.0951  0.4255
 1668TIP3    H226640   0.966   3.741   8.006  0.1869 -0.4286  0.3814
 1669TIP3   OH226641   2.545   5.996   6.792 -0.4520 -0.2399 -0.3824
 1669TIP3    H126642   2.495   5.983   6.873 -0.8074  0.5533 -0.4658
 1669TIP3    H226643   2.636   5.994   6.820 -0.5254 -1.5514 -0.2022
 1670TIP3   OH226644   2.344   0.794   7.198 -0.0651 -0.0307 -0.1259
 1670TIP3    H126645   2.425   0.788   7.147 -0.1708 -0.6704 -0.2156
 1670TIP3    H226646   2.352   0.878   7.244  0.6098 -0.0451 -0.2050
 1671TIP3   OH226647   0.802   4.580   6.947  0.2230  0.0195 -0.1296
 1671TIP3    H126648   0.766   4.566   6.860 -1.6035  1.0457  0.3967
 1671TIP3    H226649   0.895   4.559   6.939 -0.0514 -0.6140 -2.1204
 1672TIP3   OH226650   6.152   5.746   0.719  0.1490 -1.1274 -0.1029
 1672TIP3    H126651   6.138   5.704   0.635 -0.4901  1.0313 -1.1473
 1672TIP3    H226652   6.246   5.764   0.721  0.2381 -1.5842 -0.1533
 1673TIP3   OH226653   5.131   5.658   7.885 -0.2068  0.3498  0.0616
 1673TIP3    H126654   5.088   5.595   7.944 -2.3466  0.9061 -0.8070
 1673TIP3    H226655   5.198   5.700   7.940 -0.1759 -1.1558  1.2550
 1674TIP3   OH226656   0.725   5.558   2.032  0.4035 -1.0424 -0.1216
 1674TIP3    H126657   0.715   5.617   1.957  2.9531  0.5159  0.6430
 1674TIP3    H226658   0.731   5.470   1.993  2.8228 -0.1943 -1.9592
 1675TIP3   OH226659   4.078   4.901   6.562 -0.1678 -0.0534 -0.0351
 1675TIP3    H126660   4.120   4.981   6.593  0.9608 -0.7166  0.1951
 1675TIP3    H226661   3.992   4.901   6.603  0.2178  0.5170  0.7878
 1676TIP3   OH226662   5.439   0.446   8.197  0.1302  0.1604 -0.8274
 1676TIP3    H126663   5.386   0.441   8.276  3.1594  2.0219  1.5877
 1676TIP3    H226664   5.448   0.356   8.168 -1.7886 -0.4907  0.4052
 1677TIP3   OH226665   0.493   0.654   8.337 -0.0002  0.1553  0.0767
 1677TIP3    H126666   0.538   0.572   8.313 -0.1318 -0.2409  1.1188
 1677TIP3    H226667   0.542   0.722   8.292  0.9913 -0.3744  0.3272
 1678TIP3   OH226668   3.223   5.888   7.788  0.1425  0.3118  0.2822
 1678TIP3    H126669   3.286   5.903   7.858  0.3784 -0.1977  0.1882
 1678TIP3    H226670   3.277   5.876   7.710 -0.1255  1.0253 -0.0182
 1679TIP3   OH226671   3.637   2.099   2.934 -0.5845  0.2612 -0.8312
 1679TIP3    H126672   3.556   2.048   2.936 -0.8797  0.7505  1.1081
 1679TIP3    H226673   3.657   2.118   3.026  2.1325 -0.4501 -1.1711
 1680TIP3   OH226674   0.366   5.254   1.528  0.1699  0.4663 -0.1905
 1680TIP3    H126675   0.424   5.188   1.568  0.9715  1.7970  0.9376
 1680TIP3    H226676   0.278   5.224   1.549  0.3168 -2.0216 -2.5905
 1681TIP3   OH226677   5.433   5.785   7.009  0.1760 -0.0326 -0.3856
 1681TIP3    H126678   5.421   5.752   6.920 -0.3253 -1.7555  0.2777
 1681TIP3    H226679   5.344   5.800   7.041  0.3363  0.1663 -0.0292
 1682TIP3   OH226680   2.677   4.885   7.106  0.1506  0.1156  0.0025
 1682TIP3    H126681   2.645   4.931   7.183 -0.1689 -0.5449  0.2675
 1682TIP3    H226682   2.640   4.933   7.032 -1.3180 -0.5114  0.2970
 1683TIP3   OH226683   0.923   4.815   0.236 -0.3659 -0.5543  0.2609
 1683TIP3    H126684   0.869   4.785   0.309 -2.5509  1.5101 -0.4001
 1683TIP3    H226685   0.973   4.889   0.271  0.7470 -1.3156  0.3610
 1684TIP3   OH226686   0.327   1.949   1.623  0.1258 -0.4698 -0.0021
 1684TIP3    H126687   0.346   2.000   1.544  0.8646  2.3115  1.7919
 1684TIP3    H226688   0.408   1.954   1.674 -0.3222 -2.2066  0.9486
 1685TIP3   OH226689   4.305   1.184   1.046 -0.4915  0.5149  0.3205
 1685TIP3    H126690   4.327   1.193   0.953 -3.2770  1.7834 -0.3233
 1685TIP3    H226691   4.351   1.255   1.089 -2.1080  2.2842 -0.7457
 1686TIP3   OH226692   3.362   0.564   0.791  0.3725  0.1488  0.0544
 1686TIP3    H126693   3.365   0.658   0.810  0.2228 -0.2422  2.2724
 1686TIP3    H226694   3.452   0.541   0.768  0.5522  0.7168  0.1750
 1687TIP3   OH226695   0.039   5.597   7.584  0.4903 -0.5751  0.3801
 1687TIP3    H126696   0.032   5.692   7.594 -0.2248 -0.3977 -1.5178
 1687TIP3    H226697   0.016   5.562   7.671 -1.9497  0.8989  0.4190
 1688TIP3   OH226698   5.209   1.623   2.195 -0.6054  0.3479  0.3174
 1688TIP3    H126699   5.203   1.530   2.219  1.1820  0.3294  0.8644
 1688TIP3    H226700   5.241   1.623   2.105 -2.2456  0.4488 -0.2888
 1689TIP3   OH226701   3.317   3.290   7.034 -0.5409  0.0290 -0.6857
 1689TIP3    H126702   3.382   3.230   6.999 -0.2820 -0.1657  0.1107
 1689TIP3    H226703   3.298   3.350   6.962  0.4310  0.0169 -0.9677
 1690TIP3   OH226704   5.177   5.329   2.257 -0.2281  0.4535  0.2172
 1690TIP3    H126705   5.245   5.262   2.262 -1.6835 -1.1468 -0.5360
 1690TIP3    H226706   5.129   5.321   2.340 -0.8588  0.0244 -0.1777
 1691TIP3   OH226707   6.204   5.294   1.594  0.9559 -0.0917 -0.1819
 1691TIP3    H126708   6.233   5.206   1.571  0.8671 -0.5923  1.4909
 1691TIP3    H226709   6.139   5.280   1.664  0.7720  1.2852 -0.0543
 1692TIP3   OH226710   0.170   5.477   0.659  0.6557  0.3301 -0.5139
 1692TIP3    H126711   0.083   5.517   0.648  0.2013 -0.3430  0.4590
 1692TIP3    H226712   0.225   5.548   0.691 -0.0532  0.3021  0.8331
 1693TIP3   OH226713   2.981   1.196   0.765 -0.2761 -0.5951  0.2969
 1693TIP3    H126714   3.071   1.175   0.741 -0.2100 -0.3838  0.3579
 1693TIP3    H226715   2.931   1.185   0.684  0.0186  0.5594 -0.0583
 1694TIP3   OH226716   3.599   3.305   7.481  0.4262  0.3884 -0.2172
 1694TIP3    H126717   3.580   3.321   7.388  1.9252  0.6422 -0.5014
 1694TIP3    H226718   3.675   3.248   7.480  0.7746  0.8157  0.8689
 1695TIP3   OH226719   1.387   2.139   0.263  0.1572 -0.6600  0.0156
 1695TIP3    H126720   1.465   2.147   0.318  0.9681  0.7455 -1.2842
 1695TIP3    H226721   1.421   2.127   0.174 -1.1211 -0.6197 -0.4936
 1696TIP3   OH226722   4.481   4.427   0.934  0.2060 -0.4051  0.2141
 1696TIP3    H126723   4.542   4.493   0.970 -0.7899  0.9973 -0.5717
 1696TIP3    H226724   4.500   4.427   0.840 -0.4767 -0.5268  0.0775
 1697TIP3   OH226725   6.815   2.331   8.355 -0.0457  0.2577 -0.3425
 1697TIP3    H126726   6.720   2.332   8.368 -0.5671 -2.4540 -2.9845
 1697TIP3    H226727   6.846   2.257   8.407  0.5936  0.8334  0.1196
 1698TIP3   OH226728   2.476   5.325   0.110 -0.5417  0.0708 -0.1209
 1698TIP3    H126729   2.515   5.285   0.032  0.3862  0.1794  0.2789
 1698TIP3    H226730   2.424   5.398   0.076  0.0297  0.2480 -0.6228
 1699TIP3   OH226731   2.114   6.417   0.039 -0.3292 -0.2877 -0.0765
 1699TIP3    H126732   2.109   6.488  -0.025  0.7537  0.4823  0.6722
 1699TIP3    H226733   2.165   6.453   0.111 -2.5834 -0.7038  1.8222
 1700TIP3   OH226734   1.776   2.046   0.773  0.0799  0.0275  0.5353
 1700TIP3    H126735   1.841   2.095   0.722  0.0060 -0.3891  0.0221
 1700TIP3    H226736   1.823   1.967   0.800 -0.5638 -0.9160 -0.9608
 1701TIP3   OH226737   5.750   0.462   0.259  0.2985  0.0128  0.2552
 1701TIP3    H126738   5.749   0.501   0.347  3.1998 -0.9171  0.8173
 1701TIP3    H226739   5.795   0.527   0.205 -0.3400  0.0268 -0.2740
 1702TIP3   OH226740   1.864   4.975   0.431 -0.7638 -0.0490 -0.0727
 1702TIP3    H126741   1.821   4.932   0.505 -0.6350  0.1393  0.1154
 1702TIP3    H226742   1.840   4.923   0.355 -0.2398 -0.7121  0.2104
 1703TIP3   OH226743   1.631   2.361   7.322 -0.4382 -0.5268 -0.3142
 1703TIP3    H126744   1.599   2.323   7.404  0.2079  0.1907  0.2882
 1703TIP3    H226745   1.691   2.295   7.287 -0.1712 -0.5358  0.1559
 1704TIP3   OH226746   0.895   1.642   1.238 -0.0047 -0.3308 -0.0625
 1704TIP3    H126747   0.809   1.608   1.213  0.5546 -0.2238 -2.3060
 1704TIP3    H226748   0.889   1.736   1.223  0.2666 -0.2000  0.5874
 1705TIP3   OH226749   0.592   6.820   8.484 -0.3398 -0.2158 -0.7005
 1705TIP3    H126750   0.502   6.825   8.451 -0.2185  0.1817 -0.9817
 1705TIP3    H226751   0.630   6.745   8.437 -0.7041 -0.7756 -0.1191
 1706TIP3   OH226752   6.476   6.151   1.958  0.3029 -0.1487  0.4938
 1706TIP3    H126753   6.514   6.184   1.876 -0.2317 -1.8918 -0.5007
 1706TIP3    H226754   6.550   6.143   2.017  0.6952  1.1755  0.2266
 1707TIP3   OH226755   6.694   2.888   2.125  0.0256 -0.1910  0.4148
 1707TIP3    H126756   6.753   2.828   2.171 -0.0201  0.2397  1.0484
 1707TIP3    H226757   6.718   2.975   2.158 -0.7386  0.0215  0.4382
 1708TIP3   OH226758   1.679   3.858   8.465  0.4039 -0.2205 -0.2306
 1708TIP3    H126759   1.672   3.807   8.546  1.4064  1.3666  0.9091
 1708TIP3    H226760   1.588   3.866   8.435 -0.0365 -0.4955  0.9509
 1709TIP3   OH226761   6.819   0.953   2.029 -0.2047 -0.2738 -0.3695
 1709TIP3    H126762   6.894   1.012   2.026 -1.0123  0.7522 -1.1995
 1709TIP3    H226763   6.797   0.938   1.937  0.3738 -2.4214 -0.2070
 1710TIP3   OH226764   2.543   3.695   2.671 -0.0883 -0.1666  0.0479
 1710TIP3    H126765   2.492   3.774   2.653 -1.4092 -0.6011  1.5928
 1710TIP3    H226766   2.623   3.726   2.713 -0.4834  0.3915  0.4079
 1711TIP3   OH226767   5.325   1.454   1.728 -0.0149 -0.7831  0.4133
 1711TIP3    H126768   5.359   1.493   1.648 -3.2985  1.1362 -0.2368
 1711TIP3    H226769   5.375   1.373   1.739  1.5993 -0.3505 -2.6716
 1712TIP3   OH226770   4.017   0.849   6.655 -0.5850  0.5744 -0.4770
 1712TIP3    H126771   4.086   0.915   6.659 -0.1268  0.1089 -0.6076
 1712TIP3    H226772   3.972   0.857   6.739 -0.1768  0.6714 -0.2633
 1713TIP3   OH226773   6.289   0.217   1.390  0.4801 -0.0508  0.8221
 1713TIP3    H126774   6.313   0.144   1.447 -3.3527  0.4127  3.3464
 1713TIP3    H226775   6.337   0.292   1.425 -0.3262 -0.1723  2.2384
 1714TIP3   OH226776   3.775   1.777   7.789  0.1586  0.2296 -0.0895
 1714TIP3    H126777   3.839   1.820   7.845 -1.9604  4.2362 -0.3631
 1714TIP3    H226778   3.799   1.806   7.700 -0.3976 -0.5228 -0.4879
 1715TIP3   OH226779   1.492   2.988   1.280 -0.3889 -0.3977 -0.9452
 1715TIP3    H126780   1.583   3.009   1.299  0.5493 -3.1663 -1.9719
 1715TIP3    H226781   1.475   3.028   1.195 -0.7964  1.7248  0.0736
 1716TIP3   OH226782   6.198   5.642   0.457  0.2043  0.1861 -0.3042
 1716TIP3    H126783   6.268   5.681   0.405  1.5402  1.8296  2.4860
 1716TIP3    H226784   6.126   5.628   0.395  1.4044  2.6659 -2.4209
 1717TIP3   OH226785   0.787   1.658   8.300 -0.1461  0.0353  0.6343
 1717TIP3    H126786   0.867   1.701   8.332  0.1039 -0.5765  0.8323
 1717TIP3    H226787   0.783   1.683   8.207 -0.1632  0.7233  0.8097
 1718TIP3   OH226788   1.570   0.637   7.214 -0.1331 -0.9979 -0.0680
 1718TIP3    H126789   1.482   0.610   7.187 -0.1866 -1.1933  0.3040
 1718TIP3    H226790   1.604   0.685   7.139  0.1863 -2.5645 -0.9733
 1719TIP3   OH226791   0.994   5.106   0.669 -0.5104  0.5696  0.1712
 1719TIP3    H126792   1.021   5.099   0.578  1.8537  0.6288  0.7883
 1719TIP3    H226793   0.914   5.054   0.675  0.5385 -1.3602 -1.4564
 1720TIP3   OH226794   2.694   1.632   7.836 -0.1489 -0.7924  0.1510
 1720TIP3    H126795   2.731   1.715   7.867 -1.3178 -0.1410 -0.1343
 1720TIP3    H226796   2.759   1.599   7.775 -0.7441  1.1933 -1.6805
 1721TIP3   OH226797   2.832   1.958   8.415 -0.0787  0.9065 -0.1291
 1721TIP3    H126798   2.765   2.007   8.366 -0.0385  1.0616 -0.0313
 1721TIP3    H226799   2.803   1.962   8.506  0.1302  1.0901 -0.0682
 1722TIP3   OH226800   0.181   2.670   2.541 -0.0422  0.4965 -0.6367
 1722TIP3    H126801   0.205   2.666   2.449 -0.9627 -1.4864 -0.8420
 1722TIP3    H226802   0.265   2.674   2.588  0.4443  1.0059 -1.5271
 1723TIP3   OH226803   1.413   0.435   0.490 -0.2296 -0.1972  0.3623
 1723TIP3    H126804   1.336   0.458   0.543 -0.8585  0.2279 -0.7041
 1723TIP3    H226805   1.469   0.513   0.496 -1.1991  0.6786 -1.1551
 1724TIP3   OH226806   0.631   0.644   7.344 -0.9007  0.0718 -0.0692
 1724TIP3    H126807   0.616   0.644   7.250  0.7854  1.0578 -0.3750
 1724TIP3    H226808   0.726   0.632   7.354 -1.1500 -0.9712  1.5370
 1725TIP3   OH226809   3.871   1.035   7.606  0.0816  0.4683  0.2068
 1725TIP3    H126810   3.779   1.063   7.603 -0.0831 -0.1507 -0.9454
 1725TIP3    H226811   3.866   0.940   7.614  0.6435  0.5412  1.9185
 1726TIP3   OH226812   4.745   5.888   0.557  0.3063 -0.2517  0.0967
 1726TIP3    H126813   4.835   5.913   0.573  0.1332 -0.5359  1.6375
 1726TIP3    H226814   4.747   5.793   0.549 -0.2033 -0.5893  3.0644
 1727TIP3   OH226815   2.874   1.631   1.495 -0.2113 -0.1094  0.4950
 1727TIP3    H126816   2.959   1.641   1.539 -0.1570 -0.6503  0.5132
 1727TIP3    H226817   2.895   1.596   1.409 -0.4769 -1.1000  0.8193
 1728TIP3   OH226818   3.516   1.056   8.099 -0.0773 -0.2408 -0.1471
 1728TIP3    H126819   3.525   1.134   8.153  2.1018 -0.3338 -0.3013
 1728TIP3    H226820   3.421   1.040   8.096 -0.3545 -0.1078  3.4105
 1729TIP3   OH226821   4.472   4.669   0.137  0.0096 -0.1663 -0.1821
 1729TIP3    H126822   4.392   4.680   0.085  1.0388 -0.9571 -2.0493
 1729TIP3    H226823   4.473   4.745   0.195 -1.2475  0.7597 -1.3026
 1730TIP3   OH226824   5.427   4.414   7.672 -0.2422 -0.1320 -0.2152
 1730TIP3    H126825   5.479   4.389   7.596 -1.8204  0.7796 -1.6640
 1730TIP3    H226826   5.349   4.457   7.635 -0.3015  1.8179  1.9390
 1731TIP3   OH226827   3.950   0.015   1.670 -0.1744 -1.0652  0.2486
 1731TIP3    H126828   4.007  -0.054   1.704  1.1193 -0.0725  0.1706
 1731TIP3    H226829   3.896   0.041   1.744  1.6767  0.1271  1.2748
 1732TIP3   OH226830   0.285   4.524   7.429 -0.4863  0.0955  0.6917
 1732TIP3    H126831   0.225   4.562   7.364  1.0052  0.7561 -0.3746
 1732TIP3    H226832   0.249   4.438   7.448 -0.4962 -0.5218 -1.7660
 1733TIP3   OH226833   3.562   2.547   1.081 -0.6967 -0.6486  0.2151
 1733TIP3    H126834   3.467   2.538   1.071 -0.7442 -2.0075  1.5718
 1733TIP3    H226835   3.580   2.517   1.170  1.0160 -0.4009 -0.0128
 1734TIP3   OH226836   3.583   1.659   1.988  0.0825 -0.2381  0.4890
 1734TIP3    H126837   3.646   1.587   1.988  2.6651  1.8235 -1.1591
 1734TIP3    H226838   3.538   1.651   1.904  0.9187  0.4366 -0.0433
 1735TIP3   OH226839   0.014   3.971   1.048  0.7470 -0.1661  0.3951
 1735TIP3    H126840  -0.044   3.921   0.990  0.9101  0.4027 -0.2858
 1735TIP3    H226841   0.044   3.908   1.113  0.5054 -0.8188 -0.1110
 1736TIP3   OH226842   3.733   3.853   1.120  0.3608 -0.6245  0.4086
 1736TIP3    H126843   3.746   3.758   1.115 -1.4015 -0.8409 -0.7999
 1736TIP3    H226844   3.675   3.865   1.196  0.3353 -0.5446  0.3758
 1737TIP3   OH226845   5.400   2.598   7.041 -0.2427 -0.1857  0.0210
 1737TIP3    H126846   5.380   2.510   7.009  0.3588 -1.8798  3.8037
 1737TIP3    H226847   5.496   2.603   7.040 -0.2794  0.9477 -1.2275
 1738TIP3   OH226848   1.287   1.162   1.664 -1.1697  0.3480 -0.7536
 1738TIP3    H126849   1.370   1.160   1.617 -0.3367 -1.4067  0.6888
 1738TIP3    H226850   1.301   1.225   1.735 -0.7940 -0.4849 -0.0742
 1739TIP3   OH226851   1.940   3.991   7.918  0.0873 -0.1926 -0.4661
 1739TIP3    H126852   1.858   4.023   7.955  1.5663  0.1069  3.0245
 1739TIP3    H226853   1.990   4.070   7.899 -0.8974 -0.3086 -4.2016
 1740TIP3   OH226854   3.943   2.152   0.045 -0.1939 -0.1574 -0.0693
 1740TIP3    H126855   3.997   2.089  -0.003  0.5612 -0.1033  0.6951
 1740TIP3    H226856   3.989   2.165   0.128 -0.3746  1.3460 -0.1828
 1741TIP3   OH226857   3.507   5.233   6.422 -0.2692 -0.1469 -0.5233
 1741TIP3    H126858   3.578   5.174   6.448  1.4116  2.0279  0.1109
 1741TIP3    H226859   3.550   5.303   6.373 -2.0267  1.1489 -0.3223
 1742TIP3   OH226860   0.759   5.957   0.684  0.3571 -0.1294 -0.0075
 1742TIP3    H126861   0.779   6.012   0.759  1.0022 -1.5544  0.9026
 1742TIP3    H226862   0.689   5.899   0.714 -1.9249  1.5835 -1.6524
 1743TIP3   OH226863   2.470   5.495   2.317  0.2517  0.3091  0.2339
 1743TIP3    H126864   2.390   5.501   2.369 -0.2538  3.0901 -0.7186
 1743TIP3    H226865   2.442   5.452   2.236  0.1913 -0.4909  0.6641
 1744TIP3   OH226866   4.417   5.806   7.610  0.4782  0.3308  0.7859
 1744TIP3    H126867   4.406   5.823   7.516 -0.3281  1.1859  1.0244
 1744TIP3    H226868   4.486   5.865   7.637 -0.1128  0.9438  0.9673
 1745TIP3   OH226869   0.866   3.148   0.937 -0.5176 -0.0982 -0.1989
 1745TIP3    H126870   0.933   3.200   0.893 -1.0689  1.4891  0.7521
 1745TIP3    H226871   0.897   3.058   0.930  2.2506  0.6576  1.1125
 1746TIP3   OH226872   6.010   2.952   7.668 -0.1638 -0.8065  0.0271
 1746TIP3    H126873   6.082   2.994   7.622 -0.4295 -0.9498 -0.5204
 1746TIP3    H226874   5.971   3.023   7.720  1.1252 -0.9900  1.2966
 1747TIP3   OH226875   3.514   5.890   1.394  0.8107 -0.1052  0.8309
 1747TIP3    H126876   3.434   5.873   1.344  0.3261  1.3859  1.0493
 1747TIP3    H226877   3.574   5.927   1.330  1.3597 -1.2215  0.6687
 1748TIP3   OH226878   6.688   4.683   6.899  0.0195 -0.3193  0.3270
 1748TIP3    H126879   6.696   4.696   6.805 -1.1554  0.6223  0.3255
 1748TIP3    H226880   6.653   4.595   6.909  1.5571 -0.9939 -0.0251
 1749TIP3   OH226881   6.682   1.142   0.562  0.3774 -0.2979  0.1317
 1749TIP3    H126882   6.733   1.187   0.495  1.9746  0.0155  1.5115
 1749TIP3    H226883   6.638   1.212   0.610 -2.1888 -0.5876 -1.5694
 1750TIP3   OH226884   1.470   6.668   7.389  0.6056  0.6722 -0.1723
 1750TIP3    H126885   1.558   6.707   7.388  1.5294 -1.2803 -1.0554
 1750TIP3    H226886   1.419   6.723   7.329  0.4828  3.2616  2.1418
 1751TIP3   OH226887   0.017   6.142   0.622  0.1844  0.0283 -0.1912
 1751TIP3    H126888   0.073   6.153   0.545  0.2889 -0.3252 -0.1683
 1751TIP3    H226889  -0.056   6.089   0.591 -0.6485  1.2923 -0.4630
 1752TIP3   OH226890   2.918   5.388   7.278  0.1016 -0.1910  0.3772
 1752TIP3    H126891   2.989   5.432   7.232 -0.7068 -2.6105 -3.7087
 1752TIP3    H226892   2.961   5.325   7.335  1.1410  2.5002  2.8074
 1753TIP3   OH226893   2.932   1.366   1.700 -0.5188  0.2721  0.4317
 1753TIP3    H126894   2.840   1.386   1.683 -0.4059  0.8379  0.4701
 1753TIP3    H226895   2.952   1.413   1.781 -0.4267 -0.5496  0.8953
 1754TIP3   OH226896   5.669   3.656   2.565  0.0685  0.0190 -0.6935
 1754TIP3    H126897   5.676   3.741   2.609 -0.6309 -0.4064  0.2886
 1754TIP3    H226898   5.759   3.631   2.547  0.4475 -0.0714  1.1098
 1755TIP3   OH226899   1.624   5.283   8.450 -0.2133  0.6967 -0.1569
 1755TIP3    H126900   1.556   5.227   8.488 -0.2933  0.8982 -0.0047
 1755TIP3    H226901   1.590   5.306   8.363 -0.7971  1.6211  0.3092
 1756TIP3   OH226902   4.395   4.364   7.312  0.7327 -0.0623 -0.3542
 1756TIP3    H126903   4.366   4.381   7.402  0.5373 -0.3004 -0.3722
 1756TIP3    H226904   4.463   4.297   7.321  0.8072  0.0095 -0.3734
 1757TIP3   OH226905   0.257   5.351   7.580  0.3073 -0.0756 -1.1202
 1757TIP3    H126906   0.294   5.266   7.602 -0.4079 -0.1800 -0.2812
 1757TIP3    H226907   0.183   5.332   7.523 -1.6053 -0.2651  1.2850
 1758TIP3   OH226908   3.729   4.004   0.840 -0.0956  0.0437  0.3416
 1758TIP3    H126909   3.786   3.980   0.766 -0.5168  0.5529 -0.1607
 1758TIP3    H226910   3.753   3.943   0.910  0.9625  0.1528  0.0876
 1759TIP3   OH226911   2.973   5.432   8.658 -0.6854  0.6188  0.8416
 1759TIP3    H126912   2.882   5.418   8.635 -0.3455  0.1923 -0.2811
 1759TIP3    H226913   2.971   5.451   8.752 -1.8386 -0.1711  0.9957
 1760TIP3   OH226914   0.715   4.209   2.315 -0.0634 -0.0219 -0.0646
 1760TIP3    H126915   0.683   4.248   2.396  3.8121  1.7867  0.7939
 1760TIP3    H226916   0.777   4.142   2.344 -1.1133 -1.7611 -1.6215
 1761TIP3   OH226917   6.367   0.311   0.494 -0.2878  0.0099 -0.3061
 1761TIP3    H126918   6.407   0.341   0.576  0.8922  0.2305 -0.9347
 1761TIP3    H226919   6.379   0.385   0.434 -0.1808 -0.5380 -0.9706
 1762TIP3   OH226920   5.734   4.241   8.439 -0.4113 -0.0404  0.0938
 1762TIP3    H126921   5.733   4.283   8.525 -1.6409 -1.8445  1.0325
 1762TIP3    H226922   5.826   4.216   8.425  0.0174  1.3243  0.2905
 1763TIP3   OH226923   4.488   6.270   2.005  0.0447 -0.0220 -0.3414
 1763TIP3    H126924   4.552   6.335   2.035 -0.4430  0.6504 -0.7395
 1763TIP3    H226925   4.405   6.300   2.040 -0.3751  0.2236 -1.5094
 1764TIP3   OH226926   2.165   4.985   0.034 -0.2007 -0.2322  0.3836
 1764TIP3    H126927   2.216   4.904   0.024  0.6461  0.2463  0.7487
 1764TIP3    H226928   2.218   5.040   0.091 -0.6852  0.6552 -0.0002
 1765TIP3   OH226929   6.673   5.739   1.470 -0.6616  0.3965 -0.0945
 1765TIP3    H126930   6.669   5.651   1.433 -1.9813  0.9519 -1.3798
 1765TIP3    H226931   6.609   5.738   1.541  0.7193 -0.1962  1.2165
 1766TIP3   OH226932   2.431   4.215   7.653 -0.2831 -0.0436 -0.2739
 1766TIP3    H126933   2.487   4.291   7.640 -0.9112  0.2569 -1.3936
 1766TIP3    H226934   2.490   4.140   7.644  0.3233  0.3034  0.7594
 1767TIP3   OH226935   2.046   0.333   6.950  0.1584  0.1583 -0.1262
 1767TIP3    H126936   2.039   0.331   6.854  0.9533  1.5286 -0.2471
 1767TIP3    H226937   2.140   0.326   6.967  0.0210 -0.0753  0.5521
 1768TIP3   OH226938   0.506   4.635   8.514 -0.6743  0.1520  0.4233
 1768TIP3    H126939   0.505   4.664   8.605 -3.5057 -0.7975  0.7824
 1768TIP3    H226940   0.547   4.549   8.516 -0.4815  0.2503  0.7384
 1769TIP3   OH226941   1.815   4.961   7.182  0.4348 -0.3093 -0.1910
 1769TIP3    H126942   1.853   4.926   7.262 -1.6041  1.2434  1.5909
 1769TIP3    H226943   1.754   4.893   7.152  0.4463 -0.4793  0.1736
 1770TIP3   OH226944   2.174   3.702   2.533 -0.0951 -0.5936  0.5154
 1770TIP3    H126945   2.120   3.781   2.535  1.6793  0.7189 -0.2397
 1770TIP3    H226946   2.255   3.727   2.578 -0.5072 -2.8744  2.7448
 1771TIP3   OH226947   2.834   6.650   8.516 -0.2094  0.0396  0.0445
 1771TIP3    H126948   2.903   6.593   8.549 -0.6621 -0.7047 -0.2643
 1771TIP3    H226949   2.839   6.729   8.571  1.4927  0.4091 -0.5841
 1772TIP3   OH226950   2.540   5.706   7.679  0.6833 -0.5597  0.0735
 1772TIP3    H126951   2.515   5.694   7.587 -0.9159  0.0719  0.3920
 1772TIP3    H226952   2.534   5.619   7.717 -2.0657 -0.3342  0.3338
 1773TIP3   OH226953   4.640   0.178   7.311 -0.1725  0.1272  0.0046
 1773TIP3    H126954   4.589   0.110   7.356 -0.8339  1.1162  0.7887
 1773TIP3    H226955   4.721   0.184   7.360 -0.1303 -0.0536 -0.0402
 1774TIP3   OH226956   1.337   0.786   0.570 -0.6417 -0.0959  0.8355
 1774TIP3    H126957   1.282   0.861   0.547  0.0258  0.2324  0.2682
 1774TIP3    H226958   1.385   0.766   0.490  0.8188  0.2684  1.5754
 1775TIP3   OH226959   1.567   1.890   0.526 -0.2285  0.1873 -0.3394
 1775TIP3    H126960   1.511   1.868   0.452 -1.2786  0.5159  0.3423
 1775TIP3    H226961   1.589   1.983   0.514 -0.0577  0.1344 -0.4485
 1776TIP3   OH226962   2.740   4.585   8.707 -0.3149  0.4443  0.2634
 1776TIP3    H126963   2.825   4.543   8.702 -0.5596  0.1446 -2.9211
 1776TIP3    H226964   2.678   4.514   8.719 -0.3250  0.4489  0.2368
 1777TIP3   OH226965   4.305   6.800   8.373  0.2753  0.1952  0.1235
 1777TIP3    H126966   4.263   6.846   8.445 -2.8904 -0.4306 -1.1715
 1777TIP3    H226967   4.323   6.712   8.407  0.9992  0.6062  0.8306
 1778TIP3   OH226968   4.498   5.197   8.679 -0.0102 -0.3760  0.3217
 1778TIP3    H126969   4.455   5.125   8.634  1.6865 -1.8163  0.8723
 1778TIP3    H226970   4.555   5.154   8.743  0.7305  1.4781  0.9644
 1779TIP3   OH226971   1.465   5.323   7.889  0.5834 -0.1008  0.3032
 1779TIP3    H126972   1.506   5.310   7.804  1.3845 -2.3090  0.9624
 1779TIP3    H226973   1.373   5.341   7.869  0.5932 -1.3652 -1.0252
 1780TIP3   OH226974   0.836   2.052   1.777  0.1466 -0.1428  0.1637
 1780TIP3    H126975   0.877   1.975   1.815 -1.5554 -1.9357 -1.4230
 1780TIP3    H226976   0.906   2.094   1.726  0.8476 -1.2127  0.2247
 1781TIP3   OH226977   2.328   5.141   6.571 -0.3361 -0.0897 -0.3864
 1781TIP3    H126978   2.311   5.055   6.608  0.3267 -1.8448 -3.7881
 1781TIP3    H226979   2.241   5.178   6.555 -0.6178 -0.2177  0.7261
 1782TIP3   OH226980   6.072   1.047   8.162  0.1244  0.2225  0.1967
 1782TIP3    H126981   6.064   1.141   8.175  1.0699  0.1986  1.1015
 1782TIP3    H226982   6.108   1.038   8.074 -0.9437  0.6441 -0.3084
 1783TIP3   OH226983   2.974   1.521   2.549  0.1510 -0.1487  0.0515
 1783TIP3    H126984   3.020   1.550   2.470  1.7693 -1.1271  0.6003
 1783TIP3    H226985   2.886   1.557   2.539  0.5239  0.3642 -1.8486
 1784TIP3   OH226986   2.080   0.499   0.698 -0.1688  0.0249  0.2176
 1784TIP3    H126987   2.117   0.573   0.746 -0.4527  0.5199 -0.3093
 1784TIP3    H226988   2.072   0.429   0.763  0.7664  0.2185  0.5581
 1785TIP3   OH226989   4.590   0.177   8.673  0.4246  0.1669  0.2395
 1785TIP3    H126990   4.591   0.190   8.768  1.1182 -1.3964  0.4747
 1785TIP3    H226991   4.672   0.132   8.654  0.2508  0.3751 -1.1001
 1786TIP3   OH226992   0.879   1.999   8.418 -0.3147 -0.5555  0.3547
 1786TIP3    H126993   0.913   1.995   8.507  1.5525  0.9972 -0.2072
 1786TIP3    H226994   0.908   2.084   8.385 -2.9805 -0.0500 -0.9732
 1787TIP3   OH226995   6.507   1.379   1.394  0.3959  0.2544 -0.5025
 1787TIP3    H126996   6.586   1.402   1.442  1.1853 -0.8198 -1.2413
 1787TIP3    H226997   6.527   1.400   1.303 -0.0435 -0.3063 -0.7369
 1788TIP3   OH226998   5.417   0.591   0.814 -0.0010  0.0644 -0.3860
 1788TIP3    H126999   5.364   0.670   0.814  1.3372  1.0004 -0.4001
 1788TIP3    H227000   5.434   0.574   0.721  1.2126  0.8408 -0.3294
 1789TIP3   OH227001   0.554   5.320   0.450  0.9099 -0.3589 -0.2710
 1789TIP3    H127002   0.539   5.384   0.520  1.0388 -0.4513 -0.1584
 1789TIP3    H227003   0.649   5.319   0.438  0.9225 -0.6454 -0.1604
 1790TIP3   OH227004   5.769   0.173   8.277  0.3851 -0.5003 -0.2115
 1790TIP3    H127005   5.803   0.253   8.236 -2.0585  1.4930  1.3178
 1790TIP3    H227006   5.678   0.167   8.246  0.4265 -2.5524 -0.0499
 1791TIP3   OH227007   5.201   2.496   1.722 -0.4443  0.7767  0.1256
 1791TIP3    H127008   5.167   2.445   1.648 -2.4306  1.4978  0.4883
 1791TIP3    H227009   5.269   2.551   1.684 -0.8780  0.5496 -1.0126
 1792TIP3   OH227010   5.422   0.809   6.909  0.1601 -0.0772  0.4093
 1792TIP3    H127011   5.505   0.850   6.884  0.4914 -0.2741  1.1763
 1792TIP3    H227012   5.417   0.820   7.004 -0.0505 -1.2376  0.5524
 1793TIP3   OH227013   4.682   6.014   0.982 -0.5866  0.4221  0.5191
 1793TIP3    H127014   4.632   5.990   0.904  1.5384 -2.1603 -0.2310
 1793TIP3    H227015   4.650   5.955   1.050 -0.4566  0.6782  0.8056
 1794TIP3   OH227016   1.795   3.696   7.374  0.1235  0.1651  0.1220
 1794TIP3    H127017   1.842   3.705   7.291  0.8798 -0.2325  0.4934
 1794TIP3    H227018   1.705   3.678   7.349  0.6767 -1.7813 -0.6556
 1795TIP3   OH227019   6.870   2.088   8.506 -0.0947 -0.0745  0.0443
 1795TIP3    H127020   6.859   2.044   8.422 -2.6682  0.9364 -0.2677
 1795TIP3    H227021   6.964   2.102   8.515  0.2191  0.3294 -2.9766
 1796TIP3   OH227022   4.668   6.847   0.888 -0.6620  0.1730  0.3575
 1796TIP3    H127023   4.699   6.763   0.920  0.4521  0.3623 -0.1682
 1796TIP3    H227024   4.747   6.901   0.881 -1.2561  1.0192 -0.0165
 1797TIP3   OH227025   6.506   6.641   7.161  0.1357  0.0255  0.4006
 1797TIP3    H127026   6.423   6.639   7.208 -0.6157 -1.2337 -0.9269
 1797TIP3    H227027   6.488   6.691   7.081  1.0317  0.9101  0.7172
 1798TIP3   OH227028   1.795   1.144   2.355 -0.0932 -0.4801  0.2155
 1798TIP3    H127029   1.845   1.171   2.278 -0.0565 -1.8666 -0.2862
 1798TIP3    H227030   1.843   1.180   2.429  0.4376  0.0278 -0.3607
 1799TIP3   OH227031   6.566   2.665   1.231  0.3107  0.4462 -0.1260
 1799TIP3    H127032   6.511   2.644   1.156 -0.9555 -0.1907  0.9539
 1799TIP3    H227033   6.549   2.757   1.249  1.1870  0.8142 -1.0430
 1800TIP3   OH227034   3.163   0.800   0.928  0.2310  0.0397 -0.0982
 1800TIP3    H127035   3.149   0.756   0.844 -1.9534  0.0645  0.1782
 1800TIP3    H227036   3.077   0.838   0.949  0.5601 -0.4050  2.3842
 1801TIP3   OH227037   2.669   2.245   8.418 -0.7089 -0.0455  0.1066
 1801TIP3    H127038   2.675   2.332   8.379  1.9998 -0.6131 -0.9902
 1801TIP3    H227039   2.741   2.241   8.480 -2.6488 -0.5185  2.4709
 1802TIP3   OH227040   3.783   1.449   2.039  0.0899 -0.3969 -0.0803
 1802TIP3    H127041   3.767   1.493   2.123  0.4342  0.7123 -0.5699
 1802TIP3    H227042   3.787   1.356   2.061  0.7530 -0.0889  1.2316
 1803TIP3   OH227043   3.656   4.982   1.811 -0.3731  1.0287  0.2270
 1803TIP3    H127044   3.571   5.023   1.800 -1.9549 -2.0556 -0.0263
 1803TIP3    H227045   3.684   4.959   1.722  0.5278  1.5833  0.3497
 1804TIP3   OH227046   4.545   0.915   7.545  0.3641 -0.3388 -0.8266
 1804TIP3    H127047   4.507   0.842   7.594 -1.3453 -0.5030 -2.3063
 1804TIP3    H227048   4.615   0.875   7.492 -0.8047 -1.0296 -1.9094
 1805TIP3   OH227049   5.504   4.899   6.599 -0.2350 -0.4820 -0.7957
 1805TIP3    H127050   5.548   4.950   6.668  0.6267 -2.5794  0.2988
 1805TIP3    H227051   5.481   4.964   6.533 -1.9118  1.8129  1.8057
 1806TIP3   OH227052   1.414   1.354   2.620 -0.1958  0.3293  0.0584
 1806TIP3    H127053   1.409   1.425   2.684  0.2257  0.7357 -0.3538
 1806TIP3    H227054   1.355   1.287   2.654 -0.0432  0.5777  0.8256
 1807TIP3   OH227055   2.032   3.289   8.349  0.0546 -0.0074  0.2980
 1807TIP3    H127056   2.020   3.320   8.438 -0.0502 -0.9026  0.5995
 1807TIP3    H227057   2.058   3.197   8.358  3.3848  0.7021 -0.4145
 1808TIP3   OH227058   6.129   0.430   8.361  0.5455  0.0834 -0.4113
 1808TIP3    H127059   6.104   0.521   8.373  0.9358 -0.0949  2.2199
 1808TIP3    H227060   6.217   0.433   8.324  1.0250  0.8148  0.7451
 1809TIP3   OH227061   0.061   3.618   0.271 -0.0177 -0.1134 -0.0037
 1809TIP3    H127062   0.043   3.670   0.192  0.2732 -0.5733 -0.3803
 1809TIP3    H227063  -0.005   3.549   0.268  0.3015 -0.4146 -0.1073
 1810TIP3   OH227064   0.409   5.112   0.274 -0.3177  0.5037  0.4660
 1810TIP3    H127065   0.376   5.091   0.186 -1.1472 -0.7660  1.0491
 1810TIP3    H227066   0.504   5.123   0.262 -0.3291 -0.3072 -0.4836
 1811TIP3   OH227067   1.320   1.578   8.246 -0.0446  0.5603  0.2867
 1811TIP3    H127068   1.345   1.533   8.326 -0.4472 -0.6834 -0.2699
 1811TIP3    H227069   1.300   1.668   8.274 -1.5096 -0.1823  1.8275
 1812TIP3   OH227070   6.623   0.943   7.951  0.8422  0.7592  0.1985
 1812TIP3    H127071   6.563   0.968   8.022  1.3927 -0.3461  1.0935
 1812TIP3    H227072   6.569   0.941   7.873 -0.6636 -1.4883  1.1900
 1813TIP3   OH227073   5.651   1.258   7.119 -0.6324  0.1582 -0.4248
 1813TIP3    H127074   5.625   1.166   7.116 -2.5978  0.6476  0.3418
 1813TIP3    H227075   5.601   1.300   7.048  0.8452  0.5330 -1.2980
 1814TIP3   OH227076   5.796   2.600   0.535 -0.4864  0.2464  0.4191
 1814TIP3    H127077   5.804   2.581   0.441 -0.6413 -0.0403  0.4593
 1814TIP3    H227078   5.755   2.686   0.539  0.5598  0.7662  0.2252
 1815TIP3   OH227079   2.957   3.168   0.011  0.0533 -0.1783  0.2964
 1815TIP3    H127080   2.950   3.263   0.021  1.8528 -0.1462  1.6891
 1815TIP3    H227081   3.030   3.156  -0.050  0.7706 -0.6628  1.2294
 1816TIP3   OH227082   5.883   4.005   1.171  0.0595 -0.2482  0.3830
 1816TIP3    H127083   5.832   4.051   1.237  1.6295 -0.8788  2.1030
 1816TIP3    H227084   5.949   4.069   1.143 -0.4351 -0.0705 -0.3949
 1817TIP3   OH227085   6.461   0.079   1.534  0.0605  0.2019  0.4193
 1817TIP3    H127086   6.482  -0.006   1.495 -1.7755 -0.1609  0.1328
 1817TIP3    H227087   6.412   0.057   1.613 -0.1801  1.0014  0.4933
 1818TIP3   OH227088   4.194   4.148   0.907 -1.1819  0.2727  0.2700
 1818TIP3    H127089   4.196   4.073   0.847 -0.2620 -0.6038  1.3380
 1818TIP3    H227090   4.231   4.114   0.989  2.6252  2.6737 -0.1708
 1819TIP3   OH227091   0.679   6.599   0.395 -0.6408 -0.7677  0.0474
 1819TIP3    H127092   0.707   6.645   0.315  0.6474 -0.2678  0.7605
 1819TIP3    H227093   0.607   6.543   0.366 -0.0378 -0.7832 -1.5222
 1820TIP3   OH227094   5.392   6.799   7.870 -0.1477  0.1102 -0.2259
 1820TIP3    H127095   5.478   6.824   7.906  0.1142 -1.6031  0.4289
 1820TIP3    H227096   5.375   6.864   7.802  0.5722  1.8822  1.2017
 1821TIP3   OH227097   1.739   6.178   2.285  0.7728 -0.3586  0.9438
 1821TIP3    H127098   1.668   6.225   2.328  0.4240 -0.4461  0.4794
 1821TIP3    H227099   1.781   6.128   2.355  0.6839  0.0747  1.3062
 1822TIP3   OH227100   6.758   1.660   8.214 -0.4305 -0.1110  0.4733
 1822TIP3    H127101   6.805   1.693   8.291  1.5021  0.6862 -0.9525
 1822TIP3    H227102   6.823   1.663   8.144 -2.4912  0.5973 -1.5404
 1823TIP3   OH227103   6.751   1.151   6.938 -0.6344  0.4446  0.0670
 1823TIP3    H127104   6.683   1.218   6.935 -0.7524  0.4154  1.3437
 1823TIP3    H227105   6.705   1.069   6.923 -0.8204  0.4649  0.5188
 1824TIP3   OH227106   1.804   4.017   0.587  0.3886  0.3000 -0.0830
 1824TIP3    H127107   1.871   4.053   0.645  1.2301 -0.5567 -0.4961
 1824TIP3    H227108   1.780   3.934   0.627 -0.9547  0.9219  0.4353
 1825TIP3   OH227109   0.657   4.529   7.253  0.0097 -0.0030 -0.4836
 1825TIP3    H127110   0.702   4.606   7.219  2.2338 -1.7799 -1.8092
 1825TIP3    H227111   0.590   4.509   7.188  0.1991  0.1479 -0.7245
 1826TIP3   OH227112   5.706   5.165   6.018  0.4177 -0.5609  0.2714
 1826TIP3    H127113   5.737   5.196   5.933  0.4861 -2.1433 -0.3288
 1826TIP3    H227114   5.749   5.222   6.081  2.7605 -1.1515 -0.6414
 1827TIP3   OH227115   4.196   1.297   2.682  0.1646 -0.0067 -0.3179
 1827TIP3    H127116   4.267   1.232   2.682  1.5144  1.4092 -1.1602
 1827TIP3    H227117   4.117   1.245   2.666  0.9314 -1.6711  0.9109
 1828TIP3   OH227118   6.712   3.691   1.924 -0.4387  0.0446  0.5428
 1828TIP3    H127119   6.776   3.626   1.895  1.5933  1.6052  1.2871
 1828TIP3    H227120   6.648   3.641   1.975 -0.1201 -1.6371 -0.6116
 1829TIP3   OH227121   6.614   4.477   2.074  0.9019 -0.4237 -0.1978
 1829TIP3    H127122   6.554   4.516   2.011 -0.2750 -0.4748  0.8640
 1829TIP3    H227123   6.655   4.404   2.026  0.7378  0.1167 -1.1806
 1830TIP3   OH227124   3.683   5.137   8.610  0.1663  0.0305 -0.2111
 1830TIP3    H127125   3.713   5.141   8.701  0.9658  0.1909 -0.4780
 1830TIP3    H227126   3.591   5.161   8.615  0.4125  0.8952  0.4608
 1831TIP3   OH227127   6.339   6.556   7.851 -0.5347  0.8587 -0.2325
 1831TIP3    H127128   6.397   6.481   7.839 -0.0822  0.5591  3.0646
 1831TIP3    H227129   6.398   6.631   7.862 -0.8632  1.0337  0.3505
 1832TIP3   OH227130   0.823   3.057   7.979 -0.1244  0.5004  1.1339
 1832TIP3    H127131   0.747   3.005   8.007 -0.1292 -2.6263 -3.5732
 1832TIP3    H227132   0.899   3.004   8.005  0.0084 -0.3156 -0.7471
 1833TIP3   OH227133   3.848   3.452   0.076  0.0352 -0.2121 -0.0631
 1833TIP3    H127134   3.898   3.384   0.030  2.0627  0.2113  1.4183
 1833TIP3    H227135   3.797   3.404   0.141  1.3212 -0.3549  0.8557
 1834TIP3   OH227136   0.780   0.562   1.883 -0.4080 -0.0390  0.1207
 1834TIP3    H127137   0.710   0.544   1.820  0.3594 -2.3435 -0.1816
 1834TIP3    H227138   0.858   0.523   1.844  0.6542  0.8021  1.3142
 1835TIP3   OH227139   3.183   5.398   0.365 -0.4313 -0.5041 -0.0648
 1835TIP3    H127140   3.156   5.357   0.448 -2.2050  0.8018  0.0464
 1835TIP3    H227141   3.234   5.474   0.392  0.9404 -1.3288 -0.2428
 1836TIP3   OH227142   3.044   1.739   0.943 -0.4864 -0.4068  0.2839
 1836TIP3    H127143   3.074   1.808   1.003  0.3920 -0.1759 -0.3931
 1836TIP3    H227144   3.108   1.740   0.872 -0.6865 -1.6546  0.0566
 1837TIP3   OH227145   2.334   5.786   1.817  0.6146  0.1891 -0.2807
 1837TIP3    H127146   2.341   5.691   1.803  0.0304  0.0816  0.1078
 1837TIP3    H227147   2.386   5.802   1.895  2.3487  0.5064 -1.4394
 1838TIP3   OH227148   4.023   5.776   0.044  0.2511 -0.2116 -0.2952
 1838TIP3    H127149   4.002   5.858   0.088  0.3695 -0.3456  0.0154
 1838TIP3    H227150   4.024   5.798  -0.049  1.5259  0.4265 -0.1451
 1839TIP3   OH227151   1.857   2.719   2.480  0.1075 -0.1657 -0.4927
 1839TIP3    H127152   1.897   2.800   2.510 -1.7829  1.6777 -2.6223
 1839TIP3    H227153   1.783   2.705   2.539 -1.8522  1.8713 -2.2624
 1840TIP3   OH227154   2.081   1.046   8.502 -0.4338 -0.5697 -0.3475
 1840TIP3    H127155   2.138   1.123   8.506 -0.1462 -0.8453  1.2161
 1840TIP3    H227156   2.015   1.069   8.437 -0.4375  1.0709  0.1985
 1841TIP3   OH227157   3.418   2.150   1.497 -0.1838 -0.7253  0.0474
 1841TIP3    H127158   3.346   2.090   1.483  0.3927 -1.8288  1.5439
 1841TIP3    H227159   3.377   2.237   1.503 -1.4417 -1.3639  1.1929
 1842TIP3   OH227160   1.137   6.185   7.978 -0.1976  0.4060 -0.4116
 1842TIP3    H127161   1.147   6.271   7.937 -2.3512  0.3370 -1.2419
 1842TIP3    H227162   1.134   6.124   7.904  2.2253 -0.5771  0.1918
 1843TIP3   OH227163   2.656   1.634   8.549 -0.3091  0.1968 -0.4778
 1843TIP3    H127164   2.677   1.581   8.471 -0.8623 -1.2428  0.3180
 1843TIP3    H227165   2.740   1.670   8.576  0.3963 -1.6031 -0.1163
 1844TIP3   OH227166   1.641   3.960   2.263  1.0786  0.6516 -0.3889
 1844TIP3    H127167   1.706   4.028   2.249  1.1283  1.0199  1.4553
 1844TIP3    H227168   1.652   3.933   2.354  0.4835 -1.2275 -0.8114
 1845TIP3   OH227169   4.805   4.676   6.687  0.0513 -0.1626  0.1398
 1845TIP3    H127170   4.801   4.586   6.718 -1.2531 -0.5993 -1.1876
 1845TIP3    H227171   4.735   4.682   6.621  0.0498  1.8405  0.2677
 1846TIP3   OH227172   1.584   5.566   7.894 -0.1629  0.0631  0.4078
 1846TIP3    H127173   1.543   5.480   7.899  0.1431 -0.0931  0.2725
 1846TIP3    H227174   1.513   5.628   7.915 -0.8758 -0.0929 -1.4129
 1847TIP3   OH227175   4.410   0.617   2.872 -0.6225 -0.9966  0.0145
 1847TIP3    H127176   4.472   0.582   2.936 -0.2072 -1.6903 -0.7325
 1847TIP3    H227177   4.436   0.575   2.789 -1.5146 -0.5832 -0.4880
 1848TIP3   OH227178   5.774   6.106   7.356 -0.0217  0.8992  0.2754
 1848TIP3    H127179   5.683   6.133   7.367 -0.5950 -0.8651  0.1347
 1848TIP3    H227180   5.793   6.052   7.433  0.3845 -0.0641 -0.4807
 1849TIP3   OH227181   1.195   1.513   1.656  0.3760 -0.0072  0.1305
 1849TIP3    H127182   1.260   1.583   1.666  1.2248 -0.7654 -0.0295
 1849TIP3    H227183   1.189   1.499   1.561 -0.3233  0.3141  0.1124
 1850TIP3   OH227184   1.549   6.735   1.883  0.4301 -0.1928  0.1050
 1850TIP3    H127185   1.538   6.640   1.884  0.2294 -0.2850 -2.4899
 1850TIP3    H227186   1.611   6.751   1.811  1.8960  1.5637  1.6618
 1851TIP3   OH227187   1.142   4.223   1.622  0.4480 -0.3416 -0.1667
 1851TIP3    H127188   1.159   4.132   1.595  2.1519 -0.1191  0.0683
 1851TIP3    H227189   1.049   4.236   1.603 -0.1391 -2.5097  0.8983
 1852TIP3   OH227190   6.460   4.649   8.384  0.1235 -0.2198  0.1539
 1852TIP3    H127191   6.514   4.692   8.318  0.3356 -0.2551  0.3026
 1852TIP3    H227192   6.448   4.715   8.452 -0.3816 -0.0674 -0.0719
 1853TIP3   OH227193   4.351   1.221   1.727 -0.1892 -0.5698 -0.2751
 1853TIP3    H127194   4.301   1.266   1.659 -2.0526  0.0717  1.4304
 1853TIP3    H227195   4.405   1.289   1.766 -0.2094 -0.6257 -0.1508
 1854TIP3   OH227196   6.040   1.596   6.911 -0.2359  0.1207  0.6750
 1854TIP3    H127197   6.130   1.576   6.885 -0.1380  1.0262  0.2656
 1854TIP3    H227198   6.048   1.630   7.000 -0.6630 -3.8446  2.4707
 1855TIP3   OH227199   5.371   2.128   2.552  0.4415  0.0570  0.5003
 1855TIP3    H127200   5.284   2.143   2.515  0.1258 -0.0545  1.1967
 1855TIP3    H227201   5.355   2.107   2.644  1.3426  2.8927  1.4071
 1856TIP3   OH227202   0.376   5.796   8.189 -1.0049  0.1295  0.2174
 1856TIP3    H127203   0.353   5.726   8.128  3.0552 -2.4608  1.2112
 1856TIP3    H227204   0.416   5.864   8.134 -1.3222 -0.1783 -0.4028
 1857TIP3   OH227205   3.557   1.353   0.349 -0.2357 -0.3376  0.3173
 1857TIP3    H127206   3.645   1.318   0.363  0.7021  1.8983  0.4910
 1857TIP3    H227207   3.543   1.411   0.424 -0.8932  1.1000 -0.8711
 1858TIP3   OH227208   4.628   1.066   8.344 -0.5122 -0.1039  0.1810
 1858TIP3    H127209   4.698   1.018   8.389 -0.5076 -1.8231 -1.5497
 1858TIP3    H227210   4.665   1.088   8.259 -1.9603 -0.7855 -0.6544
 1859TIP3   OH227211   3.326   4.811   6.983  0.0489 -0.0996 -0.0370
 1859TIP3    H127212   3.343   4.717   6.978  0.7419  0.0023  0.2668
 1859TIP3    H227213   3.233   4.820   6.962  0.2497 -0.7318 -1.2826
 1860TIP3   OH227214   0.397   2.335   1.565 -1.3015 -0.2279 -0.1086
 1860TIP3    H127215   0.485   2.323   1.601 -1.4089 -0.5903  0.0322
 1860TIP3    H227216   0.411   2.345   1.471 -1.1512 -0.7956 -0.1476
 1861TIP3   OH227217   1.758   6.338   7.051  0.2567 -0.2306 -0.3661
 1861TIP3    H127218   1.836   6.359   7.102  1.7641 -1.9946 -1.7743
 1861TIP3    H227219   1.700   6.413   7.064  1.9543  0.9228  1.1463
 1862TIP3   OH227220   6.635   6.102   1.070 -0.3104  0.4508  0.4446
 1862TIP3    H127221   6.707   6.121   1.130  0.3383  1.1994 -0.5298
 1862TIP3    H227222   6.594   6.023   1.105  1.5836 -0.5694  0.5120
 1863TIP3   OH227223   4.846   2.150   7.908  0.8737  0.1931  0.1274
 1863TIP3    H127224   4.822   2.242   7.915 -1.0442 -0.2599  0.0212
 1863TIP3    H227225   4.783   2.105   7.965  2.4177 -0.9657  0.9843
 1864TIP3   OH227226   6.299   1.225   1.446  0.4344  0.1372 -0.0792
 1864TIP3    H127227   6.238   1.266   1.385  0.8062  0.3657 -0.2986
 1864TIP3    H227228   6.381   1.272   1.434  0.6106 -0.0557  0.3378
 1865TIP3   OH227229   3.685   1.438   1.746  0.7668  0.2771  0.0241
 1865TIP3    H127230   3.723   1.451   1.833  0.9283 -1.6212  0.2848
 1865TIP3    H227231   3.616   1.373   1.759  0.9603 -0.2245 -1.2937
 1866TIP3   OH227232   5.792   3.882   0.935 -0.4053 -0.1074  0.4391
 1866TIP3    H127233   5.793   3.944   0.862  0.9480  0.9064  1.2703
 1866TIP3    H227234   5.804   3.936   1.012 -0.0616 -1.3310  1.2691
 1867TIP3   OH227235   6.743   3.964   1.928  0.2329 -0.2742  0.5916
 1867TIP3    H127236   6.749   3.869   1.936  0.4034 -0.3337 -0.2085
 1867TIP3    H227237   6.650   3.983   1.932  0.1820 -0.5001  0.4361
 1868TIP3   OH227238   4.832   1.960   7.421 -0.1775  0.3419 -0.3323
 1868TIP3    H127239   4.838   2.030   7.487 -1.0349  1.6792 -1.6059
 1868TIP3    H227240   4.744   1.923   7.434 -0.3202  0.5591 -0.6787
 1869TIP3   OH227241   2.662   6.507   0.066  0.1816  0.1321  0.7470
 1869TIP3    H127242   2.744   6.488   0.020  0.2607  0.4978  0.7351
 1869TIP3    H227243   2.600   6.443   0.032  0.2647  0.3324  0.2062
 1870TIP3   OH227244   0.340   2.709   1.879 -0.5323  0.1447  0.7700
 1870TIP3    H127245   0.435   2.703   1.863 -0.1598  0.9663  2.4439
 1870TIP3    H227246   0.331   2.691   1.973 -2.0629 -0.0513  0.5969
 1871TIP3   OH227247   0.040   2.491   2.151 -0.0866 -0.4980  0.0084
 1871TIP3    H127248   0.075   2.446   2.074 -0.9784  0.3321 -0.8875
 1871TIP3    H227249  -0.022   2.428   2.189 -0.9252 -0.2607 -0.9347
 1872TIP3   OH227250   3.854   3.022   0.083 -0.1086 -0.4183  0.1676
 1872TIP3    H127251   3.886   2.932   0.086 -1.0073 -0.7943 -0.8844
 1872TIP3    H227252   3.774   3.021   0.136 -0.0575 -0.2193  0.2483
 1873TIP3   OH227253   6.616   5.519   1.932 -0.3905  0.1761 -0.0023
 1873TIP3    H127254   6.532   5.532   1.976  0.3413 -0.2551  1.5930
 1873TIP3    H227255   6.638   5.427   1.949  0.2986  0.2232 -0.5819
 1874TIP3   OH227256   2.212   0.564   7.191 -0.1332  0.2788 -0.0190
 1874TIP3    H127257   2.244   0.652   7.170  0.1076 -0.0769 -1.2434
 1874TIP3    H227258   2.237   0.511   7.115 -3.0509 -0.1831 -0.7721
 1875TIP3   OH227259   1.927   1.015   1.286  0.0946  0.4313  0.2042
 1875TIP3    H127260   1.974   1.079   1.339  1.0516  0.1171 -0.2352
 1875TIP3    H227261   1.926   0.935   1.339 -0.6189  0.6402  0.5232
 1876TIP3   OH227262   6.231   2.646   0.801 -0.2034 -0.1095 -0.3099
 1876TIP3    H127263   6.193   2.733   0.802 -1.2548 -0.5610  0.2064
 1876TIP3    H227264   6.191   2.604   0.724 -0.5473 -0.4933  0.0741
 1877TIP3   OH227265   0.755   2.875   6.741  0.1850  0.5281 -0.7539
 1877TIP3    H127266   0.732   2.894   6.650 -1.3109  2.7654  0.0294
 1877TIP3    H227267   0.679   2.903   6.792  1.1676 -0.2495  1.2511
 1878TIP3   OH227268   5.308   5.381   7.014 -0.0309  0.4679 -0.3399
 1878TIP3    H127269   5.222   5.352   6.984 -0.3385 -1.8941  2.4382
 1878TIP3    H227270   5.369   5.341   6.951 -0.8391  0.0030 -0.8525
 1879TIP3   OH227271   2.346   3.474   2.416  0.0730 -0.1816 -0.5047
 1879TIP3    H127272   2.349   3.425   2.498  0.4593 -0.9696 -0.9834
 1879TIP3    H227273   2.305   3.558   2.440 -1.0611 -0.9134  0.2203
 1880TIP3   OH227274   0.728   0.978   7.349  0.4064  0.1586  0.4878
 1880TIP3    H127275   0.654   0.968   7.409  0.9198 -0.2567  1.0570
 1880TIP3    H227276   0.688   1.005   7.267 -0.6336 -2.3479  0.0851
 1881TIP3   OH227277   4.899   2.104   0.984 -0.1702 -0.1851 -0.2594
 1881TIP3    H127278   4.978   2.135   1.029 -1.0231  1.4021  0.2297
 1881TIP3    H227279   4.932   2.059   0.907  1.2320 -0.1339  0.2722
 1882TIP3   OH227280   3.975   5.193   7.935 -0.3541  0.6555 -0.0159
 1882TIP3    H127281   3.903   5.245   7.898 -0.2193 -0.7286 -2.4097
 1882TIP3    H227282   3.931   5.126   7.987 -0.9824 -0.8223 -2.2853
 1883TIP3   OH227283   6.798   5.135   7.332  0.0658  0.3965  0.2636
 1883TIP3    H127284   6.745   5.060   7.360 -1.5088  1.6361  0.7707
 1883TIP3    H227285   6.839   5.107   7.251  2.1019 -2.1445  2.0020
 1884TIP3   OH227286   2.373   4.959   1.517  0.3544 -0.2646 -0.1355
 1884TIP3    H127287   2.369   4.870   1.552  1.0968  0.3200  1.5358
 1884TIP3    H227288   2.409   4.949   1.429  1.1219 -1.5455  0.3057
 1885TIP3   OH227289   5.348   1.039   7.167  0.5446  0.2084  0.5962
 1885TIP3    H127290   5.315   1.061   7.080 -1.5076 -0.2744  1.1931
 1885TIP3    H227291   5.439   1.011   7.153  0.2352  0.1117 -1.3719
 1886TIP3   OH227292   0.783   4.729   7.161  0.4737 -0.9156  0.1668
 1886TIP3    H127293   0.877   4.718   7.178  0.5432 -0.5174  0.0515
 1886TIP3    H227294   0.769   4.685   7.077  1.0171  0.9669 -0.9769
 1887TIP3   OH227295   0.667   5.558   8.451 -0.2722  0.1188 -0.2649
 1887TIP3    H127296   0.693   5.615   8.524 -0.2123  0.1807 -0.3346
 1887TIP3    H227297   0.731   5.486   8.453  0.6413  0.8745 -1.1660
 1888TIP3   OH227298   5.649   1.123   2.469  0.1190  0.5409  0.3412
 1888TIP3    H127299   5.713   1.170   2.416  1.0916  2.7809  3.1640
 1888TIP3    H227300   5.698   1.051   2.509  0.3615  0.9802  0.8567
 1889TIP3   OH227301   4.331   5.873   7.341  0.0524 -0.3912 -0.0409
 1889TIP3    H127302   4.356   5.958   7.307  2.0282 -0.6909  0.5375
 1889TIP3    H227303   4.332   5.815   7.265  1.4598 -0.4459  0.0014
 1890TIP3   OH227304   3.313   6.235   7.844  0.1121 -0.1078 -0.1805
 1890TIP3    H127305   3.292   6.328   7.832 -0.3549  0.0026  1.3135
 1890TIP3    H227306   3.396   6.223   7.798  0.8257  1.3491  0.6342
 1891TIP3   OH227307   6.128   2.619   8.006  0.5963 -0.7756 -0.3124
 1891TIP3    H127308   6.155   2.652   7.920 -0.5229 -1.3922 -0.9469
 1891TIP3    H227309   6.209   2.610   8.056  0.9764  3.0192  0.0082
 1892TIP3   OH227310   3.041   0.249   8.680 -0.1832  0.0183 -0.6415
 1892TIP3    H127311   3.054   0.330   8.631  0.6566 -0.6310 -1.5202
 1892TIP3    H227312   3.015   0.279   8.768  0.1603  1.2345 -0.9304
 1893TIP3   OH227313   1.363   0.267   0.761  0.1324  0.4840 -0.1090
 1893TIP3    H127314   1.337   0.191   0.709 -0.7209  0.5525  0.2092
 1893TIP3    H227315   1.313   0.340   0.724 -0.7095  0.4809  0.9747
 1894TIP3   OH227316   4.712   6.803   1.902  1.1004 -0.2742  0.7119
 1894TIP3    H127317   4.696   6.787   1.809  1.0631  0.2175  0.6309
 1894TIP3    H227318   4.652   6.744   1.947  1.7321 -1.1552  0.4376
 1895TIP3   OH227319   1.430   2.303   8.723  0.3467  0.5299 -0.4278
 1895TIP3    H127320   1.437   2.397   8.705  1.4001  0.7086  0.8235
 1895TIP3    H227321   1.335   2.286   8.722  0.1466  1.5782 -0.7399
 1896TIP3   OH227322   3.063   0.131   7.863 -0.9855  0.5103  0.1685
 1896TIP3    H127323   3.134   0.141   7.799 -0.3626  0.5722  0.8459
 1896TIP3    H227324   3.039   0.221   7.886  0.0508  0.5078  1.3555
 1897TIP3   OH227325   6.206   1.238   0.321  0.1759  0.4513  0.1535
 1897TIP3    H127326   6.283   1.257   0.269  1.3951 -0.0422  1.6888
 1897TIP3    H227327   6.162   1.166   0.275  0.3062  1.1213 -1.0299
 1898TIP3   OH227328   1.034   2.486   1.610 -0.8178 -0.5518 -0.1113
 1898TIP3    H127329   1.085   2.551   1.658  1.7724 -2.3311 -0.2565
 1898TIP3    H227330   0.962   2.464   1.669 -0.8648  1.2905  0.5662
 1899TIP3   OH227331   0.354   4.065   8.009  0.0503 -0.3484 -0.0786
 1899TIP3    H127332   0.361   4.000   7.939  1.2574 -0.1870 -0.1313
 1899TIP3    H227333   0.425   4.126   7.992 -1.4723  1.4280 -0.4431
 1900TIP3   OH227334   0.908   4.382   0.750  0.1196 -0.0039  0.3431
 1900TIP3    H127335   0.885   4.465   0.792 -0.6194 -0.3124  0.5666
 1900TIP3    H227336   0.825   4.336   0.741  0.1939  0.1832 -1.7981
 1901TIP3   OH227337   3.925   3.102   2.289  1.0633 -0.1252  0.3350
 1901TIP3    H127338   3.860   3.088   2.358  0.2122  0.8752 -0.2475
 1901TIP3    H227339   3.949   3.014   2.261 -2.0757 -0.6044 -1.3153
 1902TIP3   OH227340   4.808   1.214   1.454  0.3307  0.2683 -0.6124
 1902TIP3    H127341   4.896   1.216   1.491  0.0751 -0.7481  0.0959
 1902TIP3    H227342   4.822   1.216   1.359  1.0391  1.6995 -0.5002
 1903TIP3   OH227343   6.658   0.806   0.071 -0.4719  0.0346 -0.2293
 1903TIP3    H127344   6.646   0.812  -0.023 -0.1274  0.5498 -0.2433
 1903TIP3    H227345   6.618   0.722   0.095  0.8900 -0.9047 -1.0710
 1904TIP3   OH227346   6.510   5.127   7.203  0.4626  0.1106 -0.4867
 1904TIP3    H127347   6.570   5.063   7.242 -0.1922 -1.0941 -1.3941
 1904TIP3    H227348   6.449   5.074   7.152 -0.2026  1.4625 -1.1263
 1905TIP3   OH227349   0.932   2.902   1.283 -0.3566 -0.1521  0.4700
 1905TIP3    H127350   1.001   2.840   1.259 -1.0831 -0.2882 -1.4517
 1905TIP3    H227351   0.865   2.848   1.324  0.6706 -0.0064  2.4242
 1906TIP3   OH227352   6.515   3.407   2.617 -0.3053  0.3324  0.1569
 1906TIP3    H127353   6.419   3.404   2.618 -0.3111  0.4435  1.1021
 1906TIP3    H227354   6.542   3.317   2.633 -0.2512  0.3227  0.0121
 1907TIP3   OH227355   3.851   6.475   8.206 -0.5589  0.1502 -0.5900
 1907TIP3    H127356   3.902   6.524   8.270 -1.0519  0.6690 -0.5822
 1907TIP3    H227357   3.847   6.532   8.129 -0.9154  0.0166 -0.6765
 1908TIP3   OH227358   4.604   3.150   7.116  0.1257  0.1471  0.5247
 1908TIP3    H127359   4.635   3.062   7.094  1.3073 -0.0787  2.8582
 1908TIP3    H227360   4.619   3.201   7.036 -0.8120 -1.7827 -0.9617
 1909TIP3   OH227361   5.989   5.134   7.836  0.2374 -0.0900 -0.5443
 1909TIP3    H127362   6.020   5.111   7.749 -0.3017 -0.4836 -0.6412
 1909TIP3    H227363   5.956   5.052   7.872 -2.4107  0.5799 -1.1776
 1910TIP3   OH227364   1.136   5.225   1.535 -0.3583 -0.2036  0.0239
 1910TIP3    H127365   1.206   5.249   1.595 -1.5183 -3.0033  2.8080
 1910TIP3    H227366   1.083   5.304   1.527 -0.2174  0.3021  2.9292
 1911TIP3   OH227367   5.770   4.484   7.318  0.2659  1.4031  0.5164
 1911TIP3    H127368   5.739   4.509   7.231  0.1852 -0.4770 -0.0446
 1911TIP3    H227369   5.747   4.558   7.374 -0.7101  2.1778 -0.8435
 1912TIP3   OH227370   1.655   0.845   1.572 -0.3934 -0.4262  0.5573
 1912TIP3    H127371   1.683   0.935   1.588 -1.0474 -0.3445  1.2835
 1912TIP3    H227372   1.682   0.796   1.649 -1.3825 -0.5355  0.8468
 1913TIP3   OH227373   1.308   4.737   2.410 -0.5123  0.5333  0.1861
 1913TIP3    H127374   1.393   4.764   2.445 -0.8197  2.4709 -0.4078
 1913TIP3    H227375   1.314   4.759   2.316 -0.5581 -2.2894 -0.5482
 1914TIP3   OH227376   4.096   2.369   8.346  0.8233 -0.1511  0.6707
 1914TIP3    H127377   4.162   2.346   8.411  3.0872  1.8328 -0.7554
 1914TIP3    H227378   4.146   2.383   8.265 -1.3095  1.6170 -0.4553
 1915TIP3   OH227379   6.259   1.532   7.831 -0.0878  0.1440  0.2330
 1915TIP3    H127380   6.269   1.610   7.777 -0.0315  0.4068  0.6151
 1915TIP3    H227381   6.348   1.511   7.860 -0.2346  0.6418  1.0916
 1916TIP3   OH227382   1.323   5.406   1.645 -0.1170 -0.2075  0.0500
 1916TIP3    H127383   1.396   5.395   1.584  0.4777 -0.0985  0.7195
 1916TIP3    H227384   1.343   5.489   1.690 -0.2739 -0.5398  0.7427
 1917TIP3   OH227385   0.621   3.632   6.493  0.0671  0.2937 -0.2861
 1917TIP3    H127386   0.529   3.611   6.479  0.1417  0.8150 -1.7305
 1917TIP3    H227387   0.667   3.550   6.471 -0.0216  0.1812 -0.0512
 1918TIP3   OH227388   2.622   1.511   1.353  0.2329 -0.4090 -0.4498
 1918TIP3    H127389   2.665   1.535   1.436 -0.9641  0.7500 -0.1240
 1918TIP3    H227390   2.644   1.583   1.294  1.3192 -1.3760 -1.2552
 1919TIP3   OH227391   1.155   0.007   8.094  0.0027 -0.3812  0.5793
 1919TIP3    H127392   1.062   0.024   8.110 -0.2925 -0.5933 -0.7623
 1919TIP3    H227393   1.198   0.089   8.116 -0.4138 -0.4801  1.8296
 1920TIP3   OH227394   6.781   5.965   3.132  0.2587  1.0294  0.6523
 1920TIP3    H127395   6.775   6.060   3.145 -0.5708  1.2673 -1.0786
 1920TIP3    H227396   6.796   5.955   3.038 -0.6336 -0.5745  0.6435
 1921TIP3   OH227397   4.060   5.009   2.309  0.0659  0.0751 -0.1880
 1921TIP3    H127398   3.984   5.016   2.251  0.3366  1.0989 -0.4275
 1921TIP3    H227399   4.094   5.098   2.316  0.7361 -0.2274  0.6139
 1922TIP3   OH227400   4.863   3.862   8.000 -0.2873  0.1247  0.0733
 1922TIP3    H127401   4.911   3.897   7.926  1.6950 -1.5463  0.4630
 1922TIP3    H227402   4.905   3.777   8.018 -3.4184 -1.4921  0.4556
 1923TIP3   OH227403   1.223   5.990   0.191 -0.3706  0.1398 -0.1737
 1923TIP3    H127404   1.265   5.924   0.246 -1.1396  0.4306  0.7825
 1923TIP3    H227405   1.296   6.033   0.145  0.2119 -0.6480 -0.0067
 1924TIP3   OH227406   0.307   2.463   0.109  0.2849 -0.1985  0.2170
 1924TIP3    H127407   0.266   2.490   0.027  1.8488 -1.3680 -1.0346
 1924TIP3    H227408   0.317   2.544   0.159  1.0316  0.9006 -1.6020
 1925TIP3   OH227409   3.319   6.075   0.033  0.4241  0.2470  0.0257
 1925TIP3    H127410   3.352   6.005  -0.023 -1.9362  0.7854 -2.2678
 1925TIP3    H227411   3.226   6.081   0.011 -0.5208  0.9964  3.6032
 1926TIP3   OH227412   4.359   4.038   7.473 -0.4094 -0.7027 -0.1740
 1926TIP3    H127413   4.427   4.090   7.432  0.6380 -0.8713  1.2685
 1926TIP3    H227414   4.396   3.950   7.479 -1.5991 -1.3200 -1.2809
 1927TIP3   OH227415   1.516   4.877   1.806  0.1570 -0.3823  0.7076
 1927TIP3    H127416   1.544   4.800   1.856 -1.6153 -1.8857 -0.4969
 1927TIP3    H227417   1.448   4.845   1.747  1.3714  1.5168 -1.9404
 1928TIP3   OH227418   2.133   2.687   8.395 -0.5005 -0.5745  0.3908
 1928TIP3    H127419   2.075   2.713   8.467  0.3205 -0.9290  1.1912
 1928TIP3    H227420   2.096   2.605   8.362 -1.1648 -0.1534  0.0664
 1929TIP3   OH227421   2.612   1.255   8.500  0.6357 -0.4243 -0.4000
 1929TIP3    H127422   2.540   1.242   8.437 -0.9626  4.1278  0.0721
 1929TIP3    H227423   2.569   1.249   8.585  1.9031 -2.3063  0.1445
 1930TIP3   OH227424   4.240   0.578   0.307  0.2581  1.0220 -0.0471
 1930TIP3    H127425   4.243   0.576   0.403 -0.3687 -2.1836 -0.0122
 1930TIP3    H227426   4.226   0.671   0.286  0.0540  1.7706  2.9404
 1931TIP3   OH227427   6.412   6.370   1.243  0.4105 -0.1224  0.1660
 1931TIP3    H127428   6.357   6.358   1.320 -0.4927 -0.9682 -0.5894
 1931TIP3    H227429   6.381   6.305   1.181  0.0754  1.5458 -1.5037
 1932TIP3   OH227430   5.445   6.500   2.245  0.2121 -0.7146  0.5513
 1932TIP3    H127431   5.534   6.473   2.268 -0.2303 -1.2680  1.6542
 1932TIP3    H227432   5.395   6.419   2.239 -0.0603 -0.4797 -0.8984
 1933TIP3   OH227433   1.852   2.606   1.608  0.2240  0.2916  0.4945
 1933TIP3    H127434   1.839   2.698   1.583  0.9228 -0.0497 -1.2386
 1933TIP3    H227435   1.781   2.588   1.669  1.1199  2.4927  2.3657
 1934TIP3   OH227436   3.731   4.496   1.883  0.2160 -0.0575 -0.1738
 1934TIP3    H127437   3.790   4.423   1.866  0.9646  0.8424 -1.6888
 1934TIP3    H227438   3.788   4.573   1.881 -0.7009  0.6576  0.4199
 1935TIP3   OH227439   1.432   1.832   0.109  0.1667 -0.1883  0.1811
 1935TIP3    H127440   1.465   1.911   0.066 -1.3770  0.4771  0.1391
 1935TIP3    H227441   1.480   1.761   0.068  2.4563  0.7725  1.0537
 1936TIP3   OH227442   4.611   3.633   0.963 -0.3390 -0.0513  0.4050
 1936TIP3    H127443   4.523   3.647   0.929 -0.4290  1.8981  1.2808
 1936TIP3    H227444   4.604   3.555   1.018 -1.1213 -0.8372 -0.7654
 1937TIP3   OH227445   5.675   1.247   7.465  0.1023  0.7799  0.0213
 1937TIP3    H127446   5.662   1.200   7.382 -1.0168 -0.9963  1.1146
 1937TIP3    H227447   5.635   1.189   7.531  0.7653  2.2325  1.7733
 1938TIP3   OH227448   6.658   1.242   7.771 -0.3088 -0.0628 -0.1149
 1938TIP3    H127449   6.627   1.163   7.815 -2.5820 -1.0893 -3.1675
 1938TIP3    H227450   6.748   1.222   7.746 -0.4758 -1.2308  0.1433
 1939TIP3   OH227451   4.759   3.476   7.822 -0.1650  0.2176  0.7798
 1939TIP3    H127452   4.828   3.516   7.769 -1.3073 -0.5792 -1.4372
 1939TIP3    H227453   4.682   3.476   7.765 -1.1528 -1.7959  2.0022
 1940TIP3   OH227454   0.554   2.930   8.049 -0.3400  0.2574 -0.1427
 1940TIP3    H127455   0.533   2.977   7.968 -0.5083 -0.1291 -0.3305
 1940TIP3    H227456   0.525   2.987   8.119 -1.7220 -0.1145 -0.3879
 1941TIP3   OH227457   0.255   3.250   8.208  0.1416 -0.3373 -0.1222
 1941TIP3    H127458   0.314   3.189   8.253  2.1788  0.0346 -2.0933
 1941TIP3    H227459   0.272   3.236   8.115 -0.9131  1.7265 -0.6924
 1942TIP3   OH227460   3.413   5.295   0.649  0.6301  0.1735  0.0801
 1942TIP3    H127461   3.458   5.370   0.687 -0.3524  1.6110 -1.4381
 1942TIP3    H227462   3.322   5.323   0.640  0.2781 -1.1126 -0.7183
 1943TIP3   OH227463   2.657   0.644   8.161 -0.2917  0.1554 -0.3614
 1943TIP3    H127464   2.664   0.704   8.087  2.3034 -0.4297 -0.6952
 1943TIP3    H227465   2.668   0.699   8.238  0.9741  0.3180 -0.6244
 1944TIP3   OH227466   1.486   3.366   1.681  0.1134  0.0246  0.5445
 1944TIP3    H127467   1.469   3.350   1.774 -0.9934 -0.2723  0.3111
 1944TIP3    H227468   1.435   3.298   1.636 -0.9023  1.3297 -0.3277
 1945TIP3   OH227469   3.628   5.182   0.572  0.1683 -0.8977 -0.3182
 1945TIP3    H127470   3.655   5.224   0.491  1.7429  0.5807  0.8882
 1945TIP3    H227471   3.536   5.206   0.583  0.9739  2.3703  0.2842
 1946TIP3   OH227472   3.224   5.149   0.919 -0.2144 -0.3090 -0.1808
 1946TIP3    H127473   3.217   5.237   0.957  1.0189 -0.6151  0.8027
 1946TIP3    H227474   3.238   5.091   0.994  3.1701 -0.8295 -1.0349
 1947TIP3   OH227475   2.221   4.114   8.579  0.2213  0.5551  0.6093
 1947TIP3    H127476   2.185   4.164   8.506 -0.7010 -0.9728 -0.0241
 1947TIP3    H227477   2.184   4.026   8.569  1.3056 -0.1051  2.0333
 1948TIP3   OH227478   0.701   0.788   2.017  0.0096  0.4320 -0.1687
 1948TIP3    H127479   0.702   0.718   1.952  2.1218  0.6429 -0.4105
 1948TIP3    H227480   0.631   0.763   2.078  0.3874 -1.6434 -0.5196
 1949TIP3   OH227481   1.473   6.760   0.551  0.5584 -0.0883 -0.2404
 1949TIP3    H127482   1.524   6.810   0.614 -0.1301  0.1898  0.1048
 1949TIP3    H227483   1.510   6.672   0.554  1.0134  0.1063 -0.0014
 1950TIP3   OH227484   2.511   4.337   0.131 -0.1418  0.1699  0.3405
 1950TIP3    H127485   2.556   4.389   0.197 -3.4227  2.2838  1.1854
 1950TIP3    H227486   2.461   4.272   0.181  1.0872 -1.4970 -0.4882
 1951TIP3   OH227487   4.964   5.104   2.628 -0.4790 -0.1005 -0.2635
 1951TIP3    H127488   5.030   5.174   2.618  0.3868 -0.8478  0.0306
 1951TIP3    H227489   4.884   5.150   2.652  0.5612  0.6912  1.9665
 1952TIP3   OH227490   2.861   0.618   1.366 -0.2217  0.4360  0.3489
 1952TIP3    H127491   2.787   0.595   1.423 -1.6240  2.2801 -0.6061
 1952TIP3    H227492   2.823   0.678   1.302  1.7166 -0.0995 -1.3927
 1953TIP3   OH227493   6.240   6.591   7.236  0.0853 -0.1452  0.1482
 1953TIP3    H127494   6.220   6.544   7.155 -0.6811  0.2663  0.0908
 1953TIP3    H227495   6.186   6.549   7.303 -0.0670  0.1933  0.2385
 1954TIP3   OH227496   6.537   5.463   7.846  0.0262 -0.3460 -0.1495
 1954TIP3    H127497   6.529   5.502   7.759  0.4311 -1.6987 -0.8239
 1954TIP3    H227498   6.473   5.391   7.845  0.4541 -0.7368  0.4523
 1955TIP3   OH227499   5.904   0.565   1.842 -0.1326 -0.4173 -0.2496
 1955TIP3    H127500   5.815   0.575   1.878 -1.7145 -0.1251 -3.7926
 1955TIP3    H227501   5.909   0.473   1.815  0.6957 -0.4525  0.0066
 1956TIP3   OH227502   0.994   0.509   1.684 -0.4622  0.2254  0.1727
 1956TIP3    H127503   1.048   0.569   1.634 -0.1153 -0.8088 -0.7252
 1956TIP3    H227504   0.995   0.427   1.634 -1.0897 -0.4731  1.2495
 1957TIP3   OH227505   6.787   4.297   0.521  0.0532 -0.1284  0.5811
 1957TIP3    H127506   6.818   4.382   0.553  0.1877  0.2945 -0.6268
 1957TIP3    H227507   6.867   4.247   0.505  0.2405  0.8927 -2.3447
 1958TIP3   OH227508   2.703   2.151   0.772  0.1609  0.8217 -0.2108
 1958TIP3    H127509   2.617   2.191   0.789  0.3890  1.5142 -0.6970
 1958TIP3    H227510   2.750   2.215   0.719  0.2006 -0.4607 -1.7976
 1959TIP3   OH227511   6.189   0.795   1.155 -0.3499  0.2665  0.1390
 1959TIP3    H127512   6.126   0.861   1.126 -0.0966 -0.8061 -3.3031
 1959TIP3    H227513   6.268   0.815   1.106 -0.0988 -2.2084 -0.5872
 1960TIP3   OH227514   6.191   5.469   0.095 -0.0561 -0.3522  0.1453
 1960TIP3    H127515   6.255   5.424   0.149 -0.1616 -0.3982  0.2306
 1960TIP3    H227516   6.107   5.429   0.117 -0.2192  0.2008  0.5686
 1961TIP3   OH227517   1.678   3.066   2.756  0.7515  0.0823 -0.0221
 1961TIP3    H127518   1.597   3.114   2.738  0.5848 -0.4810 -0.8344
 1961TIP3    H227519   1.717   3.052   2.669  1.6678  0.2451  0.3521
 1962TIP3   OH227520   4.122   6.700   1.735  0.0606 -0.0876  0.0261
 1962TIP3    H127521   4.113   6.619   1.685  1.2459  0.1665 -0.6332
 1962TIP3    H227522   4.103   6.675   1.825 -2.0317 -0.5695 -0.5031
 1963TIP3   OH227523   2.572   4.132   0.391  0.5084  0.2679 -0.0297
 1963TIP3    H127524   2.543   4.138   0.482 -0.3005  1.4027 -0.3353
 1963TIP3    H227525   2.643   4.195   0.384  1.9084 -1.1909  0.2519
 1964TIP3   OH227526   6.226   5.383   8.545 -0.6859  0.5679 -0.1241
 1964TIP3    H127527   6.229   5.398   8.639  0.4968  0.8480 -0.1936
 1964TIP3    H227528   6.272   5.300   8.532 -2.7499 -0.6431 -0.2653
 1965TIP3   OH227529   5.356   4.769   1.443  0.6141 -0.2133  0.0395
 1965TIP3    H127530   5.360   4.852   1.395  0.1256 -0.5685 -0.6425
 1965TIP3    H227531   5.281   4.724   1.405  1.4978 -1.4175 -0.3307
 1966TIP3   OH227532   0.919   0.987   2.015 -0.1012 -0.7556  0.1526
 1966TIP3    H127533   0.951   1.023   1.933 -2.5172  1.1422 -0.0631
 1966TIP3    H227534   0.867   0.911   1.990 -1.9167  0.5714 -0.2836
 1967TIP3   OH227535   2.881   6.004   7.640  0.1657  0.2751  0.6457
 1967TIP3    H127536   2.915   5.987   7.728  1.1492 -0.2278  0.1786
 1967TIP3    H227537   2.957   6.036   7.591  0.1828 -1.5338 -0.6065
 1968TIP3   OH227538   1.063   5.712   0.145 -0.2601  0.3955  0.2768
 1968TIP3    H127539   1.134   5.724   0.207  1.1921 -0.6016 -1.1178
 1968TIP3    H227540   0.986   5.746   0.190  1.0418  1.3274  1.9156
 1969TIP3   OH227541   4.918   0.226   2.523 -0.0522  0.0320 -0.0265
 1969TIP3    H127542   4.853   0.174   2.475 -0.2922  1.6702 -1.5569
 1969TIP3    H227543   4.865   0.282   2.581 -0.2356  2.3738 -2.2631
 1970TIP3   OH227544   2.873   0.470   7.349  0.2565  0.4716  0.3843
 1970TIP3    H127545   2.955   0.484   7.303  0.2304  3.1032  0.9618
 1970TIP3    H227546   2.807   0.510   7.293 -1.0622 -3.1965 -0.9899
 1971TIP3   OH227547   3.126   6.325   2.431  0.7904 -0.5846 -0.4603
 1971TIP3    H127548   3.139   6.292   2.520 -1.4465 -2.1419 -0.6463
 1971TIP3    H227549   3.093   6.414   2.444  0.8630 -0.6519  0.2681
 1972TIP3   OH227550   3.219   0.616   7.824  0.9600 -0.0774  0.0423
 1972TIP3    H127551   3.230   0.633   7.918  0.9694 -3.2616  0.7325
 1972TIP3    H227552   3.130   0.583   7.816  1.3091 -0.8452 -0.8583
 1973TIP3   OH227553   1.816   2.919   2.916 -0.7935  0.4597  0.5054
 1973TIP3    H127554   1.857   2.864   2.849 -0.1856  1.2312  0.2236
 1973TIP3    H227555   1.753   2.973   2.867  0.0946  1.4655  0.4331
 1974TIP3   OH227556   2.235   0.153   2.220 -0.1178 -0.2497  0.2885
 1974TIP3    H127557   2.161   0.153   2.281  1.9397  2.6603  3.0987
 1974TIP3    H227558   2.311   0.133   2.275  1.6804  0.9340 -1.6346
 1975TIP3   OH227559   6.660   6.333   1.367  0.0376 -0.1018  0.1802
 1975TIP3    H127560   6.595   6.352   1.299  1.4307  0.8108 -0.9675
 1975TIP3    H227561   6.609   6.321   1.447 -1.6986 -1.5832 -1.0619
 1976TIP3   OH227562   6.767   1.400   2.711  0.0692 -0.0036 -0.3655
 1976TIP3    H127563   6.841   1.339   2.703  1.0214  1.0334  0.2941
 1976TIP3    H227564   6.808   1.485   2.726 -1.2672  0.4378  1.0236
 1977TIP3   OH227565   4.034   1.656   2.125  0.4994  0.8069  0.3517
 1977TIP3    H127566   4.074   1.731   2.169  2.7756  0.1906 -0.5573
 1977TIP3    H227567   4.031   1.587   2.192 -0.7694  1.3826  0.9273
 1978TIP3   OH227568   6.110   5.903   7.928 -0.0204  0.2404  0.5979
 1978TIP3    H127569   6.126   5.942   7.842  2.0263  0.1248  0.8827
 1978TIP3    H227570   6.025   5.859   7.919 -0.6088  1.5764 -0.8558
 1979TIP3   OH227571   6.765   2.109   7.785 -0.1169 -0.7655  0.1187
 1979TIP3    H127572   6.680   2.106   7.740 -0.0054  0.4077 -0.2023
 1979TIP3    H227573   6.825   2.063   7.726  0.1170  1.1037 -1.1932
 1980TIP3   OH227574   6.722   2.201   1.706 -0.0321  0.1959 -0.1091
 1980TIP3    H127575   6.691   2.164   1.623  0.4947  0.6915 -0.5269
 1980TIP3    H227576   6.814   2.219   1.692  0.0117  0.4967  0.5147
 1981TIP3   OH227577   4.566   0.371   7.129 -0.4013  0.4822 -0.3619
 1981TIP3    H127578   4.613   0.296   7.164 -0.9758 -0.5705 -1.7219
 1981TIP3    H227579   4.486   0.334   7.092 -0.2949  1.6193 -1.8623
 1982TIP3   OH227580   0.189   0.181   8.557  0.3349 -0.2344 -0.1958
 1982TIP3    H127581   0.122   0.195   8.490  0.1658 -1.0098 -0.2012
 1982TIP3    H227582   0.151   0.216   8.637 -0.3790 -1.3009 -0.0524
 1983TIP3   OH227583   5.428   6.001   0.188 -0.2706 -0.1798 -0.3066
 1983TIP3    H127584   5.354   6.055   0.159  1.2923  1.2818 -1.7609
 1983TIP3    H227585   5.474   5.979   0.107  2.1293  0.8269  0.7080
 1984TIP3   OH227586   4.152   5.731   8.404 -0.1490 -0.3163  0.4332
 1984TIP3    H127587   4.067   5.696   8.432 -1.6625  0.5753 -2.6337
 1984TIP3    H227588   4.194   5.659   8.358  0.3039 -0.4434  1.0395
 1985TIP3   OH227589   5.103   3.277   7.749 -0.5019 -0.1389 -0.8501
 1985TIP3    H127590   5.076   3.219   7.821 -0.5396  0.3381 -0.4782
 1985TIP3    H227591   5.139   3.354   7.793  3.4720 -1.5310 -1.2125
 1986TIP3   OH227592   4.099   4.761   1.664  0.1021  0.2352  0.3790
 1986TIP3    H127593   4.056   4.701   1.603 -1.5030  3.0964 -1.5038
 1986TIP3    H227594   4.034   4.773   1.734 -0.0336  0.5927  0.1930
 1987TIP3   OH227595   0.166   4.088   0.852  0.0250 -0.4476 -0.6007
 1987TIP3    H127596   0.082   4.131   0.838  1.1562  2.1522  0.0646
 1987TIP3    H227597   0.150   4.031   0.927 -1.0630  0.2593 -0.2580
 1988TIP3   OH227598   1.363   1.184   0.577  0.2521 -0.0656 -0.4111
 1988TIP3    H127599   1.403   1.119   0.519  1.6934  1.8128 -1.6124
 1988TIP3    H227600   1.399   1.164   0.664  0.6431 -0.8794 -0.7454
 1989TIP3   OH227601   0.976   4.123   1.364 -0.2776 -0.4962  0.0116
 1989TIP3    H127602   0.881   4.139   1.364 -0.4742 -1.5795 -0.2637
 1989TIP3    H227603   1.003   4.142   1.274  0.0472  1.2320  0.4354
 1990TIP3   OH227604   1.200   2.741   8.413  0.7034  0.2915 -0.3765
 1990TIP3    H127605   1.294   2.762   8.417  1.2074 -1.3170 -2.3692
 1990TIP3    H227606   1.184   2.690   8.492  0.9103  2.4926  1.1852
 1991TIP3   OH227607   4.188   0.198   0.335  0.0125 -0.0733 -0.5621
 1991TIP3    H127608   4.096   0.192   0.311  0.0956  0.0587 -0.9149
 1991TIP3    H227609   4.235   0.152   0.265  0.0439 -2.4263  0.8705
 1992TIP3   OH227610   2.248   5.346   6.919 -0.5084  0.3760 -0.2121
 1992TIP3    H127611   2.213   5.294   6.991  0.2209  0.5905  0.3184
 1992TIP3    H227612   2.276   5.282   6.854 -1.1907  0.1814 -0.3212
 1993TIP3   OH227613   4.979   6.281   0.083  0.7716  0.2347  0.2225
 1993TIP3    H127614   4.911   6.294   0.018  0.7866 -2.1994 -0.3733
 1993TIP3    H227615   4.934   6.284   0.167  0.3361  0.9821 -0.0378
 1994TIP3   OH227616   5.033   1.393   7.682 -0.0345  0.4738 -0.1252
 1994TIP3    H127617   5.044   1.464   7.619 -0.6068  0.9293  0.2731
 1994TIP3    H227618   5.068   1.429   7.764 -1.2159  0.6709  0.3141
 1995TIP3   OH227619   3.096   4.183   1.952  0.3836 -0.2224 -0.1654
 1995TIP3    H127620   3.136   4.096   1.944 -1.8148 -1.3720  0.5954
 1995TIP3    H227621   3.131   4.218   2.034 -0.0354 -1.1568  0.4287
 1996TIP3   OH227622   6.206   5.285   8.033 -0.0573 -0.2382 -0.3424
 1996TIP3    H127623   6.118   5.303   8.000 -0.0747 -0.2365 -0.2943
 1996TIP3    H227624   6.195   5.270   8.127 -0.0141 -0.2902 -0.3446
 1997TIP3   OH227625   4.710   6.620   7.398 -0.6939  0.3036 -0.3867
 1997TIP3    H127626   4.624   6.580   7.387 -0.8682  1.1954 -2.9010
 1997TIP3    H227627   4.705   6.666   7.482 -1.2875 -2.7938  1.4128
 1998TIP3   OH227628   1.274   6.227   2.953 -0.1678  0.3502  0.0198
 1998TIP3    H127629   1.234   6.141   2.958 -1.7878  0.9806 -1.0829
 1998TIP3    H227630   1.229   6.279   3.020  0.6813  0.4032  0.5687
 1999TIP3   OH227631   1.460   3.161   0.029 -0.6812 -0.0824 -0.1977
 1999TIP3    H127632   1.536   3.171  -0.028 -1.8624  2.3009 -1.5270
 1999TIP3    H227633   1.484   3.208   0.110  0.1960 -1.6357  0.4855
 2000TIP3   OH227634   5.659   3.300   8.598 -0.3511  0.7590 -0.1584
 2000TIP3    H127635   5.636   3.211   8.569 -0.7383  0.7874  0.0608
 2000TIP3    H227636   5.704   3.338   8.522 -0.0019  0.3078 -0.1847
 2001TIP3   OH227637   0.543   3.038   0.639 -0.2417  0.2345 -0.5235
 2001TIP3    H127638   0.585   2.991   0.711 -1.4023  1.5471  1.0951
 2001TIP3    H227639   0.558   2.983   0.562  2.0630 -0.6368  0.4786
 2002TIP3   OH227640   6.761   3.530   2.572  0.3988 -0.3637 -0.7152
 2002TIP3    H127641   6.682   3.476   2.576 -0.6024  1.0398 -0.7363
 2002TIP3    H227642   6.759   3.581   2.652  2.1832 -1.4538  0.0743
 2003TIP3   OH227643   2.256   5.174   1.076  0.1736  0.5746  0.2673
 2003TIP3    H127644   2.186   5.127   1.121  1.6051  0.1193  2.1280
 2003TIP3    H227645   2.216   5.258   1.051 -1.0543  0.3008  1.1994
 2004TIP3   OH227646   6.200   0.948   0.468  0.0797 -0.3806  0.0144
 2004TIP3    H127647   6.197   0.937   0.373  0.1206 -2.0951  0.1873
 2004TIP3    H227648   6.172   0.864   0.503 -2.6240  1.0252  1.5605
 2005TIP3   OH227649   4.848   1.734   0.451 -0.1217  0.2273 -0.1135
 2005TIP3    H127650   4.763   1.712   0.413  0.3271  1.0779 -1.6983
 2005TIP3    H227651   4.906   1.663   0.423  0.1548  0.7318 -0.8494
 2006TIP3   OH227652   2.723   5.780   8.187 -0.3586  0.0184  0.0025
 2006TIP3    H127653   2.742   5.863   8.143 -0.7706  0.9369  1.5000
 2006TIP3    H227654   2.633   5.759   8.162 -0.9896  1.1182  1.2488
 2007TIP3   OH227655   4.243   1.559   0.757  0.0070  0.0817 -0.2377
 2007TIP3    H127656   4.310   1.525   0.817  0.6669  2.4119  0.4838
 2007TIP3    H227657   4.271   1.529   0.671  1.0092 -0.4828  0.2585
 2008TIP3   OH227658   6.493   1.276   7.533  0.3789  0.0891 -0.1091
 2008TIP3    H127659   6.552   1.266   7.607  0.6601 -2.3379 -0.5922
 2008TIP3    H227660   6.539   1.337   7.475  1.2732  0.1470  0.6320
 2009TIP3   OH227661   2.288   2.148   7.666  0.4331 -0.3536  0.2026
 2009TIP3    H127662   2.288   2.195   7.583 -4.1588 -1.4088 -0.7048
 2009TIP3    H227663   2.354   2.079   7.656  1.3272  0.7211 -1.7526
 2010TIP3   OH227664   5.172   2.456   1.043  0.0282  0.2147 -0.0432
 2010TIP3    H127665   5.255   2.408   1.050 -0.2406 -0.2805 -0.2142
 2010TIP3    H227666   5.161   2.471   0.949 -0.4467 -0.3893 -0.0909
 2011TIP3   OH227667   4.259   2.887   7.895  0.0686 -0.7073 -0.7084
 2011TIP3    H127668   4.232   2.963   7.947  0.6344 -1.1021  0.1762
 2011TIP3    H227669   4.240   2.811   7.949 -2.3130 -1.3978 -2.3437
 2012TIP3   OH227670   0.889   4.395   0.269 -0.3761  0.2153 -0.2886
 2012TIP3    H127671   0.801   4.363   0.289  0.4318 -0.9232  1.8278
 2012TIP3    H227672   0.941   4.316   0.254  0.5055  0.8077 -0.4854
 2013TIP3   OH227673   6.713   6.277   8.493  0.3222 -0.0510  0.1980
 2013TIP3    H127674   6.709   6.341   8.422  0.2953  2.2379  2.1716
 2013TIP3    H227675   6.627   6.281   8.534  0.4308 -1.1504  0.5589
 2014TIP3   OH227676   3.948   0.581   7.288 -0.2289 -0.5448 -0.4034
 2014TIP3    H127677   3.930   0.673   7.268  2.5075  0.3009  0.6063
 2014TIP3    H227678   3.908   0.533   7.216 -0.9890  1.4863 -1.4241
 2015TIP3   OH227679   2.078   3.229   1.070 -0.6075  0.5363  0.6527
 2015TIP3    H127680   2.027   3.202   0.993  0.3092  0.2334  0.1310
 2015TIP3    H227681   2.169   3.211   1.045 -0.2818  0.6591  1.7269
 2016TIP3   OH227682   4.745   1.757   1.516 -0.2630 -0.7870 -0.0276
 2016TIP3    H127683   4.814   1.766   1.451 -1.4746  0.2957 -1.2381
 2016TIP3    H227684   4.747   1.665   1.542  0.0832 -1.3113 -1.8018
 2017TIP3   OH227685   2.018   5.527   0.296 -0.6566  0.2699 -0.2341
 2017TIP3    H127686   1.988   5.610   0.334 -0.5674  0.3344 -0.3018
 2017TIP3    H227687   2.000   5.536   0.203 -0.0222  0.4882 -0.3387
 2018TIP3   OH227688   0.013   1.212   1.571 -0.1627  0.3237  0.5133
 2018TIP3    H127689   0.004   1.204   1.666 -1.3881 -0.4532  0.3475
 2018TIP3    H227690  -0.075   1.233   1.540 -0.1196 -0.9926 -0.5931
 2019TIP3   OH227691   4.462   1.514   0.904  0.2423  0.2550 -0.2312
 2019TIP3    H127692   4.537   1.489   0.850  1.0742  1.3559  0.3639
 2019TIP3    H227693   4.465   1.456   0.979  0.5153  0.3017 -0.2056
 2020TIP3   OH227694   6.583   6.215   8.020  0.7718 -0.7002 -0.3168
 2020TIP3    H127695   6.523   6.272   8.067 -0.0451  0.4209 -2.5499
 2020TIP3    H227696   6.594   6.139   8.077 -0.1649  0.5170  1.5967
 2021TIP3   OH227697   6.780   5.544   0.633 -0.1903  0.3564 -0.1020
 2021TIP3    H127698   6.765   5.472   0.572  1.0293  0.2525 -0.3020
 2021TIP3    H227699   6.736   5.619   0.592  2.1193  0.7458 -2.0900
 2022TIP3   OH227700   2.253   0.968   7.550  0.0146  0.5887  0.0069
 2022TIP3    H127701   2.197   1.046   7.546  0.8085  1.2448  1.0429
 2022TIP3    H227702   2.325   0.987   7.491 -0.1290  0.3444 -0.2504
 2023TIP3   OH227703   6.296   1.870   0.657  0.0842  0.5883  0.1456
 2023TIP3    H127704   6.326   1.780   0.645 -1.6315  0.2103 -1.9981
 2023TIP3    H227705   6.241   1.867   0.736 -2.1942 -0.9711 -1.3712
 2024TIP3   OH227706   4.505   6.835   8.170  0.2991  0.1224 -0.1102
 2024TIP3    H127707   4.442   6.831   8.242  0.5144 -1.6655  0.0304
 2024TIP3    H227708   4.580   6.785   8.201  0.5290 -0.3936 -1.4491
 2025TIP3   OH227709   3.639   2.104   1.212 -0.3841 -0.3171 -0.1930
 2025TIP3    H127710   3.664   2.141   1.296  0.4255 -0.4692 -0.3564
 2025TIP3    H227711   3.644   2.009   1.225  0.8662 -0.3406 -0.7202
 2026TIP3   OH227712   2.022   0.931   1.688  0.0120 -0.2627 -0.0939
 2026TIP3    H127713   1.932   0.936   1.655  0.2660 -0.3166 -0.8194
 2026TIP3    H227714   2.067   1.005   1.646 -0.0419  0.6781  1.4290
 2027TIP3   OH227715   2.136   1.674   7.832 -0.3381 -0.5251 -0.1089
 2027TIP3    H127716   2.155   1.580   7.829  1.9555 -0.0974 -1.7095
 2027TIP3    H227717   2.179   1.706   7.911 -0.2725 -0.6555 -0.0924
 2028TIP3   OH227718   2.990   2.728   8.713  0.3773  0.0299 -0.3641
 2028TIP3    H127719   2.921   2.779   8.669  1.6588  1.7254 -0.5351
 2028TIP3    H227720   3.063   2.729   8.652  0.9576 -0.7363  0.2963
 2029TIP3   OH227721   2.813   4.587   2.532 -0.3069 -0.6313  0.2313
 2029TIP3    H127722   2.861   4.670   2.540 -1.7785  0.3923 -0.9763
 2029TIP3    H227723   2.743   4.594   2.597  0.1978 -1.4240  0.8783
 2030TIP3   OH227724   1.026   0.290   0.531  0.1941  0.0545  0.3158
 2030TIP3    H127725   1.068   0.363   0.577 -1.0616  0.4176  0.9408
 2030TIP3    H227726   1.067   0.212   0.566  1.5068  0.4349 -0.3027
 2031TIP3   OH227727   6.194   2.897   8.627  0.0635  0.6083 -0.0972
 2031TIP3    H127728   6.260   2.963   8.607 -1.4918  1.8257 -1.4890
 2031TIP3    H227729   6.161   2.870   8.542  0.0402 -1.3541  0.4929
 2032TIP3   OH227730   3.520   1.235   1.521 -0.5208 -0.3123  0.7958
 2032TIP3    H127731   3.600   1.223   1.572 -0.1865  2.3489  1.0443
 2032TIP3    H227732   3.458   1.173   1.559  0.8086 -0.9509  2.0075
 2033TIP3   OH227733   0.615   2.490   2.057  0.6148 -0.0749 -0.4419
 2033TIP3    H127734   0.708   2.470   2.048  1.1014  1.9262 -0.2086
 2033TIP3    H227735   0.587   2.436   2.132  1.7642 -0.1311 -0.0216
 2034TIP3   OH227736   5.137   0.585   7.126 -0.0592 -0.9092  0.4420
 2034TIP3    H127737   5.176   0.500   7.147  1.3921 -0.2207  0.6979
 2034TIP3    H227738   5.208   0.648   7.142 -1.2064  0.3842  0.5920
 2035TIP3   OH227739   5.584   4.969   1.305 -0.2627  0.7580  0.0129
 2035TIP3    H127740   5.512   4.955   1.244  0.4159 -0.4730 -0.5456
 2035TIP3    H227741   5.663   4.945   1.256  0.1027 -3.9089  2.2772
 2036TIP3   OH227742   0.326   5.094   8.516  0.0433 -0.2473  0.4161
 2036TIP3    H127743   0.265   5.167   8.506 -2.5519 -2.1647  0.8884
 2036TIP3    H227744   0.409   5.126   8.483 -1.4454  2.2582 -1.1918
 2037TIP3   OH227745   0.156   4.317   6.906 -0.0907 -0.4189  0.4202
 2037TIP3    H127746   0.214   4.291   6.835 -0.3915  1.1255 -0.4255
 2037TIP3    H227747   0.081   4.259   6.898  0.9835 -1.9636  1.0901
 2038TIP3   OH227748   6.658   5.784   7.838  0.2250  0.6763 -0.0522
 2038TIP3    H127749   6.730   5.810   7.781 -1.5540 -1.0852 -3.3809
 2038TIP3    H227750   6.579   5.816   7.795 -1.1833  0.8401  2.4462
 2039TIP3   OH227751   4.274   5.287   7.314 -0.8593  0.1588 -0.6156
 2039TIP3    H127752   4.327   5.311   7.237 -0.1282 -2.6203 -1.0958
 2039TIP3    H227753   4.338   5.274   7.383 -1.0343 -1.4823 -0.7207
 2040TIP3   OH227754   2.822   2.395   1.779  0.4975  0.5173 -0.0342
 2040TIP3    H127755   2.890   2.335   1.810 -1.2791 -1.9820 -0.5929
 2040TIP3    H227756   2.769   2.413   1.856  1.7729  2.5746  0.4311
 2041TIP3   OH227757   0.704   6.210   0.289 -0.0514  0.2391  0.1408
 2041TIP3    H127758   0.795   6.240   0.289  1.0530 -2.7029  1.3389
 2041TIP3    H227759   0.682   6.200   0.381 -0.6598 -1.4603 -0.1519
 2042TIP3   OH227760   3.296   1.750   0.093  0.3707  0.0243 -0.1340
 2042TIP3    H127761   3.356   1.790   0.030 -0.1025 -1.2367 -1.4342
 2042TIP3    H227762   3.230   1.817   0.110  0.0936  0.1250 -1.5549
 2043TIP3   OH227763   4.142   3.676   2.228  0.3690 -0.0199  0.8340
 2043TIP3    H127764   4.108   3.740   2.292 -1.9407  0.2008 -0.4886
 2043TIP3    H227765   4.174   3.730   2.155 -0.3103 -0.3154  0.3047
 2044TIP3   OH227766   1.604   6.156   7.309  0.2406 -0.4741  0.2834
 2044TIP3    H127767   1.587   6.250   7.305 -0.0076 -0.5564 -1.4172
 2044TIP3    H227768   1.689   6.145   7.268 -1.6416 -1.3377 -3.9593
 2045TIP3   OH227769   1.086   3.428   1.699 -0.3718  0.1241  0.4919
 2045TIP3    H127770   1.086   3.483   1.778 -2.8815  0.3827  0.3871
 2045TIP3    H227771   0.998   3.390   1.696  0.4947 -1.9597 -0.8026
 2046TIP3   OH227772   4.644   3.188   1.101  0.5796 -0.0913  0.4223
 2046TIP3    H127773   4.635   3.267   1.155  2.6121  0.1038  0.5530
 2046TIP3    H227774   4.686   3.124   1.159 -1.7428 -1.5943  0.5721
 2047TIP3   OH227775   3.514   5.835   2.455 -0.2292  0.3202 -0.1245
 2047TIP3    H127776   3.429   5.862   2.490 -0.3484  0.1576 -0.2900
 2047TIP3    H227777   3.564   5.809   2.533 -0.2456  0.6522 -0.0042
 2048TIP3   OH227778   3.815   4.351   6.813  0.3908 -0.1972 -0.0708
 2048TIP3    H127779   3.733   4.399   6.827 -0.0178 -0.4018 -1.6237
 2048TIP3    H227780   3.843   4.376   6.725 -0.1362 -3.1812 -1.2038
 2049TIP3   OH227781   1.466   2.768   8.326 -0.4676 -0.4525  0.2555
 2049TIP3    H127782   1.457   2.694   8.387  1.1528 -0.7750  0.1420
 2049TIP3    H227783   1.508   2.730   8.249 -1.0619  0.2906 -0.4543
 2050TIP3   OH227784   4.515   2.691   7.532 -0.3279  0.4327 -0.1970
 2050TIP3    H127785   4.517   2.768   7.476 -0.6024  0.0440 -0.7469
 2050TIP3    H227786   4.607   2.671   7.550 -0.2120  0.1089 -1.1323
 2051TIP3   OH227787   3.015   4.703   1.055  0.0083 -0.8151 -0.1388
 2051TIP3    H127788   3.014   4.726   1.148 -0.0311 -0.4185 -0.2359
 2051TIP3    H227789   2.935   4.742   1.019  0.5614 -0.0315 -0.5546
 2052TIP3   OH227790   1.871   2.870   1.543  0.0938 -0.0565 -0.4182
 2052TIP3    H127791   1.947   2.925   1.563 -0.3404  0.4600 -0.1630
 2052TIP3    H227792   1.831   2.911   1.466 -0.2586  0.0191 -0.1996
 2053TIP3   OH227793   3.382   5.299   1.482 -0.0127 -0.6018  0.7354
 2053TIP3    H127794   3.372   5.371   1.544  0.5832  1.0227 -0.9874
 2053TIP3    H227795   3.469   5.310   1.445 -0.4851 -1.3105 -0.6717
 2054TIP3   OH227796   6.132   3.690   0.061  0.1139 -0.0243 -0.9787
 2054TIP3    H127797   6.153   3.713  -0.029  1.4283 -0.6468 -0.8585
 2054TIP3    H227798   6.190   3.744   0.114  0.8108 -1.1202 -0.5905
 2055TIP3   OH227799   3.913   6.661   2.287  0.5836  0.1281 -0.2598
 2055TIP3    H127800   3.893   6.634   2.377  4.5571  2.4388  1.5714
 2055TIP3    H227801   3.843   6.721   2.263  0.5305  1.1452  2.2130
 2056TIP3   OH227802   2.663   1.096   1.910  0.0760  0.1005  0.1799
 2056TIP3    H127803   2.604   1.093   1.985 -0.9684  0.5452 -0.5981
 2056TIP3    H227804   2.611   1.134   1.840  0.5551 -1.6011 -1.1784
 2057TIP3   OH227805   2.459   5.683   8.188  0.2106 -0.2274  0.3193
 2057TIP3    H127806   2.427   5.600   8.155 -0.2047 -0.2881  0.8617
 2057TIP3    H227807   2.383   5.741   8.187  0.2339 -0.1711  0.9528
 2058TIP3   OH227808   1.006   1.679   7.462  0.3913 -0.1263  0.1214
 2058TIP3    H127809   1.047   1.663   7.547  0.2800 -2.1155 -0.1517
 2058TIP3    H227810   1.079   1.701   7.404  0.5863  0.2220  0.4913
 2059TIP3   OH227811   4.857   6.221   0.959  0.2903 -0.0137  0.2145
 2059TIP3    H127812   4.778   6.168   0.950  0.8898 -1.0017  0.6695
 2059TIP3    H227813   4.869   6.260   0.872  0.5860 -1.6975 -0.5402
 2060TIP3   OH227814   6.861   2.850   2.899  0.0333  0.4141 -0.6236
 2060TIP3    H127815   6.918   2.888   2.966 -0.3499  0.7489 -0.4879
 2060TIP3    H227816   6.819   2.925   2.857 -1.9153  0.1242  0.6795
 2061TIP3   OH227817   6.317   0.464   1.502  0.0238 -0.6628 -0.2621
 2061TIP3    H127818   6.236   0.508   1.526  0.0012 -1.1489  0.6019
 2061TIP3    H227819   6.374   0.533   1.468  0.7088  0.4665  2.8337
 2062TIP3   OH227820   4.954   0.063   1.009  0.2593 -0.5121  0.5586
 2062TIP3    H127821   4.991   0.149   0.988  0.3108 -0.7851 -0.5342
 2062TIP3    H227822   4.862   0.081   1.030  0.2506 -0.1974  0.2588
 2063TIP3   OH227823   5.629   1.903   8.700 -0.3904 -0.3556 -0.1539
 2063TIP3    H127824   5.615   1.820   8.744 -0.4850 -0.6006 -0.6480
 2063TIP3    H227825   5.553   1.956   8.723 -0.8465 -0.7724 -0.6985
 2064TIP3   OH227826   1.472   2.697   6.873 -0.2152 -0.9184  0.5053
 2064TIP3    H127827   1.491   2.788   6.850 -1.6181 -0.2230  1.9103
 2064TIP3    H227828   1.539   2.647   6.828  1.1768  0.8842  0.4361
 2065TIP3   OH227829   6.639   6.417   6.675 -0.9181  0.5723 -0.3769
 2065TIP3    H127830   6.603   6.329   6.685 -0.9558  0.4772 -1.2561
 2065TIP3    H227831   6.686   6.433   6.757 -0.8695 -0.2808 -0.2279
 2066TIP3   OH227832   2.903   2.888   8.267  0.0034 -0.0438 -0.3135
 2066TIP3    H127833   2.842   2.834   8.218 -2.2622  0.6127  1.6108
 2066TIP3    H227834   2.942   2.947   8.203  1.0420 -2.5001 -2.1187
 2067TIP3   OH227835   3.578   3.529   1.620 -0.4781  0.9962 -0.0445
 2067TIP3    H127836   3.487   3.503   1.603 -0.5833  0.2633  1.4714
 2067TIP3    H227837   3.570   3.607   1.676 -0.1382  2.3580 -1.7815
 2068TIP3   OH227838   1.595   0.568   1.447  0.7019 -0.3265  0.1490
 2068TIP3    H127839   1.623   0.578   1.538  1.3402 -5.3644  0.7912
 2068TIP3    H227840   1.541   0.645   1.430  1.0923  1.2039  4.5118
 2069TIP3   OH227841   0.484   5.954   2.366  0.0063 -0.0873  0.6172
 2069TIP3    H127842   0.524   5.870   2.385  2.0353  0.4897 -0.8016
 2069TIP3    H227843   0.509   6.010   2.439 -1.6500 -0.7400  1.7495
 2070TIP3   OH227844   0.552   4.837   0.271 -0.4189  0.1605 -0.2010
 2070TIP3    H127845   0.490   4.906   0.249 -1.3002 -0.0337  1.4694
 2070TIP3    H227846   0.581   4.859   0.360  1.1043 -0.3464 -0.5471
 2071TIP3   OH227847   6.854   4.954   1.461 -0.3330  0.6003  0.0105
 2071TIP3    H127848   6.910   4.970   1.538 -1.2682  1.2490  0.5763
 2071TIP3    H227849   6.831   4.861   1.468  0.8429  0.2565 -0.3627
 2072TIP3   OH227850   1.467   2.296   7.109 -0.1459  0.4211  0.1560
 2072TIP3    H127851   1.529   2.326   7.043 -0.4540 -2.2970 -1.5034
 2072TIP3    H227852   1.507   2.322   7.192  1.9809  0.9454 -0.9494
 2073TIP3   OH227853   2.710   1.432   8.097  0.2285  0.0590 -0.1172
 2073TIP3    H127854   2.637   1.478   8.055 -0.0312  0.8661  1.1526
 2073TIP3    H227855   2.755   1.387   8.025 -0.4512  1.0195 -1.1749
 2074TIP3   OH227856   0.450   3.623   8.630  0.5517 -0.5349  0.2181
 2074TIP3    H127857   0.484   3.712   8.631 -0.4793 -0.1149 -0.0402
 2074TIP3    H227858   0.381   3.625   8.563  0.2144 -1.4001  0.5229
 2075TIP3   OH227859   2.838   1.967   1.590  0.3814 -0.5846 -0.5485
 2075TIP3    H127860   2.856   1.930   1.503 -1.3078  0.3120 -1.3313
 2075TIP3    H227861   2.858   2.060   1.582  1.1452 -0.6644  0.3254
 2076TIP3   OH227862   3.612   5.388   1.300  0.1441 -1.0451 -0.2771
 2076TIP3    H127863   3.545   5.396   1.231 -0.4806  0.1836  0.4553
 2076TIP3    H227864   3.692   5.367   1.252 -0.2504 -0.0856 -1.4031
 2077TIP3   OH227865   0.930   3.342   8.446  0.2785 -0.2371 -0.4145
 2077TIP3    H127866   1.003   3.404   8.451 -0.6603  1.1706 -2.5192
 2077TIP3    H227867   0.966   3.266   8.400  0.3762  0.5699 -1.7081
 2078TIP3   OH227868   4.546   5.316   0.551 -0.0470 -0.8289  0.5491
 2078TIP3    H127869   4.588   5.392   0.591  1.3077 -0.7375 -0.9423
 2078TIP3    H227870   4.575   5.242   0.605 -0.8786 -0.3824  1.6424
 2079TIP3   OH227871   6.318   2.696   0.452  0.0875  0.3071  0.6435
 2079TIP3    H127872   6.286   2.776   0.494  0.3199 -0.7497  3.0361
 2079TIP3    H227873   6.393   2.670   0.505  1.7685 -0.0325 -1.7858
 2080TIP3   OH227874   0.156   3.632   7.973  0.3053  0.3433 -0.0701
 2080TIP3    H127875   0.251   3.626   7.967  0.2874  0.3227 -0.3472
 2080TIP3    H227876   0.125   3.543   7.953  0.2168  0.4147 -0.2580
 2081TIP3   OH227877   5.822   5.491   1.639  0.3676  0.3122  0.4139
 2081TIP3    H127878   5.794   5.424   1.576 -0.4150 -1.4910  2.5597
 2081TIP3    H227879   5.746   5.549   1.647 -0.2156 -0.5124  1.0197
 2082TIP3   OH227880   1.519   5.106   1.563 -0.5110  0.5718  0.2116
 2082TIP3    H127881   1.568   5.024   1.563 -0.5382  0.5414  1.4739
 2082TIP3    H227882   1.499   5.121   1.470  0.1965 -0.4140 -0.1242
 2083TIP3   OH227883   1.124   3.017   6.684 -0.6867 -0.6322 -0.2399
 2083TIP3    H127884   1.124   3.019   6.780 -1.9088 -1.5885 -0.1880
 2083TIP3    H227885   1.207   3.058   6.659 -0.6957  0.3537  1.1974
 2084TIP3   OH227886   2.622   3.503   2.349 -0.6048 -0.3844 -0.1355
 2084TIP3    H127887   2.527   3.505   2.355 -0.5585 -0.8222  1.0310
 2084TIP3    H227888   2.651   3.569   2.413 -0.1270 -0.1881 -0.5516
 2085TIP3   OH227889   2.415   3.181   0.363 -0.2385  0.1544 -0.4879
 2085TIP3    H127890   2.392   3.252   0.423 -0.5374 -0.8272  0.5987
 2085TIP3    H227891   2.510   3.175   0.368 -0.2426  0.2329 -0.3023
 2086TIP3   OH227892   5.609   3.428   2.382  0.3092 -0.2082 -0.3676
 2086TIP3    H127893   5.687   3.387   2.420  0.2264  0.6416  0.8124
 2086TIP3    H227894   5.607   3.516   2.422 -0.1261  0.5280 -1.9449
 2087TIP3   OH227895   3.777   1.753   7.106 -0.4286 -0.3191  0.0088
 2087TIP3    H127896   3.780   1.837   7.059  0.5468 -0.4780 -0.2408
 2087TIP3    H227897   3.685   1.727   7.104 -0.4337 -0.2862 -1.7496
 2088TIP3   OH227898   4.709   3.713   8.483  0.1665  0.1713 -0.2677
 2088TIP3    H127899   4.643   3.759   8.535  2.4421  1.9128  1.3037
 2088TIP3    H227900   4.733   3.774   8.414  0.7249 -0.0809 -0.3030
 2089TIP3   OH227901   3.492   3.110   7.207 -0.3955 -0.0865  0.5588
 2089TIP3    H127902   3.405   3.073   7.223 -0.8078 -0.8996 -2.7480
 2089TIP3    H227903   3.546   3.034   7.188  0.0973  0.6117 -0.9797
 2090TIP3   OH227904   1.655   2.188   7.785 -0.2836 -0.0585  0.4702
 2090TIP3    H127905   1.698   2.269   7.813 -1.4280  0.2474  1.4338
 2090TIP3    H227906   1.615   2.211   7.700  0.3836  0.0204  0.1703
 2091TIP3   OH227907   0.116   6.045   8.687 -0.2235  0.0028 -0.1080
 2091TIP3    H127908   0.112   5.996   8.605  0.0011 -0.5846  0.2286
 2091TIP3    H227909   0.085   6.133   8.664  0.9280  0.1829 -1.0718
 2092TIP3   OH227910   5.149   0.914   6.952  0.5834 -0.0329  0.2545
 2092TIP3    H127911   5.221   0.858   6.923  0.5106 -0.5742  1.0899
 2092TIP3    H227912   5.177   1.003   6.929  0.4211 -0.4296 -1.6560
 2093TIP3   OH227913   5.187   4.507   1.940  0.7594  0.0365  0.2743
 2093TIP3    H127914   5.229   4.431   1.901 -1.4762 -0.1787 -1.9845
 2093TIP3    H227915   5.107   4.473   1.980 -0.4803  1.1696 -1.1178
 2094TIP3   OH227916   1.598   6.839   0.807 -0.3081  0.1554  0.2890
 2094TIP3    H127917   1.675   6.874   0.762 -0.5611  1.0972  0.5760
 2094TIP3    H227918   1.632   6.810   0.892  0.3884 -2.6227 -0.8291
 2095TIP3   OH227919   5.008   2.001   0.404  0.9788 -0.2594 -0.3491
 2095TIP3    H127920   4.969   1.918   0.376  2.2730 -0.9545 -0.1638
 2095TIP3    H227921   4.953   2.068   0.363 -0.0302 -1.1957 -0.5835
 2096TIP3   OH227922   1.021   1.868   0.779 -0.6226  0.5829 -0.8333
 2096TIP3    H127923   1.116   1.862   0.793 -0.9816  0.9391  2.6804
 2096TIP3    H227924   0.987   1.784   0.812 -1.7218  1.8440  1.4934
 2097TIP3   OH227925   6.404   4.679   6.988 -0.1963 -0.0091 -0.0355
 2097TIP3    H127926   6.372   4.612   6.927 -1.9599  0.4771  0.3075
 2097TIP3    H227927   6.499   4.666   6.989 -0.3832 -1.8095 -0.7835
 2098TIP3   OH227928   3.550   0.665   2.717  0.6853  0.1689  0.1789
 2098TIP3    H127929   3.562   0.688   2.809 -0.4954 -0.4517  0.5056
 2098TIP3    H227930   3.480   0.723   2.687 -0.2328 -0.8847  0.2028
 2099TIP3   OH227931   5.779   0.724   8.447 -0.2802  0.2124 -0.4761
 2099TIP3    H127932   5.698   0.676   8.434 -0.4210  0.6266 -1.1582
 2099TIP3    H227933   5.755   0.798   8.503 -0.2115 -0.0980 -0.0335
 2100TIP3   OH227934   5.555   3.672   7.921 -0.0823  0.6733 -0.1736
 2100TIP3    H127935   5.479   3.730   7.927 -0.1725  0.5228  0.1451
 2100TIP3    H227936   5.529   3.594   7.970 -0.1311  0.1848 -0.9496
 2101TIP3   OH227937   5.645   3.682   8.210 -0.4653  0.2911 -0.3456
 2101TIP3    H127938   5.591   3.604   8.196  0.5835 -0.6048  0.4270
 2101TIP3    H227939   5.669   3.679   8.303  0.8914  0.6626 -0.6583
 2102TIP3   OH227940   4.815   3.249   8.644 -0.3626  0.0897  0.0357
 2102TIP3    H127941   4.801   3.340   8.671 -0.1566 -0.0582  0.6653
 2102TIP3    H227942   4.752   3.199   8.697  0.0771 -0.2126  0.2794
 2103TIP3   OH227943   3.329   2.203   7.136  0.3393 -0.2555  0.0523
 2103TIP3    H127944   3.240   2.189   7.165  0.8449 -0.4593  1.5875
 2103TIP3    H227945   3.321   2.229   7.044 -1.2035 -1.4509 -0.1795
 2104TIP3   OH227946   1.831   1.489   7.171 -0.0811  0.2617  0.0284
 2104TIP3    H127947   1.757   1.433   7.147 -0.4307  1.0130 -0.7218
 2104TIP3    H227948   1.816   1.570   7.123 -0.5021  1.6729  2.3440
 2105TIP3   OH227949   5.501   2.166   0.587  0.0371 -0.3691 -0.0034
 2105TIP3    H127950   5.498   2.083   0.634  0.4898 -0.4094 -0.0442
 2105TIP3    H227951   5.428   2.216   0.623 -0.0797 -0.6876  0.2034
 2106TIP3   OH227952   4.409   3.205   7.861 -0.2624 -0.3741  0.0840
 2106TIP3    H127953   4.314   3.211   7.862 -0.1941  1.2067 -0.5124
 2106TIP3    H227954   4.428   3.121   7.820 -1.3973  0.1454 -1.6088
 2107TIP3   OH227955   4.391   2.080   8.518 -0.7053  0.5773 -0.3145
 2107TIP3    H127956   4.385   2.037   8.433  2.5448 -0.6213 -0.0963
 2107TIP3    H227957   4.448   2.156   8.503 -1.2055  1.1326  0.5208
 2108TIP3   OH227958   0.228   5.493   2.711  0.1675  0.4447 -0.2304
 2108TIP3    H127959   0.158   5.518   2.651  0.8800  1.5281 -0.6519
 2108TIP3    H227960   0.290   5.566   2.706  2.2884 -1.3029 -1.3593
 2109TIP3   OH227961   6.251   2.451   7.372 -0.8399 -0.1075 -0.0848
 2109TIP3    H127962   6.157   2.434   7.371 -0.8336 -0.3186  1.0574
 2109TIP3    H227963   6.276   2.441   7.464  0.4480 -0.8688 -0.4907
 2110TIP3   OH227964   0.909   1.896   0.001 -0.0546  0.3656 -0.0710
 2110TIP3    H127965   1.000   1.898   0.031 -0.4168 -0.3469  1.1280
 2110TIP3    H227966   0.879   1.808   0.021 -1.1991  0.7843  0.1134
 2111TIP3   OH227967   2.335   3.738   0.506 -0.5398  0.1937 -0.3034
 2111TIP3    H127968   2.388   3.809   0.471 -0.9024  0.3946 -0.4363
 2111TIP3    H227969   2.254   3.779   0.535 -0.9440 -0.2345 -0.8131
 2112TIP3   OH227970   0.678   3.782   8.462 -0.3508  0.1551 -0.3381
 2112TIP3    H127971   0.730   3.719   8.511 -0.7906  0.9909  1.2624
 2112TIP3    H227972   0.716   3.867   8.484 -2.8706  0.8943  1.6592
 2113TIP3   OH227973   6.053   1.487   0.261  0.1653 -0.2183 -0.3462
 2113TIP3    H127974   6.114   1.436   0.209  1.7486 -0.8599  1.9476
 2113TIP3    H227975   5.980   1.428   0.278  1.1406 -1.1718  0.7641
 2114TIP3   OH227976   0.013   5.064   8.653  0.5573  0.3241  0.4620
 2114TIP3    H127977   0.034   5.113   8.574 -2.2426  1.5207  0.3327
 2114TIP3    H227978   0.039   5.122   8.725  1.4805 -0.0126  0.4100
 2115TIP3   OH227979   5.320   1.314   3.191 -0.1961  0.4944  0.2269
 2115TIP3    H127980   5.291   1.405   3.186 -2.3669 -0.1092  0.7799
 2115TIP3    H227981   5.293   1.276   3.107  0.6233  0.3103  0.0342
 2116TIP3   OH227982   5.164   6.379   1.292  0.0444  0.3202 -0.3481
 2116TIP3    H127983   5.118   6.357   1.373 -0.4331 -2.1010 -1.1784
 2116TIP3    H227984   5.218   6.454   1.314 -1.5087  0.9225  1.6865
 2117TIP3   OH227985   1.885   2.915   7.436 -0.1719  0.0935 -0.4429
 2117TIP3    H127986   1.892   2.848   7.503 -0.8359 -1.0569 -1.4996
 2117TIP3    H227987   1.950   2.891   7.370  0.0792  0.8938 -0.5061
 2118TIP3   OH227988   5.702   6.471   7.426 -0.3195 -0.1345 -0.0685
 2118TIP3    H127989   5.780   6.431   7.386  0.4153  1.2219 -0.0654
 2118TIP3    H227990   5.721   6.470   7.520 -0.4358 -0.0607 -0.0451
 2119TIP3   OH227991   0.943   2.234   2.317  0.0677 -0.0080  0.0942
 2119TIP3    H127992   0.918   2.146   2.342  0.5131 -0.8294 -2.1127
 2119TIP3    H227993   1.020   2.254   2.371 -0.5940 -0.5739  1.2735
 2120TIP3   OH227994   2.141   5.891   1.421 -0.1537  0.1964  1.0436
 2120TIP3    H127995   2.189   5.865   1.342  0.5649  1.9028  0.8725
 2120TIP3    H227996   2.112   5.809   1.460  3.9100 -1.0819  1.8156
 2121TIP3   OH227997   2.384   3.064   1.935 -0.2740 -0.8755  0.2433
 2121TIP3    H127998   2.338   3.065   1.851  0.8177  0.6790 -0.3742
 2121TIP3    H227999   2.366   2.977   1.971 -1.8824 -1.0849 -0.9570
 2122TIP3   OH228000   6.745   2.889   1.024  0.1021  0.1455 -0.6343
 2122TIP3    H128001   6.819   2.949   1.022  1.2393 -1.1658  0.2326
 2122TIP3    H228002   6.700   2.908   1.106  1.8987 -1.7521  0.8944
 2123TIP3   OH228003   1.736   5.517   8.678 -0.0943  0.6764  0.2601
 2123TIP3    H128004   1.726   5.432   8.635  1.7978  1.3328 -1.6746
 2123TIP3    H228005   1.690   5.508   8.761 -3.3825 -0.9100 -1.5618
 2124TIP3   OH228006   6.083   0.601   1.599 -0.4538  0.3016  0.3493
 2124TIP3    H128007   6.058   0.631   1.687  0.4664  1.0622  0.3658
 2124TIP3    H228008   6.048   0.669   1.541  0.3059  0.6233  0.2617
 2125TIP3   OH228009   3.088   1.025   6.994  0.0443  0.0688 -0.3325
 2125TIP3    H128010   3.064   0.948   7.047 -0.1630  0.3272 -0.0494
 2125TIP3    H228011   3.029   1.094   7.023  1.7160  1.0109  1.0755
 2126TIP3   OH228012   2.559   4.990   1.893  0.0692 -0.2227  0.0409
 2126TIP3    H128013   2.582   5.024   1.980 -0.7406 -2.0767  1.0258
 2126TIP3    H228014   2.626   4.925   1.874  0.5244  0.5125 -0.9886
 2127TIP3   OH228015   4.159   5.780   0.697 -0.3850  0.1357  0.0919
 2127TIP3    H128016   4.120   5.786   0.784  1.9043 -0.1371  1.2126
 2127TIP3    H228017   4.200   5.865   0.683  1.9054 -0.8174  0.6763
 2128TIP3   OH228018   2.319   2.224   7.001 -0.0277 -0.4650  0.3477
 2128TIP3    H128019   2.275   2.139   7.008  0.7602 -0.7695  2.0083
 2128TIP3    H228020   2.261   2.285   7.046  0.3697 -0.5191  0.9392
 2129TIP3   OH228021   3.892   0.187   7.678 -0.4400  0.2247 -0.5676
 2129TIP3    H128022   3.909   0.093   7.685 -1.1358 -0.0344 -1.9998
 2129TIP3    H228023   3.892   0.218   7.768  3.0543 -0.5202 -0.1749
 2130TIP3   OH228024   0.346   3.343   2.926 -0.8623  0.0106  0.0507
 2130TIP3    H128025   0.321   3.382   2.842 -0.8652 -1.1283 -0.5013
 2130TIP3    H228026   0.439   3.322   2.916 -0.2437  1.9738  1.1989
 2131TIP3   OH228027   5.805   2.439   0.799 -0.2492 -0.2019 -0.1754
 2131TIP3    H128028   5.804   2.494   0.877 -0.0461 -0.9054  0.3442
 2131TIP3    H228029   5.809   2.500   0.726  1.9251  0.4874  0.4234
 2132TIP3   OH228030   1.846   4.627   0.822  0.3263 -0.2659 -0.2405
 2132TIP3    H128031   1.818   4.557   0.762 -0.5953  0.9398 -1.2704
 2132TIP3    H228032   1.859   4.583   0.906 -0.8854 -1.5724 -0.6915
 2133TIP3   OH228033   3.785   5.432   0.603 -0.3973  0.0920  0.2145
 2133TIP3    H128034   3.765   5.443   0.510 -1.3424  0.5413  0.4607
 2133TIP3    H228035   3.726   5.363   0.632  0.2020 -0.3540  0.3929
 2134TIP3   OH228036   3.792   2.976   1.036 -0.7087  0.1156 -0.0136
 2134TIP3    H128037   3.881   2.943   1.045 -0.8837 -0.3197  0.1272
 2134TIP3    H228038   3.799   3.070   1.054 -0.4135 -0.0581  0.7964
 2135TIP3   OH228039   0.942   6.026   0.477 -0.3714  0.0640 -0.4198
 2135TIP3    H128040   0.894   5.968   0.538 -0.6135  0.9608  0.2657
 2135TIP3    H228041   1.031   5.992   0.477 -0.3825  0.0121  0.4097
 2136TIP3   OH228042   2.481   0.298   1.680  0.7193 -0.7550  0.1004
 2136TIP3    H128043   2.397   0.343   1.675  0.9105 -0.5038 -0.9596
 2136TIP3    H228044   2.511   0.313   1.770  0.5798  0.8754 -0.0940
 2137TIP3   OH228045   3.498   5.590   7.731 -0.1655 -0.0862  0.3285
 2137TIP3    H128046   3.471   5.651   7.800 -0.3523  1.0357 -0.6988
 2137TIP3    H228047   3.416   5.549   7.702 -0.2072  0.1318  0.1388
 2138TIP3   OH228048   4.333   3.742   1.646 -0.0122  0.6554 -0.5483
 2138TIP3    H128049   4.303   3.704   1.729  1.2400 -0.0343 -0.3869
 2138TIP3    H228050   4.371   3.826   1.671  1.0508  0.1193 -0.2823
 2139TIP3   OH228051   5.073   1.047   1.933  0.1269  0.4866  0.0818
 2139TIP3    H128052   4.994   0.997   1.953  1.1439 -0.7780  1.1100
 2139TIP3    H228053   5.079   1.111   2.003  0.6682 -0.2486  0.7244
 2140TIP3   OH228054   3.258   5.072   1.557  0.2903  0.7798  0.0607
 2140TIP3    H128055   3.326   5.006   1.569 -1.3743 -0.5818  3.0952
 2140TIP3    H228056   3.304   5.149   1.522  3.1279 -0.4490  0.8897
 2141TIP3   OH228057   4.101   3.584   7.682 -0.2623  0.2995 -0.6220
 2141TIP3    H128058   4.174   3.559   7.626 -0.3110  1.4796 -1.2305
 2141TIP3    H228059   4.132   3.662   7.728 -0.4305 -0.3279  0.5986
 2142TIP3   OH228060   2.344   4.954   7.592  0.0349  0.2673  0.6237
 2142TIP3    H128061   2.258   4.978   7.557  0.5906  0.5861 -0.5792
 2142TIP3    H228062   2.346   4.994   7.679 -1.5298 -0.8448  1.2261
 2143TIP3   OH228063   5.315   4.905   1.161 -0.2042 -0.2765  0.2972
 2143TIP3    H128064   5.229   4.887   1.201 -0.5701  1.9771  0.6548
 2143TIP3    H228065   5.295   4.923   1.070 -0.3391  1.6261  0.6716
 2144TIP3   OH228066   6.191   0.353   1.189 -0.6051  0.6223 -0.5554
 2144TIP3    H128067   6.204   0.287   1.257  0.5927  0.8763 -0.5055
 2144TIP3    H228068   6.279   0.373   1.158 -0.9597  1.9782 -0.7721
 2145TIP3   OH228069   2.320   4.762   2.506  0.2473 -0.3293  0.5240
 2145TIP3    H128070   2.235   4.805   2.514  0.9842  1.1276  0.9798
 2145TIP3    H228071   2.380   4.832   2.480  1.3376 -1.2870  0.3759
 2146TIP3   OH228072   0.415   4.951   7.967  0.0201 -0.8876  0.8448
 2146TIP3    H128073   0.392   5.041   7.943 -0.0541 -0.9092  0.8332
 2146TIP3    H228074   0.349   4.926   8.033 -0.3228 -1.1408  0.4110
 2147TIP3   OH228075   0.663   6.706   0.658 -0.6673  0.3043  0.2292
 2147TIP3    H128076   0.682   6.681   0.567 -2.8079  0.0091 -0.1944
 2147TIP3    H228077   0.678   6.800   0.661  1.9977 -0.0220  0.3440
 2148TIP3   OH228078   5.527   2.555   1.525 -0.3201 -0.0684  0.1645
 2148TIP3    H128079   5.545   2.519   1.611  1.5941  0.7700  0.1640
 2148TIP3    H228080   5.453   2.614   1.538  0.2772  0.4334  1.3344
 2149TIP3   OH228081   2.294   4.503   7.884  0.2508  0.5806  0.1295
 2149TIP3    H128082   2.303   4.582   7.831  0.5070 -1.0580 -2.4736
 2149TIP3    H228083   2.384   4.474   7.898  0.1173 -0.0432 -0.2643
 2150TIP3   OH228084   1.523   0.298   6.591  0.0743 -0.2261  0.1247
 2150TIP3    H128085   1.519   0.394   6.591  1.4143 -0.0695  2.6000
 2150TIP3    H228086   1.610   0.278   6.555  0.0839 -0.4593  0.2752
 2151TIP3   OH228087   6.224   3.636   8.038 -0.7858 -0.1276  0.4223
 2151TIP3    H128088   6.298   3.591   7.996 -0.2299 -0.2058  1.4539
 2151TIP3    H228089   6.148   3.610   7.986 -0.2114 -0.7489 -0.1345
 2152TIP3   OH228090   6.503   6.172   6.715 -0.2201 -0.1501  0.0839
 2152TIP3    H128091   6.456   6.117   6.653 -0.2459  1.4469 -1.3903
 2152TIP3    H228092   6.443   6.243   6.735  0.0460 -0.2743  1.4588
 2153TIP3   OH228093   4.033   6.092   7.317  0.2561  0.0589 -0.0471
 2153TIP3    H128094   4.039   6.182   7.286 -1.2014  0.3499  0.4413
 2153TIP3    H228095   4.017   6.041   7.238 -0.3421  0.4084 -0.1565
 2154TIP3   OH228096   4.882   4.465   8.650  0.0844  0.3531  0.3769
 2154TIP3    H128097   4.868   4.516   8.570 -1.4088 -1.5466 -0.6584
 2154TIP3    H228098   4.836   4.513   8.718 -0.1516  1.0807 -0.2758
 2155TIP3   OH228099   0.030   2.751   2.272  0.3052  0.3694  0.0850
 2155TIP3    H128100   0.094   2.803   2.223 -0.3820 -1.2067 -2.7069
 2155TIP3    H228101   0.004   2.682   2.211 -2.1744 -0.5513  2.0318
 2156TIP3   OH228102   1.491   5.182   1.316 -0.1160 -0.6345 -0.1588
 2156TIP3    H128103   1.454   5.109   1.266  0.3752 -0.0330 -1.4461
 2156TIP3    H228104   1.578   5.196   1.278 -0.3186  0.8067 -0.1587
 2157TIP3   OH228105   4.774   2.086   7.169  0.1479 -0.1618 -0.2539
 2157TIP3    H128106   4.843   2.088   7.102 -1.0762 -1.0238 -1.5901
 2157TIP3    H228107   4.810   2.028   7.237  1.2807  0.4719 -0.2803
 2158TIP3   OH228108   3.751   4.910   0.606  0.6569  0.0750  0.1523
 2158TIP3    H128109   3.680   4.974   0.619  0.8891  0.4165 -0.2261
 2158TIP3    H228110   3.737   4.844   0.673  0.2013  0.3436  0.3226
 2159TIP3   OH228111   6.129   2.911   1.756  0.0234 -0.6521  0.0533
 2159TIP3    H128112   6.195   2.941   1.693  0.3773 -0.9527  0.2708
 2159TIP3    H228113   6.061   2.871   1.703  0.9693 -2.1636 -0.1025
 2160TIP3   OH228114   4.453   5.335   1.850 -0.2051  0.2073  0.6656
 2160TIP3    H128115   4.418   5.250   1.823  1.0425  0.4936 -2.2183
 2160TIP3    H228116   4.521   5.314   1.914  0.4372 -1.0698 -0.3875
 2161TIP3   OH228117   1.886   5.016   1.418 -0.2032 -0.1789 -0.6340
 2161TIP3    H128118   1.943   5.044   1.490  2.2625 -2.3294 -1.5987
 2161TIP3    H228119   1.823   4.956   1.459  0.4814 -0.5201 -0.0550
 2162TIP3   OH228120   1.747   0.049   8.247 -0.5325  0.3594 -0.2726
 2162TIP3    H128121   1.658   0.013   8.254  0.0707 -1.1892 -0.0959
 2162TIP3    H228122   1.744   0.130   8.297 -1.0549 -1.2391  2.5078
 2163TIP3   OH228123   2.574   5.889   0.394 -0.1132  0.1326 -0.2660
 2163TIP3    H128124   2.535   5.810   0.432 -2.3075  1.7051  0.9935
 2163TIP3    H228125   2.526   5.901   0.312  1.4054 -0.7293 -1.3108
 2164TIP3   OH228126   2.784   1.054   0.368 -0.0237  0.2690 -0.5066
 2164TIP3    H128127   2.865   1.029   0.324  1.2452  0.4714  1.6298
 2164TIP3    H228128   2.806   1.131   0.419 -0.9375 -0.9265  1.8416
 2165TIP3   OH228129   3.160   0.587   1.166 -0.0061 -0.4813  0.4888
 2165TIP3    H128130   3.133   0.555   1.080  1.0413  1.7597 -0.7572
 2165TIP3    H228131   3.136   0.680   1.165  1.4401 -0.0562  2.0137
 2166TIP3   OH228132   5.783   4.883   0.130 -0.0493  0.0143 -0.3475
 2166TIP3    H128133   5.831   4.965   0.118  0.1134  0.0492  0.5025
 2166TIP3    H228134   5.826   4.840   0.203 -0.0781 -0.8857 -0.8518
 2167TIP3   OH228135   6.395   4.974   1.560 -0.5763  0.1866 -0.5753
 2167TIP3    H128136   6.469   5.031   1.541  0.2597 -1.4255 -2.5142
 2167TIP3    H228137   6.419   4.929   1.641  0.6197 -0.3552 -1.2144
 2168TIP3   OH228138   2.043   5.205   8.288 -0.3388  0.3734 -0.7215
 2168TIP3    H128139   2.043   5.290   8.331  0.6258  0.2099 -0.3846
 2168TIP3    H228140   2.048   5.142   8.359  0.5182  0.0847 -1.0292
 2169TIP3   OH228141   6.565   6.034   1.589 -0.2141 -0.4060 -0.6195
 2169TIP3    H128142   6.557   5.955   1.642  0.8340  0.2172  0.5243
 2169TIP3    H228143   6.523   6.103   1.641  0.1555  0.0633 -0.9322
 2170TIP3   OH228144   0.917   1.371   0.509 -0.0378 -0.0824  0.4306
 2170TIP3    H128145   0.881   1.460   0.504  0.2259  0.1007  1.4867
 2170TIP3    H228146   1.011   1.384   0.520  0.2774 -0.5450 -1.4023
 2171TIP3   OH228147   4.371   4.188   7.698  0.1907  0.1322 -0.1633
 2171TIP3    H128148   4.349   4.129   7.626  3.0534 -0.7038 -0.4660
 2171TIP3    H228149   4.354   4.137   7.777  0.3793 -0.2217 -0.3495
 2172TIP3   OH228150   1.940   2.269   7.810  0.0505 -0.5200  0.2990
 2172TIP3    H128151   1.999   2.327   7.762  0.4050 -2.0380 -1.1703
 2172TIP3    H228152   1.935   2.190   7.757 -0.4561 -1.8473  2.2284
 2173TIP3   OH228153   0.234   5.887   0.342  0.7796 -0.0135  0.1319
 2173TIP3    H128154   0.149   5.898   0.385  1.2878 -0.7476  1.3608
 2173TIP3    H228155   0.288   5.957   0.379  0.6040  0.7641 -1.0151
 2174TIP3   OH228156   5.601   2.142   2.350 -0.5428  0.0660  0.1221
 2174TIP3    H128157   5.653   2.210   2.394 -0.6866  0.7659 -0.7460
 2174TIP3    H228158   5.522   2.134   2.403 -0.3027  0.2313  0.5081
 2175TIP3   OH228159   4.363   6.554   7.486 -0.0870 -0.6385  0.0339
 2175TIP3    H128160   4.340   6.463   7.471  0.2832 -0.6469 -0.4809
 2175TIP3    H228161   4.352   6.597   7.401  0.2748 -0.3191  0.1420
 2176TIP3   OH228162   4.406   6.216   7.977 -0.3840 -0.4501 -0.2369
 2176TIP3    H128163   4.322   6.236   7.936 -0.2777  0.3233 -0.0915
 2176TIP3    H228164   4.447   6.154   7.918 -0.2542  0.6063 -1.2856
 2177TIP3   OH228165   1.068   4.684   0.876  0.2694 -0.1073  0.1546
 2177TIP3    H128166   1.073   4.729   0.791 -0.2335 -0.0972  0.1283
 2177TIP3    H228167   0.992   4.627   0.868  0.6016 -0.5892  0.3724
 2178TIP3   OH228168   5.912   2.165   0.701 -0.3243  0.2195 -0.4245
 2178TIP3    H128169   5.900   2.229   0.771 -0.5857 -1.2082  0.8739
 2178TIP3    H228170   5.826   2.124   0.690  0.0332 -0.4892 -0.6585
 2179TIP3   OH228171   5.484   3.958   8.095 -0.3602  0.5335  0.1692
 2179TIP3    H128172   5.450   4.002   8.017  1.9577  1.1959 -0.5703
 2179TIP3    H228173   5.427   3.987   8.166 -0.0840  3.3336 -0.6117
 2180TIP3   OH228174   1.212   6.208   7.709 -0.0831 -0.3214  0.2784
 2180TIP3    H128175   1.273   6.200   7.636  1.0042 -2.7218  1.3379
 2180TIP3    H228176   1.211   6.301   7.729  1.5292  0.0712 -1.2084
 2181TIP3   OH228177   3.653   4.034   0.181  0.0232 -0.4770 -0.9167
 2181TIP3    H128178   3.674   3.973   0.252  1.4534  2.5268  1.4568
 2181TIP3    H228179   3.563   4.061   0.199  0.4329  0.3921 -0.0932
 2182TIP3   OH228180   1.790   1.680   8.018  0.1078 -0.1325  0.2387
 2182TIP3    H128181   1.694   1.675   8.028 -0.2251  2.2266 -1.0256
 2182TIP3    H228182   1.804   1.686   7.923  1.5937 -1.1742  0.3591
 2183TIP3   OH228183   2.892   6.561   7.361 -0.0795  0.3432 -0.1823
 2183TIP3    H128184   2.907   6.481   7.412 -1.1461 -0.3437 -0.8909
 2183TIP3    H228185   2.977   6.579   7.320  0.8403  0.9986  1.8854
 2184TIP3   OH228186   2.703   4.823   8.209  0.4874 -0.2118 -0.1072
 2184TIP3    H128187   2.797   4.817   8.192  0.9481  1.6801  1.4263
 2184TIP3    H228188   2.690   4.780   8.293  0.3196  1.1149  0.5721
 2185TIP3   OH228189   1.144   6.531   1.148  0.0554 -0.3800 -0.0566
 2185TIP3    H128190   1.193   6.604   1.186  0.4654  0.1422 -1.5171
 2185TIP3    H228191   1.129   6.472   1.221 -0.8543  1.4613  1.3200
 2186TIP3   OH228192   6.385   5.745   1.220 -0.8075  0.3396 -0.4097
 2186TIP3    H128193   6.412   5.686   1.290 -0.3508 -1.4845 -2.0386
 2186TIP3    H228194   6.447   5.818   1.226  1.2859 -1.3069 -0.8363
 2187TIP3   OH228195   6.707   3.761   8.563  0.1227  0.4959 -0.0803
 2187TIP3    H128196   6.657   3.780   8.483  0.4661 -1.0002 -0.7013
 2187TIP3    H228197   6.795   3.795   8.546 -0.1272  1.2891  0.1782
 2188TIP3   OH228198   6.599   3.248   2.394 -0.3346  0.4069  0.0315
 2188TIP3    H128199   6.529   3.310   2.376 -0.3517  0.4304  0.1780
 2188TIP3    H228200   6.571   3.203   2.473  0.8793  2.0377  1.4775
 2189TIP3   OH228201   6.017   3.000   0.085  0.2558  0.7465  0.7760
 2189TIP3    H128202   6.099   2.965   0.050 -0.8358 -0.2730 -0.8737
 2189TIP3    H228203   6.000   2.947   0.163  0.4950  0.0719  0.3754
 2190TIP3   OH228204   2.098   2.662   8.682  0.7941  0.0145 -0.3622
 2190TIP3    H128205   2.032   2.640   8.747 -2.3489 -0.8478 -3.5403
 2190TIP3    H228206   2.150   2.582   8.674 -0.7432 -0.9731 -0.9743
 2191TIP3   OH228207   2.087   6.679   0.750  0.1788  0.6547 -0.5972
 2191TIP3    H128208   2.152   6.656   0.815 -0.7450  0.7392  0.3785
 2191TIP3    H228209   2.088   6.607   0.688 -0.7798 -0.7440  0.9492
 2192TIP3   OH228210   0.189   2.571   2.795 -0.3632  0.1944 -0.1616
 2192TIP3    H128211   0.198   2.501   2.860 -0.3789  0.2331 -0.1187
 2192TIP3    H228212   0.277   2.609   2.789  0.3492 -1.5522 -2.1057
 2193TIP3   OH228213   3.977   2.222   2.542 -0.0950  0.0732  0.2301
 2193TIP3    H128214   3.906   2.181   2.591 -1.6880 -0.2968 -2.1842
 2193TIP3    H228215   4.013   2.151   2.489  1.8288  0.3653  1.0877
 2194TIP3   OH228216   4.780   2.816   0.828 -0.0116 -0.4869  0.1480
 2194TIP3    H128217   4.870   2.844   0.845  0.6372 -2.4488  0.2113
 2194TIP3    H228218   4.744   2.795   0.914 -0.2530 -0.4843  0.0487
 2195TIP3   OH228219   2.993   0.333   8.155 -0.1506  0.0849 -0.1000
 2195TIP3    H128220   3.047   0.267   8.111 -1.4227 -2.6508  2.1615
 2195TIP3    H228221   3.050   0.368   8.224 -0.4706 -1.1163  0.8035
 2196TIP3   OH228222   5.693   4.548   0.158  0.1721 -0.2342 -0.0388
 2196TIP3    H128223   5.618   4.489   0.157  0.6611 -0.9782 -2.7429
 2196TIP3    H228224   5.688   4.593   0.242 -1.6608 -2.2998  1.0554
 2197TIP3   OH228225   6.500   5.759   0.215 -0.0864 -0.1623 -0.1092
 2197TIP3    H128226   6.437   5.726   0.151  0.7403 -0.4337 -0.8052
 2197TIP3    H228227   6.583   5.760   0.169  0.7278 -1.2852  1.2377
 2198TIP3   OH228228   2.307   1.804   0.193 -0.7291 -0.6185  0.1996
 2198TIP3    H128229   2.367   1.775   0.262 -1.4210  0.2691  1.2130
 2198TIP3    H228230   2.239   1.736   0.192 -1.2227 -0.1563  1.0803
 2199TIP3   OH228231   2.663   5.853   1.166  0.0540 -1.0453  0.2725
 2199TIP3    H128232   2.588   5.882   1.218 -1.6240  1.3585 -3.0559
 2199TIP3    H228233   2.632   5.774   1.121 -1.0097  0.4629 -1.8185
 2200TIP3   OH228234   5.584   6.639   7.696  0.0516  0.0668  0.7634
 2200TIP3    H128235   5.560   6.678   7.780 -0.5838 -0.7450  0.9775
 2200TIP3    H228236   5.540   6.693   7.631 -0.7711 -0.2321  1.0512
 2201TIP3   OH228237   5.402   5.541   0.937 -0.0571 -0.3810  0.2219
 2201TIP3    H128238   5.389   5.459   0.984 -1.2353  0.4250  1.3677
 2201TIP3    H228239   5.451   5.596   0.998 -0.4482  0.2244 -0.0014
 2202TIP3   OH228240   2.335   3.908   2.627  0.4027  0.2403  0.5784
 2202TIP3    H128241   2.260   3.965   2.646  1.3124  1.8317 -0.3966
 2202TIP3    H228242   2.395   3.964   2.578  1.9738 -1.1795  0.8215
 2203TIP3   OH228243   2.648   5.319   0.755  0.5585 -0.3708 -0.5223
 2203TIP3    H128244   2.692   5.237   0.777  0.4850 -0.7160 -1.6124
 2203TIP3    H228245   2.702   5.359   0.687  1.2242  1.0751  0.7856
 2204TIP3   OH228246   2.909   5.223   6.953 -0.4762 -0.5031 -0.4034
 2204TIP3    H128247   2.962   5.245   7.030 -0.0739 -0.2872 -0.7369
 2204TIP3    H228248   2.972   5.187   6.890 -0.7144 -0.2211 -0.8134
 2205TIP3   OH228249   2.777   3.770   1.911  0.0523 -0.0495 -0.0710
 2205TIP3    H128250   2.844   3.793   1.976  0.7164 -0.4131 -0.6133
 2205TIP3    H228251   2.826   3.761   1.829 -1.1462  3.6659 -1.4051
 2206TIP3   OH228252   3.755   6.849   1.908 -0.2084  0.2589  0.1375
 2206TIP3    H128253   3.763   6.805   1.993  2.5031  0.5884  0.1511
 2206TIP3    H228254   3.748   6.942   1.930  1.2338  0.4152  0.0510
 2207TIP3   OH228255   3.276   0.384   7.992 -0.3425  0.0991 -0.1719
 2207TIP3    H128256   3.255   0.303   8.038 -0.7302  0.1888 -0.1863
 2207TIP3    H228257   3.216   0.385   7.917  0.5773 -0.2620 -0.9352
 2208TIP3   OH228258   0.871   0.535   2.771 -0.0317  0.2598  0.4322
 2208TIP3    H128259   0.859   0.615   2.822 -1.2308 -0.5803  1.5301
 2208TIP3    H228260   0.889   0.566   2.682  1.3915  1.7428  1.1913
 2209TIP3   OH228261   0.580   3.419   0.016  0.0908 -0.6094  0.7814
 2209TIP3    H128262   0.524   3.345  -0.010 -0.9627  0.0672  1.0769
 2209TIP3    H228263   0.537   3.496  -0.021  1.8442 -0.2172 -0.6049
 2210TIP3   OH228264   1.154   1.973   0.482 -0.2340 -0.2955  0.5559
 2210TIP3    H128265   1.177   1.978   0.575 -0.8894 -0.9107  0.7584
 2210TIP3    H228266   1.150   2.065   0.454  2.0394 -0.1142  0.5896
 2211TIP3   OH228267   4.082   0.348   7.505  0.0564 -0.4241  0.1626
 2211TIP3    H128268   4.061   0.285   7.435 -2.4221  0.1929  0.2652
 2211TIP3    H228269   4.005   0.347   7.562  0.8466  1.1766  1.3304
 2212TIP3   OH228270   0.131   0.527   2.401  0.9040  0.1241  0.0758
 2212TIP3    H128271   0.221   0.528   2.434  0.4496  0.4372  1.3712
 2212TIP3    H228272   0.113   0.619   2.381  1.4167 -0.1498 -1.8067
 2213TIP3   OH228273   5.100   4.539   1.638  0.0512 -0.6687 -0.9749
 2213TIP3    H128274   5.142   4.535   1.724 -1.0040  0.7695 -0.3348
 2213TIP3    H228275   5.150   4.480   1.583  1.9084 -0.2148  0.1515
 2214TIP3   OH228276   1.039   1.522   8.677  0.7796  0.1187  0.1862
 2214TIP3    H128277   1.055   1.599   8.730  0.4973 -0.1629  0.6848
 2214TIP3    H228278   1.114   1.465   8.695  1.7737  0.8797 -1.3276
 2215TIP3   OH228279   6.334   0.856   8.205 -0.2026 -0.3228  0.2814
 2215TIP3    H128280   6.249   0.898   8.220  0.4490  1.2833 -0.3918
 2215TIP3    H228281   6.319   0.796   8.132 -0.7640 -0.0825  0.1984
 2216TIP3   OH228282   6.132   5.346   0.958 -0.3177 -0.5243 -0.1626
 2216TIP3    H128283   6.124   5.263   0.911 -0.7509 -0.8759  0.5289
 2216TIP3    H228284   6.197   5.329   1.026 -1.4001 -0.7101  0.8522
 2217TIP3   OH228285   3.201   2.335   8.150  0.0182  0.1336  0.0617
 2217TIP3    H128286   3.238   2.339   8.062  1.5180 -0.2213  0.6533
 2217TIP3    H228287   3.212   2.244   8.177 -1.0272  0.0895  0.3845
 2218TIP3   OH228288   0.883   4.154   2.026  0.2005  0.3905 -0.4657
 2218TIP3    H128289   0.788   4.152   2.013  0.0253  1.5276  0.4662
 2218TIP3    H228290   0.898   4.231   2.081  1.6969  0.3861 -0.8242
 2219TIP3   OH228291   1.520   4.213   0.934 -0.1895 -0.2764 -0.0721
 2219TIP3    H128292   1.512   4.192   1.027  1.4241 -0.2919  0.0944
 2219TIP3    H228293   1.602   4.171   0.907  0.6178  1.7149 -0.9168
 2220TIP3   OH228294   3.374   5.171   8.274 -0.7554 -0.0371  0.0582
 2220TIP3    H128295   3.307   5.239   8.280 -0.9762 -0.3868  1.9306
 2220TIP3    H228296   3.328   5.090   8.294 -0.5363 -0.8540 -2.3434
 2221TIP3   OH228297   3.368   1.649   1.781  0.4316  0.1428  0.2903
 2221TIP3    H128298   3.383   1.728   1.729 -3.8252  0.2869 -1.0885
 2221TIP3    H228299   3.358   1.579   1.716 -0.7792 -0.5179  1.1529
 2222TIP3   OH228300   2.124   5.056   1.600  0.0254  0.2192 -0.1281
 2222TIP3    H128301   2.198   4.997   1.586 -0.1129  0.3411 -1.5835
 2222TIP3    H228302   2.164   5.140   1.622  0.2050 -0.6095  3.1481
 2223TIP3   OH228303   3.598   5.835   7.821 -0.1518 -0.2610  0.4888
 2223TIP3    H128304   3.599   5.792   7.736 -4.0167 -0.0590  0.1499
 2223TIP3    H228305   3.634   5.922   7.805 -4.2958  1.2477 -2.1007
 2224TIP3   OH228306   4.868   1.170   1.179 -0.5353 -0.3802 -0.1456
 2224TIP3    H128307   4.951   1.216   1.182 -1.6658  1.7168  2.0488
 2224TIP3    H228308   4.821   1.210   1.106 -0.3754 -0.1792 -0.1398
 2225TIP3   OH228309   5.917   5.329   7.573  0.3033  0.5172  0.1191
 2225TIP3    H128310   5.944   5.238   7.560 -0.3195  0.4832 -1.2076
 2225TIP3    H228311   5.994   5.373   7.608  1.1924 -0.1456 -0.9401
 2226TIP3   OH228312   0.897   1.841   7.790  0.5029 -0.5036 -0.5223
 2226TIP3    H128313   0.971   1.822   7.732 -0.3282  2.1658 -2.6953
 2226TIP3    H228314   0.866   1.927   7.761 -1.0986  0.1993  2.8402
 2227TIP3   OH228315   2.630   4.059   7.621 -0.3320 -0.0701  0.0648
 2227TIP3    H128316   2.631   4.041   7.527 -0.6970  1.0871 -0.1775
 2227TIP3    H228317   2.723   4.057   7.647 -0.1006  1.0653 -0.6229
 2228TIP3   OH228318   4.138   1.995   8.650  0.6691  0.2797 -0.1345
 2228TIP3    H128319   4.189   1.933   8.703  1.3155 -1.2259 -2.3287
 2228TIP3    H228320   4.201   2.028   8.586 -0.2024  1.5454 -0.3626
 2229TIP3   OH228321   5.242   5.797   1.722 -0.1345 -0.4631 -0.0160
 2229TIP3    H128322   5.256   5.713   1.765 -0.1856 -0.5761 -0.2170
 2229TIP3    H228323   5.182   5.777   1.650 -0.5766 -0.1522  0.2667
 2230TIP3   OH228324   5.958   4.626   2.681  0.0363  0.6907 -0.1361
 2230TIP3    H128325   6.007   4.544   2.682 -0.1182  0.5989 -0.0512
 2230TIP3    H228326   6.017   4.690   2.721 -0.2779  0.3693  0.8673
 2231TIP3   OH228327   4.979   0.846   6.540  0.2990 -0.5040  0.0133
 2231TIP3    H128328   4.954   0.828   6.631 -0.8943 -0.3174 -0.2578
 2231TIP3    H228329   5.021   0.766   6.510  0.4118 -0.6824  0.6358
 2232TIP3   OH228330   5.631   5.687   1.716  0.2498  0.0295  0.1883
 2232TIP3    H128331   5.593   5.770   1.688 -0.0122  0.0866  0.7021
 2232TIP3    H228332   5.577   5.621   1.673  0.1955  0.1245  0.1097
 2233TIP3   OH228333   5.919   2.822   7.931 -0.6758 -0.3188  0.6068
 2233TIP3    H128334   5.989   2.771   7.972  0.6416  1.3842  0.5564
 2233TIP3    H228335   5.917   2.791   7.841 -0.1594 -0.5595  0.6733
 2234TIP3   OH228336   5.733   0.638   8.195 -0.1448  0.1111  0.1493
 2234TIP3    H128337   5.719   0.709   8.258  0.7863  0.3811  0.0677
 2234TIP3    H228338   5.789   0.677   8.128 -1.1135 -0.1666 -0.8592
 2235TIP3   OH228339   0.118   5.791   0.129 -0.1912  0.1423  0.2578
 2235TIP3    H128340   0.133   5.699   0.150 -0.4363  0.1862  0.6304
 2235TIP3    H228341   0.178   5.838   0.187 -1.3765  0.2959  1.3972
 2236TIP3   OH228342   6.064   3.339   8.330 -0.1166  0.0960  0.3904
 2236TIP3    H128343   6.105   3.331   8.244 -1.5694  1.7755 -0.5092
 2236TIP3    H228344   6.042   3.249   8.354 -1.2156 -0.2904 -1.8013
 2237TIP3   OH228345   1.853   3.186   0.159  0.2244  0.7408 -0.0817
 2237TIP3    H128346   1.891   3.171   0.072 -1.3630  0.6788 -0.8044
 2237TIP3    H228347   1.814   3.101   0.182  0.7914  0.7045  0.7931
 2238TIP3   OH228348   5.809   0.083   1.837 -0.7581  0.2490  0.2901
 2238TIP3    H128349   5.783   0.104   1.747 -0.3667  0.1168  0.1435
 2238TIP3    H228350   5.746   0.131   1.892 -0.5620  0.9147 -0.0505
 2239TIP3   OH228351   6.267   2.935   8.160 -0.0179  0.1432  0.2203
 2239TIP3    H128352   6.172   2.943   8.174  0.1408  1.8816  0.4408
 2239TIP3    H228353   6.305   2.982   8.234  1.0025  0.5367 -0.5482
 2240TIP3   OH228354   3.858   4.153   1.039  0.5055 -0.2684 -0.0020
 2240TIP3    H128355   3.795   4.124   0.973 -0.3410  0.5980  0.4018
 2240TIP3    H228356   3.865   4.248   1.026  0.6856 -0.1532  0.8470
 2241TIP3   OH228357   5.287   5.960   7.261 -0.5739  0.4705 -0.5734
 2241TIP3    H128358   5.342   6.037   7.278 -1.0717  0.9171 -0.9525
 2241TIP3    H228359   5.348   5.886   7.265 -0.0321  0.9129 -0.5060
 2242TIP3   OH228360   0.541   4.237   8.327  0.2135 -0.0070 -0.2123
 2242TIP3    H128361   0.538   4.145   8.354 -0.2545  0.4275  1.2687
 2242TIP3    H228362   0.585   4.282   8.399  0.5256  0.9303 -0.9694
 2243TIP3   OH228363   5.434   6.354   6.124 -0.0852 -0.1100  0.0550
 2243TIP3    H128364   5.396   6.326   6.041 -1.0617  1.9869 -0.2622
 2243TIP3    H228365   5.436   6.449   6.119  1.8864 -0.0036  1.5717
 2244TIP3   OH228366   3.461   0.421   6.862 -0.1160  0.2220 -0.3881
 2244TIP3    H128367   3.471   0.478   6.939  0.7494 -0.1811 -0.1895
 2244TIP3    H228368   3.368   0.428   6.839 -0.7944 -0.9333  1.6986
 2245TIP3   OH228369   1.936   3.663   0.037 -0.2310  0.1517 -0.6267
 2245TIP3    H128370   1.902   3.661   0.126  1.4807 -2.3677  0.0959
 2245TIP3    H228371   2.014   3.718   0.042  0.3166 -0.6278 -0.3326
 2246TIP3   OH228372   2.469   4.031   0.965  0.4657  0.4233  0.3624
 2246TIP3    H128373   2.476   4.121   0.999  2.0225  0.1697  0.8233
 2246TIP3    H228374   2.558   4.009   0.938  0.0077 -0.8210 -0.2066
 2247TIP3   OH228375   6.549   4.551   7.781  0.1868 -0.1013  0.0912
 2247TIP3    H128376   6.550   4.647   7.777  0.2187 -0.0746  0.6110
 2247TIP3    H228377   6.602   4.530   7.858  1.6839 -0.6083 -1.0310
 2248TIP3   OH228378   6.075   4.656   0.760  0.0622 -0.5394 -0.2559
 2248TIP3    H128379   6.059   4.567   0.728  0.9166 -0.5285 -0.7416
 2248TIP3    H228380   6.001   4.707   0.727 -1.3482 -1.3744  1.4360
 2249TIP3   OH228381   4.984   1.366   0.631 -0.3296  0.3434 -0.0282
 2249TIP3    H128382   4.950   1.395   0.715  0.9620 -1.0171  1.0147
 2249TIP3    H228383   5.071   1.330   0.651 -0.0905 -0.2358 -1.9006
 2250TIP3   OH228384   2.934   6.341   1.299  0.6687  0.3167 -0.1007
 2250TIP3    H128385   2.975   6.411   1.249 -1.8026  1.0863 -1.2153
 2250TIP3    H228386   2.911   6.275   1.233  1.6344 -0.8944  0.7336
 2251TIP3   OH228387   6.584   3.183   0.949  0.2707 -0.2395  0.4997
 2251TIP3    H128388   6.659   3.235   0.980 -0.2881 -0.0201  1.5116
 2251TIP3    H228389   6.531   3.169   1.027 -0.6659 -0.5304 -0.1787
 2252TIP3   OH228390   5.457   4.847   0.188  0.2682 -0.0568 -0.0914
 2252TIP3    H128391   5.549   4.841   0.162  0.3458 -1.7843  0.4679
 2252TIP3    H228392   5.448   4.935   0.225  1.7777  0.0081  0.1613
 2253TIP3   OH228393   4.673   6.467   7.721 -0.3402 -0.4357  0.5730
 2253TIP3    H128394   4.595   6.418   7.696 -1.3732  1.5410 -0.2862
 2253TIP3    H228395   4.653   6.500   7.809 -1.6983  2.2353 -0.6144
 2254TIP3   OH228396   3.514   3.383   7.229 -0.4517  0.4709  0.1714
 2254TIP3    H128397   3.485   3.431   7.151  1.8604  1.2030 -0.3254
 2254TIP3    H228398   3.480   3.295   7.217 -2.9297  1.3534  0.0068
 2255TIP3   OH228399   5.937   5.038   8.588  0.1422 -0.3586  0.1483
 2255TIP3    H128400   5.914   5.121   8.629  1.8150 -0.7079  1.9201
 2255TIP3    H228401   5.861   5.018   8.532 -0.9652  1.5723  0.8420
 2256TIP3   OH228402   0.270   5.871   7.621  0.5032  0.0734  0.4368
 2256TIP3    H128403   0.280   5.927   7.698 -2.3204  2.2116 -0.5589
 2256TIP3    H228404   0.336   5.903   7.559  0.3541  0.8770  0.6747
 2257TIP3   OH228405   3.283   0.604   2.909 -0.1085  0.2327  0.5277
 2257TIP3    H128406   3.366   0.643   2.937 -0.3796  0.1170  1.5333
 2257TIP3    H228407   3.224   0.618   2.983 -1.0229  0.4002 -0.2143
 2258TIP3   OH228408   3.580   3.717   8.430  0.0699  0.0491  0.3469
 2258TIP3    H128409   3.588   3.810   8.411  1.1601 -0.2527 -0.7627
 2258TIP3    H228410   3.647   3.700   8.497 -2.8214  0.8221  3.7613
 2259TIP3   OH228411   4.214   6.622   2.303  0.2647 -0.2830  0.5162
 2259TIP3    H128412   4.284   6.653   2.360  1.5891 -1.2487 -0.5118
 2259TIP3    H228413   4.137   6.671   2.330  1.3462  0.8497  1.6586
 2260TIP3   OH228414   3.096   5.201   7.387  0.8354  0.3102 -0.3755
 2260TIP3    H128415   3.095   5.118   7.339  1.5013 -0.7899  1.4404
 2260TIP3    H228416   3.186   5.232   7.377  0.9501  0.1246  0.0782
 2261TIP3   OH228417   2.903   2.828   7.722  0.2778 -0.3912  0.2277
 2261TIP3    H128418   2.830   2.767   7.728 -0.5799  0.5662 -0.2583
 2261TIP3    H228419   2.882   2.897   7.785  0.7022 -0.0465 -0.0023
 2262TIP3   OH228420   2.986   5.865   8.105  0.8981  0.2252 -0.7424
 2262TIP3    H128421   2.921   5.857   8.034  0.4610 -2.8524 -0.1264
 2262TIP3    H228422   2.938   5.840   8.184  1.6673  2.5702  0.5679
 2263TIP3   OH228423   4.690   5.745   0.252  0.1367  0.3916  0.1844
 2263TIP3    H128424   4.699   5.674   0.316  1.0616  1.8755  1.7976
 2263TIP3    H228425   4.725   5.822   0.297 -1.9199  2.1526 -1.0609
 2264TIP3   OH228426   6.862   5.256   2.411  0.1294 -0.4422 -0.7318
 2264TIP3    H128427   6.787   5.197   2.411 -0.3069  0.0893 -0.1858
 2264TIP3    H228428   6.926   5.215   2.469  0.4693 -1.1352 -1.5754
 2265TIP3   OH228429   2.667   3.472   6.719 -0.1171  0.5209 -0.2013
 2265TIP3    H128430   2.618   3.458   6.638  2.4791  1.3931 -2.0761
 2265TIP3    H228431   2.676   3.385   6.758 -0.4219 -0.1014 -1.4911
 2266TIP3   OH228432   6.846   6.626   0.800 -0.2614  0.0900 -0.1067
 2266TIP3    H128433   6.813   6.677   0.726 -1.2517  1.2797  1.0990
 2266TIP3    H228434   6.782   6.556   0.811 -0.4596  0.2897  0.0168
 2267TIP3   OH228435   0.785   2.770   1.627 -0.3872  0.4420  0.0171
 2267TIP3    H128436   0.813   2.757   1.537  0.5752  2.2237  0.0005
 2267TIP3    H228437   0.863   2.749   1.679 -0.5008  0.7367  0.3145
 2268TIP3   OH228438   2.902   3.449   1.935  0.0482 -0.4253 -0.4824
 2268TIP3    H128439   2.914   3.403   2.017  0.7858 -1.8110 -1.3335
 2268TIP3    H228440   2.817   3.493   1.944 -0.9618 -2.4112  0.1501
 2269TIP3   OH228441   1.201   5.300   7.839 -0.2933  0.1528  0.3406
 2269TIP3    H128442   1.161   5.241   7.903  1.5018 -3.0277 -1.2527
 2269TIP3    H228443   1.151   5.288   7.759 -1.0658  2.3363  0.4280
 2270TIP3   OH228444   5.499   0.793   1.603 -0.2742  0.1610 -0.1035
 2270TIP3    H128445   5.418   0.747   1.581 -0.2239  0.4849 -1.0005
 2270TIP3    H228446   5.472   0.864   1.661 -0.6322  0.2594 -0.3887
 2271TIP3   OH228447   1.852   0.496   1.928  0.0722 -0.2494 -0.4155
 2271TIP3    H128448   1.946   0.485   1.942  0.3343  2.4832  0.5640
 2271TIP3    H228449   1.811   0.424   1.977  1.6112 -0.8520  0.0275
 2272TIP3   OH228450   5.340   3.514   7.141  0.0736  0.0804 -0.4134
 2272TIP3    H128451   5.350   3.607   7.160  0.9211  0.0118 -0.4614
 2272TIP3    H228452   5.415   3.473   7.185  1.6024 -0.1924 -3.0861
 2273TIP3   OH228453   1.316   3.213   0.813  0.4124  0.4356  0.3534
 2273TIP3    H128454   1.236   3.264   0.799 -0.3331 -1.0855 -1.4249
 2273TIP3    H228455   1.387   3.270   0.784 -0.3904  0.6018 -1.4622
 2274TIP3   OH228456   0.449   0.697   2.123  0.4893  0.2653  0.1683
 2274TIP3    H128457   0.484   0.654   2.201 -1.4775 -0.7538  0.5631
 2274TIP3    H228458   0.440   0.627   2.059  0.4323  0.7553 -0.3665
 2275TIP3   OH228459   1.523   1.331   6.969  0.4618 -0.0064 -0.5989
 2275TIP3    H128460   1.592   1.382   6.926  0.5417 -0.1743 -0.6674
 2275TIP3    H228461   1.568   1.285   7.040  0.2065  0.8368  0.1276
 2276TIP3   OH228462   1.449   3.408   7.253 -0.5744  0.3242  0.0898
 2276TIP3    H128463   1.470   3.501   7.262 -0.9105  0.3543  0.6154
 2276TIP3    H228464   1.525   3.370   7.209 -1.6854  1.3806 -3.0558
 2277TIP3   OH228465   1.383   5.884   2.365 -0.4345  0.1448  0.6021
 2277TIP3    H128466   1.388   5.789   2.355  0.0525  0.3840 -2.4182
 2277TIP3    H228467   1.474   5.914   2.354 -0.9278  1.0850 -1.6475
 2278TIP3   OH228468   4.929   3.370   2.681 -0.2855 -0.4271  0.8957
 2278TIP3    H128469   4.973   3.298   2.635 -0.0544  0.3358 -0.1148
 2278TIP3    H228470   4.980   3.447   2.659 -2.6963  0.7096 -1.2775
 2279TIP3   OH228471   6.021   2.194   7.380  0.0598 -0.3268 -0.1477
 2279TIP3    H128472   5.999   2.280   7.344  1.0315 -0.4747 -1.1509
 2279TIP3    H228473   6.013   2.206   7.474  1.6003  1.3117 -0.1611
 2280TIP3   OH228474   1.769   2.765   1.019 -0.0809 -0.2504 -0.0279
 2280TIP3    H128475   1.819   2.697   0.975  1.3291  0.3492  0.6013
 2280TIP3    H228476   1.783   2.749   1.112  0.5351  1.0685  0.1253
 2281TIP3   OH228477   6.335   6.454   6.712  0.2324 -0.0698  0.2783
 2281TIP3    H128478   6.351   6.528   6.770 -2.2121  0.7750 -0.0026
 2281TIP3    H228479   6.246   6.425   6.734  0.4844 -1.8506 -0.8024
 2282TIP3   OH228480   6.686   0.938   0.357 -0.5103  0.1286 -0.0179
 2282TIP3    H128481   6.679   0.999   0.283  0.5039  0.3273  0.0249
 2282TIP3    H228482   6.675   0.994   0.435 -1.2617 -0.0283 -0.0070
 2283TIP3   OH228483   1.326   1.597   7.958  0.2482  0.0752 -0.3777
 2283TIP3    H128484   1.244   1.558   7.928  0.2547  0.2228 -0.5933
 2283TIP3    H228485   1.312   1.614   8.051 -0.3537  1.0830 -0.6388
 2284TIP3   OH228486   0.746   3.852   7.737  0.1033 -0.1355 -0.2090
 2284TIP3    H128487   0.671   3.797   7.714 -0.3550  0.3352  0.1416
 2284TIP3    H228488   0.711   3.941   7.735  0.5490  0.0539  0.3704
 2285TIP3   OH228489   0.335   3.527   3.115  0.3885 -0.2781  0.1509
 2285TIP3    H128490   0.396   3.463   3.079  0.6116 -1.1987  2.0639
 2285TIP3    H228491   0.254   3.513   3.066  0.6352 -1.5781  0.0720
 2286TIP3   OH228492   0.617   2.161   2.906 -0.0673 -0.5929 -0.3963
 2286TIP3    H128493   0.576   2.231   2.856 -0.0626 -0.6813 -0.5262
 2286TIP3    H228494   0.707   2.157   2.872  0.0955 -0.2970 -0.0049
 2287TIP3   OH228495   2.471   1.182   1.715 -0.1077  0.7226 -0.3102
 2287TIP3    H128496   2.461   1.136   1.632 -0.2408  2.3604 -1.2349
 2287TIP3    H228497   2.382   1.189   1.750 -0.1050  0.4180 -0.2425
 2288TIP3   OH228498   3.788   4.348   2.550 -0.1284 -0.0112  0.6216
 2288TIP3    H128499   3.830   4.264   2.571 -0.9392 -0.3478  0.9317
 2288TIP3    H228500   3.861   4.410   2.543  0.4148 -0.5660  1.2154
 2289TIP3   OH228501   6.436   1.521   2.150 -0.4192  0.8203 -0.2260
 2289TIP3    H128502   6.410   1.538   2.059 -2.4904  1.6992  0.4775
 2289TIP3    H228503   6.508   1.582   2.165  1.4364 -0.8358 -1.8792
 2290TIP3   OH228504   6.850   2.393   7.811  0.3697 -0.1358 -1.0040
 2290TIP3    H128505   6.828   2.306   7.780 -2.3551 -0.2013  0.7402
 2290TIP3    H228506   6.834   2.390   7.906  4.2806  1.1462 -0.0822
 2291TIP3   OH228507   1.000   4.040   6.990 -0.6388 -0.1803 -0.0279
 2291TIP3    H128508   1.004   3.945   6.985 -0.9619 -0.2040  0.1441
 2291TIP3    H228509   0.927   4.058   7.049  1.6554  0.1067  2.9770
 2292TIP3   OH228510   4.962   4.181   7.134  0.3598 -0.2250 -0.0645
 2292TIP3    H128511   4.989   4.270   7.159 -1.0764 -0.0724  1.0576
 2292TIP3    H228512   5.039   4.127   7.155  1.0745  0.6652 -0.2997
 2293TIP3   OH228513   3.653   5.802   2.230 -0.1837  0.0975 -0.4606
 2293TIP3    H128514   3.642   5.831   2.321  1.4640  0.0424 -0.2102
 2293TIP3    H228515   3.646   5.883   2.178 -0.4043  0.2322 -0.2259
 2294TIP3   OH228516   3.494   6.013   1.001  0.0370 -0.3943 -0.5591
 2294TIP3    H128517   3.543   6.077   1.052  0.4477 -1.3124  0.2195
 2294TIP3    H228518   3.433   6.066   0.950  0.3491  0.6153  0.0741
 2295TIP3   OH228519   3.982   4.505   1.148 -0.1730 -0.2632 -0.3234
 2295TIP3    H128520   3.900   4.495   1.196 -1.1040 -2.3948 -2.1846
 2295TIP3    H228521   3.967   4.460   1.065  2.7265 -0.2817 -0.9422
 2296TIP3   OH228522   5.664   0.383   1.858  0.1693  0.2613  0.1616
 2296TIP3    H128523   5.672   0.402   1.764  0.1753  1.2792  0.3628
 2296TIP3    H228524   5.572   0.397   1.878  0.1106 -0.2370  0.2580
 2297TIP3   OH228525   6.607   4.803   0.178 -0.7721 -0.0508  0.2459
 2297TIP3    H128526   6.677   4.866   0.196 -0.4940 -0.8091  1.9288
 2297TIP3    H228527   6.526   4.852   0.195 -0.5741  0.0245  0.9826
 2298TIP3   OH228528   5.827   2.441   7.651  0.1123 -0.4092  0.2090
 2298TIP3    H128529   5.826   2.529   7.613  0.9708 -1.1786 -1.7779
 2298TIP3    H228530   5.753   2.397   7.610 -0.7611 -0.4424  1.7541
 2299TIP3   OH228531   5.343   1.914   0.804  0.7756 -0.0382 -0.5607
 2299TIP3    H128532   5.303   1.841   0.850 -1.6898  1.9434  0.6794
 2299TIP3    H228533   5.428   1.927   0.848 -0.2368 -0.0743  1.5277
 2300TIP3   OH228534   5.085   5.631   0.179 -0.0381 -0.4142 -0.0802
 2300TIP3    H128535   5.079   5.723   0.153  1.7821 -0.3827 -0.5190
 2300TIP3    H228536   4.994   5.600   0.177 -0.3479  0.2065 -4.3079
 2301TIP3   OH228537   4.987   3.294   8.126  0.0560  0.7136  0.3261
 2301TIP3    H128538   4.920   3.317   8.061 -0.6857  0.4994  0.9929
 2301TIP3    H228539   4.937   3.279   8.206  0.8919  0.3009  0.7743
 2302TIP3   OH228540   0.499   3.731   2.654  0.5743  0.5876  0.1333
 2302TIP3    H128541   0.499   3.729   2.559 -1.7353 -3.0983  0.0083
 2302TIP3    H228542   0.407   3.747   2.678  0.8386 -0.0016  1.6869
 2303TIP3   OH228543   5.329   6.870   6.090 -0.0248 -0.2591 -0.1631
 2303TIP3    H128544   5.285   6.950   6.061  1.7308  1.2905  1.1857
 2303TIP3    H228545   5.361   6.890   6.178  1.2648 -2.1331 -0.1271
 2304TIP3   OH228546   6.778   6.822   6.627 -0.7902  0.0497  0.0019
 2304TIP3    H128547   6.721   6.759   6.671 -0.2008 -2.1926 -2.2053
 2304TIP3    H228548   6.727   6.854   6.554 -0.2691  0.3670 -0.2321
 2305TIP3   OH228549   2.459   5.978   7.457 -0.3836  0.1620  0.0703
 2305TIP3    H128550   2.499   6.018   7.535 -1.0448 -0.0024  0.5042
 2305TIP3    H228551   2.522   5.911   7.430 -1.0176 -1.1349  1.6470
 2306TIP3   OH228552   5.962   1.062   1.302  0.1168 -0.0036  0.1280
 2306TIP3    H128553   5.981   1.155   1.315 -0.8519 -0.0918  2.7678
 2306TIP3    H228554   5.974   1.048   1.208  1.5075  2.4808 -0.1484
 2307TIP3   OH228555   0.188   5.331   8.471 -0.0760 -0.4188  0.3225
 2307TIP3    H128556   0.242   5.380   8.408  1.3338 -0.9385  1.0839
 2307TIP3    H228557   0.123   5.395   8.502 -0.2500  0.0812 -1.0042
 2308TIP3   OH228558   2.881   1.017   0.970 -0.1834 -0.0660  0.0196
 2308TIP3    H128559   2.824   0.983   0.902 -0.1590 -0.2707  0.1029
 2308TIP3    H228560   2.924   1.093   0.929  1.2823 -1.3098 -0.8374
 2309TIP3   OH228561   5.836   1.847   1.077  0.1117 -0.1179  0.3396
 2309TIP3    H128562   5.784   1.784   1.026  0.3616 -0.3092  0.3178
 2309TIP3    H228563   5.897   1.884   1.014 -0.7118  0.9194  0.1161
 2310TIP3   OH228564   2.859   0.721   0.766 -0.0446 -0.4030  0.2967
 2310TIP3    H128565   2.811   0.648   0.806 -1.6545  0.5050  0.0807
 2310TIP3    H228566   2.796   0.793   0.765  1.7046  1.2098  1.0890
 2311TIP3   OH228567   5.137   0.173   6.679 -0.0130  0.0082  0.0269
 2311TIP3    H128568   5.113   0.245   6.621  0.0873  0.5562  0.6443
 2311TIP3    H228569   5.066   0.110   6.670  0.4238 -0.3243 -1.3344
 2312TIP3   OH228570   4.292   4.670   8.365  0.7090  0.1764  0.0619
 2312TIP3    H128571   4.252   4.721   8.295  0.4006 -2.0794 -1.5204
 2312TIP3    H228572   4.219   4.645   8.422  0.3471 -0.9959 -0.8733
 2313TIP3   OH228573   0.615   5.584   1.019 -0.1621  0.4872  0.2880
 2313TIP3    H128574   0.658   5.500   1.002  0.1815  0.7340 -0.0966
 2313TIP3    H228575   0.547   5.564   1.083 -2.4876 -0.7850 -2.3721
 2314TIP3   OH228576   0.227   3.631   0.495  0.1378  0.1896  0.3169
 2314TIP3    H128577   0.177   3.618   0.415  2.4799 -2.8962 -0.8649
 2314TIP3    H228578   0.167   3.606   0.566 -0.3176 -2.9575 -0.9906
 2315TIP3   OH228579   0.721   5.931   2.123  0.1925  0.3234  0.3182
 2315TIP3    H128580   0.795   5.906   2.069  0.1384 -1.3303  0.9570
 2315TIP3    H228581   0.746   6.016   2.161  1.5727 -0.0128  0.1875
 2316TIP3   OH228582   1.414   4.335   1.459  0.5228  0.5394 -0.3358
 2316TIP3    H128583   1.403   4.390   1.536  0.5581  1.0503 -0.6946
 2316TIP3    H228584   1.393   4.247   1.489  1.0056  0.6634  0.3738
 2317TIP3   OH228585   3.846   3.233   0.818 -0.5580  0.0490  0.1141
 2317TIP3    H128586   3.767   3.252   0.868 -0.1080 -0.0824  0.8962
 2317TIP3    H228587   3.819   3.240   0.727 -1.6306 -0.6101  0.3554
 2318TIP3   OH228588   6.316   4.591   8.644  0.6308 -0.3762  0.0738
 2318TIP3    H128589   6.366   4.558   8.719  1.8961  2.3935  0.5488
 2318TIP3    H228590   6.380   4.596   8.572  0.8139  1.9564  0.3253
 2319TIP3   OH228591   2.573   6.372   8.166 -0.5395 -0.3778 -0.1120
 2319TIP3    H128592   2.647   6.385   8.108 -0.8216  3.5018  0.0931
 2319TIP3    H228593   2.496   6.374   8.108 -0.6195 -1.7286 -0.0704
 2320TIP3   OH228594   6.842   2.308   7.514 -0.1946 -0.2346  0.0872
 2320TIP3    H128595   6.923   2.281   7.556 -1.0766 -0.3156  1.8013
 2320TIP3    H228596   6.864   2.310   7.420  0.9556 -3.2025  0.1695
 2321TIP3   OH228597   4.252   6.496   1.323  0.1160  0.0582  0.3192
 2321TIP3    H128598   4.240   6.404   1.302  2.6361 -0.4707  0.7631
 2321TIP3    H228599   4.169   6.538   1.300 -0.9046 -2.2067 -0.4085
 2322TIP3   OH228600   1.074   3.581   1.936  0.4782 -0.1283  0.6419
 2322TIP3    H128601   1.019   3.598   2.012  0.5320  0.0855  0.6349
 2322TIP3    H228602   1.072   3.663   1.887  0.6650 -0.1756  0.5546
 2323TIP3   OH228603   4.439   3.020   8.443 -0.1387  0.1691 -0.0834
 2323TIP3    H128604   4.515   3.011   8.500 -1.1161 -2.5731  0.9411
 2323TIP3    H228605   4.380   3.078   8.491 -0.3344 -0.9428  1.0883
 2324TIP3   OH228606   3.758   5.317   1.527  0.2540  0.1392 -0.5913
 2324TIP3    H128607   3.782   5.356   1.611  0.8766 -1.9267  0.2478
 2324TIP3    H228608   3.727   5.391   1.474  1.5045  1.7530  0.8347
 2325TIP3   OH228609   5.685   5.310   0.808 -0.1569 -0.2882  0.0646
 2325TIP3    H128610   5.754   5.255   0.770 -0.1102  0.5431 -1.1186
 2325TIP3    H228611   5.728   5.394   0.825 -0.4777 -0.2872  0.8695
 2326TIP3   OH228612   4.715   3.117   8.190  0.0165  0.3721 -0.5887
 2326TIP3    H128613   4.736   3.029   8.160  0.3170  0.5744 -0.9733
 2326TIP3    H228614   4.698   3.166   8.110 -0.0101  0.7033 -0.3807
 2327TIP3   OH228615   0.719   4.617   1.976 -0.1093  0.5970 -0.3441
 2327TIP3    H128616   0.769   4.696   1.961  2.2497 -0.8320 -0.4783
 2327TIP3    H228617   0.757   4.579   2.055 -1.7877  0.0004  0.2393
 2328TIP3   OH228618   0.047   5.223   0.839 -0.0742  0.2464 -0.0793
 2328TIP3    H128619   0.064   5.185   0.753 -0.9300 -0.9885  0.2636
 2328TIP3    H228620   0.046   5.148   0.898  0.3469  1.0601  0.9936
 2329TIP3   OH228621   5.280   3.404   1.074 -0.2037  0.3277  0.8889
 2329TIP3    H128622   5.242   3.443   1.153 -0.6832  0.4580  0.6049
 2329TIP3    H228623   5.205   3.367   1.028  0.1431 -0.2069  0.7467
 2330TIP3   OH228624   3.158   4.176   1.559 -0.5667 -0.2827  0.6059
 2330TIP3    H128625   3.122   4.259   1.592 -0.7698 -0.5929  1.1801
 2330TIP3    H228626   3.242   4.167   1.603  1.9625  2.0767 -3.1239
 2331TIP3   OH228627   0.089   6.553   7.075  0.0491 -0.2144 -0.0345
 2331TIP3    H128628   0.125   6.488   7.136 -1.0575 -0.8032  0.0206
 2331TIP3    H228629   0.109   6.638   7.115 -1.6044 -0.6015  1.7479
 2332TIP3   OH228630   5.419   3.732   2.336 -0.4481 -0.3968 -0.1123
 2332TIP3    H128631   5.348   3.796   2.339 -0.3720 -0.2656 -0.9765
 2332TIP3    H228632   5.421   3.695   2.425 -0.6272  0.6436  0.3394
 2333TIP3   OH228633   0.367   2.212   7.855 -0.0887  0.2124 -0.1120
 2333TIP3    H128634   0.424   2.274   7.809  1.0038  1.1975  2.3429
 2333TIP3    H228635   0.328   2.264   7.925 -1.0900 -1.3428  0.5310
 2334TIP3   OH228636   0.597   4.062   2.751  0.6906 -0.2830  0.2398
 2334TIP3    H128637   0.647   3.981   2.751  0.1826 -0.6158  1.0912
 2334TIP3    H228638   0.639   4.117   2.684  1.0082 -1.2548 -0.3746
 2335TIP3   OH228639   6.804   0.117   0.949 -0.2104 -0.3862 -0.2417
 2335TIP3    H128640   6.743   0.085   0.882  0.9419 -1.6560 -0.7554
 2335TIP3    H228641   6.886   0.130   0.901  0.4241 -0.5475  0.7700
 2336TIP3   OH228642   2.206   0.737   0.028  0.4336  0.6821  0.2429
 2336TIP3    H128643   2.239   0.708   0.112 -1.1358 -0.9473  0.3430
 2336TIP3    H228644   2.121   0.776   0.047  0.6321  1.4926 -0.4419
 2337TIP3   OH228645   2.704   5.484   6.534 -0.9782  0.2521 -0.0970
 2337TIP3    H128646   2.657   5.555   6.577  1.3050  1.5938  0.3531
 2337TIP3    H228647   2.755   5.527   6.465  1.0596 -0.7966  0.6811
 2338TIP3   OH228648   2.202   5.891   6.591  0.0855 -0.6299 -0.2568
 2338TIP3    H128649   2.155   5.932   6.519  0.3660  1.2444  0.5771
 2338TIP3    H228650   2.255   5.961   6.629  1.2929 -1.9837  0.6784
 2339TIP3   OH228651   6.026   2.046   1.927 -0.1639  0.0118 -0.1170
 2339TIP3    H128652   6.095   2.108   1.951  0.0432 -0.2360 -0.0701
 2339TIP3    H228653   5.945   2.097   1.932  0.0260  0.3290 -0.2681
 2340TIP3   OH228654   6.621   1.575   1.228 -0.4652 -0.3294 -0.0772
 2340TIP3    H128655   6.681   1.501   1.213 -1.5290 -1.0189 -1.1047
 2340TIP3    H228656   6.665   1.628   1.294  0.5742 -1.6150  0.3158
 2341TIP3   OH228657   1.925   4.183   7.127  0.2709  0.0512  0.4235
 2341TIP3    H128658   1.998   4.245   7.124  0.5465 -0.2804 -2.4504
 2341TIP3    H228659   1.917   4.151   7.037 -1.9355 -1.6869  1.1504
 2342TIP3   OH228660   6.726   5.830   1.929  0.4085  0.9343 -0.5308
 2342TIP3    H128661   6.742   5.738   1.952  0.8444  1.5253  1.8064
 2342TIP3    H228662   6.813   5.868   1.918  0.2912  1.4171  0.1346
 2343TIP3   OH228663   1.370   4.816   2.157 -0.1656 -0.2293  0.0718
 2343TIP3    H128664   1.376   4.753   2.085  1.0882 -0.9500  0.7494
 2343TIP3    H228665   1.414   4.894   2.125 -2.4079  0.6446 -1.0562
 2344TIP3   OH228666   6.615   0.119   8.602 -0.0099 -0.4574 -0.3828
 2344TIP3    H128667   6.528   0.153   8.623 -0.5867 -1.7958 -0.4488
 2344TIP3    H228668   6.670   0.145   8.676 -1.0562 -1.6393  0.8661
 2345TIP3   OH228669   5.622   1.605   0.956  0.6174  0.0427  1.0470
 2345TIP3    H128670   5.630   1.510   0.949 -1.1265 -0.1485  1.2238
 2345TIP3    H228671   5.605   1.634   0.866 -1.1352 -0.1012  1.2973
 2346TIP3   OH228672   6.046   1.753   8.335  0.3728 -0.4500 -0.4047
 2346TIP3    H128673   6.068   1.660   8.322  0.7618 -0.7388  1.9997
 2346TIP3    H228674   5.976   1.753   8.400 -1.9896  0.8561 -2.7390
 2347TIP3   OH228675   5.338   0.383   7.560 -0.2878  0.3200  0.2779
 2347TIP3    H128676   5.412   0.373   7.500  0.4501 -0.8378  1.3432
 2347TIP3    H228677   5.349   0.471   7.597 -0.3071  0.7342 -0.6704
 2348TIP3   OH228678   3.169   5.039   7.622 -0.4731  0.4172 -0.5936
 2348TIP3    H128679   3.173   5.080   7.536  0.8960  0.4508 -0.5319
 2348TIP3    H228680   3.260   5.024   7.646 -0.8573 -0.1817  0.5747
 2349TIP3   OH228681   2.672   4.496   0.689 -0.3379  0.1349 -0.0651
 2349TIP3    H128682   2.656   4.473   0.781 -1.0550  1.6593  0.2256
 2349TIP3    H228683   2.677   4.592   0.689  1.7406  0.1020 -1.3004
 2350TIP3   OH228684   0.853   2.943   7.130  0.1009 -0.1511  0.4877
 2350TIP3    H128685   0.907   2.924   7.053 -0.5418 -0.9482  0.2126
 2350TIP3    H228686   0.791   3.010   7.100 -1.3874 -1.7888 -0.3042
 2351TIP3   OH228687   6.722   2.012   1.994  0.2391 -0.3955 -0.2739
 2351TIP3    H128688   6.745   1.998   2.086  0.5810  2.2563  0.1219
 2351TIP3    H228689   6.803   1.993   1.946  0.5210 -0.2473  0.1361
 2352TIP3   OH228690   0.081   6.445   1.317  0.1271  0.6865  0.1983
 2352TIP3    H128691   0.021   6.487   1.378 -0.3743 -1.8367  1.5524
 2352TIP3    H228692   0.035   6.366   1.287  1.9120 -0.1971 -0.3992
 2353TIP3   OH228693   2.537   0.887   7.725  0.0042  0.5560  0.5608
 2353TIP3    H128694   2.550   0.830   7.649 -0.0227  0.2744  0.7664
 2353TIP3    H228695   2.593   0.849   7.793 -0.7495  0.2080  0.9957
 2354TIP3   OH228696   4.375   4.364   1.609  0.0134  0.5868 -0.0774
 2354TIP3    H128697   4.322   4.404   1.678 -0.1928  0.2282 -0.0223
 2354TIP3    H228698   4.323   4.373   1.530  0.9010  2.3671 -0.5164
 2355TIP3   OH228699   2.587   2.680   8.338  0.4925  0.1626  0.6431
 2355TIP3    H128700   2.509   2.717   8.380  0.7208 -0.5884  1.7612
 2355TIP3    H228701   2.607   2.741   8.268 -0.5908  0.8342  0.8904
 2356TIP3   OH228702   1.091   6.448   7.829  0.7281 -0.2115 -0.1403
 2356TIP3    H128703   1.072   6.437   7.736  0.5392 -1.8928  0.0542
 2356TIP3    H228704   1.075   6.541   7.847  2.2614  0.5013 -2.0935
 2357TIP3   OH228705   6.064   4.199   7.475 -0.5777  0.0227  0.3221
 2357TIP3    H128706   5.969   4.187   7.475 -0.7620  1.3191  0.6143
 2357TIP3    H228707   6.077   4.283   7.431  0.5633 -0.9165 -1.2178
 2358TIP3   OH228708   0.300   6.333   1.742  0.0789  0.1003 -0.1885
 2358TIP3    H128709   0.393   6.310   1.741  0.2154  0.5507 -2.2737
 2358TIP3    H228710   0.257   6.262   1.694 -0.7541 -0.3701  1.1974
 2359TIP3   OH228711   4.818   2.608   8.249  0.0928 -0.0043  0.1097
 2359TIP3    H128712   4.835   2.678   8.312  0.4571 -0.0875  0.1031
 2359TIP3    H228713   4.722   2.600   8.248  0.1018 -0.2776  0.9598
 2360TIP3   OH228714   3.394   5.101   7.932  0.2050  0.0138  0.2053
 2360TIP3    H128715   3.408   5.065   7.844  0.6583 -1.2072  0.7447
 2360TIP3    H228716   3.478   5.092   7.975  0.0833  0.9549  0.6569
 2361TIP3   OH228717   1.884   2.355   1.296 -0.2452  0.1510 -0.3791
 2361TIP3    H128718   1.858   2.403   1.217  3.0034  1.8947 -0.5624
 2361TIP3    H228719   1.953   2.296   1.266 -0.8105 -1.1602  0.7771
 2362TIP3   OH228720   3.126   0.869   1.274 -0.2916 -0.4072  0.0416
 2362TIP3    H128721   3.214   0.865   1.311  0.5287  0.8630 -1.6419
 2362TIP3    H228722   3.068   0.850   1.348  1.3278 -0.1795  1.4344
 2363TIP3   OH228723   0.698   6.187   8.709  0.1787 -0.2105  0.1149
 2363TIP3    H128724   0.770   6.196   8.772  1.1300  0.8986 -1.0882
 2363TIP3    H228725   0.711   6.100   8.670  2.3691  0.8874 -1.8163
 2364TIP3   OH228726   4.805   2.339   8.210  0.2259 -0.3726 -0.0131
 2364TIP3    H128727   4.837   2.429   8.207 -3.0305  1.0213  1.7172
 2364TIP3    H228728   4.757   2.328   8.128  0.7134 -0.5830 -0.2724
 2365TIP3   OH228729   5.566   3.941   0.478  0.2314  0.1824 -0.1350
 2365TIP3    H128730   5.494   3.900   0.430  0.8472 -0.0853 -0.8374
 2365TIP3    H228731   5.531   3.954   0.566 -0.4127 -0.6616 -0.2573
 2366TIP3   OH228732   1.270   1.113   8.450 -0.2455 -0.1732 -0.5637
 2366TIP3    H128733   1.284   1.194   8.401 -1.3947  0.7785  0.6042
 2366TIP3    H228734   1.358   1.089   8.482 -0.1686  1.9832  1.0835
 2367TIP3   OH228735   6.207   1.842   1.924  1.0564 -0.5394  0.3231
 2367TIP3    H128736   6.293   1.884   1.935  1.0533 -0.1112 -1.1537
 2367TIP3    H228737   6.144   1.912   1.942  1.0085 -0.7089  0.8425
 2368TIP3   OH228738   0.944   2.471   8.124  0.3921 -0.3340 -0.1793
 2368TIP3    H128739   0.981   2.559   8.121 -0.3788  0.0348  0.5889
 2368TIP3    H228740   0.858   2.479   8.081 -0.7757 -0.1079  2.0520
 2369TIP3   OH228741   3.400   2.662   1.572 -0.0471  0.1096 -0.0602
 2369TIP3    H128742   3.327   2.724   1.563  0.8256  1.0900 -0.5700
 2369TIP3    H228743   3.468   2.711   1.618  0.4410 -0.6591  0.0541
 2370TIP3   OH228744   1.923   6.349   0.223  0.3838 -0.3020 -0.2713
 2370TIP3    H128745   1.910   6.440   0.247  1.3015 -0.1574 -0.2843
 2370TIP3    H228746   1.996   6.351   0.162  0.4835 -1.0598 -0.1834
 2371TIP3   OH228747   0.449   4.917   1.992  0.6458  0.2834  0.3867
 2371TIP3    H128748   0.394   4.964   1.930  2.0855 -1.0031 -1.9980
 2371TIP3    H228749   0.525   4.974   2.004 -0.7343  1.7422  3.1467
 2372TIP3   OH228750   6.660   3.413   8.209  0.7938 -0.2135 -0.3501
 2372TIP3    H128751   6.744   3.386   8.247  0.7060 -2.0922 -1.3292
 2372TIP3    H228752   6.683   3.478   8.143  1.0593  2.1573  1.9393
 2373TIP3   OH228753   6.681   0.494   0.962  0.3578 -0.6270 -0.4332
 2373TIP3    H128754   6.762   0.458   0.926  0.5745 -0.6937  0.1070
 2373TIP3    H228755   6.615   0.473   0.897  0.2052 -3.2503  0.4067
 2374TIP3   OH228756   0.082   3.000   7.325  0.0533 -0.3662  0.3229
 2374TIP3    H128757   0.114   2.946   7.398 -0.0995 -2.8502 -1.3378
 2374TIP3    H228758  -0.013   2.997   7.334 -0.0555 -2.2215 -0.9316
 2375TIP3   OH228759   2.253   1.410   7.823  0.2071  0.0970 -0.0346
 2375TIP3    H128760   2.172   1.409   7.773 -0.0784  3.1405  0.2090
 2375TIP3    H228761   2.320   1.381   7.760 -0.8342 -1.2632 -0.5717
 2376TIP3   OH228762   3.564   4.310   1.993 -0.3564 -0.2445 -0.3501
 2376TIP3    H128763   3.518   4.387   2.027  0.7517 -0.3438  1.4876
 2376TIP3    H228764   3.637   4.347   1.942 -2.0234 -0.0965 -2.8279
 2377TIP3   OH228765   2.457   6.545   0.586  0.0224  0.0860 -0.4873
 2377TIP3    H128766   2.516   6.470   0.598 -1.3898 -0.9388  0.2652
 2377TIP3    H228767   2.481   6.580   0.500  1.3981 -0.5827 -0.4097
 2378TIP3   OH228768   0.622   4.920   2.981  0.1397 -0.4965  0.2924
 2378TIP3    H128769   0.543   4.867   2.976 -0.1530 -0.0245 -0.1788
 2378TIP3    H228770   0.598   4.995   3.035 -0.7305  1.2932 -2.4014
 2379TIP3   OH228771   5.487   6.810   1.563  0.7499 -0.9189 -0.0742
 2379TIP3    H128772   5.541   6.839   1.490  2.8532 -1.7896  1.0314
 2379TIP3    H228773   5.529   6.730   1.594 -0.8175 -1.2819  1.2863
 2380TIP3   OH228774   6.273   3.924   7.963  0.7544  0.1785  0.5584
 2380TIP3    H128775   6.246   3.874   8.041  0.7678  0.0784  0.4988
 2380TIP3    H228776   6.267   4.015   7.991  5.1975  0.1921  2.2335
 2381TIP3   OH228777   4.262   6.208   8.527 -0.1931  0.2627  0.2799
 2381TIP3    H128778   4.234   6.189   8.438 -3.6592  0.7880  1.1293
 2381TIP3    H228779   4.281   6.122   8.565 -3.7773 -0.6053  0.4560
 2382TIP3   OH228780   1.814   0.701   8.030  0.2207  0.5031 -0.0899
 2382TIP3    H128781   1.865   0.678   7.952  2.5266  0.9988  1.1600
 2382TIP3    H228782   1.805   0.619   8.078 -1.1987  0.1980 -0.8513
 2383TIP3   OH228783   4.668   1.539   0.711 -0.1862  0.0482  0.2689
 2383TIP3    H128784   4.646   1.632   0.717 -2.0001 -0.1883 -1.5401
 2383TIP3    H228785   4.685   1.524   0.617 -1.0892 -1.6510  0.3250
 2384TIP3   OH228786   1.487   0.214   0.364  0.4101 -0.4839 -0.2015
 2384TIP3    H128787   1.446   0.296   0.390  1.1547  0.2583 -1.2751
 2384TIP3    H228788   1.573   0.215   0.405 -0.2034 -1.5617  1.2023
 2385TIP3   OH228789   5.343   6.740   2.194  0.0275 -0.1237 -0.4264
 2385TIP3    H128790   5.392   6.659   2.185 -0.4019 -0.1704 -3.3016
 2385TIP3    H228791   5.397   6.794   2.253  1.3401 -1.6993 -0.0961
 2386TIP3   OH228792   5.790   2.589   1.062  0.4042 -0.3867  0.4308
 2386TIP3    H128793   5.784   2.536   1.142 -0.7247 -0.3536  0.3782
 2386TIP3    H228794   5.700   2.612   1.042  0.6036 -0.8994 -1.2063
 2387TIP3   OH228795   2.426   0.277   8.055 -0.1565 -0.1318 -0.5081
 2387TIP3    H128796   2.429   0.347   8.121  0.8453  0.1018 -0.7779
 2387TIP3    H228797   2.405   0.198   8.105  1.1839 -0.0662  0.2145
 2388TIP3   OH228798   1.960   5.128   1.103 -0.2409  0.0981  0.5745
 2388TIP3    H128799   1.925   5.069   1.037  0.3274 -0.6929  0.9652
 2388TIP3    H228800   1.945   5.216   1.068 -0.8054 -0.2882 -0.1562
 2389TIP3   OH228801   3.963   2.753   0.146  0.4405  0.2075 -0.4793
 2389TIP3    H128802   3.880   2.708   0.164  0.9459 -0.2982  0.6754
 2389TIP3    H228803   4.009   2.696   0.085  0.3828 -0.0379 -0.2937
 2390TIP3   OH228804   3.417   3.190   7.639 -0.4409  0.2236  0.0785
 2390TIP3    H128805   3.474   3.254   7.597 -0.0241  0.2903  0.7503
 2390TIP3    H228806   3.380   3.236   7.714 -1.2396  0.1227 -0.2420
 2391TIP3   OH228807   5.663   1.881   1.351  0.4526 -0.0668 -0.1421
 2391TIP3    H128808   5.573   1.901   1.323  0.8139  2.1251  0.0969
 2391TIP3    H228809   5.714   1.886   1.271  0.7167  1.2043  0.0847
 2392TIP3   OH228810   1.333   6.793   0.935 -0.1356  0.1098 -0.4693
 2392TIP3    H128811   1.414   6.798   0.884  0.3617 -2.5400 -0.1019
 2392TIP3    H228812   1.362   6.806   1.026 -0.3794  0.7641 -0.4844
 2393TIP3   OH228813   2.357   3.242   8.005 -0.4864  0.2069 -0.4704
 2393TIP3    H128814   2.263   3.262   7.997 -0.1065  1.4682 -2.5519
 2393TIP3    H228815   2.401   3.318   7.968  1.2866 -1.5603 -2.2431
 2394TIP3   OH228816   4.318   6.039   1.959 -0.4403 -0.0142 -0.2662
 2394TIP3    H128817   4.307   6.093   2.038 -2.0824 -0.9043  0.1670
 2394TIP3    H228818   4.413   6.031   1.948 -0.0921 -1.4189  2.7430
 2395TIP3   OH228819   2.986   2.197   1.626 -0.4807 -0.0158  0.0990
 2395TIP3    H128820   2.973   2.189   1.721 -0.4030 -0.0589  0.1062
 2395TIP3    H228821   3.050   2.129   1.605  0.0045  0.4213  0.1242
 2396TIP3   OH228822   6.454   0.399   1.154  0.2557 -0.5731 -0.3963
 2396TIP3    H128823   6.500   0.432   1.076 -0.6989 -2.7248 -1.9870
 2396TIP3    H228824   6.507   0.326   1.183 -0.5391 -1.1553 -0.3859
 2397TIP3   OH228825   5.627   2.051   8.151 -0.4036 -0.8738 -0.3700
 2397TIP3    H128826   5.651   2.090   8.067 -0.9279  1.2380  0.4169
 2397TIP3    H228827   5.702   1.997   8.175  0.4186 -0.2301 -1.4267
 2398TIP3   OH228828   1.802   3.775   8.219  0.2296  0.6503 -0.0868
 2398TIP3    H128829   1.812   3.685   8.249 -1.0600 -0.4801 -2.7232
 2398TIP3    H228830   1.742   3.815   8.282 -1.2983 -1.1942 -0.2592
 2399TIP3   OH228831   4.789   4.109   2.241 -0.2966  0.1610  0.1851
 2399TIP3    H128832   4.747   4.088   2.157  0.8444  0.0848 -0.3915
 2399TIP3    H228833   4.868   4.157   2.216 -0.8360  1.6917  1.3135
 2400TIP3   OH228834   3.571   2.903   0.644 -0.9086  0.2908  0.0171
 2400TIP3    H128835   3.635   2.881   0.712 -0.5349  0.5248 -0.2477
 2400TIP3    H228836   3.595   2.847   0.570  0.5518  2.0472 -0.9385
 2401TIP3   OH228837   2.692   2.657   7.766 -0.2217  0.6807 -0.4081
 2401TIP3    H128838   2.632   2.618   7.830 -1.9064 -0.3817 -2.5168
 2401TIP3    H228839   2.702   2.590   7.699  1.2523  1.8710 -1.4321
 2402TIP3   OH228840   6.831   4.269   2.292  0.0785 -0.1343  0.2816
 2402TIP3    H128841   6.751   4.230   2.257 -0.8965  0.0796  2.1058
 2402TIP3    H228842   6.858   4.334   2.227 -1.3160 -0.1198 -0.3026
 2403TIP3   OH228843   2.612   5.754   2.265 -0.2585 -0.1482  0.7447
 2403TIP3    H128844   2.547   5.684   2.265 -2.2863  1.5621 -1.7844
 2403TIP3    H228845   2.677   5.726   2.199 -1.6688  0.7366 -1.1115
 2404TIP3   OH228846   1.764   1.167   2.011  0.1598 -0.4970  0.3449
 2404TIP3    H128847   1.835   1.204   2.064 -0.8447 -0.1552  1.4950
 2404TIP3    H228848   1.689   1.165   2.070 -0.9052 -0.4753 -0.9629
 2405TIP3   OH228849   2.255   1.259   0.881  0.1299  0.2686 -0.5591
 2405TIP3    H128850   2.198   1.254   0.958 -0.3693 -1.2535 -1.0082
 2405TIP3    H228851   2.336   1.216   0.908 -0.0323 -0.2342 -0.8798
 2406TIP3   OH228852   5.301   1.969   1.087  0.3452  0.6371  0.8049
 2406TIP3    H128853   5.217   1.925   1.102  0.3057  0.6134  0.5202
 2406TIP3    H228854   5.366   1.898   1.091  0.0340  0.0277 -2.4898
 2407TIP3   OH228855   2.907   5.943   7.137 -0.3691  0.0482 -0.0942
 2407TIP3    H128856   2.884   5.947   7.044 -2.0497 -0.6293  0.2508
 2407TIP3    H228857   2.832   5.983   7.182 -0.0278 -0.5124  1.0184
 2408TIP3   OH228858   0.172   0.511   7.528 -0.4093 -0.3546  0.3385
 2408TIP3    H128859   0.216   0.478   7.449 -0.8886  1.7575 -0.8962
 2408TIP3    H228860   0.236   0.572   7.567 -1.3459  1.0688 -0.2581
 2409TIP3   OH228861   2.934   5.206   2.055  0.3824  0.2875 -0.1823
 2409TIP3    H128862   2.881   5.167   2.125  1.1519  1.4210  1.0817
 2409TIP3    H228863   2.883   5.283   2.028  0.2617  0.0511 -0.6516
 2410TIP3   OH228864   5.866   6.687   1.915  0.1466  0.4539  0.5576
 2410TIP3    H128865   5.849   6.772   1.874 -0.7182  0.4557  0.9011
 2410TIP3    H228866   5.836   6.697   2.005  0.0165 -0.2278  0.5927
 2411TIP3   OH228867   0.430   4.354   8.094 -0.2576 -0.4790 -0.7235
 2411TIP3    H128868   0.471   4.292   8.155  0.0334 -0.4267 -0.8610
 2411TIP3    H228869   0.336   4.346   8.111 -0.1633 -0.2062 -0.0190
 2412TIP3   OH228870   1.573   3.500   3.018  0.4051  0.1098 -0.0078
 2412TIP3    H128871   1.537   3.573   3.069 -0.1397  0.0595 -0.3139
 2412TIP3    H228872   1.499   3.468   2.966  0.9810  0.2511 -0.9388
 2413TIP3   OH228873   5.130   1.988   1.565  0.6664  0.1656 -0.2657
 2413TIP3    H128874   5.046   2.020   1.533  0.8846  3.1421  1.6884
 2413TIP3    H228875   5.195   2.030   1.507  0.8610  0.3188  0.0588
 2414TIP3   OH228876   0.061   1.818   7.027  0.0258 -0.0767  0.0740
 2414TIP3    H128877   0.099   1.878   6.963 -0.5320 -2.3743 -2.6034
 2414TIP3    H228878   0.136   1.769   7.061  0.1059 -0.3762 -0.5254
 2415TIP3   OH228879   0.779   1.518   7.512  0.3671  0.1365  0.2642
 2415TIP3    H128880   0.782   1.515   7.607  1.1934 -0.3409  0.2295
 2415TIP3    H228881   0.863   1.556   7.486  0.0907  0.3977 -0.2713
 2416TIP3   OH228882   0.132   3.107   0.798 -0.2968 -0.4484  0.2416
 2416TIP3    H128883   0.186   3.097   0.720 -0.5369 -0.7309  0.1111
 2416TIP3    H228884   0.063   3.168   0.773  0.8053  1.1257  0.8520
 2417TIP3   OH228885   3.699   6.515   0.518 -0.1580 -0.0090 -0.0025
 2417TIP3    H128886   3.745   6.461   0.582  1.9481  0.9811 -0.5587
 2417TIP3    H228887   3.646   6.575   0.571  1.5799  0.8296  0.8968
 2418TIP3   OH228888   5.844   4.429   8.673 -0.2096  0.6716 -0.4103
 2418TIP3    H128889   5.805   4.490   8.736  0.2855  0.8481 -0.2700
 2418TIP3    H228890   5.938   4.447   8.677  0.0162 -0.5297  0.0826
 2419TIP3   OH228891   2.041   6.799   0.346 -0.7298 -0.3027  0.9491
 2419TIP3    H128892   2.065   6.884   0.309  0.5352 -0.8784  0.3809
 2419TIP3    H228893   2.122   6.765   0.384 -1.4028 -0.9176  1.8904
 2420TIP3   OH228894   0.841   4.251   8.110 -1.0630 -0.2089 -0.3194
 2420TIP3    H128895   0.764   4.280   8.159 -1.7452 -1.6435 -0.5099
 2420TIP3    H228896   0.817   4.165   8.076  0.7350 -0.8251 -0.1174
 2421TIP3   OH228897   0.545   2.226   7.518  0.8616 -0.0057  0.0050
 2421TIP3    H128898   0.495   2.156   7.559  1.2694  0.1811  0.8270
 2421TIP3    H228899   0.566   2.191   7.431 -0.6610 -0.0912 -0.3627
 2422TIP3   OH228900   3.164   0.559   0.052 -0.5033  0.0910  0.2005
 2422TIP3    H128901   3.189   0.617  -0.020 -3.0873  1.2927  0.1510
 2422TIP3    H228902   3.089   0.603   0.093 -0.4372 -1.6027  2.2979
 2423TIP3   OH228903   4.368   6.043   8.196 -0.1854 -0.1120  0.6556
 2423TIP3    H128904   4.291   6.095   8.220 -0.3444 -0.4345  0.8538
 2423TIP3    H228905   4.428   6.106   8.155  0.1709  0.5055  2.0513
 2424TIP3   OH228906   4.454   2.270   1.842 -0.0553 -0.0655  0.2957
 2424TIP3    H128907   4.503   2.352   1.845 -0.8863  0.4216  1.0972
 2424TIP3    H228908   4.362   2.297   1.845 -0.3306 -1.0481  1.3838
 2425TIP3   OH228909   1.617   4.748   0.893 -0.2436 -0.5188 -0.0953
 2425TIP3    H128910   1.546   4.686   0.880  0.0932 -0.7063 -1.1024
 2425TIP3    H228911   1.693   4.694   0.917 -0.2742 -0.3732  0.3462
 2426TIP3   OH228912   4.187   2.497   2.141  0.4022  0.1058  1.0846
 2426TIP3    H128913   4.244   2.432   2.182 -1.8143 -0.8966  2.7699
 2426TIP3    H228914   4.128   2.525   2.211 -0.7201  1.6341 -0.3919
 2427TIP3   OH228915   4.259   0.910   2.162 -0.1202  0.1257  0.2711
 2427TIP3    H128916   4.171   0.896   2.198  0.4438 -1.7563  1.0479
 2427TIP3    H228917   4.246   0.912   2.067 -1.0023 -0.1167  0.3796
 2428TIP3   OH228918   3.459   1.220   7.721  0.0050 -0.2186  0.1511
 2428TIP3    H128919   3.509   1.138   7.717  0.0740 -0.1281 -1.9694
 2428TIP3    H228920   3.368   1.194   7.707 -0.1569 -0.0634  0.8854
 2429TIP3   OH228921   4.217   3.293   1.163  0.4000 -0.1110  0.7048
 2429TIP3    H128922   4.249   3.381   1.142 -0.0171 -0.3966 -1.2881
 2429TIP3    H228923   4.276   3.234   1.117  0.3647 -0.8849  1.6093
 2430TIP3   OH228924   2.186   6.024   7.447 -0.3521  0.5277  0.2930
 2430TIP3    H128925   2.275   6.017   7.480 -0.6083  1.2436  1.1667
 2430TIP3    H228926   2.141   5.947   7.482 -0.1194  0.2384 -0.0364
 2431TIP3   OH228927   3.282   3.992   7.203  0.4224  0.0845  0.2666
 2431TIP3    H128928   3.263   3.985   7.109  0.2864 -0.1731  0.3153
 2431TIP3    H228929   3.266   4.085   7.223 -0.6192 -0.0867  0.2691
 2432TIP3   OH228930   6.102   6.537   0.111 -0.0295 -0.2906 -0.6289
 2432TIP3    H128931   6.089   6.589   0.190  0.5738 -1.6982  0.4590
 2432TIP3    H228932   6.162   6.588   0.057 -0.6381  0.8013 -0.2849
 2433TIP3   OH228933   1.730   2.460   8.429  0.2851 -0.0693 -0.1088
 2433TIP3    H128934   1.778   2.510   8.364  0.2870 -0.6540 -0.5604
 2433TIP3    H228935   1.790   2.454   8.504  0.2467  0.6772 -0.0137
 2434TIP3   OH228936   4.713   0.632   0.558 -0.3967  0.2588 -0.3442
 2434TIP3    H128937   4.734   0.654   0.468 -0.2927 -0.3217 -0.4661
 2434TIP3    H228938   4.678   0.712   0.595  1.1180  0.9985 -0.4191
 2435TIP3   OH228939   1.743   6.703   8.711  0.4184 -0.8469  0.1362
 2435TIP3    H128940   1.673   6.735   8.654  0.7821  0.4706  0.4169
 2435TIP3    H228941   1.698   6.642   8.771 -0.2476 -0.9952 -0.4987
 2436TIP3   OH228942   5.886   2.825   0.930  0.1466 -0.0260 -0.0648
 2436TIP3    H128943   5.884   2.757   0.997  0.8124 -0.6697 -0.6945
 2436TIP3    H228944   5.794   2.839   0.908 -0.0327 -0.2867  0.5003
 2437TIP3   OH228945   5.047   1.915   7.663 -0.3118  0.2609 -0.1023
 2437TIP3    H128946   5.128   1.904   7.614  0.5490  1.4048  1.0119
 2437TIP3    H228947   5.013   2.000   7.634 -0.7617  0.0940 -0.0711
 2438TIP3   OH228948   4.033   6.030   0.255 -0.0238  0.3332  0.1105
 2438TIP3    H128949   3.971   6.100   0.234 -0.1233  0.0988 -0.3867
 2438TIP3    H228950   4.023   6.017   0.349 -2.9376 -1.7539 -0.3522
 2439TIP3   OH228951   6.416   2.356   0.646 -0.2711 -0.1675 -0.0953
 2439TIP3    H128952   6.393   2.336   0.737 -0.3297  0.5277  0.0527
 2439TIP3    H228953   6.382   2.283   0.596  1.4666 -1.5551  0.6446
 2440TIP3   OH228954   1.636   0.572   2.170  0.2250 -0.0147 -0.4225
 2440TIP3    H128955   1.659   0.508   2.102  0.0090  0.6848 -1.1680
 2440TIP3    H228956   1.581   0.523   2.231  2.2620 -1.2928  0.5200
 2441TIP3   OH228957   5.626   0.481   8.430 -0.2351 -0.0786 -0.5260
 2441TIP3    H128958   5.554   0.431   8.470 -0.8736  0.6016 -0.8127
 2441TIP3    H228959   5.611   0.472   8.336  0.8934 -1.1289 -0.6309
 2442TIP3   OH228960   3.847   2.413   1.074  0.0942  0.1767 -0.8824
 2442TIP3    H128961   3.862   2.501   1.107 -1.5099  0.4376 -0.7778
 2442TIP3    H228962   3.856   2.356   1.151 -0.0963  0.3935 -0.6987
 2443TIP3   OH228963   3.590   0.163   6.913  0.0957 -0.6924 -0.3494
 2443TIP3    H128964   3.529   0.235   6.901 -1.6037 -1.9931  0.1560
 2443TIP3    H228965   3.676   0.204   6.908 -0.8027  1.2998 -0.4528
 2444TIP3   OH228966   4.454   1.155   6.602 -0.0326 -0.1873 -0.2146
 2444TIP3    H128967   4.514   1.191   6.668  0.6332 -1.2971 -0.2070
 2444TIP3    H228968   4.480   1.198   6.520 -1.1198  1.5010  0.2654
 2445TIP3   OH228969   3.461   0.900   0.432  0.6861 -0.4529  0.1220
 2445TIP3    H128970   3.425   0.852   0.358  0.8803  0.8829 -0.8701
 2445TIP3    H228971   3.542   0.938   0.400  1.6067 -1.1678  1.5215
 2446TIP3   OH228972   4.451   1.204   0.829 -0.8684  0.0282  0.4070
 2446TIP3    H128973   4.509   1.220   0.754 -0.4856  0.5856  0.8180
 2446TIP3    H228974   4.505   1.153   0.890 -0.8925  0.3292  0.6806
 2447TIP3   OH228975   5.283   6.460   1.946 -0.3563 -0.3083 -0.5227
 2447TIP3    H128976   5.299   6.538   1.999 -0.5071  0.0036 -0.9285
 2447TIP3    H228977   5.360   6.405   1.960 -0.1489  0.0074 -0.4086
 2448TIP3   OH228978   4.467   4.949   7.538 -0.5214 -0.1639  0.1465
 2448TIP3    H128979   4.536   4.885   7.522 -0.0672 -0.1310  1.7887
 2448TIP3    H228980   4.422   4.958   7.454 -0.3133 -2.2777 -0.2269
 2449TIP3   OH228981   5.693   3.505   2.078 -0.1524 -0.5507 -0.0509
 2449TIP3    H128982   5.717   3.454   2.000  1.2978 -1.0039  0.6589
 2449TIP3    H228983   5.644   3.443   2.132 -1.3042 -0.1880 -0.6513
 2450TIP3   OH228984   2.042   6.177   1.502 -0.3664 -0.0255 -0.1090
 2450TIP3    H128985   2.070   6.085   1.503 -1.6157 -0.4114  0.4861
 2450TIP3    H228986   2.022   6.195   1.410  0.7865 -0.0396 -0.3882
 2451TIP3   OH228987   1.750   2.082   1.835 -0.1673 -0.3448  0.4507
 2451TIP3    H128988   1.782   2.160   1.789  0.2329 -0.4348  0.5735
 2451TIP3    H228989   1.788   2.008   1.788 -1.6775 -0.5340 -0.5294
 2452TIP3   OH228990   1.268   6.225   0.984 -0.4843  0.3048  0.6725
 2452TIP3    H128991   1.249   6.168   1.059  1.0743 -1.2040 -0.0262
 2452TIP3    H228992   1.340   6.280   1.014 -0.8651  0.7550  0.7718
 2453TIP3   OH228993   5.358   3.267   7.592  0.0259 -0.6945 -0.4454
 2453TIP3    H128994   5.287   3.224   7.639 -0.4802 -0.8512 -1.3240
 2453TIP3    H228995   5.434   3.259   7.649 -0.8574  0.2658  0.9198
 2454TIP3   OH228996   4.912   6.572   7.898  0.2656  0.0415  0.9244
 2454TIP3    H128997   4.918   6.620   7.816 -0.5275 -1.2663  0.0570
 2454TIP3    H228998   4.856   6.626   7.954 -1.9688 -0.5500 -0.5958
 2455TIP3   OH228999   0.758   2.696   1.342  0.4838 -0.1613  0.1443
 2455TIP3    H129000   0.671   2.733   1.355 -0.3327 -1.5533 -0.9862
 2455TIP3    H229001   0.744   2.621   1.284  2.4415 -0.4374 -0.0620
 2456TIP3   OH229002   3.932   5.621   7.850  0.1978 -0.4626  0.6725
 2456TIP3    H129003   3.949   5.605   7.943  0.0775  1.0255  0.9869
 2456TIP3    H229004   4.010   5.669   7.820 -0.5675  0.7087  0.4914
 2457TIP3   OH229005   2.442   0.146   0.718 -0.6007 -0.2015  0.4285
 2457TIP3    H129006   2.353   0.113   0.705 -0.7295  0.7570 -1.3946
 2457TIP3    H229007   2.487   0.127   0.636  0.2221  1.3625  0.4823
 2458TIP3   OH229008   1.208   1.401   7.318 -0.3691 -0.1352  0.5546
 2458TIP3    H129009   1.274   1.465   7.290 -1.2063  0.2558 -0.6338
 2458TIP3    H229010   1.243   1.363   7.398  0.3908  1.4638  1.0222
 2459TIP3   OH229011   4.898   6.661   8.332 -0.2159  0.0231 -0.6721
 2459TIP3    H129012   4.854   6.702   8.258 -1.0000  1.1979  0.4106
 2459TIP3    H229013   4.877   6.568   8.324 -3.1539  0.5437 -0.0759
 2460TIP3   OH229014   0.642   2.244   0.815  0.4181 -0.1681  0.3913
 2460TIP3    H129015   0.613   2.211   0.730  0.7901  1.1088 -0.2540
 2460TIP3    H229016   0.730   2.207   0.826  1.3509  1.5118 -0.9096
 2461TIP3   OH229017   4.841   0.059   8.153  0.4414 -0.4164  0.3330
 2461TIP3    H129018   4.817   0.124   8.086  0.7052 -0.0795  0.5653
 2461TIP3    H229019   4.892   0.108   8.217  0.9676 -0.9303  0.3204
 2462TIP3   OH229020   2.691   1.775   8.231  0.0011  0.0782 -0.0884
 2462TIP3    H129021   2.740   1.810   8.306 -0.2579  0.3657 -0.0521
 2462TIP3    H229022   2.745   1.701   8.200  0.1806  0.0447  0.2916
 2463TIP3   OH229023   5.060   1.936   8.669  0.0037 -0.0919 -0.3304
 2463TIP3    H129024   4.993   1.981   8.720  0.7747  0.0980  0.5392
 2463TIP3    H229025   5.017   1.856   8.638 -0.8552  0.4090 -0.4645
 2464TIP3   OH229026   5.542   3.235   1.338  0.1460  0.3170 -0.1357
 2464TIP3    H129027   5.585   3.320   1.326 -0.1676  0.3316 -1.2513
 2464TIP3    H229028   5.613   3.173   1.347  0.3854  0.7500  1.2238
 2465TIP3   OH229029   6.322   5.279   1.143 -0.3909  0.6076 -0.2002
 2465TIP3    H129030   6.316   5.184   1.148 -2.2009  0.6768 -0.3725
 2465TIP3    H229031   6.410   5.296   1.109  0.4945 -0.9284  1.1654
 2466TIP3   OH229032   0.864   6.244   1.141 -0.2812 -0.1324  0.0901
 2466TIP3    H129033   0.936   6.284   1.091 -0.9881  0.0690 -0.7995
 2466TIP3    H229034   0.812   6.199   1.074 -1.1995  0.0572  0.6676
 2467TIP3   OH229035   1.083   4.869   2.759 -0.5138  0.0339 -0.0967
 2467TIP3    H129036   1.165   4.894   2.803 -0.4248 -0.2019 -0.1284
 2467TIP3    H229037   1.014   4.901   2.818 -0.4057 -1.9435  1.1893
 2468TIP3   OH229038   4.520   0.685   1.140 -0.5085 -0.1877  0.3002
 2468TIP3    H129039   4.440   0.632   1.132 -2.6517  3.0869 -4.3485
 2468TIP3    H229040   4.492   0.761   1.192  1.2183 -1.2130  2.9280
 2469TIP3   OH229041   6.074   0.255   2.701 -0.1183 -0.0108 -0.2757
 2469TIP3    H129042   6.168   0.264   2.686 -0.3586  0.6770 -1.4402
 2469TIP3    H229043   6.040   0.211   2.623 -1.0190  1.3498 -0.6826
 2470TIP3   OH229044   4.520   2.974   7.744  0.2786 -0.1306 -0.3883
 2470TIP3    H129045   4.435   2.966   7.701  0.9697 -0.2853 -1.7837
 2470TIP3    H229046   4.565   2.892   7.723  0.8359  0.0087  0.2112
 2471TIP3   OH229047   4.502   6.105   0.191  0.4300 -0.2969 -0.0965
 2471TIP3    H129048   4.421   6.057   0.176 -0.2036  0.5239  0.6000
 2471TIP3    H229049   4.517   6.153   0.109  0.2108 -0.4493 -0.2269
 2472TIP3   OH229050   3.971   1.273   1.785 -0.0636 -0.2000 -0.1393
 2472TIP3    H129051   3.945   1.254   1.875 -1.1351  0.4095 -0.3015
 2472TIP3    H229052   4.015   1.358   1.790 -1.9594  0.8462 -0.4511
 2473TIP3   OH229053   5.416   0.103   2.333 -1.2594 -0.2088  0.0049
 2473TIP3    H129054   5.337   0.147   2.301  0.6714  1.8401 -2.3846
 2473TIP3    H229055   5.466   0.172   2.376  0.0898 -0.9952 -0.2524
 2474TIP3   OH229056   0.514   4.704   8.257  0.0619 -0.3558  0.2040
 2474TIP3    H129057   0.491   4.676   8.345 -0.6354  0.1063  0.1766
 2474TIP3    H229058   0.561   4.787   8.270  1.6196 -1.2157  0.2510
 2475TIP3   OH229059   1.800   2.322   1.698  0.5074  0.0553  0.3808
 2475TIP3    H129060   1.796   2.410   1.736  0.7160 -0.2681  1.1674
 2475TIP3    H229061   1.889   2.314   1.664  1.2051 -0.6252  2.2555
 2476TIP3   OH229062   6.366   4.951   0.199 -0.8417 -0.3546 -0.3694
 2476TIP3    H129063   6.281   4.941   0.156 -1.3532  0.0451  0.5178
 2476TIP3    H229064   6.385   5.045   0.191  0.0369 -0.5997 -1.4861
 2477TIP3   OH229065   1.265   4.406   7.767  0.3765  0.7030  0.1511
 2477TIP3    H129066   1.341   4.450   7.805  1.2548 -0.5816 -0.0533
 2477TIP3    H229067   1.200   4.406   7.837  1.2502  0.1591  0.9946
 2478TIP3   OH229068   4.796   4.206   1.380 -0.1277  1.0186 -0.6048
 2478TIP3    H129069   4.869   4.269   1.376  0.5625  0.2240 -0.8931
 2478TIP3    H229070   4.820   4.139   1.317  1.0007 -1.4482  2.1912
 2479TIP3   OH229071   6.106   4.947   0.546  0.7834 -0.1379 -0.2568
 2479TIP3    H129072   6.056   4.868   0.568 -0.9416  1.2896  1.2741
 2479TIP3    H229073   6.067   5.015   0.600  2.0991  1.8225 -1.6749
 2480TIP3   OH229074   1.521   5.413   2.548  0.5148  0.3232  0.1931
 2480TIP3    H129075   1.568   5.404   2.630  2.3027 -0.2006 -0.8367
 2480TIP3    H229076   1.559   5.347   2.490 -0.0971  1.2342 -1.3209
 2481TIP3   OH229077   0.089   4.637   2.580 -0.2028  0.1177  0.4175
 2481TIP3    H129078   0.138   4.569   2.625  0.2754  0.3673  0.2718
 2481TIP3    H229079   0.029   4.672   2.646 -0.2373 -0.2337  0.5727
 2482TIP3   OH229080   0.375   2.246   0.245  0.6464 -0.3417 -1.0217
 2482TIP3    H129081   0.368   2.170   0.187  1.7115 -0.1067 -1.4758
 2482TIP3    H229082   0.358   2.321   0.188 -0.5937 -0.2211 -0.5351
 2483TIP3   OH229083   5.468   0.619   2.132  0.6496 -0.3483 -0.3284
 2483TIP3    H129084   5.502   0.639   2.220 -0.0111 -0.0437 -0.1352
 2483TIP3    H229085   5.415   0.541   2.144 -1.7919  1.2853  0.1389
 2484TIP3   OH229086   2.876   3.393   0.303  0.4604 -0.1917 -0.1920
 2484TIP3    H129087   2.897   3.414   0.212  0.8540 -1.1806 -0.3425
 2484TIP3    H229088   2.954   3.348   0.336 -0.0829 -0.7876  0.3060
 2485TIP3   OH229089   0.556   6.088   1.747  0.0102 -0.0943 -0.2289
 2485TIP3    H129090   0.505   6.015   1.711 -0.0936 -0.2185  0.1719
 2485TIP3    H229091   0.615   6.113   1.675  0.5630 -1.0507 -0.1321
 2486TIP3   OH229092   1.758   4.431   1.000  0.0052  0.1643 -0.2771
 2486TIP3    H129093   1.691   4.433   0.932  0.0768 -1.4239 -0.4132
 2486TIP3    H229094   1.709   4.424   1.082 -0.2388  4.6372  0.1983
 2487TIP3   OH229095   2.267   3.900   7.658 -0.3124  0.3681 -0.4154
 2487TIP3    H129096   2.355   3.861   7.668 -1.1035 -1.6719 -0.8666
 2487TIP3    H229097   2.248   3.892   7.565 -0.2439  2.6051 -0.6710
 2488TIP3   OH229098   0.044   3.817   7.280 -0.1979 -0.1226 -0.3852
 2488TIP3    H129099   0.023   3.891   7.336  1.2672 -0.8178  1.1844
 2488TIP3    H229100   0.136   3.831   7.255 -0.8300  0.2046 -2.7411
 2489TIP3   OH229101   2.539   4.410   7.961  0.1160  0.0589  0.5154
 2489TIP3    H129102   2.557   4.321   7.930 -0.5596  0.3151 -0.6558
 2489TIP3    H229103   2.617   4.460   7.937  1.4345 -0.6175  3.0561
 2490TIP3   OH229104   1.951   4.847   7.400 -0.6943 -0.6704  0.3366
 2490TIP3    H129105   1.982   4.824   7.488  1.1509 -2.3193 -0.6728
 2490TIP3    H229106   1.921   4.764   7.362 -3.8019  0.3795  0.1703
 2491TIP3   OH229107   4.037   1.037   7.341 -0.2990 -0.0302  0.4588
 2491TIP3    H129108   3.968   1.103   7.337 -0.9471 -0.7467 -1.5113
 2491TIP3    H229109   4.092   1.054   7.264 -1.0912 -2.3191 -0.7338
 2492TIP3   OH229110   4.707   4.966   7.863 -0.0929  0.5324 -0.1509
 2492TIP3    H129111   4.749   4.890   7.824  1.0232  0.8342  0.4235
 2492TIP3    H229112   4.656   4.931   7.936  0.0347  0.2800 -0.1843
 2493TIP3   OH229113   0.723   2.971   0.360 -0.2119  0.4339  0.0707
 2493TIP3    H129114   0.790   3.039   0.359  1.4138 -1.0734 -0.2406
 2493TIP3    H229115   0.674   2.984   0.279  0.3732  0.9515 -0.2079
 2494TIP3   OH229116   0.718   6.798   7.773  0.9103  0.2512 -0.4702
 2494TIP3    H129117   0.628   6.818   7.747  0.4823 -2.0474 -0.9552
 2494TIP3    H229118   0.754   6.881   7.803 -0.5904  1.7521 -2.5706
 2495TIP3   OH229119   1.937   4.775   6.982  0.6333 -0.4743  0.7431
 2495TIP3    H129120   1.968   4.848   7.035  0.1731 -0.1606  0.5823
 2495TIP3    H229121   1.843   4.791   6.970  1.0660  0.5489 -1.8921
 2496TIP3   OH229122   2.476   4.402   8.230  0.4135  0.4380  0.4999
 2496TIP3    H129123   2.474   4.306   8.235 -0.5711  0.3736 -0.6545
 2496TIP3    H229124   2.476   4.421   8.136 -0.7889  1.5775  0.7031
 2497TIP3   OH229125   6.623   3.857   7.442 -0.0731 -0.1445 -0.0239
 2497TIP3    H129126   6.656   3.791   7.502 -1.0987  0.2862  1.0419
 2497TIP3    H229127   6.640   3.821   7.355  0.5004 -1.2411  0.5305
 2498TIP3   OH229128   6.458   4.428   2.424 -0.1668  0.4624  0.3894
 2498TIP3    H129129   6.396   4.373   2.375  0.8741  0.0448 -0.4842
 2498TIP3    H229130   6.530   4.370   2.447  0.0894  1.0328  1.0739
 2499TIP3   OH229131   4.543   0.440   1.587 -0.3394  0.5220 -0.5947
 2499TIP3    H129132   4.606   0.390   1.536 -1.8203 -2.0345 -0.0610
 2499TIP3    H229133   4.479   0.471   1.523 -0.6156 -0.1641 -0.6479
 2500TIP3   OH229134   5.615   3.828   1.311  0.1011  0.3633 -0.6733
 2500TIP3    H129135   5.625   3.828   1.406  2.6029 -0.4175 -0.8667
 2500TIP3    H229136   5.654   3.911   1.283 -0.3767  0.4624 -1.0482
 2501TIP3   OH229137   0.507   6.472   2.053  0.3223  0.8486  0.4297
 2501TIP3    H129138   0.546   6.421   1.982 -0.3971 -0.3270  0.8525
 2501TIP3    H229139   0.489   6.557   2.015 -3.2766 -0.7335 -1.9641
 2502TIP3   OH229140   0.331   4.782   2.614 -0.2677  0.4234  0.0531
 2502TIP3    H129141   0.390   4.781   2.539 -0.0036 -0.4844  0.2593
 2502TIP3    H229142   0.252   4.736   2.583 -1.0529  1.9804 -0.3496
 2503TIP3   OH229143   3.298   1.014   2.118  0.2797 -0.6701 -0.4799
 2503TIP3    H129144   3.283   1.100   2.079  0.5656 -0.2740  0.2699
 2503TIP3    H229145   3.317   1.032   2.210 -2.5747 -1.7365  0.4316
 2504TIP3   OH229146   1.366   1.029   7.904 -0.3336  0.0764 -0.0219
 2504TIP3    H129147   1.416   1.017   7.985 -0.5395 -1.9365 -0.1210
 2504TIP3    H229148   1.424   1.079   7.848  0.2077  0.6796  1.0351
 2505TIP3   OH229149   4.467   0.303   2.230  0.8794  0.4966 -0.4903
 2505TIP3    H129150   4.373   0.309   2.213  0.7495  2.0849  0.5955
 2505TIP3    H229151   4.485   0.210   2.230 -0.6780  0.1631 -0.8179
 2506TIP3   OH229152   5.369   6.022   2.069  0.0368 -0.9604  0.0262
 2506TIP3    H129153   5.441   6.080   2.090 -0.2659 -1.1395  1.7058
 2506TIP3    H229154   5.347   6.042   1.978  0.6717  0.7361  0.2197
 2507TIP3   OH229155   3.656   2.567   0.834  0.2741 -0.8126  0.3597
 2507TIP3    H129156   3.638   2.555   0.927 -2.0967 -0.2618  0.0344
 2507TIP3    H229157   3.584   2.522   0.790 -1.1765  2.5892 -1.0911
 2508TIP3   OH229158   2.166   3.464   7.102  0.3795 -0.0283  0.4176
 2508TIP3    H129159   2.190   3.550   7.136  1.8076 -0.3334  0.2337
 2508TIP3    H229160   2.190   3.402   7.172  1.2959 -0.4567 -0.2633
 2509TIP3   OH229161   4.242   5.167   7.936  0.1127 -0.3690 -0.3292
 2509TIP3    H129162   4.154   5.128   7.926 -0.4469  0.1152  2.1470
 2509TIP3    H229163   4.300   5.104   7.893 -1.4477 -0.4423 -2.5290
 2510TIP3   OH229164   1.338   0.646   0.959 -0.1848 -0.2079  0.4529
 2510TIP3    H129165   1.273   0.605   0.902  0.4610 -0.8490  0.1626
 2510TIP3    H229166   1.409   0.671   0.900  0.1254 -0.1303  0.8560
 2511TIP3   OH229167   2.676   4.720   8.477  0.1635 -0.5286  0.5059
 2511TIP3    H129168   2.590   4.684   8.455  0.5634 -1.2967  0.1501
 2511TIP3    H229169   2.714   4.655   8.537  1.2119 -1.1310 -0.7502
 2512TIP3   OH229170   3.182   0.161   1.644  0.6888 -0.5745  0.8267
 2512TIP3    H129171   3.113   0.227   1.642  0.0104 -1.1883  2.1841
 2512TIP3    H229172   3.199   0.141   1.552 -0.9174 -0.3513  0.4412
 2513TIP3   OH229173   5.519   0.359   7.358 -0.2862 -0.3880 -0.9196
 2513TIP3    H129174   5.590   0.343   7.420 -0.5878  1.2121 -0.0990
 2513TIP3    H229175   5.552   0.430   7.302 -0.5847 -0.8123 -1.6481
 2514TIP3   OH229176   2.225   1.627   0.565  0.0623  0.1512  0.1806
 2514TIP3    H129177   2.163   1.565   0.603 -0.7943 -0.6041 -2.2756
 2514TIP3    H229178   2.291   1.572   0.523 -2.1499  0.5626 -4.4521
 2515TIP3   OH229179   6.357   6.113   7.310  0.3521  0.6738  0.0319
 2515TIP3    H129180   6.313   6.151   7.234  0.0529 -0.6341 -0.4725
 2515TIP3    H229181   6.448   6.104   7.282 -0.2253 -2.3804 -1.3017
 2516TIP3   OH229182   3.077   1.502   8.665 -0.2665 -0.3506 -0.1384
 2516TIP3    H129183   3.172   1.497   8.660 -0.3843 -2.0781 -1.7130
 2516TIP3    H229184   3.055   1.469   8.752  0.5495 -0.5222  0.0023
 2517TIP3   OH229185   0.302   6.594   1.875 -0.9648  0.4733 -0.1518
 2517TIP3    H129186   0.368   6.598   1.806 -0.5861  0.6065  0.2148
 2517TIP3    H229187   0.249   6.517   1.853  0.2818 -0.5800  0.4232
 2518TIP3   OH229188   4.912   0.206   0.184 -0.1184  0.6617  0.2405
 2518TIP3    H129189   4.825   0.245   0.179 -0.3163  0.0960 -2.5791
 2518TIP3    H229190   4.963   0.253   0.119  0.7373 -1.1424 -0.4804
 2519TIP3   OH229191   0.515   3.937   8.703  0.1546  0.4368 -0.1662
 2519TIP3    H129192   0.480   4.000   8.766 -2.3349 -0.9310 -0.0364
 2519TIP3    H229193   0.589   3.897   8.748 -0.6832  0.5194  1.3723
 2520TIP3   OH229194   4.595   5.271   6.270 -0.1165  0.1804 -0.3923
 2520TIP3    H129195   4.688   5.279   6.288 -0.0379  0.6153 -0.9740
 2520TIP3    H229196   4.588   5.199   6.208 -0.2409 -0.3090  0.1794
 2521TIP3   OH229197   3.217   0.617   8.340 -0.2712  0.2800  0.0567
 2521TIP3    H129198   3.269   0.676   8.286  0.8521 -2.3601 -1.9804
 2521TIP3    H229199   3.277   0.586   8.408 -0.8703  1.3941  1.1509
 2522TIP3   OH229200   6.196   5.838   7.022  0.3107  0.0984  0.0515
 2522TIP3    H129201   6.141   5.769   6.985  2.8140 -1.2491 -1.5119
 2522TIP3    H229202   6.179   5.914   6.966  0.9062 -0.6783 -1.2418
 2523TIP3   OH229203   2.869   2.978   2.672 -0.3030 -0.1416  0.0687
 2523TIP3    H129204   2.783   2.938   2.671 -0.0864 -0.6274  0.3730
 2523TIP3    H229205   2.919   2.926   2.735  0.4474 -0.3738 -0.7078
 2524TIP3   OH229206   2.265   4.414   7.553 -0.2068  0.6092 -0.3062
 2524TIP3    H129207   2.319   4.349   7.599 -0.7841  1.0690  1.0917
 2524TIP3    H229208   2.295   4.498   7.587 -1.7654  0.8787  0.5229
 2525TIP3   OH229209   4.527   4.493   8.085 -0.1374 -1.0566  0.3346
 2525TIP3    H129210   4.501   4.427   8.149 -0.9685 -0.6584  0.4247
 2525TIP3    H229211   4.451   4.501   8.027 -0.2039  0.0972  0.5604
 2526TIP3   OH229212   0.796   3.987   8.056  0.2039  0.3180 -0.1017
 2526TIP3    H129213   0.847   3.940   8.122 -1.2939 -0.6872  0.4184
 2526TIP3    H229214   0.797   3.929   7.979 -1.2744 -0.4373  0.3916
 2527TIP3   OH229215   2.914   2.034   0.951 -0.1430  0.2956 -0.1135
 2527TIP3    H129216   2.842   2.096   0.939 -0.6365 -0.5036 -1.4322
 2527TIP3    H229217   2.939   2.009   0.863  0.8711 -0.4567  0.3734
 2528TIP3   OH229218   5.592   3.051   8.507 -0.4763  0.2846  0.0351
 2528TIP3    H129219   5.639   3.012   8.580 -0.3276 -1.2846 -0.8517
 2528TIP3    H229220   5.508   3.004   8.504 -0.6207  0.5682 -0.5834
 2529TIP3   OH229221   4.115   6.159   1.059 -0.2126  0.0336  0.3949
 2529TIP3    H129222   4.095   6.157   1.153  0.8408 -0.1314  0.6261
 2529TIP3    H229223   4.209   6.145   1.055  0.0717  2.0578 -0.5960
 2530TIP3   OH229224   4.719   6.489   1.434 -0.4354  0.2232 -0.1959
 2530TIP3    H129225   4.755   6.441   1.359  0.5135  0.9733 -0.2387
 2530TIP3    H229226   4.731   6.431   1.509  1.8387  0.8483 -0.0272
 2531TIP3   OH229227   4.068   3.071   0.778 -0.4695  0.0324 -0.0276
 2531TIP3    H129228   3.993   3.114   0.818  0.2579  0.2777  1.1231
 2531TIP3    H229229   4.047   3.066   0.685 -1.5182  0.8911  0.1510
 2532TIP3   OH229230   2.473   1.620   1.601 -0.1643  0.3000  0.5877
 2532TIP3    H129231   2.509   1.706   1.581 -0.2643  0.4217  0.9151
 2532TIP3    H229232   2.435   1.590   1.519  0.6072  0.2059  0.2573
 2533TIP3   OH229233   5.509   3.013   2.047 -0.0512 -0.3515 -0.3196
 2533TIP3    H129234   5.542   3.031   2.134 -0.6816  0.0778 -0.1623
 2533TIP3    H229235   5.503   2.917   2.043  1.0602 -0.4305 -0.3107
 2534TIP3   OH229236   0.397   6.042   0.023  0.2153 -0.3735 -0.0679
 2534TIP3    H129237   0.305   6.017   0.019 -0.1253  0.7271  0.5522
 2534TIP3    H229238   0.397   6.137   0.008  0.9414  0.1570  2.7862
 2535TIP3   OH229239   5.523   1.817   1.112 -0.1709  0.3615 -0.3749
 2535TIP3    H129240   5.544   1.735   1.067  0.1512  0.5338 -0.5488
 2535TIP3    H229241   5.561   1.885   1.056  0.5537  0.5631  0.3284
 2536TIP3   OH229242   2.117   6.596   7.559  0.4843  0.0202  0.3797
 2536TIP3    H129243   2.178   6.669   7.565  1.4773 -0.6275 -1.1416
 2536TIP3    H229244   2.162   6.531   7.504  0.1659 -2.2978  2.6466
 2537TIP3   OH229245   4.468   6.703   7.694 -0.1436 -0.5216 -0.5394
 2537TIP3    H129246   4.387   6.694   7.743 -0.2469  0.3145 -0.5387
 2537TIP3    H229247   4.460   6.641   7.621  0.3512 -2.3649  0.9063
 2538TIP3   OH229248   1.912   2.626   0.168  0.2744 -0.5850 -0.0044
 2538TIP3    H129249   1.849   2.697   0.181  1.2397  0.3569 -0.3394
 2538TIP3    H229250   1.947   2.609   0.256 -0.5686 -1.2510  0.2170
 2539TIP3   OH229251   6.767   1.884   8.689 -0.0171  0.3204  0.0193
 2539TIP3    H129252   6.675   1.856   8.697  0.0078  0.6760  2.4041
 2539TIP3    H229253   6.763   1.977   8.669 -0.1743  0.2960 -0.0622
 2540TIP3   OH229254   3.863   4.000   6.493  0.3409 -0.0638  0.0607
 2540TIP3    H129255   3.946   4.045   6.508  0.5705 -0.1907 -0.7600
 2540TIP3    H229256   3.806   4.066   6.454  0.4207 -0.2567 -0.3966
 2541TIP3   OH229257   2.227   4.290   1.411 -0.2018  0.0965  0.1679
 2541TIP3    H129258   2.173   4.326   1.341 -0.2169  3.2221  1.6482
 2541TIP3    H229259   2.166   4.243   1.467 -1.3088  2.7033  1.2580
 2542TIP3   OH229260   4.647   4.961   8.159  0.0654  0.3495 -0.0742
 2542TIP3    H129261   4.665   4.871   8.185  3.3100  0.4054 -1.7007
 2542TIP3    H229262   4.561   4.980   8.197  1.1603 -1.9165  4.1772
 2543TIP3   OH229263   4.420   0.147   1.575  0.0462  0.6370  0.0776
 2543TIP3    H129264   4.408   0.237   1.607 -2.4498  0.4934 -0.2654
 2543TIP3    H229265   4.367   0.094   1.634 -0.6410 -0.2587 -1.2954
 2544TIP3   OH229266   4.638   4.952   7.286 -0.3870  0.1075  0.1079
 2544TIP3    H129267   4.638   4.871   7.235  0.9442 -1.3334  2.2171
 2544TIP3    H229268   4.545   4.970   7.301 -0.7450 -2.1203  1.1074
 2545TIP3   OH229269   6.081   1.501   2.143  0.2967  0.0522 -0.4036
 2545TIP3    H129270   6.057   1.593   2.135 -1.0782 -0.1061  1.3934
 2545TIP3    H229271   6.009   1.453   2.102  0.2100 -0.2669  0.1130
 2546TIP3   OH229272   4.669   5.766   1.453  0.6478 -0.1724  0.6027
 2546TIP3    H129273   4.730   5.810   1.394 -0.9686  0.9831 -0.3141
 2546TIP3    H229274   4.648   5.832   1.520  0.7560 -0.7162  1.1867
 2547TIP3   OH229275   2.711   0.452   2.742  0.6336 -0.5570 -0.1454
 2547TIP3    H129276   2.791   0.446   2.691  0.1121  1.4881 -1.3080
 2547TIP3    H229277   2.641   0.463   2.678 -0.1112  1.4906  0.9084
 2548TIP3   OH229278   0.813   5.033   2.295  0.6761  0.2123 -0.6617
 2548TIP3    H129279   0.845   5.080   2.218  1.2370 -1.4332 -1.4642
 2548TIP3    H229280   0.874   4.960   2.306 -0.3957 -0.5758  0.3159
 2549TIP3   OH229281   0.560   5.417   0.720 -0.4490 -0.1746 -0.2028
 2549TIP3    H129282   0.622   5.383   0.784 -1.5228  0.0869  1.0299
 2549TIP3    H229283   0.477   5.373   0.742 -1.1180  0.8409 -0.6338
 2550TIP3   OH229284   0.165   6.759   2.316  0.1017  0.9154  0.4078
 2550TIP3    H129285   0.142   6.780   2.225 -0.0311 -1.5615 -0.1975
 2550TIP3    H229286   0.255   6.790   2.325  1.4383 -1.8693 -1.7904
 2551TIP3   OH229287   1.798   6.616   0.392 -0.2016  0.1060 -0.5854
 2551TIP3    H129288   1.781   6.610   0.486  0.5923 -1.3049 -0.4889
 2551TIP3    H229289   1.873   6.674   0.385 -0.6660  0.7367 -0.4126
 2552TIP3   OH229290   6.168   4.742   7.236 -0.1817 -0.2285 -0.5455
 2552TIP3    H129291   6.138   4.684   7.306 -1.1512  1.4433  0.4993
 2552TIP3    H229292   6.115   4.718   7.160 -2.0261  0.6051  0.4267
 2553TIP3   OH229293   6.676   6.219   2.470  0.0205 -0.3704  0.2606
 2553TIP3    H129294   6.725   6.137   2.467  1.6590  0.5978 -1.7354
 2553TIP3    H229295   6.731   6.279   2.520  1.0389  0.7366 -2.0322
 2554TIP3   OH229296   6.192   2.966   0.535 -0.0023  0.1169 -0.5335
 2554TIP3    H129297   6.109   2.983   0.490 -1.0086 -1.7644  0.5314
 2554TIP3    H229298   6.182   3.007   0.620  0.1959 -0.0474 -0.4311
 2555TIP3   OH229299   3.386   2.409   1.748  0.2492 -0.3842 -0.3429
 2555TIP3    H129300   3.444   2.459   1.691  0.2346  0.6527  0.5218
 2555TIP3    H229301   3.298   2.424   1.711  0.0296  1.6597  0.8540
 2556TIP3   OH229302   2.962   3.191   8.089 -0.7265  0.3900 -0.5158
 2556TIP3    H129303   2.877   3.202   8.131 -0.6380  0.4573 -0.3519
 2556TIP3    H229304   2.980   3.277   8.049 -1.1220  0.1288 -1.2844
 2557TIP3   OH229305   3.967   4.008   8.155 -0.0697 -0.9516  0.7651
 2557TIP3    H129306   3.949   3.940   8.091 -0.9648 -0.1840  0.1780
 2557TIP3    H229307   4.022   3.965   8.221  0.2851 -1.9313 -0.1507
 2558TIP3   OH229308   6.352   4.739   1.275  0.0245  0.3646 -0.3435
 2558TIP3    H129309   6.401   4.760   1.195 -1.7733 -0.4441 -1.7402
 2558TIP3    H229310   6.415   4.696   1.332  0.9273 -0.7613 -2.1093
 2559TIP3   OH229311   4.635   0.985   0.914 -0.0661  0.0399 -0.1684
 2559TIP3    H129312   4.595   0.900   0.894 -1.9503  1.1007 -1.2018
 2559TIP3    H229313   4.645   0.985   1.009 -2.9332 -0.2259  0.2372
 2560TIP3   OH229314   5.370   3.887   7.817  0.2296 -0.3696  0.0051
 2560TIP3    H129315   5.289   3.839   7.798  0.2202 -0.5469  0.4773
 2560TIP3    H229316   5.340   3.974   7.843  0.2438 -0.1162 -0.7843
 2561TIP3   OH229317   3.954   6.426   2.124 -0.3706  0.6152 -0.6633
 2561TIP3    H129318   3.870   6.385   2.146  1.5040 -2.6548  1.0648
 2561TIP3    H229319   3.954   6.508   2.174 -2.5428  0.8399 -0.9011
 2562TIP3   OH229320   5.142   4.032   8.623 -0.2240 -0.4262  0.0684
 2562TIP3    H129321   5.208   4.073   8.567 -0.1237 -1.4242 -0.5666
 2562TIP3    H229322   5.088   4.105   8.654  2.0728  0.6089  1.8663
 2563TIP3   OH229323   3.022   2.890   0.866 -0.0935 -0.1551 -0.1068
 2563TIP3    H129324   3.044   2.923   0.953 -0.9584  0.6055 -0.1669
 2563TIP3    H229325   3.106   2.859   0.831  0.6465  1.3730  0.2178
 2564TIP3   OH229326   3.783   5.405   1.781  0.2080  0.2363  0.4497
 2564TIP3    H129327   3.714   5.383   1.843  1.1828 -0.5544  1.2885
 2564TIP3    H229328   3.854   5.344   1.801  1.0881  0.9071 -0.5038
 2565TIP3   OH229329   0.614   0.522   0.681 -0.2267 -0.6307  0.4595
 2565TIP3    H129330   0.615   0.613   0.709  1.5491 -0.2219 -0.7430
 2565TIP3    H229331   0.566   0.475   0.750  0.5582  0.8844  2.0917
 2566TIP3   OH229332   4.631   4.054   1.525 -0.2651  0.0543  0.0052
 2566TIP3    H129333   4.695   4.097   1.470 -0.7724  0.3659 -0.3519
 2566TIP3    H229334   4.657   4.076   1.615  3.1006 -3.8491  0.3041
 2567TIP3   OH229335   3.788   5.696   0.305  0.1215  0.3964 -0.0418
 2567TIP3    H129336   3.714   5.708   0.365  0.1957 -1.0938  0.3774
 2567TIP3    H229337   3.863   5.681   0.362  0.4570  0.3385 -0.4964
 2568TIP3   OH229338   1.412   2.912   0.218 -0.0426 -0.0751  0.2715
 2568TIP3    H129339   1.392   2.895   0.310  1.3766 -1.6475  0.3310
 2568TIP3    H229340   1.327   2.936   0.179 -0.9654 -0.9862  1.6328
 2569TIP3   OH229341   6.579   4.881   1.760  0.1187 -0.0946 -0.6314
 2569TIP3    H129342   6.661   4.907   1.802  0.3036  2.1697 -2.2533
 2569TIP3    H229343   6.606   4.817   1.694 -0.0757 -2.9949  1.8861
 2570TIP3   OH229344   4.689   3.672   0.120  0.2402  0.5226  0.5397
 2570TIP3    H129345   4.713   3.763   0.104  2.3564  0.2485  1.7353
 2570TIP3    H229346   4.597   3.675   0.144 -0.3398  2.0601 -1.5760
 2571TIP3   OH229347   6.117   4.650   2.131 -0.1783  0.0797 -0.4659
 2571TIP3    H129348   6.149   4.708   2.062  0.8022 -0.3428 -0.3787
 2571TIP3    H229349   6.164   4.568   2.117  1.4693  0.5371  1.8107
 2572TIP3   OH229350   5.952   1.497   8.250 -0.0932 -0.0663  0.5242
 2572TIP3    H129351   6.006   1.419   8.243  1.8193  1.0966  1.6008
 2572TIP3    H229352   5.984   1.555   8.181 -1.7985 -0.3418 -0.5621
 2573TIP3   OH229353   6.528   4.938   8.003  0.1501  0.0317  0.2054
 2573TIP3    H129354   6.518   4.843   8.001  1.3114 -0.1059 -1.8588
 2573TIP3    H229355   6.464   4.970   7.940  0.7738  0.4775 -0.2134
 2574TIP3   OH229356   6.371   0.636   2.626 -0.3305 -0.1681 -0.0946
 2574TIP3    H129357   6.458   0.625   2.585  0.3741  2.4910  0.5182
 2574TIP3    H229358   6.346   0.726   2.605 -1.9496 -0.1732  1.6152
 2575TIP3   OH229359   3.255   2.366   8.680 -0.2508 -0.7470 -0.0829
 2575TIP3    H129360   3.190   2.335   8.616  1.0597 -2.4441 -0.6940
 2575TIP3    H229361   3.334   2.381   8.628  0.2223  0.0224  0.8307
 2576TIP3   OH229362   0.697   6.794   2.474  0.2762  0.0335  0.1554
 2576TIP3    H129363   0.734   6.706   2.476  1.0738  0.3749  1.0050
 2576TIP3    H229364   0.604   6.782   2.492 -0.1681 -0.8681 -2.3035
 2577TIP3   OH229365   6.128   5.137   0.112  0.0437  0.3680 -0.1456
 2577TIP3    H129366   6.123   5.217   0.164  2.2430  0.8893 -0.6215
 2577TIP3    H229367   6.094   5.069   0.170  0.2195  1.3026  1.0949
 2578TIP3   OH229368   3.157   5.214   8.680  0.5148 -0.1638  0.0037
 2578TIP3    H129369   3.121   5.302   8.687  0.4319 -0.1561 -0.4942
 2578TIP3    H229370   3.131   5.184   8.593  0.4340 -0.7302  0.2195
 2579TIP3   OH229371   2.480   0.435   1.119  0.1363 -0.1587  0.0884
 2579TIP3    H129372   2.500   0.367   1.184  0.4377 -0.7260 -0.5858
 2579TIP3    H229373   2.525   0.513   1.151  1.1463 -0.7017  0.0314
 2580TIP3   OH229374   1.450   3.964   0.686  0.5563  0.1733 -0.0668
 2580TIP3    H129375   1.476   3.924   0.769 -0.6103 -0.8886 -0.1711
 2580TIP3    H229376   1.384   4.028   0.711  0.7523  0.3906 -0.1079
 2581TIP3   OH229377   5.796   1.637   1.912  0.4247  0.3792  0.1463
 2581TIP3    H129378   5.813   1.688   1.833 -0.0295  1.3931  0.6798
 2581TIP3    H229379   5.852   1.677   1.979  1.2630 -0.8554  0.2089
 2582TIP3   OH229380   4.438   2.132   2.080 -0.1873 -0.5153 -0.7286
 2582TIP3    H129381   4.405   2.205   2.132 -1.2793 -1.0567 -0.6321
 2582TIP3    H229382   4.433   2.162   1.990  1.2280  0.2390 -0.5800
 2583TIP3   OH229383   5.600   2.882   0.910 -0.4601 -0.8758 -0.4261
 2583TIP3    H129384   5.562   2.956   0.958  0.1528 -0.4390 -0.5996
 2583TIP3    H229385   5.578   2.806   0.963  0.6286 -0.3566  0.8285
 2584TIP3   OH229386   3.115   4.150   8.464 -0.2593  0.0904  0.0315
 2584TIP3    H129387   3.091   4.143   8.557 -0.2482 -0.0787  0.0212
 2584TIP3    H229388   3.125   4.244   8.450  0.8093  0.0549  0.4783
 2585TIP3   OH229389   3.588   0.145   1.184  0.1965 -0.4981  0.6513
 2585TIP3    H129390   3.551   0.083   1.121 -0.6287 -0.8825  1.4918
 2585TIP3    H229391   3.665   0.180   1.140 -1.0918  0.2718 -1.1384
 2586TIP3   OH229392   6.821   2.784   8.589  0.2338  0.1146  0.0066
 2586TIP3    H129393   6.812   2.766   8.495  1.3884 -0.4034 -0.0197
 2586TIP3    H229394   6.788   2.705   8.631 -2.2814  1.1458  0.1352
 2587TIP3   OH229395   6.768   4.739   7.755 -0.0145 -0.2616  0.3714
 2587TIP3    H129396   6.779   4.789   7.836 -0.7722 -1.1982  1.0726
 2587TIP3    H229397   6.845   4.683   7.750 -0.5278 -1.0446  1.0690
 2588TIP3   OH229398   1.198   0.879   7.605  0.0022  0.3511  0.0050
 2588TIP3    H129399   1.122   0.914   7.557  1.1480  0.6759 -1.6662
 2588TIP3    H229400   1.208   0.937   7.680 -0.3253  1.4104 -0.7479
 2589TIP3   OH229401   2.771   1.542   0.068 -0.5548 -0.0808 -0.0707
 2589TIP3    H129402   2.739   1.546  -0.022 -0.1960 -0.8332 -0.2458
 2589TIP3    H229403   2.728   1.614   0.113 -2.3008 -0.8997 -0.3576
 2590TIP3   OH229404   4.517   2.061   1.642 -0.3641 -0.1941  0.2384
 2590TIP3    H129405   4.581   1.997   1.674  0.0451 -0.7970 -1.6660
 2590TIP3    H229406   4.504   2.120   1.716  1.2078 -0.9692  1.2001
 2591TIP3   OH229407   4.869   5.012   7.573 -0.1984 -0.6079  0.4937
 2591TIP3    H129408   4.930   4.972   7.634 -0.2569 -0.8138  0.4177
 2591TIP3    H229409   4.804   4.944   7.555  0.6890 -1.0930 -1.0269
 2592TIP3   OH229410   4.930   5.362   0.783  0.1266  0.0927  0.5292
 2592TIP3    H129411   4.878   5.416   0.842 -0.9162 -1.1862  0.8390
 2592TIP3    H229412   4.961   5.290   0.837  1.9714  0.6223  0.2605
 2593TIP3   OH229413   0.104   6.497   8.099  0.5787  0.2526  0.6403
 2593TIP3    H129414   0.018   6.479   8.062  1.0398  0.0999 -0.3894
 2593TIP3    H229415   0.109   6.593   8.100  0.3254  0.2656  0.8876
 2594TIP3   OH229416   4.656   5.086   0.706  0.7170  0.0545  0.2066
 2594TIP3    H129417   4.689   5.020   0.646 -0.0038 -0.0140 -0.1256
 2594TIP3    H229418   4.669   5.048   0.793  2.0061  0.2668  0.1299
 2595TIP3   OH229419   3.783   0.364   0.448 -0.2067  0.5967 -0.0308
 2595TIP3    H129420   3.732   0.286   0.425 -1.2856  0.8537  1.3724
 2595TIP3    H229421   3.845   0.374   0.376 -0.0336 -1.5569 -0.2341
 2596TIP3   OH229422   2.059   2.491   7.666 -0.1524 -0.4967  0.7095
 2596TIP3    H129423   2.079   2.490   7.572 -0.6494  0.6089  0.5824
 2596TIP3    H229424   2.141   2.520   7.707 -0.0630 -0.5676  0.5822
 2597TIP3   OH229425   4.192   6.099   7.030  0.3461 -0.5713  0.5949
 2597TIP3    H129426   4.149   6.018   7.003 -0.2395 -0.2988  0.7047
 2597TIP3    H229427   4.142   6.169   6.988 -0.0254 -0.1912  1.6349
 2598TIP3   OH229428   6.789   4.951   2.178  0.8805 -0.4156  0.1294
 2598TIP3    H129429   6.879   4.963   2.209  0.4178  0.0460  1.3759
 2598TIP3    H229430   6.735   4.990   2.247 -0.2825 -0.8387 -0.5181
 2599TIP3   OH229431   4.633   1.172   7.565 -0.0822 -0.0525  0.0762
 2599TIP3    H129432   4.581   1.103   7.606 -0.4232  0.5555  0.6774
 2599TIP3    H229433   4.657   1.136   7.479 -0.6755 -0.7162  0.1788
 2600TIP3   OH229434   2.026   3.425   1.995 -0.0560  0.0052 -0.0333
 2600TIP3    H129435   2.042   3.495   1.931 -2.3396  0.1440 -0.5343
 2600TIP3    H229436   1.999   3.350   1.942  0.7136 -0.7399  0.6125
 2601TIP3   OH229437   1.668   3.234   1.527 -0.0719 -0.7322  0.2544
 2601TIP3    H129438   1.733   3.218   1.596 -0.5758 -0.2581  0.8586
 2601TIP3    H229439   1.585   3.243   1.575 -0.1119  1.8390 -0.1750
 2602TIP3   OH229440   2.674   0.444   0.344  0.2906  0.3576 -0.2763
 2602TIP3    H129441   2.617   0.371   0.370  3.0593 -2.0391 -0.5381
 2602TIP3    H229442   2.679   0.499   0.423 -1.4631  0.0771  0.0831
 2603TIP3   OH229443   2.426   5.134   7.131  0.8268 -0.7384  0.3730
 2603TIP3    H129444   2.492   5.121   7.064  0.5791  0.9701 -0.2605
 2603TIP3    H229445   2.372   5.055   7.127  1.9498 -1.5153 -0.0881
 2604TIP3   OH229446   6.389   6.244   0.974 -0.5239  0.1211 -0.1939
 2604TIP3    H129447   6.457   6.183   1.003 -1.1754 -1.4392 -1.7548
 2604TIP3    H229448   6.436   6.326   0.957  0.7974 -0.6388 -0.3291
 2605TIP3   OH229449   4.951   3.131   1.943  0.2507  0.2009 -0.1363
 2605TIP3    H129450   4.967   3.152   1.852  0.6166 -0.9479 -0.3466
 2605TIP3    H229451   4.857   3.111   1.947 -0.0252  1.4217 -0.0037
 2606TIP3   OH229452   6.689   3.691   8.137 -0.1477  0.0931  0.2129
 2606TIP3    H129453   6.767   3.690   8.193 -0.1461 -0.5196  0.2097
 2606TIP3    H229454   6.649   3.776   8.153 -1.3721 -0.8722  2.8537
 2607TIP3   OH229455   1.275   5.574   0.623  0.1624  0.5056  0.0378
 2607TIP3    H129456   1.306   5.625   0.548 -1.3106 -0.8091 -1.5428
 2607TIP3    H229457   1.330   5.495   0.623 -1.7493 -0.9159 -1.5853
 2608TIP3   OH229458   1.450   3.865   1.379  0.2462  0.1724 -0.4348
 2608TIP3    H129459   1.401   3.818   1.446  0.4323  0.1473 -0.3149
 2608TIP3    H229460   1.396   3.940   1.356  1.0295  1.2562  1.1076
 2609TIP3   OH229461   1.758   6.260   8.356 -0.6717 -0.5823 -0.3989
 2609TIP3    H129462   1.828   6.237   8.417  0.0084 -0.6838 -1.1892
 2609TIP3    H229463   1.679   6.265   8.409  0.1624  0.9207  0.7664
 2610TIP3   OH229464   3.334   6.554   8.209 -0.3374  0.4976  0.4837
 2610TIP3    H129465   3.365   6.624   8.152  1.1166 -1.2968 -1.0603
 2610TIP3    H229466   3.244   6.537   8.180 -0.8617  1.9436  1.1601
 2611TIP3   OH229467   5.050   2.832   0.628  0.5779  0.7052 -0.1169
 2611TIP3    H129468   4.976   2.882   0.662 -1.6245 -1.0915 -1.9778
 2611TIP3    H229469   5.105   2.898   0.584  0.3669  2.1359  1.6641
 2612TIP3   OH229470   5.074   0.236   1.731 -0.0475  0.1390  0.3822
 2612TIP3    H129471   5.152   0.194   1.695 -0.8810 -0.8690 -0.3379
 2612TIP3    H229472   5.065   0.200   1.819 -0.6458 -1.0985 -0.1593
 2613TIP3   OH229473   3.546   5.765   0.086  0.4197 -0.1141 -0.0780
 2613TIP3    H129474   3.575   5.769   0.177  1.9314 -0.7386 -0.4992
 2613TIP3    H229475   3.452   5.752   0.091  0.4644 -0.0498  1.3895
 2614TIP3   OH229476   5.131   0.954   0.395  0.0133 -0.2653 -0.0189
 2614TIP3    H129477   5.162   0.876   0.442  1.0820 -0.8326 -1.5811
 2614TIP3    H229478   5.175   0.950   0.310 -1.5920  0.8843 -0.9752
 2615TIP3   OH229479   5.448   6.667   1.157  0.0465 -0.3016  0.1552
 2615TIP3    H129480   5.401   6.742   1.194  2.2871  0.7624  0.9899
 2615TIP3    H229481   5.421   6.593   1.212 -1.5428  0.0080 -0.1534
 2616TIP3   OH229482   6.364   6.126   8.267 -0.2946  0.2490 -0.1854
 2616TIP3    H129483   6.415   6.097   8.342 -1.1992  1.2663  0.8559
 2616TIP3    H229484   6.379   6.221   8.263 -3.6458  1.0064  1.4736
 2617TIP3   OH229485   5.804   2.204   1.988 -0.0954 -0.2712  0.0907
 2617TIP3    H129486   5.810   2.220   2.082 -0.6657  0.4676  0.0150
 2617TIP3    H229487   5.710   2.194   1.972  0.0278 -0.7780 -0.3440
 2618TIP3   OH229488   6.229   5.771   8.129  0.0746  0.5359  0.7457
 2618TIP3    H129489   6.195   5.784   8.040  1.2946 -0.6698  0.0741
 2618TIP3    H229490   6.179   5.697   8.163 -0.1786  0.8038  0.9663
 2619TIP3   OH229491   3.923   3.519   8.346  0.7821 -0.2101 -0.3078
 2619TIP3    H129492   4.005   3.472   8.359  2.1498  2.2560  0.4344
 2619TIP3    H229493   3.941   3.609   8.371 -2.2153  0.4214  0.0362
 2620TIP3   OH229494   2.136   1.740   1.500  0.0820  0.1031 -0.3976
 2620TIP3    H129495   2.164   1.650   1.483  0.5484  0.4057 -1.2740
 2620TIP3    H229496   2.122   1.743   1.595 -2.6813 -1.6656 -0.6389
 2621TIP3   OH229497   1.852   3.727   0.295 -0.4475  0.0132  0.1459
 2621TIP3    H129498   1.769   3.775   0.299 -0.2504  0.3287  0.4530
 2621TIP3    H229499   1.868   3.698   0.385 -0.1671  0.0478  0.1079
 2622TIP3   OH229500   0.353   3.116   6.980  0.3124  0.6779 -0.4851
 2622TIP3    H129501   0.347   3.152   7.068  0.1406  0.7912 -0.5434
 2622TIP3    H229502   0.269   3.074   6.965  0.5621  0.1196 -0.3615
 2623TIP3   OH229503   0.251   4.987   1.282  0.6600  0.0595 -0.6053
 2623TIP3    H129504   0.328   4.974   1.338  1.2429  0.7394 -1.2076
 2623TIP3    H229505   0.177   4.954   1.333  1.2254  0.3055  0.3973
 2624TIP3   OH229506   6.608   2.784   1.516 -0.1547 -0.5972  0.6223
 2624TIP3    H129507   6.700   2.803   1.498 -0.6987  0.9829 -0.7879
 2624TIP3    H229508   6.589   2.832   1.597  0.2722 -0.9555  0.9356
 2625TIP3   OH229509   3.670   3.891   2.579 -0.0023 -0.1323  0.0174
 2625TIP3    H129510   3.667   3.834   2.502  1.1296 -0.3817  0.1440
 2625TIP3    H229511   3.750   3.866   2.625 -0.9990 -0.4671  1.6619
 2626TIP3   OH229512   0.497   1.383   7.984  0.4455  0.2564  0.5722
 2626TIP3    H129513   0.506   1.470   7.944 -0.6856  0.4165  0.6157
 2626TIP3    H229514   0.585   1.346   7.982  0.6433  0.7417 -0.9655
 2627TIP3   OH229515   4.295   0.445   8.276 -0.4778 -0.1571 -0.0292
 2627TIP3    H129516   4.357   0.436   8.204 -1.6033 -0.4775 -0.9849
 2627TIP3    H229517   4.331   0.390   8.346  0.2570 -0.4213 -0.6027
 2628TIP3   OH229518   6.243   5.007   1.052  0.1733 -0.3630 -0.0104
 2628TIP3    H129519   6.316   4.956   1.088  0.3153 -0.2185 -0.0919
 2628TIP3    H229520   6.265   5.016   0.959  0.8517  1.0414  0.2636
 2629TIP3   OH229521   3.202   5.531   7.696 -0.2263  0.4504  0.0966
 2629TIP3    H129522   3.178   5.602   7.756 -0.0986 -1.6804  2.8491
 2629TIP3    H229523   3.192   5.452   7.748  4.7826 -1.2826 -1.0853
 2630TIP3   OH229524   4.639   4.396   1.601 -0.1252 -0.0031  0.0363
 2630TIP3    H129525   4.662   4.333   1.533 -1.1155  0.8897 -1.1795
 2630TIP3    H229526   4.544   4.404   1.595 -0.1609  0.5489  1.1254
 2631TIP3   OH229527   0.312   1.024   1.795 -0.4729 -0.3345  0.4517
 2631TIP3    H129528   0.245   1.091   1.805  0.1861  0.3026  0.6048
 2631TIP3    H229529   0.375   1.061   1.733  1.6330  0.5961  2.9513
 2632TIP3   OH229530   6.504   4.820   2.090 -0.1666  0.4863 -0.0022
 2632TIP3    H129531   6.432   4.880   2.074  0.1980  0.4864 -1.9193
 2632TIP3    H229532   6.583   4.872   2.075  0.1696 -0.1880 -0.6930
 2633TIP3   OH229533   0.625   3.086   2.246  0.4950 -0.7224  0.5151
 2633TIP3    H129534   0.635   3.056   2.336  2.4425  0.4079  0.7323
 2633TIP3    H229535   0.596   3.177   2.254 -1.4419 -1.2523 -0.0662
 2634TIP3   OH229536   3.698   3.752   0.297 -0.3191  0.6369 -0.2176
 2634TIP3    H129537   3.774   3.754   0.240  1.1235  0.6771  1.6213
 2634TIP3    H229538   3.729   3.790   0.379 -2.2923  0.5251  0.6272
 2635TIP3   OH229539   2.804   3.128   1.471  0.7985 -0.2854 -0.1932
 2635TIP3    H129540   2.818   3.040   1.506  0.9131  0.1644  0.9148
 2635TIP3    H229541   2.882   3.145   1.418  0.8864 -0.7504 -0.2185
 2636TIP3   OH229542   5.452   0.792   7.412  0.0408 -0.1532  0.1530
 2636TIP3    H129543   5.543   0.814   7.392 -0.0715  0.1706 -0.0145
 2636TIP3    H229544   5.454   0.700   7.438  0.3398 -0.3021 -0.3861
 2637TIP3   OH229545   5.797   0.167   8.688  0.2933  0.1369  0.2417
 2637TIP3    H129546   5.743   0.124   8.623 -1.7026  1.5262  0.8921
 2637TIP3    H229547   5.848   0.232   8.639 -0.0753  0.1496 -0.1197
 2638TIP3   OH229548   0.542   2.103   7.215  0.7778 -0.9582 -0.4080
 2638TIP3    H129549   0.460   2.083   7.170  0.4848 -0.8032  0.0517
 2638TIP3    H229550   0.602   2.032   7.189  0.8378 -0.5033 -1.5998
 2639TIP3   OH229551   0.120   4.506   8.323 -0.3636  0.2289  0.4056
 2639TIP3    H129552   0.119   4.554   8.240  1.7805  0.9006  0.7219
 2639TIP3    H229553   0.180   4.433   8.308 -0.0082  0.3123  1.3399
 2640TIP3   OH229554   2.298   0.180   1.412  0.1995  0.4048 -0.5580
 2640TIP3    H129555   2.390   0.153   1.419  0.3407  0.8449 -0.6804
 2640TIP3    H229556   2.271   0.197   1.502 -0.1479 -0.9542 -0.3832
 2641TIP3   OH229557   5.409   6.764   8.408 -0.1462 -0.2535 -0.4774
 2641TIP3    H129558   5.408   6.686   8.463 -1.9560  0.3176  0.3703
 2641TIP3    H229559   5.423   6.730   8.320 -0.2853 -1.4861 -0.0554
 2642TIP3   OH229560   3.660   5.480   7.222 -0.0798 -0.3603 -0.3957
 2642TIP3    H129561   3.727   5.536   7.260  0.6588 -1.4665 -0.0266
 2642TIP3    H229562   3.590   5.480   7.287  0.5445 -1.0419  0.2919
 2643TIP3   OH229563   6.529   6.660   1.782 -0.0447  0.2290 -0.3735
 2643TIP3    H129564   6.618   6.690   1.768  0.9225 -1.5889  1.3743
 2643TIP3    H229565   6.482   6.737   1.813  0.6143  1.4399 -2.2483
 2644TIP3   OH229566   5.698   4.194   0.308 -0.2918 -0.6296  0.2693
 2644TIP3    H129567   5.748   4.191   0.226 -0.8606 -3.7056 -0.0632
 2644TIP3    H229568   5.735   4.125   0.362 -2.6017 -1.4273  0.9515
 2645TIP3   OH229569   6.593   5.002   0.409  0.1136  0.2501  0.1971
 2645TIP3    H129570   6.666   4.949   0.443  0.1258 -1.7660 -2.6786
 2645TIP3    H229571   6.519   4.978   0.465  0.8418 -0.3426  0.9512
 2646TIP3   OH229572   4.319   1.635   7.663  0.4467  0.4176  0.0752
 2646TIP3    H129573   4.363   1.573   7.605 -0.3074  0.1539 -0.2316
 2646TIP3    H229574   4.381   1.650   7.734  1.5427  1.0155 -0.9594
 2647TIP3   OH229575   4.046   3.036   1.632  0.7344  0.0242  0.3704
 2647TIP3    H129576   4.074   3.127   1.629  0.6795  0.0300 -0.0249
 2647TIP3    H229577   3.996   3.023   1.552 -3.0336  0.8460  2.3814
 2648TIP3   OH229578   0.443   2.750   1.007 -0.0394  0.2585 -0.2179
 2648TIP3    H129579   0.357   2.779   0.974 -0.0460  2.0486  1.2073
 2648TIP3    H229580   0.432   2.657   1.024 -1.4970  0.3130 -0.7154
 2649TIP3   OH229581   2.118   3.891   0.602 -0.1333 -0.1161 -0.1218
 2649TIP3    H129582   2.111   3.942   0.682 -0.6076  0.6585 -0.6520
 2649TIP3    H229583   2.070   3.941   0.536  1.3113 -0.1012 -1.2087
 2650TIP3   OH229584   2.116   5.195   7.786  0.3423 -0.1316  0.8952
 2650TIP3    H129585   2.159   5.115   7.816 -1.4678 -0.6632  2.2771
 2650TIP3    H229586   2.180   5.237   7.729  2.3190 -1.2964  2.1336
 2651TIP3   OH229587   3.391   2.602   8.538  0.1614 -0.3235 -0.0338
 2651TIP3    H129588   3.307   2.647   8.535  1.3546  2.0057 -0.3020
 2651TIP3    H229589   3.394   2.550   8.458 -1.3934 -1.1978  0.4481
 2652TIP3   OH229590   6.866   1.571   2.431  0.1794 -0.1690  0.6958
 2652TIP3    H129591   6.936   1.506   2.424 -0.0215 -0.5200  1.7826
 2652TIP3    H229592   6.862   1.593   2.524 -1.5677 -0.6209  0.7680
 2653TIP3   OH229593   1.058   0.089   1.810  0.4863  0.1719 -0.0109
 2653TIP3    H129594   1.126   0.023   1.822  0.4664  0.1624  0.0507
 2653TIP3    H229595   1.001   0.080   1.887  0.8441  0.6865  0.3175
 2654TIP3   OH229596   5.375   1.359   0.164  0.3536 -0.2143 -0.4861
 2654TIP3    H129597   5.394   1.376   0.257 -0.8751  0.0347 -0.2565
 2654TIP3    H229598   5.286   1.391   0.152 -0.3751 -2.3520 -1.1918
 2655TIP3   OH229599   4.410   5.349   7.763  0.6674 -0.1040  0.4487
 2655TIP3    H129600   4.426   5.280   7.828  0.7987 -0.9899 -0.4966
 2655TIP3    H229601   4.440   5.429   7.806  0.5612 -0.6307  1.5584
 2656TIP3   OH229602   5.502   5.556   8.606 -0.8982 -0.0867 -0.0766
 2656TIP3    H129603   5.585   5.570   8.652 -0.3157  0.0721 -1.1331
 2656TIP3    H229604   5.438   5.607   8.656 -0.2677  0.1756  0.4824
 2657TIP3   OH229605   5.013   5.184   1.265  0.0617 -0.4476  0.1012
 2657TIP3    H129606   5.027   5.265   1.313 -0.2735 -0.6429  0.5334
 2657TIP3    H229607   5.070   5.120   1.308  1.0219 -0.2379 -0.8094
 2658TIP3   OH229608   1.072   3.109   1.276 -0.0893  0.2974  0.5411
 2658TIP3    H129609   1.001   3.046   1.262  1.8275 -2.2047  1.3208
 2658TIP3    H229610   1.103   3.091   1.365  2.0469  0.7372 -0.0687
 2659TIP3   OH229611   2.898   1.838   0.338  0.8371 -0.0982  0.4136
 2659TIP3    H129612   2.843   1.791   0.274  0.3872  0.6178  0.2692
 2659TIP3    H229613   2.840   1.851   0.413  1.0980 -0.1473  0.6230
 2660TIP3   OH229614   0.049   5.256   2.730 -0.7271 -0.0375 -0.0429
 2660TIP3    H129615   0.109   5.181   2.728 -0.3499  0.2389 -2.3888
 2660TIP3    H229616   0.106   5.331   2.747 -0.5964  0.0626 -0.8808
 2661TIP3   OH229617   6.426   4.381   8.253 -0.3511 -0.0471 -0.5379
 2661TIP3    H129618   6.442   4.469   8.287 -0.0875 -0.6993  1.1615
 2661TIP3    H229619   6.442   4.323   8.328 -1.8668 -1.4419 -1.2107
 2662TIP3   OH229620   2.195   6.474   0.952  0.2385 -0.0137 -0.7449
 2662TIP3    H129621   2.182   6.472   1.046  3.8971 -0.2968 -0.0655
 2662TIP3    H229622   2.149   6.396   0.919 -0.6746 -0.1904  0.8560
 2663TIP3   OH229623   3.544   6.417   0.959 -0.0402 -0.0380 -0.7214
 2663TIP3    H129624   3.573   6.487   1.018  1.5800 -0.2242 -1.2587
 2663TIP3    H229625   3.558   6.337   1.009 -1.2246 -0.0501 -0.3754
 2664TIP3   OH229626   3.973   4.554   2.621 -0.1570 -0.2790  0.1401
 2664TIP3    H129627   3.946   4.617   2.554 -1.2965 -1.1131 -0.2130
 2664TIP3    H229628   4.069   4.554   2.616 -0.1988  0.1042 -1.0955
 2665TIP3   OH229629   5.503   5.187   1.984 -0.2849 -0.6949 -0.1336
 2665TIP3    H129630   5.583   5.236   1.962 -1.1313  0.9103  0.2193
 2665TIP3    H229631   5.527   5.134   2.060  0.4832 -0.3268 -0.1095
 2666TIP3   OH229632   2.118   0.433   1.976  0.1327 -0.4258  0.2718
 2666TIP3    H129633   2.181   0.436   2.049  0.4868  0.0341 -0.0487
 2666TIP3    H229634   2.172   0.433   1.897 -0.2630  2.2434 -0.0745
 2667TIP3   OH229635   4.407   5.769   0.180 -0.7772 -0.0318  0.2988
 2667TIP3    H129636   4.404   5.824   0.101 -1.3850  0.8811  0.9449
 2667TIP3    H229637   4.498   5.775   0.209 -1.0413  1.4788  0.9240
 2668TIP3   OH229638   6.227   6.467   7.543 -0.2314 -0.0380 -0.0631
 2668TIP3    H129639   6.178   6.402   7.593  0.6878 -0.9883 -0.3752
 2668TIP3    H229640   6.283   6.510   7.609 -0.0012 -0.3583 -0.0496
 2669TIP3   OH229641   4.250   4.683   8.693 -0.2741 -0.0426 -0.1173
 2669TIP3    H129642   4.227   4.594   8.668  0.0479 -1.2030  3.2124
 2669TIP3    H229643   4.169   4.732   8.687 -0.7857 -0.9334 -0.6010
 2670TIP3   OH229644   0.788   1.264   1.344 -0.1796  0.2348 -0.0169
 2670TIP3    H129645   0.838   1.187   1.317 -1.3730 -1.3199  1.8887
 2670TIP3    H229646   0.852   1.323   1.384  0.7092  0.1646 -1.2780
 2671TIP3   OH229647   5.096   6.843   8.665  0.0017 -0.1552 -0.0453
 2671TIP3    H129648   5.191   6.833   8.657  0.1743  1.1505  0.0582
 2671TIP3    H229649   5.060   6.757   8.643  1.2008 -0.6333 -0.1993
 2672TIP3   OH229650   4.422   6.584   0.885 -0.4026 -0.0018  0.6250
 2672TIP3    H129651   4.364   6.646   0.928 -1.3359 -0.4183  0.0173
 2672TIP3    H229652   4.462   6.534   0.956 -0.7148  0.3617  1.0550
 2673TIP3   OH229653   3.444   5.006   7.651  0.0425 -0.0190  0.1716
 2673TIP3    H129654   3.469   4.917   7.628 -0.7066  0.0296 -0.9205
 2673TIP3    H229655   3.500   5.061   7.596 -0.6854  0.1375 -0.4249
 2674TIP3   OH229656   5.256   6.464   8.352  0.3537  0.6873 -0.4101
 2674TIP3    H129657   5.216   6.507   8.277  1.5521  0.7713 -1.0151
 2674TIP3    H229658   5.348   6.453   8.328  0.7773  0.7785  1.0694
 2675TIP3   OH229659   3.111   2.637   0.455 -0.2872 -0.2531  0.0597
 2675TIP3    H129660   3.202   2.661   0.475  0.3501 -1.7554 -0.8076
 2675TIP3    H229661   3.115   2.603   0.365 -1.4913 -1.3402  0.3887
 2676TIP3   OH229662   5.317   0.016   1.259 -0.2701 -0.0044 -0.3008
 2676TIP3    H129663   5.247   0.064   1.304  1.1880  1.5572  0.4444
 2676TIP3    H229664   5.327   0.062   1.176 -1.5245 -1.5764 -1.3872
 2677TIP3   OH229665   4.487   0.357   7.690  0.0188 -0.2867 -0.3950
 2677TIP3    H129666   4.445   0.279   7.653 -0.9171  0.2319 -0.4350
 2677TIP3    H229667   4.458   0.359   7.781  1.6957 -1.1195  0.2089
 2678TIP3   OH229668   0.525   0.700   1.329  0.4294 -0.0008 -0.0567
 2678TIP3    H129669   0.484   0.703   1.242  0.9309  0.2576 -0.2921
 2678TIP3    H229670   0.456   0.671   1.388 -0.3324  1.2558 -0.3063
 2679TIP3   OH229671   2.715   4.367   8.424  0.3501  0.0391  0.0328
 2679TIP3    H129672   2.748   4.345   8.512  0.3334  1.3260  0.3821
 2679TIP3    H229673   2.621   4.350   8.429  0.2864  0.4651  0.3922
 2680TIP3   OH229674   2.878   1.618   0.642 -0.5642 -0.3636 -0.3775
 2680TIP3    H129675   2.902   1.565   0.718 -0.7124  0.6722  0.4259
 2680TIP3    H229676   2.785   1.637   0.655 -0.0658  1.7856  0.4783
 2681TIP3   OH229677   2.299   6.298   2.393  0.3782  0.3637  0.1423
 2681TIP3    H129678   2.264   6.225   2.444  0.9447 -0.4613 -0.6159
 2681TIP3    H229679   2.358   6.343   2.453  0.2368  0.0321  0.5361
 2682TIP3   OH229680   0.046   5.647   2.928 -0.1875 -0.1949  0.1045
 2682TIP3    H129681  -0.030   5.614   2.880 -0.1730 -3.0464  1.8483
 2682TIP3    H229682   0.117   5.645   2.865 -1.3934  2.3860 -1.5200
 2683TIP3   OH229683   0.467   0.082   1.546 -0.0174  0.7622 -0.1311
 2683TIP3    H129684   0.407   0.024   1.593 -0.2821  0.3355 -0.9712
 2683TIP3    H229685   0.554   0.061   1.580 -0.1144 -0.1301 -0.4186
 2684TIP3   OH229686   6.294   3.104   7.664 -0.5814 -0.1883  0.0754
 2684TIP3    H129687   6.297   3.124   7.758  0.8932  0.8094 -0.1658
 2684TIP3    H229688   6.383   3.080   7.642 -0.7939  0.1616 -1.2125
 2685TIP3   OH229689   5.118   0.557   6.849 -0.1697 -0.1074  0.2897
 2685TIP3    H129690   5.053   0.488   6.834  0.6111 -1.5216  2.7319
 2685TIP3    H229691   5.119   0.568   6.945  0.3116  2.7838  0.0409
 2686TIP3   OH229692   4.006   4.970   7.506 -0.2971 -0.0485  0.5304
 2686TIP3    H129693   3.928   5.024   7.500 -0.7114 -0.6354  0.5483
 2686TIP3    H229694   4.076   5.024   7.468 -0.4045  1.0300  1.7886
 2687TIP3   OH229695   0.779   0.098   2.715  0.4051 -0.4049  0.3466
 2687TIP3    H129696   0.768   0.015   2.667 -0.1381  0.6579 -1.4930
 2687TIP3    H229697   0.697   0.145   2.698  0.8119  0.6148  1.1405
 2688TIP3   OH229698   2.313   1.397   0.389 -0.0299  0.4888 -0.1764
 2688TIP3    H129699   2.255   1.377   0.315  0.9155 -1.5301 -0.4447
 2688TIP3    H229700   2.321   1.313   0.435  1.7035  1.0201  0.5446
 2689TIP3   OH229701   0.689   0.717   1.542 -1.0111 -0.0029  0.3070
 2689TIP3    H129702   0.628   0.725   1.469 -0.4115  0.5421 -0.1413
 2689TIP3    H229703   0.732   0.803   1.548  0.6761 -0.7707 -0.2494
 2690TIP3   OH229704   6.744   5.057   2.777 -0.0888 -0.0787  0.4758
 2690TIP3    H129705   6.664   5.081   2.729 -0.3938 -1.1404  0.4133
 2690TIP3    H229706   6.802   5.132   2.767 -1.0010  0.6220  0.3360
 2691TIP3   OH229707   1.985   0.851   0.122  0.4326  0.1218  0.6168
 2691TIP3    H129708   1.912   0.891   0.075  0.1811 -0.1550  0.7660
 2691TIP3    H229709   2.003   0.911   0.194 -0.1936 -0.2142  1.0623
 2692TIP3   OH229710   1.448   6.266   7.046  0.0158 -0.2438 -0.2649
 2692TIP3    H129711   1.367   6.238   7.088 -0.2285  0.5102 -0.2338
 2692TIP3    H229712   1.475   6.189   6.995 -0.3549 -0.7300  0.2479
 2693TIP3   OH229713   4.769   3.927   1.897 -0.0470  0.0488  0.1519
 2693TIP3    H129714   4.699   3.977   1.939 -0.1539  1.3033 -1.4049
 2693TIP3    H229715   4.744   3.835   1.908 -0.8452  0.3939  1.4179
 2694TIP3   OH229716   1.510   5.347   8.195  0.3369 -0.4437 -0.5542
 2694TIP3    H129717   1.488   5.326   8.105 -0.4826  0.4577 -0.5746
 2694TIP3    H229718   1.441   5.406   8.224  1.7344  1.0088 -0.0261
 2695TIP3   OH229719   5.329   4.844   0.868 -0.3330  0.2358  0.4607
 2695TIP3    H129720   5.304   4.929   0.831  0.9955  0.6225  0.3918
 2695TIP3    H229721   5.350   4.790   0.792  0.1675  0.2959  0.5531
 2696TIP3   OH229722   0.788   2.645   7.704 -0.4493 -0.4025  0.4076
 2696TIP3    H129723   0.870   2.637   7.751 -0.1540  0.1358  0.0056
 2696TIP3    H229724   0.811   2.631   7.612 -0.7488  0.0397  0.2585
 2697TIP3   OH229725   6.425   5.467   0.749  0.3874  0.4143 -0.1066
 2697TIP3    H129726   6.428   5.444   0.841 -2.3775 -0.4369 -0.1597
 2697TIP3    H229727   6.401   5.560   0.748 -1.9055 -0.1373  0.0704
 2698TIP3   OH229728   0.986   3.761   7.012 -0.4790  0.4411 -0.4414
 2698TIP3    H129729   0.899   3.788   7.041 -0.8377 -1.2973  0.1943
 2698TIP3    H229730   1.006   3.683   7.063  2.3617  1.9155  0.9625
 2699TIP3   OH229731   4.011   1.865   7.904  0.7190 -0.0037  0.1512
 2699TIP3    H129732   4.048   1.777   7.894  2.3138  0.7201 -0.5457
 2699TIP3    H229733   4.032   1.890   7.994  1.3712  0.1440 -0.0378
 2700TIP3   OH229734   5.384   0.028   6.349  0.4390  0.2168 -0.0618
 2700TIP3    H129735   5.297   0.011   6.385  0.1212  0.7054 -0.5744
 2700TIP3    H229736   5.415   0.104   6.399  0.2796  0.4729 -0.3482
 2701TIP3   OH229737   1.245   6.126   1.253  0.0955  0.4316  0.1449
 2701TIP3    H129738   1.339   6.123   1.270 -0.2282 -0.4243  2.1400
 2701TIP3    H229739   1.213   6.199   1.305 -0.7619 -1.3954  2.3550
 2702TIP3   OH229740   5.574   4.398   6.595 -0.4656 -0.1907  0.0303
 2702TIP3    H129741   5.667   4.376   6.605 -0.5131 -1.8340 -2.1921
 2702TIP3    H229742   5.574   4.490   6.569  0.4170  0.2105  1.3548
 2703TIP3   OH229743   0.244   3.029   7.981 -0.3376 -0.5164 -0.3816
 2703TIP3    H129744   0.298   3.009   8.057  1.5631 -0.7010 -1.7023
 2703TIP3    H229745   0.267   2.961   7.917 -1.3736  0.0272 -1.3664
 2704TIP3   OH229746   6.429   4.856   8.558  0.6826 -0.4943 -0.1381
 2704TIP3    H129747   6.339   4.874   8.588  0.3364 -1.0663 -0.8202
 2704TIP3    H229748   6.441   4.914   8.483  0.5515 -1.0998 -0.6253
 2705TIP3   OH229749   5.075   1.817   7.373  0.6500 -0.2707 -0.1390
 2705TIP3    H129750   5.100   1.877   7.303 -0.0243  0.8443  0.5561
 2705TIP3    H229751   4.989   1.848   7.402  1.1651 -0.3606  1.5652
 2706TIP3   OH229752   2.536   2.335   1.933  0.1273 -0.5422  0.8612
 2706TIP3    H129753   2.478   2.376   1.869  2.0256 -2.0429 -2.0630
 2706TIP3    H229754   2.577   2.408   1.979  0.6892  0.7850 -1.5732
 2707TIP3   OH229755   0.460   1.226   8.558  0.3005  0.2885  1.1261
 2707TIP3    H129756   0.499   1.237   8.645 -1.0826  0.8191  1.7140
 2707TIP3    H229757   0.372   1.192   8.575 -0.0386  0.5083 -0.0555
 2708TIP3   OH229758   0.662   2.018   7.803  0.2185 -0.7753 -0.0958
 2708TIP3    H129759   0.587   1.994   7.749  0.4355 -1.0079 -0.2956
 2708TIP3    H229760   0.634   2.097   7.850 -1.2834 -2.4895  2.1341
 2709TIP3   OH229761   5.657   3.894   1.853 -0.2672  0.5427  0.0143
 2709TIP3    H129762   5.697   3.965   1.904 -3.2662  2.1817  0.2709
 2709TIP3    H229763   5.582   3.866   1.906  0.5420 -2.5971 -0.3024
 2710TIP3   OH229764   0.800   5.311   6.956  0.7162  0.8544  0.1960
 2710TIP3    H129765   0.760   5.292   6.871  1.2341  0.0588  0.1261
 2710TIP3    H229766   0.873   5.250   6.963  1.4754  1.7918  0.6506
 2711TIP3   OH229767   6.435   5.276   7.683 -0.3015  0.4653  0.1589
 2711TIP3    H129768   6.494   5.329   7.629 -0.7538  0.7780 -0.0304
 2711TIP3    H229769   6.380   5.230   7.619 -0.2066  0.1055  0.3337
 2712TIP3   OH229770   3.187   6.334   1.047 -0.3274  0.2798 -0.5794
 2712TIP3    H129771   3.172   6.271   1.118 -0.9587 -0.0074 -0.9588
 2712TIP3    H229772   3.173   6.419   1.088  0.7939  0.1967  0.0047
 2713TIP3   OH229773   4.485   0.822   8.348 -0.2856  0.7027 -0.4249
 2713TIP3    H129774   4.391   0.813   8.361  0.0555 -0.5253  1.5370
 2713TIP3    H229775   4.501   0.916   8.353 -1.6153  1.1470 -2.8613
 2714TIP3   OH229776   6.692   1.248   7.321  0.4651 -0.2545  0.2086
 2714TIP3    H129777   6.758   1.241   7.389  2.0787  0.9023 -1.1531
 2714TIP3    H229778   6.689   1.161   7.281  0.0876 -0.7105  1.2011
 2715TIP3   OH229779   5.685   0.079   2.105  0.1054 -0.0774  0.1556
 2715TIP3    H129780   5.591   0.091   2.118  0.3225  1.2103  0.7360
 2715TIP3    H229781   5.703  -0.008   2.141 -1.1360 -1.1583 -1.6664
 2716TIP3   OH229782   5.182   0.850   1.256 -0.1605 -0.1171  0.2263
 2716TIP3    H129783   5.173   0.892   1.342 -1.5160 -0.5988  0.3432
 2716TIP3    H229784   5.246   0.780   1.270  0.5806  0.6001  0.5206
 2717TIP3   OH229785   3.348   2.718   0.230 -0.4131  0.4594  0.2860
 2717TIP3    H129786   3.401   2.722   0.151 -1.9782 -1.9497 -1.0177
 2717TIP3    H229787   3.350   2.626   0.255 -2.9548  0.5035  0.8676
 2718TIP3   OH229788   2.560   6.002   6.404  0.3851  0.3260 -0.0507
 2718TIP3    H129789   2.521   5.915   6.408 -0.3296  0.6299 -0.3170
 2718TIP3    H229790   2.534   6.036   6.318 -0.5619  1.3670  0.6199
 2719TIP3   OH229791   6.552   2.238   8.426 -0.4739 -0.3115  0.3016
 2719TIP3    H129792   6.475   2.280   8.464 -1.4460 -2.0112  0.3469
 2719TIP3    H229793   6.516   2.178   8.360  0.8031 -1.1039  0.2949
 2720TIP3   OH229794   5.965   2.302   8.638 -0.4861  1.0812 -0.2627
 2720TIP3    H129795   5.896   2.337   8.582 -0.6756  0.0408 -0.7025
 2720TIP3    H229796   5.930   2.220   8.671  0.8797  0.0665 -1.2307
 2721TIP3   OH229797   2.993   0.595   1.687 -0.5410 -0.1449 -0.6305
 2721TIP3    H129798   2.899   0.606   1.703 -0.6170 -1.5347  0.0223
 2721TIP3    H229799   3.017   0.517   1.737  0.9190  0.0504 -0.9831
 2722TIP3   OH229800   3.321   5.525   2.679 -0.0236 -0.2582  0.3581
 2722TIP3    H129801   3.236   5.541   2.721 -1.2789  1.8173 -2.6414
 2722TIP3    H229802   3.303   5.454   2.617  0.9133 -0.9611  0.8724
 2723TIP3   OH229803   0.542   0.721   1.760  0.4309 -0.1897  0.2883
 2723TIP3    H129804   0.598   0.717   1.683 -1.3772 -0.6215 -1.0494
 2723TIP3    H229805   0.522   0.814   1.770 -0.3222 -0.2596 -0.5167
 2724TIP3   OH229806   3.488   4.521   7.739 -0.0999  0.1512  0.0544
 2724TIP3    H129807   3.496   4.611   7.708 -0.3466 -0.6522 -2.5143
 2724TIP3    H229808   3.396   4.512   7.763 -0.5046  0.1138 -1.4087
 2725TIP3   OH229809   5.686   6.468   8.636 -0.1810 -0.5837  0.4590
 2725TIP3    H129810   5.683   6.385   8.589  1.3075 -0.3837 -0.0519
 2725TIP3    H229811   5.695   6.444   8.728  0.9022 -1.0158  0.2537
 2726TIP3   OH229812   4.586   4.765   7.079  0.4240 -0.1800  0.2258
 2726TIP3    H129813   4.552   4.696   7.136 -0.7491 -0.9165 -1.2839
 2726TIP3    H229814   4.582   4.728   6.991  2.3580  0.8491 -0.3494
 2727TIP3   OH229815   6.205   1.364   1.676  0.1049  0.1701  0.1910
 2727TIP3    H129816   6.196   1.308   1.599  1.4512  1.2554 -0.7973
 2727TIP3    H229817   6.270   1.430   1.652 -0.4587  1.3997  1.7657
 2728TIP3   OH229818   1.632   4.414   1.970  0.4482  0.4931 -0.5737
 2728TIP3    H129819   1.669   4.456   2.047  0.7772  0.4001 -0.6789
 2728TIP3    H229820   1.657   4.322   1.978 -2.4083 -0.2543  0.9692
 2729TIP3   OH229821   4.237   3.258   0.554  0.6514  0.6176  0.2361
 2729TIP3    H129822   4.175   3.297   0.616  1.2307  0.9660  0.6095
 2729TIP3    H229823   4.227   3.310   0.475 -1.2772 -0.8476 -0.5684
 2730TIP3   OH229824   5.840   3.992   8.175 -0.0562 -0.0966  0.4746
 2730TIP3    H129825   5.820   3.970   8.265  0.1483  0.0509  0.5572
 2730TIP3    H229826   5.931   3.963   8.162 -0.9742 -2.8478 -0.5715
 2731TIP3   OH229827   5.198   3.686   7.459 -0.4821 -0.2796  0.0896
 2731TIP3    H129828   5.203   3.591   7.467 -0.2685 -0.2125  0.8708
 2731TIP3    H229829   5.184   3.702   7.366 -1.8024 -1.1212  0.1295
 2732TIP3   OH229830   3.833   0.287   6.852 -0.2129 -0.3751  0.4908
 2732TIP3    H129831   3.909   0.236   6.880 -0.0588 -0.3167  0.1866
 2732TIP3    H229832   3.864   0.337   6.777 -0.6883 -0.7386  0.0370
 2733TIP3   OH229833   0.119   4.655   7.271  0.0029 -0.4815  0.1834
 2733TIP3    H129834   0.118   4.623   7.180  0.0315  0.8230 -0.2941
 2733TIP3    H229835   0.033   4.631   7.306 -0.4606  0.0593 -0.5654
 2734TIP3   OH229836   3.394   6.737   0.303 -0.2370  0.5118 -0.2878
 2734TIP3    H129837   3.437   6.659   0.268 -1.4720 -1.5415  2.4296
 2734TIP3    H229838   3.322   6.753   0.242  0.3716 -0.1016 -1.1970
 2735TIP3   OH229839   5.036   2.586   7.015 -0.3466 -0.5381 -0.1207
 2735TIP3    H129840   4.966   2.622   7.070  1.3632  1.1213  1.0958
 2735TIP3    H229841   5.029   2.633   6.933  0.3556  0.8659  0.5980
 2736TIP3   OH229842   6.493   4.998   8.320  0.3283  0.2456  0.0412
 2736TIP3    H129843   6.498   5.093   8.313  0.4104  0.2679  0.3898
 2736TIP3    H229844   6.512   4.966   8.231 -0.3038  0.5720 -0.2192
 2737TIP3   OH229845   4.037   1.865   8.186 -0.7084 -0.7409  0.0256
 2737TIP3    H129846   3.980   1.939   8.207 -0.2859 -0.5160  0.3964
 2737TIP3    H229847   4.084   1.847   8.267 -0.0511 -0.7453 -0.3483
 2738TIP3   OH229848   2.411   1.957   7.249 -0.3506 -0.0225  0.1180
 2738TIP3    H129849   2.474   2.029   7.242 -0.9570  0.4851 -0.2040
 2738TIP3    H229850   2.350   1.971   7.177 -0.4774 -0.8656  0.0531
 2739TIP3   OH229851   1.005   1.711   0.278  0.2761  0.1370 -0.1909
 2739TIP3    H129852   1.064   1.785   0.265  1.0285 -0.1994  1.1393
 2739TIP3    H229853   1.063   1.636   0.293 -0.4531 -0.1299  1.5609
 2740TIP3   OH229854   6.045   0.544   8.724 -0.0566 -0.1254 -0.6830
 2740TIP3    H129855   5.996   0.488   8.665 -2.1607  2.3617 -1.4527
 2740TIP3    H229856   5.979   0.580   8.783  1.4364  0.5132  0.6739
 2741TIP3   OH229857   4.290   2.412   1.004 -0.3372 -0.4260  0.4670
 2741TIP3    H129858   4.263   2.487   0.952  1.3738 -0.0840 -0.0192
 2741TIP3    H229859   4.250   2.336   0.961 -1.2316  0.1054  0.3490
 2742TIP3   OH229860   4.607   1.863   8.245 -0.2791 -0.0297  0.0089
 2742TIP3    H129861   4.623   1.783   8.296  0.8334  1.1229  1.5927
 2742TIP3    H229862   4.668   1.857   8.172 -0.2645 -0.6687  0.0684
 2743TIP3   OH229863   5.664   6.794   7.944  0.0692 -0.2019 -0.2573
 2743TIP3    H129864   5.709   6.772   8.025  2.3957  0.2759 -1.3485
 2743TIP3    H229865   5.694   6.882   7.923 -1.0162 -0.0551 -1.3188
 2744TIP3   OH229866   1.968   1.121   7.244 -0.0064 -0.0726 -0.1684
 2744TIP3    H129867   2.044   1.157   7.199 -1.1036  1.0225 -1.2579
 2744TIP3    H229868   1.973   1.156   7.333  0.9528 -0.3347 -0.1136
 2745TIP3   OH229869   4.063   0.319   1.294 -0.1654 -0.3534  0.1374
 2745TIP3    H129870   4.078   0.382   1.365 -0.5317 -0.5063  0.3522
 2745TIP3    H229871   4.151   0.297   1.263  0.0351 -0.7940  0.9900
 2746TIP3   OH229872   4.947   4.632   7.515  0.3559  0.4929 -0.0781
 2746TIP3    H129873   4.923   4.584   7.594 -0.7853  1.4528  0.1854
 2746TIP3    H229874   5.035   4.666   7.533  0.2823  0.3344  0.6103
 2747TIP3   OH229875   1.910   6.104   0.359  0.5305  0.4658 -0.1154
 2747TIP3    H129876   1.940   6.186   0.320  1.5857 -0.4838 -1.4025
 2747TIP3    H229877   1.869   6.057   0.287 -0.1847 -0.0895  0.6398
 2748TIP3   OH229878   6.162   0.552   0.693  0.5865  0.3716  0.4994
 2748TIP3    H129879   6.241   0.521   0.737 -0.6535 -1.3559  1.6563
 2748TIP3    H229880   6.114   0.601   0.760  1.1080  2.3483 -0.4862
 2749TIP3   OH229881   5.376   6.786   1.914  0.2364 -0.5793  0.1772
 2749TIP3    H129882   5.367   6.792   2.010  0.7308 -1.5484  0.3004
 2749TIP3    H229883   5.440   6.716   1.901 -1.3153 -1.8519 -0.9070
 2750TIP3   OH229884   1.083   1.005   1.382 -0.2891 -0.3479 -0.7818
 2750TIP3    H129885   1.098   0.914   1.406 -0.7034 -0.4033 -0.7296
 2750TIP3    H229886   1.171   1.043   1.375 -0.1061 -0.8393 -1.1535
 2751TIP3   OH229887   6.088   3.371   1.462 -0.2938  0.5351 -0.4961
 2751TIP3    H129888   6.021   3.315   1.499  1.7967 -1.5078  0.4526
 2751TIP3    H229889   6.085   3.451   1.514 -2.3951  0.8098 -0.9496
 2752TIP3   OH229890   5.212   5.667   7.580  0.1330 -0.4445  0.3730
 2752TIP3    H129891   5.287   5.609   7.588 -0.6732 -1.7846 -1.1865
 2752TIP3    H229892   5.195   5.672   7.486 -1.1971  0.5468  0.6272
 2753TIP3   OH229893   6.352   3.153   1.759  0.5615 -0.8881  0.5605
 2753TIP3    H129894   6.352   3.165   1.854  2.1319  0.0959  0.4827
 2753TIP3    H229895   6.443   3.168   1.733  0.1668 -1.1243 -1.1043
 2754TIP3   OH229896   2.084   0.171   7.819  0.0650  0.1418  0.2528
 2754TIP3    H129897   2.135   0.252   7.825 -0.7162  0.5620  1.6131
 2754TIP3    H229898   2.028   0.172   7.896 -2.0974 -0.2550 -1.2214
 2755TIP3   OH229899   6.394   6.228   0.638 -0.0540  0.0816 -0.4902
 2755TIP3    H129900   6.400   6.184   0.553  0.6683  0.0628 -0.4332
 2755TIP3    H229901   6.467   6.289   0.639 -0.9770  1.2055 -0.5056
 2756TIP3   OH229902   6.059   1.963   7.250  0.1614  0.2920  0.0643
 2756TIP3    H129903   6.115   1.998   7.181 -1.5707  1.0824 -1.0125
 2756TIP3    H229904   6.036   2.039   7.304  1.8791 -0.3909  1.8577
 2757TIP3   OH229905   4.898   6.408   1.165  0.1620 -0.1183  0.5516
 2757TIP3    H129906   4.978   6.411   1.216  0.4439 -1.9283  0.2985
 2757TIP3    H229907   4.889   6.316   1.140  0.0653  0.6456 -2.6762
 2758TIP3   OH229908   3.711   2.650   0.195  0.7409  0.4669 -0.1619
 2758TIP3    H129909   3.729   2.557   0.212  1.4679  0.3027 -1.6187
 2758TIP3    H229910   3.628   2.649   0.147  0.6201  0.5910  0.0457
 2759TIP3   OH229911   3.244   3.221   0.219 -0.2550  0.1149  0.0193
 2759TIP3    H129912   3.168   3.192   0.269 -1.7658  1.1310 -1.6086
 2759TIP3    H229913   3.237   3.317   0.218  1.0050  0.2190 -0.2529
 2760TIP3   OH229914   6.833   3.266   1.011  0.2740  0.1564  0.2070
 2760TIP3    H129915   6.852   3.325   1.084 -1.6004 -0.8157  1.5755
 2760TIP3    H229916   6.899   3.197   1.018  0.1851  0.1329  0.9250
 2761TIP3   OH229917   2.324   0.535   7.471  0.5444  1.0156  0.0947
 2761TIP3    H129918   2.297   0.565   7.384  1.0644 -0.1802 -0.4994
 2761TIP3    H229919   2.266   0.582   7.531  0.8218  2.6053 -0.8263
 2762TIP3   OH229920   4.438   0.023   7.053  0.2465 -0.5452 -0.9728
 2762TIP3    H129921   4.400   0.111   7.047  0.4448 -0.5044 -1.8540
 2762TIP3    H229922   4.510   0.024   6.989 -0.0598 -1.4963 -1.3561
 2763TIP3   OH229923   3.054   4.194   0.714 -0.6866 -0.2815  0.3774
 2763TIP3    H129924   3.092   4.146   0.788 -1.5739  0.4221  1.3193
 2763TIP3    H229925   2.980   4.140   0.687  0.2795 -1.0984 -0.7494
 2764TIP3   OH229926   0.753   1.305   8.070 -0.4382  0.3012 -0.6607
 2764TIP3    H129927   0.806   1.313   8.149  0.2000 -0.0572 -1.0432
 2764TIP3    H229928   0.792   1.232   8.022 -1.6313 -0.3586 -0.6847
 2765TIP3   OH229929   4.612   0.194   6.873 -0.0170 -0.3551 -0.2156
 2765TIP3    H129930   4.537   0.241   6.908  0.5686  0.7641 -0.4206
 2765TIP3    H229931   4.584   0.166   6.786  0.5165  2.0023 -1.2180
 2766TIP3   OH229932   3.143   6.176   0.594  0.0973  0.3107  0.3358
 2766TIP3    H129933   3.135   6.244   0.661  2.4451 -0.9379  2.0613
 2766TIP3    H229934   3.054   6.144   0.581 -0.8136  2.5585  0.6813
 2767TIP3   OH229935   6.468   2.381   8.089  0.6657 -0.2819  0.1916
 2767TIP3    H129936   6.431   2.456   8.136 -0.1336  0.0792 -0.9896
 2767TIP3    H229937   6.433   2.305   8.136  1.8758  0.0333  1.7067
 2768TIP3   OH229938   6.044   2.491   0.640  0.1607  0.6206 -0.2272
 2768TIP3    H129939   5.984   2.538   0.583  1.3083  1.7626 -0.5364
 2768TIP3    H229940   5.988   2.447   0.703 -1.1750 -0.9108 -2.3487
 2769TIP3   OH229941   2.844   6.362   8.008 -0.2632 -0.6472  0.8136
 2769TIP3    H129942   2.863   6.334   7.918  0.5323 -0.6126  0.9652
 2769TIP3    H229943   2.917   6.328   8.060  0.0498  0.5736  1.2103
 2770TIP3   OH229944   0.295   1.484   1.903  0.6321 -0.5528 -0.0264
 2770TIP3    H129945   0.378   1.470   1.948  1.7172  2.8129 -0.7212
 2770TIP3    H229946   0.253   1.554   1.951  0.7169  1.4728 -2.6510
 2771TIP3   OH229947   5.756   0.881   7.857  0.2106 -0.1075 -0.6136
 2771TIP3    H129948   5.671   0.890   7.899 -1.0230 -1.5928 -2.6588
 2771TIP3    H229949   5.776   0.969   7.825 -0.6485  0.2054 -0.3135
 2772TIP3   OH229950   6.812   6.287   0.054 -0.7563  0.5183 -0.1818
 2772TIP3    H129951   6.899   6.319   0.080 -2.2935  4.2724  1.1148
 2772TIP3    H229952   6.815   6.286  -0.041  0.9042 -0.1734 -0.1577
 2773TIP3   OH229953   4.179   6.353   0.012  0.2700  0.1260  0.3593
 2773TIP3    H129954   4.204   6.319  -0.074 -2.2270  0.2726 -0.5124
 2773TIP3    H229955   4.247   6.320   0.071  1.2108 -1.3024 -1.3995
 2774TIP3   OH229956   3.257   5.411   6.904 -0.0569 -0.0312 -0.4948
 2774TIP3    H129957   3.274   5.318   6.891 -2.6613 -0.3889 -2.1007
 2774TIP3    H229958   3.241   5.445   6.816 -2.4437  1.1590  0.3106
 2775TIP3   OH229959   2.393   1.516   8.509  0.3283  0.3473 -0.9842
 2775TIP3    H129960   2.385   1.506   8.414  1.7340 -0.3630 -1.0639
 2775TIP3    H229961   2.486   1.533   8.523  0.3472 -0.7179  0.3563
 2776TIP3   OH229962   2.952   1.544   7.689 -0.1249 -0.2561 -0.5259
 2776TIP3    H129963   3.013   1.539   7.616  0.2197 -1.8278 -0.1569
 2776TIP3    H229964   2.980   1.476   7.749 -0.6047  0.7797  0.9376
 2777TIP3   OH229965   3.955   2.237   1.566  0.1243 -0.1988  0.3210
 2777TIP3    H129966   4.004   2.316   1.543 -0.1270 -0.3120 -0.6449
 2777TIP3    H229967   3.893   2.265   1.632 -0.2227  0.5023 -0.2897
 2778TIP3   OH229968   1.061   0.661   7.160 -0.1231  0.0964  0.3287
 2778TIP3    H129969   1.051   0.646   7.254  1.4732 -0.5077  0.4307
 2778TIP3    H229970   1.032   0.751   7.146 -0.6055  0.1098  1.3594
 2779TIP3   OH229971   5.961   6.226   7.789  0.7763 -0.1625 -0.1408
 2779TIP3    H129972   5.953   6.321   7.795  1.3429  0.2811 -4.0803
 2779TIP3    H229973   6.040   6.205   7.839  0.4302  1.3080  1.1109
 2780TIP3   OH229974   0.134   0.650   7.965  0.3618  0.0401 -0.5535
 2780TIP3    H129975   0.221   0.610   7.955  0.2650  0.1493 -2.1068
 2780TIP3    H229976   0.074   0.586   7.927 -0.0303  0.7170 -1.0972
 2781TIP3   OH229977   4.840   0.364   8.274 -0.0523  0.2446 -0.1830
 2781TIP3    H129978   4.751   0.328   8.273 -1.1705  2.7795 -0.2094
 2781TIP3    H229979   4.848   0.412   8.192 -0.9490  4.8074  2.0494
 2782TIP3   OH229980   6.314   3.743   6.669 -0.0482 -0.1257  0.6399
 2782TIP3    H129981   6.259   3.690   6.726 -2.8191  2.7365  0.9003
 2782TIP3    H229982   6.256   3.772   6.599  1.0311  3.0499  0.9074
 2783TIP3   OH229983   6.684   6.044   2.106  0.8582  0.7890  0.3683
 2783TIP3    H129984   6.676   6.004   2.019 -1.8204  1.4241  0.2347
 2783TIP3    H229985   6.734   5.980   2.157 -0.9024 -1.5202 -0.5885
 2784TIP3   OH229986   2.241   5.789   7.203  0.0270 -0.4304 -0.4649
 2784TIP3    H129987   2.214   5.697   7.193  0.3307 -0.8027  1.6590
 2784TIP3    H229988   2.170   5.830   7.252 -0.0739  0.4794 -1.3471
 2785TIP3   OH229989   1.748   1.999   8.158  0.0878  0.1854  0.0276
 2785TIP3    H129990   1.760   2.094   8.169  1.0140 -0.0329  1.2045
 2785TIP3    H229991   1.704   1.971   8.238 -0.0888 -0.4008 -0.2696
 2786TIP3   OH229992   5.700   1.349   0.893  0.3101 -0.2273 -0.3044
 2786TIP3    H129993   5.690   1.254   0.898 -3.2338  0.0450  0.6137
 2786TIP3    H229994   5.755   1.364   0.816 -0.7756 -3.0041 -1.7447
 2787TIP3   OH229995   0.084   0.173   7.311 -0.3609 -0.1769  0.1066
 2787TIP3    H129996   0.015   0.236   7.332  0.1878  0.0831  1.2140
 2787TIP3    H229997   0.162   0.210   7.352  0.1254 -1.2161  0.1300
 2788TIP3   OH229998   3.188   6.145   1.260  0.0143 -0.0641 -0.6360
 2788TIP3    H129999   3.230   6.193   1.331 -1.3732 -0.6753  0.6489
 2788TIP3    H230000   3.096   6.137   1.287 -0.2816 -1.4083 -1.9110
 2789TIP3   OH230001   0.898   2.235   2.788  0.4783  0.0951  0.2702
 2789TIP3    H130002   0.965   2.267   2.728  0.2288  2.3333  1.1109
 2789TIP3    H230003   0.946   2.217   2.869  0.4201 -0.6242  0.1549
 2790TIP3   OH230004   2.891   3.032   0.688  0.0714  0.1946 -0.3045
 2790TIP3    H130005   2.938   2.987   0.758 -0.7692  0.6531  0.5720
 2790TIP3    H230006   2.921   2.989   0.608  1.0099 -0.3701  0.3268
 2791TIP3   OH230007   0.566   1.968   1.797 -0.3934 -0.0026 -0.0402
 2791TIP3    H130008   0.650   2.014   1.793  0.3170 -1.3413 -1.5282
 2791TIP3    H230009   0.589   1.877   1.816 -1.6126 -0.1730  0.7203
 2792TIP3   OH230010   5.611   1.933   0.870  0.0767 -0.3012 -0.0151
 2792TIP3    H130011   5.684   1.900   0.817 -0.3957  0.5592 -1.2492
 2792TIP3    H230012   5.630   2.026   0.881 -2.2304  0.6997 -2.9499
 2793TIP3   OH230013   1.373   4.582   1.036  0.1269  0.3075  0.1760
 2793TIP3    H130014   1.325   4.651   0.990  0.3159  1.4197  1.5737
 2793TIP3    H230015   1.308   4.512   1.047  0.3015 -0.3573 -2.4265
 2794TIP3   OH230016   3.815   3.676   2.059  0.7118 -0.1722 -0.2701
 2794TIP3    H130017   3.720   3.659   2.066  0.7536 -0.2141  0.2296
 2794TIP3    H230018   3.830   3.685   1.965  0.8755 -4.1562 -0.7911
 2795TIP3   OH230019   3.074   1.695   2.322 -0.3501  0.1994  0.9344
 2795TIP3    H130020   2.985   1.728   2.310 -0.3503  0.1328  0.7577
 2795TIP3    H230021   3.110   1.749   2.392 -1.2811 -1.1951  2.5926
 2796TIP3   OH230022   4.250   6.392   0.790 -0.6504  0.0412  0.3260
 2796TIP3    H130023   4.302   6.314   0.806  0.6579  0.6306 -0.8533
 2796TIP3    H230024   4.289   6.460   0.845 -1.5188 -0.0063  1.0312
 2797TIP3   OH230025   1.240   3.342   8.561 -0.0067  0.4503 -0.2940
 2797TIP3    H130026   1.320   3.298   8.532 -0.1630  0.0738 -0.1596
 2797TIP3    H230027   1.226   3.310   8.650  0.1822  1.2026  0.0094
 2798TIP3   OH230028   4.273   2.216   0.520  0.4419 -0.3723  0.5844
 2798TIP3    H130029   4.269   2.223   0.616 -0.4335 -0.8072  0.5842
 2798TIP3    H230030   4.187   2.245   0.490  0.0370 -2.0187  0.0468
 2799TIP3   OH230031   5.610   3.916   2.348 -0.1184  0.2812 -0.0352
 2799TIP3    H130032   5.562   3.835   2.331  0.5886 -0.2379  0.4097
 2799TIP3    H230033   5.568   3.953   2.426 -0.7917  0.6375 -0.5494
 2800TIP3   OH230034   6.582   3.988   1.173  0.2231  0.9146 -0.3246
 2800TIP3    H130035   6.583   4.008   1.080  2.0335  0.3154 -0.4819
 2800TIP3    H230036   6.511   3.924   1.183 -0.1968  1.2216 -1.2188
 2801TIP3   OH230037   6.059   4.626   0.256  0.1077  0.1680 -0.0284
 2801TIP3    H130038   6.072   4.563   0.185  0.4045  0.4413 -0.2205
 2801TIP3    H230039   6.142   4.674   0.261 -0.5275  1.3901 -0.7207
 2802TIP3   OH230040   0.161   2.502   0.621 -0.2269 -0.4452 -0.5955
 2802TIP3    H130041   0.067   2.520   0.620 -0.7217 -2.1513  2.6260
 2802TIP3    H230042   0.171   2.423   0.568 -0.7189 -0.6033 -0.4588
 2803TIP3   OH230043   2.590   5.540   0.225  0.2179  0.4913 -0.7047
 2803TIP3    H130044   2.548   5.459   0.196  0.1951  0.2545 -0.0362
 2803TIP3    H230045   2.652   5.562   0.155 -0.5514  0.4945 -1.4027
 2804TIP3   OH230046   1.052   0.923   0.142  0.0523  0.6626  0.5798
 2804TIP3    H130047   1.059   0.830   0.166 -2.7010  0.0896 -0.4339
 2804TIP3    H230048   1.116   0.935   0.072 -1.6322 -1.3899 -1.4695
 2805TIP3   OH230049   1.010   4.755   1.134  0.2550  0.3978  0.1579
 2805TIP3    H130050   1.014   4.726   1.042  2.6918 -0.7032  0.5304
 2805TIP3    H230051   1.059   4.837   1.135 -0.3858  0.7885  0.3915
 2806TIP3   OH230052   5.835   4.321   0.777 -0.0787  0.4735 -0.7902
 2806TIP3    H130053   5.753   4.276   0.756  0.1481 -0.4955  0.2716
 2806TIP3    H230054   5.832   4.334   0.872  0.0680  2.3416 -1.0095
 2807TIP3   OH230055   1.114   3.303   0.096 -0.1124  0.2001 -0.4303
 2807TIP3    H130056   1.034   3.286   0.047  0.2638 -0.1954 -0.9253
 2807TIP3    H230057   1.159   3.219   0.098  1.2657  0.8313 -1.9578
 2808TIP3   OH230058   0.964   4.741   1.564  0.3827 -0.2746 -0.0604
 2808TIP3    H130059   1.038   4.790   1.529  0.2920  0.2298  0.4415
 2808TIP3    H230060   0.895   4.754   1.499  0.3566  0.2771  0.0700
 2809TIP3   OH230061   5.824   5.237   7.119  0.5237 -0.0998  0.3659
 2809TIP3    H130062   5.885   5.184   7.171  0.1968 -0.0678  0.7856
 2809TIP3    H230063   5.746   5.183   7.112  0.3843  0.1075  0.3362
 2810TIP3   OH230064   2.706   5.055   8.369  0.2896  0.1692 -0.0350
 2810TIP3    H130065   2.611   5.053   8.382  0.1084 -0.9178 -1.2382
 2810TIP3    H230066   2.723   4.982   8.309  1.7811  0.8842 -0.5400
 2811TIP3   OH230067   2.742   1.648   1.744  0.4749 -0.3798 -0.4975
 2811TIP3    H130068   2.663   1.596   1.729  0.0716 -0.6336  1.9677
 2811TIP3    H230069   2.794   1.637   1.665 -0.4186 -3.0811 -0.8163
 2812TIP3   OH230070   6.688   1.579   0.915 -0.4634 -0.5908 -0.0580
 2812TIP3    H130071   6.679   1.586   1.011  0.9051 -1.0821  0.1263
 2812TIP3    H230072   6.638   1.501   0.893 -1.4058 -0.0701  0.1342
 2813TIP3   OH230073   4.079   1.703   7.512  0.1501  0.2756 -0.7026
 2813TIP3    H130074   4.171   1.681   7.526  0.2659  0.0159 -1.7746
 2813TIP3    H230075   4.052   1.646   7.440 -1.0292 -0.0950  0.0142
 2814TIP3   OH230076   3.086   5.700   2.770  0.0211 -0.4387  0.7126
 2814TIP3    H130077   3.007   5.743   2.803  0.5003  0.3715  0.8162
 2814TIP3    H230078   3.077   5.704   2.675 -0.6013 -1.3707  0.7161
 2815TIP3   OH230079   4.885   6.243   2.199  0.2159  0.0094 -0.1721
 2815TIP3    H130080   4.946   6.217   2.268  0.2558 -0.1881 -0.2805
 2815TIP3    H230081   4.923   6.207   2.119  0.0864  0.1003 -0.2747
 2816TIP3   OH230082   1.106   5.412   8.328 -0.4681  0.1957  0.0172
 2816TIP3    H130083   1.105   5.474   8.400 -0.8743 -2.3625  2.3936
 2816TIP3    H230084   1.181   5.355   8.345 -1.0769 -1.0165 -1.0745
 2817TIP3   OH230085   3.955   2.479   1.899  0.0771 -0.2233 -0.1232
 2817TIP3    H130086   3.896   2.531   1.846 -0.5502  0.3765  1.1074
 2817TIP3    H230087   3.898   2.421   1.950  0.5011  0.4415  1.1656
 2818TIP3   OH230088   4.049   4.109   8.670  0.0650  0.1845 -0.0299
 2818TIP3    H130089   3.955   4.121   8.684 -0.1931 -0.3310 -1.1853
 2818TIP3    H230090   4.088   4.191   8.700 -0.6605  0.1063  1.2114
 2819TIP3   OH230091   4.013   6.214   0.469  0.7155 -0.5738  0.3598
 2819TIP3    H130092   3.960   6.182   0.543 -0.0705  0.3642  0.2175
 2819TIP3    H230093   4.037   6.303   0.494 -1.4873  0.6266 -1.4651
 2820TIP3   OH230094   1.750   0.080   0.612  0.1400 -0.3617 -0.0406
 2820TIP3    H130095   1.821   0.016   0.614  0.9508  0.5258  1.0071
 2820TIP3    H230096   1.778   0.148   0.673 -0.6074  1.0847 -1.2602
 2821TIP3   OH230097   4.673   4.862   1.625  0.0131 -0.5000  0.6109
 2821TIP3    H130098   4.597   4.911   1.658  0.0404 -1.1020  1.6141
 2821TIP3    H230099   4.660   4.773   1.657 -0.0796 -1.2106 -1.2767
 2822TIP3   OH230100   4.818   1.809   7.995  0.3577 -0.5380 -0.1103
 2822TIP3    H130101   4.911   1.801   7.974  0.2634 -1.4232 -0.2312
 2822TIP3    H230102   4.785   1.877   7.936  0.7122 -0.9598 -0.7994
 2823TIP3   OH230103   1.161   2.316   7.732 -0.1693  0.4787  0.5844
 2823TIP3    H130104   1.234   2.278   7.683  0.4783  1.3617  0.8438
 2823TIP3    H230105   1.109   2.361   7.666  0.2587  0.9859  0.5957
 2824TIP3   OH230106   2.386   2.523   6.835  0.2367 -0.2889 -0.0904
 2824TIP3    H130107   2.334   2.518   6.915  0.4051 -2.1531 -0.0631
 2824TIP3    H230108   2.321   2.515   6.764  0.2517 -0.1492 -0.1217
 2825TIP3   OH230109   3.235   3.636   6.592  0.9251  0.1232  0.4422
 2825TIP3    H130110   3.272   3.713   6.635  2.8482 -0.8265  0.5849
 2825TIP3    H230111   3.227   3.661   6.500 -1.0177  1.3608  0.8781
 2826TIP3   OH230112   0.107   5.546   2.454  0.3344 -0.2138  0.3560
 2826TIP3    H130113   0.158   5.619   2.416  0.2629 -0.2611  0.1673
 2826TIP3    H230114   0.118   5.475   2.391 -0.5784  0.0037 -0.0721
 2827TIP3   OH230115   2.986   4.233   2.306 -0.2427  0.6055 -0.2612
 2827TIP3    H130116   2.973   4.148   2.265 -1.8547  0.1322  1.1414
 2827TIP3    H230117   3.033   4.284   2.240  1.2047 -1.4885 -0.9662
 2828TIP3   OH230118   2.185   2.779   8.132  0.4068 -0.1293 -0.1596
 2828TIP3    H130119   2.107   2.827   8.105 -0.9660 -0.7592  2.3657
 2828TIP3    H230120   2.176   2.770   8.227  2.3730 -2.3023 -0.0819
 2829TIP3   OH230121   2.126   5.528   6.655  0.0088  0.0308  0.8220
 2829TIP3    H130122   2.087   5.595   6.599 -0.0420 -1.2039 -0.6974
 2829TIP3    H230123   2.053   5.496   6.708 -0.8174 -1.2927 -1.0149
 2830TIP3   OH230124   4.963   0.523   7.976 -0.3227  0.2084 -0.2410
 2830TIP3    H130125   4.996   0.605   7.940 -1.3775  0.5581 -0.4408
 2830TIP3    H230126   4.986   0.527   8.069 -1.8242  1.5225  0.1231
 2831TIP3   OH230127   2.763   4.695   7.555  0.1999  0.6769  0.4301
 2831TIP3    H130128   2.852   4.727   7.547  0.1159  0.6121 -0.9715
 2831TIP3    H230129   2.750   4.684   7.649  1.7936  0.3155  0.6382
 2832TIP3   OH230130   5.129   1.271   2.091  0.4569  0.1285 -0.1636
 2832TIP3    H130131   5.224   1.274   2.086  0.7784 -2.5513  1.8572
 2832TIP3    H230132   5.108   1.307   2.177 -0.3265  0.3037 -0.4170
 2833TIP3   OH230133   6.824   0.863   6.690 -0.0613 -0.8401 -0.2466
 2833TIP3    H130134   6.744   0.892   6.733 -0.2703 -1.1267 -0.4398
 2833TIP3    H230135   6.885   0.935   6.701 -0.1898 -0.8192  0.3302
 2834TIP3   OH230136   2.129   0.510   8.552  0.6535  0.1544 -0.5471
 2834TIP3    H130137   2.094   0.474   8.471 -1.2609 -0.7204  0.5762
 2834TIP3    H230138   2.109   0.604   8.548 -1.0871 -0.1722 -0.3617
 2835TIP3   OH230139   5.244   6.008   8.262  0.6257  1.4426  0.0710
 2835TIP3    H130140   5.335   6.007   8.289  0.2176  0.9698  1.4977
 2835TIP3    H230141   5.201   6.068   8.323 -0.3060  0.4343  0.4336
 2836TIP3   OH230142   5.127   5.342   7.725 -0.0230  0.1378  0.1737
 2836TIP3    H130143   5.154   5.395   7.801 -0.3272  0.2585  0.1956
 2836TIP3    H230144   5.194   5.361   7.659 -0.5595  1.1687 -0.1001
 2837TIP3   OH230145   2.095   1.598   0.211  0.1173 -0.1409 -0.0349
 2837TIP3    H130146   2.037   1.558   0.276  0.4323  0.4432  0.6252
 2837TIP3    H230147   2.043   1.603   0.132 -0.7440  0.3397  0.5396
 2838TIP3   OH230148   6.415   1.858   0.322  0.1486 -0.7487  0.5175
 2838TIP3    H130149   6.460   1.889   0.400  0.0286  0.7275  0.0310
 2838TIP3    H230150   6.326   1.894   0.330  0.4886  0.5041 -0.8710
 2839TIP3   OH230151   2.295   2.805   1.117  0.1315 -0.1591  0.1450
 2839TIP3    H130152   2.216   2.841   1.077  0.3476 -0.7407 -0.8445
 2839TIP3    H230153   2.350   2.882   1.135 -0.1618  0.1534 -0.2729
 2840TIP3   OH230154   5.320   3.528   2.080 -0.1781  0.1303  0.1603
 2840TIP3    H130155   5.376   3.451   2.076 -0.9763 -0.5816  1.8245
 2840TIP3    H230156   5.343   3.579   2.002  0.8043 -1.4756 -0.6413
 2841TIP3   OH230157   1.669   4.145   1.472 -0.6257  0.2141 -0.1602
 2841TIP3    H130158   1.724   4.129   1.549 -1.3596  0.4215  0.4205
 2841TIP3    H230159   1.591   4.188   1.507 -1.1956 -0.1482 -0.9586
 2842TIP3   OH230160   1.016   6.823   0.306 -0.2740  0.1051 -0.5289
 2842TIP3    H130161   1.099   6.777   0.317 -0.6901 -0.2624  1.3678
 2842TIP3    H230162   0.983   6.835   0.395 -2.5469 -0.2827 -1.2591
 2843TIP3   OH230163   3.583   3.762   7.735  0.0932 -0.0750 -0.1101
 2843TIP3    H130164   3.658   3.705   7.717 -0.1529 -0.4273 -0.0393
 2843TIP3    H230165   3.587   3.776   7.830 -1.1506 -1.8631  0.2584
 2844TIP3   OH230166   4.708   6.069   7.962  0.3299 -0.0299  0.0477
 2844TIP3    H130167   4.728   5.996   8.020 -1.3099 -0.1855  0.4504
 2844TIP3    H230168   4.747   6.146   8.005 -0.4921 -0.2104  1.1551
 2845TIP3   OH230169   3.356   0.850   1.409 -0.2244  0.2938 -0.0149
 2845TIP3    H130170   3.447   0.870   1.387  0.2197 -0.5119  1.0142
 2845TIP3    H230171   3.328   0.923   1.465 -0.2513  0.6005 -0.4280
 2846TIP3   OH230172   4.953   4.593   0.203  0.6900 -0.2140 -0.1438
 2846TIP3    H130173   5.036   4.636   0.180  0.4479 -0.2638 -1.1111
 2846TIP3    H230174   4.894   4.615   0.132 -0.3609  0.4260  0.8873
 2847TIP3   OH230175   3.983   6.589   1.280 -0.3929  0.0871  0.0024
 2847TIP3    H130176   3.941   6.615   1.362 -1.8324  0.4709 -0.8202
 2847TIP3    H230177   4.017   6.671   1.243  0.6899 -0.1503  0.4143
 2848TIP3   OH230178   4.002   5.254   1.832  0.0720  1.0028  0.4473
 2848TIP3    H130179   4.082   5.217   1.796 -1.3009 -0.4994 -1.2860
 2848TIP3    H230180   3.957   5.179   1.872 -0.3793  1.8659  1.6199
 2849TIP3   OH230181   0.894   3.616   2.175 -0.1862 -0.1454  0.3149
 2849TIP3    H130182   0.924   3.694   2.221 -1.1062  0.4287 -0.0352
 2849TIP3    H230183   0.858   3.560   2.245  0.2016 -0.1372  0.5269
 2850TIP3   OH230184   4.087   6.801   0.940 -0.9665  0.0955 -0.4645
 2850TIP3    H130185   4.137   6.875   0.904 -2.3315  1.5950  0.5803
 2850TIP3    H230186   4.093   6.813   1.035 -0.8307 -1.4338 -0.2643
 2851TIP3   OH230187   0.646   3.317   1.038 -0.3806 -0.0779 -0.1297
 2851TIP3    H130188   0.589   3.313   1.114 -0.3264  0.2489 -0.0705
 2851TIP3    H230189   0.715   3.252   1.056  0.7327  1.3483  1.0157
 2852TIP3   OH230190   5.839   4.686   6.194 -0.5548  0.7151 -0.2592
 2852TIP3    H130191   5.816   4.778   6.188 -0.7554  0.6124 -1.1819
 2852TIP3    H230192   5.889   4.679   6.275  0.6303  1.8949 -0.8455
 2853TIP3   OH230193   3.409   3.139   1.033 -0.2996 -0.0162  0.2996
 2853TIP3    H130194   3.452   3.102   1.110 -0.4881  1.6630  1.2539
 2853TIP3    H230195   3.325   3.093   1.029  0.2126 -0.9830  0.3609
 2854TIP3   OH230196   4.332   0.154   0.110 -0.6836 -0.2937 -0.2449
 2854TIP3    H130197   4.250   0.124   0.069 -1.5772  0.7320  0.7263
 2854TIP3    H230198   4.330   0.249   0.100 -0.2151 -0.1565  0.8667
 2855TIP3   OH230199   2.572   0.513   1.964  0.4490 -0.4158 -0.4054
 2855TIP3    H130200   2.596   0.599   1.999  0.4572 -0.1793 -0.9796
 2855TIP3    H230201   2.629   0.452   2.010  0.9281 -0.0417 -0.4976
 2856TIP3   OH230202   2.889   0.372   0.150  0.1206  0.1044 -0.7094
 2856TIP3    H130203   2.823   0.432   0.116  0.0585  0.4668  0.0380
 2856TIP3    H230204   2.872   0.368   0.244  0.0510 -1.1828 -0.7587
 2857TIP3   OH230205   4.636   0.320   0.168  0.6952  0.1603 -0.0065
 2857TIP3    H130206   4.578   0.365   0.229 -0.5858  0.0349 -1.0979
 2857TIP3    H230207   4.685   0.391   0.126 -0.0178  0.4223 -0.4156
 2858TIP3   OH230208   3.368   4.612   8.388 -0.3633 -0.2755 -0.7522
 2858TIP3    H130209   3.299   4.663   8.430 -0.9475 -1.5635 -0.0769
 2858TIP3    H230210   3.323   4.561   8.321  0.2867  0.4420 -1.7491
 2859TIP3   OH230211   4.437   2.442   7.121 -0.1729  0.1556  0.0626
 2859TIP3    H130212   4.349   2.480   7.123  0.8046  2.6145  0.5085
 2859TIP3    H230213   4.476   2.476   7.040  1.2209  1.3228  1.1687
 2860TIP3   OH230214   1.163   3.585   2.291 -0.1056  0.1087 -0.0473
 2860TIP3    H130215   1.140   3.531   2.215  0.9015 -0.3491 -0.0430
 2860TIP3    H230216   1.205   3.662   2.254  0.8026 -0.3245  0.0390
 2861TIP3   OH230217   2.690   4.530   0.348  0.2241  0.0387 -0.1202
 2861TIP3    H130218   2.597   4.513   0.357 -0.0312  2.0090  2.0485
 2861TIP3    H230219   2.701   4.620   0.379  2.6736  0.3399 -1.5878
 2862TIP3   OH230220   0.031   0.547   0.168  0.5977 -0.3706  0.2122
 2862TIP3    H130221  -0.058   0.552   0.132  0.1933 -1.2743  1.0332
 2862TIP3    H230222   0.030   0.608   0.242  0.8516  0.0754 -0.1499
 2863TIP3   OH230223   1.449   3.268   8.026 -0.4549 -0.0865 -0.0014
 2863TIP3    H130224   1.356   3.258   8.048 -0.6719 -0.0880 -0.8697
 2863TIP3    H230225   1.467   3.195   7.966 -0.8081  1.7809 -2.5531
 2864TIP3   OH230226   6.575   0.362   1.629  0.2191 -0.1422 -0.6767
 2864TIP3    H130227   6.497   0.412   1.609  0.6754  0.4485 -1.0014
 2864TIP3    H230228   6.542   0.280   1.667 -0.5768 -0.2535 -1.5754
 2865TIP3   OH230229   5.821   3.217   6.980 -0.1622 -0.0713  0.0535
 2865TIP3    H130230   5.829   3.286   6.915  1.5897  0.3827  0.6792
 2865TIP3    H230231   5.814   3.136   6.930 -0.0700  0.3794 -0.6893
 2866TIP3   OH230232   1.247   0.046   1.404  0.0431  0.0596  0.1854
 2866TIP3    H130233   1.164   0.050   1.452 -1.6243 -1.0037 -2.4275
 2866TIP3    H230234   1.311   0.018   1.470 -2.1557 -1.6819  1.7490
 2867TIP3   OH230235   1.713   4.891   2.056  0.0574 -0.3800  0.5326
 2867TIP3    H130236   1.760   4.870   2.137 -0.7359  1.8371  1.6515
 2867TIP3    H230237   1.726   4.815   2.001  0.5056 -2.0568  2.7939
 2868TIP3   OH230238   1.967   0.376   0.004  0.0628 -0.6913 -0.1563
 2868TIP3    H130239   1.912   0.452   0.022 -0.8940 -1.6338  1.0985
 2868TIP3    H230240   2.019   0.402  -0.072 -0.6953  0.9647 -0.1655
 2869TIP3   OH230241   1.764   2.079   2.152  0.1892 -0.0735  0.8788
 2869TIP3    H130242   1.709   2.043   2.082 -0.6152  1.3201  0.7665
 2869TIP3    H230243   1.849   2.037   2.139 -0.1773 -0.4644 -0.4262
 2870TIP3   OH230244   4.391   1.472   1.849 -0.0934 -0.3637  0.5784
 2870TIP3    H130245   4.355   1.536   1.787  1.8566 -0.9756 -1.3359
 2870TIP3    H230246   4.422   1.524   1.922 -1.8694  0.4607  0.8121
 2871TIP3   OH230247   1.263   0.629   0.298  0.0621 -0.3165  0.3262
 2871TIP3    H130248   1.179   0.647   0.340  0.7993 -0.9885  2.1732
 2871TIP3    H230249   1.254   0.540   0.263 -0.2032 -0.1416 -0.0588
 2872TIP3   OH230250   5.876   6.211   8.144  0.0976  0.2596  0.2643
 2872TIP3    H130251   5.916   6.147   8.202  0.1457  1.0571  1.1500
 2872TIP3    H230252   5.787   6.179   8.129  0.8091 -1.1436 -1.1130
 2873TIP3   OH230253   4.569   4.169   7.338  0.5206 -0.5045  0.0809
 2873TIP3    H130254   4.616   4.166   7.422 -0.7791  1.1086  0.9370
 2873TIP3    H230255   4.612   4.103   7.284  1.4777 -1.5279  1.9782
 2874TIP3   OH230256   5.419   0.501   1.534  0.2255 -0.2110  0.2481
 2874TIP3    H130257   5.481   0.445   1.581 -1.0143 -1.9389 -0.0551
 2874TIP3    H230258   5.367   0.542   1.603 -0.1566 -1.0283  0.4643
 2875TIP3   OH230259   4.902   5.382   0.500 -0.0288 -0.3417  0.1625
 2875TIP3    H130260   4.898   5.365   0.594  0.6571 -0.8415  0.1087
 2875TIP3    H230261   4.859   5.308   0.459 -2.5474  1.0304  0.1484
 2876TIP3   OH230262   5.674   2.194   0.935  0.4850 -0.3230  0.4358
 2876TIP3    H130263   5.663   2.270   0.878  0.0378 -0.6038  0.1469
 2876TIP3    H230264   5.765   2.201   0.966  0.6876 -0.0983 -0.1942
 2877TIP3   OH230265   3.255   3.496   2.038  0.7375 -0.6379 -0.5311
 2877TIP3    H130266   3.182   3.519   2.096  0.7521  0.1046 -0.7987
 2877TIP3    H230267   3.320   3.457   2.097  1.2187  1.1270  0.1847
 2878TIP3   OH230268   4.835   2.588   0.338  0.2578 -0.1689  0.4636
 2878TIP3    H130269   4.868   2.662   0.287 -0.0271 -0.8550 -0.7543
 2878TIP3    H230270   4.909   2.562   0.393  1.7548 -1.4708 -1.9780
 2879TIP3   OH230271   4.168   6.771   8.597  0.2677  0.3898 -0.1031
 2879TIP3    H130272   4.186   6.761   8.690  0.0842 -1.0493 -0.2029
 2879TIP3    H230273   4.100   6.839   8.593 -1.0759 -0.8138  0.9885
 2880TIP3   OH230274   2.995   6.757   0.318  0.7106  0.5505  0.4360
 2880TIP3    H130275   3.029   6.669   0.306  1.3658  0.7459  0.8201
 2880TIP3    H230276   3.021   6.804   0.239  0.2363  0.3724  0.1653
 2881TIP3   OH230277   0.938   5.848   6.916  0.1518  0.7234 -0.0955
 2881TIP3    H130278   0.945   5.777   6.852 -0.1077  0.9369 -0.3625
 2881TIP3    H230279   0.935   5.804   7.000 -0.2642  0.4027 -0.2746
 2882TIP3   OH230280   3.582   1.305   8.217  0.3061 -0.1013  0.1453
 2882TIP3    H130281   3.495   1.296   8.256 -0.2193  0.3741 -0.8767
 2882TIP3    H230282   3.565   1.324   8.125  1.5226 -2.2252 -0.5794
 2883TIP3   OH230283   5.813   5.604   1.361  0.1573  0.6823  0.3910
 2883TIP3    H130284   5.812   5.508   1.364  1.4332  0.6546  0.2649
 2883TIP3    H230285   5.870   5.625   1.288  3.0992  1.5204  2.7672
 2884TIP3   OH230286   0.358   2.157   1.872 -0.3261 -0.7374  0.2475
 2884TIP3    H130287   0.433   2.097   1.868  0.7363  0.6228 -0.9424
 2884TIP3    H230288   0.397   2.244   1.866 -1.9170  0.0546  1.0258
 2885TIP3   OH230289   1.682   2.962   0.205  0.6703  0.2137 -0.3529
 2885TIP3    H130290   1.706   2.874   0.235  0.3457  0.3616  0.3534
 2885TIP3    H230291   1.587   2.963   0.206  0.6657  1.1353  1.3525
 2886TIP3   OH230292   5.630   4.151   2.559  0.3318 -0.2352  0.3567
 2886TIP3    H130293   5.608   4.234   2.601 -0.9151 -1.0646  1.4500
 2886TIP3    H230294   5.554   4.130   2.505  0.1167 -1.1990  1.0000
 2887TIP3   OH230295   3.146   4.081   0.232  0.5399  0.5748  0.6923
 2887TIP3    H130296   3.204   4.151   0.263  2.4060  0.7807 -2.7088
 2887TIP3    H230297   3.204   4.007   0.215 -0.1878  0.4934 -2.0054
 2888TIP3   OH230298   0.103   0.640   8.474 -0.2559 -0.1677 -0.0966
 2888TIP3    H130299   0.008   0.640   8.460 -0.2386  0.3616 -0.2374
 2888TIP3    H230300   0.140   0.630   8.387 -0.1792 -1.2466  0.0415
 2889TIP3   OH230301   0.728   4.925   0.720  0.2279 -0.6980  0.0702
 2889TIP3    H130302   0.757   4.890   0.805  2.8376 -0.6203 -0.7062
 2889TIP3    H230303   0.647   4.973   0.740  1.0407 -0.2521  2.5955
 2890TIP3   OH230304   6.643   1.663   3.021 -0.3864  0.6126  0.9437
 2890TIP3    H130305   6.644   1.751   3.061  0.1750  0.4077  1.3995
 2890TIP3    H230306   6.734   1.647   2.997 -0.3807 -0.0714  1.3855
 2891TIP3   OH230307   2.210   5.337   1.432 -0.9621 -0.0901 -0.4444
 2891TIP3    H130308   2.254   5.342   1.347 -1.9433  1.3372 -0.9157
 2891TIP3    H230309   2.281   5.337   1.496 -0.2271 -0.2579 -1.2454
 2892TIP3   OH230310   4.364   2.410   8.447 -0.1148  0.0293 -0.1814
 2892TIP3    H130311   4.452   2.382   8.422  0.2276  0.7056  0.2223
 2892TIP3    H230312   4.366   2.505   8.440 -1.1067  0.0072 -1.0798
 2893TIP3   OH230313   5.304   1.944   6.760 -0.2046  0.2351 -0.5199
 2893TIP3    H130314   5.323   1.860   6.802 -0.4142 -0.1872 -1.2436
 2893TIP3    H230315   5.337   2.009   6.821 -1.4121 -0.3137  0.7634
 2894TIP3   OH230316   1.173   2.629   7.556 -0.4875  0.0680 -0.4636
 2894TIP3    H130317   1.197   2.712   7.514 -0.9655  0.5853  0.2770
 2894TIP3    H230318   1.255   2.598   7.595 -0.5419  0.7430  0.2002
 2895TIP3   OH230319   4.046   4.325   2.314  1.2329 -0.0468 -0.4602
 2895TIP3    H130320   4.063   4.413   2.347 -0.4995  0.1504  0.0267
 2895TIP3    H230321   4.108   4.269   2.360  0.2163  0.5005  1.6887
 2896TIP3   OH230322   6.060   3.570   1.629 -1.4392  0.3955  0.1292
 2896TIP3    H130323   6.076   3.658   1.660 -1.8324  0.0245  1.4386
 2896TIP3    H230324   6.089   3.513   1.700 -1.4249 -0.5272 -0.5893
 2897TIP3   OH230325   5.911   4.491   8.028 -0.3374 -0.7310 -0.6668
 2897TIP3    H130326   5.914   4.398   8.052  0.5872 -0.4538  0.4010
 2897TIP3    H230327   5.913   4.537   8.112  0.2829  0.2637 -1.2096
 2898TIP3   OH230328   2.675   2.309   1.540 -0.6769 -0.0103  0.5351
 2898TIP3    H130329   2.742   2.292   1.606 -0.3769 -0.7216  0.0662
 2898TIP3    H230330   2.607   2.357   1.587  0.0932  0.6067  1.0528
 2899TIP3   OH230331   0.388   5.616   8.497  0.3291  0.5466  0.3026
 2899TIP3    H130332   0.396   5.544   8.559  0.5525  2.2333  2.3352
 2899TIP3    H230333   0.465   5.608   8.441 -0.7817 -2.0559 -1.0405
 2900TIP3   OH230334   2.532   2.636   7.444 -0.1663  0.0180 -0.4724
 2900TIP3    H130335   2.595   2.706   7.457 -0.1823 -0.1374  0.5072
 2900TIP3    H230336   2.452   2.680   7.417 -0.4482  0.4786  1.0348
 2901TIP3   OH230337   2.092   2.362   1.794  0.5897  0.0106  0.2480
 2901TIP3    H130338   2.130   2.386   1.878 -1.2476 -0.0784  1.1547
 2901TIP3    H230339   2.152   2.296   1.759  3.9953  3.3207 -0.8027
 2902TIP3   OH230340   1.976   1.641   2.012 -0.7605  1.0204 -0.0498
 2902TIP3    H130341   1.954   1.557   2.051 -1.9176  1.0165 -0.6634
 2902TIP3    H230342   2.057   1.668   2.056 -2.3168  1.3591  2.8923
 2903TIP3   OH230343   0.597   0.389   8.245 -1.2290 -0.1611  0.6515
 2903TIP3    H130344   0.691   0.397   8.265 -1.0453 -0.2664 -0.1336
 2903TIP3    H230345   0.593   0.392   8.149 -2.1525  1.0591  0.7122
 2904TIP3   OH230346   3.406   6.371   7.240 -0.6561 -0.0435  0.0699
 2904TIP3    H130347   3.403   6.359   7.145 -0.9011  1.8616 -0.2108
 2904TIP3    H230348   3.498   6.392   7.258 -0.6226 -0.3421  0.2483
 2905TIP3   OH230349   6.586   6.433   0.881  0.1562 -0.3951  0.4561
 2905TIP3    H130350   6.622   6.406   0.796  1.5702 -1.0106  1.2107
 2905TIP3    H230351   6.529   6.507   0.861  0.8260 -0.2359 -0.9858
 2906TIP3   OH230352   4.638   6.815   0.292 -0.2368 -0.2431  0.0405
 2906TIP3    H130353   4.718   6.791   0.246 -0.5047  0.1842 -0.6618
 2906TIP3    H230354   4.667   6.875   0.361  0.0772 -0.2722 -0.0649
 2907TIP3   OH230355   0.227   6.806   1.693  0.3562 -0.1890  0.2941
 2907TIP3    H130356   0.240   6.839   1.782 -1.2165 -1.1675  0.9290
 2907TIP3    H230357   0.164   6.867   1.654 -0.9397 -1.2008  0.7554
 2908TIP3   OH230358   2.562   3.728   2.956  0.2467  0.3175 -0.3981
 2908TIP3    H130359   2.617   3.650   2.959 -0.8242 -0.5269 -1.6389
 2908TIP3    H230360   2.596   3.779   2.883  2.1741  2.0366  1.5697
 2909TIP3   OH230361   6.641   0.924   0.779 -0.6464 -0.5855 -0.1595
 2909TIP3    H130362   6.663   1.007   0.736 -0.0063 -1.0170 -0.6816
 2909TIP3    H230363   6.556   0.941   0.820 -0.2648  0.4947  0.2193
 2910TIP3   OH230364   2.543   0.031   1.464  0.5772  0.1635 -0.7439
 2910TIP3    H130365   2.611   0.036   1.531  0.2794  2.5167 -0.5256
 2910TIP3    H230366   2.504  -0.056   1.476  2.0090 -0.3444  0.6333
 2911TIP3   OH230367   5.559   4.104   2.148  0.1482 -0.0184 -0.0773
 2911TIP3    H130368   5.639   4.094   2.097 -0.3389 -0.6704 -0.7457
 2911TIP3    H230369   5.570   4.043   2.221 -0.3141 -1.1910 -0.9426
 2912TIP3   OH230370   5.826   6.419   1.579 -0.1684  0.2735 -0.1136
 2912TIP3    H130371   5.796   6.329   1.564  0.9154 -0.1850  0.3774
 2912TIP3    H230372   5.853   6.421   1.671  1.7849  0.4977 -0.6504
 2913TIP3   OH230373   0.221   4.584   0.544 -0.5724  0.5590  0.4738
 2913TIP3    H130374   0.218   4.500   0.590  0.6336 -0.0490 -0.4958
 2913TIP3    H230375   0.293   4.574   0.481 -0.3937  2.3388  0.3622
 2914TIP3   OH230376   6.605   2.369   0.230 -0.2221  0.1030 -0.4699
 2914TIP3    H130377   6.638   2.314   0.159  0.2572 -1.1156  0.6408
 2914TIP3    H230378   6.677   2.429   0.249 -0.1628  0.0999 -0.6849
 2915TIP3   OH230379   0.522   0.287   7.737 -0.3195 -1.0322 -0.2353
 2915TIP3    H130380   0.531   0.191   7.740  1.9703 -0.8732 -0.9081
 2915TIP3    H230381   0.534   0.310   7.645  0.3411  0.0016  0.0954
 2916TIP3   OH230382   5.691   0.971   1.300  0.5408  0.1762 -0.2630
 2916TIP3    H130383   5.768   1.020   1.272  1.4259 -0.3830  1.1021
 2916TIP3    H230384   5.724   0.882   1.316 -0.7135 -0.4781 -1.1813
 2917TIP3   OH230385   2.397   2.609   2.276  0.1591 -0.1150  0.1571
 2917TIP3    H130386   2.433   2.521   2.281  0.6881  0.1254  0.8859
 2917TIP3    H230387   2.458   2.658   2.220 -0.4825 -0.3638 -0.7766
 2918TIP3   OH230388   1.772   6.418   0.952 -0.3692  0.0013  0.6710
 2918TIP3    H130389   1.821   6.365   0.889  0.1101 -0.7211  1.6264
 2918TIP3    H230390   1.740   6.356   1.017 -1.4720  0.6423  0.7644
 2919TIP3   OH230391   6.297   0.446   7.999 -0.2453 -0.7233  0.6888
 2919TIP3    H130392   6.290   0.538   7.974  1.2087 -0.4393  1.2328
 2919TIP3    H230393   6.223   0.431   8.058 -0.5659  0.0675  0.4934
 2920TIP3   OH230394   1.078   5.883   7.512 -0.1394 -0.6854  0.2603
 2920TIP3    H130395   1.066   5.788   7.503  0.2805 -0.7727  0.6053
 2920TIP3    H230396   1.130   5.908   7.437 -0.8665 -0.6065 -0.2284
 2921TIP3   OH230397   0.884   2.104   7.652 -0.2298  0.4742 -0.7277
 2921TIP3    H130398   0.827   2.167   7.696  0.8314  0.6486  0.4488
 2921TIP3    H230399   0.877   2.126   7.559 -1.3938  1.0420 -0.5175
 2922TIP3   OH230400   4.374   3.707   7.256  0.3545  0.1279 -0.2809
 2922TIP3    H130401   4.430   3.702   7.178  0.3349 -0.8495 -0.2418
 2922TIP3    H230402   4.297   3.755   7.227 -0.3404 -1.5169 -1.3022
 2923TIP3   OH230403   4.507   5.500   7.317  0.3061  0.2220  0.6953
 2923TIP3    H130404   4.521   5.407   7.335 -1.0895 -0.0612  0.3901
 2923TIP3    H230405   4.413   5.513   7.325  0.5883  1.9100  2.1292
 2924TIP3   OH230406   0.143   0.079   1.452 -0.3186 -0.2697 -0.2830
 2924TIP3    H130407   0.050   0.092   1.431 -1.1415 -1.9374  1.8565
 2924TIP3    H230408   0.190   0.143   1.398 -2.5977 -0.1774 -2.3299
 2925TIP3   OH230409   1.930   6.002   0.091 -0.4321  0.0512 -0.3743
 2925TIP3    H130410   1.901   5.923   0.045 -0.5073  0.3380 -0.8269
 2925TIP3    H230411   1.926   6.071   0.025  0.6983  0.2164 -0.2824
 2926TIP3   OH230412   6.463   0.241   7.340  0.1143  0.5392  0.3561
 2926TIP3    H130413   6.409   0.210   7.413  0.3145  0.9689  0.6881
 2926TIP3    H230414   6.453   0.173   7.273 -0.2944  0.2795  0.6735
 2927TIP3   OH230415   3.519   0.931   8.582  0.0151 -0.2374  0.2744
 2927TIP3    H130416   3.544   0.937   8.490  0.1231 -1.0402  0.2422
 2927TIP3    H230417   3.593   0.887   8.624 -1.1547 -2.3988  0.2307
 2928TIP3   OH230418   5.739   3.352   0.477  0.6702  0.1860  0.3688
 2928TIP3    H130419   5.754   3.334   0.384  1.5950  1.4671  0.2366
 2928TIP3    H230420   5.683   3.429   0.478  0.2198 -0.1418  0.8808
 2929TIP3   OH230421   6.309   0.367   2.622 -0.3954  0.6497  0.7279
 2929TIP3    H130422   6.288   0.357   2.529  0.9783 -0.2009  0.4773
 2929TIP3    H230423   6.321   0.461   2.634  0.9968  0.6354 -0.3433
 2930TIP3   OH230424   1.751   3.880   1.383  0.2428  0.3323  0.3473
 2930TIP3    H130425   1.673   3.825   1.389  0.5570 -0.3324 -1.1355
 2930TIP3    H230426   1.720   3.969   1.401 -0.8006  0.0358  0.0996
 2931TIP3   OH230427   6.259   5.690   2.251  0.5654 -0.3158 -1.0085
 2931TIP3    H130428   6.275   5.679   2.345  0.6207 -1.9269 -1.1676
 2931TIP3    H230429   6.331   5.746   2.221  1.9047 -1.6694 -0.4735
 2932TIP3   OH230430   1.264   1.962   8.464 -0.1093  0.3548  0.1610
 2932TIP3    H130431   1.312   1.883   8.489 -1.9823 -0.4925  1.3118
 2932TIP3    H230432   1.206   1.933   8.394 -1.6503  0.3860  1.3861
 2933TIP3   OH230433   4.676   1.066   0.551  0.3914 -0.1951 -0.2356
 2933TIP3    H130434   4.700   1.047   0.461 -3.1164 -0.3848 -1.2821
 2933TIP3    H230435   4.696   0.986   0.599  1.3856 -0.4360 -1.0034
 2934TIP3   OH230436   3.294   0.717   1.704 -0.6081  0.0404  0.2925
 2934TIP3    H130437   3.267   0.672   1.624  0.3520 -0.5307  0.2766
 2934TIP3    H230438   3.329   0.648   1.760 -1.3199  0.4254  1.2484
 2935TIP3   OH230439   5.994   2.203   1.646 -0.4388  0.0187 -0.1086
 2935TIP3    H130440   6.027   2.209   1.556  0.3016  0.8669  0.2109
 2935TIP3    H230441   5.932   2.130   1.644  0.2410 -0.5507 -1.1032
 2936TIP3   OH230442   0.192   4.426   1.439 -0.3511 -0.5453  0.4640
 2936TIP3    H130443   0.184   4.331   1.436  1.7276 -0.7739  0.8405
 2936TIP3    H230444   0.245   4.443   1.517 -0.7322  0.9315  0.4279
 2937TIP3   OH230445   5.990   5.612   0.904 -0.1906  0.4519  0.9093
 2937TIP3    H130446   6.036   5.539   0.945 -0.6459 -0.1012  0.4493
 2937TIP3    H230447   6.053   5.645   0.839 -1.1313 -1.6342 -1.2124
 2938TIP3   OH230448   6.320   1.561   0.037 -0.0015  0.0906  0.0298
 2938TIP3    H130449   6.237   1.606   0.052 -0.3101 -0.5008  0.1278
 2938TIP3    H230450   6.302   1.499  -0.034  0.2888 -0.1960  0.1997
 2939TIP3   OH230451   1.910   3.142   0.548  0.1046 -0.4428  0.0801
 2939TIP3    H130452   1.964   3.114   0.474 -1.2017 -0.7817 -0.7809
 2939TIP3    H230453   1.923   3.075   0.614 -0.7058 -1.5371 -0.8385
 2940TIP3   OH230454   4.462   3.005   1.777 -0.1454  0.1074 -0.7268
 2940TIP3    H130455   4.474   2.934   1.840 -0.5098 -0.6396 -1.4805
 2940TIP3    H230456   4.465   3.084   1.830 -3.8514 -0.5608  0.7949
 2941TIP3   OH230457   2.941   2.508   1.055  0.2497 -0.0719 -0.2748
 2941TIP3    H130458   3.036   2.506   1.069  0.0420 -2.1892  1.4764
 2941TIP3    H230459   2.905   2.537   1.139 -0.6872 -1.2265 -0.2488
 2942TIP3   OH230460   4.679   6.089   7.057  0.3123  0.3481 -0.0820
 2942TIP3    H130461   4.720   6.052   6.979  2.9829  2.3407  0.2294
 2942TIP3    H230462   4.722   6.043   7.130 -0.6439 -0.0189  0.2673
 2943TIP3   OH230463   4.763   0.214   7.935 -0.8004 -0.0816  0.4516
 2943TIP3    H130464   4.813   0.264   7.871 -0.2899 -0.8420  0.2519
 2943TIP3    H230465   4.698   0.166   7.883  1.1042 -2.5571  0.1579
 2944TIP3   OH230466   3.100   2.612   1.373  0.0967 -0.1304  0.4608
 2944TIP3    H130467   3.137   2.665   1.443 -0.7188  1.0426  0.0417
 2944TIP3    H230468   3.042   2.672   1.326  1.6809 -0.4826 -2.0933
 2945TIP3   OH230469   3.643   3.320   0.227 -0.3489 -0.1049 -0.3172
 2945TIP3    H130470   3.611   3.320   0.136 -3.2648  0.1638  0.6200
 2945TIP3    H230471   3.583   3.379   0.273  1.3114  0.0761  1.7407
 2946TIP3   OH230472   6.697   6.532   8.022 -0.5720  0.6635 -0.2153
 2946TIP3    H130473   6.702   6.586   7.943  0.1684 -0.5263 -1.0131
 2946TIP3    H230474   6.604   6.510   8.031 -0.5309 -0.0435 -1.3639
 2947TIP3   OH230475   5.527   3.275   0.747 -0.0729  0.2980 -0.2655
 2947TIP3    H130476   5.528   3.347   0.810 -0.0313  0.7895 -0.8236
 2947TIP3    H230477   5.617   3.242   0.748 -0.3389 -0.4811  0.8025
 2948TIP3   OH230478   0.417   2.871   7.496 -0.3685 -0.2149  0.5890
 2948TIP3    H130479   0.355   2.851   7.426 -0.8756  0.1068  0.9342
 2948TIP3    H230480   0.483   2.802   7.491 -1.4954 -1.3690  1.0649
 2949TIP3   OH230481   3.418   2.612   6.797  0.3812  0.0181 -0.0520
 2949TIP3    H130482   3.460   2.698   6.804 -2.0094  1.1780  1.1072
 2949TIP3    H230483   3.355   2.622   6.725  0.6189 -1.0458 -0.4327
 2950TIP3   OH230484   1.429   1.820   8.162 -0.0456 -0.1412  0.0027
 2950TIP3    H130485   1.337   1.844   8.171  0.2606  1.6341 -1.1093
 2950TIP3    H230486   1.454   1.851   8.075  1.3060 -1.7206 -0.2370
 2951TIP3   OH230487   1.161   0.902   1.681 -0.0259  0.2052  0.1535
 2951TIP3    H130488   1.202   0.988   1.679  0.7655  0.0335  3.1443
 2951TIP3    H230489   1.074   0.917   1.719  1.3639 -0.5146  4.0955
 2952TIP3   OH230490   6.686   2.487   0.568 -0.1841  0.5898 -1.0856
 2952TIP3    H130491   6.654   2.576   0.578 -1.4820  0.0784 -0.4204
 2952TIP3    H230492   6.607   2.433   0.568  0.5949 -0.5933 -1.0881
 2953TIP3   OH230493   0.153   4.185   1.138  0.0688  0.0526 -0.0590
 2953TIP3    H130494   0.076   4.130   1.121  1.2196 -1.7235  0.1372
 2953TIP3    H230495   0.227   4.124   1.136  1.1916  1.1216  2.7604
 2954TIP3   OH230496   0.282   3.149   7.583  0.0138 -0.1437 -0.4900
 2954TIP3    H130497   0.266   3.211   7.512  2.4045  1.0840 -0.0483
 2954TIP3    H230498   0.377   3.142   7.589 -0.1415 -1.6966  1.3525
 2955TIP3   OH230499   0.392   0.367   0.866 -0.2859 -0.5481 -0.1630
 2955TIP3    H130500   0.327   0.316   0.914 -0.3383  0.1728  0.5339
 2955TIP3    H230501   0.410   0.314   0.788 -0.2466 -1.7082  0.5992
 2956TIP3   OH230502   1.510   4.397   8.284  0.3107 -0.2756 -0.1533
 2956TIP3    H130503   1.529   4.316   8.331  0.9739 -1.1705 -1.8816
 2956TIP3    H230504   1.423   4.384   8.247 -0.8671  1.0328  1.9901
 2957TIP3   OH230505   2.234   4.938   7.167 -0.3167 -0.1633 -0.7391
 2957TIP3    H130506   2.279   4.880   7.106 -0.3334  0.4446 -1.3453
 2957TIP3    H230507   2.142   4.932   7.142 -0.1240  1.5308 -2.0667
 2958TIP3   OH230508   1.778   2.972   8.450  0.1121  0.4347  0.1217
 2958TIP3    H130509   1.706   3.018   8.407 -0.1871 -0.6202 -0.5490
 2958TIP3    H230510   1.736   2.905   8.504  0.5753 -0.3661 -0.4811
 2959TIP3   OH230511   2.812   6.614   7.056  0.0483 -0.0444 -0.4431
 2959TIP3    H130512   2.868   6.689   7.075  0.2972 -0.3906  0.2098
 2959TIP3    H230513   2.833   6.590   6.966  0.9051 -0.1336 -0.2228
 2960TIP3   OH230514   0.600   3.779   1.315  0.0479 -0.9599 -0.0952
 2960TIP3    H130515   0.654   3.715   1.269  0.6907 -0.3034 -0.2770
 2960TIP3    H230516   0.620   3.862   1.273 -0.9986 -0.6713 -0.0587
 2961TIP3   OH230517   2.434   5.401   6.624 -0.4479 -0.6088 -0.0067
 2961TIP3    H130518   2.430   5.316   6.579  0.3219  0.3322 -1.9917
 2961TIP3    H230519   2.451   5.464   6.554  3.1988  0.7190  1.8083
 2962TIP3   OH230520   4.007   6.569   8.412 -0.5893 -0.0588  0.0178
 2962TIP3    H130521   4.089   6.539   8.373  1.1719  2.4005  1.5193
 2962TIP3    H230522   4.004   6.526   8.498  0.3618  1.5767  0.9043
 2963TIP3   OH230523   2.258   4.533   1.153 -0.4036  0.1045  0.5358
 2963TIP3    H130524   2.190   4.469   1.174 -0.6457 -0.1265 -0.8502
 2963TIP3    H230525   2.258   4.538   1.058  0.9121  0.7817  0.5411
 2964TIP3   OH230526   6.673   2.982   1.775 -0.4702  0.0214  0.1307
 2964TIP3    H130527   6.749   3.000   1.719  0.7845 -0.1256  1.6906
 2964TIP3    H230528   6.710   2.936   1.850 -2.3094 -1.0882  0.4100
 2965TIP3   OH230529   6.103   4.785   7.784 -0.2228 -0.4216 -0.3176
 2965TIP3    H130530   6.139   4.708   7.740  0.1166 -0.1919 -0.4378
 2965TIP3    H230531   6.164   4.855   7.764 -0.2213 -0.2518  0.2797
 2966TIP3   OH230532   5.316   2.820   0.853  0.3572 -0.2188  0.3425
 2966TIP3    H130533   5.381   2.792   0.918  2.2217  1.5417 -0.6517
 2966TIP3    H230534   5.234   2.823   0.902  1.4186 -0.3802  2.2475
 2967TIP3   OH230535   2.258   4.920   2.242 -0.1206 -0.1030 -0.0231
 2967TIP3    H130536   2.186   4.903   2.303 -0.8723 -0.6696 -1.0251
 2967TIP3    H230537   2.259   5.015   2.231 -1.7672 -0.1768 -1.1723
 2968TIP3   OH230538   0.406   4.111   7.362 -0.1763  0.0647 -0.4964
 2968TIP3    H130539   0.466   4.059   7.310  1.9556  0.8052  1.0353
 2968TIP3    H230540   0.462   4.177   7.404 -2.0159  0.6125  1.2894
 2969TIP3   OH230541   1.609   3.990   0.017 -0.1708 -0.5443  0.1218
 2969TIP3    H130542   1.674   3.938   0.064 -1.1359 -2.0683 -0.1487
 2969TIP3    H230543   1.554   3.925  -0.028 -3.0635  0.4967  1.8394
 2970TIP3   OH230544   2.067   1.831   0.441 -0.3212  0.7037 -0.3161
 2970TIP3    H130545   1.996   1.827   0.505 -1.2399 -1.1211 -1.3530
 2970TIP3    H230546   2.121   1.754   0.460 -0.0360  0.7003 -1.1017
 2971TIP3   OH230547   5.561   2.110   8.409  0.2177 -0.6803 -0.5466
 2971TIP3    H130548   5.496   2.180   8.409 -0.0705 -0.9517 -0.6933
 2971TIP3    H230549   5.585   2.099   8.317  1.0750 -0.0252 -0.4268
 2972TIP3   OH230550   1.661   0.363   1.301 -0.1674  0.5617 -0.7282
 2972TIP3    H130551   1.604   0.392   1.229  2.2025  1.3179 -2.4313
 2972TIP3    H230552   1.643   0.425   1.372 -0.4528  1.6988 -1.7496
 2973TIP3   OH230553   1.417   3.570   7.992 -0.2715 -0.2232  0.4906
 2973TIP3    H130554   1.431   3.475   7.982  1.2095 -0.0444  0.6211
 2973TIP3    H230555   1.453   3.608   7.912 -0.0537  0.2831  0.8252
 2974TIP3   OH230556   5.734   0.466   2.447  0.4627  0.3988  0.1232
 2974TIP3    H130557   5.789   0.491   2.373  1.5883  1.2276  1.2032
 2974TIP3    H230558   5.708   0.548   2.488 -3.6167  0.2374 -1.6448
 2975TIP3   OH230559   1.998   2.712   0.822  0.6863  0.1065  0.0048
 2975TIP3    H130560   1.978   2.619   0.819 -0.7230  0.3975 -0.8027
 2975TIP3    H230561   2.040   2.730   0.738  2.2377 -0.0299  0.7134
 2976TIP3   OH230562   2.018   3.184   1.345  0.5773  0.6071  0.4002
 2976TIP3    H130563   2.082   3.255   1.350  2.1534 -0.5930 -1.0509
 2976TIP3    H230564   1.998   3.178   1.251  1.3681 -1.5149  0.3016
 2977TIP3   OH230565   6.367   3.801   7.476  0.1214  0.3332  0.7084
 2977TIP3    H130566   6.462   3.811   7.481 -0.0070  0.9975  3.4350
 2977TIP3    H230567   6.335   3.889   7.456  0.0596  0.0280 -0.6251
 2978TIP3   OH230568   4.856   3.564   0.482 -0.2662 -0.4898 -0.2037
 2978TIP3    H130569   4.817   3.542   0.566  0.7808  1.2485  0.7951
 2978TIP3    H230570   4.783   3.561   0.420 -1.0489 -1.8215  0.7270
 2979TIP3   OH230571   2.551   4.162   1.667  0.6714  0.0033  0.3072
 2979TIP3    H130572   2.637   4.161   1.710  1.6827 -0.2960 -1.6222
 2979TIP3    H230573   2.537   4.072   1.639 -0.8246 -0.1955  1.5530
 2980TIP3   OH230574   5.852   4.545   8.315  0.0511 -0.0483  0.6408
 2980TIP3    H130575   5.814   4.485   8.379 -0.0579 -0.8173 -0.1151
 2980TIP3    H230576   5.932   4.577   8.357 -0.0658 -0.4610  1.1912
 2981TIP3   OH230577   4.878   3.411   1.185  0.7038 -0.3830  0.1835
 2981TIP3    H130578   4.785   3.411   1.205  0.2646  0.5419 -1.6211
 2981TIP3    H230579   4.910   3.495   1.216  0.7382 -0.3071 -0.0594
 2982TIP3   OH230580   2.861   3.944   7.093  0.2305 -0.3423  0.4514
 2982TIP3    H130581   2.833   3.972   7.006  0.2916  0.2357  0.6177
 2982TIP3    H230582   2.953   3.918   7.080  0.5595  0.7239  0.5478
 2983TIP3   OH230583   5.099   0.024   1.938 -0.1531  0.3696 -0.1362
 2983TIP3    H130584   5.065  -0.060   1.969 -2.0920  0.8370 -0.9018
 2983TIP3    H230585   5.177   0.039   1.992  0.2262 -1.8877  0.0368
 2984TIP3   OH230586   4.233   0.931   2.900  0.2305 -0.3008 -1.0832
 2984TIP3    H130587   4.184   0.954   2.978 -0.0976 -0.1739 -1.3219
 2984TIP3    H230588   4.277   0.849   2.922 -1.1427 -1.1441 -1.2867
 2985TIP3   OH230589   2.147   0.783   8.489 -0.3690 -0.0602 -0.0952
 2985TIP3    H130590   2.118   0.874   8.480  0.2723  0.1278 -0.2975
 2985TIP3    H230591   2.174   0.774   8.581 -0.4390 -0.0510 -0.0740
 2986TIP3   OH230592   3.086   0.826   2.805 -0.2758 -0.1867 -0.3191
 2986TIP3    H130593   3.045   0.745   2.835 -1.7170  0.3720 -0.6943
 2986TIP3    H230594   3.048   0.894   2.860 -0.4809  0.4511 -1.2313
 2987TIP3   OH230595   5.540   3.561   0.419  0.1718  0.1007  0.1565
 2987TIP3    H130596   5.448   3.579   0.397  0.6175  2.4442 -0.0096
 2987TIP3    H230597   5.590   3.617   0.361  1.8668 -2.5816 -1.1612
 2988TIP3   OH230598   1.884   6.000   2.463  0.0747 -0.3198  1.3106
 2988TIP3    H130599   1.919   6.014   2.551 -0.9564 -0.9672  1.8447
 2988TIP3    H230600   1.907   5.910   2.442  1.1059  0.1034  0.5222
 2989TIP3   OH230601   2.939   2.472   7.992 -0.0187 -0.4851 -0.1027
 2989TIP3    H130602   2.964   2.451   7.902 -0.7999 -0.1167 -0.4173
 2989TIP3    H230603   2.865   2.414   8.010 -1.6177  1.2974 -0.6675
 2990TIP3   OH230604   6.548   2.621   1.869  0.2658 -0.0554 -0.6054
 2990TIP3    H130605   6.464   2.596   1.831  0.4023  0.1801 -1.0648
 2990TIP3    H230606   6.534   2.618   1.964 -0.4110  0.5169 -0.6883
 2991TIP3   OH230607   2.248   2.473   0.183  0.1437 -0.0619 -0.2041
 2991TIP3    H130608   2.330   2.506   0.219 -0.1764  0.9153 -0.3488
 2991TIP3    H230609   2.182   2.496   0.249 -0.5310  2.1907 -1.5561
 2992TIP3   OH230610   3.516   5.493   7.465 -0.0504  0.1018 -0.5970
 2992TIP3    H130611   3.443   5.547   7.437 -0.0503 -0.0098 -0.8086
 2992TIP3    H230612   3.537   5.525   7.553  1.0700  1.6258 -1.3691
 2993TIP3   OH230613   3.699   5.713   1.196  0.4905  0.4584  0.3539
 2993TIP3    H130614   3.666   5.700   1.107  0.9307 -1.4268  0.4235
 2993TIP3    H230615   3.738   5.629   1.220 -0.2217  0.6955  2.5942
 2994TIP3   OH230616   3.898   0.439   2.016  0.7770  0.4807  0.0234
 2994TIP3    H130617   3.858   0.360   2.053  0.9717 -0.2779 -1.3185
 2994TIP3    H230618   3.855   0.511   2.062 -0.1831 -0.3776  0.5119
 2995TIP3   OH230619   1.480   5.926   7.438 -0.2511 -0.6312  0.5461
 2995TIP3    H130620   1.543   5.973   7.384  0.2713  0.8762  2.3927
 2995TIP3    H230621   1.395   5.947   7.399  0.0586  1.0072  0.6863
 2996TIP3   OH230622   3.923   2.993   1.363 -0.5509 -0.5953 -0.1096
 2996TIP3    H130623   3.870   3.058   1.317 -0.5789 -0.6466 -0.1499
 2996TIP3    H230624   3.865   2.917   1.374 -1.8235  0.6581  3.2719
 2997TIP3   OH230625   0.384   2.164   0.932 -0.1100 -0.2173 -0.4355
 2997TIP3    H130626   0.322   2.125   0.870 -1.2104  0.5621  0.1310
 2997TIP3    H230627   0.442   2.218   0.879 -1.9434  1.6067 -0.6812
 2998TIP3   OH230628   4.023   0.744   0.544  0.2496  0.1902  0.1165
 2998TIP3    H130629   4.012   0.670   0.603 -1.8980  0.4746  0.1621
 2998TIP3    H230630   3.936   0.783   0.538  0.3849  0.2250 -3.1877
 2999TIP3   OH230631   1.335   4.208   0.467  0.0256  0.0995 -0.6738
 2999TIP3    H130632   1.242   4.223   0.486 -0.1230 -1.9047  0.5055
 2999TIP3    H230633   1.354   4.265   0.392 -2.2729  0.2084 -1.2480
 3000TIP3   OH230634   3.376   2.833   2.349 -0.6198 -0.1926 -0.6046
 3000TIP3    H130635   3.391   2.864   2.438 -1.2761 -1.8064  0.0960
 3000TIP3    H230636   3.463   2.804   2.319 -0.5366 -0.3831 -0.1914
 3001TIP3   OH230637   4.699   1.465   1.465  0.2999 -0.1204  0.2690
 3001TIP3    H130638   4.667   1.451   1.554  1.8049 -0.4685  0.7827
 3001TIP3    H230639   4.757   1.390   1.449 -0.2240 -0.2438 -1.1373
 3002TIP3   OH230640   4.606   3.100   0.263 -0.1952 -0.2284 -0.2930
 3002TIP3    H130641   4.564   3.026   0.307  0.0929 -0.1420  0.1398
 3002TIP3    H230642   4.698   3.095   0.289 -0.1073  0.0946 -0.5198
 3003TIP3   OH230643   6.242   2.416   0.423 -0.2550 -0.1802  0.1354
 3003TIP3    H130644   6.259   2.504   0.457  0.2538 -0.0818 -0.3656
 3003TIP3    H230645   6.155   2.394   0.458 -0.7964  0.8852 -0.4606
 3004TIP3   OH230646   1.360   6.243   7.422 -0.0724 -0.9484  0.1921
 3004TIP3    H130647   1.425   6.173   7.417 -0.1145 -0.9166 -1.0704
 3004TIP3    H230648   1.316   6.241   7.338 -0.9025 -0.1826  0.5906
 3005TIP3   OH230649   2.246   6.037   0.939 -0.2522 -0.1379 -0.0592
 3005TIP3    H130650   2.294   6.024   1.020  1.2799  1.1908 -0.7082
 3005TIP3    H230651   2.301   5.998   0.871 -1.7493 -1.6911 -0.4599
 3006TIP3   OH230652   5.201   5.352   0.709  0.2097  0.0139 -0.2269
 3006TIP3    H130653   5.113   5.361   0.744 -0.0637 -2.7411  0.0124
 3006TIP3    H230654   5.233   5.442   0.701 -1.9453  1.0045  1.3291
 3007TIP3   OH230655   2.592   6.575   1.329  0.0198 -0.2249  0.2512
 3007TIP3    H130656   2.612   6.500   1.274  1.4082  0.3691 -0.0825
 3007TIP3    H230657   2.610   6.651   1.274 -2.4721  0.3971  0.1775
 3008TIP3   OH230658   0.434   6.290   8.686 -0.2637 -0.4030  0.3386
 3008TIP3    H130659   0.529   6.278   8.688 -0.1647  0.3814  0.6035
 3008TIP3    H230660   0.413   6.292   8.592  0.3740  2.1743  0.1766
 3009TIP3   OH230661   6.292   2.928   0.189 -0.6184 -0.4259  0.1034
 3009TIP3    H130662   6.370   2.877   0.209  0.3777  0.8766 -0.3240
 3009TIP3    H230663   6.270   2.971   0.272 -0.0203  0.3178 -0.1130
 3010TIP3   OH230664   2.403   0.821   1.662 -0.0499 -0.4992 -0.3808
 3010TIP3    H130665   2.481   0.869   1.690  1.4758 -3.3243  0.5399
 3010TIP3    H230666   2.413   0.812   1.567 -0.0251  0.3482 -0.4713
 3011TIP3   OH230667   5.155   1.038   1.500  0.6714  0.2174 -0.1629
 3011TIP3    H130668   5.241   1.010   1.533  0.6585  0.0523 -0.2680
 3011TIP3    H230669   5.097   0.965   1.520  0.8691 -0.2950 -1.4253
 3012TIP3   OH230670   3.035   6.064   7.885 -0.5474 -0.1347 -0.5340
 3012TIP3    H130671   3.094   5.989   7.883  1.3343  1.2685 -1.4924
 3012TIP3    H230672   3.014   6.075   7.978  0.2500 -1.0278 -0.2275
 3013TIP3   OH230673   4.593   1.890   7.668  0.3621  0.1632  0.6770
 3013TIP3    H130674   4.615   1.979   7.643  0.2900 -0.1688 -0.6068
 3013TIP3    H230675   4.530   1.861   7.602  1.5611 -1.3691  0.1454
 3014TIP3   OH230676   3.235   2.571   7.931  0.3485 -0.3132  0.4845
 3014TIP3    H130677   3.202   2.511   7.864  0.4482 -0.5188  0.6171
 3014TIP3    H230678   3.173   2.563   8.003  1.4370 -1.7739  1.3043
 3015TIP3   OH230679   5.983   0.479   6.890 -0.7410 -0.5585 -0.7386
 3015TIP3    H130680   6.077   0.498   6.885 -1.1405  1.5719 -1.2580
 3015TIP3    H230681   5.965   0.422   6.815  0.3645 -2.2930  0.2517
 3016TIP3   OH230682   4.680   1.428   8.642  0.5062 -0.0758  0.2591
 3016TIP3    H130683   4.621   1.360   8.610  1.1820 -0.6296  0.1510
 3016TIP3    H230684   4.750   1.380   8.686  1.0043  0.5479  0.1611
 3017TIP3   OH230685   1.445   4.205   8.628  0.3967  0.1776 -0.2973
 3017TIP3    H130686   1.475   4.187   8.539  0.1539  0.3596 -0.4161
 3017TIP3    H230687   1.500   4.149   8.684 -0.2151 -0.7980 -0.6488
 3018TIP3   OH230688   3.698   6.668   1.407  0.2529 -0.0369  0.2333
 3018TIP3    H130689   3.703   6.669   1.503  0.7954  0.1318  0.2075
 3018TIP3    H230690   3.615   6.624   1.388  0.8646 -1.5177  0.7788
 3019TIP3   OH230691   0.417   3.833   0.454 -0.0564  0.3250 -0.4697
 3019TIP3    H130692   0.362   3.770   0.500 -0.8056  0.6776 -0.8516
 3019TIP3    H230693   0.447   3.787   0.376  0.4705  0.0246 -0.0966
 3020TIP3   OH230694   3.939   1.619   8.093  0.1039  0.1096 -0.1671
 3020TIP3    H130695   3.943   1.712   8.113 -0.0753  0.4203 -1.4911
 3020TIP3    H230696   3.867   1.586   8.147 -0.2779  0.8691 -0.2080
 3021TIP3   OH230697   4.272   1.502   0.485  0.2836 -0.2485  0.4171
 3021TIP3    H130698   4.186   1.533   0.458  0.8563  0.0809 -1.1571
 3021TIP3    H230699   4.274   1.410   0.457  0.2760 -0.3883  0.8725
 3022TIP3   OH230700   0.692   4.412   8.502 -0.0952  0.2905  0.4982
 3022TIP3    H130701   0.765   4.405   8.564  0.9994 -3.9062 -0.9067
 3022TIP3    H230702   0.734   4.419   8.417 -1.3878 -0.1281 -0.1936
 3023TIP3   OH230703   3.511   5.635   8.366 -1.0500  0.3104 -0.1364
 3023TIP3    H130704   3.589   5.587   8.337 -1.0741  0.4726 -0.4718
 3023TIP3    H230705   3.541   5.726   8.373 -1.3101  0.4382 -0.6473
 3024TIP3   OH230706   1.042   2.816   0.454 -0.0560 -0.1467 -0.2277
 3024TIP3    H130707   1.026   2.735   0.502  0.7113  0.5682  1.3167
 3024TIP3    H230708   0.993   2.882   0.503  1.8852  0.8540  0.4699
 3025TIP3   OH230709   3.568   3.766   0.585  0.3667  0.2658  0.3128
 3025TIP3    H130710   3.630   3.814   0.531 -0.2800  1.1615  0.3455
 3025TIP3    H230711   3.549   3.686   0.535  0.6659  0.5354 -0.2340
 3026TIP3   OH230712   6.539   4.426   8.723 -0.3270  0.2110  0.1905
 3026TIP3    H130713   6.602   4.495   8.745 -0.9789  1.0728 -0.5610
 3026TIP3    H230714   6.555   4.357   8.787 -0.3343  1.4788  1.6152
 3027TIP3   OH230715   6.081   1.718   0.040 -0.7269 -0.1278 -0.7521
 3027TIP3    H130716   6.073   1.800  -0.008 -0.5297  0.3092 -0.0427
 3027TIP3    H230717   5.991   1.683   0.042 -1.1676  1.0184  0.5987
 3028TIP3   OH230718   2.852   6.623   8.245  0.0069  0.0382 -0.4184
 3028TIP3    H130719   2.846   6.529   8.257 -1.7764  0.0705 -0.8005
 3028TIP3    H230720   2.852   6.659   8.334  1.4529 -0.3150 -0.2461
 3029TIP3   OH230721   4.275   4.396   7.564 -0.2859  0.4499  0.1196
 3029TIP3    H130722   4.300   4.333   7.631 -1.2353  0.0416  0.1100
 3029TIP3    H230723   4.191   4.431   7.593 -1.7246 -1.1854 -1.7931
 3030TIP3   OH230724   3.951   1.792   8.543 -0.1317 -0.4057 -0.3140
 3030TIP3    H130725   4.032   1.838   8.518 -0.6863  0.1149 -1.1843
 3030TIP3    H230726   3.883   1.831   8.488 -1.2401  0.1384  1.3532
 3031TIP3   OH230727   1.398   0.609   8.304  0.0662 -0.1261 -0.2593
 3031TIP3    H130728   1.456   0.603   8.380  1.8616  0.3495 -1.5176
 3031TIP3    H230729   1.445   0.665   8.242 -0.9589 -1.1336 -2.0558
 3032TIP3   OH230730   1.774   5.433   7.035 -0.1895 -0.0457  0.5444
 3032TIP3    H130731   1.816   5.347   7.038 -0.3544 -0.1076  1.0915
 3032TIP3    H230732   1.790   5.471   7.121  1.8607  1.4314 -0.3974
 3033TIP3   OH230733   4.648   0.481   2.120 -0.1556  0.2969 -0.2212
 3033TIP3    H130734   4.605   0.479   2.035  0.8810 -1.6080 -0.7609
 3033TIP3    H230735   4.611   0.406   2.167 -0.8092  1.3952  1.0882
 3034TIP3   OH230736   1.990   5.909   6.981  0.0541  0.1721  0.7548
 3034TIP3    H130737   2.029   5.929   7.065 -0.8257  5.1960  0.2528
 3034TIP3    H230738   1.908   5.958   6.980 -0.6300 -0.7845 -2.5447
 3035TIP3   OH230739   4.059   6.336   7.226 -0.5015  0.3439  0.1795
 3035TIP3    H130740   4.049   6.432   7.225 -2.5158  0.1783  0.8069
 3035TIP3    H230741   4.055   6.311   7.134  2.6505  1.0130 -0.2697
 3036TIP3   OH230742   5.793   6.607   0.922 -0.1142 -0.0504  0.1016
 3036TIP3    H130743   5.723   6.545   0.903 -0.0881 -0.0364 -0.0390
 3036TIP3    H230744   5.827   6.580   1.007 -1.9372  1.4216  1.3989
 3037TIP3   OH230745   4.533   3.747   2.018  0.2564 -0.4448  0.3050
 3037TIP3    H130746   4.502   3.836   2.004  0.8481 -0.2793  0.0125
 3037TIP3    H230747   4.570   3.748   2.106  0.1717 -0.4265  0.3404
 3038TIP3   OH230748   3.967   1.698   1.596  0.2509  0.2006  0.4857
 3038TIP3    H130749   3.984   1.784   1.557 -1.2150  0.2496 -0.1176
 3038TIP3    H230750   3.883   1.671   1.558  0.1554 -1.0100  1.4972
 3039TIP3   OH230751   4.366   5.018   7.286 -0.4611 -0.0029  0.5459
 3039TIP3    H130752   4.328   4.932   7.270 -0.3529  0.3214 -1.7697
 3039TIP3    H230753   4.306   5.079   7.244  1.2225  0.7306 -0.9338
 3040TIP3   OH230754   5.383   5.292   7.891 -0.1391  0.2048 -0.2680
 3040TIP3    H130755   5.306   5.255   7.934 -0.9708 -0.1889 -2.0203
 3040TIP3    H230756   5.404   5.370   7.942 -1.1700 -0.1552  0.7387
 3041TIP3   OH230757   3.567   3.276   7.903 -0.1101  0.1235 -0.3376
 3041TIP3    H130758   3.530   3.363   7.890 -0.1112  0.5304  1.9184
 3041TIP3    H230759   3.661   3.291   7.911  0.0051 -0.2310 -0.9893
 3042TIP3   OH230760   3.374   2.259   2.321 -0.1888  0.8358 -0.6079
 3042TIP3    H130761   3.461   2.245   2.284  0.3109  1.3235  0.3567
 3042TIP3    H230762   3.369   2.199   2.396 -1.3620 -0.4701 -1.6634
 3043TIP3   OH230763   0.932   0.698   7.441 -0.5451 -0.7627 -0.0926
 3043TIP3    H130764   0.925   0.639   7.516  2.0958  1.2023  1.9089
 3043TIP3    H230765   0.899   0.782   7.474 -0.8522 -0.2296 -1.6925
 3044TIP3   OH230766   2.472   1.816   8.614 -0.4456 -0.9717 -0.0916
 3044TIP3    H130767   2.521   1.741   8.583  2.5370  0.5484  0.5384
 3044TIP3    H230768   2.497   1.887   8.555 -1.9186 -0.1106  0.2762
 3045TIP3   OH230769   1.906   5.685   1.677 -0.5997  0.5851  0.3129
 3045TIP3    H130770   1.864   5.669   1.592  3.2827 -0.7450 -1.6094
 3045TIP3    H230771   1.935   5.776   1.672 -1.4020  0.8784  0.7818
 3046TIP3   OH230772   3.025   3.151   1.322  0.5328 -0.7027 -0.6222
 3046TIP3    H130773   3.082   3.193   1.387  0.7433 -2.6550  0.5489
 3046TIP3    H230774   2.987   3.223   1.273  0.8380  0.8509  1.2954
 3047TIP3   OH230775   1.618   2.048   1.525 -0.8291 -0.0424 -0.6208
 3047TIP3    H130776   1.677   2.014   1.458  0.1140 -0.4131  0.3564
 3047TIP3    H230777   1.648   2.137   1.542 -1.4738  0.2781 -1.1402
 3048TIP3   OH230778   2.622   6.367   0.752  0.7543 -0.0136 -0.1871
 3048TIP3    H130779   2.709   6.349   0.786  0.5526 -0.3329  0.1675
 3048TIP3    H230780   2.564   6.309   0.801  0.5770 -1.2792 -1.7843
 3049TIP3   OH230781   3.416   1.583   0.867 -0.2105  0.4959 -0.0629
 3049TIP3    H130782   3.415   1.651   0.799 -0.9738  0.9501  0.3887
 3049TIP3    H230783   3.352   1.518   0.837 -0.4771  0.6486  0.1780
 3050TIP3   OH230784   3.024   5.696   7.826  0.0959 -0.3081  0.2186
 3050TIP3    H130785   3.090   5.761   7.802  0.2467 -0.5191  0.0543
 3050TIP3    H230786   2.944   5.746   7.835  0.0161 -0.2176 -0.7964
 3051TIP3   OH230787   4.051   1.056   2.718  0.0782 -0.1220 -0.2953
 3051TIP3    H130788   3.958   1.041   2.735  0.0158  0.2057 -0.3416
 3051TIP3    H230789   4.096   1.021   2.795 -0.0985 -0.0758 -0.1718
 3052TIP3   OH230790   3.693   6.407   7.289 -0.4275 -0.2607  0.6092
 3052TIP3    H130791   3.762   6.348   7.258 -0.5384  0.4655 -1.0798
 3052TIP3    H230792   3.741   6.481   7.327 -0.2689  0.0387 -0.1627
 3053TIP3   OH230793   2.041   0.228   0.269 -0.2821  0.2728 -0.3955
 3053TIP3    H130794   2.041   0.317   0.235  1.4685  0.7273  0.6397
 3053TIP3    H230795   1.965   0.225   0.326 -0.2337  1.2039 -0.2562
 3054TIP3   OH230796   1.246   6.698   0.384  0.0963 -0.4998 -0.0845
 3054TIP3    H130797   1.315   6.693   0.451 -0.6762  1.4302  0.9391
 3054TIP3    H230798   1.173   6.649   0.421 -0.0661 -0.0783  0.1640
 3055TIP3   OH230799   2.676   0.894   8.017 -0.1208 -0.0071  0.1755
 3055TIP3    H130800   2.631   0.976   7.997  0.8901  0.1320 -1.8004
 3055TIP3    H230801   2.744   0.919   8.080 -1.3606  0.1742  1.4969
 3056TIP3   OH230802   4.126   5.277   7.683 -0.8301 -0.0126 -0.0158
 3056TIP3    H130803   4.219   5.283   7.707 -0.2266 -1.3494 -1.8399
 3056TIP3    H230804   4.080   5.269   7.767  0.5144  2.1719  1.0249
 3057TIP3   OH230805   1.420   5.011   1.100 -0.1067  0.5050  0.2349
 3057TIP3    H130806   1.442   4.924   1.133 -1.0522 -0.3026 -1.1596
 3057TIP3    H230807   1.325   5.014   1.103 -0.0772  1.5816  0.4456
 3058TIP3   OH230808   2.927   5.312   7.584  0.3491 -0.2909  0.2338
 3058TIP3    H130809   2.850   5.258   7.604  0.8330 -1.0958 -0.0106
 3058TIP3    H230810   2.981   5.256   7.527 -0.5508  1.5662 -2.5985
 3059TIP3   OH230811   3.636   6.736   0.742  0.4084  0.0247  0.1994
 3059TIP3    H130812   3.702   6.787   0.789  0.2848 -0.1175  0.5292
 3059TIP3    H230813   3.631   6.778   0.656 -0.0015  0.8487  0.6105
 3060TIP3   OH230814   6.741   5.262   2.072  0.5114 -0.5636 -0.5100
 3060TIP3    H130815   6.805   5.219   2.016  0.5843  0.2202 -1.0550
 3060TIP3    H230816   6.671   5.198   2.084  1.3027 -1.3569 -0.0590
 3061TIP3   OH230817   3.887   5.642   7.335 -0.3056 -0.5593  0.2025
 3061TIP3    H130818   3.931   5.569   7.291 -1.1222 -0.6488 -0.5115
 3061TIP3    H230819   3.954   5.680   7.391  0.1840 -1.7517  0.4602
 3062TIP3   OH230820   5.970   4.765   8.629  0.4062 -0.1930 -0.3705
 3062TIP3    H130821   5.883   4.727   8.643  0.4431 -0.3787 -0.6277
 3062TIP3    H230822   5.955   4.859   8.625 -0.0240 -0.2954 -2.0079
 3063TIP3   OH230823   3.502   6.203   8.442 -0.0617 -0.2623 -0.0139
 3063TIP3    H130824   3.587   6.163   8.454 -0.6938 -2.1592 -1.4174
 3063TIP3    H230825   3.511   6.255   8.362  0.2459  1.0355  0.8278
 3064TIP3   OH230826   2.995   5.966   0.810 -0.1222 -0.1496  0.2085
 3064TIP3    H130827   2.972   5.885   0.764 -0.0939  0.4224 -0.8402
 3064TIP3    H230828   2.962   6.036   0.755  1.0690  0.5971  0.3890
 3065TIP3   OH230829   6.206   5.929   1.451  0.6319  0.2699 -0.1145
 3065TIP3    H130830   6.117   5.899   1.429  0.8740  0.2937 -1.2056
 3065TIP3    H230831   6.201   6.024   1.441  0.1958  0.5189  2.0968
 3066TIP3   OH230832   4.707   0.390   7.527  0.1521 -0.3287 -0.4880
 3066TIP3    H130833   4.669   0.424   7.446 -0.5473  2.2972  0.8484
 3066TIP3    H230834   4.633   0.381   7.586  0.7575 -1.5703  0.1216
 3067TIP3   OH230835   0.910   4.979   2.936  0.1972 -0.3090  0.0435
 3067TIP3    H130836   0.831   4.971   2.990  0.6457  1.1166  0.9775
 3067TIP3    H230837   0.928   5.073   2.935  1.6858 -0.5788 -0.4361
 3068TIP3   OH230838   3.056   5.222   6.722 -0.5609  0.0001  0.5121
 3068TIP3    H130839   3.015   5.305   6.747 -0.0014 -0.0386  1.5910
 3068TIP3    H230840   3.087   5.237   6.633 -0.4271  0.9733  0.7137
 3069TIP3   OH230841   4.943   3.847   0.550 -0.3222  0.3821  0.5791
 3069TIP3    H130842   4.946   3.770   0.493 -1.2366  0.2703  0.6720
 3069TIP3    H230843   4.991   3.821   0.628 -2.0549 -0.7104  1.3255
 3070TIP3   OH230844   2.209   4.113   1.831  0.7806 -0.0955 -0.0434
 3070TIP3    H130845   2.275   4.182   1.841  0.7094  0.3358 -2.1203
 3070TIP3    H230846   2.128   4.161   1.814 -0.0402 -0.6383  1.9673
 3071TIP3   OH230847   6.606   3.552   8.718 -0.3089  0.0570 -0.9156
 3071TIP3    H130848   6.544   3.555   8.791  0.8939 -0.2092  0.1531
 3071TIP3    H230849   6.599   3.637   8.676  0.4565  1.0050  0.7944
 3072TIP3   OH230850   3.616   6.500   8.499 -0.7260 -0.3464  0.4271
 3072TIP3    H130851   3.578   6.457   8.576  0.6499 -3.2967 -0.3627
 3072TIP3    H230852   3.635   6.427   8.439  0.4793  1.6015 -1.6985
 3073TIP3   OH230853   6.083   5.234   1.823  0.2973  0.0135  0.4806
 3073TIP3    H130854   6.004   5.280   1.851 -1.7074 -2.0883 -1.3210
 3073TIP3    H230855   6.118   5.194   1.903 -0.3114  1.1438  1.3380
 3074TIP3   OH230856   2.725   4.030   6.847  0.3034 -0.1318  0.4257
 3074TIP3    H130857   2.759   4.105   6.799  1.1769 -0.2464  0.8400
 3074TIP3    H230858   2.630   4.041   6.845  0.3788  0.4331 -0.3900
 3075TIP3   OH230859   1.702   6.727   1.656 -0.2647 -0.4449 -0.5250
 3075TIP3    H130860   1.709   6.637   1.686  0.6289 -0.3386 -0.4070
 3075TIP3    H230861   1.776   6.772   1.696 -1.2310  0.5630  0.1943
 3076TIP3   OH230862   0.178   6.055   2.307 -0.1871  0.0387  0.0214
 3076TIP3    H130863   0.270   6.032   2.318 -0.1644  0.9639  2.4522
 3076TIP3    H230864   0.138   6.033   2.391 -1.5134  2.5150  0.1383
 3077TIP3   OH230865   5.315   4.893   8.066 -0.5528 -0.0243  0.0044
 3077TIP3    H130866   5.297   4.932   8.151 -1.8555  0.2715 -0.3858
 3077TIP3    H230867   5.407   4.865   8.071  0.0993  2.0631  0.6940
 3078TIP3   OH230868   3.241   5.480   1.292 -0.0267 -0.1294 -0.3138
 3078TIP3    H130869   3.202   5.432   1.365 -0.0801  0.0810 -0.2006
 3078TIP3    H230870   3.314   5.529   1.331  0.2310 -0.3710 -0.4888
 3079TIP3   OH230871   0.151   5.995   8.328  0.7544  0.2797  0.3025
 3079TIP3    H130872   0.149   6.043   8.245  1.5944  0.3621  0.3265
 3079TIP3    H230873   0.059   5.974   8.345  0.6767 -0.8327 -1.2775
 3080TIP3   OH230874   3.007   4.772   8.240  0.4651 -0.1814  0.4415
 3080TIP3    H130875   3.058   4.738   8.165  0.9291 -0.4172  0.8587
 3080TIP3    H230876   3.003   4.698   8.301 -3.6085 -1.4990 -1.1107
 3081TIP3   OH230877   4.603   2.060   2.784 -0.1344 -0.4253 -0.4696
 3081TIP3    H130878   4.671   1.992   2.789 -0.1557 -0.4715 -0.8330
 3081TIP3    H230879   4.625   2.110   2.706  0.1894  0.3159  0.0856
 3082TIP3   OH230880   3.501   2.303   1.990 -0.3428  0.3941  0.0594
 3082TIP3    H130881   3.500   2.210   1.968  0.5767  0.4316 -0.1664
 3082TIP3    H230882   3.469   2.347   1.911 -1.4402  0.2399  0.3989
 3083TIP3   OH230883   3.570   0.490   0.582 -0.2278 -0.0827  0.3259
 3083TIP3    H130884   3.640   0.443   0.537  1.3846  0.7509  1.8276
 3083TIP3    H230885   3.587   0.582   0.563 -3.5763  0.1169 -2.9165
 3084TIP3   OH230886   2.277   6.499   0.250 -0.2866  0.1329  0.2353
 3084TIP3    H130887   2.294   6.573   0.308  1.7475  1.1275 -1.4847
 3084TIP3    H230888   2.311   6.423   0.297  1.1201  0.8834  0.4844
 3085TIP3   OH230889   1.805   3.167   7.471 -0.7411 -0.2927  0.3723
 3085TIP3    H130890   1.832   3.079   7.446 -1.7918 -1.1186  2.0026
 3085TIP3    H230891   1.768   3.205   7.391 -2.2199 -2.1103  0.1411
 3086TIP3   OH230892   6.858   3.108   7.630  0.0239 -0.2075  0.1242
 3086TIP3    H130893   6.874   3.015   7.612  0.0154 -0.1927  0.0402
 3086TIP3    H230894   6.945   3.148   7.627  0.1895 -0.4317  1.4279
 3087TIP3   OH230895   6.030   0.142   1.994 -0.5130  0.4228 -0.5088
 3087TIP3    H130896   5.952   0.121   1.941  2.1315  0.4119 -4.8768
 3087TIP3    H230897   6.035   0.238   1.991 -0.1331  0.3987 -0.5789
 3088TIP3   OH230898   4.846   1.145   7.371 -0.0777 -0.3568  0.0073
 3088TIP3    H130899   4.819   1.236   7.359  0.9421 -0.2215 -1.5475
 3088TIP3    H230900   4.942   1.148   7.366 -0.0863 -1.6851 -1.5141
 3089TIP3   OH230901   3.975   1.371   7.681  0.6732  0.2066 -0.7626
 3089TIP3    H130902   4.030   1.341   7.608 -0.6791 -0.5644 -1.4930
 3089TIP3    H230903   3.960   1.292   7.734 -1.1463 -0.0226 -1.5375
 3090TIP3   OH230904   5.264   1.646   1.931 -0.0230  0.0214  0.0399
 3090TIP3    H130905   5.306   1.568   1.895 -0.5509 -1.4790  2.5013
 3090TIP3    H230906   5.300   1.718   1.879  2.0236 -1.6416 -0.9983
 3091TIP3   OH230907   3.196   4.935   8.027  0.3007  0.8242  0.0155
 3091TIP3    H130908   3.267   4.985   7.988  1.2417 -0.3943  0.0998
 3091TIP3    H230909   3.155   4.994   8.090 -0.5530  2.4821 -1.9774
 3092TIP3   OH230910   5.359   0.641   1.288 -0.7245  0.2042  0.2804
 3092TIP3    H130911   5.435   0.602   1.244 -0.5996 -0.1597  0.8111
 3092TIP3    H230912   5.363   0.607   1.377 -1.0022  0.9023  0.5636
 3093TIP3   OH230913   4.287   0.568   7.634 -0.1500 -0.0015  0.4119
 3093TIP3    H130914   4.362   0.623   7.655 -3.2402  3.4622  4.0273
 3093TIP3    H230915   4.315   0.479   7.656  2.5043  1.3061  3.0254
 3094TIP3   OH230916   3.799   6.106   2.148  0.0405  0.4725  0.0899
 3094TIP3    H130917   3.758   6.187   2.181  0.0990  1.8453 -2.8976
 3094TIP3    H230918   3.892   6.119   2.162  0.0507  0.9244 -0.3980
 3095TIP3   OH230919   3.772   4.998   7.781  0.1601 -0.7555  0.3480
 3095TIP3    H130920   3.760   4.910   7.745 -2.5963 -0.7033  0.8957
 3095TIP3    H230921   3.770   4.986   7.876  0.4258 -0.1657  0.4337
 3096TIP3   OH230922   1.883   5.765   6.764 -0.0102  0.2713  0.3251
 3096TIP3    H130923   1.802   5.814   6.776 -0.6125 -0.2506 -1.2713
 3096TIP3    H230924   1.941   5.797   6.833 -1.3159  1.1963  1.0409
 3097TIP3   OH230925   0.293   2.854   8.717 -0.0186 -0.3057 -0.7218
 3097TIP3    H130926   0.389   2.847   8.723 -0.0620 -0.2719  0.1768
 3097TIP3    H230927   0.261   2.794   8.784 -0.6049  0.4351 -0.3200
 3098TIP3   OH230928   6.285   5.948   0.220  0.7468  0.4364  0.2245
 3098TIP3    H130929   6.203   5.928   0.264  0.2257  0.4492 -0.6976
 3098TIP3    H230930   6.351   5.895   0.264 -0.1452 -1.3203 -0.4796
 3099TIP3   OH230931   4.234   4.853   2.066  0.1557  0.0512  0.0604
 3099TIP3    H130932   4.225   4.859   1.971 -1.3048 -0.4623  0.1381
 3099TIP3    H230933   4.265   4.939   2.093  0.8763  0.1071 -0.9050
 3100TIP3   OH230934   3.341   4.033   1.713 -0.9012 -0.2594 -0.6317
 3100TIP3    H130935   3.302   3.960   1.762 -0.7030 -0.3528 -0.6125
 3100TIP3    H230936   3.435   4.024   1.728 -0.9890  1.9034  2.0973
 3101TIP3   OH230937   6.315   1.732   7.674 -0.2266 -0.4249  0.5212
 3101TIP3    H130938   6.387   1.713   7.615 -1.3188 -0.2006 -0.9418
 3101TIP3    H230939   6.293   1.824   7.656 -1.7264 -0.8586 -0.0602
 3102TIP3   OH230940   5.446   1.212   1.817 -0.0413 -0.5037  0.1045
 3102TIP3    H130941   5.522   1.224   1.760 -0.5933  0.5190 -0.4497
 3102TIP3    H230942   5.427   1.118   1.812  1.8685 -0.9824  1.1739
 3103TIP3   OH230943   1.105   3.306   1.081  0.1951 -0.4850 -0.3122
 3103TIP3    H130944   1.077   3.235   1.138  1.3542 -0.6237  0.1069
 3103TIP3    H230945   1.192   3.331   1.113  0.8812 -0.5575 -1.9902
 3104TIP3   OH230946   4.240   2.151   1.633  0.1497 -0.1041 -0.1937
 3104TIP3    H130947   4.216   2.202   1.556  2.1836 -0.1087 -0.8865
 3104TIP3    H230948   4.330   2.123   1.617  0.0181 -1.6498  1.3810
 3105TIP3   OH230949   6.410   6.144   2.497  0.2102 -0.2456  0.5254
 3105TIP3    H130950   6.498   6.181   2.495  0.1282 -0.0757  0.0791
 3105TIP3    H230951   6.424   6.049   2.503  0.4229 -0.2132  0.5444
 3106TIP3   OH230952   5.512   4.697   7.879  0.4413  0.1808 -0.1465
 3106TIP3    H130953   5.495   4.733   7.966 -1.0920  0.5652 -0.5756
 3106TIP3    H230954   5.529   4.604   7.894  1.6511  0.5081  0.6911
 3107TIP3   OH230955   3.970   0.929   1.347  0.0291 -0.0824  0.4467
 3107TIP3    H130956   4.060   0.961   1.339 -0.2564  0.7976  0.6662
 3107TIP3    H230957   3.932   0.946   1.261  0.6728 -2.4582 -0.3928
 3108TIP3   OH230958   2.885   6.508   0.876  0.4791 -0.4819  0.1766
 3108TIP3    H130959   2.979   6.524   0.874  0.2841  0.7042 -1.2196
 3108TIP3    H230960   2.846   6.593   0.855 -0.8735 -1.1321 -0.0372
 3109TIP3   OH230961   4.330   0.287   1.916 -0.5398 -0.1600  0.6634
 3109TIP3    H130962   4.357   0.197   1.935  0.4422  0.4853  2.6217
 3109TIP3    H230963   4.278   0.280   1.836  0.6195 -2.2810  0.0024
 3110TIP3   OH230964   4.963   3.923   7.732 -0.3247 -0.1900  0.0331
 3110TIP3    H130965   4.900   3.880   7.675  0.1462 -1.5603  0.5160
 3110TIP3    H230966   5.037   3.943   7.676 -1.3755  2.0390 -0.7004
 3111TIP3   OH230967   4.369   6.732   1.160  0.5150  0.4829  0.0489
 3111TIP3    H130968   4.441   6.792   1.179 -0.0718  0.6746  1.8284
 3111TIP3    H230969   4.395   6.649   1.200 -0.0329  0.4093  0.2617
 3112TIP3   OH230970   0.410   6.388   7.624 -0.1621 -0.2170  0.1458
 3112TIP3    H130971   0.505   6.371   7.620  0.2066  1.6175 -0.0054
 3112TIP3    H230972   0.372   6.321   7.568  1.3139  0.5425 -1.9088
 3113TIP3   OH230973   2.275   2.572   2.032 -0.3896 -0.1583 -0.0075
 3113TIP3    H130974   2.238   2.484   2.025  0.7178 -0.6740  0.3564
 3113TIP3    H230975   2.296   2.581   2.125  2.2382 -0.7049 -0.4645
 3114TIP3   OH230976   1.473   4.180   8.007 -0.0707 -0.1134 -0.5894
 3114TIP3    H130977   1.512   4.095   7.985 -0.3010  0.6078 -4.2913
 3114TIP3    H230978   1.396   4.157   8.061  1.4799 -1.9652  0.9919
 3115TIP3   OH230979   5.440   2.194   1.874  0.2329  0.0284  0.0160
 3115TIP3    H130980   5.494   2.245   1.934  0.0852 -0.0638  0.2298
 3115TIP3    H230981   5.439   2.244   1.793 -1.7329  1.5079  0.8778
 3116TIP3   OH230982   1.347   5.828   8.672 -0.9454 -0.3320  0.3241
 3116TIP3    H130983   1.357   5.920   8.696 -1.0315 -0.1658 -0.2506
 3116TIP3    H230984   1.371   5.779   8.751  0.5770  0.1412  0.1992
 3117TIP3   OH230985   0.606   1.970   0.685 -0.4744 -0.0224  0.4084
 3117TIP3    H130986   0.688   1.933   0.651  0.7005  1.9114  1.0116
 3117TIP3    H230987   0.540   1.944   0.621  0.9526  0.0316 -1.1622
 3118TIP3   OH230988   1.532   3.697   7.719  0.6804  0.0925 -0.2086
 3118TIP3    H130989   1.538   3.616   7.668 -1.4290 -0.4133  0.2617
 3118TIP3    H230990   1.617   3.739   7.707  1.1352 -1.2283 -2.0754
 3119TIP3   OH230991   4.160   0.826   1.912 -0.8904  0.0001  0.4736
 3119TIP3    H130992   4.146   0.920   1.902  0.6101  0.5377  2.6501
 3119TIP3    H230993   4.140   0.789   1.826 -1.0915  2.3614 -0.5598
 3120TIP3   OH230994   6.001   2.991   8.160 -0.1388  0.0900 -0.2400
 3120TIP3    H130995   5.916   3.031   8.181  0.0661  0.3172  0.1840
 3120TIP3    H230996   5.992   2.959   8.071 -0.5540  0.4335 -0.3234
 3121TIP3   OH230997   4.718   4.619   1.732 -0.4306 -0.3533 -0.2712
 3121TIP3    H130998   4.743   4.580   1.816 -0.5556  1.0976  0.4786
 3121TIP3    H230999   4.686   4.546   1.680  1.0409 -1.5165  0.4012
 3122TIP3   OH231000   6.474   6.555   0.053  0.3953  0.3889  0.2744
 3122TIP3    H131001   6.418   6.583  -0.018 -2.8145 -2.7404  1.2763
 3122TIP3    H231002   6.497   6.636   0.099  1.0816  2.2973 -3.1132
 3123TIP3   OH231003   0.978   6.046   0.132 -0.0054 -0.1737  0.7129
 3123TIP3    H131004   0.950   6.102   0.204 -1.5048 -0.2544  0.2368
 3123TIP3    H231005   1.068   6.021   0.154  0.4332  1.7544  1.3273
 3124TIP3   OH231006   2.625   2.835   8.700  0.2627 -0.0973  0.8508
 3124TIP3    H131007   2.683   2.849   8.625 -1.6039 -0.1204 -0.6501
 3124TIP3    H231008   2.622   2.920   8.744  1.2816 -0.0536  0.8632
 3125TIP3   OH231009   5.437   3.183   0.239  0.1153  0.0239 -0.3272
 3125TIP3    H131010   5.370   3.189   0.170  0.1142  0.8993 -0.2700
 3125TIP3    H231011   5.397   3.227   0.314  0.4089 -0.2618 -0.0006
 3126TIP3   OH231012   5.311   0.193   0.155  0.4139 -0.1154 -0.3948
 3126TIP3    H131013   5.403   0.217   0.166  0.3550 -0.2354  0.4179
 3126TIP3    H231014   5.312   0.128   0.084  1.0639 -0.7232  0.1511
 3127TIP3   OH231015   2.705   1.208   7.562 -0.3408  0.4080 -0.4481
 3127TIP3    H131016   2.746   1.144   7.620 -1.8333 -0.0404  0.1643
 3127TIP3    H231017   2.737   1.185   7.475  1.0029  0.3449  0.0312
 3128TIP3   OH231018   2.244   4.235   7.339 -0.1570 -0.8178  0.0038
 3128TIP3    H131019   2.255   4.308   7.399 -0.1068 -0.2944 -0.6242
 3128TIP3    H231020   2.310   4.249   7.271 -0.5777 -1.0766 -0.4763
 3129TIP3   OH231021   5.796   0.519   7.731  0.3147 -0.5930 -0.4158
 3129TIP3    H131022   5.858   0.585   7.701 -1.2443  0.6899 -0.9500
 3129TIP3    H231023   5.804   0.448   7.667  0.2729  0.1662 -1.2905
 3130TIP3   OH231024   4.703   0.499   6.707 -0.4363 -0.3224 -0.3568
 3130TIP3    H131025   4.748   0.485   6.624 -1.7285 -0.8651 -0.9859
 3130TIP3    H231026   4.661   0.585   6.697  1.5218  0.8328  0.7510
 3131TIP3   OH231027   5.293   6.241   2.276 -0.1710  0.2244 -0.5279
 3131TIP3    H131028   5.209   6.211   2.310 -0.3330 -0.3149 -1.3800
 3131TIP3    H231029   5.295   6.211   2.185  1.9050 -1.7677  0.0848
 3132TIP3   OH231030   5.693   2.489   2.263 -0.3934 -0.1428 -0.1797
 3132TIP3    H131031   5.724   2.452   2.346  1.7499  0.4200 -0.6802
 3132TIP3    H231032   5.742   2.570   2.253 -0.8236 -0.0645 -1.8802
 3133TIP3   OH231033   4.121   6.397   8.084 -0.3920  0.1698 -0.0044
 3133TIP3    H131034   4.105   6.353   8.001 -0.4209 -0.1665  0.1759
 3133TIP3    H231035   4.035   6.425   8.114 -0.2715  1.1115 -0.5362
 3134TIP3   OH231036   6.047   5.523   7.731 -0.1369 -0.1486 -0.4617
 3134TIP3    H131037   6.034   5.593   7.795  1.8036 -0.2830  0.1475
 3134TIP3    H231038   6.073   5.569   7.651  0.7981 -0.1402 -0.1607
 3135TIP3   OH231039   3.455   4.907   1.277 -0.3675  0.3518  0.6914
 3135TIP3    H131040   3.543   4.937   1.302 -0.1898  0.7388 -0.3511
 3135TIP3    H231041   3.471   4.841   1.209 -0.8359 -0.6245  1.5124
 3136TIP3   OH231042   2.813   0.124   8.326  0.3218 -0.1107 -0.0617
 3136TIP3    H131043   2.869   0.091   8.256  0.5557 -1.1638  0.5960
 3136TIP3    H231044   2.821   0.220   8.320 -1.3813 -0.0364 -2.8422
 3137TIP3   OH231045   0.134   0.193   2.229  0.3344  0.2466  0.3424
 3137TIP3    H131046   0.174   0.106   2.228 -1.8539 -0.8317 -0.2869
 3137TIP3    H231047   0.207   0.253   2.213  1.6654 -1.5916 -0.9412
 3138TIP3   OH231048   2.143   2.945   8.719  0.7263 -1.1889 -0.3398
 3138TIP3    H131049   2.221   2.976   8.673  0.4569 -2.1019 -1.4552
 3138TIP3    H231050   2.138   2.852   8.699 -0.8147 -1.0926 -0.5650
 3139TIP3   OH231051   4.506   1.244   8.501  0.2800 -0.7097  0.4991
 3139TIP3    H131052   4.550   1.182   8.444 -0.3924 -2.1465  1.4918
 3139TIP3    H231053   4.414   1.238   8.477 -0.1357 -1.9322  2.2137
 3140TIP3   OH231054   3.892   5.549   8.472  0.2573  1.0500 -0.4326
 3140TIP3    H131055   3.838   5.529   8.549 -2.0687 -1.5431 -2.5006
 3140TIP3    H231056   3.945   5.471   8.459  0.9444  1.6381 -1.2328
 3141TIP3   OH231057   6.675   1.673   2.239 -0.2260 -0.0396 -0.1855
 3141TIP3    H131058   6.703   1.764   2.236  0.2787 -0.2143 -1.2630
 3141TIP3    H231059   6.743   1.627   2.289  0.7977 -0.2379 -1.7060
 3142TIP3   OH231060   2.242   6.867   7.949  0.0081  0.4155  0.1718
 3142TIP3    H131061   2.184   6.930   7.906 -1.8379 -0.3056  1.4790
 3142TIP3    H231062   2.201   6.782   7.932  0.8556 -0.1569  0.9105
 3143TIP3   OH231063   6.103   1.326   6.847 -0.0599  0.2900 -0.2727
 3143TIP3    H131064   6.052   1.269   6.789  1.2915  0.1976 -1.4111
 3143TIP3    H231065   6.037   1.380   6.891 -1.2822 -1.2545 -0.1119
 3144TIP3   OH231066   4.484   6.861   7.424 -0.1094  0.3675  0.1076
 3144TIP3    H131067   4.451   6.794   7.365  0.9872 -0.2904  0.2115
 3144TIP3    H231068   4.485   6.819   7.510  0.8149  0.4123  0.1313
 3145TIP3   OH231069   1.149   4.970   2.217  0.1332  0.4376 -0.0009
 3145TIP3    H131070   1.160   5.049   2.163 -0.6390  0.2160 -0.5020
 3145TIP3    H231071   1.197   4.902   2.169 -0.5645  0.2373 -0.4432
 3146TIP3   OH231072   2.318   6.246   0.399  0.0060 -0.5450  0.7566
 3146TIP3    H131073   2.331   6.184   0.471  1.6432 -2.5857 -1.1393
 3146TIP3    H231074   2.258   6.201   0.340  1.2157 -0.3795 -0.6500
 3147TIP3   OH231075   3.135   3.898   7.976 -0.1724  0.4688  0.1563
 3147TIP3    H131076   3.154   3.952   8.052 -0.4798  1.1566 -0.2558
 3147TIP3    H231077   3.046   3.867   7.990 -0.4421  1.0727 -0.2061
 3148TIP3   OH231078   6.712   4.559   0.232  0.2378  0.6604 -0.2887
 3148TIP3    H131079   6.694   4.633   0.174  1.2966  1.3415  0.2274
 3148TIP3    H231080   6.669   4.583   0.315 -0.3157  0.2105 -0.4458
 3149TIP3   OH231081   1.611   1.936   7.929  0.9543  0.1992 -0.4266
 3149TIP3    H131082   1.599   2.028   7.907 -0.3083  0.4886  1.2731
 3149TIP3    H231083   1.669   1.936   8.005 -1.1136 -0.1777  1.2331
 3150TIP3   OH231084   0.015   1.474   1.222 -0.4676  0.0013 -0.1699
 3150TIP3    H131085   0.044   1.464   1.312 -1.7689  0.7396  0.3656
 3150TIP3    H231086   0.092   1.507   1.175  0.2170 -0.3912  0.6639
 3151TIP3   OH231087   1.927   1.394   7.500  0.3122 -0.2117  0.5451
 3151TIP3    H131088   1.839   1.383   7.463  0.0580 -0.5355  1.2318
 3151TIP3    H231089   1.984   1.398   7.423 -0.2871 -0.1283  0.0939
 3152TIP3   OH231090   1.826   4.114   1.728  0.3184 -0.0148 -0.2174
 3152TIP3    H131091   1.776   4.131   1.808 -0.0336 -1.0895 -0.1975
 3152TIP3    H231092   1.901   4.062   1.758  0.2024 -0.3916 -0.5805
 3153TIP3   OH231093   3.063   0.029   1.033 -0.0451 -0.5631 -0.2817
 3153TIP3    H131094   3.069   0.075   0.949  0.8843 -1.2677 -0.6128
 3153TIP3    H231095   2.985   0.066   1.075 -0.4820 -0.1502 -1.4232
 3154TIP3   OH231096   2.770   5.587   6.289 -0.3011  0.6481  0.0528
 3154TIP3    H131097   2.836   5.524   6.259 -0.5715  0.2853  0.2148
 3154TIP3    H231098   2.817   5.670   6.292 -0.2672  0.6966 -1.3648
 3155TIP3   OH231099   0.402   1.999   1.341 -0.6929  0.0222 -0.2580
 3155TIP3    H131100   0.434   2.078   1.297  0.7284 -1.0136 -1.1635
 3155TIP3    H231101   0.480   1.945   1.353 -1.2758 -0.3819  2.2586
 3156TIP3   OH231102   3.419   3.742   8.694 -0.2551 -0.4826  0.1918
 3156TIP3    H131103   3.402   3.741   8.600  0.2968  1.1232  0.0388
 3156TIP3    H231104   3.503   3.696   8.704  0.0722  0.0085 -0.2124
 3157TIP3   OH231105   5.057   5.304   6.925  0.6560  0.1732  0.0542
 3157TIP3    H131106   5.018   5.253   6.997  0.3118  1.0598  0.5181
 3157TIP3    H231107   4.982   5.330   6.872  0.8220  0.2138 -0.1587
 3158TIP3   OH231108   5.608   1.222   8.289 -0.8653  0.0068  0.1875
 3158TIP3    H131109   5.531   1.226   8.233 -0.6486 -0.3199 -0.1382
 3158TIP3    H231110   5.671   1.169   8.240 -0.8819 -0.7819  0.9881
 3159TIP3   OH231111   6.742   1.955   2.298  0.5413 -0.1931  0.1577
 3159TIP3    H131112   6.736   2.009   2.377 -1.3171 -1.0471  0.6670
 3159TIP3    H231113   6.836   1.944   2.283  1.0630 -1.8248  3.5566
 3160TIP3   OH231114   1.615   2.149   0.442  0.6233 -0.2751  0.6148
 3160TIP3    H131115   1.557   2.216   0.477  2.2092  0.7846  1.3341
 3160TIP3    H231116   1.666   2.193   0.374  0.4658 -1.2298 -0.1515
 3161TIP3   OH231117   5.603   3.861   1.586 -0.0952  0.2045  0.2933
 3161TIP3    H131118   5.512   3.885   1.566  0.4749  2.2611 -0.0970
 3161TIP3    H231119   5.603   3.843   1.680 -0.6929  1.4192  0.5531
 3162TIP3   OH231120   3.735   1.477   7.779  0.3182  0.4289  0.1640
 3162TIP3    H131121   3.816   1.429   7.764  0.6034  0.6532  0.9303
 3162TIP3    H231122   3.759   1.569   7.769 -0.8122  0.4505 -4.1938
 3163TIP3   OH231123   0.021   1.544   1.741  0.4456 -0.9247 -0.4652
 3163TIP3    H131124   0.064   1.625   1.768 -1.1737  0.8022 -2.6277
 3163TIP3    H231125  -0.035   1.521   1.816 -1.7319  2.0446 -0.9638
 3164TIP3   OH231126   2.933   6.772   0.591 -0.0800 -0.4207 -0.1668
 3164TIP3    H131127   3.010   6.795   0.643 -0.6151  0.6147  0.2131
 3164TIP3    H231128   2.966   6.758   0.503  0.9082 -2.5998  0.4982
 3165TIP3   OH231129   0.271   2.694   0.230  0.0802  0.2612 -0.2423
 3165TIP3    H131130   0.215   2.765   0.262  0.9862  2.0068 -2.2884
 3165TIP3    H231131   0.360   2.720   0.254  0.2435 -1.9188  1.9567
 3166TIP3   OH231132   2.920   1.251   0.497 -0.2678 -0.2036  0.7094
 3166TIP3    H131133   3.014   1.238   0.499 -0.1342  0.4557 -0.5236
 3166TIP3    H231134   2.907   1.332   0.449 -1.5419 -1.4257 -1.1607
 3167TIP3   OH231135   4.860   2.253   0.333  0.1800  0.3462 -0.0016
 3167TIP3    H131136   4.833   2.237   0.423 -0.4392 -2.0985 -0.5345
 3167TIP3    H231137   4.880   2.346   0.329 -2.0026  0.9766  2.0725
 3168TIP3   OH231138   4.628   2.566   0.532  0.1534 -0.5822 -0.5211
 3168TIP3    H131139   4.652   2.652   0.566  0.5492 -1.0960  0.5610
 3168TIP3    H231140   4.684   2.554   0.456 -0.6456  0.5385 -1.3281
 3169TIP3   OH231141   3.308   6.678   2.381 -0.4041 -0.2201 -0.3857
 3169TIP3    H131142   3.386   6.724   2.350 -0.7220  0.5407 -0.0744
 3169TIP3    H231143   3.267   6.645   2.301  0.5395 -1.1513 -0.5125
 3170TIP3   OH231144   3.511   6.498   1.814  0.1224  0.0484 -0.3198
 3170TIP3    H131145   3.512   6.402   1.816  0.5240  0.0570  0.1492
 3170TIP3    H231146   3.421   6.521   1.837 -0.2361 -0.2198 -1.3735
 3171TIP3   OH231147   6.201   5.946   0.488 -0.1866  0.4109 -0.0684
 3171TIP3    H131148   6.256   5.903   0.554 -0.3019 -2.1562 -1.5078
 3171TIP3    H231149   6.125   5.978   0.537  1.0962  1.2572  1.4635
 3172TIP3   OH231150   0.653   3.083   0.124 -0.2740  0.1330 -0.3963
 3172TIP3    H131151   0.733   3.114   0.082  1.0103 -0.1934  1.6536
 3172TIP3    H231152   0.588   3.081   0.054  1.3973  0.7966 -2.0473
 3173TIP3   OH231153   6.844   3.067   8.095 -0.5342 -0.2808  0.6458
 3173TIP3    H131154   6.910   3.042   8.030 -0.7321 -1.7408  0.9927
 3173TIP3    H231155   6.889   3.057   8.179 -0.5781  0.7057  0.8039
 3174TIP3   OH231156   0.592   6.761   6.845  0.4696 -0.0269 -0.4200
 3174TIP3    H131157   0.597   6.809   6.762  1.2960  1.3457  0.3815
 3174TIP3    H231158   0.651   6.809   6.903  0.1986 -1.1948  0.8567
 3175TIP3   OH231159   1.808   5.045   0.862 -0.2882 -0.0246 -0.0580
 3175TIP3    H131160   1.749   4.989   0.811 -0.6579  0.9114 -0.6743
 3175TIP3    H231161   1.821   5.122   0.807  2.7219 -0.8250 -0.6303
 3176TIP3   OH231162   0.180   2.138   2.117  0.6187  0.4592 -0.0621
 3176TIP3    H131163   0.198   2.179   2.032  1.2490 -1.8462 -1.1413
 3176TIP3    H231164   0.225   2.054   2.112 -1.3792 -0.8002  1.6069
 3177TIP3   OH231165   5.233   6.286   0.953 -0.1701 -0.2927 -0.1248
 3177TIP3    H131166   5.260   6.356   0.893 -3.4083  0.1781 -1.2189
 3177TIP3    H231167   5.212   6.332   1.034  0.6246 -0.4421  0.1753
 3178TIP3   OH231168   2.437   2.065   8.185  0.2330 -0.1512 -0.4692
 3178TIP3    H131169   2.430   2.129   8.113  0.9205 -0.3428 -0.7204
 3178TIP3    H231170   2.432   1.980   8.141 -0.5067 -0.2691 -0.1548
 3179TIP3   OH231171   6.097   3.918   8.580 -0.0743 -0.5195  0.7497
 3179TIP3    H131172   6.138   3.964   8.653 -0.8841 -2.1526  2.2944
 3179TIP3    H231173   6.018   3.968   8.561  0.2272  0.0095  0.8551
 3180TIP3   OH231174   5.611   1.548   6.997 -0.1345 -0.5866 -0.0710
 3180TIP3    H131175   5.573   1.464   6.971  2.1035 -1.6152 -0.2509
 3180TIP3    H231176   5.677   1.525   7.063  0.6869  0.9970 -0.2899
 3181TIP3   OH231177   5.922   6.300   2.640 -0.1533  0.4098 -0.4977
 3181TIP3    H131178   5.856   6.305   2.571  1.3727 -0.2391 -2.0752
 3181TIP3    H231179   5.891   6.361   2.707 -2.7327 -0.4398 -0.7814
 3182TIP3   OH231180   1.043   5.755   0.717 -0.0876  0.0865  0.1867
 3182TIP3    H131181   0.957   5.773   0.679 -0.3625 -0.3738  0.5909
 3182TIP3    H231182   1.104   5.798   0.657 -0.7125  2.6401  1.2293
 3183TIP3   OH231183   0.356   0.638   7.698  0.1268  0.8625  0.5613
 3183TIP3    H131184   0.397   0.717   7.733  2.5596  0.4114 -0.9336
 3183TIP3    H231185   0.401   0.566   7.743 -0.4376  0.3364  0.2906
 3184TIP3   OH231186   0.178   3.769   1.916 -0.5080  0.1592 -0.0212
 3184TIP3    H131187   0.107   3.727   1.965  0.4130 -2.0798 -0.4942
 3184TIP3    H231188   0.214   3.699   1.862  0.3027  1.9064 -1.8461
 3185TIP3   OH231189   0.019   3.079   8.365 -0.1147 -0.1603 -0.2814
 3185TIP3    H131190   0.030   3.059   8.458 -1.2678  1.8825  0.3618
 3185TIP3    H231191   0.002   3.174   8.363 -0.8471 -0.2843 -2.4934
 3186TIP3   OH231192   4.245   5.956   1.688  0.7922  0.0765 -0.1599
 3186TIP3    H131193   4.162   6.001   1.670  0.5599 -0.6731 -1.1269
 3186TIP3    H231194   4.269   5.983   1.776 -0.3774  0.4797  0.0567
 3187TIP3   OH231195   3.917   2.511   8.474  0.4579  0.4270 -1.1156
 3187TIP3    H131196   3.831   2.480   8.445  0.3982  1.4294 -2.0831
 3187TIP3    H231197   3.980   2.460   8.424  0.6672 -3.0617  2.2491
 3188TIP3   OH231198   3.778   4.601   7.614  0.2039  0.0705 -0.5019
 3188TIP3    H131199   3.774   4.566   7.703 -0.8076  0.0212 -0.5614
 3188TIP3    H231200   3.865   4.642   7.608  0.2692  0.0954  0.5099
 3189TIP3   OH231201   0.569   2.399   7.239 -0.0681 -0.2085 -0.4223
 3189TIP3    H131202   0.570   2.308   7.208  0.4695 -0.0159 -1.0129
 3189TIP3    H231203   0.541   2.393   7.330  1.6409 -1.1460  0.0904
 3190TIP3   OH231204   5.865   2.080   0.043  0.4202  0.3880  0.4219
 3190TIP3    H131205   5.829   2.057   0.128  0.3479 -2.4169 -0.2382
 3190TIP3    H231206   5.790   2.073  -0.017  0.8310  0.4782 -0.1059
 3191TIP3   OH231207   3.128   6.079   7.569 -0.0288 -0.4032 -0.1411
 3191TIP3    H131208   3.171   6.061   7.653  0.2826 -0.5024 -0.3196
 3191TIP3    H231209   3.185   6.143   7.527 -0.9482  0.7661  0.3392
 3192TIP3   OH231210   2.286   5.373   0.384  0.3310 -0.2560  0.0064
 3192TIP3    H131211   2.226   5.335   0.449 -1.3625 -0.6381 -1.6698
 3192TIP3    H231212   2.244   5.355   0.300  2.0469  0.8972 -1.1656
 3193TIP3   OH231213   0.918   6.190   1.439  0.3159 -0.4044  0.2209
 3193TIP3    H131214   0.895   6.137   1.515 -0.4471  0.1107  0.3640
 3193TIP3    H231215   0.879   6.144   1.364 -1.2512  0.4544  0.4594
 3194TIP3   OH231216   1.183   2.964   1.055  0.0587  0.6178 -0.4094
 3194TIP3    H131217   1.242   3.007   0.993 -2.0377  1.3494 -1.9848
 3194TIP3    H231218   1.165   3.031   1.121  0.5357  0.5620 -0.2146
 3195TIP3   OH231219   4.901   5.291   8.679  0.5703  0.5519  0.5895
 3195TIP3    H131220   4.811   5.310   8.653  0.1813 -0.8913  0.7775
 3195TIP3    H231221   4.914   5.344   8.758  0.3282  1.7155 -0.1280
 3196TIP3   OH231222   4.226   5.951   0.914  0.0137 -0.0324  0.6520
 3196TIP3    H131223   4.187   5.878   0.962  0.7692 -1.0146 -0.1743
 3196TIP3    H231224   4.309   5.967   0.959  1.4175 -1.8966 -1.0233
 3197TIP3   OH231225   0.093   5.086   7.572 -0.2307 -0.4719  0.3507
 3197TIP3    H131226   0.016   5.086   7.515  0.5881  2.1950 -0.9350
 3197TIP3    H231227   0.143   5.009   7.547 -0.2496  0.2437 -2.1169
 3198TIP3   OH231228   5.171   3.032   0.480  0.0269 -0.4832  0.1298
 3198TIP3    H131229   5.243   3.015   0.540  0.1072 -0.9172 -0.0829
 3198TIP3    H231230   5.166   3.127   0.474  1.0886 -0.4512 -0.4459
 3199TIP3   OH231231   3.263   3.587   1.161 -0.4182  0.0323 -0.1409
 3199TIP3    H131232   3.229   3.607   1.248  1.1387  1.9402  0.1207
 3199TIP3    H231233   3.354   3.559   1.177 -0.5376 -0.9568 -1.0725
 3200TIP3   OH231234   4.286   4.897   0.262  0.5141 -0.2119  0.5630
 3200TIP3    H131235   4.318   4.860   0.344 -0.3226  1.7805  1.8914
 3200TIP3    H231236   4.239   4.977   0.289  0.7263  0.8390 -1.9061
 3201TIP3   OH231237   1.791   4.684   1.324  0.6111 -0.9221 -0.6537
 3201TIP3    H131238   1.696   4.688   1.332  0.7330 -0.6778  1.2759
 3201TIP3    H231239   1.811   4.729   1.242 -0.8790 -0.1898 -0.6435
 3202TIP3   OH231240   2.400   5.106   0.729 -0.2647 -0.5830 -0.5544
 3202TIP3    H131241   2.450   5.135   0.652 -0.3301  2.7644  0.4903
 3202TIP3    H231242   2.311   5.138   0.713 -0.8813 -2.0406 -0.1538
 3203TIP3   OH231243   1.933   1.879   0.979 -0.5318  0.0254  0.1839
 3203TIP3    H131244   1.876   1.805   0.958 -0.6080  0.5308 -1.5015
 3203TIP3    H231245   1.872   1.950   1.000 -0.4638 -0.2283  1.2919
 3204TIP3   OH231246   4.340   3.884   6.648 -0.2666  0.4303 -0.5445
 3204TIP3    H131247   4.422   3.857   6.688 -0.2448 -1.2633 -1.6531
 3204TIP3    H231248   4.273   3.831   6.691 -0.1822 -1.8273 -2.9918
 3205TIP3   OH231249   0.615   6.453   8.191  0.4304  0.2161 -0.4279
 3205TIP3    H131250   0.525   6.445   8.221  1.6112 -1.8431  3.0951
 3205TIP3    H231251   0.633   6.371   8.145  0.9168  0.0190  0.1105
 3206TIP3   OH231252   2.513   1.674   0.324  0.4440 -0.1525  0.6469
 3206TIP3    H131253   2.521   1.580   0.343 -0.0422 -0.1661  0.8030
 3206TIP3    H231254   2.529   1.717   0.407  1.8860 -0.0278  0.3252
 3207TIP3   OH231255   1.637   2.878   7.239  0.5024 -0.8065  0.3590
 3207TIP3    H131256   1.710   2.901   7.297  1.0974  0.5086 -0.8230
 3207TIP3    H231257   1.584   2.958   7.235 -0.4886 -1.4458  0.4480
 3208TIP3   OH231258   5.637   5.035   7.923  0.5132  0.2428 -0.3092
 3208TIP3    H131259   5.718   4.994   7.893  1.8613  1.6990  1.1976
 3208TIP3    H231260   5.585   5.044   7.843  2.2363  0.1687 -1.4961
 3209TIP3   OH231261   2.411   2.312   8.338 -0.1667  0.0032 -0.1992
 3209TIP3    H131262   2.443   2.228   8.305 -3.8012 -2.3703  1.7145
 3209TIP3    H231263   2.459   2.326   8.420  1.4728  0.6534 -1.2084
 3210TIP3   OH231264   5.178   1.124   8.609 -0.3302 -0.3400 -0.0968
 3210TIP3    H131265   5.168   1.146   8.516  1.1079  1.6859  0.1716
 3210TIP3    H231266   5.110   1.058   8.625 -1.8467  0.6169 -2.1406
 3211TIP3   OH231267   4.526   1.560   6.827  0.4839  0.0138  0.5622
 3211TIP3    H131268   4.431   1.557   6.827  0.4265  1.3201 -0.3549
 3211TIP3    H231269   4.548   1.650   6.802  1.9547 -0.6738 -0.8272
 3212TIP3   OH231270   4.593   6.261   0.656  0.4046  0.0192  0.1401
 3212TIP3    H131271   4.545   6.343   0.644 -1.1141 -0.9049 -0.4157
 3212TIP3    H231272   4.648   6.254   0.578 -0.3668 -0.0380 -0.4205
 3213TIP3   OH231273   1.679   1.255   8.227  0.1960  0.2957  0.1897
 3213TIP3    H131274   1.613   1.280   8.292 -0.3473  1.0284 -0.6217
 3213TIP3    H231275   1.722   1.338   8.205 -0.7097  0.3386 -1.5563
 3214TIP3   OH231276   6.819   3.772   7.664 -0.0152 -0.9500 -0.1240
 3214TIP3    H131277   6.785   3.860   7.679  0.1688 -0.8125 -0.5063
 3214TIP3    H231278   6.780   3.719   7.734 -0.7915 -0.7381 -0.3924
 3215TIP3   OH231279   2.521   1.141   0.973  0.4592 -0.1490 -0.2511
 3215TIP3    H131280   2.607   1.160   1.011  0.5652 -2.1308  0.6225
 3215TIP3    H231281   2.538   1.068   0.913 -0.2968  0.7829 -1.6651
 3216TIP3   OH231282   1.254   3.302   6.911  0.1694  0.6384  0.3041
 3216TIP3    H131283   1.332   3.250   6.931 -0.1439 -0.0957 -0.3526
 3216TIP3    H231284   1.286   3.372   6.854  0.0152 -0.9089 -1.7600
 3217TIP3   OH231285   0.617   2.214   8.004  0.4066 -0.4814 -0.0288
 3217TIP3    H131286   0.562   2.256   8.070 -1.3802 -1.8249 -0.6021
 3217TIP3    H231287   0.632   2.126   8.038 -0.0547 -1.0028 -1.1156
 3218TIP3   OH231288   2.430   6.607   0.851  0.2161  0.1704 -0.4815
 3218TIP3    H131289   2.358   6.559   0.892  1.7862 -0.5594  1.6483
 3218TIP3    H231290   2.433   6.574   0.762 -1.6947 -0.1985 -0.4645
 3219TIP3   OH231291   3.084   4.440   1.597 -0.2661 -0.1515  0.0502
 3219TIP3    H131292   3.023   4.451   1.524  0.4478 -0.9827 -0.7006
 3219TIP3    H231293   3.031   4.404   1.667 -0.0519 -4.8617 -1.8420
 3220TIP3   OH231294   3.057   5.492   6.345 -0.3841  0.0095  0.9004
 3220TIP3    H131295   3.034   5.557   6.412 -1.8265  0.9090 -0.4186
 3220TIP3    H231296   3.048   5.538   6.262  1.4005 -1.0844  0.0426
 3221TIP3   OH231297   5.570   2.265   1.602  0.4410 -0.0716 -0.5014
 3221TIP3    H131298   5.495   2.297   1.551  0.0367 -0.8884 -0.4443
 3221TIP3    H231299   5.583   2.332   1.669 -0.6456 -0.2139 -0.1257
 3222TIP3   OH231300   6.527   5.099   8.673  0.1258  0.3403 -0.1343
 3222TIP3    H131301   6.490   5.014   8.650 -0.4698  0.7930 -0.9181
 3222TIP3    H231302   6.610   5.103   8.626  0.0050  0.3143 -0.3517
 3223TIP3   OH231303   1.702   6.069   7.680  0.3165  0.3306  0.9034
 3223TIP3    H131304   1.730   6.018   7.604 -1.4224  1.0805 -0.3127
 3223TIP3    H231305   1.739   6.156   7.665 -0.8540  0.7541  0.3576
 3224TIP3   OH231306   5.411   1.792   0.108  0.1939 -0.7719 -0.2026
 3224TIP3    H131307   5.409   1.886   0.089 -0.1178 -0.8192 -0.4116
 3224TIP3    H231308   5.358   1.753   0.039 -0.1780 -1.0418  0.2256
 3225TIP3   OH231309   5.693   0.234   7.044 -0.0940  0.3332  0.3789
 3225TIP3    H131310   5.669   0.145   7.072  0.3868 -0.1684 -0.7478
 3225TIP3    H231311   5.618   0.266   6.996  0.1480  0.1118 -0.1503
 3226TIP3   OH231312   1.858   2.026   1.354 -0.3324  0.1835 -0.0171
 3226TIP3    H131313   1.952   2.011   1.342 -0.5540 -1.3905  0.0091
 3226TIP3    H231314   1.828   2.059   1.269  0.2098  0.5597 -0.0677
 3227TIP3   OH231315   3.714   6.739   7.438  0.2023 -0.5219  0.2940
 3227TIP3    H131316   3.742   6.799   7.370  1.1104  1.9688  2.6680
 3227TIP3    H231317   3.778   6.750   7.509 -0.9361 -2.5873  1.7754
 3228TIP3   OH231318   2.411   6.281   7.963  0.3786  0.3704 -0.2391
 3228TIP3    H131319   2.366   6.202   7.994  0.0289  0.1024 -1.3991
 3228TIP3    H231320   2.479   6.248   7.904 -0.1667  0.9691 -1.2113
 3229TIP3   OH231321   0.871   1.339   2.528 -0.4252  0.1305  0.0198
 3229TIP3    H131322   0.954   1.339   2.576 -0.5924  0.8203  0.3228
 3229TIP3    H231323   0.851   1.246   2.516  1.4202 -0.0889 -1.8853
 3230TIP3   OH231324   2.602   3.982   8.485  0.0355  0.1407  0.2137
 3230TIP3    H131325   2.622   4.029   8.566  1.3613  0.6463 -0.3924
 3230TIP3    H231326   2.535   4.036   8.442  0.1728  0.4757  0.4182
 3231TIP3   OH231327   6.303   1.598   0.353  0.2013 -0.1067  0.3647
 3231TIP3    H131328   6.315   1.678   0.302 -0.1461  1.7175  2.9702
 3231TIP3    H231329   6.223   1.559   0.316  1.0859 -0.0137 -1.7983
 3232TIP3   OH231330   3.762   3.467   0.491 -0.8385 -0.0814 -0.1143
 3232TIP3    H131331   3.726   3.386   0.527  0.8511 -0.9596 -0.3195
 3232TIP3    H231332   3.694   3.498   0.431 -2.3478 -0.2714  1.3960
 3233TIP3   OH231333   2.246   2.979   1.726  0.0414 -0.0636  0.6981
 3233TIP3    H131334   2.164   3.002   1.682  0.1673  0.3520  0.6755
 3233TIP3    H231335   2.234   2.888   1.753 -0.6380  0.1516  1.1681
 3234TIP3   OH231336   0.480   0.486   7.121 -0.8280 -0.4173  0.8506
 3234TIP3    H131337   0.522   0.565   7.089 -2.8142 -0.1492 -1.3980
 3234TIP3    H231338   0.536   0.414   7.091 -0.2067  0.0430  0.9006
 3235TIP3   OH231339   5.453   4.002   7.042 -0.0548 -0.1448  0.3334
 3235TIP3    H131340   5.466   4.053   7.122 -0.7204 -0.7084  0.8217
 3235TIP3    H231341   5.508   4.044   6.976 -0.7831  1.3638  0.6469
 3236TIP3   OH231342   5.408   6.421   0.099 -0.4648 -0.9185 -0.5776
 3236TIP3    H131343   5.324   6.410   0.145 -0.9037 -2.0220 -1.5913
 3236TIP3    H231344   5.468   6.362   0.145 -0.8529 -1.8692 -1.2549
 3237TIP3   OH231345   4.515   2.600   8.218  0.1584 -0.2785 -0.2503
 3237TIP3    H131346   4.484   2.637   8.135  3.4925  1.3660 -0.9278
 3237TIP3    H231347   4.470   2.652   8.285 -0.5038  0.2421 -1.0728
 3238TIP3   OH231348   3.774   1.765   0.832 -0.0136  0.0206 -0.0511
 3238TIP3    H131349   3.729   1.692   0.789  0.5770 -0.1348 -0.4174
 3238TIP3    H231350   3.862   1.765   0.793 -0.3665  1.6686 -0.9553
 3239TIP3   OH231351   1.868   4.619   7.269  0.2403  0.0471  0.6733
 3239TIP3    H131352   1.883   4.590   7.180 -3.0656  0.5318 -0.1864
 3239TIP3    H231353   1.893   4.544   7.324  3.0970  0.0421 -0.5022
 3240TIP3   OH231354   3.748   1.776   2.364  0.6276  0.0255 -0.5103
 3240TIP3    H131355   3.686   1.818   2.423  0.2303 -1.0358 -0.1519
 3240TIP3    H231356   3.833   1.785   2.409  0.7106  1.1847 -0.8499
 3241TIP3   OH231357   1.245   6.206   0.687  0.8166  0.0741 -0.2302
 3241TIP3    H131358   1.236   6.230   0.779  0.1690 -0.9649 -0.0052
 3241TIP3    H231359   1.339   6.201   0.672  0.9207 -0.0344  0.4576
 3242TIP3   OH231360   6.690   4.308   2.519 -0.1416  0.5081 -0.5520
 3242TIP3    H131361   6.737   4.367   2.578 -0.6534  0.0926  0.2895
 3242TIP3    H231362   6.750   4.295   2.446  0.9593  0.1954  0.3814
 3243TIP3   OH231363   4.574   1.793   1.037 -0.3670 -0.1606 -0.2359
 3243TIP3    H131364   4.507   1.769   1.101 -2.3033 -0.2982 -2.1922
 3243TIP3    H231365   4.531   1.780   0.952  1.6295  1.3065 -1.5483
 3244TIP3   OH231366   5.045   5.283   1.577 -0.2242 -0.5427  0.0403
 3244TIP3    H131367   4.970   5.224   1.573 -0.8321 -0.2390  3.7862
 3244TIP3    H231368   5.118   5.229   1.608  0.0014  0.0555  0.5714
 3245TIP3   OH231369   0.166   4.753   1.094 -0.2893 -0.2948  0.1329
 3245TIP3    H131370   0.221   4.822   1.133 -3.0468  1.2086  1.6396
 3245TIP3    H231371   0.192   4.673   1.140 -0.7229  0.7410  2.2992
 3246TIP3   OH231372   2.185   5.818   8.064  0.0479  0.4536 -0.2054
 3246TIP3    H131373   2.134   5.817   7.983  1.1131  0.8598 -0.9024
 3246TIP3    H231374   2.152   5.744   8.114 -2.3890  1.6742  0.1271
 3247TIP3   OH231375   0.031   0.703   2.136 -0.2336 -0.8133  0.1346
 3247TIP3    H131376  -0.012   0.762   2.075  0.3775 -0.3757  0.1164
 3247TIP3    H231377   0.023   0.745   2.221  1.2876 -0.0512 -0.0559
 3248TIP3   OH231378   3.464   3.464   8.481  0.0013 -0.6228  0.7017
 3248TIP3    H131379   3.537   3.418   8.439  0.0295  0.0296  0.0386
 3248TIP3    H231380   3.485   3.557   8.473 -1.8769 -0.2966 -1.3487
 3249TIP3   OH231381   3.456   0.552   1.538 -0.2274 -0.4071  0.0059
 3249TIP3    H131382   3.493   0.618   1.597  1.0195 -0.5861 -0.5413
 3249TIP3    H231383   3.531   0.499   1.511 -1.2804 -2.5483  1.0053
 3250TIP3   OH231384   2.857   4.454   6.883  0.1853  0.0077 -0.1483
 3250TIP3    H131385   2.918   4.433   6.954 -1.0406 -0.5260  0.7859
 3250TIP3    H231386   2.789   4.507   6.924 -0.8103 -0.7200 -0.7917
 3251TIP3   OH231387   5.365   3.510   8.463  0.1184  0.1308  0.1399
 3251TIP3    H131388   5.419   3.457   8.405 -0.2178  0.6428 -0.6502
 3251TIP3    H231389   5.329   3.447   8.526 -0.4107 -0.6080 -0.8730
 3252TIP3   OH231390   3.699   0.218   7.482 -0.2357 -0.5663  0.2448
 3252TIP3    H131391   3.645   0.139   7.492  1.7623 -2.0372 -0.0344
 3252TIP3    H231392   3.748   0.223   7.564  1.1346 -0.8162 -0.5376
 3253TIP3   OH231393   3.478   0.256   0.442 -0.2092  0.8248 -0.0500
 3253TIP3    H131394   3.501   0.289   0.355  2.1462  0.5512  0.4079
 3253TIP3    H231395   3.456   0.334   0.492 -0.5451  1.0787 -0.5784
 3254TIP3   OH231396   5.022   6.714   0.870  0.0182 -0.1617 -0.5584
 3254TIP3    H131397   5.004   6.797   0.914 -0.3027  0.7532 -2.3416
 3254TIP3    H231398   4.947   6.659   0.891 -0.3765  0.4285 -0.3876
 3255TIP3   OH231399   0.971   6.074   7.664  0.5106  0.3724 -0.3679
 3255TIP3    H131400   1.009   5.989   7.640  0.6349  0.1112  0.7026
 3255TIP3    H231401   1.045   6.127   7.692  0.0831 -0.3910  2.4707
 3256TIP3   OH231402   6.630   5.779   0.902 -0.0753  0.1397 -0.2060
 3256TIP3    H131403   6.576   5.854   0.875 -1.5892 -0.6629  0.4331
 3256TIP3    H231404   6.716   5.796   0.864 -1.2919  0.4895 -3.0417
 3257TIP3   OH231405   4.419   5.062   1.488 -0.0575 -0.1424 -0.3575
 3257TIP3    H131406   4.400   4.987   1.544  0.5556 -0.1105 -0.0929
 3257TIP3    H231407   4.434   5.025   1.401  0.6198 -0.3742 -0.1502
 3258TIP3   OH231408   3.686   3.202   0.564  0.4213  0.7570  0.3064
 3258TIP3    H131409   3.678   3.132   0.498  1.0280  0.8675  0.1125
 3258TIP3    H231410   3.597   3.210   0.600 -0.2966  1.7238 -1.5340
 3259TIP3   OH231411   4.299   4.587   7.886 -0.0041  0.3790 -0.1982
 3259TIP3    H131412   4.285   4.682   7.884 -1.2459  0.1986 -0.7547
 3259TIP3    H231413   4.229   4.551   7.832  2.7857 -0.6129 -3.4680
 3260TIP3   OH231414   0.203   6.585   7.733 -0.0589 -0.0425  0.2554
 3260TIP3    H131415   0.251   6.668   7.726  0.7785 -0.3536  1.8912
 3260TIP3    H231416   0.246   6.527   7.671 -0.8741  0.8023 -1.1716
 3261TIP3   OH231417   5.346   6.516   7.874  0.4748  0.3146 -0.2138
 3261TIP3    H131418   5.358   6.610   7.857 -1.1835  0.3974 -1.1234
 3261TIP3    H231419   5.309   6.481   7.793 -0.8950 -0.7050  0.8062
 3262TIP3   OH231420   5.392   2.419   0.890 -0.3914  0.4157  0.0750
 3262TIP3    H131421   5.382   2.493   0.830 -0.3333  1.1189  0.9055
 3262TIP3    H231422   5.358   2.344   0.842  0.9861  0.6702 -1.3974
 3263TIP3   OH231423   1.880   5.187   7.634 -0.1480 -0.0358 -0.5459
 3263TIP3    H131424   1.854   5.278   7.648  1.7408  1.1363 -3.5696
 3263TIP3    H231425   1.951   5.172   7.697 -0.5806  0.5108  0.0827
 3264TIP3   OH231426   3.609   6.639   1.111 -0.5541  0.1553 -0.2616
 3264TIP3    H131427   3.683   6.692   1.140  0.4781 -1.1967 -0.3093
 3264TIP3    H231428   3.538   6.662   1.171 -0.7175  2.8440 -1.3650
 3265TIP3   OH231429   2.697   3.224   6.843  0.3243 -0.3006 -0.2306
 3265TIP3    H131430   2.614   3.197   6.883  0.9074  0.7669  1.8557
 3265TIP3    H231431   2.764   3.175   6.891  0.9781 -0.2655 -1.0860
 3266TIP3   OH231432   5.650   2.335   7.513 -0.1965 -0.5072 -0.0281
 3266TIP3    H131433   5.643   2.358   7.420 -1.4747 -2.6832 -0.5342
 3266TIP3    H231434   5.560   2.321   7.542  0.2598 -1.0248  1.2264
 3267TIP3   OH231435   5.909   1.278   2.931 -0.7117 -0.2994 -0.2849
 3267TIP3    H131436   5.916   1.204   2.991  2.0372 -0.0914 -0.2179
 3267TIP3    H231437   5.992   1.279   2.884 -0.9726  2.2611 -0.8600
 3268TIP3   OH231438   4.144   2.403   7.970 -0.1284  0.1487 -0.5710
 3268TIP3    H131439   4.085   2.473   7.999  0.0940 -0.5327  1.8143
 3268TIP3    H231440   4.199   2.444   7.903  0.0258  2.3014  0.7565
 3269TIP3   OH231441   0.819   5.157   8.146  0.5724 -0.0366  0.2415
 3269TIP3    H131442   0.764   5.087   8.111  0.7005  0.1784 -0.4109
 3269TIP3    H231443   0.813   5.148   8.241  0.5942 -0.9342  0.1627
 3270TIP3   OH231444   5.921   6.376   0.706 -0.0975 -0.4019 -0.0561
 3270TIP3    H131445   6.003   6.363   0.754 -0.1136  1.9987  0.8097
 3270TIP3    H231446   5.853   6.344   0.766  0.1287 -1.2907 -0.2682
 3271TIP3   OH231447   4.320   5.241   0.421 -0.3798 -0.4631 -0.0656
 3271TIP3    H131448   4.399   5.271   0.466 -0.4842 -0.3066  0.0130
 3271TIP3    H231449   4.340   5.249   0.328 -0.5375  0.1896 -0.0429
 3272TIP3   OH231450   5.492   5.976   6.692  0.2443 -0.0996 -0.5428
 3272TIP3    H131451   5.406   6.018   6.694  1.1357  1.7622  0.8398
 3272TIP3    H231452   5.475   5.884   6.714 -1.4789  0.0175 -1.2685
 3273TIP3   OH231453   0.473   3.482   0.900 -0.1781 -0.0714 -0.2470
 3273TIP3    H131454   0.427   3.564   0.883  0.6921  0.1050 -1.9163
 3273TIP3    H231455   0.546   3.508   0.957 -0.9297 -0.0297  0.7401
 3274TIP3   OH231456   3.440   6.515   7.522  0.2631 -0.3850  0.3617
 3274TIP3    H131457   3.436   6.547   7.432 -0.2825 -0.5778  0.3141
 3274TIP3    H231458   3.466   6.592   7.573 -0.2956 -0.0463  0.1532
 3275TIP3   OH231459   1.481   3.098   7.811 -0.1377  1.3865 -0.2110
 3275TIP3    H131460   1.526   3.159   7.752  0.5388 -0.1117 -1.3263
 3275TIP3    H231461   1.401   3.074   7.763 -0.6714  1.7834  0.4585
 3276TIP3   OH231462   0.039   3.081   1.593  0.4196 -0.1198  0.0763
 3276TIP3    H131463   0.070   3.017   1.657 -0.9954 -1.0138 -0.0929
 3276TIP3    H231464   0.097   3.156   1.605  0.2478 -0.2705  2.3767
 3277TIP3   OH231465   5.738   0.746   2.283  0.6892  0.2532 -0.2184
 3277TIP3    H131466   5.690   0.755   2.366  0.3192  0.5594 -0.4670
 3277TIP3    H231467   5.688   0.797   2.220  0.1294 -1.1712 -0.9857
 3278TIP3   OH231468   1.959   0.104   8.546 -0.0727 -0.2534 -0.1597
 3278TIP3    H131469   1.879   0.132   8.503  0.4756 -0.2173 -1.2111
 3278TIP3    H231470   1.969   0.012   8.521  1.2649  0.2770 -1.8083
 3279TIP3   OH231471   5.116   1.279   7.386  0.1111  0.7286  0.1386
 3279TIP3    H131472   5.123   1.368   7.420 -0.2652 -0.0985  2.5694
 3279TIP3    H231473   5.204   1.243   7.395 -0.1732  0.2408  1.0860
 3280TIP3   OH231474   3.837   3.759   7.993  0.2817  0.0783 -0.1910
 3280TIP3    H131475   3.797   3.719   8.070 -0.2327  1.0188  0.0400
 3280TIP3    H231476   3.838   3.689   7.928  1.2734 -0.9259  0.8359
 3281TIP3   OH231477   2.114   6.327   1.714 -0.0009 -0.4689 -0.1443
 3281TIP3    H131478   2.108   6.280   1.631 -0.6448  0.0375 -0.4008
 3281TIP3    H231479   2.164   6.406   1.694 -0.9372  0.1066 -0.2800
 3282TIP3   OH231480   0.725   4.442   1.200  0.2941  0.0749  0.2112
 3282TIP3    H131481   0.712   4.420   1.292 -0.1393  1.3152  0.4720
 3282TIP3    H231482   0.680   4.525   1.189 -0.2026 -0.3604 -1.2868
 3283TIP3   OH231483   5.416   0.196   6.831 -0.5480 -0.2040 -0.4765
 3283TIP3    H131484   5.371   0.116   6.857  2.8063 -1.6962  1.4667
 3283TIP3    H231485   5.440   0.181   6.739 -1.4446 -0.6340 -0.6542
 3284TIP3   OH231486   4.765   2.831   1.791 -0.2790 -0.4617  0.0883
 3284TIP3    H131487   4.744   2.824   1.698  1.2645 -0.2188 -0.3177
 3284TIP3    H231488   4.832   2.764   1.806  0.2356  0.1849  0.7729
 3285TIP3   OH231489   4.125   0.761   1.637 -0.5063  0.5155  0.2771
 3285TIP3    H131490   4.125   0.726   1.548  0.3854 -0.5489  0.6739
 3285TIP3    H231491   4.194   0.827   1.637 -1.2413  1.3188 -0.0873
 3286TIP3   OH231492   4.761   3.417   0.233  0.3268 -0.5602 -0.7764
 3286TIP3    H131493   4.746   3.511   0.228  1.1356 -0.4986 -2.8449
 3286TIP3    H231494   4.841   3.407   0.285 -0.2038 -0.1981  0.1448
 3287TIP3   OH231495   1.289   0.090   7.453  0.2294 -0.1001 -0.0208
 3287TIP3    H131496   1.295   0.047   7.367 -1.8830 -1.3838  0.4153
 3287TIP3    H231497   1.278   0.019   7.515 -0.1557  0.9157  1.1190
 3288TIP3   OH231498   6.791   3.245   7.868 -0.4078 -0.0203 -0.0948
 3288TIP3    H131499   6.813   3.197   7.788 -0.1135  0.5065 -0.3363
 3288TIP3    H231500   6.793   3.179   7.937  2.2980  0.0148 -0.0297
 3289TIP3   OH231501   5.158   3.691   1.036  0.0572 -0.1664 -0.0709
 3289TIP3    H131502   5.241   3.736   1.050 -0.1416  0.2610 -0.2537
 3289TIP3    H231503   5.183   3.605   1.004  0.5545 -1.1848  2.7171
 3290TIP3   OH231504   1.484   0.204   1.003  0.4988  0.0108  0.2593
 3290TIP3    H131505   1.434   0.206   0.921 -0.5367  1.3445  0.8987
 3290TIP3    H231506   1.417   0.199   1.072  1.2507  1.2718  1.1105
 3291TIP3   OH231507   2.718   6.654   8.000 -0.0031 -0.3110  0.1487
 3291TIP3    H131508   2.758   6.642   7.914  2.2505  2.6202  0.6202
 3291TIP3    H231509   2.746   6.578   8.051 -2.4600 -2.8061 -1.9042
 3292TIP3   OH231510   4.281   4.801   0.527  0.0778 -0.3622 -0.1579
 3292TIP3    H131511   4.223   4.732   0.558 -0.5184 -0.5791 -1.6738
 3292TIP3    H231512   4.315   4.842   0.607 -1.3135 -0.9259  0.7544
 3293TIP3   OH231513   1.068   3.667   0.857 -0.2727  0.0303 -0.3288
 3293TIP3    H131514   1.034   3.645   0.943 -0.0596 -0.0716 -0.2699
 3293TIP3    H231515   1.161   3.647   0.862 -0.2793 -0.0789 -0.6157
 3294TIP3   OH231516   6.343   2.250   0.241  0.3138  0.1142 -0.0814
 3294TIP3    H131517   6.297   2.293   0.314  0.1368 -0.1367 -0.0420
 3294TIP3    H231518   6.419   2.305   0.225  1.7505 -1.1487  1.9689
 3295TIP3   OH231519   6.603   0.791   7.524  0.7051 -0.1282 -0.5619
 3295TIP3    H131520   6.546   0.788   7.448 -0.8627 -0.0497  0.5617
 3295TIP3    H231521   6.627   0.700   7.540  0.9867 -0.1497 -1.1076
 3296TIP3   OH231522   3.228   1.545   1.191  0.0735 -0.1732  0.2840
 3296TIP3    H131523   3.243   1.602   1.116 -0.7999  0.2608  0.4252
 3296TIP3    H231524   3.311   1.501   1.204  0.3957  0.1407 -0.6078
 3297TIP3   OH231525   0.261   5.830   2.100 -0.3865 -0.5375 -0.3021
 3297TIP3    H131526   0.291   5.740   2.111  1.8978  0.3577  1.6660
 3297TIP3    H231527   0.334   5.874   2.056 -0.3723  0.8788  1.0420
 3298TIP3   OH231528   5.239   3.344   1.344  0.1021 -0.2585 -0.4710
 3298TIP3    H131529   5.204   3.290   1.274 -1.4785 -0.4082  0.3752
 3298TIP3    H231530   5.331   3.319   1.351  0.5647  0.4281 -3.0557
 3299TIP3   OH231531   1.987   3.829   2.794  0.4712  0.2790 -0.1169
 3299TIP3    H131532   1.917   3.869   2.742 -0.4544 -2.0093 -0.7338
 3299TIP3    H231533   1.946   3.809   2.878  1.2484  1.5821  0.6130
 3300TIP3   OH231534   2.020   3.087   7.129  0.0056 -0.2941  0.2314
 3300TIP3    H131535   2.078   3.050   7.063 -0.6959 -0.0689 -0.5251
 3300TIP3    H231536   2.010   3.017   7.194  0.2373 -0.7310 -0.1975
 3301TIP3   OH231537   0.765   1.856   7.483  0.2927 -0.0409 -0.1345
 3301TIP3    H131538   0.841   1.856   7.425  0.6591  1.9147  0.2753
 3301TIP3    H231539   0.796   1.897   7.564 -0.3585 -2.1600  1.2881
 3302TIP3   OH231540   4.790   0.173   2.041 -0.0288 -0.1839  0.5163
 3302TIP3    H131541   4.781   0.159   2.135  0.6380 -1.4562  0.4110
 3302TIP3    H231542   4.751   0.095   2.002  0.1987  0.0787 -0.2472
 3303TIP3   OH231543   5.149   4.296   0.252 -0.4124 -0.5575 -0.6562
 3303TIP3    H131544   5.138   4.367   0.315  2.0479 -0.7584  0.1084
 3303TIP3    H231545   5.243   4.281   0.249 -0.5150 -1.2643 -3.6543
 3304TIP3   OH231546   2.801   4.314   0.515 -0.2258  0.5117  0.2085
 3304TIP3    H131547   2.770   4.273   0.596 -1.9180 -0.4192 -0.8544
 3304TIP3    H231548   2.782   4.407   0.526 -1.0120  0.3069  0.6367
 3305TIP3   OH231549   1.587   6.403   7.437 -0.2991 -0.5735 -0.2425
 3305TIP3    H131550   1.508   6.353   7.460 -0.2951  0.0949  1.3650
 3305TIP3    H231551   1.555   6.473   7.380 -0.6741 -0.9747 -0.5347
 3306TIP3   OH231552   2.959   1.568   8.059 -0.0619  0.1268  0.5683
 3306TIP3    H131553   2.992   1.615   7.982 -0.7540 -2.0092 -1.1591
 3306TIP3    H231554   2.863   1.571   8.050 -0.1393 -0.6756  0.9836
 3307TIP3   OH231555   5.767   4.199   7.782 -0.0210 -0.4861 -0.3080
 3307TIP3    H131556   5.851   4.213   7.824  0.0104 -1.4511 -0.0171
 3307TIP3    H231557   5.738   4.113   7.814 -0.3003 -0.9550 -1.7441
 3308TIP3   OH231558   1.418   4.350   0.258 -0.5160  0.1549 -0.0924
 3308TIP3    H131559   1.508   4.351   0.226 -0.6941  2.6427 -0.7622
 3308TIP3    H231560   1.375   4.281   0.207  0.6685 -0.1228 -0.7540
 3309TIP3   OH231561   2.137   3.013   0.684 -0.2392 -0.3949 -0.2466
 3309TIP3    H131562   2.159   2.921   0.698  0.9005 -0.1957 -0.6749
 3309TIP3    H231563   2.202   3.045   0.621  0.6262  1.2042  1.3552
 3310TIP3   OH231564   2.618   3.787   6.854  0.2843 -0.8207  0.4374
 3310TIP3    H131565   2.524   3.805   6.841 -0.0031 -2.4727  0.0384
 3310TIP3    H231566   2.660   3.872   6.842 -1.1770  0.0031  0.8195
 3311TIP3   OH231567   3.478   2.091   0.194 -0.6462  0.0407 -0.3715
 3311TIP3    H131568   3.504   2.109   0.285 -2.3621 -0.6528  0.3173
 3311TIP3    H231569   3.559   2.067   0.150  0.1152 -0.4507  1.2129
 3312TIP3   OH231570   2.093   3.503   1.248  0.0205 -0.9911  0.0812
 3312TIP3    H131571   2.185   3.526   1.260  0.1977 -1.5532 -0.1799
 3312TIP3    H231572   2.055   3.508   1.336  0.4642 -1.4612  0.2994
 3313TIP3   OH231573   0.871   2.872   8.347 -0.0126 -0.4630 -0.4917
 3313TIP3    H131574   0.778   2.865   8.372 -0.4862  0.3641 -1.8885
 3313TIP3    H231575   0.918   2.833   8.420 -1.3620  0.8918  1.2167
 3314TIP3   OH231576   4.464   1.484   7.471 -0.2627 -0.0181 -0.0577
 3314TIP3    H131577   4.556   1.457   7.467 -0.2653  0.0110 -0.3672
 3314TIP3    H231578   4.450   1.533   7.390 -0.2192  1.0348  0.5561
 3315TIP3   OH231579   5.251   2.152   0.390 -0.5834  0.6492 -0.3533
 3315TIP3    H131580   5.320   2.089   0.409 -1.1384 -0.1682 -1.0302
 3315TIP3    H231581   5.170   2.111   0.421 -0.7183  1.9349  1.1968
 3316TIP3   OH231582   3.087   3.627   8.627 -0.1714 -0.0489 -0.7137
 3316TIP3    H131583   3.028   3.594   8.560 -2.1190 -0.2975  1.0192
 3316TIP3    H231584   3.150   3.681   8.579 -1.6531  0.0273 -2.6991
 3317TIP3   OH231585   3.537   3.842   1.640  0.6859 -0.5002 -0.6446
 3317TIP3    H131586   3.559   3.891   1.719  0.2302 -0.0961 -0.7700
 3317TIP3    H231587   3.609   3.860   1.580  1.9418 -2.1728  0.2584
 3318TIP3   OH231588   3.662   1.508   8.670 -0.2182  0.7660  0.2989
 3318TIP3    H131589   3.743   1.496   8.718 -1.1456  0.2432  1.8031
 3318TIP3    H231590   3.685   1.488   8.579  0.8154 -1.8366  1.0328
 3319TIP3   OH231591   2.680   0.705   0.197  0.0919  0.1542  0.6932
 3319TIP3    H131592   2.681   0.625   0.248  0.2315 -0.2952  0.0033
 3319TIP3    H231593   2.597   0.747   0.217 -0.2957 -0.5233  0.5147
 3320TIP3   OH231594   5.390   2.062   0.055  0.1413 -0.2622  0.1689
 3320TIP3    H131595   5.300   2.088   0.074 -0.1167 -0.7327 -0.3863
 3320TIP3    H231596   5.442   2.105   0.122 -0.6969 -1.5526  1.7080
 3321TIP3   OH231597   6.352   6.032   6.549  0.0642 -0.6946 -0.4219
 3321TIP3    H131598   6.257   6.042   6.550  0.2054  0.8632 -0.1368
 3321TIP3    H231599   6.376   6.041   6.456  0.0115 -0.0938 -0.3818
 3322TIP3   OH231600   2.028   3.633   8.409 -0.0206  0.2880 -0.4435
 3322TIP3    H131601   1.993   3.564   8.465  0.7911 -0.0231 -0.3119
 3322TIP3    H231602   2.065   3.697   8.470  0.6618  0.0579 -0.6125
 3323TIP3   OH231603   0.820   3.778   7.476  0.4465 -0.1369  0.3626
 3323TIP3    H131604   0.802   3.871   7.489  0.4647 -0.1934  0.8113
 3323TIP3    H231605   0.737   3.734   7.496  0.5864 -0.2585  0.6768
 3324TIP3   OH231606   5.232   5.786   8.642  0.1350 -0.1470 -0.6829
 3324TIP3    H131607   5.288   5.731   8.697 -0.6620 -0.8337 -0.5281
 3324TIP3    H231608   5.211   5.862   8.697  0.8382  0.0720 -0.7139
 3325TIP3   OH231609   4.083   3.544   8.051  0.1715  0.3073 -0.2443
 3325TIP3    H131610   4.021   3.500   8.109  1.1489 -2.5050 -1.1647
 3325TIP3    H231611   4.165   3.546   8.101  0.0638  1.4931 -0.0832
 3326TIP3   OH231612   6.072   4.413   1.858 -0.6079 -0.0679  0.3954
 3326TIP3    H131613   6.132   4.444   1.790  1.1596 -2.4879  0.7472
 3326TIP3    H231614   6.116   4.434   1.941 -1.7047  0.8281  0.7919
 3327TIP3   OH231615   0.330   3.606   6.480  0.0844  0.1075 -0.2770
 3327TIP3    H131616   0.239   3.618   6.505  0.6592 -0.3004  2.2822
 3327TIP3    H231617   0.326   3.574   6.389 -2.2152  1.2915 -0.6554
 3328TIP3   OH231618   1.193   2.689   8.720  0.2624 -0.1472 -0.3088
 3328TIP3    H131619   1.178   2.742   8.798  0.5114 -1.7862  0.9055
 3328TIP3    H231620   1.283   2.709   8.693  0.4753 -0.2066  0.3510
 3329TIP3   OH231621   3.567   3.882   7.218  0.3662  0.0388  0.2954
 3329TIP3    H131622   3.483   3.845   7.190  0.3279 -0.3488  0.9115
 3329TIP3    H231623   3.542   3.958   7.272  0.4245  0.2370  0.0462
 3330TIP3   OH231624   1.708   6.378   8.722 -0.5747  0.1352 -0.5884
 3330TIP3    H131625   1.679   6.389   8.632 -1.3616  0.1408 -0.3443
 3330TIP3    H231626   1.766   6.302   8.719  0.6533  1.0586 -1.3519
 3331TIP3   OH231627   2.049   2.114   8.045 -0.0709 -0.3263 -0.1178
 3331TIP3    H131628   2.052   2.141   7.953  0.9088 -0.2346 -0.0795
 3331TIP3    H231629   1.968   2.151   8.079  1.4170  3.1791  0.0961
 3332TIP3   OH231630   4.260   2.273   2.302 -0.1969  0.1397  0.0544
 3332TIP3    H131631   4.210   2.195   2.327  0.9442 -0.9234 -0.8148
 3332TIP3    H231632   4.305   2.300   2.382 -1.5065  0.6551  0.6557
 3333TIP3   OH231633   0.644   2.291   2.310 -0.2073 -0.0389  0.0140
 3333TIP3    H131634   0.619   2.340   2.389 -2.5689  1.2462 -1.3969
 3333TIP3    H231635   0.739   2.281   2.318 -0.2682  0.5845  2.6925
 3334TIP3   OH231636   2.672   6.407   1.106  0.6098 -0.0760  0.0651
 3334TIP3    H131637   2.635   6.416   1.018 -3.3391  0.2611  1.5869
 3334TIP3    H231638   2.727   6.328   1.100 -0.2629 -0.5998 -2.4671
 3335TIP3   OH231639   0.302   3.100   0.257 -0.3681 -0.0937 -0.3775
 3335TIP3    H131640   0.295   3.126   0.165 -0.2249  0.5538 -0.2147
 3335TIP3    H231641   0.363   3.164   0.295 -0.0134 -0.6761  0.0473
 3336TIP3   OH231642   3.398   6.231   7.484 -0.1704 -0.0604 -0.0311
 3336TIP3    H131643   3.436   6.318   7.475 -0.9993  0.3042 -0.0905
 3336TIP3    H231644   3.419   6.188   7.401 -0.1064  0.2260 -0.1654
 3337TIP3   OH231645   4.948   0.782   7.126 -0.5148 -0.2213 -0.3355
 3337TIP3    H131646   4.985   0.842   7.191 -1.9225 -1.0844  1.3390
 3337TIP3    H231647   5.025   0.751   7.077  1.0386 -1.4363  2.5641
 3338TIP3   OH231648   3.629   5.202   8.092  1.0667  0.3693 -0.7310
 3338TIP3    H131649   3.708   5.204   8.145  0.7948  0.3675 -0.3249
 3338TIP3    H231650   3.557   5.205   8.155  0.7403  0.1027 -1.0842
 3339TIP3   OH231651   2.346   5.668   2.155  0.0728 -0.2253 -0.1908
 3339TIP3    H131652   2.386   5.668   2.068 -3.0691  0.1399 -1.7586
 3339TIP3    H231653   2.295   5.587   2.158 -1.1468  0.5385  0.6221
 3340TIP3   OH231654   5.098   3.426   0.868  0.0417 -0.9054 -0.2935
 3340TIP3    H131655   5.017   3.475   0.883 -0.8599 -2.3249 -0.3100
 3340TIP3    H231656   5.156   3.488   0.825 -1.6483 -0.3107 -1.8356
 3341TIP3   OH231657   3.166   4.836   6.708 -0.4761 -0.0433 -0.1398
 3341TIP3    H131658   3.129   4.780   6.640  0.4047 -0.7732 -0.0361
 3341TIP3    H231659   3.242   4.877   6.667  1.3181 -2.0736  0.9544
 3342TIP3   OH231660   1.009   5.454   1.919  0.6108  0.3515  0.2988
 3342TIP3    H131661   0.938   5.479   1.978  0.9042 -0.3580  0.9759
 3342TIP3    H231662   1.087   5.497   1.956  0.7407  0.1649  0.2438
 3343TIP3   OH231663   2.398   0.878   0.735  0.3407 -0.9135 -0.5120
 3343TIP3    H131664   2.345   0.832   0.801  0.6506 -1.1401 -0.4236
 3343TIP3    H231665   2.335   0.936   0.691  0.1848 -0.5312  0.1898
 3344TIP3   OH231666   2.006   0.988   0.373 -0.1779 -0.6193  0.0666
 3344TIP3    H131667   1.972   1.065   0.326 -0.7729  0.1582  1.6868
 3344TIP3    H231668   2.092   0.972   0.334 -0.5716  0.0962 -1.1458
 3345TIP3   OH231669   6.539   1.463   7.283 -0.1957  0.3787  0.4146
 3345TIP3    H131670   6.575   1.375   7.293 -0.4223  0.4935  2.9570
 3345TIP3    H231671   6.614   1.522   7.293 -0.3597  0.5091  0.9053
 3346TIP3   OH231672   5.634   4.454   7.919  0.3561  0.2704  0.2213
 3346TIP3    H131673   5.701   4.460   7.987  0.5366  0.4659  0.0287
 3346TIP3    H231674   5.682   4.426   7.841 -0.2320 -2.5170  0.7494
 3347TIP3   OH231675   5.150   5.912   1.320 -0.5464  0.4303  0.6706
 3347TIP3    H131676   5.160   5.966   1.398  0.2757  0.9521  0.2278
 3347TIP3    H231677   5.115   5.971   1.254  1.6806  0.8682 -0.2295
 3348TIP3   OH231678   4.488   3.701   2.286 -0.0518  0.0630 -0.4500
 3348TIP3    H131679   4.422   3.769   2.298 -0.2466 -0.1976 -0.0365
 3348TIP3    H231680   4.507   3.669   2.374  0.6225  0.1238 -0.5643
 3349TIP3   OH231681   5.699   5.278   8.057 -0.5372  0.0199 -0.3739
 3349TIP3    H131682   5.728   5.328   7.980 -3.1318 -0.5476 -1.8433
 3349TIP3    H231683   5.701   5.187   8.028 -0.6952 -0.2774  0.5344
 3350TIP3   OH231684   2.234   3.925   0.922 -0.1816 -0.1492 -0.2240
 3350TIP3    H131685   2.324   3.955   0.932  0.0207 -1.0589  0.9980
 3350TIP3    H231686   2.226   3.853   0.985 -1.7671 -0.0780 -0.3061
 3351TIP3   OH231687   6.552   3.953   7.860 -0.1608  0.0202  0.1094
 3351TIP3    H131688   6.461   3.930   7.876 -0.0059 -0.0578  0.9039
 3351TIP3    H231689   6.592   3.955   7.947  0.6736 -0.2904 -0.2535
 3352TIP3   OH231690   0.625   5.149   1.025 -0.0563  0.7380 -0.8056
 3352TIP3    H131691   0.604   5.151   1.118  1.5500  1.2837 -0.4122
 3352TIP3    H231692   0.719   5.168   1.021  0.0039  0.2962 -2.5116
 3353TIP3   OH231693   3.174   5.123   6.990  0.4685 -0.3839  0.1972
 3353TIP3    H131694   3.219   5.106   7.073 -0.6657 -2.9977  0.4083
 3353TIP3    H231695   3.137   5.038   6.966  0.1557  0.4566 -2.6563
 3354TIP3   OH231696   0.727   4.133   1.045 -0.1561  0.1372 -0.7500
 3354TIP3    H131697   0.807   4.124   0.994 -0.3152  0.4944 -1.0650
 3354TIP3    H231698   0.664   4.174   0.985 -0.6695 -0.4190 -0.6082
 3355TIP3   OH231699   5.355   2.949   1.423 -0.3186  0.6122  0.2188
 3355TIP3    H131700   5.402   3.023   1.462  0.0606  0.6613 -0.3233
 3355TIP3    H231701   5.296   2.988   1.359 -0.2898  0.4643  0.1010
 3356TIP3   OH231702   4.592   3.256   2.442  0.4003  0.1307  0.0616
 3356TIP3    H131703   4.641   3.194   2.388  0.2138  0.8692 -0.9828
 3356TIP3    H231704   4.649   3.332   2.448  0.9255 -0.3429  1.9063
 3357TIP3   OH231705   6.064   3.903   7.415 -0.2191 -0.4347  0.0321
 3357TIP3    H131706   6.077   3.982   7.467 -1.1820 -0.4283  0.2886
 3357TIP3    H231707   6.141   3.849   7.432 -0.8552 -0.7825  2.1136
 3358TIP3   OH231708   5.154   3.537   2.321 -0.2211  0.3469 -0.4787
 3358TIP3    H131709   5.197   3.560   2.238  2.5579  0.0441  0.7553
 3358TIP3    H231710   5.144   3.442   2.317  0.9496  0.1882 -0.0638
 3359TIP3   OH231711   5.404   5.693   6.744  0.1278  0.0048  0.4864
 3359TIP3    H131712   5.440   5.614   6.706 -1.9518 -1.4999  1.4833
 3359TIP3    H231713   5.312   5.674   6.760 -0.6166  2.8323  0.2507
 3360TIP3   OH231714   0.421   5.563   0.040 -0.2490 -0.3306  0.4207
 3360TIP3    H131715   0.358   5.635   0.042  1.8533  1.5848  1.8481
 3360TIP3    H231716   0.386   5.499   0.102 -1.0325  0.4560  0.8204
 3361TIP3   OH231717   0.950   2.674   2.333  0.0197 -0.6022  0.3668
 3361TIP3    H131718   1.003   2.747   2.364 -1.7374  0.5948  0.6674
 3361TIP3    H231719   0.948   2.613   2.407  0.1122 -0.1724  0.7269
 3362TIP3   OH231720   0.215   2.325   2.884  0.0177 -0.0325 -0.2567
 3362TIP3    H131721   0.271   2.266   2.933  2.5550 -0.2190 -3.0836
 3362TIP3    H231722   0.143   2.270   2.853  0.4424 -0.7909  0.0770
 3363TIP3   OH231723   3.311   0.755   8.664  0.1255 -0.2388  0.0356
 3363TIP3    H131724   3.357   0.674   8.641  0.1119  0.0640 -1.1354
 3363TIP3    H231725   3.379   0.822   8.663 -0.0129 -0.0964  0.1710
 3364TIP3   OH231726   2.471   4.575   1.845  0.5797  0.0441  0.4534
 3364TIP3    H131727   2.555   4.580   1.799  0.8779 -1.4253  0.8049
 3364TIP3    H231728   2.492   4.538   1.930 -0.4481 -0.5352  0.4678
 3365TIP3   OH231729   4.113   6.819   1.206  0.3675 -0.0322  0.1550
 3365TIP3    H131730   4.205   6.796   1.190  0.4537 -0.7912  1.5316
 3365TIP3    H231731   4.115   6.870   1.287 -0.4414 -0.2759  0.3402
 3366TIP3   OH231732   2.235   6.179   2.793  0.0159 -0.2849  0.6675
 3366TIP3    H131733   2.180   6.257   2.806  1.7976  0.8418  1.9699
 3366TIP3    H231734   2.223   6.157   2.701 -3.1387 -0.5688  1.0374
 3367TIP3   OH231735   2.851   3.627   7.526  0.3435 -0.1060  0.0524
 3367TIP3    H131736   2.843   3.721   7.510 -0.8006 -0.2192 -0.0970
 3367TIP3    H231737   2.788   3.587   7.466 -1.4869 -0.7677  2.2915
 3368TIP3   OH231738   3.348   1.189   0.222  0.1200  0.7605 -0.0509
 3368TIP3    H131739   3.298   1.150   0.293 -0.9358 -0.6704 -1.4967
 3368TIP3    H231740   3.397   1.260   0.263 -2.8145  2.0624  1.5489
 3369TIP3   OH231741   1.094   2.259   7.991 -0.1333 -0.1306 -0.2241
 3369TIP3    H131742   1.023   2.321   8.007  1.4664  1.9009 -0.4772
 3369TIP3    H231743   1.130   2.285   7.906  1.3991 -0.5546  0.2554
 3370TIP3   OH231744   4.849   3.538   8.666  0.1721 -0.2083  0.1963
 3370TIP3    H131745   4.821   3.591   8.591 -0.3537 -1.2976 -0.4082
 3370TIP3    H231746   4.806   3.578   8.741 -0.5053  0.0279 -0.3026
 3371TIP3   OH231747   4.895   6.796   0.188 -0.1990  0.4542  0.8991
 3371TIP3    H131748   4.901   6.890   0.171 -0.8137  0.5070  0.9593
 3371TIP3    H231749   4.982   6.772   0.219  0.5857  0.6164 -0.9817
 3372TIP3   OH231750   5.476   4.460   1.312  0.4072 -0.0365  0.5635
 3372TIP3    H131751   5.540   4.529   1.295  0.1722  0.1464  0.4223
 3372TIP3    H231752   5.497   4.392   1.248  0.6644 -0.1150  0.7293
 3373TIP3   OH231753   1.218   2.197   1.848  0.1574  0.1842 -0.1210
 3373TIP3    H131754   1.288   2.152   1.896  0.4240  1.5107  0.7826
 3373TIP3    H231755   1.225   2.288   1.875 -0.5182  0.7577 -1.7264
 3374TIP3   OH231756   0.747   3.582   1.808  0.2975  0.1186  0.0330
 3374TIP3    H131757   0.758   3.671   1.841  1.2893 -0.2583  0.7843
 3374TIP3    H231758   0.770   3.588   1.715  0.2755  0.6648  0.0607
 3375TIP3   OH231759   4.536   4.951   0.143  0.0994 -0.6961  0.2743
 3375TIP3    H131760   4.441   4.953   0.132  0.3669  0.2727 -2.6579
 3375TIP3    H231761   4.551   4.987   0.230 -2.2729 -3.4140  1.9855
 3376TIP3   OH231762   0.780   5.656   8.211  0.4310  0.1819 -0.2598
 3376TIP3    H131763   0.782   5.574   8.161 -0.7591  0.3616 -0.6397
 3376TIP3    H231764   0.740   5.631   8.295  0.9206  0.1979 -0.0214
 3377TIP3   OH231765   3.394   4.078   8.624 -0.5343  0.3446  0.3089
 3377TIP3    H131766   3.327   4.010   8.618  0.3792 -0.6435  0.9580
 3377TIP3    H231767   3.417   4.097   8.533  0.0114 -1.0588  0.1320
 3378TIP3   OH231768   4.380   2.760   1.070 -0.2951  0.0852 -0.4752
 3378TIP3    H131769   4.397   2.848   1.104 -0.8140  1.2107 -2.9011
 3378TIP3    H231770   4.461   2.712   1.087 -0.0446  0.9617  0.9973
 3379TIP3   OH231771   3.546   3.703   2.365 -0.3797 -0.4866  0.1791
 3379TIP3    H131772   3.610   3.634   2.380 -0.1500 -0.0275  1.3919
 3379TIP3    H231773   3.463   3.656   2.351 -0.1457 -1.0130  0.5640
 3380TIP3   OH231774   3.202   4.176   1.291  0.3057  0.5298  0.0518
 3380TIP3    H131775   3.193   4.181   1.386  0.2311 -0.3069  0.0954
 3380TIP3    H231776   3.283   4.126   1.277 -0.7666 -1.1719 -0.2995
 3381TIP3   OH231777   0.040   6.727   8.620 -0.3444 -0.2872  0.3601
 3381TIP3    H131778  -0.038   6.698   8.572 -0.5765 -1.2331  1.2674
 3381TIP3    H231779   0.112   6.711   8.559 -0.5560 -2.0912  0.5300
 3382TIP3   OH231780   6.637   5.112   1.500 -0.0233  0.6774  0.0303
 3382TIP3    H131781   6.725   5.075   1.491 -1.1386 -2.5349  0.9301
 3382TIP3    H231782   6.642   5.166   1.579  0.9999 -0.1159  0.5371
 3383TIP3   OH231783   5.937   4.933   7.067 -0.0848  0.5697 -0.1180
 3383TIP3    H131784   5.959   4.840   7.071  1.3774  0.9392  1.9907
 3383TIP3    H231785   5.859   4.942   7.122  0.7625  0.7929  1.0929
 3384TIP3   OH231786   1.199   2.946   7.364 -0.6047  0.5680  0.3856
 3384TIP3    H131787   1.230   2.913   7.279 -0.5141 -0.6915  0.8855
 3384TIP3    H231788   1.104   2.937   7.360 -0.5149 -1.0001  0.9776
 3385TIP3   OH231789   2.357   2.297   1.659 -0.3965  0.1299  0.3387
 3385TIP3    H131790   2.338   2.351   1.582  0.6557 -0.5386 -0.4142
 3385TIP3    H231791   2.326   2.209   1.635 -0.6034  0.0365  0.9206
 3386TIP3   OH231792   3.216   5.287   6.502  0.2423  0.1981 -0.5462
 3386TIP3    H131793   3.184   5.340   6.428 -0.0201 -0.5206 -0.9637
 3386TIP3    H231794   3.303   5.258   6.474 -0.4364 -1.2890 -1.2438
 3387TIP3   OH231795   2.805   5.128   2.288  0.1906  0.8044 -0.2312
 3387TIP3    H131796   2.814   5.086   2.373  3.9193  2.2670  0.2900
 3387TIP3    H231797   2.810   5.222   2.307 -0.2730  1.2052 -1.9421
 3388TIP3   OH231798   2.083   0.375   1.335 -0.2749  0.3199 -0.5378
 3388TIP3    H131799   2.094   0.408   1.246 -0.0519  0.4778 -0.4513
 3388TIP3    H231800   2.160   0.321   1.351  2.0671  3.7840  1.1410
 3389TIP3   OH231801   1.005   4.610   2.382 -0.1363  0.4229  0.0903
 3389TIP3    H131802   0.959   4.645   2.306 -2.2763  1.1179  1.5988
 3389TIP3    H231803   1.093   4.646   2.376 -0.6727  1.6147 -1.3113
 3390TIP3   OH231804   6.387   6.159   0.379 -0.2566 -0.0804 -0.5371
 3390TIP3    H131805   6.326   6.099   0.334 -0.4038 -1.1690  1.0318
 3390TIP3    H231806   6.393   6.234   0.321  0.8223 -2.0566 -3.1788
 3391TIP3   OH231807   1.913   4.935   1.796 -0.3109  0.6483  0.0092
 3391TIP3    H131808   1.971   4.966   1.726 -0.0572  0.9069  0.3262
 3391TIP3    H231809   1.907   4.841   1.782 -1.2486  0.8434 -1.0914
 3392TIP3   OH231810   4.509   1.106   0.263 -0.5362  0.5236 -0.0717
 3392TIP3    H131811   4.572   1.044   0.226  0.1259 -1.2648  3.5899
 3392TIP3    H231812   4.548   1.192   0.246 -0.2761 -0.0675 -3.1797
 3393TIP3   OH231813   5.980   5.399   8.452 -0.3914 -0.1766 -0.6230
 3393TIP3    H131814   6.070   5.369   8.466 -0.0270 -0.5392 -3.2551
 3393TIP3    H231815   5.936   5.323   8.415 -0.4002  1.3489 -4.0366
 3394TIP3   OH231816   1.054   0.274   1.573 -0.0236  0.0229  0.2841
 3394TIP3    H131817   1.062   0.206   1.639 -1.0751 -0.9617 -0.5523
 3394TIP3    H231818   1.144   0.297   1.552  0.3787 -1.3605  0.3608
 3395TIP3   OH231819   0.082   4.439   0.267  0.0057  0.8172  0.0444
 3395TIP3    H131820   0.134   4.511   0.304 -0.7951  1.6987 -0.4971
 3395TIP3    H231821  -0.008   4.473   0.264 -0.7935 -0.9507  1.6880
 3396TIP3   OH231822   4.853   5.269   7.682 -0.6100 -0.0830 -0.4366
 3396TIP3    H131823   4.845   5.188   7.631  2.8200 -2.1843  1.9197
 3396TIP3    H231824   4.947   5.280   7.695 -1.0958  2.8979  1.5058
 3397TIP3   OH231825   6.841   2.214   1.055 -0.1317 -0.2482  0.4881
 3397TIP3    H131826   6.810   2.139   1.004  2.7925 -0.2074 -1.6502
 3397TIP3    H231827   6.932   2.193   1.076  0.7563  2.5431 -0.0201
 3398TIP3   OH231828   3.629   6.449   7.790 -0.1422  0.1606  0.2946
 3398TIP3    H131829   3.549   6.442   7.738 -0.1184  0.3526  0.2322
 3398TIP3    H231830   3.621   6.532   7.836 -0.6927 -0.5123  1.4837
 3399TIP3   OH231831   0.325   4.587   1.257 -0.3196  0.2132 -0.5528
 3399TIP3    H131832   0.355   4.653   1.320 -0.0580 -0.5826  0.1619
 3399TIP3    H231833   0.300   4.512   1.310  0.3750 -0.6545 -1.4289
 3400TIP3   OH231834   1.082   6.856   0.821  0.3850 -0.0338  0.2875
 3400TIP3    H131835   1.174   6.859   0.848  0.2543 -0.0067  0.7432
 3400TIP3    H231836   1.041   6.795   0.882  0.0015  0.3208  0.3936
 3401TIP3   OH231837   2.133   5.741   7.540 -0.1642  0.0330  0.1819
 3401TIP3    H131838   2.218   5.702   7.516  0.1440  0.5741  0.3830
 3401TIP3    H231839   2.069   5.691   7.489  0.4216  0.7772 -1.3636
 3402TIP3   OH231840   4.338   4.506   0.305 -0.0670  0.1559 -0.4947
 3402TIP3    H131841   4.335   4.574   0.237 -0.4777 -1.7331 -2.4888
 3402TIP3    H231842   4.370   4.428   0.259  2.4037 -0.5588  2.1577
 3403TIP3   OH231843   4.938   0.272   7.227 -0.3337 -0.1044 -0.2312
 3403TIP3    H131844   5.005   0.298   7.164  1.9332  0.1015  2.0843
 3403TIP3    H231845   4.977   0.198   7.274 -0.5183  1.6385  2.9487
 3404TIP3   OH231846   4.780   0.828   7.392 -0.0926 -0.5844 -0.3834
 3404TIP3    H131847   4.851   0.803   7.451 -2.1289  0.9873  3.0352
 3404TIP3    H231848   4.787   0.923   7.383 -1.7359 -0.3900  0.0748
 3405TIP3   OH231849   3.296   0.909   7.842 -0.0733  0.3432  0.2344
 3405TIP3    H131850   3.245   0.879   7.766  0.5488  1.6278 -0.7238
 3405TIP3    H231851   3.386   0.914   7.810  0.2375  0.6600  1.1388
 3406TIP3   OH231852   1.684   5.859   1.031  0.2224 -0.4919 -0.1969
 3406TIP3    H131853   1.684   5.922   1.103 -0.1582  0.9573 -1.4326
 3406TIP3    H231854   1.600   5.873   0.987  0.4122 -1.4230 -0.8829
 3407TIP3   OH231855   5.021   3.442   1.999 -0.2681 -0.1693  0.3910
 3407TIP3    H131856   5.111   3.422   1.975 -1.7336 -2.6051 -4.1121
 3407TIP3    H231857   5.002   3.383   2.072  1.0257 -1.4791 -0.3006
 3408TIP3   OH231858   0.310   0.375   7.898  0.1023  0.0978  0.1998
 3408TIP3    H131859   0.334   0.422   7.978  1.5318 -0.5977  0.2130
 3408TIP3    H231860   0.393   0.351   7.858 -0.5645 -1.7545 -0.1947
 3409TIP3   OH231861   4.892   2.692   7.982  0.0378 -0.2696  0.4623
 3409TIP3    H131862   4.846   2.696   8.067  0.0911  1.4547  0.4557
 3409TIP3    H231863   4.985   2.686   8.005 -0.0159 -1.0289  0.5020
 3410TIP3   OH231864   2.167   5.393   0.942 -0.3283  0.0440  0.0015
 3410TIP3    H131865   2.193   5.339   0.867 -0.7096  0.9884 -0.8259
 3410TIP3    H231866   2.091   5.443   0.911 -0.1167  0.9007  0.8187
 3411TIP3   OH231867   5.163   0.708   0.536 -0.2543  0.2947  0.5928
 3411TIP3    H131868   5.176   0.614   0.523  0.5324  0.4744  0.0660
 3411TIP3    H231869   5.174   0.721   0.631  2.3030  0.2363  0.3766
 3412TIP3   OH231870   4.040   2.824   0.915  0.3520  0.4866  0.0559
 3412TIP3    H131871   4.060   2.917   0.904  0.4775  0.5096  0.4519
 3412TIP3    H231872   3.974   2.805   0.849  0.6749  0.7457 -0.3401
 3413TIP3   OH231873   6.221   1.119   0.981  0.5856 -0.2408 -0.5818
 3413TIP3    H131874   6.313   1.128   0.954  1.2552 -0.0266  1.5838
 3413TIP3    H231875   6.207   1.191   1.043 -1.0108 -0.3666 -0.7553
 3414TIP3   OH231876   6.073   1.569   7.471  0.3359  0.2073  0.4859
 3414TIP3    H131877   6.131   1.537   7.540  1.1576  0.0067 -0.2810
 3414TIP3    H231878   6.048   1.657   7.499 -0.0544 -0.2056  1.4611
 3415TIP3   OH231879   4.815   2.339   8.671 -0.0413  0.3726 -0.1388
 3415TIP3    H131880   4.886   2.285   8.703  0.9918  1.6429 -0.1954
 3415TIP3    H231881   4.802   2.405   8.739 -0.5668  0.6813 -0.5240
 3416TIP3   OH231882   3.350   2.981   8.651 -0.2191 -0.0596  0.2147
 3416TIP3    H131883   3.409   2.952   8.721  0.8457  3.9599  1.2687
 3416TIP3    H231884   3.385   2.941   8.571  2.3112  0.0360  1.1826
 3417TIP3   OH231885   5.894   3.596   7.296 -0.0130  0.3815 -0.4166
 3417TIP3    H131886   5.973   3.599   7.241  0.2193 -0.4378 -0.1388
 3417TIP3    H231887   5.851   3.514   7.273 -0.2233  0.3106  0.2017
 3418TIP3   OH231888   2.698   5.934   0.913 -0.0741  0.4258 -0.1302
 3418TIP3    H131889   2.742   5.887   0.983  0.0346 -0.2313 -0.6266
 3418TIP3    H231890   2.743   5.906   0.833 -0.3165  1.0181 -0.4813
 3419TIP3   OH231891   4.933   1.132   7.652 -0.2130  0.7163  0.2165
 3419TIP3    H131892   4.999   1.185   7.608  0.0146 -0.5172 -0.9658
 3419TIP3    H231893   4.854   1.144   7.599 -0.0266 -0.5031 -0.3693
 3420TIP3   OH231894   0.008   2.717   8.040  0.0586  0.3822  0.1290
 3420TIP3    H131895  -0.023   2.700   7.951  0.8445 -2.7067  0.3493
 3420TIP3    H231896   0.103   2.708   8.034  0.2979  1.9205  0.9928
 3421TIP3   OH231897   6.695   2.235   8.686  0.1975  0.0722 -0.1466
 3421TIP3    H131898   6.612   2.191   8.672 -0.8398  1.7706  0.4031
 3421TIP3    H231899   6.757   2.189   8.629 -1.6723  0.4187 -2.6168
 3422TIP3   OH231900   6.681   5.599   1.124 -0.0216  0.7717 -1.0356
 3422TIP3    H131901   6.667   5.522   1.068  3.0035  0.4124 -1.4561
 3422TIP3    H231902   6.670   5.674   1.065 -2.7960  0.7651 -0.6664
 3423TIP3   OH231903   0.116   5.758   1.600 -0.0966 -0.4888 -0.0537
 3423TIP3    H131904   0.103   5.714   1.684  0.6869 -0.6852 -0.0211
 3423TIP3    H231905   0.042   5.731   1.547  0.3658 -1.8799 -0.0383
 3424TIP3   OH231906   0.151   0.385   6.724 -0.0668 -0.2598 -0.0892
 3424TIP3    H131907   0.164   0.475   6.756 -0.5192 -0.7359  1.5444
 3424TIP3    H231908   0.075   0.392   6.665 -1.5364  0.1172  1.7443
 3425TIP3   OH231909   3.332   4.672   8.042  1.3871 -0.4636 -0.4581
 3425TIP3    H131910   3.264   4.736   8.018  0.5585 -1.3385 -0.4859
 3425TIP3    H231911   3.285   4.602   8.087  2.3721 -0.7772  0.1243
 3426TIP3   OH231912   2.390   3.420   7.642 -0.1221 -0.3730  0.1284
 3426TIP3    H131913   2.381   3.455   7.553  0.9317 -1.3335 -0.3913
 3426TIP3    H231914   2.360   3.329   7.634 -0.7053 -0.2531  0.9270
 3427TIP3   OH231915   0.524   5.885   1.402  0.1883  0.7097  0.3696
 3427TIP3    H131916   0.472   5.855   1.477  1.2365 -0.6591  0.5741
 3427TIP3    H231917   0.554   5.972   1.427  0.9772  0.0520  1.7947
 3428TIP3   OH231918   2.936   1.771   1.952 -0.2759  0.0968 -0.6353
 3428TIP3    H131919   2.952   1.862   1.978 -1.1661  0.1067 -0.1097
 3428TIP3    H231920   2.861   1.776   1.893 -1.3343 -0.4583  0.6317
 3429TIP3   OH231921   1.809   1.900   6.772 -0.0344  0.3628 -0.0900
 3429TIP3    H131922   1.889   1.927   6.817  0.3261 -0.0888 -0.4572
 3429TIP3    H231923   1.837   1.834   6.709 -0.7068  0.1413 -0.1697
 3430TIP3   OH231924   6.014   0.791   1.942 -0.5158 -0.8490  0.1732
 3430TIP3    H131925   5.943   0.848   1.911  0.5146  0.6140  0.4492
 3430TIP3    H231926   5.982   0.703   1.923 -0.8628 -0.1328 -3.1159
 3431TIP3   OH231927   6.691   0.619   8.453  0.2875  0.0704 -0.2170
 3431TIP3    H131928   6.661   0.710   8.457  2.6148  0.9186 -0.6640
 3431TIP3    H231929   6.633   0.578   8.388 -0.3121  1.4275 -0.5680
 3432TIP3   OH231930   0.729   3.808   2.807 -0.0724 -0.6766 -0.2663
 3432TIP3    H131931   0.722   3.842   2.717 -0.4369 -1.1604 -0.4239
 3432TIP3    H231932   0.700   3.717   2.801  0.2563 -0.8210  0.2781
 3433TIP3   OH231933   3.478   2.054   7.326 -0.0033  0.3327  0.1903
 3433TIP3    H131934   3.499   1.997   7.252  3.0755 -0.6280  1.6236
 3433TIP3    H231935   3.418   2.120   7.290 -0.9548 -1.7675 -2.3647
 3434TIP3   OH231936   2.021   5.317   0.489  0.0582  0.8145  0.3223
 3434TIP3    H131937   1.949   5.338   0.549 -0.0376  1.1628  0.0882
 3434TIP3    H231938   2.010   5.378   0.416 -0.3545 -0.1930 -0.4735
 3435TIP3   OH231939   1.877   6.258   0.697  0.5972 -0.4976  0.0633
 3435TIP3    H131940   1.847   6.168   0.685 -1.3072 -0.3390  2.8797
 3435TIP3    H231941   1.820   6.310   0.640 -0.5116 -0.7843  0.8941
 3436TIP3   OH231942   4.067   1.322   0.234  0.1415 -0.0770  0.3900
 3436TIP3    H131943   4.048   1.242   0.185  0.1376 -0.3560  0.8421
 3436TIP3    H231944   4.154   1.308   0.270 -0.1084 -0.1261  0.9717
 3437TIP3   OH231945   0.583   3.042   6.877  0.1746  0.0409 -0.0486
 3437TIP3    H131946   0.495   3.068   6.904  0.1135 -0.3511  0.1341
 3437TIP3    H231947   0.641   3.086   6.939  0.0532 -0.5352  0.4803
 3438TIP3   OH231948   4.202   2.317   1.265 -0.3215 -0.7696 -0.7574
 3438TIP3    H131949   4.134   2.262   1.227 -0.7549 -0.1189 -0.9410
 3438TIP3    H231950   4.238   2.366   1.191 -0.7645  0.0710 -0.4334
 3439TIP3   OH231951   2.951   5.552   1.896  0.3822 -0.0154 -0.3206
 3439TIP3    H131952   2.961   5.617   1.827 -0.2611 -0.3072 -0.7001
 3439TIP3    H231953   3.015   5.484   1.874 -1.2930 -1.1577 -1.8866
 3440TIP3   OH231954   6.752   6.036   8.394  0.4902  0.1027  0.3255
 3440TIP3    H131955   6.763   6.118   8.443 -3.7977  1.7368 -1.0450
 3440TIP3    H231956   6.715   5.975   8.457 -2.3084  1.3155 -0.0275
 3441TIP3   OH231957   0.535   3.112   7.403  0.2253  0.2624 -0.1358
 3441TIP3    H131958   0.502   3.030   7.440 -0.1822  0.4248 -0.1287
 3441TIP3    H231959   0.582   3.086   7.324 -0.6637  0.0882 -0.6325
 3442TIP3   OH231960   3.463   4.312   8.144  0.1935 -0.3596  0.2280
 3442TIP3    H131961   3.518   4.248   8.100 -0.3380 -1.3420  0.9730
 3442TIP3    H231962   3.399   4.338   8.077 -0.8099 -2.0815  0.4794
 3443TIP3   OH231963   1.742   3.257   8.062 -0.0312 -0.6077 -0.1737
 3443TIP3    H131964   1.649   3.237   8.077 -0.4811  1.2387 -0.1937
 3443TIP3    H231965   1.748   3.272   7.967  0.4497 -1.4567 -0.2779
 3444TIP3   OH231966   6.504   3.877   8.344  0.0832  0.1455 -0.4615
 3444TIP3    H131967   6.462   3.799   8.308  3.4150 -1.9222 -0.3108
 3444TIP3    H231968   6.544   3.920   8.269 -0.0016  0.5669 -0.2674
 3445TIP3   OH231969   5.548   3.922   8.649 -0.4011  0.1075 -0.0549
 3445TIP3    H131970   5.488   3.865   8.601 -0.0309 -1.5527  1.3677
 3445TIP3    H231971   5.627   3.869   8.660  0.4201  1.3574  0.2503
 3446TIP3   OH231972   1.898   5.210   6.680 -0.0673  0.3824 -0.1135
 3446TIP3    H131973   1.938   5.291   6.711  2.9039  0.4758 -3.5315
 3446TIP3    H231974   1.960   5.141   6.706  0.8483  0.1153 -2.6625
 3447TIP3   OH231975   0.102   3.042   1.098  0.2802 -0.1928 -0.7495
 3447TIP3    H131976   0.123   2.949   1.095  1.1613  0.0155 -1.3741
 3447TIP3    H231977   0.118   3.067   1.189  0.5921 -0.5347 -0.7095
 3448TIP3   OH231978   0.928   6.118   2.196  0.3806 -0.1396  0.4756
 3448TIP3    H131979   0.917   6.213   2.187  2.6401  0.1966  0.6383
 3448TIP3    H231980   0.942   6.104   2.289  0.9407 -0.5082  0.3403
 3449TIP3   OH231981   2.778   5.679   2.500  0.0497  0.6711  0.3508
 3449TIP3    H131982   2.774   5.641   2.412  1.4536 -0.4735  0.7284
 3449TIP3    H231983   2.861   5.726   2.502 -0.0620  0.8505  0.9981
 3450TIP3   OH231984   4.106   3.773   0.905 -0.2407 -0.2823 -0.3040
 3450TIP3    H131985   4.200   3.778   0.919 -0.0694  0.7220 -1.6213
 3450TIP3    H231986   4.069   3.833   0.970  0.3229  2.0455 -1.9852
 3451TIP3   OH231987   4.294   5.766   7.102 -0.4149  0.1666  0.4476
 3451TIP3    H131988   4.217   5.791   7.051 -1.4313 -2.8438  0.3535
 3451TIP3    H231989   4.362   5.753   7.036 -0.3209  0.9954  0.3629
 3452TIP3   OH231990   2.780   6.209   8.630 -0.7391  0.2966 -0.0092
 3452TIP3    H131991   2.745   6.172   8.711 -0.7501  0.7089  0.1742
 3452TIP3    H231992   2.765   6.141   8.565 -0.2612 -0.2500  0.4409
 3453TIP3   OH231993   3.568   4.013   1.873 -0.7869 -0.2256  0.4802
 3453TIP3    H131994   3.629   4.086   1.882 -0.6814  0.0158 -1.7263
 3453TIP3    H231995   3.601   3.947   1.933  0.3131  0.7562  1.0035
 3454TIP3   OH231996   6.248   3.611   7.606 -0.5182  0.1362  0.2603
 3454TIP3    H131997   6.293   3.686   7.567 -0.3983  0.1839  0.4847
 3454TIP3    H231998   6.155   3.629   7.592 -0.4437 -0.8827 -1.9032
 3455TIP3   OH231999   3.503   5.042   0.817  0.3264 -0.5317 -0.2697
 3455TIP3    H132000   3.409   5.058   0.829  0.3563  1.0046 -1.6954
 3455TIP3    H232001   3.530   5.109   0.754  2.1523 -1.7078 -0.7828
 3456TIP3   OH232002   0.010   0.996   7.825  0.2741  0.5131 -0.5452
 3456TIP3    H132003  -0.067   0.979   7.881 -0.0983  1.7348 -0.6694
 3456TIP3    H232004   0.080   0.944   7.865 -0.8497 -1.5299 -1.0657
 3457TIP3   OH232005   1.583   6.479   2.601 -0.0102  0.3273 -0.2984
 3457TIP3    H132006   1.643   6.491   2.674 -0.9851 -1.8041  0.9489
 3457TIP3    H232007   1.556   6.568   2.577  2.1236  1.2080  0.3457
 3458TIP3   OH232008   1.598   6.149   0.262 -0.4099 -0.2173  0.0810
 3458TIP3    H132009   1.621   6.056   0.254 -1.0342 -0.3742  0.0380
 3458TIP3    H232010   1.542   6.166   0.186 -0.6747  0.0700  0.3382
 3459TIP3   OH232011   3.920   0.917   8.448  0.1960  0.4511  0.1472
 3459TIP3    H132012   3.900   0.911   8.541  0.1593  3.4914  0.4245
 3459TIP3    H232013   3.835   0.930   8.406  0.0768 -2.0015 -0.5161
 3460TIP3   OH232014   5.118   5.373   8.400 -0.2053  0.1723 -0.7871
 3460TIP3    H132015   5.195   5.324   8.371  0.2068  0.5249 -0.3132
 3460TIP3    H232016   5.044   5.319   8.373  0.2542 -1.5877  1.1448
 3461TIP3   OH232017   5.858   0.696   0.173  0.0360 -0.3935 -0.9442
 3461TIP3    H132018   5.856   0.752   0.251 -0.7575 -1.4721 -0.1687
 3461TIP3    H232019   5.807   0.745   0.108 -0.1620  0.0478 -0.4682
 3462TIP3   OH232020   6.809   0.299   8.443  0.0426 -0.3462 -0.5070
 3462TIP3    H132021   6.818   0.371   8.380  3.1082  0.8698  1.1106
 3462TIP3    H232022   6.756   0.335   8.514  3.9525  1.6806  1.7321
 3463TIP3   OH232023   1.374   2.302   1.452  0.2313  0.1415  0.8821
 3463TIP3    H132024   1.359   2.210   1.470  0.6415  0.4020  2.7065
 3463TIP3    H232025   1.466   2.308   1.426 -0.2200 -0.1573 -0.9192
 3464TIP3   OH232026   4.902   1.254   8.337 -0.8088 -0.2327  0.4864
 3464TIP3    H132027   4.928   1.319   8.272 -0.5946 -0.6290  0.1651
 3464TIP3    H232028   4.979   1.197   8.345 -0.9052 -0.3015  0.9411
 3465TIP3   OH232029   1.860   5.023   0.122  0.2961 -0.0555 -0.1464
 3465TIP3    H132030   1.919   4.951   0.145  0.2160  0.1587  0.7837
 3465TIP3    H232031   1.772   4.986   0.133  0.2406 -0.3569 -1.4684
 3466TIP3   OH232032   0.519   1.392   2.050  0.8204  0.0302 -0.0960
 3466TIP3    H132033   0.570   1.367   1.973 -0.4759  0.0223 -0.9864
 3466TIP3    H232034   0.461   1.318   2.066 -1.1720  1.2960 -1.1127
 3467TIP3   OH232035   1.227   1.729   7.653  0.1971  0.1411 -0.2046
 3467TIP3    H132036   1.199   1.821   7.651  0.5601  0.2338 -0.9381
 3467TIP3    H232037   1.321   1.733   7.667 -0.0410 -0.1716  1.9564
 3468TIP3   OH232038   0.635   4.946   8.321  0.4369 -0.5724 -0.1235
 3468TIP3    H132039   0.626   4.944   8.416  1.6425 -1.2253  0.0004
 3468TIP3    H232040   0.657   5.037   8.300  0.2472 -0.4460  0.2246
 3469TIP3   OH232041   5.524   5.034   6.834  0.0725  0.0112 -0.0072
 3469TIP3    H132042   5.501   5.127   6.825  2.0829  0.4659 -1.1343
 3469TIP3    H232043   5.476   5.005   6.911  1.1949  2.6316  1.8489
 3470TIP3   OH232044   6.610   0.608   2.498 -0.0253 -0.3018 -0.7997
 3470TIP3    H132045   6.689   0.660   2.515  0.4398 -1.5552  1.1667
 3470TIP3    H232046   6.595   0.619   2.404  0.7277  2.3624 -0.7035
 3471TIP3   OH232047   2.830   0.567   7.927  0.1035 -0.6083  0.3771
 3471TIP3    H132048   2.876   0.648   7.904  1.5635 -0.9649  1.8814
 3471TIP3    H232049   2.748   0.571   7.878  0.9083  0.9542 -0.9222
 3472TIP3   OH232050   0.684   3.720   0.603  0.7422  0.0852 -0.3369
 3472TIP3    H132051   0.592   3.700   0.588  0.8802  0.4123 -1.7431
 3472TIP3    H232052   0.726   3.705   0.518  2.3450 -1.9929  0.7147
 3473TIP3   OH232053   5.489   4.595   7.244  0.4324 -0.2981 -0.1370
 3473TIP3    H132054   5.498   4.689   7.263 -1.2970 -0.3472  1.1979
 3473TIP3    H232055   5.520   4.551   7.323 -2.6169 -0.6635  0.9834
 3474TIP3   OH232056   6.427   4.686   8.039  0.2999  0.2498 -0.6820
 3474TIP3    H132057   6.344   4.638   8.034  0.5645 -0.2904 -0.0252
 3474TIP3    H232058   6.492   4.623   8.008  0.2900  1.2052 -2.8165
 3475TIP3   OH232059   0.855   3.327   1.318  0.3717  0.6088 -0.3569
 3475TIP3    H132060   0.798   3.251   1.307 -0.0577  0.8468  0.1995
 3475TIP3    H232061   0.940   3.289   1.340  0.1050  0.2884  0.1639
 3476TIP3   OH232062   5.974   5.009   1.064  0.0613 -0.2253  0.0231
 3476TIP3    H132063   5.948   5.034   0.976  0.4059  1.1689  0.2869
 3476TIP3    H232064   6.067   5.033   1.069  0.0744 -0.3912  0.7191
 3477TIP3   OH232065   5.481   3.368   7.346  0.2801  0.3064 -0.1620
 3477TIP3    H132066   5.416   3.331   7.406 -0.4226  2.9027  0.7867
 3477TIP3    H232067   5.511   3.448   7.388  2.1475  0.5878 -1.8401
 3478TIP3   OH232068   1.172   5.965   2.868  0.0010  0.2181 -0.1792
 3478TIP3    H132069   1.082   5.941   2.846  0.5699 -0.7934 -1.5526
 3478TIP3    H232070   1.224   5.937   2.792  1.2669  2.2818 -0.1851
 3479TIP3   OH232071   2.865   6.104   0.616 -0.4123  0.0637 -0.0117
 3479TIP3    H132072   2.810   6.028   0.595 -1.2969  0.9588 -1.0553
 3479TIP3    H232073   2.831   6.174   0.561  1.6276  0.7362 -0.4906
 3480TIP3   OH232074   2.895   0.748   0.045  0.4683  0.8306  0.2000
 3480TIP3    H132075   2.811   0.728   0.085  0.3371  0.8721 -0.0550
 3480TIP3    H232076   2.884   0.835   0.008  0.4291  0.5886 -0.3661
 3481TIP3   OH232077   4.426   1.996   3.007  0.3718 -0.5870  0.1733
 3481TIP3    H132078   4.477   2.034   2.935  0.6842 -0.5803  0.3976
 3481TIP3    H232079   4.487   1.990   3.080 -0.4822  1.3785  1.1119
 3482TIP3   OH232080   1.186   1.289   1.233 -0.1511 -0.0918  0.2366
 3482TIP3    H132081   1.249   1.220   1.254  2.0371  1.7929  0.2158
 3482TIP3    H232082   1.113   1.243   1.191  2.0026 -2.2165 -1.4612
 3483TIP3   OH232083   4.895   0.285   6.784  0.0277 -0.0375  0.2199
 3483TIP3    H132084   4.939   0.329   6.711 -0.6006 -0.6140 -0.5268
 3483TIP3    H232085   4.805   0.316   6.780 -0.5095 -1.5966 -0.5306
 3484TIP3   OH232086   5.983   5.890   2.476  0.5970 -0.2339 -0.2153
 3484TIP3    H132087   6.014   5.855   2.559  1.1216 -0.1457 -0.3729
 3484TIP3    H232088   6.058   5.936   2.439  0.6350 -1.0073 -1.1435
 3485TIP3   OH232089   6.338   1.297   8.082 -0.5696 -0.4660 -0.7113
 3485TIP3    H132090   6.406   1.347   8.039 -0.3459  0.6550  0.8574
 3485TIP3    H232091   6.384   1.220   8.118  0.4091  1.2384  2.0440
 3486TIP3   OH232092   3.230   4.503   7.186 -0.2647  0.1291  0.1054
 3486TIP3    H132093   3.273   4.517   7.102 -0.4773  2.0559  0.2697
 3486TIP3    H232094   3.262   4.574   7.242  1.0675 -1.9509  2.1801
 3487TIP3   OH232095   0.435   5.905   8.515  0.0043 -0.0830 -0.4272
 3487TIP3    H132096   0.501   5.839   8.536  2.2721  2.3374  0.4822
 3487TIP3    H232097   0.423   5.954   8.597 -1.2897  0.9137 -1.1802
 3488TIP3   OH232098   1.283   1.319   1.898 -0.0433 -0.5139  0.7542
 3488TIP3    H132099   1.197   1.358   1.880  0.3028  0.3821  0.9643
 3488TIP3    H232100   1.317   1.371   1.971  0.9315 -0.4721  0.2763
 3489TIP3   OH232101   5.508   0.099   2.721 -0.3786  0.0622 -0.0865
 3489TIP3    H132102   5.498   0.174   2.779 -0.2329 -0.3902  0.5258
 3489TIP3    H232103   5.546   0.136   2.641 -1.0431  0.7621 -0.0812
 3490TIP3   OH232104   5.456   2.701   1.276  0.1459 -0.1142 -0.5470
 3490TIP3    H132105   5.466   2.652   1.358 -0.1756 -1.3372 -1.2270
 3490TIP3    H232106   5.520   2.772   1.284  1.0080 -0.9330  0.2341
 3491TIP3   OH232107   2.091   5.494   2.254  0.1001  0.0474  0.3948
 3491TIP3    H132108   2.088   5.405   2.290 -1.0366  0.4101  1.2654
 3491TIP3    H232109   2.153   5.541   2.310  0.0272  0.0340  0.4864
 3492TIP3   OH232110   6.027   1.041   0.730 -0.1480 -0.9370 -0.2775
 3492TIP3    H132111   5.951   1.002   0.774  0.6238  0.8346  2.9996
 3492TIP3    H232112   6.098   0.979   0.747 -0.3126 -1.3610 -1.1019
 3493TIP3   OH232113   4.586   5.579   8.212 -0.3459 -0.1554  0.3794
 3493TIP3    H132114   4.653   5.643   8.237 -1.6435  1.7714 -0.8010
 3493TIP3    H232115   4.520   5.586   8.282 -1.9641  2.1723 -1.2329
 3494TIP3   OH232116   2.710   0.390   8.346  0.1877 -0.3834 -0.2646
 3494TIP3    H132117   2.618   0.406   8.325  0.0160 -0.3338  0.5067
 3494TIP3    H232118   2.711   0.375   8.440  1.1026  0.5372 -0.1150
 3495TIP3   OH232119   0.333   0.626   1.492  0.3060  0.4273 -0.0127
 3495TIP3    H132120   0.346   0.540   1.531  1.0489  0.3374 -0.4228
 3495TIP3    H232121   0.291   0.678   1.560 -2.7349 -0.9964 -0.6513
 3496TIP3   OH232122   3.840   5.532   2.388  0.0746  0.3922 -0.7052
 3496TIP3    H132123   3.825   5.611   2.439  0.6346 -1.0509  1.8316
 3496TIP3    H232124   3.755   5.488   2.384 -0.1069  0.7900 -1.6224
 3497TIP3   OH232125   3.734   2.163   8.587  0.5157  0.1340 -0.3555
 3497TIP3    H132126   3.798   2.140   8.520 -0.9743 -0.5233 -1.6348
 3497TIP3    H232127   3.786   2.185   8.664  2.4432  2.8496 -2.2172
 3498TIP3   OH232128   5.332   2.005   8.151  0.2672  0.0846  0.1216
 3498TIP3    H132129   5.413   1.994   8.103 -0.2754 -0.7540 -0.6356
 3498TIP3    H232130   5.355   1.984   8.242  1.2624  1.5442  0.2338
 3499TIP3   OH232131   4.936   6.477   7.124 -0.5660 -0.2420 -0.4925
 3499TIP3    H132132   4.995   6.406   7.150  0.0274 -0.3721 -2.0815
 3499TIP3    H232133   4.849   6.447   7.150 -0.0371 -0.3142  1.3441
 3500TIP3   OH232134   6.570   1.958   0.653  0.0664 -0.3416  0.5125
 3500TIP3    H132135   6.474   1.966   0.653  0.0838  0.6531  2.3662
 3500TIP3    H232136   6.601   2.044   0.625  0.4041 -0.3763  0.7706
 3501TIP3   OH232137   5.886   2.904   1.566  0.1779 -0.0587  0.1141
 3501TIP3    H132138   5.900   2.839   1.497  0.5842  0.2648 -0.1092
 3501TIP3    H232139   5.865   2.852   1.644  0.0910 -0.4374 -0.1609
 3502TIP3   OH232140   0.409   0.017   3.011 -0.5087 -0.4909 -0.0381
 3502TIP3    H132141   0.489   0.003   2.961 -0.2278  0.3332  0.1632
 3502TIP3    H232142   0.364  -0.067   3.010 -0.2936 -0.6011 -1.2941
 3503TIP3   OH232143   6.212   3.886   0.709  0.1106  0.2834  0.0169
 3503TIP3    H132144   6.194   3.971   0.750  0.7385  0.4772 -0.0947
 3503TIP3    H232145   6.145   3.828   0.744  0.8556  0.3430  1.6402
 3504TIP3   OH232146   4.191   5.019   7.025 -0.1656  0.4531  0.3675
 3504TIP3    H132147   4.095   5.018   7.028 -0.1953  1.6418  0.3128
 3504TIP3    H232148   4.215   5.109   7.045  0.8860  0.5847 -1.2939
 3505TIP3   OH232149   6.280   4.121   8.427  0.1215  0.5538 -0.1588
 3505TIP3    H132150   6.268   4.130   8.521 -0.7766 -0.6864 -0.1276
 3505TIP3    H232151   6.344   4.050   8.418 -0.4175  0.0911 -0.4699
 3506TIP3   OH232152   5.965   4.253   8.139  0.2643  0.2956  0.0744
 3506TIP3    H132153   5.993   4.277   8.227 -1.9600  1.9822  0.4155
 3506TIP3    H232154   5.906   4.178   8.152  0.1656  0.3567 -0.0233
 3507TIP3   OH232155   6.192   5.482   6.554 -0.2656  0.7240 -0.2255
 3507TIP3    H132156   6.235   5.528   6.482  0.5875  0.5019  0.1264
 3507TIP3    H232157   6.264   5.457   6.613 -0.7951 -0.3167  0.0077
 3508TIP3   OH232158   1.733   6.085   8.137  0.1753  0.6314  0.9442
 3508TIP3    H132159   1.687   6.021   8.192 -0.8445  0.2126 -0.3571
 3508TIP3    H232160   1.728   6.167   8.187 -1.5142  0.4672  1.0913
 3509TIP3   OH232161   0.639   6.341   1.847  0.7948  0.1244  0.1369
 3509TIP3    H132162   0.640   6.247   1.863  0.7379  0.0126 -0.4966
 3509TIP3    H232163   0.718   6.358   1.796  0.0465  0.1766 -1.0367
 3510TIP3   OH232164   3.944   4.472   8.132  1.0418  0.6049  0.2560
 3510TIP3    H132165   3.932   4.406   8.064 -0.4808  1.2946 -0.1841
 3510TIP3    H232166   3.921   4.426   8.213  3.7990 -0.5029  0.5107
 3511TIP3   OH232167   4.930   6.073   8.471  0.4738 -0.0553  0.4705
 3511TIP3    H132168   4.873   6.140   8.509 -1.4254 -1.6477  0.6032
 3511TIP3    H232169   5.019   6.101   8.494 -0.3930  1.0190  2.8230
 3512TIP3   OH232170   5.274   4.915   7.192 -0.0769  0.0669  0.7385
 3512TIP3    H132171   5.199   4.926   7.134 -0.1023  0.5659  0.8647
 3512TIP3    H232172   5.260   4.978   7.262  1.9817  2.3590 -0.7571
 3513TIP3   OH232173   6.350   5.414   7.110  0.1469 -0.0662 -0.3554
 3513TIP3    H132174   6.294   5.380   7.040 -0.5669  0.1475  0.0976
 3513TIP3    H232175   6.350   5.345   7.176 -0.7581  0.5136  0.2698
 3514TIP3   OH232176   0.193   0.775   1.666 -0.1854 -0.0483 -0.2950
 3514TIP3    H132177   0.100   0.760   1.684  0.0906 -0.4498  0.9285
 3514TIP3    H232178   0.219   0.844   1.727 -0.0985  1.4324 -1.9464
 3515TIP3   OH232179   1.817   3.479   8.213  0.2041  0.1072  0.1703
 3515TIP3    H132180   1.894   3.446   8.260  0.9686  0.6814 -0.6400
 3515TIP3    H232181   1.798   3.410   8.149 -0.2749 -0.2619  0.7026
 3516TIP3   OH232182   2.270   3.461   8.318 -0.1097 -0.3562  0.1288
 3516TIP3    H132183   2.178   3.457   8.344 -0.3247 -0.7933 -0.6641
 3516TIP3    H232184   2.296   3.552   8.335 -0.9803  0.0445 -0.5768
 3517TIP3   OH232185   0.548   6.728   8.161  0.1623 -0.3514  0.4533
 3517TIP3    H132186   0.582   6.639   8.145 -1.1361 -0.7841 -0.0552
 3517TIP3    H232187   0.459   6.714   8.193 -1.3321  0.7748 -2.7619
 3518TIP3   OH232188   3.608   2.241   0.996  0.1054  0.2468  0.1756
 3518TIP3    H132189   3.685   2.299   0.997  0.4327 -0.1841  0.9676
 3518TIP3    H232190   3.613   2.194   1.079  1.5829 -3.1643 -1.6720
 3519TIP3   OH232191   4.170   5.201   1.444  0.4272  0.3273  0.0099
 3519TIP3    H132192   4.164   5.295   1.461 -0.9177  0.0017  1.5235
 3519TIP3    H232193   4.255   5.175   1.480  0.2121  0.7393  0.8313
 3520TIP3   OH232194   6.722   0.251   7.693 -0.7657 -0.1763  0.2489
 3520TIP3    H132195   6.725   0.262   7.598 -0.9709  0.3408  0.2945
 3520TIP3    H232196   6.812   0.270   7.722 -0.1578 -2.4097 -0.0238
 3521TIP3   OH232197   0.387   0.357   1.533 -0.8366  0.2360  0.1745
 3521TIP3    H132198   0.402   0.284   1.594 -1.6341  2.0370  2.7099
 3521TIP3    H232199   0.338   0.318   1.461  1.3106 -2.2868 -0.0780
 3522TIP3   OH232200   1.743   4.167   1.961  1.3553  0.1727 -0.6880
 3522TIP3    H132201   1.743   4.134   2.051  1.9255  0.8938 -0.4058
 3522TIP3    H232202   1.830   4.206   1.951  0.2618  2.9513 -0.4662
 3523TIP3   OH232203   2.849   1.189   8.679  0.3445  0.6126 -0.3001
 3523TIP3    H132204   2.937   1.181   8.716  1.1733 -0.4159 -2.3339
 3523TIP3    H232205   2.863   1.230   8.593 -0.7808 -1.8521 -1.7862
 3524TIP3   OH232206   3.053   6.586   2.464  0.4028 -0.3079 -0.0163
 3524TIP3    H132207   3.133   6.619   2.423  0.0736 -1.0295 -1.2920
 3524TIP3    H232208   3.040   6.642   2.540  1.4259  0.6350 -0.5124
 3525TIP3   OH232209   2.463   1.619   7.476 -0.4792  0.3050  0.1614
 3525TIP3    H132210   2.513   1.699   7.461  0.4924 -0.6409 -2.2024
 3525TIP3    H232211   2.529   1.550   7.480 -1.4474 -0.7870 -1.4685
 3526TIP3   OH232212   1.402   1.504   0.384  0.1679  0.5784 -0.8535
 3526TIP3    H132213   1.474   1.479   0.326  1.5385  1.5911  0.3238
 3526TIP3    H232214   1.412   1.599   0.394 -1.2565  0.7185 -0.5456
 3527TIP3   OH232215   5.032   3.718   0.783  0.2719 -0.3039 -0.2374
 3527TIP3    H132216   5.091   3.733   0.856 -0.8313  1.1715  0.3989
 3527TIP3    H232217   4.947   3.750   0.813  0.0164  1.4356 -2.5343
 3528TIP3   OH232218   5.713   1.433   7.869  0.0191 -0.1760  0.3052
 3528TIP3    H132219   5.685   1.445   7.960 -1.1570  3.0053 -0.3621
 3528TIP3    H232220   5.771   1.506   7.852 -0.0896 -0.4882 -1.6367
 3529TIP3   OH232221   0.855   5.954   1.258 -0.0692  0.1680 -0.3663
 3529TIP3    H132222   0.862   6.023   1.192  0.0411 -1.1743 -1.8164
 3529TIP3    H232223   0.887   5.876   1.214  1.8062 -0.4497  1.8787
 3530TIP3   OH232224   2.229   0.192   0.039  0.5017  0.1832 -0.0204
 3530TIP3    H132225   2.251   0.281   0.068  0.9058  0.5309 -1.3238
 3530TIP3    H232226   2.310   0.158   0.002  0.6594 -1.1753  1.4665
 3531TIP3   OH232227   2.679   6.083   7.069 -0.2141  0.0595  0.1801
 3531TIP3    H132228   2.719   6.040   6.994 -0.1293 -1.5717  1.1284
 3531TIP3    H232229   2.592   6.043   7.075 -1.0323  1.6779 -0.2675
 3532TIP3   OH232230   5.378   5.666   7.254 -0.1496  0.0659  0.4474
 3532TIP3    H132231   5.395   5.702   7.167 -0.7014 -0.7886 -0.0290
 3532TIP3    H232232   5.294   5.621   7.246  0.0753 -0.5365  1.2590
 3533TIP3   OH232233   1.206   4.674   8.433 -0.5820  0.0415 -0.7325
 3533TIP3    H132234   1.206   4.617   8.356  2.0528 -0.1889 -0.6508
 3533TIP3    H232235   1.265   4.631   8.495 -2.1160  0.5670  1.1976
 3534TIP3   OH232236   0.016   6.483   1.961 -0.1949 -0.2055  0.1720
 3534TIP3    H132237   0.011   6.578   1.949 -0.2787  0.0382  1.8736
 3534TIP3    H232238  -0.030   6.447   1.886 -3.2877  1.2049  1.2099
 3535TIP3   OH232239   3.805   5.490   7.586 -0.3258 -0.5226 -0.2096
 3535TIP3    H132240   3.737   5.454   7.529 -0.9096  0.9470 -0.4902
 3535TIP3    H232241   3.887   5.471   7.540 -0.7319 -0.0792 -1.1592
 3536TIP3   OH232242   3.772   6.176   8.439 -0.2701  0.0073 -0.4195
 3536TIP3    H132243   3.856   6.217   8.461 -0.2221  0.3132 -1.1507
 3536TIP3    H232244   3.783   6.144   8.349 -1.4764  1.5580 -1.1752
 3537TIP3   OH232245   0.174   0.094   8.003  1.1539 -0.4514  0.0584
 3537TIP3    H132246   0.143   0.131   7.920  0.7463  0.4075  0.5762
 3537TIP3    H232247   0.234   0.160   8.037 -0.7538  0.5167  1.7456
 3538TIP3   OH232248   0.139   5.215   0.133  0.3183  0.2018  0.0180
 3538TIP3    H132249   0.152   5.171   0.218 -0.9271  0.3052  0.2793
 3538TIP3    H232250   0.227   5.224   0.098  0.7506 -1.0556  0.6958
 3539TIP3   OH232251   3.130   1.146   7.332  0.0096  0.0465  0.3806
 3539TIP3    H132252   3.123   1.050   7.326 -2.3989  0.1656  0.3986
 3539TIP3    H232253   3.161   1.173   7.246  0.2292 -0.7224  0.2129
 3540TIP3   OH232254   1.352   2.895   2.683  0.1402  0.3406  0.2030
 3540TIP3    H132255   1.298   2.972   2.698  0.2107  0.5149 -0.4026
 3540TIP3    H232256   1.290   2.824   2.668  0.0748  0.3747  0.3161
 3541TIP3   OH232257   2.923   2.117   0.532 -0.0068 -0.7242 -0.1600
 3541TIP3    H132258   2.848   2.085   0.482  0.5207 -1.6851 -0.3619
 3541TIP3    H232259   2.923   2.066   0.612  0.9686 -1.4073 -0.5767
 3542TIP3   OH232260   5.357   5.387   7.570  0.3659  0.1181 -0.0487
 3542TIP3    H132261   5.382   5.295   7.577 -0.5504 -0.0922  0.6318
 3542TIP3    H232262   5.412   5.422   7.500  1.3069 -0.7422  0.2517
 3543TIP3   OH232263   0.211   1.755   0.408 -0.0897 -0.7011 -0.4327
 3543TIP3    H132264   0.175   1.779   0.323 -0.4359  0.6518  0.0647
 3543TIP3    H232265   0.303   1.738   0.391  0.0702  0.5243 -0.9357
 3544TIP3   OH232266   5.137   5.011   1.448 -0.1136 -0.6079  0.5614
 3544TIP3    H132267   5.209   5.054   1.493 -3.2729  1.8476  3.8150
 3544TIP3    H232268   5.109   4.941   1.507 -0.6539 -1.2863 -0.4506
 3545TIP3   OH232269   0.428   0.787   1.101  0.0924 -0.8380 -0.4075
 3545TIP3    H132270   0.335   0.796   1.077 -0.0733 -0.5246  0.3451
 3545TIP3    H232271   0.448   0.865   1.152  0.9255 -0.6440 -1.0075
 3546TIP3   OH232272   3.957   3.733   8.512 -0.7147 -0.0386  0.0250
 3546TIP3    H132273   3.894   3.792   8.555  0.2191  0.1251  1.2267
 3546TIP3    H232274   4.013   3.791   8.461  0.3581  0.1979  1.4012
 3547TIP3   OH232275   0.973   3.905   1.742  0.5553 -0.1015 -0.4429
 3547TIP3    H132276   0.926   3.892   1.660 -2.0915  0.7362  0.8330
 3547TIP3    H232277   0.913   3.875   1.810  2.9391 -1.4695  1.2360
 3548TIP3   OH232278   3.604   2.003   0.857  0.2343  0.0833  0.4616
 3548TIP3    H132279   3.604   2.081   0.913  1.9686  0.6541 -0.2737
 3548TIP3    H232280   3.694   1.972   0.858  0.0687 -0.5622 -1.0797
 3549TIP3   OH232281   1.421   5.183   8.647  0.3466 -0.0018 -0.3843
 3549TIP3    H132282   1.364   5.260   8.651  0.2659 -0.0503 -0.6288
 3549TIP3    H232283   1.448   5.169   8.738 -1.5068 -1.1042  0.0561
 3550TIP3   OH232284   4.417   0.312   8.496 -0.2020  0.4741  0.7882
 3550TIP3    H132285   4.458   0.250   8.556  0.3168 -0.1472 -0.1884
 3550TIP3    H232286   4.427   0.397   8.539  1.1523  0.1903  1.0760
 3551TIP3   OH232287   1.495   5.848   7.953  0.0505 -0.0850  0.1062
 3551TIP3    H132288   1.473   5.883   7.867  0.7490 -0.7552 -0.3504
 3551TIP3    H232289   1.579   5.888   7.975 -0.5307  0.7748  0.8918
 3552TIP3   OH232290   1.232   2.977   0.704  0.0445  0.1338  0.3535
 3552TIP3    H132291   1.282   3.041   0.754 -1.2439 -0.5870  2.7234
 3552TIP3    H232292   1.168   3.029   0.655  1.7417  0.9019 -1.1600
 3553TIP3   OH232293   0.988   6.443   8.415 -0.1973  0.3346  0.0984
 3553TIP3    H132294   1.020   6.448   8.325  2.7117 -1.0373  0.9167
 3553TIP3    H232295   0.934   6.364   8.416  0.2544  0.0091 -0.3477
 3554TIP3   OH232296   6.740   3.394   7.433  0.0983 -0.3986  0.8296
 3554TIP3    H132297   6.725   3.450   7.356  0.3901 -1.1061  0.2425
 3554TIP3    H232298   6.748   3.455   7.506 -3.6985  0.2055  0.9419
 3555TIP3   OH232299   1.152   3.018   8.558  0.2785  0.3484 -0.1933
 3555TIP3    H132300   1.212   2.953   8.521  0.0082 -0.1231  0.1725
 3555TIP3    H232301   1.124   3.071   8.484  0.3290 -0.1045 -0.5378
 3556TIP3   OH232302   2.538   6.852   8.094 -0.1467  0.2125  0.8464
 3556TIP3    H132303   2.611   6.802   8.057  1.7200  3.0190  0.4876
 3556TIP3    H232304   2.468   6.843   8.029  1.7239  1.7828 -1.5735
 3557TIP3   OH232305   4.424   5.485   6.298 -0.1075  0.0081  0.3457
 3557TIP3    H132306   4.456   5.396   6.283  1.4027  0.8862 -2.4715
 3557TIP3    H232307   4.486   5.522   6.360 -0.1847 -0.5905  0.7944
 3558TIP3   OH232308   3.749   4.402   8.457  0.0877 -0.2931  0.4404
 3558TIP3    H132309   3.671   4.456   8.443  0.0463 -0.3857  0.3145
 3558TIP3    H232310   3.758   4.352   8.377  1.3691  1.0812 -0.3347
 3559TIP3   OH232311   2.751   5.794   7.840 -0.2746  0.6962 -0.1352
 3559TIP3    H132312   2.714   5.874   7.878 -0.8735  1.1475 -1.5959
 3559TIP3    H232313   2.684   5.764   7.779 -0.4171 -1.4081  0.9845
 3560TIP3   OH232314   6.226   0.611   7.429 -0.4461  0.4480 -0.4969
 3560TIP3    H132315   6.310   0.606   7.383 -0.1982  0.4565 -0.0494
 3560TIP3    H232316   6.180   0.684   7.388 -0.4979  0.0453 -1.1739
 3561TIP3   OH232317   1.237   2.126   7.123 -0.5693 -0.0980  0.8494
 3561TIP3    H132318   1.175   2.193   7.097  0.0814  0.7984  1.5506
 3561TIP3    H232319   1.323   2.164   7.105 -0.2047 -1.2481  0.0662
 3562TIP3   OH232320   3.799   2.379   0.206  0.3199  0.3192  0.4396
 3562TIP3    H132321   3.740   2.329   0.263  0.4521 -0.1615  0.1634
 3562TIP3    H232322   3.763   2.367   0.118 -1.3603  3.1167  0.6277
 3563TIP3   OH232323   4.227   2.386   1.868 -0.1439  0.0679  0.2944
 3563TIP3    H132324   4.178   2.450   1.920  1.2037  1.7084 -0.3636
 3563TIP3    H232325   4.165   2.357   1.801 -1.0243  0.0301  1.1004
 3564TIP3   OH232326   5.683   2.554   7.853 -0.1293  0.2984 -0.4543
 3564TIP3    H132327   5.690   2.647   7.829 -0.6147  0.0105 -1.8131
 3564TIP3    H232328   5.747   2.511   7.797 -0.2065 -0.2420 -0.1257
 3565TIP3   OH232329   3.544   4.607   7.315 -0.4793 -0.2639  0.6121
 3565TIP3    H132330   3.557   4.622   7.222  0.3537  2.1570  1.0418
 3565TIP3    H232331   3.603   4.536   7.337 -2.3758 -2.4988 -1.0802
 3566TIP3   OH232332   2.370   6.782   2.285 -0.1227  0.4304  0.0561
 3566TIP3    H132333   2.328   6.772   2.371  0.7286 -0.5058  0.3847
 3566TIP3    H232334   2.336   6.708   2.234  1.4850 -0.6396  0.4903
 3567TIP3   OH232335   0.842   3.637   0.400  0.0039  0.0488 -0.2181
 3567TIP3    H132336   0.861   3.551   0.362  0.7303  0.0200  0.2041
 3567TIP3    H232337   0.928   3.673   0.421 -0.2651  1.0993 -0.8593
 3568TIP3   OH232338   5.820   1.311   0.275 -0.2575 -0.4825 -0.1191
 3568TIP3    H132339   5.773   1.383   0.318 -0.7026  0.6418 -2.3271
 3568TIP3    H232340   5.779   1.304   0.188  1.4187 -1.7642 -0.8679
 3569TIP3   OH232341   2.431   5.462   0.848  0.0883  0.0578 -0.2490
 3569TIP3    H132342   2.497   5.409   0.802  0.0791  0.4489 -0.7239
 3569TIP3    H232343   2.361   5.473   0.784 -0.7609 -0.9376  0.4874
 3570TIP3   OH232344   3.590   5.304   1.946 -0.3470  0.2123  0.1654
 3570TIP3    H132345   3.548   5.236   1.893  0.7384  0.0916 -0.5588
 3570TIP3    H232346   3.614   5.259   2.027  1.9905 -0.7987 -1.0030
 3571TIP3   OH232347   3.020   4.497   8.650 -0.4932 -0.1399  1.7727
 3571TIP3    H132348   3.076   4.549   8.708 -1.1966  0.8232  1.6203
 3571TIP3    H232349   3.035   4.407   8.677  1.9672 -0.0422  1.0066
 3572TIP3   OH232350   5.641   3.695   1.069  0.1265  0.2763  0.3996
 3572TIP3    H132351   5.650   3.727   1.159  2.3843 -0.1787  0.3859
 3572TIP3    H232352   5.712   3.736   1.021 -0.8889  0.3043 -1.1529
 3573TIP3   OH232353   6.417   1.015   7.401  0.1999 -0.3063 -0.0816
 3573TIP3    H132354   6.323   1.018   7.421  0.1712 -0.4714 -0.1846
 3573TIP3    H232355   6.454   1.091   7.445  0.0164 -0.2421 -0.0391
 3574TIP3   OH232356   4.811   6.551   0.946  0.2696  0.2355 -0.0634
 3574TIP3    H132357   4.794   6.475   0.891  0.3472  0.6162 -0.6179
 3574TIP3    H232358   4.826   6.514   1.033  0.1586 -0.3702 -0.2939
 3575TIP3   OH232359   1.241   5.194   2.046 -0.0884 -0.4233  0.2657
 3575TIP3    H132360   1.180   5.267   2.031  2.2724  1.5902 -0.2749
 3575TIP3    H232361   1.264   5.165   1.958  1.1270  0.1303  0.3864
 3576TIP3   OH232362   3.500   0.397   2.630  0.4770 -0.6473  0.0522
 3576TIP3    H132363   3.567   0.331   2.646  1.5254 -0.1350 -1.8531
 3576TIP3    H232364   3.538   0.478   2.661  0.7412 -0.3682 -0.9539
 3577TIP3   OH232365   6.055   6.585   8.456 -0.3864  0.4954  0.3298
 3577TIP3    H132366   5.984   6.633   8.501 -0.5908  1.0003 -0.5107
 3577TIP3    H232367   6.053   6.619   8.367  0.6811  0.2365  0.2027
 3578TIP3   OH232368   4.554   4.434   8.632  0.0731  0.0455 -0.2599
 3578TIP3    H132369   4.536   4.510   8.577 -0.5601 -0.1044 -0.2646
 3578TIP3    H232370   4.596   4.471   8.710  0.5860  0.3019 -0.6484
 3579TIP3   OH232371   4.267   2.209   0.199  0.7094  0.1153 -0.1745
 3579TIP3    H132372   4.325   2.230   0.127 -0.5448  0.3162 -1.1696
 3579TIP3    H232373   4.289   2.272   0.268  0.5777  1.2481 -1.1441
 3580TIP3   OH232374   3.095   1.198   0.096 -0.2316  0.6065 -0.2941
 3580TIP3    H132375   3.190   1.198   0.089 -0.0525  0.5996  1.6936
 3580TIP3    H232376   3.074   1.272   0.152 -1.3739  0.3117 -0.3001
 3581TIP3   OH232377   4.047   1.541   1.833 -1.0504  0.0490 -0.3571
 3581TIP3    H132378   4.004   1.610   1.781  1.5278  1.8269 -0.3189
 3581TIP3    H232379   4.051   1.577   1.921  1.6500  0.6157 -0.6321
 3582TIP3   OH232380   0.647   6.496   8.718 -0.2965 -0.8675  0.6562
 3582TIP3    H132381   0.687   6.410   8.702 -0.6264 -0.8939 -0.0696
 3582TIP3    H232382   0.715   6.559   8.694 -0.7247 -0.9090 -0.7586
 3583TIP3   OH232383   2.550   3.527   1.147  0.0591  0.4167  0.4052
 3583TIP3    H132384   2.490   3.573   1.206 -1.7594 -0.3824 -0.7001
 3583TIP3    H232385   2.545   3.576   1.065 -0.8656 -0.9156 -0.3725
 3584TIP3   OH232386   1.698   4.879   1.573  0.5163  0.4512 -0.3357
 3584TIP3    H132387   1.681   4.786   1.559  1.2410  0.5215 -1.9960
 3584TIP3    H232388   1.671   4.896   1.663  0.8758 -1.4781  0.1769
 3585TIP3   OH232389   2.156   3.042   7.828 -0.5648 -0.0714 -0.4042
 3585TIP3    H132390   2.114   2.987   7.762 -2.8247 -3.4612  3.4069
 3585TIP3    H232391   2.219   2.983   7.871  0.1787  1.7040  1.0800
 3586TIP3   OH232392   2.846   0.186   2.151  0.1054  0.3142  0.0161
 3586TIP3    H132393   2.877   0.189   2.241  0.6014  2.2770 -0.1937
 3586TIP3    H232394   2.751   0.174   2.159  0.1978  0.0294  0.7749
 3587TIP3   OH232395   6.072   2.190   0.265  0.1326 -0.2195 -0.2676
 3587TIP3    H132396   6.034   2.263   0.215 -0.8264 -0.4559  0.1042
 3587TIP3    H232397   6.164   2.189   0.238  0.9226  2.8975  1.7268
 3588TIP3   OH232398   4.713   1.259   0.737  0.7528  0.4961  0.2202
 3588TIP3    H132399   4.713   1.210   0.654 -1.5464 -1.3964  1.2235
 3588TIP3    H232400   4.700   1.350   0.711 -2.2999 -0.2963 -1.5187
 3589TIP3   OH232401   2.797   1.263   1.131 -0.2618  0.5712 -0.4954
 3589TIP3    H132402   2.870   1.325   1.138 -0.9404  1.5416 -1.5758
 3589TIP3    H232403   2.839   1.178   1.116  0.6565  0.9773 -0.2998
 3590TIP3   OH232404   2.490   6.014   0.171 -0.2482 -0.1317  0.4076
 3590TIP3    H132405   2.488   5.944   0.106  2.6177  0.1063 -0.0694
 3590TIP3    H232406   2.404   6.056   0.164  0.1881  0.4852 -3.9434
 3591TIP3   OH232407   0.329   0.378   8.424  0.4164 -0.1281  0.3144
 3591TIP3    H132408   0.285   0.319   8.485  0.5699 -1.1330 -0.5292
 3591TIP3    H232409   0.422   0.357   8.434  0.4016 -0.7820 -0.7235
 3592TIP3   OH232410   5.245   2.774   7.850  0.2548 -0.2312 -0.4573
 3592TIP3    H132411   5.208   2.762   7.938  1.8764  0.1989  0.3163
 3592TIP3    H232412   5.324   2.719   7.850  0.6758  0.3585 -1.3851
 3593TIP3   OH232413   5.153   0.212   2.188 -0.0173  0.2856 -0.4313
 3593TIP3    H132414   5.104   0.257   2.119 -1.1934  0.9519  0.7933
 3593TIP3    H232415   5.149   0.271   2.263  1.8664 -0.0877  0.0154
 3594TIP3   OH232416   4.250   0.387   0.873 -0.0974 -0.3305 -0.3167
 3594TIP3    H132417   4.280   0.297   0.875 -1.9459 -0.9879 -0.6596
 3594TIP3    H232418   4.240   0.411   0.966 -2.7878 -1.6600 -0.1621
 3595TIP3   OH232419   5.017   2.691   1.787  0.2076 -0.3109 -0.5955
 3595TIP3    H132420   5.074   2.765   1.809  1.6316 -0.9544 -1.9322
 3595TIP3    H232421   5.077   2.624   1.753 -1.2904 -1.2484 -1.4951
 3596TIP3   OH232422   3.698   3.660   8.680  0.5260 -0.3616 -0.2383
 3596TIP3    H132423   3.724   3.568   8.679  2.3257  0.1236 -0.5876
 3596TIP3    H232424   3.756   3.702   8.743  2.2577  1.1725 -2.6836
 3597TIP3   OH232425   3.187   3.996   8.238 -0.2132 -0.1394  0.6325
 3597TIP3    H132426   3.111   4.042   8.275 -0.8067  0.6367 -1.3932
 3597TIP3    H232427   3.262   4.030   8.287 -1.1013 -0.6498  2.4260
 3598TIP3   OH232428   0.247   2.066   0.050  0.7311  0.1164  0.1869
 3598TIP3    H132429   0.154   2.063   0.071  0.9266  0.0140  1.0790
 3598TIP3    H232430   0.256   2.140  -0.010  0.2307  0.8490  0.9819
 3599TIP3   OH232431   4.627   1.395   1.727 -0.1288 -0.1428  0.4327
 3599TIP3    H132432   4.714   1.399   1.766  0.2451  0.9989 -0.4571
 3599TIP3    H232433   4.567   1.400   1.802  0.5361  3.3515  0.9355
 3600TIP3   OH232434   6.313   0.115   1.089 -0.2938  0.4023  0.6184
 3600TIP3    H132435   6.266   0.178   1.145 -0.6395 -0.6091  1.4947
 3600TIP3    H232436   6.403   0.121   1.119 -0.1481  1.1314  0.0715
 3601TIP3   OH232437   3.134   5.896   1.577  0.6428 -0.2035  0.1028
 3601TIP3    H132438   3.082   5.816   1.586 -0.3837  0.5477  1.2048
 3601TIP3    H232439   3.069   5.964   1.560  1.6795  0.0563 -3.6812
 3602TIP3   OH232440   4.988   3.168   0.804 -0.3057  0.0096  0.4362
 3602TIP3    H132441   5.035   3.249   0.785  0.2413  0.1420  2.1594
 3602TIP3    H232442   4.901   3.181   0.765  0.2965  0.7421 -0.7096
 3603TIP3   OH232443   0.406   0.325   6.829 -0.6931  0.4696  0.6549
 3603TIP3    H132444   0.320   0.347   6.792 -0.8304  0.6190  1.0618
 3603TIP3    H232445   0.468   0.365   6.769 -0.8514 -1.0783 -0.6158
 3604TIP3   OH232446   4.185   1.920   0.310  0.0308 -0.0291 -1.2738
 3604TIP3    H132447   4.220   1.861   0.243  0.8409  0.5012 -1.3319
 3604TIP3    H232448   4.194   2.008   0.271  0.1750  0.2522 -0.6100
 3605TIP3   OH232449   2.582   0.779   7.052 -0.0724  0.0820  0.0484
 3605TIP3    H132450   2.545   0.753   6.968  0.6663  0.7138 -0.4853
 3605TIP3    H232451   2.676   0.765   7.042  0.0897  0.7597  0.5520
 3606TIP3   OH232452   1.105   2.559   0.531  0.2014  0.1471 -0.0477
 3606TIP3    H132453   1.174   2.536   0.469  0.5818  0.2772  0.3162
 3606TIP3    H232454   1.152   2.599   0.604 -0.4554  3.0737 -1.0738
 3607TIP3   OH232455   5.108   5.768   6.952  0.7670 -0.9138 -0.2757
 3607TIP3    H132456   5.016   5.748   6.969  0.6003 -1.2306 -1.4361
 3607TIP3    H232457   5.130   5.715   6.875  1.5506  0.1159 -0.7897
 3608TIP3   OH232458   3.059   4.136   7.822 -0.1849  0.3923 -0.0594
 3608TIP3    H132459   3.072   4.060   7.878 -0.3454 -0.0837 -0.6603
 3608TIP3    H232460   3.034   4.100   7.737 -0.8206  1.1279 -0.2026
 3609TIP3   OH232461   6.149   1.021   7.386 -0.2299 -0.0618  0.4135
 3609TIP3    H132462   6.112   1.081   7.321  0.6261  0.1964  0.1578
 3609TIP3    H232463   6.119   0.935   7.358 -0.2159  0.0906 -0.0866
 3610TIP3   OH232464   1.872   2.571   8.211  0.3962 -0.4270 -0.2516
 3610TIP3    H132465   1.858   2.665   8.196 -2.2106 -0.6854  0.0630
 3610TIP3    H232466   1.903   2.538   8.127  2.0235  0.7849 -0.1832
 3611TIP3   OH232467   4.898   5.444   7.219  0.0311 -0.2203 -0.1421
 3611TIP3    H132468   4.878   5.353   7.197  0.5318 -0.1864 -0.7666
 3611TIP3    H232469   4.854   5.459   7.302  0.3665 -1.1870  0.2201
 3612TIP3   OH232470   0.349   5.264   0.793  0.0626 -0.9725  0.1920
 3612TIP3    H132471   0.276   5.296   0.739  1.1818 -2.1638 -2.1541
 3612TIP3    H232472   0.321   5.283   0.883 -1.7965  1.3361 -0.7428
 3613TIP3   OH232473   4.930   4.818   0.470 -0.2650 -0.0999  0.3535
 3613TIP3    H132474   4.922   4.864   0.387 -0.4426 -2.0033 -0.7380
 3613TIP3    H232475   4.965   4.732   0.447 -0.2991 -0.6685  2.2492
 3614TIP3   OH232476   2.426   4.590   1.381 -0.3422 -0.3608 -0.2340
 3614TIP3    H132477   2.441   4.669   1.329  0.2049  0.4522  1.1213
 3614TIP3    H232478   2.344   4.555   1.347 -1.0536  1.2660 -0.2879
 3615TIP3   OH232479   1.972   0.403   7.203 -0.1410 -0.5210  0.4559
 3615TIP3    H132480   1.967   0.363   7.116 -0.6538 -1.2183  0.7939
 3615TIP3    H232481   2.063   0.433   7.211 -0.3107  0.2984 -0.6359
 3616TIP3   OH232482   3.765   2.567   1.472  0.6528  0.0692  0.1245
 3616TIP3    H132483   3.814   2.534   1.547  1.2609  0.4389 -0.0960
 3616TIP3    H232484   3.759   2.492   1.412  1.2094  0.0945  0.0310
 3617TIP3   OH232485   4.310   3.539   7.490 -0.3053 -0.0658 -0.8199
 3617TIP3    H132486   4.289   3.448   7.471  0.5324 -0.3673 -0.3249
 3617TIP3    H232487   4.308   3.582   7.404 -1.1516 -0.4366 -1.0073
 3618TIP3   OH232488   5.685   3.325   1.784  0.2314  0.1805 -0.5767
 3618TIP3    H132489   5.740   3.331   1.862 -0.3052 -0.0509 -0.1753
 3618TIP3    H232490   5.682   3.414   1.749  0.3127  0.3230 -0.2200
 3619TIP3   OH232491   2.661   0.391   8.636  0.6089 -0.2522  0.4436
 3619TIP3    H132492   2.590   0.450   8.610  0.4565 -0.7547 -0.3086
 3619TIP3    H232493   2.621   0.304   8.639  1.2204 -0.5703 -0.1669
 3620TIP3   OH232494   0.009   1.180   1.235 -1.1926  0.0421 -0.6372
 3620TIP3    H132495  -0.074   1.133   1.226 -0.6309 -1.1033 -0.1635
 3620TIP3    H232496  -0.015   1.272   1.240 -2.2952 -0.1201 -2.2507
 3621TIP3   OH232497   2.278   3.903   8.228 -0.1543  0.1940  0.3972
 3621TIP3    H132498   2.303   3.976   8.171 -0.9183 -0.8171 -1.3198
 3621TIP3    H232499   2.183   3.913   8.238 -0.4586 -1.1567 -0.8112
 3622TIP3   OH232500   4.102   2.060   1.061 -0.2236  0.2761  0.2848
 3622TIP3    H132501   4.106   1.967   1.082  0.4818  0.0512 -0.7594
 3622TIP3    H232502   4.021   2.070   1.011 -0.3468  0.2469  0.4766
 3623TIP3   OH232503   2.743   2.447   2.070  0.2815 -0.0105 -0.1001
 3623TIP3    H132504   2.766   2.462   2.162 -1.1273  0.2169  0.2357
 3623TIP3    H232505   2.774   2.526   2.025 -3.1047  2.1266  0.9646
 3624TIP3   OH232506   3.826   5.218   7.363  0.2690  0.4386  0.3541
 3624TIP3    H132507   3.844   5.202   7.271 -0.0314 -1.3737  0.5625
 3624TIP3    H232508   3.893   5.281   7.391 -0.9983  2.7880 -1.5788
 3625TIP3   OH232509   2.360   3.168   0.072  0.0442  0.5055  0.0776
 3625TIP3    H132510   2.454   3.163   0.087 -0.0475 -0.0281  0.4914
 3625TIP3    H232511   2.321   3.118   0.143 -0.5721  0.9757  0.0820
 3626TIP3   OH232512   4.536   3.117   8.717 -0.2166  0.4307 -0.0036
 3626TIP3    H132513   4.479   3.042   8.730 -0.3542  0.6463  0.6605
 3626TIP3    H232514   4.561   3.145   8.805  0.7082  0.5017 -0.2714
 3627TIP3   OH232515   1.242   4.188   6.989  0.2617 -0.1959  0.3920
 3627TIP3    H132516   1.207   4.270   7.026 -0.6897 -0.7905  0.8336
 3627TIP3    H232517   1.170   4.126   6.996 -0.0706 -0.2834 -2.7424
 3628TIP3   OH232518   4.446   4.681   1.830  0.0551  0.1116  0.8120
 3628TIP3    H132519   4.524   4.628   1.812  0.1769  0.0901  1.3777
 3628TIP3    H232520   4.389   4.622   1.880 -0.4727  0.0162  0.1105
 3629TIP3   OH232521   1.317   5.134   1.774  0.0135 -0.1667  0.1704
 3629TIP3    H132522   1.298   5.221   1.739  0.2070  0.0294  0.5426
 3629TIP3    H232523   1.392   5.104   1.722 -0.6483 -0.5084 -0.5944
 3630TIP3   OH232524   0.173   0.467   8.220  0.2516  0.2901  0.0201
 3630TIP3    H132525   0.233   0.514   8.163 -0.1208 -0.0708 -0.6965
 3630TIP3    H232526   0.224   0.447   8.298  2.6479 -3.8391 -2.1946
 3631TIP3   OH232527   0.498   6.086   7.771 -0.3473 -0.0482  0.1248
 3631TIP3    H132528   0.425   6.086   7.709 -1.5515  0.2470  1.4767
 3631TIP3    H232529   0.460   6.056   7.853  0.4593  2.3907  1.5102
 3632TIP3   OH232530   2.891   5.519   0.212 -0.3774 -0.3381 -0.2203
 3632TIP3    H132531   2.956   5.587   0.229 -1.3921  0.4377  0.7028
 3632TIP3    H232532   2.915   5.448   0.271 -1.2714  0.5853  1.3170
 3633TIP3   OH232533   3.171   4.442   0.619  0.8089 -0.1068  0.3181
 3633TIP3    H132534   3.265   4.430   0.602  1.1733  1.6743  0.8690
 3633TIP3    H232535   3.140   4.355   0.642  2.5047 -0.5842  0.9709
 3634TIP3   OH232536   4.577   3.897   2.541  0.1682  0.3654 -0.3217
 3634TIP3    H132537   4.643   3.883   2.473  0.2248 -1.3930  0.0511
 3634TIP3    H232538   4.494   3.896   2.494  0.1684 -1.4060 -0.3453
 3635TIP3   OH232539   1.809   5.941   7.903  0.3720 -0.0362 -0.6615
 3635TIP3    H132540   1.765   5.971   7.824 -0.4285 -1.7068 -0.8943
 3635TIP3    H232541   1.786   6.007   7.969 -0.2042  0.5688 -1.4394
 3636TIP3   OH232542   4.527   1.953   7.106  0.2647 -0.2543  0.4258
 3636TIP3    H132543   4.463   1.978   7.039  0.2365 -0.4128  0.3932
 3636TIP3    H232544   4.592   2.024   7.105  0.1941 -0.1909  0.3231
 3637TIP3   OH232545   3.771   2.385   2.061 -0.3232  0.4350 -0.1809
 3637TIP3    H132546   3.747   2.470   2.098 -0.5084  0.8457 -1.2156
 3637TIP3    H232547   3.688   2.337   2.055 -0.2026  0.1299  0.5086
 3638TIP3   OH232548   1.565   2.649   1.470 -0.0451  0.2973  0.1476
 3638TIP3    H132549   1.480   2.691   1.464  0.2690  0.9405  0.0900
 3638TIP3    H232550   1.586   2.650   1.564  0.3743  1.1168  0.0497
 3639TIP3   OH232551   6.769   2.674   2.732  0.0469 -0.6722  0.0967
 3639TIP3    H132552   6.703   2.719   2.678  1.3151 -2.9778 -3.8077
 3639TIP3    H232553   6.809   2.743   2.784 -2.5176  1.4949 -0.5860
 3640TIP3   OH232554   0.934   6.716   1.082  0.1085  0.0662  0.0039
 3640TIP3    H132555   0.991   6.650   1.043 -0.7444 -1.3058  1.0020
 3640TIP3    H232556   0.936   6.697   1.176 -1.2491  0.5865  0.1518
 3641TIP3   OH232557   3.229   1.403   0.817 -0.0346 -0.1364  0.1544
 3641TIP3    H132558   3.187   1.370   0.737  1.5852 -0.9177 -0.4166
 3641TIP3    H232559   3.256   1.324   0.863 -0.0982  0.3370  1.0206
 3642TIP3   OH232560   0.093   1.194   7.459 -0.0856  0.1006  0.2575
 3642TIP3    H132561   0.046   1.128   7.511 -0.8692  1.1637  0.9493
 3642TIP3    H232562   0.167   1.220   7.514 -0.0274  0.1102  0.1749
 3643TIP3   OH232563   6.612   2.624   8.224 -0.3785  0.1177  0.5271
 3643TIP3    H132564   6.541   2.629   8.160  0.0188 -2.4839 -0.2419
 3643TIP3    H232565   6.679   2.684   8.191 -0.4731 -0.6425 -1.1657
 3644TIP3   OH232566   1.988   5.727   7.278 -0.2780 -0.3741 -0.3400
 3644TIP3    H132567   1.948   5.799   7.229 -0.6324 -0.5105 -0.2485
 3644TIP3    H232568   1.920   5.660   7.283 -1.1771  0.6248  2.5360
 3645TIP3   OH232569   2.014   5.986   1.133  0.9123 -0.3363  0.1092
 3645TIP3    H132570   2.050   5.988   1.222  3.3373  0.0187 -0.7981
 3645TIP3    H232571   2.049   5.905   1.095  0.8279  0.0754 -0.8735
 3646TIP3   OH232572   5.473   5.010   6.353 -0.2329 -0.2764  0.4303
 3646TIP3    H132573   5.564   5.011   6.323 -0.3789  0.0064 -0.0149
 3646TIP3    H232574   5.431   4.942   6.299 -0.4701  0.1490  0.0744
 3647TIP3   OH232575   5.930   2.287   2.220  0.2089  0.3168 -0.2678
 3647TIP3    H132576   6.008   2.274   2.167  1.0211  1.3194  0.6462
 3647TIP3    H232577   5.924   2.382   2.232 -0.1536  0.1451  1.1037
 3648TIP3   OH232578   2.811   3.612   1.177  0.7414  0.4252  0.4271
 3648TIP3    H132579   2.717   3.614   1.163  0.6316 -0.4327  0.9617
 3648TIP3    H232580   2.836   3.703   1.189  0.1766  0.7731 -0.9156
 3649TIP3   OH232581   3.558   4.945   2.096 -0.1793 -0.0055 -0.7100
 3649TIP3    H132582   3.566   5.011   2.165  1.5832  0.2989 -1.1555
 3649TIP3    H232583   3.648   4.933   2.064 -0.5204 -2.3168 -0.9369
 3650TIP3   OH232584   6.215   5.297   6.888 -0.1773  0.2236  0.2582
 3650TIP3    H132585   6.208   5.201   6.886  1.2571  0.0328  1.8617
 3650TIP3    H232586   6.266   5.320   6.811 -0.8571 -0.2357 -0.3474
 3651TIP3   OH232587   3.028   3.461   1.468 -0.2185  0.1519  0.2497
 3651TIP3    H132588   2.982   3.417   1.397  1.3333  0.2392 -0.8613
 3651TIP3    H232589   3.025   3.554   1.444  0.9582  0.1088 -0.1266
 3652TIP3   OH232590   6.216   0.873   7.605  0.4841  0.1254  0.0224
 3652TIP3    H132591   6.161   0.913   7.537  1.0144 -0.5225 -0.8076
 3652TIP3    H232592   6.189   0.781   7.606  0.1861  0.2079  1.0044
 3653TIP3   OH232593   0.409   0.700   0.148  0.2184  0.5463 -0.6753
 3653TIP3    H132594   0.396   0.633   0.215  0.8791  1.3935  0.3316
 3653TIP3    H232595   0.368   0.664   0.070 -0.1018 -0.7002  0.0416
 3654TIP3   OH232596   5.671   4.109   1.295  0.9323  0.1626  0.0326
 3654TIP3    H132597   5.579   4.095   1.316  0.9876 -0.8195 -0.3229
 3654TIP3    H232598   5.670   4.184   1.234  0.6593  2.0917  2.2594
 3655TIP3   OH232599   0.994   3.037   1.775 -0.1182  0.3645  0.0554
 3655TIP3    H132600   1.009   3.104   1.841  0.5094 -0.1223  0.4140
 3655TIP3    H232601   0.990   2.955   1.824  0.3030  0.0052 -0.4992
 3656TIP3   OH232602   3.169   1.705   1.440  0.2635  0.0818 -0.5272
 3656TIP3    H132603   3.192   1.622   1.482 -2.3493 -1.1612 -1.3812
 3656TIP3    H232604   3.208   1.700   1.353 -1.0114 -0.8955 -1.0670
 3657TIP3   OH232605   5.749   5.759   0.767 -0.4888 -0.3226 -0.3688
 3657TIP3    H132606   5.703   5.682   0.733  0.1148 -0.4323 -0.9608
 3657TIP3    H232607   5.834   5.725   0.796 -0.5434 -0.0207  0.1675
 3658TIP3   OH232608   5.776   1.520   8.466 -0.2749 -0.0633 -0.0330
 3658TIP3    H132609   5.823   1.508   8.384  0.1926  0.2209  0.1956
 3658TIP3    H232610   5.800   1.607   8.496 -1.0518  0.1414  0.0192
 3659TIP3   OH232611   5.123   0.748   7.886  0.0927 -0.1237 -0.1794
 3659TIP3    H132612   5.102   0.755   7.792 -0.7568  0.1271  0.0131
 3659TIP3    H232613   5.145   0.838   7.912  3.0702 -0.6017 -0.7040
 3660TIP3   OH232614   0.039   0.726   0.394  0.4438  0.5292 -0.1642
 3660TIP3    H132615   0.114   0.778   0.424  0.6715  1.7672 -2.6327
 3660TIP3    H232616  -0.037   0.783   0.408  0.5517  1.1196 -1.7749
 3661TIP3   OH232617   1.360   3.637   0.900  0.2079 -0.2732  0.6966
 3661TIP3    H132618   1.386   3.634   0.808  1.4889 -2.8021  1.0520
 3661TIP3    H232619   1.441   3.660   0.947 -0.1904 -0.0313  1.2789
 3662TIP3   OH232620   2.174   5.409   1.923 -0.2013 -0.3648  0.3772
 3662TIP3    H132621   2.256   5.393   1.969 -0.6525 -2.4553  0.5598
 3662TIP3    H232622   2.106   5.377   1.982 -1.1948  1.2796  0.2067
 3663TIP3   OH232623   5.456   3.304   2.190 -0.2478 -0.2869  0.0629
 3663TIP3    H132624   5.411   3.230   2.232 -0.4679  0.8822  2.0035
 3663TIP3    H232625   5.509   3.342   2.259  2.4092 -0.5204 -1.7050
 3664TIP3   OH232626   6.256   3.373   0.547  0.0845 -0.0487  0.0435
 3664TIP3    H132627   6.163   3.352   0.539 -0.0103  0.8170 -1.5694
 3664TIP3    H232628   6.278   3.351   0.637 -1.7002 -0.1976  0.4799
 3665TIP3   OH232629   4.367   5.303   0.164 -0.0104  0.0212 -0.0310
 3665TIP3    H132630   4.275   5.326   0.155 -0.0247 -0.1131 -0.2031
 3665TIP3    H232631   4.391   5.264   0.081  0.4372  0.8795 -0.3172
 3666TIP3   OH232632   1.365   2.474   1.658 -0.5284  0.1403 -0.1251
 3666TIP3    H132633   1.361   2.418   1.581 -2.1049  0.4476 -0.2877
 3666TIP3    H232634   1.412   2.422   1.723  0.5990 -0.2172 -1.1908
 3667TIP3   OH232635   1.090   6.457   7.504 -0.1269 -0.0045  0.0855
 3667TIP3    H132636   1.124   6.392   7.441 -1.5541  0.5850 -1.3452
 3667TIP3    H232637   1.063   6.531   7.450 -0.3841  0.9871  1.5203
 3668TIP3   OH232638   4.526   2.614   8.721  0.2911  0.2800 -0.2827
 3668TIP3    H132639   4.441   2.581   8.750  0.9356  0.5496  2.1899
 3668TIP3    H232640   4.589   2.566   8.774  1.7179  0.1376 -2.0154
 3669TIP3   OH232641   1.235   6.764   8.597 -0.1508 -0.3659  0.0520
 3669TIP3    H132642   1.229   6.680   8.552  2.3443 -0.2523 -0.6659
 3669TIP3    H232643   1.194   6.748   8.682  0.0500 -2.2518 -0.1511
 3670TIP3   OH232644   5.482   1.587   1.442  0.0339 -0.4007  0.1726
 3670TIP3    H132645   5.404   1.634   1.412  1.9207  2.7401 -0.2613
 3670TIP3    H232646   5.554   1.649   1.430  2.7172 -3.2313  0.2474
 3671TIP3   OH232647   2.554   0.647   2.593 -0.1274 -0.1732 -0.2799
 3671TIP3    H132648   2.634   0.695   2.615  0.9524 -1.1062 -1.9756
 3671TIP3    H232649   2.485   0.714   2.596  0.8571  0.8619  0.2514
 3672TIP3   OH232650   3.894   6.463   1.630 -0.0576  0.2518 -0.3540
 3672TIP3    H132651   3.837   6.417   1.568  0.0014  2.4058 -2.1229
 3672TIP3    H232652   3.833   6.509   1.688 -0.1145  0.1207 -0.3093
 3673TIP3   OH232653   5.030   5.099   8.520 -0.1505 -0.4680 -0.1957
 3673TIP3    H132654   4.975   5.154   8.575 -0.4755  1.6795 -2.4905
 3673TIP3    H232655   4.982   5.091   8.437  2.2212  0.2035 -1.7589
 3674TIP3   OH232656   1.701   5.358   2.224 -0.3166 -0.5017 -0.6753
 3674TIP3    H132657   1.726   5.417   2.153  1.4600 -0.9936 -0.5291
 3674TIP3    H232658   1.778   5.303   2.237 -0.6739 -0.6052  1.4446
 3675TIP3   OH232659   6.862   3.397   1.877 -0.0012  0.1114 -0.5471
 3675TIP3    H132660   6.824   3.404   1.964 -3.7401 -0.4486 -1.9586
 3675TIP3    H232661   6.892   3.306   1.870  0.6235  0.2461  0.1911
 3676TIP3   OH232662   0.809   6.379   1.639 -0.5190  0.0103 -0.6683
 3676TIP3    H132663   0.883   6.434   1.664 -0.0151 -0.7957 -0.3628
 3676TIP3    H232664   0.837   6.337   1.557 -1.3485  1.0481 -1.5241
 3677TIP3   OH232665   2.569   5.422   7.759  0.1544  0.4159 -0.2895
 3677TIP3    H132666   2.589   5.360   7.689 -1.2204  1.3641 -1.5825
 3677TIP3    H232667   2.604   5.381   7.838  1.7340 -0.6990 -1.5098
 3678TIP3   OH232668   0.642   2.741   0.553  0.3001  0.6903 -0.7436
 3678TIP3    H132669   0.556   2.706   0.577  0.2420  0.6835 -0.9611
 3678TIP3    H232670   0.697   2.663   0.543  0.6195  0.7302  0.4597
 3679TIP3   OH232671   3.850   6.765   0.076  0.0476 -0.2250  0.3996
 3679TIP3    H132672   3.826   6.730  -0.009  0.6230 -0.4610  0.3331
 3679TIP3    H232673   3.766   6.775   0.122 -0.2921  0.2240 -0.3085
 3680TIP3   OH232674   2.767   3.063   2.444 -0.2697  0.2121  0.5157
 3680TIP3    H132675   2.801   3.015   2.520 -0.5589 -0.4206  0.2575
 3680TIP3    H232676   2.769   3.155   2.470  1.0910  0.1396  0.7199
 3681TIP3   OH232677   6.019   5.421   7.325 -0.2690  0.2572 -0.2160
 3681TIP3    H132678   5.971   5.410   7.407 -2.6581  3.0810 -1.0636
 3681TIP3    H232679   6.046   5.332   7.301 -1.6402 -0.9617  2.3798
 3682TIP3   OH232680   5.189   3.534   1.525  0.4101  0.2048  0.2534
 3682TIP3    H132681   5.218   3.466   1.465 -1.3933 -1.2886  1.0092
 3682TIP3    H232682   5.109   3.569   1.487  1.1317  1.7263  0.0416
 3683TIP3   OH232683   2.320   1.863   0.879 -0.4757  0.0666  0.6202
 3683TIP3    H132684   2.278   1.891   0.960  0.5425  1.9200  0.5543
 3683TIP3    H232685   2.318   1.767   0.883 -1.6847  0.1214  2.1628
 3684TIP3   OH232686   3.764   1.281   0.695 -0.2658 -0.0848  0.4511
 3684TIP3    H132687   3.697   1.349   0.699 -0.0098  0.1537  0.6877
 3684TIP3    H232688   3.715   1.201   0.675 -0.5141  0.2383 -0.2896
 3685TIP3   OH232689   0.150   5.988   1.386  0.0581 -0.2980  0.2811
 3685TIP3    H132690   0.128   5.906   1.343  0.6414 -0.9532  1.2046
 3685TIP3    H232691   0.066   6.035   1.392 -0.4441 -1.2193  0.5857
 3686TIP3   OH232692   6.248   5.061   1.979 -0.2217 -0.2901 -0.2714
 3686TIP3    H132693   6.198   4.980   1.984 -0.6088 -0.0340  0.1345
 3686TIP3    H232694   6.319   5.042   1.918 -1.4057 -0.3419 -1.6930
 3687TIP3   OH232695   1.421   2.919   1.846 -0.4823 -0.3204  0.6269
 3687TIP3    H132696   1.511   2.944   1.824 -0.8450  0.5516  0.0461
 3687TIP3    H232697   1.400   2.848   1.785 -1.0002  1.1333 -0.9843
 3688TIP3   OH232698   6.107   5.617   7.149 -0.1937  0.2639  0.0665
 3688TIP3    H132699   6.068   5.549   7.204  0.3732  0.0035  0.1595
 3688TIP3    H232700   6.200   5.593   7.145 -0.0386  0.8867 -0.1148
 3689TIP3   OH232701   0.078   2.104   1.373  0.3951  0.2559  0.3751
 3689TIP3    H132702  -0.016   2.125   1.373  0.0031 -1.3815  1.2891
 3689TIP3    H232703   0.107   2.128   1.285 -1.2422 -0.7458 -0.4863
 3690TIP3   OH232704   5.873   0.644   0.758  0.7698  0.1001  0.0824
 3690TIP3    H132705   5.782   0.668   0.777 -0.1658 -2.4442 -0.7923
 3690TIP3    H232706   5.896   0.583   0.827  1.0753 -0.8488 -0.8393
 3691TIP3   OH232707   0.603   2.808   7.003  0.3854  0.1104 -0.5543
 3691TIP3    H132708   0.604   2.883   6.944 -2.4727 -0.4835 -1.5391
 3691TIP3    H232709   0.694   2.797   7.029  1.0280  3.4102 -0.9461
 3692TIP3   OH232710   4.444   4.272   0.161  0.1116 -0.0485 -0.4597
 3692TIP3    H132711   4.540   4.277   0.158  0.2366 -1.6406  0.0298
 3692TIP3    H232712   4.424   4.180   0.146 -1.4077  0.4048 -1.4280
 3693TIP3   OH232713   5.752   2.951   8.714  0.0420  0.1162  0.6411
 3693TIP3    H132714   5.808   3.014   8.758  0.4103  0.9035 -0.8763
 3693TIP3    H232715   5.806   2.871   8.708  1.0847  0.8756 -0.8334
 3694TIP3   OH232716   0.733   2.017   8.173  0.2216  0.2448  0.5887
 3694TIP3    H132717   0.754   1.980   8.259 -0.1509  0.6098  0.8438
 3694TIP3    H232718   0.761   2.109   8.181  2.9878 -0.3856 -0.6829
 3695TIP3   OH232719   5.197   1.492   7.904 -0.2152 -0.5709 -0.0173
 3695TIP3    H132720   5.278   1.513   7.857 -0.0597 -1.2902 -0.0825
 3695TIP3    H232721   5.226   1.443   7.981 -0.6303 -1.6927 -0.5436
 3696TIP3   OH232722   2.001   5.765   0.501 -0.0001  0.0151 -0.3201
 3696TIP3    H132723   2.038   5.805   0.422  0.2844 -0.9624 -0.6986
 3696TIP3    H232724   2.017   5.829   0.570  2.9119 -0.5375 -0.3514
 3697TIP3   OH232725   3.254   4.177   7.549  0.3821 -0.5160  0.5752
 3697TIP3    H132726   3.275   4.206   7.460 -0.6366 -1.1010  0.1229
 3697TIP3    H232727   3.207   4.251   7.587  0.5201 -0.3936  0.5083
 3698TIP3   OH232728   5.602   0.609   7.148  0.4781  0.0674 -0.3578
 3698TIP3    H132729   5.555   0.541   7.100 -0.0895  1.7970 -2.4162
 3698TIP3    H232730   5.690   0.609   7.110  1.4470 -1.3757  1.6611
 3699TIP3   OH232731   6.243   1.381   7.584  0.3136  0.0608 -0.0768
 3699TIP3    H132732   6.285   1.429   7.655 -0.5225 -1.4255  1.4791
 3699TIP3    H232733   6.309   1.318   7.555  0.9940  1.2925 -1.3256
 3700TIP3   OH232734   3.471   0.018   0.969 -0.6036  0.5828 -0.4215
 3700TIP3    H132735   3.530  -0.037   0.918  1.3262  0.9623  1.2628
 3700TIP3    H232736   3.418   0.063   0.903  0.0801 -0.7460 -1.9579
 3701TIP3   OH232737   0.232   1.793   8.518 -0.3405  0.4870 -0.7337
 3701TIP3    H132738   0.315   1.768   8.479 -0.5674 -1.6577  0.0463
 3701TIP3    H232739   0.233   1.754   8.605 -3.1460 -1.8276 -1.5914
 3702TIP3   OH232740   6.797   1.209   0.891 -0.1339 -0.3644  0.1666
 3702TIP3    H132741   6.822   1.185   0.802 -2.5448 -2.5483 -0.0332
 3702TIP3    H232742   6.870   1.177   0.945  1.1532  0.6039 -0.9206
 3703TIP3   OH232743   2.681   1.216   0.650  0.2225  0.0758  0.2180
 3703TIP3    H132744   2.644   1.295   0.689  0.2354  0.8507 -1.2486
 3703TIP3    H232745   2.726   1.248   0.571  0.2967 -1.3852 -0.3584
 3704TIP3   OH232746   1.524   3.219   7.544  0.2627 -0.1017 -0.0766
 3704TIP3    H132747   1.534   3.209   7.449  0.0428 -1.1957 -0.0020
 3704TIP3    H232748   1.435   3.253   7.555  0.1207 -0.4106 -0.2471
 3705TIP3   OH232749   1.690   3.953   0.326  0.1154  0.0133  0.3000
 3705TIP3    H132750   1.597   3.974   0.336  0.6921  3.4267 -0.0322
 3705TIP3    H232751   1.730   3.980   0.409  0.9408 -0.4953  0.0818
 3706TIP3   OH232752   4.865   1.551   7.928  0.5302  0.1087 -0.0702
 3706TIP3    H132753   4.934   1.602   7.887  2.2729 -0.1193  2.3761
 3706TIP3    H232754   4.813   1.615   7.977  0.4260 -0.0166 -0.0158
 3707TIP3   OH232755   6.027   4.630   7.034 -0.0964 -0.5839 -0.1735
 3707TIP3    H132756   6.079   4.602   6.959  1.4505 -3.2363  1.6952
 3707TIP3    H232757   5.946   4.581   7.027  0.6441 -1.9855  0.5575
 3708TIP3   OH232758   4.069   6.233   7.874 -0.2005 -0.5279  0.2849
 3708TIP3    H132759   4.041   6.141   7.877 -2.5951  0.1431  0.7090
 3708TIP3    H232760   4.054   6.259   7.783 -2.4448  0.2032  0.8029
 3709TIP3   OH232761   5.691   5.171   1.679 -0.5602 -0.1525 -0.1998
 3709TIP3    H132762   5.720   5.159   1.770 -0.5966  0.0727 -0.1589
 3709TIP3    H232763   5.659   5.261   1.676 -1.5634 -0.5020 -0.1700
 3710TIP3   OH232764   1.916   3.458   8.576 -0.4972  0.4850 -0.1665
 3710TIP3    H132765   1.884   3.374   8.610  0.2607  1.0837  2.2419
 3710TIP3    H232766   1.919   3.514   8.653  3.0107  1.4939 -0.8967
 3711TIP3   OH232767   3.545   6.584   0.138 -0.7128 -0.2495 -0.3397
 3711TIP3    H132768   3.636   6.557   0.149  0.7283  2.0968 -4.5999
 3711TIP3    H232769   3.504   6.511   0.091 -0.3161 -0.2538 -0.6818
 3712TIP3   OH232770   3.685   1.546   8.271  0.4739 -0.4930 -0.0165
 3712TIP3    H132771   3.636   1.469   8.243  0.3718 -1.2954  2.2044
 3712TIP3    H232772   3.622   1.596   8.323  0.7723  0.7431 -0.7792
 3713TIP3   OH232773   0.173   0.511   0.594  0.0924  0.4454  0.0054
 3713TIP3    H132774   0.083   0.537   0.577  0.7297  2.2854 -0.7697
 3713TIP3    H232775   0.211   0.496   0.507  1.0484  1.6245  0.1906
 3714TIP3   OH232776   2.446   1.169   8.286  0.2712  0.4101 -0.2015
 3714TIP3    H132777   2.430   1.077   8.310  0.0056  0.5522  0.1711
 3714TIP3    H232778   2.425   1.172   8.192  2.3567 -0.3819 -0.7559
 3715TIP3   OH232779   0.848   2.452   1.815 -0.3038 -0.6968 -0.2933
 3715TIP3    H132780   0.860   2.545   1.831  2.7738 -0.8655 -0.9424
 3715TIP3    H232781   0.852   2.412   1.902 -0.6848 -0.3087 -0.0952
 3716TIP3   OH232782   0.330   3.952   3.217 -0.0301  0.3054  0.1120
 3716TIP3    H132783   0.242   3.915   3.204  0.7151 -1.3555 -0.4552
 3716TIP3    H232784   0.362   3.969   3.128 -0.8832  3.8520  0.3255
 3717TIP3   OH232785   4.510   0.917   2.014 -0.3658 -0.8169  0.4127
 3717TIP3    H132786   4.450   0.866   2.068 -0.9187 -0.6812 -0.0659
 3717TIP3    H232787   4.595   0.876   2.027 -0.3466 -0.3685  1.9284
 3718TIP3   OH232788   3.664   1.555   2.737 -0.3944  0.3702  0.2106
 3718TIP3    H132789   3.625   1.552   2.825 -0.9258  2.4461  0.0965
 3718TIP3    H232790   3.738   1.615   2.746  0.4028 -0.4745 -0.4825
 3719TIP3   OH232791   0.881   5.233   7.312  0.8017 -0.4272 -0.1458
 3719TIP3    H132792   0.962   5.278   7.288 -0.0021  0.6770 -0.8894
 3719TIP3    H232793   0.903   5.140   7.307  1.8210 -0.1592 -1.0547
 3720TIP3   OH232794   0.570   6.759   1.276 -0.3739 -0.3057 -0.1165
 3720TIP3    H132795   0.525   6.839   1.303  0.8774  1.2042 -2.2238
 3720TIP3    H232796   0.510   6.717   1.214  0.1314  0.5414 -1.2100
 3721TIP3   OH232797   4.073   5.394   6.912  0.4771 -0.4991 -0.5354
 3721TIP3    H132798   4.006   5.454   6.879 -0.7818 -0.8472  1.2282
 3721TIP3    H232799   4.078   5.324   6.847  0.3900  0.4070 -1.5312
 3722TIP3   OH232800   5.381   2.341   8.432 -0.3125  0.2516 -0.2333
 3722TIP3    H132801   5.295   2.307   8.455  0.2606 -0.8014  0.3983
 3722TIP3    H232802   5.374   2.436   8.446 -1.8505  0.4012 -1.7788
 3723TIP3   OH232803   2.477   3.503   6.933 -0.5625  0.6337  0.0121
 3723TIP3    H132804   2.404   3.536   6.881 -0.0699  1.0736 -0.4108
 3723TIP3    H232805   2.552   3.506   6.874 -0.3150 -0.3675  0.2601
 3724TIP3   OH232806   2.721   2.760   2.992  0.4637  0.0083  0.7665
 3724TIP3    H132807   2.677   2.794   2.914  0.1338 -2.0158  0.0110
 3724TIP3    H232808   2.812   2.787   2.982  0.2985  0.2972 -0.0274
 3725TIP3   OH232809   1.352   3.669   1.573  0.0062 -0.0834 -0.2979
 3725TIP3    H132810   1.275   3.661   1.518  0.0359  0.6480 -0.4524
 3725TIP3    H232811   1.361   3.584   1.615 -1.2180  0.0129  0.1698
 3726TIP3   OH232812   4.211   6.780   7.772  0.0152  0.2235  0.9680
 3726TIP3    H132813   4.229   6.759   7.864  1.2909  0.1411  0.7138
 3726TIP3    H232814   4.116   6.787   7.768 -0.0805 -0.0135  2.2456
 3727TIP3   OH232815   3.140   2.219   0.771  0.1060 -0.1345 -0.4079
 3727TIP3    H132816   3.067   2.219   0.833 -1.0785 -0.2778 -1.7642
 3727TIP3    H232817   3.099   2.212   0.685  1.7706 -3.0302 -1.1178
 3728TIP3   OH232818   0.493   3.411   7.349 -0.3741 -0.6052  0.0527
 3728TIP3    H132819   0.509   3.323   7.381 -0.2999 -0.9824 -0.9915
 3728TIP3    H232820   0.495   3.403   7.254 -1.2288  0.3568 -0.0708
 3729TIP3   OH232821   0.261   3.473   2.707  0.2425  0.2419 -0.0848
 3729TIP3    H132822   0.250   3.567   2.697  1.3227  0.2899 -1.1288
 3729TIP3    H232823   0.315   3.448   2.632  0.7242 -1.0595  0.6730
 3730TIP3   OH232824   0.211   6.496   2.181  0.5660  0.0798  0.0711
 3730TIP3    H132825   0.285   6.533   2.133 -0.6133 -0.2436 -2.1227
 3730TIP3    H232826   0.155   6.571   2.201 -0.3138 -0.0704 -1.6412
 3731TIP3   OH232827   0.857   0.619   8.517  0.1178 -0.0070 -0.7094
 3731TIP3    H132828   0.841   0.564   8.440 -1.5087 -0.2541 -0.2169
 3731TIP3    H232829   0.952   0.636   8.514  0.0608  0.2460 -2.9152
 3732TIP3   OH232830   2.690   0.317   7.977 -0.4864 -0.0380 -0.1757
 3732TIP3    H132831   2.603   0.289   8.002 -1.9562  3.4751 -0.7390
 3732TIP3    H232832   2.696   0.299   7.884 -1.7881  2.0459 -0.7405
 3733TIP3   OH232833   0.700   4.262   0.435  0.1279 -0.1092 -0.0670
 3733TIP3    H132834   0.611   4.257   0.402 -0.6798 -1.5185  2.1293
 3733TIP3    H232835   0.695   4.322   0.509  0.3394 -2.2938  1.8142
 3734TIP3   OH232836   1.232   4.945   8.438 -0.4149 -0.0009 -0.1805
 3734TIP3    H132837   1.193   4.962   8.524 -0.3588  0.3686 -0.2260
 3734TIP3    H232838   1.232   4.849   8.430  3.7088 -0.4109  2.1667
 3735TIP3   OH232839   2.718   6.099   8.218  0.1368 -0.0144 -0.5580
 3735TIP3    H132840   2.666   6.178   8.203  2.2502  1.7845  0.8184
 3735TIP3    H232841   2.710   6.083   8.312  1.9803  0.3337 -0.2990
 3736TIP3   OH232842   2.317   5.878   7.798 -0.3689  0.4021  0.1648
 3736TIP3    H132843   2.223   5.860   7.785 -0.9648  3.9688 -1.5309
 3736TIP3    H232844   2.361   5.812   7.745 -1.8807 -1.0480  0.6011
 3737TIP3   OH232845   6.622   2.323   1.923 -0.1772  0.4395 -0.6254
 3737TIP3    H132846   6.601   2.406   1.880 -0.7503  0.3883 -0.4547
 3737TIP3    H232847   6.662   2.270   1.854 -0.4674  0.6031 -0.9244
 3738TIP3   OH232848   6.663   5.733   2.407  0.2914 -0.2481 -0.2835
 3738TIP3    H132849   6.668   5.640   2.385  2.0247 -0.2910  0.1422
 3738TIP3    H232850   6.731   5.774   2.353  0.1980  0.6274  0.2442
 3739TIP3   OH232851   1.516   6.344   2.377  0.0660 -0.1349 -0.0200
 3739TIP3    H132852   1.542   6.409   2.312 -2.5582  0.5106 -0.5371
 3739TIP3    H232853   1.536   6.384   2.462 -1.9710  1.7042 -0.3036
 3740TIP3   OH232854   1.369   1.098   1.371 -0.1135  0.1014 -0.0016
 3740TIP3    H132855   1.415   1.167   1.418  1.6624 -1.5997  0.8921
 3740TIP3    H232856   1.412   1.093   1.286 -1.1381  0.9693 -0.5865
 3741TIP3   OH232857   6.037   0.840   8.700  0.0469  0.3246 -0.1792
 3741TIP3    H132858   5.951   0.823   8.663 -0.1006  3.1648 -1.3886
 3741TIP3    H232859   6.076   0.753   8.711 -2.9664 -1.0721  0.5543
 3742TIP3   OH232860   2.966   0.035   8.540 -0.2047 -0.1842 -0.6859
 3742TIP3    H132861   2.997   0.118   8.575 -1.5640  0.5109 -1.0659
 3742TIP3    H232862   2.899   0.059   8.476 -0.0116 -1.5451 -1.4432
 3743TIP3   OH232863   1.370   2.512   7.870  0.0360  0.1493 -0.0248
 3743TIP3    H132864   1.356   2.453   7.795 -1.3109  0.1812  0.1898
 3743TIP3    H232865   1.389   2.597   7.830 -0.2820  0.0784 -0.3315
 3744TIP3   OH232866   1.964   6.226   1.257  0.0963 -0.0433 -0.1958
 3744TIP3    H132867   1.872   6.207   1.272 -0.0520  0.5862 -0.2936
 3744TIP3    H232868   1.983   6.185   1.173 -0.9155  2.3977 -1.7307
 3745TIP3   OH232869   4.055   2.887   7.713  0.2119 -0.1246 -0.2090
 3745TIP3    H132870   4.086   2.910   7.626 -1.4680 -1.8341 -1.3613
 3745TIP3    H232871   4.133   2.885   7.767  1.5190 -0.3960 -2.0166
 3746TIP3   OH232872   6.297   5.094   0.792  0.5905  0.3883  0.3411
 3746TIP3    H132873   6.367   5.098   0.727  0.0234  1.1652 -0.2412
 3746TIP3    H232874   6.264   5.184   0.798 -1.2892 -0.1861 -0.4530
 3747TIP3   OH232875   5.590   5.722   2.320  0.1829  0.0453 -0.2298
 3747TIP3    H132876   5.507   5.692   2.358 -0.8736  1.6776 -1.1486
 3747TIP3    H232877   5.569   5.804   2.277  2.7117  1.7091  1.3697
 3748TIP3   OH232878   1.501   5.063   2.017  0.0111  0.3122 -0.3383
 3748TIP3    H132879   1.466   5.025   1.937 -0.9517  1.5549 -0.5387
 3748TIP3    H232880   1.591   5.031   2.022 -0.9858 -2.7493  0.0307
 3749TIP3   OH232881   4.371   6.213   1.007 -0.1019 -0.0657 -0.0643
 3749TIP3    H132882   4.403   6.123   1.011  1.3188  0.2743 -2.0974
 3749TIP3    H232883   4.424   6.261   1.070  0.5374 -0.3006 -0.4145
 3750TIP3   OH232884   1.619   5.943   2.598  0.6423 -0.2509  0.1529
 3750TIP3    H132885   1.672   5.936   2.518 -0.1398  1.4946 -0.5597
 3750TIP3    H232886   1.659   6.015   2.647 -0.1102  0.0272  0.3688
 3751TIP3   OH232887   6.722   1.479   1.502 -0.3079 -0.4208  0.2000
 3751TIP3    H132888   6.721   1.575   1.501  2.2989 -0.3325 -0.8956
 3751TIP3    H232889   6.790   1.456   1.565  0.8537 -1.4440 -1.3502
 3752TIP3   OH232890   3.332   0.822   2.641  0.2263  0.0740 -0.4135
 3752TIP3    H132891   3.284   0.813   2.558  0.7699 -1.9335 -0.5561
 3752TIP3    H232892   3.263   0.825   2.708 -0.1906  0.8577 -0.8613
 3753TIP3   OH232893   2.098   5.540   8.114 -0.5515  0.3571  0.4240
 3753TIP3    H132894   2.030   5.492   8.066 -0.2328 -1.3558  1.6041
 3753TIP3    H232895   2.180   5.508   8.078 -0.3363  0.2211  1.0252
 3754TIP3   OH232896   3.462   4.379   0.627 -0.0733 -0.2085  0.2327
 3754TIP3    H132897   3.505   4.324   0.692  1.1962 -0.7639 -1.0162
 3754TIP3    H232898   3.502   4.465   0.638  0.1436 -0.3032  0.2041
 3755TIP3   OH232899   4.507   5.628   7.881  0.1592 -0.0941 -0.4706
 3755TIP3    H132900   4.480   5.713   7.918  0.7248  0.0354 -0.3422
 3755TIP3    H232901   4.587   5.606   7.930 -0.3530 -1.0275 -0.0287
 3756TIP3   OH232902   6.300   6.858   0.845 -0.0879  0.9052 -0.1527
 3756TIP3    H132903   6.276   6.892   0.932  0.4277 -0.8002  0.7105
 3756TIP3    H232904   6.219   6.858   0.795 -0.7119  0.5505  0.8314
 3757TIP3   OH232905   0.955   5.682   7.217 -0.5774 -0.7854  0.5120
 3757TIP3    H132906   1.034   5.671   7.270 -1.3946  0.2609  2.0002
 3757TIP3    H232907   0.933   5.775   7.225 -1.5842 -0.9237 -0.4247
 3758TIP3   OH232908   2.386   5.713   6.641 -0.2389  0.3206  0.1643
 3758TIP3    H132909   2.307   5.763   6.622  0.6043  2.0255  0.8977
 3758TIP3    H232910   2.437   5.716   6.560 -0.8564 -0.6816 -0.2721
 3759TIP3   OH232911   0.154   2.540   8.621 -0.3970  0.1672  0.4978
 3759TIP3    H132912   0.059   2.552   8.623 -0.1703  3.5791 -1.0685
 3759TIP3    H232913   0.177   2.552   8.529  1.7535  2.6970  1.2585
 3760TIP3   OH232914   6.734   3.902   2.227  0.6459  0.0236 -0.2214
 3760TIP3    H132915   6.723   3.877   2.319 -1.0703  0.8592 -0.1579
 3760TIP3    H232916   6.707   3.994   2.224 -0.3703 -0.3022 -1.7351
 3761TIP3   OH232917   3.575   5.743   0.652 -0.2354  0.1592  0.5323
 3761TIP3    H132918   3.669   5.748   0.666  0.0223 -1.2048 -0.5250
 3761TIP3    H232919   3.560   5.792   0.572 -0.3497 -0.0318  0.4359
 3762TIP3   OH232920   2.593   2.740   2.106 -0.1821  0.0042 -0.2125
 3762TIP3    H132921   2.635   2.776   2.183 -0.7390  0.4318 -0.1020
 3762TIP3    H232922   2.662   2.693   2.060  0.0514 -0.6660  0.7970
 3763TIP3   OH232923   6.850   0.381   1.589  0.7470 -0.0080 -0.2895
 3763TIP3    H132924   6.838   0.412   1.500  0.8821  1.8772  0.3030
 3763TIP3    H232925   6.762   0.364   1.621  0.5726  0.8073 -0.3046
 3764TIP3   OH232926   0.157   0.841   1.087 -0.0229  0.0724 -0.0493
 3764TIP3    H132927   0.097   0.821   1.016 -0.3461 -1.0863  0.5214
 3764TIP3    H232928   0.189   0.929   1.068 -3.0023  1.3689  0.4043
 3765TIP3   OH232929   0.553   2.656   7.414 -0.5263  0.6819  0.1149
 3765TIP3    H132930   0.503   2.682   7.337 -0.8936  2.9495  1.0208
 3765TIP3    H232931   0.645   2.661   7.386 -0.6875 -1.1349 -0.8716
 3766TIP3   OH232932   0.788   3.537   2.440  0.3108  0.5237  0.3483
 3766TIP3    H132933   0.778   3.443   2.427 -0.3960  0.6995 -0.5589
 3766TIP3    H232934   0.741   3.555   2.521 -2.3706  0.5032 -1.0602
 3767TIP3   OH232935   6.780   1.472   8.551  0.2303 -0.2031  0.4919
 3767TIP3    H132936   6.804   1.559   8.520  1.5801 -0.7661 -0.1334
 3767TIP3    H232937   6.851   1.415   8.520  0.5743 -1.1669  2.8259
 3768TIP3   OH232938   0.801   4.595   0.900  0.2926  0.2715 -0.2041
 3768TIP3    H132939   0.742   4.524   0.926  0.5469 -0.3466 -1.2461
 3768TIP3    H232940   0.763   4.673   0.940 -0.3726 -0.3407  0.4061
 3769TIP3   OH232941   5.990   0.157   0.762 -0.3210 -0.9229 -0.5630
 3769TIP3    H132942   6.060   0.202   0.808 -0.5611 -0.2531 -0.8411
 3769TIP3    H232943   5.990   0.195   0.674 -3.3774  1.8340  0.4242
 3770TIP3   OH232944   4.134   0.258   1.705  0.3080  0.3513  0.4404
 3770TIP3    H132945   4.075   0.296   1.770 -0.9379 -2.2379  0.9277
 3770TIP3    H232946   4.082   0.191   1.661  2.3517 -0.8017 -0.3556
 3771TIP3   OH232947   4.760   4.464   7.879 -0.3695  0.6832 -0.3671
 3771TIP3    H132948   4.685   4.464   7.938 -0.3317  3.2671 -0.1898
 3771TIP3    H232949   4.789   4.373   7.876 -2.0135  0.0373  1.4482
 3772TIP3   OH232950   6.763   2.031   0.866 -0.3211 -0.4051  0.1133
 3772TIP3    H132951   6.769   2.112   0.817  0.8574 -0.6253 -0.1486
 3772TIP3    H232952   6.701   1.977   0.817  0.2522 -0.3299 -0.7148
 3773TIP3   OH232953   5.747   1.951   0.612 -0.4956 -0.1521  0.2550
 3773TIP3    H132954   5.773   1.859   0.616 -2.6012 -0.8244 -0.0852
 3773TIP3    H232955   5.763   1.977   0.522  0.2543 -0.1093  0.3908
 3774TIP3   OH232956   6.213   3.696   8.523 -0.1894  0.1174 -0.0237
 3774TIP3    H132957   6.264   3.700   8.442  1.1841 -1.1886  0.7469
 3774TIP3    H232958   6.162   3.777   8.522  1.4908  1.2390 -1.0953
 3775TIP3   OH232959   5.403   0.028   8.661  0.5194 -0.0215 -0.7915
 3775TIP3    H132960   5.415  -0.034   8.589 -1.4564 -0.7500 -0.5383
 3775TIP3    H232961   5.463  -0.003   8.730  0.7766 -0.6382 -1.2868
 3776TIP3   OH232962   1.485   5.089   0.688 -0.8015 -1.0369 -0.4698
 3776TIP3    H132963   1.450   5.148   0.754 -0.4564 -0.5826 -0.6813
 3776TIP3    H232964   1.504   5.145   0.613  0.9623 -1.1297 -0.1477
 3777TIP3   OH232965   6.332   4.244   1.592  0.1522  0.1109 -0.4014
 3777TIP3    H132966   6.374   4.269   1.509  0.0957 -0.7413 -0.7079
 3777TIP3    H232967   6.286   4.322   1.621 -0.2830  0.2651 -1.4652
 3778TIP3   OH232968   5.315   4.628   8.320 -0.3708  0.2220 -0.5134
 3778TIP3    H132969   5.410   4.640   8.318  0.0373 -2.0563  1.2061
 3778TIP3    H232970   5.297   4.567   8.249 -0.4583  0.1121 -0.3955
 3779TIP3   OH232971   6.867   4.804   2.774 -0.0583 -0.1328  0.4985
 3779TIP3    H132972   6.934   4.803   2.843  0.9430  0.4702 -0.4211
 3779TIP3    H232973   6.823   4.889   2.785  0.6124  0.2969 -0.0562
 3780TIP3   OH232974   3.282   6.141   0.891 -0.5370  0.2784 -0.1701
 3780TIP3    H132975   3.249   6.222   0.930 -0.4900  0.4750 -0.5345
 3780TIP3    H232976   3.203   6.093   0.865 -0.5339  1.0265 -1.6029
 3781TIP3   OH232977   4.007   5.321   0.735 -0.0322  0.3946  0.0755
 3781TIP3    H132978   3.941   5.346   0.671 -0.2170  0.6895  0.3773
 3781TIP3    H232979   4.080   5.380   0.719 -0.8434  1.8412  1.4294
 3782TIP3   OH232980   4.379   6.698   7.235  0.3791 -0.2989  0.3126
 3782TIP3    H132981   4.427   6.643   7.174  1.4345  1.1208 -0.1913
 3782TIP3    H232982   4.372   6.783   7.191 -1.0393  0.0533  1.1301
 3783TIP3   OH232983   4.365   1.050   8.058 -0.0457  0.4225  0.3547
 3783TIP3    H132984   4.277   1.024   8.083  0.2392 -0.9865 -0.0420
 3783TIP3    H232985   4.397   1.100   8.133 -0.4632 -0.7619  1.3565
 3784TIP3   OH232986   4.266   0.538   7.276 -0.0748 -0.5595  0.9772
 3784TIP3    H132987   4.211   0.507   7.204 -1.2820  0.9323  1.1989
 3784TIP3    H232988   4.315   0.461   7.305  0.6019 -1.1724 -1.5503
 3785TIP3   OH232989   6.256   2.387   1.386 -0.5249  0.0186 -0.2325
 3785TIP3    H132990   6.328   2.378   1.448 -0.2109  1.0287 -0.4381
 3785TIP3    H232991   6.260   2.306   1.334  0.2492 -0.0916 -0.0245
 3786TIP3   OH232992   3.475   1.799   0.720 -0.5934  0.0958 -0.2597
 3786TIP3    H132993   3.526   1.874   0.750 -0.8462  0.5133 -0.8348
 3786TIP3    H232994   3.506   1.783   0.630  1.7639 -2.5561  0.8709
 3787TIP3   OH232995   0.257   2.882   2.201  0.0523  0.2946  0.4309
 3787TIP3    H132996   0.329   2.837   2.244  0.2601  1.1557  1.0123
 3787TIP3    H232997   0.296   2.964   2.169 -0.3040  0.0630 -0.6351
 3788TIP3   OH232998   2.614   3.534   2.086  0.2360 -0.0295 -0.0990
 3788TIP3    H132999   2.616   3.530   2.181 -0.1804  1.3286 -0.0089
 3788TIP3    H233000   2.543   3.477   2.060 -0.6989  0.8217  0.5213
 3789TIP3   OH233001   4.550   0.616   7.275  0.1768 -0.0959  0.5638
 3789TIP3    H133002   4.555   0.541   7.216  0.2739 -0.1275  0.6112
 3789TIP3    H233003   4.458   0.642   7.273  0.1419 -0.2186  0.5497
 3790TIP3   OH233004   2.560   1.845   8.014  0.5760  0.3774 -0.1576
 3790TIP3    H133005   2.473   1.807   8.026  1.0637 -1.2281 -1.2597
 3790TIP3    H233006   2.615   1.798   8.078  0.9244  0.2234 -0.5678
 3791TIP3   OH233007   0.010   4.710   0.688 -0.1506  0.5614 -0.0770
 3791TIP3    H133008  -0.050   4.647   0.728 -0.2446  0.6672 -0.0529
 3791TIP3    H233009   0.087   4.658   0.666  0.1257  0.6054  0.7426
 3792TIP3   OH233010   4.078   1.597   7.809 -0.1324 -0.1114 -0.2365
 3792TIP3    H133011   4.152   1.623   7.754 -1.4715  0.5508 -1.8175
 3792TIP3    H233012   4.026   1.539   7.753 -0.5732 -0.9382  1.0046
 3793TIP3   OH233013   5.537   0.593   7.612 -0.7102 -0.5780 -0.2772
 3793TIP3    H133014   5.554   0.655   7.683  0.6766 -1.4556  0.2041
 3793TIP3    H233015   5.600   0.522   7.626 -2.8678 -2.6161 -0.2250
 3794TIP3   OH233016   5.471   6.378   1.512  0.4430  0.2294  0.0227
 3794TIP3    H133017   5.512   6.398   1.428 -0.7939  2.1618 -0.1949
 3794TIP3    H233018   5.447   6.464   1.548  0.7792 -0.5546  2.2843
 3795TIP3   OH233019   4.495   1.726   1.332  0.7598  0.4125  0.0842
 3795TIP3    H133020   4.539   1.690   1.409  0.6143 -1.9835 -0.8350
 3795TIP3    H233021   4.411   1.758   1.365  0.9688  0.0232  1.0203
 3796TIP3   OH233022   1.276   6.587   2.284  0.4292 -0.0207  0.5961
 3796TIP3    H133023   1.370   6.593   2.265  0.3154  0.0970  0.0357
 3796TIP3    H233024   1.262   6.649   2.355  0.9494 -0.7802  1.3889
 3797TIP3   OH233025   6.821   3.491   2.159 -0.4921 -0.1047  0.4507
 3797TIP3    H133026   6.731   3.520   2.146 -0.3203 -0.2268 -1.2779
 3797TIP3    H233027   6.844   3.519   2.248 -0.6267  4.2341 -0.7034
 3798TIP3   OH233028   0.662   0.823   0.509  0.2800  0.8527 -0.1143
 3798TIP3    H133029   0.693   0.761   0.442 -0.8620  0.7047 -0.5230
 3798TIP3    H233030   0.581   0.784   0.541 -0.3138  2.0047 -0.1897
 3799TIP3   OH233031   5.839   2.719   2.317 -0.0871  0.3393  0.2273
 3799TIP3    H133032   5.932   2.743   2.314  0.0953 -0.0430  1.9492
 3799TIP3    H233033   5.796   2.793   2.359 -0.1255 -0.5957  1.9159
 3800TIP3   OH233034   6.142   4.793   6.461  0.3489  0.3354  0.2657
 3800TIP3    H133035   6.187   4.860   6.409  1.1012 -1.2253 -1.2085
 3800TIP3    H233036   6.208   4.726   6.475 -1.2016 -1.5722 -1.0993
 3801TIP3   OH233037   5.661   6.766   0.711 -0.0472  0.0212  0.1377
 3801TIP3    H133038   5.671   6.694   0.773 -3.3750  1.6559  2.9745
 3801TIP3    H233039   5.568   6.766   0.689  0.2335  2.2307 -1.3679
 3802TIP3   OH233040   2.251   0.952   0.247 -0.1539  0.2223  0.0458
 3802TIP3    H133041   2.303   0.877   0.276  1.9317  2.1998  1.8049
 3802TIP3    H233042   2.262   0.952   0.151 -2.7480 -3.3365 -0.4581
 3803TIP3   OH233043   6.840   6.370   2.637  0.0305 -0.1237 -0.0607
 3803TIP3    H133044   6.868   6.331   2.719  1.6653 -0.7028 -0.8507
 3803TIP3    H233045   6.846   6.465   2.651  0.6443 -0.2249  0.3845
 3804TIP3   OH233046   5.368   5.329   1.125 -0.4315 -0.2505  0.3021
 3804TIP3    H133047   5.416   5.391   1.180 -1.7432  0.8563  0.2560
 3804TIP3    H233048   5.294   5.301   1.180  0.7406 -2.7155  0.7633
 3805TIP3   OH233049   2.748   5.077   0.889  0.2559 -0.4189  0.3172
 3805TIP3    H133050   2.789   5.053   0.805 -0.8923 -0.0403 -0.3785
 3805TIP3    H233051   2.656   5.054   0.878 -0.7258  3.1267  0.0166
 3806TIP3   OH233052   3.546   6.703   7.672  0.1676 -0.5423  0.5245
 3806TIP3    H133053   3.548   6.772   7.606 -0.3975 -1.9304 -1.0036
 3806TIP3    H233054   3.638   6.680   7.687  0.3049 -0.0751  0.3867
 3807TIP3   OH233055   0.694   6.563   2.221  0.2485 -0.0121 -0.2028
 3807TIP3    H133056   0.637   6.551   2.297  0.8938 -1.4417  0.0909
 3807TIP3    H233057   0.636   6.549   2.146 -0.3028  1.0097  0.0103
 3808TIP3   OH233058   0.562   1.237   0.106 -0.5679 -0.2648 -0.0983
 3808TIP3    H133059   0.509   1.157   0.113 -0.0336 -0.5908  0.2717
 3808TIP3    H233060   0.603   1.247   0.192 -0.2479  0.1394 -0.2940
 3809TIP3   OH233061   5.809   6.052   0.974  0.4754  0.1311  1.2623
 3809TIP3    H133062   5.885   6.000   0.946 -0.0155 -1.5774  2.9078
 3809TIP3    H233063   5.745   6.041   0.904  1.8094  1.9876 -0.3932
 3810TIP3   OH233064   4.742   4.457   7.319  0.0144 -0.1218  0.1038
 3810TIP3    H133065   4.721   4.417   7.403  0.3792 -1.3606 -0.3725
 3810TIP3    H233066   4.825   4.503   7.334  0.4231 -0.8833  0.2850
 3811TIP3   OH233067   1.734   0.223   1.589 -0.0758  0.8892  0.0604
 3811TIP3    H133068   1.768   0.151   1.641 -0.0748  0.3091 -0.7218
 3811TIP3    H233069   1.743   0.300   1.645  0.2794  0.3477  0.7606
 3812TIP3   OH233070   5.516   0.311   2.479 -0.3864 -0.1913 -0.3581
 3812TIP3    H133071   5.594   0.361   2.455 -0.6003 -0.0932 -0.8458
 3812TIP3    H233072   5.475   0.362   2.549 -0.6085  0.3229 -0.8559
 3813TIP3   OH233073   1.114   3.903   7.992  0.0167 -0.0244  0.4415
 3813TIP3    H133074   1.111   3.997   8.007 -1.2519 -0.0022  0.1500
 3813TIP3    H233075   1.180   3.891   7.923  1.4517  0.4536  1.6692
 3814TIP3   OH233076   3.464   4.232   0.090  0.0631 -0.2001 -0.1025
 3814TIP3    H133077   3.466   4.167   0.020 -1.1863  0.8438 -1.1587
 3814TIP3    H233078   3.510   4.308   0.054 -1.7248  0.8202 -0.3363
 3815TIP3   OH233079   0.730   3.271   2.494 -0.8585 -0.0074 -0.0663
 3815TIP3    H133080   0.683   3.188   2.496 -0.4470 -0.2367  0.2445
 3815TIP3    H233081   0.817   3.250   2.528 -0.7711  0.5657  0.0689
 3816TIP3   OH233082   6.083   3.046   7.362  0.5636 -0.1867  0.4664
 3816TIP3    H133083   5.995   3.007   7.355  0.7252 -0.6064  0.7626
 3816TIP3    H233084   6.143   2.974   7.342  0.8325  0.2639 -0.4358
 3817TIP3   OH233085   3.032   1.500   7.413  0.4727 -0.4767 -0.6682
 3817TIP3    H133086   2.969   1.446   7.365  0.8632 -3.6115  2.0026
 3817TIP3    H233087   3.117   1.479   7.373  0.5718 -1.6860  0.1013
 3818TIP3   OH233088   4.545   4.622   6.855  0.0731  0.0296  0.2898
 3818TIP3    H133089   4.576   4.697   6.805 -0.4358 -0.9138 -1.5163
 3818TIP3    H233090   4.594   4.548   6.821 -1.3106 -0.8645  0.1349
 3819TIP3   OH233091   5.860   4.971   1.709 -0.8432  0.2254 -0.1440
 3819TIP3    H133092   5.817   5.045   1.666 -0.4700 -0.6944 -2.2259
 3819TIP3    H233093   5.948   4.969   1.670 -0.6234 -0.8927  0.3790
 3820TIP3   OH233094   2.374   5.485   1.726  1.2439 -0.0716  0.4257
 3820TIP3    H133095   2.307   5.449   1.784  0.6490  1.1326  0.5208
 3820TIP3    H233096   2.391   5.415   1.662 -2.0596  0.4700 -1.2520
 3821TIP3   OH233097   4.585   1.295   6.804  0.6432  0.3775  0.0728
 3821TIP3    H133098   4.556   1.386   6.802  0.7537  0.4139 -1.3630
 3821TIP3    H233099   4.670   1.296   6.761 -0.3058 -0.6706 -1.9889
 3822TIP3   OH233100   4.006   5.755   0.476 -0.0762  0.1096  0.5583
 3822TIP3    H133101   4.080   5.769   0.535  0.3235 -0.0041  0.0814
 3822TIP3    H233102   4.045   5.738   0.391 -0.6336 -0.5573  0.4275
 3823TIP3   OH233103   1.801   2.477   0.742 -0.1108  0.1365  0.0174
 3823TIP3    H133104   1.845   2.472   0.657 -1.6974  0.6387 -0.8755
 3823TIP3    H233105   1.709   2.460   0.722 -0.1343 -2.8760  2.0953
 3824TIP3   OH233106   0.032   2.800   0.608 -0.0279  0.1365 -0.1581
 3824TIP3    H133107   0.057   2.780   0.518  1.7931  0.0803  0.3228
 3824TIP3    H233108   0.005   2.892   0.604  0.5150  0.2851 -0.6788
 3825TIP3   OH233109   3.207   6.684   2.060  0.0759 -0.2235  0.5106
 3825TIP3    H133110   3.121   6.710   2.094 -0.1762 -1.9464  1.2748
 3825TIP3    H233111   3.262   6.761   2.074 -0.7338  0.0892  2.2571
 3826TIP3   OH233112   5.310   0.918   2.513 -0.6164 -0.0848 -0.1865
 3826TIP3    H133113   5.222   0.911   2.476 -0.7038  2.7993 -0.7363
 3826TIP3    H233114   5.363   0.957   2.443 -0.0179  2.4238  1.5505
 3827TIP3   OH233115   4.235   2.008   1.283 -0.3779 -0.4363  0.4146
 3827TIP3    H133116   4.203   2.021   1.194 -1.4940 -1.0536  0.7035
 3827TIP3    H233117   4.300   2.077   1.296  0.3105 -0.7649 -1.1051
 3828TIP3   OH233118   2.474   2.343   2.244 -0.3846  0.5945 -0.0783
 3828TIP3    H133119   2.557   2.315   2.206  0.4847  2.7496  0.1147
 3828TIP3    H233120   2.431   2.262   2.271  2.7437 -0.5174  2.1183
 3829TIP3   OH233121   4.482   1.309   7.133 -0.1611 -0.7002 -0.1970
 3829TIP3    H133122   4.528   1.345   7.057 -1.9234  3.2879  0.3447
 3829TIP3    H233123   4.491   1.377   7.201 -0.7740 -2.9887  2.3469
 3830TIP3   OH233124   1.428   6.133   0.045  0.0580 -0.1880  0.7766
 3830TIP3    H133125   1.508   6.118  -0.004 -0.4660 -1.1174  0.1886
 3830TIP3    H233126   1.416   6.228   0.043  1.2791 -0.0091  1.1185
 3831TIP3   OH233127   0.767   5.615   0.651 -0.2011 -0.0693 -0.2623
 3831TIP3    H133128   0.687   5.595   0.700  0.1732 -1.3975 -0.1591
 3831TIP3    H233129   0.753   5.575   0.565  1.0408 -1.9428  0.3346
 3832TIP3   OH233130   0.857   4.292   7.753  0.2988 -0.0549 -0.1524
 3832TIP3    H133131   0.770   4.264   7.725 -0.0240  1.7107 -1.0465
 3832TIP3    H233132   0.841   4.354   7.824  0.7510  1.1054 -1.0392
 3833TIP3   OH233133   3.762   6.179   6.682  0.0764  0.3642  0.1829
 3833TIP3    H133134   3.803   6.263   6.702 -1.8620  1.8085 -1.5089
 3833TIP3    H233135   3.817   6.142   6.613  0.8335  0.3093  0.8019
 3834TIP3   OH233136   2.011   4.069   0.795  0.7227  0.7104  0.0609
 3834TIP3    H133137   2.025   4.164   0.798  2.7668  0.5082 -1.0414
 3834TIP3    H233138   2.079   4.034   0.853 -1.0319 -0.0501  1.7414
 3835TIP3   OH233139   5.098   5.190   0.995  0.2485  0.0766 -0.3849
 3835TIP3    H133140   5.066   5.196   1.085  1.0606 -2.4637  0.1577
 3835TIP3    H233141   5.193   5.200   1.003  0.1418  2.3686 -1.3318
 3836TIP3   OH233142   0.393   2.770   7.213 -0.5863  0.3790  0.0719
 3836TIP3    H133143   0.439   2.796   7.134 -1.8429  1.9385 -0.2045
 3836TIP3    H233144   0.305   2.747   7.183 -0.5886 -0.6300  0.8113
 3837TIP3   OH233145   0.525   2.644   8.002 -0.2816 -0.8216 -0.1493
 3837TIP3    H133146   0.600   2.603   7.958 -0.3551  0.7431 -1.8360
 3837TIP3    H233147   0.561   2.723   8.041 -0.6759 -1.1037  0.8362
 3838TIP3   OH233148   5.225   1.197   2.963 -0.0153 -0.1417 -0.2492
 3838TIP3    H133149   5.230   1.216   2.870 -0.6664  2.4015  0.1536
 3838TIP3    H233150   5.138   1.158   2.976 -0.4402  0.6958 -0.5410
 3839TIP3   OH233151   1.710   5.967   0.475  0.1778  0.3335 -0.0108
 3839TIP3    H133152   1.713   5.985   0.569  0.1423  1.0501 -0.1400
 3839TIP3    H233153   1.779   6.021   0.437  1.0873 -0.9593 -0.2556
 3840TIP3   OH233154   6.327   1.629   6.810  0.4055  0.1851  0.3499
 3840TIP3    H133155   6.336   1.620   6.715 -0.0966  1.8872  0.0980
 3840TIP3    H233156   6.409   1.670   6.838 -0.3824  1.8758  0.2735
 3841TIP3   OH233157   3.392   2.201   7.989 -0.0387  0.0659  0.1326
 3841TIP3    H133158   3.426   2.196   7.899  0.6042 -0.0427  0.3783
 3841TIP3    H233159   3.391   2.111   8.020 -2.0367 -0.1386 -0.3953
 3842TIP3   OH233160   4.041   5.356   7.441  0.1151 -0.3599 -0.6094
 3842TIP3    H133161   4.073   5.324   7.526 -0.1560  2.2344  0.5696
 3842TIP3    H233162   4.114   5.343   7.381  0.5359 -1.6660  0.1450
 3843TIP3   OH233163   3.682   3.983   8.365 -0.6047  0.7751  0.5193
 3843TIP3    H133164   3.757   4.012   8.313 -2.4545  1.5611 -1.8833
 3843TIP3    H233165   3.709   3.998   8.456  2.2870  0.5661 -0.2029
 3844TIP3   OH233166   0.833   1.921   1.247 -0.2009 -0.0717  0.0281
 3844TIP3    H133167   0.819   1.984   1.176 -2.4235 -0.4640  0.0169
 3844TIP3    H233168   0.902   1.958   1.301 -0.6393  1.7845 -0.6392
 3845TIP3   OH233169   5.913   2.133   6.910 -0.8016 -0.1266 -0.0753
 3845TIP3    H133170   5.887   2.074   6.839 -0.1592 -0.1328 -0.3123
 3845TIP3    H233171   5.999   2.102   6.937 -0.0215  1.2893 -0.8553
 3846TIP3   OH233172   0.842   3.905   1.209 -0.0943  0.9131 -0.3944
 3846TIP3    H133173   0.932   3.931   1.231  0.2153  0.2900 -0.8768
 3846TIP3    H233174   0.814   3.968   1.142  0.3796  0.4876 -1.0132
 3847TIP3   OH233175   2.794   5.182   0.067 -0.1680  0.3688 -0.2165
 3847TIP3    H133176   2.754   5.258   0.025  1.3825  0.7143 -1.1618
 3847TIP3    H233177   2.830   5.216   0.148  0.3994  0.6226 -0.5705
 3848TIP3   OH233178   1.138   6.012   8.223 -0.5107 -0.0788  0.2039
 3848TIP3    H133179   1.136   6.063   8.143 -0.4681 -0.1638  0.1485
 3848TIP3    H233180   1.211   5.951   8.211 -1.6467 -1.3528 -0.4592
 3849TIP3   OH233181   0.186   4.883   2.279  0.9196 -0.4758 -0.4315
 3849TIP3    H133182   0.241   4.805   2.281 -0.5215 -1.5396 -0.6614
 3849TIP3    H233183   0.157   4.895   2.369  0.7823 -0.4629 -0.4778
 3850TIP3   OH233184   6.593   4.121   2.235  0.4055  0.1520  0.3282
 3850TIP3    H133185   6.537   4.097   2.161  0.7479  0.0863  0.0873
 3850TIP3    H233186   6.533   4.131   2.308  0.0940 -0.0570  0.1045
 3851TIP3   OH233187   4.576   4.895   1.255  0.0901  0.1500 -0.3054
 3851TIP3    H133188   4.499   4.870   1.306  0.4081  1.1905  0.7349
 3851TIP3    H233189   4.541   4.939   1.178 -0.3764  1.6701  0.7247
 3852TIP3   OH233190   6.713   5.702   0.082  0.5859  0.3485 -0.0877
 3852TIP3    H133191   6.799   5.725   0.117  0.5143 -1.1078  1.1924
 3852TIP3    H233192   6.709   5.606   0.091 -0.7026  0.2608 -1.2542
 3853TIP3   OH233193   0.461   5.513   6.831  0.3818  0.2965  0.8225
 3853TIP3    H133194   0.436   5.421   6.827  2.2409 -0.3206  2.0615
 3853TIP3    H233195   0.426   5.551   6.751 -0.7564 -1.3873  0.4728
 3854TIP3   OH233196   5.188   3.939   1.292 -0.9405  0.0412  0.3159
 3854TIP3    H133197   5.206   3.855   1.250 -3.3696  0.8828 -2.8026
 3854TIP3    H233198   5.129   3.918   1.364 -2.9064 -0.8811 -1.4732
 3855TIP3   OH233199   2.598   3.815   2.360 -0.0467  0.4773  0.1220
 3855TIP3    H133200   2.620   3.890   2.416  0.5117  0.8425 -0.5696
 3855TIP3    H233201   2.605   3.849   2.271 -2.5950  0.3678 -0.1822
 3856TIP3   OH233202   3.668   1.846   1.329 -0.2471 -0.6316 -0.0622
 3856TIP3    H133203   3.725   1.775   1.300  0.3885 -0.3264  0.4252
 3856TIP3    H233204   3.597   1.802   1.376  0.8085 -0.8877  1.3545
 3857TIP3   OH233205   0.812   6.175   7.479 -0.2966  0.4824  0.1516
 3857TIP3    H133206   0.879   6.132   7.534 -1.0714 -0.4021  0.4343
 3857TIP3    H233207   0.785   6.251   7.531  0.1928  0.6169  0.2196
 3858TIP3   OH233208   4.550   0.185   1.093 -0.0792  0.1601  0.6451
 3858TIP3    H133209   4.621   0.162   1.153  0.2075 -2.2353 -0.4908
 3858TIP3    H233210   4.560   0.124   1.019 -3.8679 -0.9826  0.8620
 3859TIP3   OH233211   1.876   1.639   1.240 -0.2309 -0.0395  0.9687
 3859TIP3    H133212   1.818   1.586   1.186  0.0662  1.2159 -0.6466
 3859TIP3    H233213   1.860   1.729   1.212  3.6773  0.2836 -0.9033
 3860TIP3   OH233214   4.991   0.543   1.623  0.0472  0.0407  0.3332
 3860TIP3    H133215   4.904   0.580   1.633  0.9333  2.2960  0.1704
 3860TIP3    H233216   4.976   0.456   1.586 -2.0751  0.8155 -0.7809
 3861TIP3   OH233217   4.645   4.176   1.757 -0.1950  0.0509 -0.2548
 3861TIP3    H133218   4.680   4.165   1.845  3.1671  0.6984 -1.3503
 3861TIP3    H233219   4.663   4.268   1.735 -1.2942  0.0018 -1.4682
 3862TIP3   OH233220   0.564   4.261   0.108  0.1129  0.1230 -0.1606
 3862TIP3    H133221   0.524   4.174   0.116  0.3635 -0.0376 -0.6400
 3862TIP3    H233222   0.491   4.320   0.094 -0.0776  0.0176  0.3674
 3863TIP3   OH233223   4.631   5.806   6.690  0.1558 -0.2988  0.1676
 3863TIP3    H133224   4.667   5.742   6.630  0.5236  0.7672 -0.7807
 3863TIP3    H233225   4.603   5.879   6.635  1.6747  1.2681  1.3410
 3864TIP3   OH233226   6.459   2.016   1.871  0.4027  0.2830 -0.0548
 3864TIP3    H133227   6.541   2.020   1.920 -0.3000 -0.1655  1.2218
 3864TIP3    H233228   6.394   2.053   1.930 -0.7852 -1.8343  0.0681
 3865TIP3   OH233229   0.756   3.191   0.660  0.4671  0.3188  0.5311
 3865TIP3    H133230   0.667   3.179   0.628  0.2932 -0.6828  1.3324
 3865TIP3    H233231   0.788   3.102   0.677  0.9396  0.7468  2.0371
 3866TIP3   OH233232   6.420   4.246   7.782 -0.7516 -0.3864  0.0121
 3866TIP3    H133233   6.383   4.161   7.759 -2.5831  0.8173 -1.8205
 3866TIP3    H233234   6.477   4.268   7.709 -0.2467 -0.0511  0.5043
 3867TIP3   OH233235   6.494   2.762   0.241  0.4981 -0.2055 -0.1707
 3867TIP3    H133236   6.504   2.714   0.159 -1.6340 -0.2970 -0.4120
 3867TIP3    H233237   6.425   2.716   0.288 -0.4970  1.6812  0.2961
 3868TIP3   OH233238   5.897   0.418   8.216 -0.7995  0.2931 -0.7944
 3868TIP3    H133239   5.982   0.446   8.251 -0.4299 -1.0321 -0.5614
 3868TIP3    H233240   5.843   0.497   8.217  0.1613  0.9632 -0.1153
 3869TIP3   OH233241   2.009   5.460   1.285 -0.0045  0.2242  0.1276
 3869TIP3    H133242   2.055   5.400   1.344  0.3486  1.5560  1.2736
 3869TIP3    H233243   2.071   5.476   1.214 -0.9458 -2.4779 -1.4397
 3870TIP3   OH233244   4.460   6.783   8.715  0.0687  0.2077 -0.9798
 3870TIP3    H133245   4.446   6.876   8.698  0.4630  0.5260  0.2894
 3870TIP3    H233246   4.535   6.759   8.661  2.3163  1.5698  1.2914
 3871TIP3   OH233247   0.426   6.087   0.767  1.0721 -0.3337 -0.6131
 3871TIP3    H133248   0.422   6.179   0.741  0.3052 -0.2644 -0.2864
 3871TIP3    H233249   0.425   6.039   0.684  0.1992 -0.0712 -0.7676
 3872TIP3   OH233250   1.717   0.471   8.149  0.6587  0.1034 -0.2123
 3872TIP3    H133251   1.659   0.422   8.208  0.7173 -1.2554 -1.2448
 3872TIP3    H233252   1.706   0.429   8.064  0.5115  2.0710 -1.2369
 3873TIP3   OH233253   2.466   1.967   7.738 -0.1602 -0.1619 -0.1225
 3873TIP3    H133254   2.441   1.901   7.803 -1.6932  0.4172 -0.0752
 3873TIP3    H233255   2.549   2.002   7.770  0.0922 -1.2529  0.4605
 3874TIP3   OH233256   1.592   2.516   1.003 -0.8576 -0.0106  0.3265
 3874TIP3    H133257   1.547   2.579   1.059  0.0220  2.0215 -1.1182
 3874TIP3    H233258   1.685   2.535   1.016 -0.5886 -0.7097 -0.4764
 3875TIP3   OH233259   0.103   2.281   1.618 -0.2148  0.5431  0.0269
 3875TIP3    H133260   0.078   2.354   1.562  1.0039  0.1447 -1.0807
 3875TIP3    H233261   0.171   2.235   1.569 -2.1216 -2.3617 -0.1269
 3876TIP3   OH233262   1.084   2.125   8.596 -0.5314 -0.3717  0.6364
 3876TIP3    H133263   1.158   2.074   8.563 -1.5801 -2.2398  0.9903
 3876TIP3    H233264   1.121   2.210   8.620  1.2058 -0.7491 -0.5069
 3877TIP3   OH233265   2.660   3.622   8.056 -0.0433 -0.6900 -0.2815
 3877TIP3    H133266   2.611   3.701   8.081  0.5944 -0.4350  0.1657
 3877TIP3    H233267   2.619   3.594   7.974  1.0147  1.2543 -1.5323
 3878TIP3   OH233268   0.475   3.872   1.713 -0.1481  0.5730  0.1399
 3878TIP3    H133269   0.466   3.790   1.761 -0.3741 -0.3612 -1.4285
 3878TIP3    H233270   0.401   3.925   1.742 -0.3793 -0.0359  0.6803
 3879TIP3   OH233271   2.186   3.603   7.974  0.1383 -0.2817 -0.0632
 3879TIP3    H133272   2.160   3.601   7.882 -1.0044 -2.6735  0.2187
 3879TIP3    H233273   2.107   3.632   8.020  0.8937  1.5289  0.1690
 3880TIP3   OH233274   4.452   1.822   7.914  0.1784 -0.3310 -0.1534
 3880TIP3    H133275   4.483   1.823   7.823 -0.1369 -1.1729 -0.2827
 3880TIP3    H233276   4.496   1.896   7.956 -0.1073  0.4193 -1.1359
 3881TIP3   OH233277   0.093   3.018   7.042  0.3392 -0.1670 -0.4238
 3881TIP3    H133278   0.110   2.925   7.025  0.6973 -0.3464  0.8534
 3881TIP3    H233279   0.089   3.025   7.137 -0.4265  1.0096 -0.5208
 3882TIP3   OH233280   1.484   6.353   8.485 -0.3084 -0.3427  0.0305
 3882TIP3    H133281   1.483   6.439   8.444 -1.1398  0.1198  0.9691
 3882TIP3    H233282   1.426   6.361   8.560  0.7933 -1.2857  1.0445
 3883TIP3   OH233283   5.921   5.802   8.345 -0.4436 -0.1114  0.1592
 3883TIP3    H133284   5.885   5.731   8.292 -0.1260  0.7901 -1.2977
 3883TIP3    H233285   6.001   5.765   8.384 -1.2098 -1.0927  0.8565
 3884TIP3   OH233286   3.067   2.311   8.498 -0.0184 -0.0843 -0.1651
 3884TIP3    H133287   2.980   2.332   8.532 -0.2010 -0.4933 -0.3753
 3884TIP3    H233288   3.079   2.370   8.424 -0.2140 -0.1977 -0.2851
 3885TIP3   OH233289   1.745   1.854   8.703  0.7260  0.7484  0.1584
 3885TIP3    H133290   1.695   1.923   8.659  1.5507  1.7227  0.7081
 3885TIP3    H233291   1.823   1.899   8.737  0.8276 -0.2661  1.3261
 3886TIP3   OH233292   5.814   0.273   1.222 -0.0598 -0.5185  0.3466
 3886TIP3    H133293   5.885   0.209   1.230 -0.4717 -0.8305  2.1510
 3886TIP3    H233294   5.736   0.226   1.255 -0.5873  0.5600  0.6753
 3887TIP3   OH233295   6.546   6.346   6.990 -0.7019  0.5335 -0.4254
 3887TIP3    H133296   6.494   6.416   7.029 -1.4931  0.5312 -1.4585
 3887TIP3    H233297   6.627   6.389   6.962 -0.3895  0.6551  0.6183
 3888TIP3   OH233298   3.586   3.026   8.193  0.0048 -0.1632 -0.0228
 3888TIP3    H133299   3.608   2.968   8.121  0.8331  1.0255 -0.7584
 3888TIP3    H233300   3.517   3.083   8.159  1.1031  1.0727 -0.2525
 3889TIP3   OH233301   2.377   2.176   0.551 -0.5805 -0.7103 -1.1308
 3889TIP3    H133302   2.302   2.128   0.515  0.2579 -1.4303 -1.9839
 3889TIP3    H233303   2.360   2.178   0.646 -0.9150 -2.2547 -1.1229
 3890TIP3   OH233304   6.632   1.677   7.803  0.4501 -0.1582 -0.1119
 3890TIP3    H133305   6.562   1.686   7.739  0.5404 -0.4995 -0.2627
 3890TIP3    H233306   6.709   1.653   7.751  0.4314 -0.8326  0.1661
 3891TIP3   OH233307   0.739   1.782   2.882 -0.1992  0.2463  0.2467
 3891TIP3    H133308   0.728   1.699   2.835 -1.2857 -0.2728  1.3721
 3891TIP3    H233309   0.831   1.781   2.910 -0.2722 -0.7405  0.5201
 3892TIP3   OH233310   3.637   2.159   2.344  0.1861 -0.2108  0.0845
 3892TIP3    H133311   3.662   2.103   2.417  1.8467  0.6233  0.2104
 3892TIP3    H233312   3.659   2.248   2.373  0.4094  0.1851 -1.2159
 3893TIP3   OH233313   6.391   4.815   7.416  0.6236  0.3032  0.1542
 3893TIP3    H133314   6.379   4.768   7.499  3.0523 -0.8073 -0.0325
 3893TIP3    H233315   6.319   4.784   7.361  0.4043 -0.8631  1.0556
 3894TIP3   OH233316   2.193   1.861   1.932  0.4272 -0.2028  0.5541
 3894TIP3    H133317   2.165   1.791   1.873 -0.9176  0.4900  0.3305
 3894TIP3    H233318   2.289   1.852   1.937  0.5002 -0.7176 -1.1741
 3895TIP3   OH233319   6.591   4.427   6.944  0.5324 -0.7570 -0.1075
 3895TIP3    H133320   6.495   4.426   6.943  0.4748  0.6562  0.8648
 3895TIP3    H233321   6.616   4.337   6.921 -0.9392 -0.4669 -3.5019
 3896TIP3   OH233322   3.627   0.686   8.113 -0.0148 -0.2524  0.2725
 3896TIP3    H133323   3.641   0.675   8.019 -1.0469 -0.9811  0.1901
 3896TIP3    H233324   3.712   0.666   8.152 -0.4355 -3.6750 -0.2543
 3897TIP3   OH233325   2.016   4.219   1.563 -0.3417  0.5974 -0.8296
 3897TIP3    H133326   1.964   4.299   1.563 -0.0357  0.8396  1.0668
 3897TIP3    H233327   1.963   4.156   1.610  0.6435  0.5650  0.2806
 3898TIP3   OH233328   6.720   2.226   2.950  0.0694 -0.0996  0.8983
 3898TIP3    H133329   6.796   2.218   3.008  0.4628  1.6613  0.6792
 3898TIP3    H233330   6.684   2.138   2.947  2.1710 -1.0343  0.9102
 3899TIP3   OH233331   2.940   5.689   1.661  0.1878  0.2045 -0.3076
 3899TIP3    H133332   2.893   5.612   1.629  0.3878 -0.8385  1.7451
 3899TIP3    H233333   2.878   5.761   1.652 -0.1635 -0.2686 -1.8480
 3900TIP3   OH233334   5.316   2.406   0.469  0.3030 -0.0319  0.3166
 3900TIP3    H133335   5.232   2.433   0.505  0.9547  1.2182  0.9319
 3900TIP3    H233336   5.300   2.317   0.436 -0.3367 -1.2782  3.6244
 3901TIP3   OH233337   6.567   5.456   1.618 -0.0588  0.7288 -0.3087
 3901TIP3    H133338   6.651   5.474   1.575  0.5594  3.1098  1.6241
 3901TIP3    H233339   6.592   5.428   1.706 -1.3052 -0.1950 -0.2263
 3902TIP3   OH233340   4.667   4.385   7.621  0.3551 -0.5055 -0.4325
 3902TIP3    H133341   4.733   4.424   7.679  1.1864  0.7864 -2.1366
 3902TIP3    H233342   4.710   4.306   7.587  1.1200  0.3648 -1.5856
 3903TIP3   OH233343   6.384   4.148   0.741  0.0911  0.3621 -0.4158
 3903TIP3    H133344   6.393   4.091   0.664  0.0390  1.2971 -1.1268
 3903TIP3    H233345   6.289   4.158   0.751  0.1025  0.4484 -0.3933
 3904TIP3   OH233346   1.658   4.158   7.196  0.1313 -0.0002 -0.1029
 3904TIP3    H133347   1.749   4.159   7.168 -0.3699  0.5749 -1.8764
 3904TIP3    H233348   1.631   4.067   7.189  0.0174  0.1228 -1.6610
 3905TIP3   OH233349   0.516   4.816   1.695 -0.1867 -0.3765 -0.3544
 3905TIP3    H133350   0.601   4.775   1.677 -0.4207 -1.1061  0.1832
 3905TIP3    H233351   0.496   4.792   1.786 -0.4762  0.6731 -0.1228
 3906TIP3   OH233352   5.640   0.706   0.927 -0.1078 -0.4208 -0.2030
 3906TIP3    H133353   5.575   0.661   0.873  0.3564  0.8984 -1.9858
 3906TIP3    H233354   5.662   0.644   0.996 -2.1826 -1.4467 -0.3898
 3907TIP3   OH233355   3.856   4.178   1.366  0.3527  0.0362 -0.1387
 3907TIP3    H133356   3.824   4.171   1.276 -1.9751  0.0263  0.6227
 3907TIP3    H233357   3.911   4.101   1.378 -0.2344 -0.5712 -1.1959
 3908TIP3   OH233358   4.300   6.541   8.465  0.2377  0.2216 -0.0829
 3908TIP3    H133359   4.264   6.574   8.548 -0.4763 -1.7233  0.4212
 3908TIP3    H233360   4.383   6.500   8.489  0.5228  0.5315 -0.5111
 3909TIP3   OH233361   0.971   4.531   8.529  0.0143  0.5208  0.2985
 3909TIP3    H133362   1.045   4.548   8.470 -1.0506  0.8069 -1.0062
 3909TIP3    H233363   0.923   4.614   8.532 -1.9675 -0.4651 -1.4122
 3910TIP3   OH233364   1.515   3.832   2.044  0.2298 -0.1201 -0.1096
 3910TIP3    H133365   1.563   3.867   2.119 -0.7676 -0.5746  0.7644
 3910TIP3    H233366   1.572   3.764   2.008  1.6425  1.4869 -1.0759
 3911TIP3   OH233367   6.527   1.813   0.905  0.3370  1.1207  0.0092
 3911TIP3    H133368   6.541   1.870   0.829  0.5375  1.0908  0.0216
 3911TIP3    H233369   6.576   1.733   0.883 -1.8874 -0.0390 -1.0948
 3912TIP3   OH233370   4.324   0.841   1.369  0.3555 -0.1420  0.1000
 3912TIP3    H133371   4.394   0.862   1.431 -0.4787 -0.5217  1.1935
 3912TIP3    H233372   4.295   0.925   1.335  1.7481 -0.0114 -0.8427
 3913TIP3   OH233373   3.014   4.854   1.279  0.0836 -0.3648  0.1776
 3913TIP3    H133374   3.011   4.888   1.368 -0.4277  2.2121 -0.7394
 3913TIP3    H233375   2.936   4.891   1.237  1.1963 -0.1333 -1.7883
 3914TIP3   OH233376   2.504   4.206   0.650  0.5327 -0.6189  0.5663
 3914TIP3    H133377   2.535   4.224   0.739  0.7737 -0.0034  0.3591
 3914TIP3    H233378   2.469   4.289   0.619  0.4031 -0.8414  0.1028
 3915TIP3   OH233379   2.596   4.752   0.666  0.1455  0.0973  0.2356
 3915TIP3    H133380   2.627   4.813   0.599  0.1365  0.8750  0.9235
 3915TIP3    H233381   2.517   4.793   0.701 -0.2364 -0.6364  0.2481
 3916TIP3   OH233382   3.452   5.619   1.403 -0.0938 -0.4436  0.0486
 3916TIP3    H133383   3.525   5.559   1.388  0.9905  0.2202  2.3316
 3916TIP3    H233384   3.492   5.706   1.409 -1.5126  0.4628 -2.1093
 3917TIP3   OH233385   4.915   0.847   6.831 -0.1778  0.1655 -0.0766
 3917TIP3    H133386   4.989   0.875   6.885 -0.1330 -1.6760  0.9044
 3917TIP3    H233387   4.874   0.777   6.882 -1.1994 -0.4472 -1.6760
 3918TIP3   OH233388   0.633   0.380   7.968 -0.4245  0.2116  0.2331
 3918TIP3    H133389   0.657   0.469   7.941  1.0422  0.3234  1.7196
 3918TIP3    H233390   0.613   0.335   7.886 -0.1689  1.6152 -0.6435
 3919TIP3   OH233391   4.533   6.760   0.623 -0.0653  0.3815  0.1861
 3919TIP3    H133392   4.540   6.760   0.718  1.7890  0.3210  0.0776
 3919TIP3    H233393   4.595   6.827   0.594 -0.8354  0.6179 -0.9802
 3920TIP3   OH233394   4.971   2.328   7.048 -0.3029  0.7181 -0.2865
 3920TIP3    H133395   5.017   2.407   7.021  0.5066  1.0218  1.7717
 3920TIP3    H233396   5.040   2.266   7.068 -0.8522  0.3425  0.4928
 3921TIP3   OH233397   6.103   0.700   0.469 -0.0302  0.9867  0.0239
 3921TIP3    H133398   6.095   0.638   0.541  0.5237  1.2231  0.2923
 3921TIP3    H233399   6.013   0.730   0.453 -0.5591 -1.0201 -1.1286
 3922TIP3   OH233400   1.842   5.569   0.617  0.3689 -0.0111 -0.2443
 3922TIP3    H133401   1.894   5.642   0.585  0.5783 -0.9448 -2.1702
 3922TIP3    H233402   1.783   5.548   0.544 -1.6664  0.0225  1.3020
 3923TIP3   OH233403   3.152   5.420   7.174 -0.5176 -0.0019 -0.0437
 3923TIP3    H133404   3.169   5.412   7.080 -1.5568 -1.1016 -0.1638
 3923TIP3    H233405   3.223   5.370   7.215  0.6819  1.5369 -0.1433
 3924TIP3   OH233406   5.442   5.112   0.556 -0.0521  0.4665 -0.5305
 3924TIP3    H133407   5.401   5.095   0.641 -2.1988 -1.6412 -1.8808
 3924TIP3    H233408   5.486   5.030   0.534  1.2929  1.2978 -1.0851
 3925TIP3   OH233409   1.324   4.480   8.577  0.9884  0.1660  0.4580
 3925TIP3    H133410   1.277   4.460   8.658  0.3199 -1.3531 -0.2497
 3925TIP3    H233411   1.412   4.445   8.591  0.3564 -1.8040 -0.0779
 3926TIP3   OH233412   2.041   4.992   6.820  0.5122  0.1532  0.0368
 3926TIP3    H133413   2.045   4.912   6.873  0.5860 -1.2654 -2.0030
 3926TIP3    H233414   2.131   5.006   6.791  0.4410  0.8221  0.1218
 3927TIP3   OH233415   0.863   1.206   2.159  0.1606  0.2651  0.2479
 3927TIP3    H133416   0.877   1.126   2.109 -0.0613 -1.3881  2.6605
 3927TIP3    H233417   0.916   1.272   2.114  0.1798 -1.1306 -1.9383
 3928TIP3   OH233418   5.729   0.822   7.345 -0.2436 -0.6387  0.0147
 3928TIP3    H133419   5.799   0.871   7.387  0.4066  0.0571 -1.7595
 3928TIP3    H233420   5.764   0.733   7.339 -0.4097 -0.7850  1.0311
 3929TIP3   OH233421   0.993   3.971   7.657 -0.0368  0.3716  0.2557
 3929TIP3    H133422   1.030   4.023   7.729  1.2777  0.3214 -0.3468
 3929TIP3    H233423   0.931   3.912   7.700  0.9810  0.0897  1.4187
 3930TIP3   OH233424   1.661   6.304   6.659 -0.1344  0.9341 -0.0891
 3930TIP3    H133425   1.755   6.287   6.649 -0.1561  0.1527  0.9255
 3930TIP3    H233426   1.624   6.220   6.685 -1.5274  0.5991 -2.8150
 3931TIP3   OH233427   1.204   1.385   0.557 -0.1366  0.0342  0.5828
 3931TIP3    H133428   1.269   1.450   0.530 -0.2626 -0.0578  0.0473
 3931TIP3    H233429   1.254   1.305   0.570 -0.5546 -1.0656 -3.4302
 3932TIP3   OH233430   6.016   2.248   8.210 -0.2104  0.2335 -0.3145
 3932TIP3    H133431   6.107   2.272   8.228  0.0097  0.6452 -1.8205
 3932TIP3    H233432   6.001   2.170   8.264  1.6430 -0.9616 -1.3812
 3933TIP3   OH233433   0.505   6.105   8.299 -0.5334  0.2444  0.0656
 3933TIP3    H133434   0.449   6.053   8.357  1.0334  0.6379  2.0365
 3933TIP3    H233435   0.492   6.195   8.328 -0.1973  0.5274 -0.6532
 3934TIP3   OH233436   1.267   2.987   7.645  0.0196  0.3687 -0.6549
 3934TIP3    H133437   1.198   2.974   7.710  1.1395  0.2196  0.5312
 3934TIP3    H233438   1.220   2.992   7.562 -1.2991 -1.4789 -0.0836
 3935TIP3   OH233439   6.134   0.972   0.217  0.1007  0.3350 -0.3057
 3935TIP3    H133440   6.226   0.972   0.193  0.4942  0.7124  1.1207
 3935TIP3    H233441   6.087   0.965   0.134  1.4179 -0.6355 -0.9982
 3936TIP3   OH233442   4.842   0.153   7.532 -0.3494  0.8066 -0.8528
 3936TIP3    H133443   4.925   0.176   7.490  0.6265  0.8675  0.9953
 3936TIP3    H233444   4.790   0.233   7.527 -0.1018  0.9260 -1.5795
 3937TIP3   OH233445   1.080   4.565   2.091 -0.6509 -0.1369 -0.0010
 3937TIP3    H133446   0.986   4.556   2.103 -0.6866 -0.5063 -0.5607
 3937TIP3    H233447   1.090   4.599   2.002 -0.2082 -1.1905 -0.3627
 3938TIP3   OH233448   0.275   1.439   7.412  0.2784 -0.6042  0.0998
 3938TIP3    H133449   0.252   1.391   7.491  1.5574 -0.5693  0.5160
 3938TIP3    H233450   0.339   1.383   7.368  1.5580  0.5320  0.4286
 3939TIP3   OH233451   0.104   6.454   2.943  0.1887 -0.3060  0.4394
 3939TIP3    H133452   0.059   6.373   2.919  0.9755 -0.6329  0.0262
 3939TIP3    H233453   0.041   6.523   2.925 -0.8422 -0.8796  1.6948
 3940TIP3   OH233454   6.492   5.962   2.768 -0.0190  0.2709  0.0250
 3940TIP3    H133455   6.444   6.043   2.783 -1.0765 -0.4553  0.7741
 3940TIP3    H233456   6.456   5.926   2.687 -2.0423 -1.1031  1.4309
 3941TIP3   OH233457   6.036   3.847   1.702 -0.3475 -0.5233 -0.4250
 3941TIP3    H133458   6.051   3.939   1.683  0.5155 -0.5386  0.1464
 3941TIP3    H233459   6.037   3.842   1.798  3.0299 -1.6282 -0.3990
 3942TIP3   OH233460   1.495   2.097   0.765 -0.2400 -0.4709 -0.1709
 3942TIP3    H133461   1.502   2.126   0.856 -1.9577  0.8944 -0.4133
 3942TIP3    H233462   1.585   2.080   0.738  0.4292  0.3965  1.3903
 3943TIP3   OH233463   2.878   3.641   1.660 -0.2835 -0.4439  0.3951
 3943TIP3    H133464   2.948   3.667   1.601 -1.1854  1.5793  0.1370
 3943TIP3    H233465   2.797   3.667   1.616 -1.3940 -3.6779  0.1816
 3944TIP3   OH233466   1.117   3.673   1.444  0.3397 -0.0098 -0.1641
 3944TIP3    H133467   1.034   3.650   1.485  0.2496  0.3497 -0.1400
 3944TIP3    H233468   1.124   3.615   1.369  0.5488 -0.7364  0.4099
 3945TIP3   OH233469   5.438   1.387   0.706 -0.4874  0.3707  0.0667
 3945TIP3    H133470   5.382   1.385   0.784 -0.4788 -0.1151  0.0666
 3945TIP3    H233471   5.471   1.477   0.702 -1.4654  0.7328 -0.0805
 3946TIP3   OH233472   5.663   2.345   7.211  0.1309 -0.4354  0.5348
 3946TIP3    H133473   5.687   2.410   7.144 -2.5463  0.3236  0.2025
 3946TIP3    H233474   5.573   2.321   7.190 -0.9838  0.0981  4.0221
 3947TIP3   OH233475   5.891   4.269   6.993  0.2795 -0.1275 -0.3324
 3947TIP3    H133476   5.899   4.174   6.998 -0.1388 -0.1100  2.0740
 3947TIP3    H233477   5.981   4.300   6.985  0.5475 -0.6849  0.3945
 3948TIP3   OH233478   3.440   4.221   1.052 -0.1457  0.8102 -0.8033
 3948TIP3    H133479   3.464   4.136   1.090  0.7176  0.5349 -1.8995
 3948TIP3    H233480   3.495   4.228   0.974 -3.0103  0.5277 -3.0539
 3949TIP3   OH233481   5.544   1.341   1.342  0.2108  0.1264 -0.0185
 3949TIP3    H133482   5.512   1.271   1.399  0.5336  0.3717  0.4730
 3949TIP3    H233483   5.527   1.422   1.391  0.8860  0.3112 -0.0739
 3950TIP3   OH233484   0.240   2.827   0.844  0.2688  0.0946  0.0127
 3950TIP3    H133485   0.259   2.920   0.837 -0.1830  0.2270  0.4605
 3950TIP3    H233486   0.161   2.814   0.791  1.5337 -0.4474 -1.8268
 3951TIP3   OH233487   6.749   3.844   1.371 -0.0181 -0.0248  0.5331
 3951TIP3    H133488   6.840   3.840   1.344  0.0649 -1.6902  0.9502
 3951TIP3    H233489   6.710   3.912   1.315  0.9302 -0.9477 -1.3439
 3952TIP3   OH233490   5.884   4.851   7.904 -0.3048 -0.0699  0.6951
 3952TIP3    H133491   5.969   4.831   7.863 -0.1162  1.1326  0.4739
 3952TIP3    H233492   5.899   4.840   7.998 -0.0985 -0.5494  0.6075
 3953TIP3   OH233493   3.824   5.836   1.644  0.1796 -0.3874 -0.3036
 3953TIP3    H133494   3.854   5.902   1.707 -0.7822 -0.4173  0.2188
 3953TIP3    H233495   3.852   5.869   1.559 -0.0635  0.5778 -0.0223
 3954TIP3   OH233496   6.586   0.517   8.196 -0.2753  0.3127 -0.0602
 3954TIP3    H133497   6.495   0.533   8.220 -0.0971 -0.3260  1.1387
 3954TIP3    H233498   6.604   0.580   8.127 -1.0668  1.7965  1.0290
 3955TIP3   OH233499   3.565   5.720   2.719  0.1162  0.3290 -0.2265
 3955TIP3    H133500   3.506   5.655   2.680 -0.8770  2.0545 -1.7559
 3955TIP3    H233501   3.515   5.757   2.792  0.1754  0.2785 -0.1602
 3956TIP3   OH233502   6.192   2.243   8.468  0.1291  0.2916 -0.4447
 3956TIP3    H133503   6.217   2.319   8.415  0.1807 -0.0941 -0.9822
 3956TIP3    H233504   6.116   2.273   8.518 -1.1540  0.0830 -2.1896
 3957TIP3   OH233505   6.199   4.347   0.920 -0.2453 -0.0661 -0.0002
 3957TIP3    H133506   6.283   4.393   0.908  0.1818 -1.0117 -0.8167
 3957TIP3    H233507   6.146   4.407   0.971  0.5976  0.9765 -0.3078
 3958TIP3   OH233508   4.849   6.340   0.716  0.3343  0.2610  0.3211
 3958TIP3    H133509   4.762   6.304   0.700 -1.3428  3.4369  1.4736
 3958TIP3    H233510   4.900   6.313   0.639 -2.0900 -0.3568 -1.1886
 3959TIP3   OH233511   2.257   0.100   8.397  0.3070 -0.0583  0.2669
 3959TIP3    H133512   2.349   0.128   8.396 -0.1304  1.5168  1.0822
 3959TIP3    H233513   2.232   0.103   8.489 -0.3693 -1.2489  0.1489
 3960TIP3   OH233514   6.265   3.222   0.116 -0.5508 -0.0401  0.1974
 3960TIP3    H133515   6.187   3.232   0.171 -0.5394 -0.3871  0.2779
 3960TIP3    H233516   6.231   3.220   0.027 -0.3860  2.9825 -0.0238
 3961TIP3   OH233517   4.116   3.274   6.580 -0.3377 -0.2696  0.1966
 3961TIP3    H133518   4.028   3.282   6.618 -0.8545 -0.5072 -0.9217
 3961TIP3    H233519   4.134   3.361   6.545 -0.2616 -0.3081  0.1415
 3962TIP3   OH233520   2.907   1.716   8.593  0.2246 -0.0902  0.0466
 3962TIP3    H133521   2.929   1.646   8.654  1.1801  1.1936  1.2527
 3962TIP3    H233522   2.959   1.697   8.515  1.3236 -0.1718  0.7686
 3963TIP3   OH233523   0.700   5.427   6.685 -0.3273 -0.1686 -0.1014
 3963TIP3    H133524   0.648   5.490   6.735 -0.1694 -0.1677  0.0613
 3963TIP3    H233525   0.656   5.422   6.600 -0.5366 -0.0940  0.0021
 3964TIP3   OH233526   5.910   6.587   6.774 -0.0747  0.0509  0.3817
 3964TIP3    H133527   5.968   6.581   6.699 -1.2969  1.1639 -0.7040
 3964TIP3    H233528   5.968   6.601   6.849  1.1438 -0.7556 -0.3808
 3965TIP3   OH233529   4.732   5.554   7.461 -0.5893  0.5627  0.1905
 3965TIP3    H133530   4.779   5.632   7.432  0.1435  0.2856  0.5994
 3965TIP3    H233531   4.640   5.579   7.458 -0.3512  1.5269  0.5376
 3966TIP3   OH233532   1.068   4.731   8.063 -0.0820 -0.1132 -0.5970
 3966TIP3    H133533   1.067   4.777   7.979 -0.0765  0.5555 -0.2383
 3966TIP3    H233534   0.999   4.773   8.114  0.7188  0.3106  0.1568
 3967TIP3   OH233535   2.975   4.554   8.384 -0.1272 -0.2457  0.1358
 3967TIP3    H133536   2.906   4.491   8.364 -0.7662  0.6693 -0.6543
 3967TIP3    H233537   2.968   4.570   8.478 -0.1890 -1.0596  0.2771
 3968TIP3   OH233538   4.398   2.478   1.607 -0.3336 -0.5984 -0.0328
 3968TIP3    H133539   4.303   2.486   1.599 -0.2962  0.0517  0.1067
 3968TIP3    H233540   4.420   2.397   1.562 -0.6933  0.4015 -2.1102
 3969TIP3   OH233541   4.806   3.096   1.310 -0.2292  0.2091  0.1075
 3969TIP3    H133542   4.863   3.025   1.281  0.1904  0.4896  0.2355
 3969TIP3    H233543   4.864   3.157   1.354 -0.4950  0.8898 -0.4516
 3970TIP3   OH233544   2.395   3.948   0.280 -0.4528 -0.1282  0.3296
 3970TIP3    H133545   2.441   4.016   0.329  0.1426 -0.7327  0.6290
 3970TIP3    H233546   2.374   3.989   0.196 -0.5553  0.5824  0.6927
 3971TIP3   OH233547   4.557   0.094   6.578 -0.5594  0.7629 -0.3023
 3971TIP3    H133548   4.596   0.012   6.548 -2.6583  0.5510 -2.7974
 3971TIP3    H233549   4.611   0.162   6.539 -0.2899  0.5263 -0.3415
 3972TIP3   OH233550   4.345   5.122   2.068 -0.0647  0.5854 -0.1851
 3972TIP3    H133551   4.323   5.177   2.143  1.9325  0.3116  0.6638
 3972TIP3    H233552   4.434   5.148   2.044 -0.3793  0.1449 -2.0146
 3973TIP3   OH233553   6.686   4.035   7.143 -0.0799 -0.0751  0.4423
 3973TIP3    H133554   6.747   4.045   7.216  1.5306 -1.9972 -0.5508
 3973TIP3    H233555   6.638   3.954   7.163  1.7019 -1.6823 -1.4504
 3974TIP3   OH233556   2.618   1.446   0.991 -0.2669  0.2852  0.2904
 3974TIP3    H133557   2.671   1.526   0.992 -0.5727  0.5258 -0.9400
 3974TIP3    H233558   2.680   1.376   1.009  0.7502  0.4364 -2.2535
 3975TIP3   OH233559   0.260   2.747   1.443  0.1310  0.6033 -0.1176
 3975TIP3    H133560   0.239   2.681   1.509 -0.9061 -1.9700 -2.7730
 3975TIP3    H233561   0.179   2.797   1.434  0.2466  0.9053  0.4813
 3976TIP3   OH233562   2.227   5.485   0.647 -0.4518  0.2269 -0.2369
 3976TIP3    H133563   2.145   5.442   0.625 -0.4085 -0.4611  0.8991
 3976TIP3    H233564   2.202   5.561   0.699 -0.3215 -0.6898  1.2008
 3977TIP3   OH233565   3.980   5.192   8.660 -0.1010 -0.2489  0.6038
 3977TIP3    H133566   3.894   5.216   8.625 -0.1865 -1.2646  0.0777
 3977TIP3    H233567   3.968   5.191   8.755 -0.4004  0.6001  0.5792
 3978TIP3   OH233568   0.178   4.754   0.058  0.3318 -0.5433  0.0844
 3978TIP3    H133569   0.092   4.791   0.042  1.5979  1.3965 -3.0806
 3978TIP3    H233570   0.191   4.691  -0.013  1.9516  0.1101 -0.2394
 3979TIP3   OH233571   0.361   3.040   1.799 -0.1189 -0.6328  0.5093
 3979TIP3    H133572   0.439   3.085   1.768 -0.9728  1.1187  0.7542
 3979TIP3    H233573   0.383   2.947   1.794  0.7679 -0.3783 -2.7056
 3980TIP3   OH233574   3.316   1.618   7.522  0.3525 -0.0081  0.2671
 3980TIP3    H133575   3.382   1.673   7.481 -0.9519  1.3325 -0.1451
 3980TIP3    H233576   3.281   1.565   7.450  0.4954 -0.2228  0.3539
 3981TIP3   OH233577   0.363   3.819   1.458  0.1284  0.3330  0.0401
 3981TIP3    H133578   0.397   3.829   1.547 -0.3107 -2.6545  0.6541
 3981TIP3    H233579   0.441   3.808   1.403  0.4522 -3.2506  0.9705
 3982TIP3   OH233580   0.329   2.125   8.286 -0.3589 -0.4951 -0.0075
 3982TIP3    H133581   0.302   2.067   8.215 -0.3631 -0.5258  0.0197
 3982TIP3    H233582   0.380   2.069   8.345  1.2015 -0.0718 -0.9121
 3983TIP3   OH233583   3.095   5.705   0.280  0.0465  0.4599  0.2135
 3983TIP3    H133584   3.080   5.783   0.226  1.4724  0.3700 -0.3523
 3983TIP3    H233585   3.154   5.736   0.350  1.4218 -0.2900 -0.5684
 3984TIP3   OH233586   3.921   4.391   6.548 -0.0134 -0.3454  0.1507
 3984TIP3    H133587   3.941   4.454   6.478 -2.7952 -1.6506 -2.0267
 3984TIP3    H233588   3.974   4.314   6.525 -0.6540 -0.6467 -0.3422
 3985TIP3   OH233589   6.028   2.536   2.112 -0.4540  0.3747  0.0747
 3985TIP3    H133590   6.056   2.452   2.075  0.4543  1.2006 -1.1882
 3985TIP3    H233591   6.085   2.601   2.071 -2.0121  1.7659 -0.0117
 3986TIP3   OH233592   6.483   4.612   1.874  0.2160 -0.0598  0.0927
 3986TIP3    H133593   6.412   4.604   1.811  0.0328 -0.6005  0.3596
 3986TIP3    H233594   6.489   4.705   1.893 -0.5983 -0.0376  0.2701
 3987TIP3   OH233595   0.462   3.318   0.613 -0.4356 -0.2051  0.2335
 3987TIP3    H133596   0.395   3.252   0.593 -1.7393  0.7415  1.3646
 3987TIP3    H233597   0.472   3.367   0.531 -0.7232 -0.6923 -0.0989
 3988TIP3   OH233598   2.694   4.610   7.002  0.1610 -0.7358 -0.4781
 3988TIP3    H133599   2.611   4.583   7.041 -0.6396  0.1854 -1.4765
 3988TIP3    H233600   2.734   4.668   7.068  0.1061 -1.3036  0.0684
 3989TIP3   OH233601   4.693   0.078   1.484  0.3575  0.4276  0.0089
 3989TIP3    H133602   4.707  -0.005   1.529 -0.5294 -0.9651 -2.1351
 3989TIP3    H233603   4.602   0.101   1.504 -0.4497 -0.8332 -1.9100
 3990TIP3   OH233604   2.057   3.433   0.364 -0.5118 -0.2390  0.4629
 3990TIP3    H133605   1.975   3.472   0.396 -0.2171  1.3715 -0.6181
 3990TIP3    H233606   2.102   3.505   0.319  0.0093 -1.8542 -1.7718
 3991TIP3   OH233607   5.010   2.162   1.362 -0.6393 -0.3400 -0.0585
 3991TIP3    H133608   4.918   2.139   1.347 -0.7707  0.1337 -0.0024
 3991TIP3    H233609   5.051   2.155   1.276 -0.5525 -1.2993  0.0506
 3992TIP3   OH233610   5.015   6.079   6.935  0.4980 -0.2266  0.0297
 3992TIP3    H133611   4.937   6.082   6.879  0.4484 -0.6213  0.0736
 3992TIP3    H233612   5.035   5.985   6.944  0.7900 -0.1439  0.2780
 3993TIP3   OH233613   3.711   2.939   8.447 -0.1571  0.6785  0.1079
 3993TIP3    H133614   3.654   2.926   8.372 -1.5330 -0.3406  1.2765
 3993TIP3    H233615   3.673   3.013   8.494 -0.1479  0.4229  0.5297
 3994TIP3   OH233616   2.618   6.311   7.705 -0.2540  0.4919  0.2248
 3994TIP3    H133617   2.709   6.339   7.714  0.3725 -1.9796  2.8413
 3994TIP3    H233618   2.623   6.218   7.686 -2.2548  0.3360  0.2476
 3995TIP3   OH233619   0.994   4.467   1.227  0.2418 -0.2132 -0.1167
 3995TIP3    H133620   0.901   4.447   1.218  0.2010  0.0301 -0.2283
 3995TIP3    H233621   1.006   4.548   1.178  0.6897 -0.7129 -0.8445
 3996TIP3   OH233622   6.032   0.352   7.982 -0.5583  0.1692  0.2377
 3996TIP3    H133623   5.979   0.387   8.053  0.4302  2.0356  0.1201
 3996TIP3    H233624   5.990   0.269   7.959 -1.9539  0.4074  1.7582
 3997TIP3   OH233625   1.889   2.562   7.924 -0.2052 -0.4877 -0.3931
 3997TIP3    H133626   1.825   2.493   7.938  0.3438 -1.3113 -1.7368
 3997TIP3    H233627   1.952   2.524   7.862  0.2532  1.1201 -0.9683
 3998TIP3   OH233628   5.497   5.066   8.669  0.2982 -0.0253 -0.5408
 3998TIP3    H133629   5.428   5.002   8.690 -0.0370  0.9217  1.4615
 3998TIP3    H233630   5.542   5.081   8.752  0.9077  1.7299 -1.1473
 3999TIP3   OH233631   2.189   5.279   8.595 -0.4695 -0.3089 -0.0377
 3999TIP3    H133632   2.154   5.255   8.680 -0.2797 -1.4972 -0.2733
 3999TIP3    H233633   2.112   5.295   8.541 -0.6048 -0.2344  0.1768
 4000TIP3   OH233634   2.707   5.070   0.348  0.1079 -0.0737 -0.4224
 4000TIP3    H133635   2.733   5.083   0.256  0.1290 -0.2711 -0.4458
 4000TIP3    H233636   2.623   5.114   0.356 -0.0863 -0.4032 -0.6429
 4001TIP3   OH233637   4.418   1.878   2.193  0.3447  0.0149  0.0641
 4001TIP3    H133638   4.325   1.867   2.213 -0.6137  2.0364 -2.6721
 4001TIP3    H233639   4.424   1.966   2.155  3.5691  0.3049  0.9677
 4002TIP3   OH233640   3.371   3.319   2.334  0.1075 -0.2551  0.1406
 4002TIP3    H133641   3.397   3.235   2.298  0.1254 -0.4673  0.6327
 4002TIP3    H233642   3.287   3.302   2.377 -0.7620  0.3727 -1.2407
 4003TIP3   OH233643   4.115   0.016   2.433  0.4748 -0.2619  0.1481
 4003TIP3    H133644   4.134   0.016   2.527 -1.3648  1.6177  0.5934
 4003TIP3    H233645   4.163   0.092   2.399 -0.6662  0.4330  0.0337
 4004TIP3   OH233646   2.408   1.087   1.448  0.0481  0.0067 -0.4189
 4004TIP3    H133647   2.456   1.157   1.403  0.0699  0.3380  0.1119
 4004TIP3    H233648   2.316   1.115   1.445  0.1832  0.6463  0.8108
 4005TIP3   OH233649   2.574   3.455   2.817 -0.0961  0.1379  0.0671
 4005TIP3    H133650   2.555   3.541   2.779  0.1658  0.2104  0.0984
 4005TIP3    H233651   2.614   3.475   2.902  0.8889  0.0140 -0.3462
 4006TIP3   OH233652   0.847   0.206   0.736  0.3469 -0.0403 -1.3134
 4006TIP3    H133653   0.833   0.300   0.737  1.0394  0.0793 -1.5816
 4006TIP3    H233654   0.931   0.194   0.780 -0.2834 -0.6488 -0.2362
 4007TIP3   OH233655   6.052   3.514   7.834 -0.1247  0.4008  0.5237
 4007TIP3    H133656   5.990   3.501   7.763 -0.2363 -0.3054  0.7378
 4007TIP3    H233657   6.134   3.480   7.801  0.1326  1.2336  0.2815
 4008TIP3   OH233658   1.732   4.067   8.130  0.1360 -0.1530 -0.1500
 4008TIP3    H133659   1.674   4.068   8.206  1.0777  1.8703  0.6115
 4008TIP3    H233660   1.678   4.097   8.058 -0.0546  0.6583  0.3229
 4009TIP3   OH233661   5.992   3.287   0.113  0.3080  0.0946 -0.2699
 4009TIP3    H133662   5.987   3.191   0.112 -2.1288  0.1465 -0.7330
 4009TIP3    H233663   5.950   3.314   0.031 -1.8086  1.5499  1.1754
 4010TIP3   OH233664   3.859   1.992   0.964 -0.2578  0.1040  0.5444
 4010TIP3    H133665   3.854   1.926   0.895 -1.4378 -0.2628  0.9604
 4010TIP3    H233666   3.824   1.949   1.042 -0.5727  1.0489  0.9424
 4011TIP3   OH233667   3.362   6.053   1.597  0.4439 -0.6447 -0.4480
 4011TIP3    H133668   3.405   6.011   1.523 -0.0622  0.6542 -1.5024
 4011TIP3    H233669   3.278   6.008   1.605  0.1594 -0.2464 -1.1812
 4012TIP3   OH233670   2.059   3.946   0.308 -0.9067  0.7064  0.2800
 4012TIP3    H133671   1.969   3.917   0.321 -0.2713 -1.0998  1.0934
 4012TIP3    H233672   2.095   3.885   0.243 -0.4970  1.9170 -0.6484
 4013TIP3   OH233673   5.139   1.495   0.159 -0.4365 -0.0349 -0.2181
 4013TIP3    H133674   5.056   1.500   0.111 -0.5473 -2.1525 -0.3320
 4013TIP3    H233675   5.185   1.576   0.135 -2.3354  1.0719 -0.3511
 4014TIP3   OH233676   0.036   0.039   0.087 -0.7617  0.3653 -0.3113
 4014TIP3    H133677   0.042   0.008  -0.004 -0.5097  1.1602 -0.5712
 4014TIP3    H233678   0.012   0.131   0.079 -1.8326  0.1677  0.4575
 4015TIP3   OH233679   3.711   1.505   2.290 -0.1594  0.0154  0.5674
 4015TIP3    H133680   3.737   1.595   2.309  0.4482 -0.2732  1.1492
 4015TIP3    H233681   3.712   1.461   2.375  3.0418 -1.4176 -0.0682
 4016TIP3   OH233682   2.712   2.741   0.800  0.0040  0.3665 -0.3602
 4016TIP3    H133683   2.734   2.769   0.711 -0.5346 -0.2979 -0.7057
 4016TIP3    H233684   2.725   2.647   0.800  2.4684  0.6113  0.9946
 4017TIP3   OH233685   2.967   6.574   1.817 -0.5422 -0.2755  0.1883
 4017TIP3    H133686   3.024   6.650   1.805 -0.2428 -0.6477 -0.8615
 4017TIP3    H233687   2.908   6.600   1.888 -0.6055  1.0239 -0.3064
 4018TIP3   OH233688   5.819   5.215   0.051  0.1027  0.1214 -0.2454
 4018TIP3    H133689   5.880   5.275   0.094 -0.5510  1.2000 -0.7900
 4018TIP3    H233690   5.733   5.237   0.088  0.1015 -1.9465  1.1448
 4019TIP3   OH233691   1.906   6.245   7.677  0.1850 -0.5959 -0.0812
 4019TIP3    H133692   1.980   6.214   7.730 -0.6966 -2.4490  0.1452
 4019TIP3    H233693   1.862   6.309   7.733  2.8354  2.4001 -1.0793
 4020TIP3   OH233694   0.187   6.766   8.202 -0.1871 -0.8319  0.5979
 4020TIP3    H133695   0.099   6.781   8.237  0.1676 -0.3598  1.3175
 4020TIP3    H233696   0.193   6.825   8.127 -0.7184 -1.3534  0.1397
 4021TIP3   OH233697   4.339   4.875   1.666 -0.1735  0.3171  0.4198
 4021TIP3    H133698   4.256   4.829   1.672  0.2723 -1.0254 -2.2378
 4021TIP3    H233699   4.400   4.820   1.716 -0.2440 -0.4614 -0.3294
 4022TIP3   OH233700   5.316   3.580   0.801 -0.0814 -0.4304  0.3622
 4022TIP3    H133701   5.383   3.525   0.843 -0.7777 -2.3512 -0.8958
 4022TIP3    H233702   5.365   3.643   0.750  0.7664 -0.5187  1.0439
 4023TIP3   OH233703   2.116   1.809   8.384 -0.3677 -0.7481  0.0985
 4023TIP3    H133704   2.065   1.749   8.329 -1.6667 -0.3630  0.8323
 4023TIP3    H233705   2.128   1.887   8.330  0.3529 -1.2348 -0.4531
 4024TIP3   OH233706   0.297   1.607   2.224 -0.6126  0.3297  0.1287
 4024TIP3    H133707   0.384   1.595   2.186 -0.8018 -0.1557 -0.1523
 4024TIP3    H233708   0.303   1.567   2.311 -0.9208 -0.8694 -0.3810
 4025TIP3   OH233709   4.285   3.512   0.986  0.1308  0.1839  0.0688
 4025TIP3    H133710   4.241   3.528   0.903  1.4000  0.7088 -0.5317
 4025TIP3    H233711   4.347   3.441   0.968  1.3704  1.1910  0.1661
 4026TIP3   OH233712   3.855   5.105   0.832 -0.4405 -0.0692  0.1356
 4026TIP3    H133713   3.880   5.192   0.802  2.9581 -0.8755  0.2863
 4026TIP3    H233714   3.845   5.053   0.752 -0.8391  0.0295  0.1159
 4027TIP3   OH233715   0.894   6.184   8.434  0.3847 -0.1260  0.5289
 4027TIP3    H133716   0.974   6.154   8.475 -0.6044 -2.0777  1.1407
 4027TIP3    H233717   0.829   6.185   8.504 -0.1848  1.3385  0.0365
 4028TIP3   OH233718   2.704   5.416   8.595 -0.1759 -0.3039 -0.0785
 4028TIP3    H133719   2.632   5.355   8.609  0.2791 -0.7223  0.4534
 4028TIP3    H233720   2.727   5.406   8.502 -0.0025 -1.0440  0.0465
 4029TIP3   OH233721   5.041   3.914   1.537  0.0118  0.4810 -0.1148
 4029TIP3    H133722   5.020   4.002   1.568  0.2453  0.3677  0.3810
 4029TIP3    H233723   4.956   3.872   1.526 -0.1195  0.9044 -0.7765
 4030TIP3   OH233724   5.076   0.471   7.532  0.4436 -0.1422  0.5824
 4030TIP3    H133725   5.035   0.473   7.445 -1.9747 -4.0757  1.3466
 4030TIP3    H233726   5.159   0.425   7.518 -0.3206 -1.5213  0.3774
 4031TIP3   OH233727   6.283   6.823   8.108 -0.0876 -0.6309 -0.1334
 4031TIP3    H133728   6.343   6.893   8.083 -0.6530  0.3825  1.2815
 4031TIP3    H233729   6.243   6.796   8.025  0.0908  0.7539 -0.7025
 4032TIP3   OH233730   2.506   6.328   2.210  0.0586 -1.0305 -0.1164
 4032TIP3    H133731   2.546   6.405   2.252  0.7809 -0.5968 -1.5440
 4032TIP3    H233732   2.423   6.317   2.256  0.6158 -0.3184  1.1345
 4033TIP3   OH233733   1.032   6.170   1.917  0.2215 -0.0128 -0.2342
 4033TIP3    H133734   0.997   6.142   2.001 -1.1695 -1.0139 -1.1030
 4033TIP3    H233735   1.057   6.090   1.873  2.3182  0.5981 -0.2338
 4034TIP3   OH233736   5.718   0.099   0.865  0.0920 -0.5532  0.5563
 4034TIP3    H133737   5.696   0.020   0.814 -1.4246  0.9025 -1.1672
 4034TIP3    H233738   5.809   0.117   0.842 -0.1101 -0.7851 -0.4804
 4035TIP3   OH233739   0.887   0.354   1.150  0.3712 -0.3904  0.1906
 4035TIP3    H133740   0.828   0.428   1.136 -0.0256 -0.8966 -0.9463
 4035TIP3    H233741   0.828   0.280   1.168  0.5639 -1.0486 -1.6184
 4036TIP3   OH233742   4.530   1.155   1.381 -0.2472  0.0097  0.7313
 4036TIP3    H133743   4.615   1.169   1.423 -0.5333  0.7055  1.0824
 4036TIP3    H233744   4.471   1.215   1.425 -0.8081 -0.0838  0.1176
 4037TIP3   OH233745   5.365   3.616   1.801  0.1064 -0.1188  0.0203
 4037TIP3    H133746   5.457   3.612   1.774  0.6012 -0.9446  1.7110
 4037TIP3    H233747   5.318   3.567   1.733  0.9356  0.1459 -0.7557
 4038TIP3   OH233748   1.830   1.993   7.699 -0.2937 -0.1524  0.2529
 4038TIP3    H133749   1.770   2.030   7.763 -0.6052 -0.5413  0.1887
 4038TIP3    H233750   1.847   1.904   7.730  0.2760 -0.0368  0.2884
 4039TIP3   OH233751   0.294   6.632   2.991 -0.0550  0.3345 -0.0305
 4039TIP3    H133752   0.242   6.552   2.993 -1.3066  1.1318  1.6432
 4039TIP3    H233753   0.343   6.627   2.909 -0.1450 -2.0922  0.0162
 4040TIP3   OH233754   5.595   6.336   7.822  0.2948  0.2601  0.1499
 4040TIP3    H133755   5.644   6.353   7.902  0.9371 -0.2097 -0.1357
 4040TIP3    H233756   5.539   6.413   7.811 -0.1163  0.1416  1.2727
 4041TIP3   OH233757   6.122   6.766   7.885  0.6225  0.6237 -0.2672
 4041TIP3    H133758   6.190   6.727   7.830  1.4488  0.8192  0.5836
 4041TIP3    H233759   6.088   6.839   7.833  0.1120 -0.2829 -1.2506
 4042TIP3   OH233760   1.829   3.430   2.336 -0.2183  1.4380 -1.0419
 4042TIP3    H133761   1.746   3.386   2.321 -0.5232  1.2727  0.8466
 4042TIP3    H233762   1.812   3.522   2.318 -0.4674  1.2490 -1.8151
 4043TIP3   OH233763   0.756   5.345   7.712  0.4064 -0.3385 -0.1959
 4043TIP3    H133764   0.808   5.413   7.756  0.0766  0.2854 -0.7576
 4043TIP3    H233765   0.813   5.315   7.640 -0.4589  1.2770 -1.6453
 4044TIP3   OH233766   1.131   6.362   1.364 -0.7105 -0.3831 -0.1465
 4044TIP3    H133767   1.046   6.319   1.376 -0.2074 -1.7337 -1.2419
 4044TIP3    H233768   1.186   6.326   1.434 -0.8303 -0.0585  0.1163
 4045TIP3   OH233769   5.454   0.706   2.401  0.5861  0.1260  0.6240
 4045TIP3    H133770   5.400   0.760   2.459 -0.7202 -0.1532 -0.2971
 4045TIP3    H233771   5.536   0.694   2.449  0.1596  1.2754  1.6907
 4046TIP3   OH233772   6.736   4.063   7.656 -0.1850 -1.2491 -0.7987
 4046TIP3    H133773   6.703   4.142   7.613 -0.7833 -2.3119 -2.3851
 4046TIP3    H233774   6.666   4.038   7.716 -0.5930 -1.3137 -1.2897
 4047TIP3   OH233775   5.577   6.011   0.760  0.5107  0.2799  0.3641
 4047TIP3    H133776   5.567   6.053   0.674  0.9354 -0.6686 -0.1657
 4047TIP3    H233777   5.487   5.993   0.788  0.3959 -0.3157 -0.3545
 4048TIP3   OH233778   1.549   0.604   6.658 -0.2850 -0.6965  0.4566
 4048TIP3    H133779   1.562   0.698   6.645  0.9912 -0.9478 -0.2060
 4048TIP3    H233780   1.500   0.598   6.740 -1.3745  0.5851 -0.0738
 4049TIP3   OH233781   4.850   1.900   6.819 -0.0001 -0.6557 -0.1730
 4049TIP3    H133782   4.909   1.882   6.745 -0.9140  0.3780 -1.1845
 4049TIP3    H233783   4.908   1.933   6.887  0.6121  0.5810 -1.2386
 4050TIP3   OH233784   5.314   3.121   2.335 -0.1021 -0.0834  0.2953
 4050TIP3    H133785   5.309   3.188   2.404  1.1029  0.3504 -0.0148
 4050TIP3    H233786   5.224   3.092   2.324 -0.2369 -0.8810  2.7572
 4051TIP3   OH233787   6.475   4.201   1.322 -0.2262 -0.9745  0.4370
 4051TIP3    H133788   6.516   4.143   1.259  1.6294 -0.2468  0.9242
 4051TIP3    H233789   6.381   4.194   1.303  0.0097 -3.3332 -0.1618
 4052TIP3   OH233790   3.153   5.387   1.813  0.3566  0.1968 -0.7855
 4052TIP3    H133791   3.200   5.442   1.751 -2.1777  0.7397 -2.3527
 4052TIP3    H233792   3.122   5.313   1.761 -0.9062  0.1057  0.0471
 4053TIP3   OH233793   5.968   3.528   7.560 -0.5981 -0.0923  0.0118
 4053TIP3    H133794   5.989   3.437   7.537 -0.4982  0.2931 -1.5978
 4053TIP3    H233795   5.909   3.556   7.490 -1.3785  0.8086  1.0029
 4054TIP3   OH233796   2.462   2.460   0.574  0.4850  0.0073  0.2086
 4054TIP3    H133797   2.443   2.366   0.566  1.7688 -0.4624  2.1052
 4054TIP3    H233798   2.462   2.492   0.484 -0.7720 -1.6347 -0.4305
 4055TIP3   OH233799   2.156   4.317   8.049 -0.3136  0.0405 -0.5918
 4055TIP3    H133800   2.067   4.338   8.020 -1.1768  2.1706  2.9048
 4055TIP3    H233801   2.212   4.370   7.993 -1.0590 -1.7801 -3.2519
 4056TIP3   OH233802   3.935   0.336   0.224  0.0814 -0.2020  0.6048
 4056TIP3    H133803   3.999   0.390   0.178  1.2028 -3.2711 -1.7060
 4056TIP3    H233804   3.876   0.304   0.155 -0.5322 -1.9087  1.8568
 4057TIP3   OH233805   3.817   6.300   7.967 -0.6392 -0.3830 -0.0909
 4057TIP3    H133806   3.899   6.348   7.957 -1.6316  1.3589 -0.1684
 4057TIP3    H233807   3.757   6.341   7.905 -2.1117 -0.3914  1.2643
 4058TIP3   OH233808   1.581   3.384   2.221  0.2222  0.3922 -0.4809
 4058TIP3    H133809   1.551   3.307   2.269  2.3590  1.1726  2.3477
 4058TIP3    H233810   1.505   3.442   2.219 -0.3039 -0.2111  0.8802
 4059TIP3   OH233811   1.588   1.649   0.674 -0.2491  0.2544 -0.2765
 4059TIP3    H133812   1.560   1.713   0.609  1.1296  0.5544 -0.5982
 4059TIP3    H233813   1.561   1.564   0.637 -1.5926  0.5750 -0.0986
 4060TIP3   OH233814   5.879   2.571   2.599 -0.2663  0.4190 -0.7748
 4060TIP3    H133815   5.854   2.646   2.545  2.6940 -0.6011 -3.9317
 4060TIP3    H233816   5.972   2.585   2.619 -0.5663 -0.6447  1.8612
 4061TIP3   OH233817   4.403   6.443   8.138 -0.1500 -0.0196  0.2510
 4061TIP3    H133818   4.309   6.428   8.136 -0.4042  1.4511  0.3447
 4061TIP3    H233819   4.439   6.375   8.081 -1.3177 -0.1979 -0.3128
 4062TIP3   OH233820   4.376   3.829   0.888  0.0653 -0.6144  0.1617
 4062TIP3    H133821   4.384   3.885   0.964  0.5373 -0.4604  0.0026
 4062TIP3    H233822   4.385   3.888   0.813  0.4722 -0.8870 -0.0069
 4063TIP3   OH233823   6.026   0.050   7.687  0.4777  0.0757 -0.3219
 4063TIP3    H133824   6.080   0.115   7.733  0.3744  1.0434 -1.5050
 4063TIP3    H233825   5.942   0.052   7.733  0.7887  0.0629  0.2564
 4064TIP3   OH233826   1.108   1.103   7.777  0.2629 -0.4002  0.0379
 4064TIP3    H133827   1.038   1.110   7.842 -0.9366 -1.3829 -1.0790
 4064TIP3    H233828   1.187   1.088   7.828 -0.8269 -2.4234  1.2767
 4065TIP3   OH233829   6.539   4.039   2.932  0.3453  0.0844  0.1776
 4065TIP3    H133830   6.572   4.019   2.844  0.0955  1.5727 -0.2698
 4065TIP3    H233831   6.445   4.050   2.920  0.2855  0.1233  0.6752
 4066TIP3   OH233832   6.725   3.777   0.145  0.0369 -0.2307  0.4337
 4066TIP3    H133833   6.757   3.742   0.062 -1.7584 -1.9339  0.3962
 4066TIP3    H233834   6.698   3.866   0.124 -0.4646 -0.6601 -0.8416
 4067TIP3   OH233835   6.764   4.436   2.745 -0.0951 -0.6260 -0.3248
 4067TIP3    H133836   6.792   4.368   2.806 -0.6281 -1.5424 -1.0737
 4067TIP3    H233837   6.811   4.514   2.773  0.3187 -1.2288  0.7286
 4068TIP3   OH233838   3.232   2.064   8.184 -0.0518  0.3747 -0.1538
 4068TIP3    H133839   3.243   2.071   8.278 -0.0556 -0.1129 -0.1132
 4068TIP3    H233840   3.181   1.984   8.171 -1.7369  1.4702 -0.4682
 4069TIP3   OH233841   3.972   1.817   0.103 -0.2213  0.1463  0.1544
 4069TIP3    H133842   3.963   1.800   0.009 -1.0518  0.4544  0.1750
 4069TIP3    H233843   4.067   1.812   0.119 -0.0755  0.0594 -0.6872
 4070TIP3   OH233844   0.851   4.874   1.953 -0.0368 -0.5829 -0.1362
 4070TIP3    H133845   0.768   4.920   1.940 -1.0145 -1.7841  1.4900
 4070TIP3    H233846   0.917   4.934   1.918 -1.3381  1.5898  0.9524
 4071TIP3   OH233847   3.535   2.950   7.592 -0.2310 -0.1231  0.0005
 4071TIP3    H133848   3.480   2.900   7.652 -0.3381  0.1832  0.1576
 4071TIP3    H233849   3.494   3.037   7.588  0.6566  0.3443  0.6937
 4072TIP3   OH233850   4.537   0.522   0.896 -0.3016  0.6140  0.1319
 4072TIP3    H133851   4.590   0.539   0.974 -0.9461  2.5076  0.2102
 4072TIP3    H233852   4.453   0.491   0.930 -0.8214  2.0839  0.2839
 4073TIP3   OH233853   4.786   0.339   0.514 -0.2599 -0.4695  0.1841
 4073TIP3    H133854   4.742   0.336   0.429  0.6661  0.7096 -0.3735
 4073TIP3    H233855   4.783   0.432   0.539  2.1616 -0.2712 -0.0548
 4074TIP3   OH233856   3.532   3.444   2.134  0.2534 -0.1471  0.1268
 4074TIP3    H133857   3.497   3.373   2.187  1.0905 -0.8670 -0.2639
 4074TIP3    H233858   3.627   3.436   2.142  0.3614  0.9012  0.0401
 4075TIP3   OH233859   0.262   6.712   1.395  0.0843 -0.0782 -0.0808
 4075TIP3    H133860   0.311   6.697   1.476  0.7618 -1.4399 -0.7014
 4075TIP3    H233861   0.235   6.803   1.400  0.4256 -0.0307  1.5069
 4076TIP3   OH233862   3.793   4.426   0.466  0.0197 -0.9361 -0.5286
 4076TIP3    H133863   3.716   4.478   0.490 -0.3238 -1.9878  0.8373
 4076TIP3    H233864   3.866   4.471   0.508 -0.0382 -0.6384 -0.7479
 4077TIP3   OH233865   6.259   3.902   0.180 -0.2266  0.3888 -0.9246
 4077TIP3    H133866   6.232   3.906   0.272 -0.3788 -2.9478 -0.6811
 4077TIP3    H233867   6.208   3.969   0.136  0.4783  2.6844  1.5035
 4078TIP3   OH233868   1.508   6.021   1.244 -0.4995 -0.2547 -0.1601
 4078TIP3    H133869   1.518   5.973   1.327 -0.1167 -0.3966 -0.2878
 4078TIP3    H233870   1.449   5.966   1.192  0.8604 -1.1812 -0.7540
 4079TIP3   OH233871   1.838   2.248   8.210 -0.0793  0.1477  0.2267
 4079TIP3    H133872   1.760   2.304   8.215 -1.4987 -1.7791  1.0227
 4079TIP3    H233873   1.882   2.261   8.293  1.1876  2.1689 -0.6987
 4080TIP3   OH233874   4.784   0.874   7.743 -0.4606 -0.5542  0.1434
 4080TIP3    H133875   4.696   0.837   7.756  0.2395 -2.1002  0.6602
 4080TIP3    H233876   4.819   0.884   7.831  1.7190 -4.7195  0.0156
 4081TIP3   OH233877   5.504   3.430   8.025 -0.2933  0.0517  0.0005
 4081TIP3    H133878   5.494   3.366   8.096 -0.5814  1.4277  1.2560
 4081TIP3    H233879   5.544   3.381   7.953 -1.0874 -1.6741  0.6967
 4082TIP3   OH233880   5.098   6.134   2.045 -0.5009 -0.1482 -0.1434
 4082TIP3    H133881   5.038   6.071   2.085  0.9405 -0.4389  1.6786
 4082TIP3    H233882   5.185   6.107   2.074  0.3445  1.4229 -1.0725
 4083TIP3   OH233883   1.796   0.124   0.170 -0.0639  0.5737 -0.1322
 4083TIP3    H133884   1.717   0.083   0.133 -0.3101  1.4018 -0.5381
 4083TIP3    H233885   1.764   0.175   0.245  0.4214 -1.0373  1.2457
 4084TIP3   OH233886   6.457   3.951   6.537 -0.2838  0.0868 -0.7683
 4084TIP3    H133887   6.407   3.894   6.595  1.0530 -1.7260 -1.3149
 4084TIP3    H233888   6.395   4.020   6.512 -1.7045 -0.6463  0.5628
 4085TIP3   OH233889   0.073   1.110   0.695 -0.2860  0.3011  0.6265
 4085TIP3    H133890   0.017   1.112   0.618 -0.4750  0.6529  0.7711
 4085TIP3    H233891   0.152   1.065   0.666 -0.6093 -0.1331  0.4002
 4086TIP3   OH233892   6.366   0.840   1.382 -0.2508  0.3350 -0.3440
 4086TIP3    H133893   6.424   0.765   1.389 -2.2912 -1.2297  0.6712
 4086TIP3    H233894   6.331   0.835   1.293 -0.3324  0.1365 -0.3007
 4087TIP3   OH233895   3.704   3.643   0.803 -0.3810 -0.8183 -0.7335
 4087TIP3    H133896   3.787   3.636   0.756 -1.7623 -1.3729 -3.2429
 4087TIP3    H233897   3.653   3.706   0.753 -1.0773  0.5009  1.4899
 4088TIP3   OH233898   3.964   1.076   2.279  0.0805 -0.1480 -0.0606
 4088TIP3    H133899   3.903   1.097   2.349  1.0735  1.8625  0.2870
 4088TIP3    H233900   3.974   0.981   2.284 -2.4635 -0.4679  0.2697
 4089TIP3   OH233901   1.818   1.724   7.034 -0.4221 -0.0677 -0.8317
 4089TIP3    H133902   1.911   1.727   7.056 -0.6818  1.1653  0.2423
 4089TIP3    H233903   1.790   1.816   7.036 -1.5984 -0.3896 -1.4614
 4090TIP3   OH233904   2.640   5.007   1.614 -0.2226 -0.4654  0.2534
 4090TIP3    H133905   2.693   4.951   1.670 -0.7777 -1.9135 -0.6056
 4090TIP3    H233906   2.552   4.969   1.618 -0.6912  0.5527 -0.0960
 4091TIP3   OH233907   4.649   1.213   2.372 -0.5373 -0.4369  0.4061
 4091TIP3    H133908   4.681   1.297   2.340 -2.3733  0.3852  0.5529
 4091TIP3    H233909   4.725   1.155   2.371  0.3335  0.6508 -1.6114
 4092TIP3   OH233910   1.343   3.573   7.494  0.3850  0.1380  0.4307
 4092TIP3    H133911   1.401   3.607   7.426 -1.6117  0.2276 -1.3367
 4092TIP3    H233912   1.270   3.636   7.496 -1.4793 -1.8684 -0.1489
 4093TIP3   OH233913   1.990   3.826   1.287  0.0968 -0.1329 -0.4725
 4093TIP3    H133914   1.898   3.840   1.308 -1.1536 -0.4011 -4.8011
 4093TIP3    H233915   2.020   3.909   1.251  1.2002 -0.4181 -0.2498
 4094TIP3   OH233916   3.363   6.016   0.309  0.5313 -0.2554  0.8764
 4094TIP3    H133917   3.376   6.031   0.215 -0.2025  0.3360  0.8604
 4094TIP3    H233918   3.405   6.091   0.351  1.4600 -0.8597  1.0737
 4095TIP3   OH233919   2.003   4.338   0.839 -0.6066 -0.1273  0.3610
 4095TIP3    H133920   2.070   4.371   0.778 -0.0567 -1.6002  0.1366
 4095TIP3    H233921   1.975   4.416   0.887 -0.0816  0.8478 -0.8373
 4096TIP3   OH233922   3.403   5.117   1.815 -0.0577  0.2826 -0.5687
 4096TIP3    H133923   3.349   5.110   1.736 -1.8834 -1.5281  0.7456
 4096TIP3    H233924   3.344   5.096   1.887  1.7577  1.0327  1.2435
 4097TIP3   OH233925   3.695   1.951   0.110 -0.4859 -0.3970  0.0161
 4097TIP3    H133926   3.785   1.957   0.079 -0.7800  0.2584 -0.7250
 4097TIP3    H233927   3.692   1.868   0.159  0.5697 -0.3021  0.2498
 4098TIP3   OH233928   3.318   0.349   0.072  0.7264  0.0724 -0.3882
 4098TIP3    H133929   3.304   0.319  -0.018 -1.5598  0.7301 -0.3176
 4098TIP3    H233930   3.259   0.423   0.083 -0.0306 -0.7697  2.0368
 4099TIP3   OH233931   1.405   5.911   1.937 -0.3383  0.0400  0.4793
 4099TIP3    H133932   1.313   5.920   1.962 -0.8140 -1.1182 -0.6859
 4099TIP3    H233933   1.453   5.959   2.003 -1.9383  3.0759 -0.3770
 4100TIP3   OH233934   6.393   5.485   1.329 -0.4137 -0.0320 -0.6388
 4100TIP3    H133935   6.481   5.449   1.315  0.9584  2.6004  0.4734
 4100TIP3    H233936   6.339   5.444   1.261  1.9921 -0.7340 -2.2497
 4101TIP3   OH233937   3.040   3.612   8.207 -0.3942  0.2104 -0.0979
 4101TIP3    H133938   2.996   3.587   8.288 -0.4117  1.2545  0.2298
 4101TIP3    H233939   3.132   3.590   8.222 -0.5125 -0.2983 -0.0925
 4102TIP3   OH233940   0.444   3.355   2.506 -0.1132  0.2284 -0.0351
 4102TIP3    H133941   0.402   3.274   2.535 -1.1256  0.7949  0.1071
 4102TIP3    H233942   0.538   3.334   2.508 -0.3140 -0.7066  0.7148
 4103TIP3   OH233943   0.339   4.476   2.129  0.2554  0.6300  0.1700
 4103TIP3    H133944   0.381   4.517   2.054 -0.6362  0.8183 -0.2399
 4103TIP3    H233945   0.262   4.433   2.093  0.3530 -0.1231  0.8308
 4104TIP3   OH233946   2.633   3.262   1.776  0.5506  0.5222  0.4239
 4104TIP3    H133947   2.716   3.283   1.733  1.3692 -2.0722  0.5834
 4104TIP3    H233948   2.580   3.220   1.708 -0.3286  1.3508  0.5633
 4105TIP3   OH233949   2.439   5.857   0.780  0.0161 -0.0039  0.0795
 4105TIP3    H133950   2.517   5.866   0.835  0.8331  1.2644 -1.2195
 4105TIP3    H233951   2.462   5.790   0.716  0.1990  0.6333 -0.5339
 4106TIP3   OH233952   0.766   6.033   8.223 -0.3993 -0.5988 -0.2922
 4106TIP3    H133953   0.673   6.055   8.232 -0.2257  0.3791 -0.7406
 4106TIP3    H233954   0.812   6.111   8.255  0.2733 -1.0551 -0.1200
 4107TIP3   OH233955   4.667   6.700   8.563  0.0306  0.5227  0.1834
 4107TIP3    H133956   4.649   6.660   8.478 -1.0177  1.9823 -0.3303
 4107TIP3    H233957   4.760   6.721   8.560  0.4395 -1.1729  0.1949
 4108TIP3   OH233958   2.137   3.511   3.080 -0.3216  0.0376  0.2434
 4108TIP3    H133959   2.199   3.567   3.033  0.6806 -1.6286 -0.5136
 4108TIP3    H233960   2.118   3.559   3.160  1.6442  0.8189  0.3083
 4109TIP3   OH233961   5.029   1.825   6.628  0.1495 -0.6313 -0.6120
 4109TIP3    H133962   5.110   1.787   6.661 -0.0717  0.2267  1.0128
 4109TIP3    H233963   5.055   1.908   6.588  0.1573 -0.6922 -0.7345
 4110TIP3   OH233964   1.984   0.784   1.039  0.9061  0.0514 -0.1536
 4110TIP3    H133965   2.072   0.757   1.016  1.3207 -1.1789  2.4780
 4110TIP3    H233966   1.995   0.839   1.117 -0.6970 -1.3342  1.1309
 4111TIP3   OH233967   3.793   4.248   8.234 -0.2194 -0.4491  0.0751
 4111TIP3    H133968   3.734   4.228   8.161  0.0153  1.5396 -0.6971
 4111TIP3    H233969   3.878   4.213   8.207  0.2303  1.5739 -1.3476
 4112TIP3   OH233970   5.556   2.800   0.637 -0.1635  0.1640  0.1041
 4112TIP3    H133971   5.575   2.830   0.726 -0.9719  2.1890 -0.3428
 4112TIP3    H233972   5.497   2.726   0.648  0.8025 -0.4622  1.2536
 4113TIP3   OH233973   0.197   3.610   1.559  0.3108 -0.4396  0.3492
 4113TIP3    H133974   0.176   3.700   1.583 -0.0650 -0.6714  0.9328
 4113TIP3    H233975   0.287   3.614   1.526  0.5230  0.0573  0.9612
 4114TIP3   OH233976   5.230   1.397   8.154 -0.3362 -0.0568 -0.8793
 4114TIP3    H133977   5.135   1.404   8.142 -0.8309 -1.2078  1.7620
 4114TIP3    H233978   5.248   1.439   8.238  1.5270  0.1795 -1.3469
 4115TIP3   OH233979   4.883   1.385   1.869  0.7435  0.3553  0.7994
 4115TIP3    H133980   4.964   1.348   1.833  0.1986  1.0140 -1.2812
 4115TIP3    H233981   4.902   1.478   1.880  0.2841  0.5339  0.2004
 4116TIP3   OH233982   6.555   1.938   8.010 -0.1972  0.7175  0.6111
 4116TIP3    H133983   6.589   1.969   7.926  0.6110  2.0417  1.3848
 4116TIP3    H233984   6.616   1.870   8.037 -0.4958  0.2410  0.1053
 4117TIP3   OH233985   2.297   5.482   1.180  0.1541  0.0521  0.0990
 4117TIP3    H133986   2.251   5.453   1.101  0.1266  2.1009 -0.7129
 4117TIP3    H233987   2.365   5.541   1.147 -0.1226  1.2885  1.6181
 4118TIP3   OH233988   0.911   0.007   8.540 -0.0162 -0.3058 -0.4995
 4118TIP3    H133989   0.975   0.052   8.485 -0.1428  1.6002  0.8074
 4118TIP3    H233990   0.826   0.029   8.501 -0.1306  1.3634  0.5905
 4119TIP3   OH233991   1.920   0.500   7.807  0.0405 -0.6624  0.2147
 4119TIP3    H133992   1.899   0.450   7.729 -0.9704 -0.8998  0.6210
 4119TIP3    H233993   1.996   0.455   7.845 -0.0768 -1.1353 -0.0996
 4120TIP3   OH233994   4.246   6.276   0.313 -0.2196  0.0530 -0.4056
 4120TIP3    H133995   4.165   6.234   0.343  0.4839 -0.2274  1.2118
 4120TIP3    H233996   4.316   6.216   0.342  0.6725  1.1957 -0.1229
 4121TIP3   OH233997   1.100   3.233   1.992  0.2875 -0.1707 -0.2643
 4121TIP3    H133998   1.098   3.152   2.042  0.1055 -0.2677 -0.4269
 4121TIP3    H233999   1.029   3.285   2.027 -0.6575 -0.7418 -1.2489
 4122TIP3   OH234000   1.747   3.454   1.719  0.0039 -0.2676  0.5012
 4122TIP3    H134001   1.799   3.387   1.763 -0.9711 -1.2687  0.1942
 4122TIP3    H234002   1.660   3.415   1.711 -0.4555  0.8364 -0.1691
 4123TIP3   OH234003   4.062   3.318   1.495 -0.1211  0.1169  0.0030
 4123TIP3    H134004   4.138   3.339   1.441  0.2307 -0.8312  0.0998
 4123TIP3    H234005   4.094   3.327   1.585 -0.7483  1.8458  0.0937
 4124TIP3   OH234006   2.835   3.002   7.915 -0.6211  0.3331  0.5065
 4124TIP3    H134007   2.884   3.059   7.975 -0.8652  1.7034 -0.5604
 4124TIP3    H234008   2.743   3.022   7.933 -0.6903  1.1602 -0.6800
 4125TIP3   OH234009   1.867   2.276   0.962  0.1974 -0.1079 -0.8825
 4125TIP3    H134010   1.806   2.278   0.888  1.0976  1.2260 -1.6204
 4125TIP3    H234011   1.831   2.209   1.020 -1.1197 -0.4366 -2.0161
 4126TIP3   OH234012   3.607   4.618   0.580 -0.2592  0.2244 -0.6906
 4126TIP3    H134013   3.593   4.676   0.505  0.7128  2.6534  0.9020
 4126TIP3    H234014   3.601   4.675   0.657  0.0886 -1.9251  1.0480
 4127TIP3   OH234015   0.327   4.801   0.803  0.4568 -0.0878 -1.0430
 4127TIP3    H134016   0.399   4.864   0.804  0.4959 -0.0770  1.1884
 4127TIP3    H234017   0.250   4.852   0.830 -0.0691 -0.4514 -1.8083
 4128TIP3   OH234018   3.170   6.597   7.585  0.0704  0.7456  0.5144
 4128TIP3    H134019   3.238   6.586   7.651  0.7052  2.1639  0.1281
 4128TIP3    H234020   3.166   6.512   7.540  0.4790  0.1580  1.5482
 4129TIP3   OH234021   4.643   5.260   7.923 -0.3999 -0.6943 -0.3825
 4129TIP3    H134022   4.698   5.284   7.848 -0.5065 -2.2495 -0.9936
 4129TIP3    H234023   4.645   5.165   7.925 -1.1909 -0.7044  1.0193
 4130TIP3   OH234024   6.719   5.067   1.141 -0.0805 -0.2981 -0.2213
 4130TIP3    H134025   6.635   5.033   1.174  0.5297 -0.2643  1.4294
 4130TIP3    H234026   6.770   5.085   1.219  0.7633  1.5662 -1.1519
 4131TIP3   OH234027   3.752   5.196   8.345  0.2118  0.0400  0.2093
 4131TIP3    H134028   3.743   5.103   8.327 -3.1526  0.2800  0.1155
 4131TIP3    H234029   3.738   5.204   8.440  3.5017  0.2698  0.8155
 4132TIP3   OH234030   6.525   5.277   8.322  0.2132 -0.1945  0.9289
 4132TIP3    H134031   6.524   5.317   8.409  1.0021 -2.8502  2.2672
 4132TIP3    H234032   6.618   5.266   8.301  0.0324 -1.1678  0.5715
 4133TIP3   OH234033   5.402   2.275   7.882  0.1984 -0.2087  0.3837
 4133TIP3    H134034   5.475   2.280   7.943  0.3385  1.6701  0.1138
 4133TIP3    H234035   5.416   2.193   7.834  1.8279 -0.1364  0.6823
 4134TIP3   OH234036   5.093   3.411   7.502 -0.2615  0.0940  0.9273
 4134TIP3    H134037   5.101   3.359   7.423 -1.0333 -0.0353  0.9227
 4134TIP3    H234038   5.102   3.348   7.574 -0.7731  0.0147  0.9257
 4135TIP3   OH234039   0.341   6.121   1.041  0.0353  0.2241  0.6835
 4135TIP3    H134040   0.372   6.103   0.952  1.8193 -0.1305  1.3286
 4135TIP3    H234041   0.386   6.056   1.095 -1.6770 -0.1267  1.7591
 4136TIP3   OH234042   5.377   1.445   0.417 -0.8008 -0.2578  0.1955
 4136TIP3    H134043   5.376   1.404   0.503  0.2292  0.1349  0.4132
 4136TIP3    H234044   5.398   1.537   0.434  0.2140 -0.3326 -0.5090
 4137TIP3   OH234045   2.456   6.116   6.124  0.1305 -0.0405 -0.5519
 4137TIP3    H134046   2.374   6.117   6.173 -0.0002  0.7010 -0.7675
 4137TIP3    H234047   2.482   6.208   6.120  0.3247 -0.1266 -1.5526
 4138TIP3   OH234048   0.705   2.782   2.199 -0.0148 -0.0843  0.3927
 4138TIP3    H134049   0.767   2.726   2.244 -0.0243 -1.8147 -1.5753
 4138TIP3    H234050   0.731   2.871   2.222  2.0831 -0.8062  1.0244
 4139TIP3   OH234051   5.946   3.458   2.342  0.1947 -0.4932  0.2883
 4139TIP3    H134052   5.913   3.383   2.392  0.1550 -0.7055 -0.0532
 4139TIP3    H234053   5.962   3.525   2.408 -0.8313 -0.4157  0.4642
 4140TIP3   OH234054   0.310   4.093   0.086 -0.3849  0.0209  0.4867
 4140TIP3    H134055   0.282   4.037   0.159 -0.2891 -0.5859  0.0675
 4140TIP3    H234056   0.236   4.151   0.070 -1.4775 -1.5967 -0.6477
 4141TIP3   OH234057   2.841   6.017   6.825  0.0845 -1.0195 -0.5745
 4141TIP3    H134058   2.868   5.975   6.744 -0.5329  0.5313 -1.6399
 4141TIP3    H234059   2.916   6.072   6.850 -0.1000 -0.7226 -0.6640
 4142TIP3   OH234060   2.124   6.466   1.215 -0.1311 -0.0663  0.0808
 4142TIP3    H134061   2.065   6.391   1.206  1.2522 -1.1323 -0.6609
 4142TIP3    H234062   2.202   6.429   1.257  1.5131  0.3578 -2.3413
 4143TIP3   OH234063   2.203   0.706   7.678  0.2177  0.3130  0.2770
 4143TIP3    H134064   2.118   0.728   7.717  0.6196 -0.0261  1.3611
 4143TIP3    H234065   2.227   0.785   7.629 -0.6265  0.4868  0.1161
 4144TIP3   OH234066   4.732   2.766   1.151  0.0637 -0.3610 -0.5200
 4144TIP3    H134067   4.700   2.676   1.145  0.1121 -0.5528  1.2806
 4144TIP3    H234068   4.661   2.814   1.194 -0.1216  0.5765 -1.8095
 4145TIP3   OH234069   1.145   0.621   7.716  0.6257 -0.2958 -0.1936
 4145TIP3    H134070   1.056   0.648   7.736  1.6658  1.6111  2.4655
 4145TIP3    H234071   1.184   0.696   7.672  1.9936  0.6114  2.3522
 4146TIP3   OH234072   3.022   6.392   2.126  0.3350  0.1963  0.2600
 4146TIP3    H134073   3.107   6.411   2.086  0.3598  0.0707  0.2532
 4146TIP3    H234074   2.994   6.475   2.163 -0.0117  0.4846 -0.6275
 4147TIP3   OH234075   3.477   0.806   2.051 -0.2257 -0.0598 -0.1653
 4147TIP3    H134076   3.422   0.881   2.029  0.0648  0.0559 -0.4927
 4147TIP3    H234077   3.540   0.840   2.115 -0.3304 -0.1182 -0.0286
 4148TIP3   OH234078   5.114   2.129   7.300 -0.9339  0.5311  0.0397
 4148TIP3    H134079   5.061   2.199   7.338  0.7184  1.4923  0.6766
 4148TIP3    H234080   5.133   2.159   7.211  1.3519  1.8849  0.9092
 4149TIP3   OH234081   0.866   5.076   7.807  0.3684  0.4797 -0.2073
 4149TIP3    H134082   0.940   5.028   7.846 -0.3418 -1.2618 -0.9229
 4149TIP3    H234083   0.819   5.111   7.883  0.5420 -0.5284  0.3944
 4150TIP3   OH234084   2.999   5.617   2.278 -0.6659  0.6592 -0.4854
 4150TIP3    H134085   3.017   5.658   2.362 -1.6864  0.3266 -0.0948
 4150TIP3    H234086   3.002   5.523   2.296 -1.1951  0.5899 -0.7478
 4151TIP3   OH234087   1.682   4.678   1.878  0.1101  0.2328 -0.3022
 4151TIP3    H134088   1.639   4.606   1.923 -1.1819  1.1293 -0.0295
 4151TIP3    H234089   1.766   4.643   1.850 -1.1500 -1.9085 -1.6882
 4152TIP3   OH234090   0.034   3.257   0.428 -0.3069  0.5009  0.1799
 4152TIP3    H134091  -0.025   3.320   0.386 -0.6840  1.2882  1.7963
 4152TIP3    H234092   0.121   3.284   0.400 -0.6025  0.2168 -1.0862
 4153TIP3   OH234093   2.196   2.233   7.401 -0.5276  0.2123  0.0265
 4153TIP3    H134094   2.119   2.184   7.429 -0.7858  0.1286 -0.8108
 4153TIP3    H234095   2.165   2.292   7.333  0.0297  0.6332  0.1251
 4154TIP3   OH234096   5.314   6.068   0.813 -0.5665 -0.2598  0.6420
 4154TIP3    H134097   5.281   6.150   0.849  1.8730  1.0097  0.2226
 4154TIP3    H234098   5.246   6.040   0.751 -1.2731  1.6939  0.4516
 4155TIP3   OH234099   3.792   5.776   8.387  0.3875 -0.0783 -0.0500
 4155TIP3    H134100   3.836   5.694   8.409  0.3223 -0.4146 -1.1250
 4155TIP3    H234101   3.786   5.775   8.292  0.0304  0.9971 -0.0494
 4156TIP3   OH234102   3.802   0.273   1.772 -0.5209 -0.5000  0.2027
 4156TIP3    H134103   3.727   0.216   1.762 -0.9708  0.2389 -0.8200
 4156TIP3    H234104   3.783   0.325   1.850 -2.2759  1.3566 -1.3232
 4157TIP3   OH234105   2.526   0.661   2.291  0.3385 -0.6147 -0.8953
 4157TIP3    H134106   2.547   0.660   2.385 -1.3796  0.6023 -0.4550
 4157TIP3    H234107   2.503   0.752   2.272  0.7884 -0.8151 -2.5509
 4158TIP3   OH234108   2.091   2.365   2.096  0.6006 -0.0667  0.1719
 4158TIP3    H134109   2.108   2.303   2.167  0.2761  0.6235  0.8596
 4158TIP3    H234110   2.002   2.343   2.067  0.3371  0.3262  0.6756
 4159TIP3   OH234111   6.356   4.379   0.260 -0.0588 -0.3759  0.6316
 4159TIP3    H134112   6.432   4.338   0.299  0.4780  0.2132  0.2297
 4159TIP3    H234113   6.340   4.330   0.179  0.9188  0.5220 -0.1314
 4160TIP3   OH234114   6.335   3.467   7.843  0.3693 -0.0693 -0.0444
 4160TIP3    H134115   6.307   3.479   7.753 -1.7179 -2.7198  0.1214
 4160TIP3    H234116   6.425   3.434   7.836  0.7828  1.1788 -1.0161
 4161TIP3   OH234117   3.670   1.056   7.287 -0.4157  0.2043  0.1585
 4161TIP3    H134118   3.584   1.077   7.323 -1.2953  1.3520 -2.4412
 4161TIP3    H234119   3.697   1.136   7.242  0.8905 -0.9329 -1.1660
 4162TIP3   OH234120   1.319   4.757   1.632  0.1771 -0.2340  0.0070
 4162TIP3    H134121   1.250   4.694   1.654 -1.0051  0.0290 -2.6200
 4162TIP3    H234122   1.280   4.814   1.567  2.6355  0.4513 -0.9939
 4163TIP3   OH234123   3.061   4.782   7.827 -0.5377  0.2150  0.2362
 4163TIP3    H134124   3.089   4.839   7.899  0.3576 -0.3083  0.3116
 4163TIP3    H234125   3.122   4.801   7.756 -1.1316  0.3879 -0.2414
 4164TIP3   OH234126   5.257   5.151   1.733 -0.3476  0.4013  0.2377
 4164TIP3    H134127   5.256   5.062   1.767  0.0603  0.1153 -0.4942
 4164TIP3    H234128   5.273   5.205   1.810 -0.5552 -0.1540  0.6792
 4165TIP3   OH234129   2.788   1.661   1.025 -0.1813  0.0669 -0.4224
 4165TIP3    H134130   2.734   1.740   1.029 -1.5174 -0.7530 -1.0708
 4165TIP3    H234131   2.866   1.687   0.976 -1.0674  0.7582 -1.5286
 4166TIP3   OH234132   1.767   1.094   7.873  0.0055 -0.4304  0.0086
 4166TIP3    H134133   1.846   1.085   7.820  0.9168 -1.1721  1.4312
 4166TIP3    H234134   1.728   1.006   7.873 -0.7165 -0.1174 -0.5183
 4167TIP3   OH234135   6.639   2.132   1.452 -0.0670 -0.7616 -0.3732
 4167TIP3    H134136   6.623   2.205   1.392 -1.2284  0.7174  1.6087
 4167TIP3    H234137   6.560   2.126   1.505  1.0780 -1.6647  1.3410
 4168TIP3   OH234138   0.062   1.274   7.736  0.3124 -0.2558  0.5837
 4168TIP3    H134139   0.134   1.334   7.718  0.1335 -0.4040 -0.7401
 4168TIP3    H234140   0.094   1.217   7.806  0.8122  0.7925  1.2254
 4169TIP3   OH234141   2.381   1.951   1.735 -0.2867  0.0007 -0.1544
 4169TIP3    H134142   2.310   1.991   1.684 -0.0278  1.6329  0.6924
 4169TIP3    H234143   2.446   1.925   1.669 -1.4991 -1.2221 -0.9175
 4170TIP3   OH234144   5.402   6.763   0.630  0.0129  0.1747 -0.2312
 4170TIP3    H134145   5.339   6.833   0.644 -0.7832 -0.1016 -2.1342
 4170TIP3    H234146   5.369   6.690   0.681  0.7474  1.0703  1.6138
 4171TIP3   OH234147   5.655   6.353   0.834 -0.2687  0.7207 -0.1244
 4171TIP3    H134148   5.614   6.274   0.800 -0.2095  0.2818  0.7969
 4171TIP3    H234149   5.583   6.414   0.849 -0.1827  1.3733 -2.1493
 4172TIP3   OH234150   0.310   2.443   2.260  0.2245 -0.3208  0.0920
 4172TIP3    H134151   0.344   2.521   2.216 -0.5240  0.1732  0.3653
 4172TIP3    H234152   0.288   2.382   2.189 -1.6894  0.7593 -0.3225
 4173TIP3   OH234153   5.810   4.401   1.475 -0.3439  0.4890 -0.0391
 4173TIP3    H134154   5.734   4.344   1.489 -0.1582  0.3384  0.3730
 4173TIP3    H234155   5.885   4.342   1.484 -0.1953  0.0781 -2.9608
 4174TIP3   OH234156   4.885   0.536   7.277 -0.1196  0.0245  0.2346
 4174TIP3    H134157   4.892   0.442   7.262 -0.9287  0.2142 -1.5494
 4174TIP3    H234158   4.953   0.575   7.221 -1.2866  0.6005 -0.8470
 4175TIP3   OH234159   6.087   3.603   7.112 -0.3234  0.3699  0.0388
 4175TIP3    H134160   6.040   3.669   7.062 -2.1792  0.2158  1.4762
 4175TIP3    H234161   6.080   3.523   7.060  0.3447  0.8464 -0.8188
 4176TIP3   OH234162   0.590   0.452   8.724  0.4127  0.0589 -0.4951
 4176TIP3    H134163   0.604   0.380   8.663  1.6379  1.1858 -1.5801
 4176TIP3    H234164   0.507   0.491   8.697 -0.7766 -1.4768  0.7102
 4177TIP3   OH234165   0.180   3.098   8.720 -0.4134 -0.2652 -0.1508
 4177TIP3    H134166   0.210   3.013   8.688 -0.7343  0.6295 -3.1788
 4177TIP3    H234167   0.085   3.094   8.714 -0.4055  0.5739 -1.2873
 4178TIP3   OH234168   1.433   5.906   6.671 -0.2072  0.1062 -0.7949
 4178TIP3    H134169   1.407   5.889   6.580 -0.4453 -1.7421 -0.4127
 4178TIP3    H234170   1.445   5.819   6.709  0.4079  0.8634  0.8091
 4179TIP3   OH234171   4.322   3.764   8.336  0.1583 -0.5540  1.0705
 4179TIP3    H134172   4.299   3.684   8.288 -0.0331 -0.3454  0.8127
 4179TIP3    H234173   4.382   3.810   8.278  1.2130 -1.0791  1.7287
 4180TIP3   OH234174   2.411   6.131   6.615 -0.1273  0.7527 -0.2585
 4180TIP3    H134175   2.456   6.109   6.534  0.9468  0.9629  0.2613
 4180TIP3    H234176   2.447   6.071   6.680  0.6701  2.0258  0.5243
 4181TIP3   OH234177   5.706   6.662   6.042 -0.0701 -0.1005 -0.4257
 4181TIP3    H134178   5.667   6.667   6.129  3.6111 -0.3584  1.4408
 4181TIP3    H234179   5.767   6.736   6.038  1.8517 -1.6308 -1.6003
 4182TIP3   OH234180   2.600   4.025   2.520 -0.3557  0.6975  0.2754
 4182TIP3    H134181   2.628   3.981   2.600  1.5651 -1.0323 -1.2278
 4182TIP3    H234182   2.662   4.097   2.509 -0.7839  1.1014  0.4527
 4183TIP3   OH234183   4.757   2.589   2.709  0.1052  0.0828 -0.0888
 4183TIP3    H134184   4.741   2.537   2.629 -2.6423  0.3868  0.1569
 4183TIP3    H234185   4.738   2.528   2.780 -1.0129  0.7669  0.2287
 4184TIP3   OH234186   5.102   6.306   6.776  0.3862 -0.0103  0.0549
 4184TIP3    H134187   5.035   6.355   6.728  1.1127 -0.0702 -1.0625
 4184TIP3    H234188   5.053   6.244   6.830 -0.4662  0.2679 -0.3879
 4185TIP3   OH234189   2.123   4.928   1.270  0.3161  0.1092 -0.2961
 4185TIP3    H134190   2.088   4.895   1.352  1.6141 -1.0592 -0.1786
 4185TIP3    H234191   2.063   4.998   1.245 -1.9178 -1.5798  0.0093
 4186TIP3   OH234192   6.253   0.867   1.825  0.2486  0.0028  0.0982
 4186TIP3    H134193   6.169   0.835   1.858  0.4748 -0.2731  0.4113
 4186TIP3    H234194   6.233   0.899   1.737 -0.4106  0.9436  0.5622
 4187TIP3   OH234195   3.042   5.857   7.363  0.0799 -0.3894  0.5752
 4187TIP3    H134196   2.992   5.893   7.290 -0.9592  0.6594  1.7583
 4187TIP3    H234197   3.105   5.926   7.385  1.0542 -1.0987  0.0538
 4188TIP3   OH234198   6.306   2.604   1.764 -0.2916  0.3137 -0.2103
 4188TIP3    H134199   6.282   2.679   1.709 -0.3819  1.3206  1.1700
 4188TIP3    H234200   6.224   2.554   1.772 -0.1590 -0.1380 -1.3895
 4189TIP3   OH234201   5.690   6.029   2.427  0.3426  0.0522  0.3649
 4189TIP3    H134202   5.599   6.007   2.407  0.5921  0.2697 -1.1225
 4189TIP3    H234203   5.692   6.039   2.522 -1.4519  1.2431  0.3188
 4190TIP3   OH234204   5.383   6.184   1.311  0.3355 -0.1856  0.5185
 4190TIP3    H134205   5.459   6.201   1.366  0.4662  1.4738 -0.1280
 4190TIP3    H234206   5.314   6.239   1.347  0.9892  2.6342 -2.1317
 4191TIP3   OH234207   0.824   1.629   0.515 -0.2864 -0.2587 -0.1623
 4191TIP3    H134208   0.812   1.666   0.427 -0.3384 -0.5402 -0.2743
 4191TIP3    H234209   0.805   1.701   0.574 -1.6252 -0.4413 -0.3561
 4192TIP3   OH234210   5.376   5.372   7.276  0.4608 -0.8440  0.1881
 4192TIP3    H134211   5.466   5.403   7.262  1.5233 -2.7371  2.2091
 4192TIP3    H234212   5.336   5.376   7.189  1.3192  3.3234 -0.2431
 4193TIP3   OH234213   2.444   5.684   1.493 -0.2635  0.0146  0.1742
 4193TIP3    H134214   2.482   5.609   1.447 -0.9924 -0.3662  0.1780
 4193TIP3    H234215   2.352   5.660   1.507 -0.3732  0.6810  0.6585
 4194TIP3   OH234216   2.760   4.583   1.746  0.4101 -0.4684 -0.1844
 4194TIP3    H134217   2.721   4.545   1.667  2.0578 -0.0120 -1.2615
 4194TIP3    H234218   2.828   4.521   1.771  0.4442 -0.2002  0.4015
 4195TIP3   OH234219   4.086   5.742   7.500  0.2485  0.2858 -0.1923
 4195TIP3    H134220   4.144   5.809   7.466 -0.6282  2.1280  1.7193
 4195TIP3    H234221   4.144   5.669   7.524  1.8575  2.1130  1.8179
 4196TIP3   OH234222   0.113   3.780   1.226  0.2327  0.7286 -0.7856
 4196TIP3    H134223   0.149   3.706   1.177  1.1892  0.0432  0.8601
 4196TIP3    H234224   0.186   3.809   1.281 -0.9749  1.0140  0.7234
 4197TIP3   OH234225   1.251   4.319   1.096  0.1407 -0.1600 -0.0285
 4197TIP3    H134226   1.183   4.358   1.152 -0.3843  0.7363 -1.2536
 4197TIP3    H234227   1.218   4.231   1.077  1.0519 -1.0858  2.2660
 4198TIP3   OH234228   0.849   1.446   7.792  0.1666 -0.3251 -0.4761
 4198TIP3    H134229   0.822   1.469   7.881 -1.0420  1.1413 -1.1717
 4198TIP3    H234230   0.944   1.450   7.793  0.2463 -1.5291  1.0272
 4199TIP3   OH234231   2.171   3.283   2.898 -0.0138 -0.0184 -0.2184
 4199TIP3    H134232   2.162   3.358   2.956 -2.0091  1.0950 -1.8097
 4199TIP3    H234233   2.090   3.233   2.910 -0.1951 -0.0876 -1.5205
 4200TIP3   OH234234   6.747   3.191   7.138  0.4066 -0.2208 -0.2769
 4200TIP3    H134235   6.799   3.128   7.088  1.1504  0.8119 -0.8355
 4200TIP3    H234236   6.805   3.267   7.148 -0.9543  0.9219 -0.8227
 4201TIP3   OH234237   0.620   0.262   2.135 -0.6578  0.0661  0.1605
 4201TIP3    H134238   0.674   0.337   2.160  0.5653 -0.2381 -1.4089
 4201TIP3    H234239   0.547   0.263   2.197 -0.3181  2.1405  0.6078
 4202TIP3   OH234240   0.876   6.390   0.865 -0.6058 -0.3380  0.1329
 4202TIP3    H134241   0.916   6.303   0.857 -1.1975 -0.4816 -1.7852
 4202TIP3    H234242   0.949   6.451   0.854 -0.5409 -0.6128 -1.1806
 4203TIP3   OH234243   1.767   3.362   0.473  0.5798 -0.1766  0.4190
 4203TIP3    H134244   1.754   3.402   0.559  0.3313  1.2076 -0.2440
 4203TIP3    H234245   1.807   3.277   0.492 -0.1391 -0.2012  1.9361
 4204TIP3   OH234246   3.826   6.164   1.393 -0.2082  0.1598  0.5649
 4204TIP3    H134247   3.830   6.074   1.425  2.2283  0.1845  0.4973
 4204TIP3    H234248   3.769   6.209   1.456 -0.4946 -1.1453  1.2761
 4205TIP3   OH234249   0.485   1.772   8.373 -0.6404 -0.2033  0.1197
 4205TIP3    H134250   0.556   1.740   8.318  0.5454 -1.1205  2.0931
 4205TIP3    H234251   0.410   1.716   8.350  0.9241 -3.4895  2.2386
 4206TIP3   OH234252   6.542   1.170   1.662  0.0267  0.2014  0.3103
 4206TIP3    H134253   6.492   1.243   1.628  1.0558  1.3152  1.1008
 4206TIP3    H234254   6.580   1.128   1.585  0.0818  0.9864 -0.0956
 4207TIP3   OH234255   5.377   1.140   0.529 -0.1081  0.6228  0.8008
 4207TIP3    H134256   5.448   1.187   0.573 -1.0968  2.5877  0.4232
 4207TIP3    H234257   5.299   1.158   0.582 -0.7482  0.4877 -0.0580
 4208TIP3   OH234258   5.119   4.966   6.946  0.2382 -0.3569 -0.0699
 4208TIP3    H134259   5.066   5.021   7.003  1.0634 -1.3782  1.7869
 4208TIP3    H234260   5.181   5.026   6.906  0.1387  0.2948  0.7165
 4209TIP3   OH234261   0.974   1.091   8.048 -0.2464  0.5691 -0.0048
 4209TIP3    H134262   0.995   1.095   8.142  3.0641 -0.1532 -0.5848
 4209TIP3    H234263   0.949   1.000   8.033 -0.4153  0.5964  0.1069
 4210TIP3   OH234264   1.851   6.595   7.628 -0.1828 -0.0540 -0.1400
 4210TIP3    H134265   1.943   6.599   7.601 -0.0988 -1.8591 -0.2064
 4210TIP3    H234266   1.854   6.589   7.723 -0.1118 -2.0287 -0.2290
 4211TIP3   OH234267   6.652   5.488   2.243 -0.9162  0.2314  0.4286
 4211TIP3    H134268   6.679   5.417   2.185 -0.6859  0.3327  0.4137
 4211TIP3    H234269   6.576   5.452   2.290 -0.0805 -0.4544  1.2871
 4212TIP3   OH234270   3.471   3.520   7.607  0.0246  0.1066  0.1815
 4212TIP3    H134271   3.538   3.459   7.577  0.5119  0.4409  0.5589
 4212TIP3    H234272   3.404   3.519   7.539 -0.0994 -1.0380  0.3029
 4213TIP3   OH234273   2.883   3.040   0.223  0.2634  0.1687  0.4909
 4213TIP3    H134274   2.922   3.088   0.150  0.2735 -0.0957  0.3215
 4213TIP3    H234275   2.945   2.969   0.241 -0.2556 -0.4043  0.0586
 4214TIP3   OH234276   6.144   5.011   6.888 -0.0973 -0.2280 -0.0550
 4214TIP3    H134277   6.072   4.970   6.937 -2.0687  0.4739 -2.1560
 4214TIP3    H234278   6.176   4.942   6.830 -0.1460 -0.1307 -0.2001
 4215TIP3   OH234279   5.479   2.160   1.133 -0.7925  0.0999  0.5316
 4215TIP3    H134280   5.413   2.092   1.121  1.4036 -2.1163 -0.0416
 4215TIP3    H234281   5.523   2.165   1.048  1.8431 -0.9434  1.7303
 4216TIP3   OH234282   1.761   6.060   6.993  0.1079  0.5375  0.1527
 4216TIP3    H134283   1.709   6.036   6.917 -1.3488  1.1689  0.9133
 4216TIP3    H234284   1.720   6.140   7.027  2.8728  2.3501 -0.4569
 4217TIP3   OH234285   0.145   5.446   8.173 -0.2684 -0.5295  0.3243
 4217TIP3    H134286   0.095   5.519   8.210 -0.4174  0.5931 -1.9136
 4217TIP3    H234287   0.078   5.380   8.153 -0.2016 -1.0945  1.8056
 4218TIP3   OH234288   0.937   5.683   2.201 -0.0366  0.6083 -0.2572
 4218TIP3    H134289   0.997   5.609   2.188  0.2868  0.5881  1.1679
 4218TIP3    H234290   0.855   5.654   2.161  0.1388 -0.4588  0.1117
 4219TIP3   OH234291   6.264   2.101   0.815  0.5426 -0.1543  0.1414
 4219TIP3    H134292   6.213   2.070   0.741  2.7240 -0.5936 -1.2684
 4219TIP3    H234293   6.214   2.175   0.850 -2.9813 -2.8349  1.3619
 4220TIP3   OH234294   0.353   3.134   2.167 -0.2713  0.5871 -0.1076
 4220TIP3    H134295   0.341   3.222   2.203 -0.4167  0.9462 -1.0231
 4220TIP3    H234296   0.448   3.120   2.170 -0.2502  0.7601  0.0688
 4221TIP3   OH234297   0.560   2.068   2.175  0.3032 -0.0773 -0.1747
 4221TIP3    H134298   0.557   2.156   2.213 -1.0723  0.0425 -0.4812
 4221TIP3    H234299   0.652   2.042   2.180  0.4532  0.6639  1.5412
 4222TIP3   OH234300   6.626   0.172   1.172 -0.2682  0.1575  0.2186
 4222TIP3    H134301   6.675   0.134   1.099  0.3955  0.7318  0.3549
 4222TIP3    H234302   6.672   0.142   1.250  1.5146  2.7664  0.3091
 4223TIP3   OH234303   4.303   6.044   7.733 -1.0874 -0.6800  0.0102
 4223TIP3    H134304   4.290   5.968   7.676 -2.4226  0.2292 -0.9505
 4223TIP3    H234305   4.228   6.100   7.716 -0.3130  0.7058  0.9620
 4224TIP3   OH234306   3.808   2.215   7.500 -0.1186 -0.2360 -0.1448
 4224TIP3    H134307   3.849   2.171   7.574  0.6145  0.0544 -0.3567
 4224TIP3    H234308   3.826   2.158   7.425  0.3953  0.1537 -0.3327
 4225TIP3   OH234309   1.379   0.208   1.698  0.3592  0.0130 -0.0774
 4225TIP3    H134310   1.450   0.233   1.757  0.4537  0.8331 -0.5343
 4225TIP3    H234311   1.306   0.265   1.723  0.1811 -0.1178 -0.2933
 4226TIP3   OH234312   2.427   1.865   0.533 -0.2270 -0.4783  0.5606
 4226TIP3    H134313   2.398   1.956   0.532 -0.4144 -0.5397 -0.4387
 4226TIP3    H234314   2.351   1.815   0.564 -0.1228 -0.3018  1.1122
 4227TIP3   OH234315   3.202   4.803   8.601 -0.2015  0.5624  0.3330
 4227TIP3    H134316   3.206   4.759   8.686 -0.6710  0.4432  0.2953
 4227TIP3    H234317   3.116   4.845   8.600  0.3105  1.6554  0.4477
 4228TIP3   OH234318   0.533   1.898   3.002  0.4559 -0.1766 -0.0146
 4228TIP3    H134319   0.591   1.824   2.984 -3.5108 -2.8231 -3.9716
 4228TIP3    H234320   0.573   1.972   2.957  2.8073 -0.6877  1.1015
 4229TIP3   OH234321   3.394   1.409   8.554 -0.0980 -1.0936 -0.2137
 4229TIP3    H134322   3.394   1.347   8.627  1.1572 -0.0570  0.7213
 4229TIP3    H234323   3.476   1.458   8.564 -1.2154  0.9826 -0.6599
 4230TIP3   OH234324   2.893   5.262   2.589 -0.0141  0.5202 -0.9000
 4230TIP3    H134325   2.841   5.182   2.592  0.9296 -0.0820  0.5244
 4230TIP3    H234326   2.977   5.235   2.552  0.1769  0.9204 -0.7656
 4231TIP3   OH234327   6.587   3.381   1.674 -0.3245 -0.3713 -0.5711
 4231TIP3    H134328   6.598   3.474   1.694  2.1892 -0.6146 -0.4756
 4231TIP3    H234329   6.640   3.367   1.596  0.5566 -1.9799  0.2653
 4232TIP3   OH234330   5.185   3.150   1.702  0.0522 -0.3963 -0.1202
 4232TIP3    H134331   5.202   3.184   1.790  0.3314  1.5178 -0.8700
 4232TIP3    H234332   5.273   3.136   1.665 -0.0016  1.2536 -0.9583
 4233TIP3   OH234333   6.507   4.799   1.046  0.3339 -0.5403 -0.1567
 4233TIP3    H134334   6.598   4.812   1.017  0.0181 -0.2693 -1.0682
 4233TIP3    H234335   6.462   4.766   0.968 -0.2819 -0.9759  0.3827
 4234TIP3   OH234336   3.106   6.541   1.184 -0.2744  0.2765 -1.1794
 4234TIP3    H134337   3.117   6.582   1.270 -0.2021  0.4767 -1.2828
 4234TIP3    H234338   3.142   6.605   1.122 -0.7854  0.3520 -1.4061
 4235TIP3   OH234339   4.585   3.634   0.394 -0.1096  0.2511  0.0176
 4235TIP3    H134340   4.493   3.648   0.372 -0.1215  1.3503  0.6781
 4235TIP3    H234341   4.617   3.721   0.419  0.7679 -0.3526  1.0622
 4236TIP3   OH234342   4.438   3.526   0.694 -0.3790  0.2711 -0.0596
 4236TIP3    H134343   4.403   3.455   0.641  0.3507  0.5550 -0.9584
 4236TIP3    H234344   4.367   3.590   0.698 -0.5514  0.1081 -0.4391
 4237TIP3   OH234345   6.638   4.896   7.361  0.5998  0.3773 -0.1007
 4237TIP3    H134346   6.673   4.846   7.287  2.2446  1.0497  0.1797
 4237TIP3    H234347   6.547   4.867   7.369  1.1702 -1.7374 -0.6382
 4238TIP3   OH234348   5.654   2.481   0.018  0.1725 -0.0371  0.1078
 4238TIP3    H134349   5.582   2.537  -0.010  0.2686  0.0452  0.0251
 4238TIP3    H234350   5.651   2.406  -0.042 -1.5276 -1.3816  1.7553
 4239TIP3   OH234351   5.856   4.805   0.660 -0.1889  0.3786 -0.9646
 4239TIP3    H134352   5.857   4.901   0.665 -1.4251  0.3674 -0.1958
 4239TIP3    H234353   5.801   4.777   0.733  1.7606 -1.0339  0.0729
 4240TIP3   OH234354   5.501   4.845   7.055  0.5015 -0.1367  0.5592
 4240TIP3    H134355   5.498   4.753   7.028  2.6398 -0.0508 -0.0852
 4240TIP3    H234356   5.409   4.866   7.074 -0.3883 -1.7491 -1.4559
 4241TIP3   OH234357   3.474   0.062   7.469 -0.5171  0.8904 -0.0678
 4241TIP3    H134358   3.428   0.117   7.406 -0.5986  1.2961  0.3420
 4241TIP3    H234359   3.491  -0.020   7.422 -0.9545  1.0329 -0.4752
 4242TIP3   OH234360   1.665   0.091   6.735 -0.1110  0.0839  0.4683
 4242TIP3    H134361   1.736   0.066   6.676  3.0494  2.7706  2.7406
 4242TIP3    H234362   1.607   0.145   6.681  0.1939 -1.1158 -1.1541
 4243TIP3   OH234363   2.869   2.314   2.400  0.4898  0.1363  0.3354
 4243TIP3    H134364   2.853   2.402   2.365 -1.1151 -0.4443 -0.4824
 4243TIP3    H234365   2.820   2.311   2.482  1.0885  0.2120  0.7015
 4244TIP3   OH234366   4.462   2.875   2.046 -0.5178  0.0047  0.0298
 4244TIP3    H134367   4.414   2.797   2.020 -1.3021 -0.2625  2.0635
 4244TIP3    H234368   4.464   2.871   2.142 -0.2206  2.2567  0.1789
 4245TIP3   OH234369   1.527   0.077   0.125 -0.4856  0.3743  0.4604
 4245TIP3    H134370   1.463   0.007   0.120 -0.5223  0.4516 -0.2772
 4245TIP3    H234371   1.504   0.126   0.204 -0.9004 -0.0132  0.5802
 4246TIP3   OH234372   5.384   6.238   8.621  0.1797 -0.1187 -0.4787
 4246TIP3    H134373   5.409   6.321   8.662 -0.5653  1.4360 -2.9854
 4246TIP3    H234374   5.459   6.213   8.567  0.2962 -0.9682  0.0519
 4247TIP3   OH234375   1.230   0.166   0.096 -0.1989 -0.0918  0.5679
 4247TIP3    H134376   1.212   0.175   0.002 -1.2545 -0.7410  0.6896
 4247TIP3    H234377   1.271   0.079   0.104  0.3433  0.1684  0.6534
 4248TIP3   OH234378   3.070   0.883   1.797 -1.1386 -0.3359 -0.5304
 4248TIP3    H134379   3.021   0.802   1.790  0.7496 -1.6940  0.7992
 4248TIP3    H234380   3.162   0.856   1.795 -0.4483  1.6979  0.4390
 4249TIP3   OH234381   4.890   1.599   6.700  0.0082  0.1115 -0.0484
 4249TIP3    H134382   4.926   1.662   6.638  0.0713  0.4298  0.3075
 4249TIP3    H234383   4.855   1.652   6.771  0.5780 -0.2728  0.5319
 4250TIP3   OH234384   5.262   0.348   7.221 -0.9244  0.1967  0.7114
 4250TIP3    H134385   5.239   0.259   7.195  0.2111 -0.1028  0.6907
 4250TIP3    H234386   5.343   0.338   7.271 -0.6733  1.2397  0.5323
 4251TIP3   OH234387   2.275   5.204   8.117 -0.0559 -0.3606  0.5351
 4251TIP3    H134388   2.319   5.135   8.066 -0.2373  0.5328 -0.8874
 4251TIP3    H234389   2.184   5.176   8.123  0.1975 -1.0288  1.3784
 4252TIP3   OH234390   5.714   4.942   6.196 -0.5914 -0.1864 -0.3020
 4252TIP3    H134391   5.749   5.001   6.262  0.8300 -1.1731 -0.1276
 4252TIP3    H234392   5.700   4.998   6.119 -0.4082  0.5985  0.2195
 4253TIP3   OH234393   1.447   6.005   6.928 -0.1878 -0.1519  0.2535
 4253TIP3    H134394   1.447   5.982   6.835  0.2760  0.6800  0.0354
 4253TIP3    H234395   1.365   5.969   6.962 -0.0884 -0.9598 -0.3509
 4254TIP3   OH234396   0.455   5.307   1.989 -0.4210  0.5423  0.0345
 4254TIP3    H134397   0.384   5.246   2.006  0.2590 -0.1308  0.4906
 4254TIP3    H234398   0.461   5.311   1.893 -0.4060 -0.1754  0.0043
 4255TIP3   OH234399   1.885   6.053   1.952 -0.0954  0.7366 -0.1738
 4255TIP3    H134400   1.835   6.110   2.011 -1.2450 -1.0763  0.7004
 4255TIP3    H234401   1.925   5.988   2.010 -0.1980 -0.3310 -1.2530
 4256TIP3   OH234402   6.460   4.075   2.012 -0.3999 -0.8843 -0.3709
 4256TIP3    H134403   6.409   4.038   1.940  0.4087  0.1183 -1.4932
 4256TIP3    H234404   6.493   4.158   1.979  1.0630 -0.9913  0.6855
 4257TIP3   OH234405   6.686   1.396   8.243 -0.2792 -0.4912  0.4606
 4257TIP3    H134406   6.701   1.489   8.254  0.2144 -0.7216  1.8785
 4257TIP3    H234407   6.697   1.381   8.149  1.1721  0.6184  0.4229
 4258TIP3   OH234408   2.144   2.264   0.868  0.1423  0.2221 -0.0587
 4258TIP3    H134409   2.130   2.324   0.795 -0.8687  0.2654  0.1627
 4258TIP3    H234410   2.059   2.258   0.911  0.2039 -1.3954 -0.0905
 4259TIP3   OH234411   1.280   3.814   7.790  0.2670 -0.6080 -0.6016
 4259TIP3    H134412   1.347   3.798   7.724 -0.4140 -0.6085 -1.2991
 4259TIP3    H234413   1.236   3.729   7.801  0.6193 -0.7066  0.1338
 4260TIP3   OH234414   3.442   4.102   8.359 -0.0632 -0.2283  0.3723
 4260TIP3    H134415   3.514   4.041   8.344  0.4839  0.3040  0.8125
 4260TIP3    H234416   3.448   4.165   8.288 -0.9845 -1.0007 -0.4184
 4261TIP3   OH234417   4.058   5.871   6.980 -0.3775  0.6372 -0.2030
 4261TIP3    H134418   3.996   5.862   6.908 -0.1860  1.4823 -0.4828
 4261TIP3    H234419   4.004   5.869   7.059 -0.4184 -2.5050 -0.1932
 4262TIP3   OH234420   5.132   4.672   8.501  0.5014  0.2352 -0.0521
 4262TIP3    H134421   5.193   4.653   8.429  0.8318 -2.2147  0.7811
 4262TIP3    H234422   5.066   4.728   8.461  1.4754  0.1772 -1.8820
 4263TIP3   OH234423   0.184   6.824   7.145  0.0945  0.1521  0.0560
 4263TIP3    H134424   0.143   6.903   7.181  0.7700 -0.2064  1.7335
 4263TIP3    H234425   0.278   6.839   7.157  0.2048 -1.1154  0.9387
 4264TIP3   OH234426   4.077   4.450   7.756  0.3186 -0.7256 -0.2581
 4264TIP3    H134427   4.015   4.523   7.755  2.2681  0.9978 -1.2356
 4264TIP3    H234428   4.043   4.391   7.824 -0.9775  1.3667  1.0248
 4265TIP3   OH234429   6.490   1.676   8.278 -0.3284 -0.1425 -0.5643
 4265TIP3    H134430   6.571   1.677   8.227 -0.0493  0.7993 -0.1191
 4265TIP3    H234431   6.519   1.686   8.369 -1.0288  2.2987 -0.5476
 4266TIP3   OH234432   2.991   1.293   8.470 -0.0267 -0.5893  0.0286
 4266TIP3    H134433   2.988   1.323   8.379 -3.4017 -1.0624 -0.1457
 4266TIP3    H234434   3.022   1.369   8.519  0.5974  0.0899 -1.3651
 4267TIP3   OH234435   0.578   0.232   7.019 -0.3600  0.0411  0.0713
 4267TIP3    H134436   0.572   0.142   7.050 -2.0771 -0.4261 -1.4382
 4267TIP3    H234437   0.497   0.246   6.970  0.3870  2.0344 -0.7070
 4268TIP3   OH234438   0.672   5.603   6.982 -0.1909  0.7952  0.0051
 4268TIP3    H134439   0.655   5.696   6.966  2.0845  1.1374 -0.8209
 4268TIP3    H234440   0.595   5.558   6.949 -2.8635  2.4847  3.2998
 4269TIP3   OH234441   2.760   3.332   0.553 -0.3725  0.6712 -0.1789
 4269TIP3    H134442   2.727   3.247   0.527  0.3573 -0.1427  1.4245
 4269TIP3    H234443   2.804   3.366   0.474 -2.2792  0.4559 -1.4069
 4270TIP3   OH234444   6.498   1.157   0.993  0.4427 -0.7415  0.5988
 4270TIP3    H134445   6.460   1.242   1.013  0.0502 -0.5728 -0.7645
 4270TIP3    H234446   6.584   1.177   0.956 -0.2993 -0.8195 -1.2432
 4271TIP3   OH234447   2.633   4.389   2.048 -0.6143 -0.3392 -0.1625
 4271TIP3    H134448   2.687   4.310   2.055  0.6928  0.5688  0.4176
 4271TIP3    H234449   2.687   4.458   2.086 -1.1741  1.1224 -1.8961
 4272TIP3   OH234450   1.721   0.143   7.519  0.0505 -0.3322  0.4178
 4272TIP3    H134451   1.725   0.112   7.610 -0.5474  0.5230  0.7495
 4272TIP3    H234452   1.812   0.162   7.496  0.4917 -2.5998  0.0789
 4273TIP3   OH234453   2.417   4.130   8.332  0.0198 -0.0701 -0.0709
 4273TIP3    H134454   2.368   4.186   8.392  0.5030 -1.6640  1.9366
 4273TIP3    H234455   2.359   4.056   8.316  0.3802 -0.2447 -0.6023
 4274TIP3   OH234456   1.746   6.585   8.441 -0.1929 -0.4955  0.0124
 4274TIP3    H134457   1.712   6.522   8.377 -0.9514  0.6528 -0.7459
 4274TIP3    H234458   1.669   6.632   8.473  0.4815  1.2126 -0.7147
 4275TIP3   OH234459   3.300   3.835   1.505  0.3218  0.2795 -0.3901
 4275TIP3    H134460   3.390   3.825   1.473 -0.1098  0.4871 -1.7398
 4275TIP3    H234461   3.298   3.922   1.545  0.7890  0.1614 -0.1039
 4276TIP3   OH234462   0.433   3.197   8.672  0.6037 -0.5456 -0.5866
 4276TIP3    H134463   0.338   3.180   8.674  0.3876  0.6252  0.6990
 4276TIP3    H234464   0.458   3.178   8.581 -0.7019 -1.6469 -0.7601
 4277TIP3   OH234465   4.766   6.423   0.253  0.0972 -0.5732  0.0186
 4277TIP3    H134466   4.766   6.467   0.338 -3.6775  0.8251 -0.5111
 4277TIP3    H234467   4.807   6.487   0.194 -2.1423  0.9383 -0.0679
 4278TIP3   OH234468   1.602   5.742   0.767  0.8800 -0.4472  0.0647
 4278TIP3    H134469   1.671   5.801   0.734  0.0973  0.0377 -0.7854
 4278TIP3    H234470   1.647   5.660   0.786  2.0269  0.4519  1.4007
 4279TIP3   OH234471   0.663   4.985   8.604  0.2575  0.7868  0.7029
 4279TIP3    H134472   0.592   5.021   8.657 -0.7641 -0.7856  0.4617
 4279TIP3    H234473   0.691   4.907   8.652  1.0102  0.7361  0.1929
 4280TIP3   OH234474   2.335   2.509   8.098 -0.4333  0.0501 -0.4029
 4280TIP3    H134475   2.295   2.595   8.110  0.3632  0.4908 -0.8227
 4280TIP3    H234476   2.342   2.473   8.186 -2.3437 -0.3282 -0.3669
 4281TIP3   OH234477   5.511   5.291   8.505 -0.2068  0.2501 -0.4148
 4281TIP3    H134478   5.506   5.218   8.566 -0.6221 -0.6223 -1.4760
 4281TIP3    H234479   5.476   5.366   8.554 -1.0797 -0.5608  0.2266
 4282TIP3   OH234480   3.073   3.745   0.136 -0.6964  0.5475  0.0879
 4282TIP3    H134481   3.098   3.710   0.050  1.0038  2.1307 -0.1160
 4282TIP3    H234482   2.997   3.801   0.118 -1.0583 -0.0088 -0.1692
 4283TIP3   OH234483   1.852   5.443   2.455  0.4906 -0.0768  0.3529
 4283TIP3    H134484   1.798   5.454   2.376 -2.1413 -0.4518  1.9591
 4283TIP3    H234485   1.877   5.351   2.454  0.2286 -0.1492  0.1109
 4284TIP3   OH234486   1.941   3.120   8.614  0.1552 -0.3406  0.2875
 4284TIP3    H134487   1.899   3.049   8.564  1.4392  0.3478 -1.8699
 4284TIP3    H234488   1.997   3.074   8.677  1.6284 -1.3262 -1.6402
 4285TIP3   OH234489   3.622   0.024   0.235 -0.0501  0.8982  0.0137
 4285TIP3    H134490   3.602   0.114   0.211 -0.0486  1.0144  0.4439
 4285TIP3    H234491   3.537  -0.019   0.242 -0.0166 -0.0236 -3.4681
 4286TIP3   OH234492   1.933   6.201   8.612 -0.0777  0.1531  0.5509
 4286TIP3    H134493   1.987   6.279   8.604  0.1282  0.1037  1.3587
 4286TIP3    H234494   1.980   6.134   8.563  0.0050  0.4079  0.2826
 4287TIP3   OH234495   4.388   4.124   6.519 -0.0216  0.6474 -0.0795
 4287TIP3    H134496   4.340   4.045   6.544  0.4808  0.5797  0.6883
 4287TIP3    H234497   4.480   4.103   6.533  0.0345  1.9530  1.8939
 4288TIP3   OH234498   3.442   1.116   7.418 -0.6640 -0.4003 -0.5073
 4288TIP3    H134499   3.470   1.110   7.509  0.6446  1.8979 -0.6980
 4288TIP3    H234500   3.347   1.124   7.422 -0.5608  0.3201  0.6909
 4289TIP3   OH234501   4.915   4.599   1.339  0.0326 -1.2663  0.3164
 4289TIP3    H134502   4.944   4.527   1.282  1.7632 -2.1165  2.1390
 4289TIP3    H234503   4.877   4.555   1.415  0.0539 -0.2167  0.9430
 4290TIP3   OH234504   2.805   1.464   7.244 -0.5606  0.5985 -0.2764
 4290TIP3    H134505   2.780   1.462   7.336 -0.2114  0.9254 -0.1695
 4290TIP3    H234506   2.725   1.490   7.197 -1.2185 -1.2246 -0.2563
 4291TIP3   OH234507   1.560   3.604   0.576  0.2188 -0.2508  0.5267
 4291TIP3    H134508   1.630   3.546   0.546  1.3652  0.5832  1.4304
 4291TIP3    H234509   1.607   3.676   0.619 -1.0440  2.1723 -1.8708
 4292TIP3   OH234510   2.395   5.406   8.402  0.3609  0.2534  0.0043
 4292TIP3    H134511   2.380   5.384   8.310 -2.5126  0.7314  0.2847
 4292TIP3    H234512   2.336   5.348   8.451  1.2732  0.5406  1.5293
 4293TIP3   OH234513   2.353   6.029   0.560 -0.6314 -0.1430  0.1896
 4293TIP3    H134514   2.427   6.003   0.505 -0.8869  0.1322 -0.3033
 4293TIP3    H234515   2.365   5.983   0.642 -1.2174 -2.0425 -0.7313
 4294TIP3   OH234516   6.100   0.590   1.304 -0.5321  0.1118 -0.7433
 4294TIP3    H134517   6.142   0.517   1.259 -0.8002  1.0286 -2.6018
 4294TIP3    H234518   6.150   0.667   1.276 -1.3954  0.8391 -0.3252
 4295TIP3   OH234519   3.417   6.670   7.292 -0.3825 -0.2119  0.1834
 4295TIP3    H134520   3.324   6.681   7.315 -0.1525 -0.9882  1.6046
 4295TIP3    H234521   3.421   6.691   7.199 -2.3169 -1.9162 -0.3575
 4296TIP3   OH234522   5.145   6.477   0.513 -0.4065 -0.0280  0.5158
 4296TIP3    H134523   5.075   6.413   0.496 -0.5334  0.5673 -1.3491
 4296TIP3    H234524   5.200   6.474   0.435 -0.9062  2.7292 -0.0535
 4297TIP3   OH234525   2.507   0.239   0.389  0.2792  0.3990 -0.2554
 4297TIP3    H134526   2.422   0.202   0.415  0.1352 -0.0420 -1.3210
 4297TIP3    H234527   2.558   0.163   0.360 -0.0109  0.9727 -2.4359
 4298TIP3   OH234528   0.996   2.846   0.878  0.1328  0.2422 -0.2107
 4298TIP3    H134529   0.941   2.790   0.933  1.5742 -1.7042 -0.6184
 4298TIP3    H234530   1.059   2.886   0.939 -0.0278  0.3038 -0.0857
 4299TIP3   OH234531   1.736   6.765   7.381  1.0080 -0.2654  0.2020
 4299TIP3    H134532   1.799   6.715   7.433  3.1074  1.4843 -0.4929
 4299TIP3    H234533   1.748   6.856   7.411 -0.2799  0.2851 -0.8698
 4300TIP3   OH234534   3.761   0.253   0.971  0.1852 -0.6406 -0.0063
 4300TIP3    H134535   3.702   0.219   0.905  0.4689  2.4925 -2.1102
 4300TIP3    H234536   3.847   0.221   0.945  0.3680  0.9687 -1.5930
 4301TIP3   OH234537   6.468   4.281   1.836 -0.6194  0.3406 -1.0866
 4301TIP3    H134538   6.510   4.363   1.808  0.8290 -1.3631 -4.5153
 4301TIP3    H234539   6.405   4.262   1.767 -0.6114 -1.6178 -0.6002
 4302TIP3   OH234540   2.348   2.697   0.689  0.5062 -0.0021 -0.0889
 4302TIP3    H134541   2.371   2.616   0.642  2.3513  0.8921 -0.8347
 4302TIP3    H234542   2.278   2.736   0.637 -0.1610 -0.9251  0.0876
 4303TIP3   OH234543   4.143   6.829   2.707  0.3356  0.0765  0.1843
 4303TIP3    H134544   4.182   6.751   2.666  1.0669  0.8018 -0.5469
 4303TIP3    H234545   4.189   6.838   2.790 -1.2965 -1.5235  1.3454
 4304TIP3   OH234546   0.600   5.969   0.204  0.0091 -0.4836 -0.7592
 4304TIP3    H134547   0.647   6.028   0.263 -0.0924 -0.9161 -0.2462
 4304TIP3    H234548   0.535   6.025   0.161  0.7671  0.0554 -1.2412
 4305TIP3   OH234549   3.271   1.488   7.259  0.3024 -0.0477 -0.4697
 4305TIP3    H134550   3.278   1.407   7.208  0.5126  0.2133 -0.8528
 4305TIP3    H234551   3.319   1.553   7.209 -0.3136  0.4507 -0.4300
 4306TIP3   OH234552   0.487   2.267   1.195  0.4316 -0.3927  0.5091
 4306TIP3    H134553   0.490   2.216   1.114  1.2692  0.1490  0.1913
 4306TIP3    H234554   0.438   2.346   1.171  0.7238 -0.2090  0.5212
 4307TIP3   OH234555   6.192   0.764   7.039  0.1331 -0.6013 -0.2879
 4307TIP3    H134556   6.216   0.678   7.006  0.4776 -0.8839  0.6671
 4307TIP3    H234557   6.241   0.826   6.986  1.0525 -1.0674  0.0038
 4308TIP3   OH234558   2.034   5.933   2.670 -0.6931  0.1215  0.2150
 4308TIP3    H134559   2.052   5.942   2.764 -0.6122 -0.8823  0.3118
 4308TIP3    H234560   2.061   5.843   2.650 -1.2777  0.1333 -0.6433
 4309TIP3   OH234561   2.291   4.692   7.649 -0.3302  0.4631  0.5094
 4309TIP3    H134562   2.330   4.774   7.618 -0.3590 -0.5726 -2.7176
 4309TIP3    H234563   2.198   4.713   7.660 -0.5146  0.7232 -1.2143
 4310TIP3   OH234564   6.684   0.596   1.788  0.3971  0.2551 -0.1471
 4310TIP3    H134565   6.685   0.519   1.845 -1.2650  1.0243  1.0226
 4310TIP3    H234566   6.668   0.560   1.701 -0.7862 -0.7399  0.4355
 4311TIP3   OH234567   4.421   2.815   2.352 -0.0175 -0.2351 -0.2299
 4311TIP3    H134568   4.490   2.837   2.414  0.7440 -1.7162 -0.5071
 4311TIP3    H234569   4.348   2.786   2.407  0.0719 -0.0086  0.0125
 4312TIP3   OH234570   2.028   2.275   2.531 -0.1331  0.2534  0.1623
 4312TIP3    H134571   1.969   2.199   2.530 -1.0904  0.9696 -0.2643
 4312TIP3    H234572   2.074   2.271   2.447 -0.5186  0.3836 -0.0592
 4313TIP3   OH234573   2.816   2.542   8.628  0.2956  0.1750 -0.0289
 4313TIP3    H134574   2.800   2.493   8.709  0.3843 -2.1661 -1.3521
 4313TIP3    H234575   2.879   2.610   8.653 -0.1704 -0.0692  1.9877
 4314TIP3   OH234576   6.433   1.483   2.964 -0.0608 -0.0696  0.0048
 4314TIP3    H134577   6.343   1.487   2.997 -0.0038 -1.8108  0.4961
 4314TIP3    H234578   6.484   1.534   3.028 -0.5484  0.0689  0.2883
 4315TIP3   OH234579   1.690   5.993   6.717  0.1527  0.4597 -0.4441
 4315TIP3    H134580   1.601   5.958   6.711  0.8161 -1.6835  1.0754
 4315TIP3    H234581   1.727   5.978   6.630 -1.0815  1.8253 -1.2468
 4316TIP3   OH234582   2.331   1.597   2.050  0.1633  0.0736  0.5534
 4316TIP3    H134583   2.295   1.527   2.105  1.2807 -1.0299 -0.0632
 4316TIP3    H234584   2.292   1.582   1.964  1.6404 -0.8552 -0.0046
 4317TIP3   OH234585   6.371   3.166   1.178  0.2727  0.7888 -0.5677
 4317TIP3    H134586   6.324   3.231   1.125  0.3139  1.3563  0.0691
 4317TIP3    H234587   6.362   3.198   1.268  1.4462  0.6439 -0.3763
 4318TIP3   OH234588   1.612   3.884   0.953  0.1576  0.4292 -0.2549
 4318TIP3    H134589   1.596   3.850   1.041 -1.0616  1.9099  0.1501
 4318TIP3    H234590   1.682   3.948   0.964  1.6429 -1.0531 -0.8057
 4319TIP3   OH234591   2.623   1.782   1.278  0.1455  0.5199  0.0242
 4319TIP3    H134592   2.565   1.741   1.215  0.7418  1.0510 -0.8895
 4319TIP3    H234593   2.620   1.875   1.256 -0.5821  0.8939  1.5647
 4320TIP3   OH234594   1.204   5.841   7.030  0.7252  0.3609 -0.1798
 4320TIP3    H134595   1.234   5.752   7.012  1.9793  0.8191 -0.4632
 4320TIP3    H234596   1.139   5.858   6.961  0.3291 -0.3934 -0.0066
 4321TIP3   OH234597   4.256   1.574   1.588  0.2792  0.5424 -0.8005
 4321TIP3    H134598   4.181   1.567   1.647  0.4891 -0.5181 -0.6231
 4321TIP3    H234599   4.245   1.658   1.544 -0.4884  0.8380 -0.0710
 4322TIP3   OH234600   0.524   3.201   8.146  0.0144 -0.3725  0.6926
 4322TIP3    H134601   0.579   3.272   8.179 -0.9312 -0.1333  1.8130
 4322TIP3    H234602   0.473   3.242   8.076 -1.0150  0.2858  1.7765
 4323TIP3   OH234603   0.175   6.249   1.986 -0.3400 -0.4013  0.3184
 4323TIP3    H134604   0.242   6.259   1.918  0.6003  1.3894  1.4215
 4323TIP3    H234605   0.123   6.330   1.981  2.2706  1.8798  4.1976
 4324TIP3   OH234606   5.849   1.613   0.103  0.1284 -0.0889  0.2384
 4324TIP3    H134607   5.770   1.558   0.100  0.4227 -0.5687  1.0761
 4324TIP3    H234608   5.918   1.555   0.134  1.1835 -0.0811 -1.8706
 4325TIP3   OH234609   3.550   3.056   1.570  0.4955 -0.5188  0.1895
 4325TIP3    H134610   3.460   3.082   1.550 -0.4369 -2.8763  0.9576
 4325TIP3    H234611   3.589   3.134   1.609 -0.9766  0.7918 -0.8408
 4326TIP3   OH234612   1.677   1.379   0.549  0.0547 -0.1630 -0.3452
 4326TIP3    H134613   1.704   1.288   0.560 -0.7043 -0.3173  0.3386
 4326TIP3    H234614   1.756   1.424   0.519  0.0285 -1.3275 -2.3237
 4327TIP3   OH234615   3.716   0.222   2.075 -0.1475  0.0498 -0.3171
 4327TIP3    H134616   3.697   0.164   2.148 -0.1883 -1.2192 -1.2979
 4327TIP3    H234617   3.646   0.287   2.078 -0.2673 -0.1039  0.6325
 4328TIP3   OH234618   1.522   6.048   1.678 -0.2356 -0.1536 -0.1261
 4328TIP3    H134619   1.495   6.003   1.757  0.1636 -0.0988  0.0425
 4328TIP3    H234620   1.575   6.122   1.709  0.8597 -0.7671 -0.4791
 4329TIP3   OH234621   2.508   2.428   1.027 -0.1138 -0.3133  0.0368
 4329TIP3    H134622   2.534   2.480   1.103  1.6473 -2.8822  1.3223
 4329TIP3    H234623   2.425   2.468   0.999  2.1173  4.6295 -0.6426
 4330TIP3   OH234624   0.899   2.663   7.419 -0.0773  0.0285  0.5383
 4330TIP3    H134625   0.873   2.627   7.334 -1.2896 -0.9942  1.3140
 4330TIP3    H234626   0.940   2.590   7.464  2.3708  1.0639  0.1580
 4331TIP3   OH234627   3.751   6.819   7.169 -0.6464 -0.7423  0.4583
 4331TIP3    H134628   3.769   6.911   7.189 -0.0615 -0.7694  0.0761
 4331TIP3    H234629   3.677   6.821   7.109 -0.3185 -0.4878  0.0557
 4332TIP3   OH234630   5.026   2.324   0.625 -0.3323  0.2636 -0.5169
 4332TIP3    H134631   5.020   2.228   0.622 -1.4152  0.3420 -1.6093
 4332TIP3    H234632   4.976   2.348   0.703  0.1127 -0.0658 -0.1254
 4333TIP3   OH234633   1.557   0.997   0.448  0.2107  0.0278  0.2367
 4333TIP3    H134634   1.569   0.914   0.494  1.1127  0.1935  0.3089
 4333TIP3    H234635   1.638   1.046   0.464  1.3729 -0.6052 -3.0318
 4334TIP3   OH234636   3.851   0.463   1.585 -0.1999 -0.1671  0.6952
 4334TIP3    H134637   3.863   0.383   1.635 -0.7543 -0.9452 -0.3666
 4334TIP3    H234638   3.779   0.443   1.525  0.2964  0.8018 -0.2597
 4335TIP3   OH234639   3.271   4.784   2.421  0.2019  0.0908  0.2026
 4335TIP3    H134640   3.276   4.698   2.380  2.1781  0.9792 -1.6278
 4335TIP3    H234641   3.273   4.766   2.515  0.9538 -1.8447 -0.1420
 4336TIP3   OH234642   0.323   3.191   0.994  0.3348  0.4991 -0.3865
 4336TIP3    H134643   0.250   3.144   0.954  1.1545 -0.0173 -1.3199
 4336TIP3    H234644   0.282   3.255   1.052 -0.8199 -0.7740  0.2413
 4337TIP3   OH234645   4.802   0.597   1.890 -0.8252  0.2230 -0.2837
 4337TIP3    H134646   4.720   0.549   1.886 -0.1153 -1.2123  1.1058
 4337TIP3    H234647   4.868   0.535   1.857  0.3074 -0.3469  2.7500
 4338TIP3   OH234648   5.782   2.787   1.775  0.2078  0.2163  0.3173
 4338TIP3    H134649   5.802   2.752   1.862  2.5464 -0.0751 -0.2708
 4338TIP3    H234650   5.705   2.841   1.789 -0.3135 -0.9146  2.2982
 4339TIP3   OH234651   0.759   2.669   0.989  0.1771  0.3724  0.0522
 4339TIP3    H134652   0.837   2.621   1.018 -0.0435 -0.1840 -0.2470
 4339TIP3    H234653   0.686   2.609   1.008 -0.1326  0.7124 -0.0571
 4340TIP3   OH234654   3.811   3.962   1.643 -0.7119  0.0424  0.5325
 4340TIP3    H134655   3.764   4.046   1.641 -0.3739  0.2231 -0.2295
 4340TIP3    H234656   3.883   3.973   1.581 -0.0158 -0.4467  1.2384
 4341TIP3   OH234657   0.643   1.573   2.490 -0.6776  0.2905 -0.0094
 4341TIP3    H134658   0.652   1.604   2.400  0.1045 -0.5538 -0.2347
 4341TIP3    H234659   0.687   1.488   2.491  0.6991  0.9650  1.5233
 4342TIP3   OH234660   4.898   6.377   6.556  0.0950  0.0103 -0.5569
 4342TIP3    H134661   4.841   6.435   6.606 -0.5548 -0.9635 -0.1382
 4342TIP3    H234662   4.846   6.298   6.542  1.7752 -1.4802  1.0071
 4343TIP3   OH234663   1.449   5.248   7.374  0.1894 -0.2555 -0.3400
 4343TIP3    H134664   1.462   5.181   7.307  0.6630  0.8885 -1.4411
 4343TIP3    H234665   1.427   5.327   7.325  1.2264  0.7905  0.7924
 4344TIP3   OH234666   3.790   3.583   2.363 -0.2611  0.3202  0.1575
 4344TIP3    H134667   3.820   3.581   2.272  1.7184  0.6715  0.7429
 4344TIP3    H234668   3.818   3.499   2.399 -0.0658  0.6119  0.6983
 4345TIP3   OH234669   5.310   0.955   1.008  0.2484  0.7252  0.1375
 4345TIP3    H134670   5.403   0.966   0.988  0.4737 -2.3260 -1.0289
 4345TIP3    H234671   5.309   0.918   1.096  0.2136 -0.1463 -0.2251
 4346TIP3   OH234672   2.774   6.442   1.511  0.7796 -0.2188 -0.5658
 4346TIP3    H134673   2.716   6.503   1.466  2.4983  1.4548 -0.6426
 4346TIP3    H234674   2.819   6.395   1.441  0.3894 -0.6658 -0.5207
 4347TIP3   OH234675   3.181   1.126   7.890 -0.6158 -0.5801 -0.2477
 4347TIP3    H134676   3.164   1.137   7.797 -1.1116 -1.9544 -0.3392
 4347TIP3    H234677   3.229   1.044   7.896 -2.6732 -1.7915  0.8879
 4348TIP3   OH234678   2.770   4.096   1.824 -0.0456  0.8284  0.4771
 4348TIP3    H134679   2.850   4.051   1.796  0.2789  1.4055  0.4574
 4348TIP3    H234680   2.754   4.064   1.912 -0.1074  0.2919  0.2753
 4349TIP3   OH234681   4.188   5.949   8.566 -1.1301  0.4173  0.5551
 4349TIP3    H134682   4.096   5.969   8.548 -1.6956  0.5088  3.1226
 4349TIP3    H234683   4.214   5.889   8.496 -2.7057  1.4744 -1.0126
 4350TIP3   OH234684   3.999   5.617   1.314 -0.0820 -0.1049 -0.4432
 4350TIP3    H134685   4.042   5.607   1.229 -1.8429  0.7816 -1.4945
 4350TIP3    H234686   4.064   5.587   1.377  2.0519  1.0993 -1.9285
 4351TIP3   OH234687   6.180   4.534   1.329  0.2281  0.8925 -0.5033
 4351TIP3    H134688   6.175   4.536   1.424  0.4916  2.6774 -0.4924
 4351TIP3    H234689   6.228   4.614   1.306 -1.1281  1.2883 -2.1938
 4352TIP3   OH234690   0.096   3.562   0.994 -0.1126  0.4930 -0.1954
 4352TIP3    H134691   0.067   3.494   0.932 -1.7013  1.6360 -0.7662
 4352TIP3    H234692   0.157   3.517   1.052 -1.9358 -1.7472  0.1377
 4353TIP3   OH234693   0.289   2.519   1.233  0.6065 -0.0252  0.3087
 4353TIP3    H134694   0.213   2.483   1.277 -1.3219  2.9218 -0.3361
 4353TIP3    H234695   0.324   2.584   1.294  1.0657  0.4133 -0.4043
 4354TIP3   OH234696   6.530   6.040   7.690 -0.4101  0.0587  0.1905
 4354TIP3    H134697   6.556   6.121   7.646 -0.3006  0.4549  0.9662
 4354TIP3    H234698   6.538   5.972   7.623  1.3832  0.3636  0.0504
 4355TIP3   OH234699   0.402   2.010   7.589 -0.0894  0.0423  0.2624
 4355TIP3    H134700   0.327   2.070   7.595 -0.9197 -0.5131 -2.6429
 4355TIP3    H234701   0.363   1.927   7.560  1.6942  0.2700 -3.3655
 4356TIP3   OH234702   1.086   2.671   2.087 -0.9413  0.3009 -0.1566
 4356TIP3    H134703   1.044   2.695   2.169  1.1948 -0.3903  1.2373
 4356TIP3    H234704   1.153   2.739   2.074  0.3942 -0.9198  0.0576
 4357TIP3   OH234705   2.424   4.617   0.352  0.6505  0.2463 -0.1387
 4357TIP3    H134706   2.338   4.647   0.323  0.2339  1.0746  1.7694
 4357TIP3    H234707   2.486   4.676   0.308  0.3179 -0.6525 -1.8872
 4358TIP3   OH234708   1.946   5.566   0.878  0.6000 -0.1836  0.3456
 4358TIP3    H134709   1.913   5.553   0.789 -1.4753 -0.7932  1.1566
 4358TIP3    H234710   1.883   5.522   0.934  0.7217  1.9279  2.2837
 4359TIP3   OH234711   2.339   3.066   8.550 -0.2491  0.1239 -0.1108
 4359TIP3    H134712   2.311   3.121   8.477  0.3898  0.5992 -0.0012
 4359TIP3    H234713   2.331   3.123   8.627  0.0744 -0.0472  0.0524
 4360TIP3   OH234714   4.830   2.179   1.863  0.4087  0.2445  0.4258
 4360TIP3    H134715   4.846   2.270   1.839 -0.2956  0.7160  1.6527
 4360TIP3    H234716   4.760   2.183   1.929  0.8866 -1.1183  1.0570
 4361TIP3   OH234717   1.777   1.347   7.954 -0.6612  0.0096 -0.4163
 4361TIP3    H134718   1.690   1.377   7.980  0.0045  0.9331  0.8843
 4361TIP3    H234719   1.774   1.252   7.962 -0.4170  0.1865  3.7597
 4362TIP3   OH234720   2.368   3.803   3.140  0.0707  0.3352  0.0599
 4362TIP3    H134721   2.436   3.838   3.197  0.8538 -0.9614 -0.0228
 4362TIP3    H234722   2.411   3.793   3.055 -0.6286  0.7849 -0.3507
 4363TIP3   OH234723   5.645   1.732   8.206 -0.3079  0.0453 -0.1641
 4363TIP3    H134724   5.595   1.752   8.285 -1.8509 -2.1763 -0.4786
 4363TIP3    H234725   5.722   1.789   8.211  1.0891 -1.7925  4.3490
 4364TIP3   OH234726   5.784   5.273   1.962  0.2914 -0.1474 -0.0951
 4364TIP3    H134727   5.836   5.259   2.041 -0.3367 -0.7066  0.2363
 4364TIP3    H234728   5.769   5.367   1.959  0.1970 -0.1378  0.5394
 4365TIP3   OH234729   5.337   5.097   2.248  0.5075  0.6348 -0.4401
 4365TIP3    H134730   5.313   5.019   2.298  2.4068  0.2791 -0.0126
 4365TIP3    H234731   5.423   5.076   2.211  0.0657  1.6871 -2.1819
 4366TIP3   OH234732   2.515   6.113   2.763 -0.1428 -0.4349  0.5987
 4366TIP3    H134733   2.420   6.104   2.756 -0.2356 -1.8042  2.7521
 4366TIP3    H234734   2.529   6.154   2.849  1.2219  0.1620  0.1229
 4367TIP3   OH234735   1.050   4.402   7.994  0.0189 -0.1673  0.3169
 4367TIP3    H134736   1.039   4.492   8.025 -0.9926 -0.5037  1.0087
 4367TIP3    H234737   0.994   4.351   8.052  0.2411 -1.1888 -0.3545
 4368TIP3   OH234738   4.406   2.893   0.782 -0.7740  0.1279 -0.1755
 4368TIP3    H134739   4.356   2.841   0.719 -0.6969 -0.0127 -0.1206
 4368TIP3    H234740   4.423   2.833   0.855  0.7931 -0.2976 -0.8479
 4369TIP3   OH234741   3.880   0.531   2.407 -0.7037 -0.1686  0.1909
 4369TIP3    H134742   3.861   0.599   2.472 -1.8993  0.0326 -0.3398
 4369TIP3    H234743   3.815   0.545   2.338 -0.7933 -1.6649 -0.0676
 4370TIP3   OH234744   2.172   1.825   1.094  0.3380 -0.4328 -0.1361
 4370TIP3    H134745   2.095   1.844   1.040 -0.3760  0.4594  1.1267
 4370TIP3    H234746   2.159   1.735   1.123 -0.9812  0.1296  1.1613
 4371TIP3   OH234747   2.429   1.628   2.673  0.0963 -0.2181  0.0252
 4371TIP3    H134748   2.397   1.713   2.706 -0.2234 -0.2731 -0.1392
 4371TIP3    H234749   2.384   1.564   2.728 -3.2732 -0.5071 -2.6949
 4372TIP3   OH234750   3.304   2.920   7.202 -0.5220 -0.0596  0.5079
 4372TIP3    H134751   3.260   2.873   7.131 -0.8909  1.9981 -0.7115
 4372TIP3    H234752   3.390   2.880   7.208 -0.4620 -0.2491 -1.1496
 4373TIP3   OH234753   5.844   3.933   1.467 -0.0621 -0.3039  0.6051
 4373TIP3    H134754   5.884   3.870   1.526  0.4306 -1.2997 -0.7464
 4373TIP3    H234755   5.751   3.931   1.489 -0.2246 -2.2947 -0.0996
 4374TIP3   OH234756   4.967   1.465   8.164  0.1972  0.2376 -0.2925
 4374TIP3    H134757   4.947   1.528   8.234 -1.6795 -1.6430  1.0030
 4374TIP3    H234758   4.937   1.509   8.084 -0.3856  1.2934  0.4711
 4375TIP3   OH234759   2.035   2.284   1.532  0.0124  0.2870  0.0226
 4375TIP3    H134760   1.970   2.302   1.464 -0.2758  1.9927  0.6852
 4375TIP3    H234761   2.075   2.369   1.550  3.8324 -0.9769 -1.6767
 4376TIP3   OH234762   0.293   3.879   6.942 -0.2485 -0.2472  0.1358
 4376TIP3    H134763   0.225   3.895   6.877 -1.5306 -2.7586  0.7099
 4376TIP3    H234764   0.270   3.937   7.015  0.1164  1.2213 -0.8880
 4377TIP3   OH234765   5.775   1.080   8.133 -0.0958 -0.5916 -0.3863
 4377TIP3    H134766   5.853   1.036   8.167  0.3878 -0.9806 -1.9074
 4377TIP3    H234767   5.798   1.103   8.043 -1.0166  1.1123 -0.2418
 4378TIP3   OH234768   6.774   4.123   0.781  0.2904  0.2420 -0.1658
 4378TIP3    H134769   6.733   4.150   0.699  0.8735  1.2265 -0.1465
 4378TIP3    H234770   6.703   4.082   0.830 -0.3940  0.8637 -0.6055
 4379TIP3   OH234771   0.617   2.897   1.961  0.2027 -0.4180  0.4304
 4379TIP3    H134772   0.615   2.860   2.049  2.5231 -1.6174  0.0517
 4379TIP3    H234773   0.628   2.991   1.975 -1.3634 -0.3321  1.3806
 4380TIP3   OH234774   5.468   0.282   8.534  0.0769 -0.8197  0.0809
 4380TIP3    H134775   5.455   0.232   8.454 -0.2899 -1.2996  0.4332
 4380TIP3    H234776   5.435   0.225   8.604 -0.0447 -0.2188  0.5261
 4381TIP3   OH234777   4.540   0.796   1.551  0.0968  0.3595  0.6249
 4381TIP3    H134778   4.589   0.878   1.555  1.4410 -0.4075  0.7610
 4381TIP3    H234779   4.478   0.801   1.624  0.2130  1.2181  0.6728
 4382TIP3   OH234780   2.611   1.548   7.043 -0.3308 -0.7784  0.0869
 4382TIP3    H134781   2.657   1.532   6.961  0.2260 -2.1447  0.6301
 4382TIP3    H234782   2.605   1.643   7.050 -0.3719 -0.6463 -1.5175
 4383TIP3   OH234783   1.463   6.869   8.253 -0.0026  0.3684  0.0161
 4383TIP3    H134784   1.442   6.793   8.199  1.6989 -1.4390  1.7458
 4383TIP3    H234785   1.380   6.892   8.295 -0.1298 -2.1137  1.3011
 4384TIP3   OH234786   6.075   2.027   2.593 -0.5316  0.3271 -0.5534
 4384TIP3    H134787   6.031   1.971   2.530 -0.7705 -0.3412  0.1895
 4384TIP3    H234788   6.065   2.115   2.558 -2.3774  0.1809 -0.4566
 4385TIP3   OH234789   0.949   2.543   6.984 -0.0884 -0.2441 -0.2683
 4385TIP3    H134790   0.910   2.514   6.902  0.5691 -0.1715 -0.6153
 4385TIP3    H234791   0.981   2.631   6.965 -0.6995  0.1159  0.3261
 4386TIP3   OH234792   6.825   1.866   1.165 -0.2066  0.0312  0.2289
 4386TIP3    H134793   6.824   1.847   1.071  0.3913 -1.0897  0.4305
 4386TIP3    H234794   6.916   1.850   1.191  0.1436  2.3292  0.6294
 4387TIP3   OH234795   5.086   6.529   6.456 -0.4233  0.1697  0.4032
 4387TIP3    H134796   5.168   6.481   6.446 -0.4300  0.3892 -0.8633
 4387TIP3    H234797   5.023   6.463   6.483 -0.4729 -0.6105 -1.4839
 4388TIP3   OH234798   2.450   1.243   0.048 -0.3901  0.2968  0.3232
 4388TIP3    H134799   2.539   1.257   0.080 -0.3232 -0.6166  0.5735
 4388TIP3    H234800   2.395   1.255   0.126 -0.4144  0.1391  0.3312
 4389TIP3   OH234801   6.584   0.767   7.088  0.0929  0.1128 -0.1061
 4389TIP3    H134802   6.598   0.814   7.005  1.9582 -0.9812 -0.4780
 4389TIP3    H234803   6.547   0.683   7.062  0.6716 -0.2274  0.1482
 4390TIP3   OH234804   6.185   2.772   1.985  0.4472  0.4975  0.1496
 4390TIP3    H134805   6.165   2.829   1.911 -0.5512 -0.9113 -0.7209
 4390TIP3    H234806   6.278   2.786   2.002  0.1175  2.7771  0.3542
 4391TIP3   OH234807   4.785   1.838   0.699 -0.0490 -0.0238 -0.1279
 4391TIP3    H134808   4.825   1.812   0.616 -0.2850  0.3755 -0.3721
 4391TIP3    H234809   4.851   1.819   0.765 -0.5750 -2.2033 -0.1546
 4392TIP3   OH234810   3.594   6.378   8.251  0.0075 -0.0256  0.4736
 4392TIP3    H134811   3.682   6.415   8.244  0.9061 -1.5475  2.5306
 4392TIP3    H234812   3.535   6.450   8.230  1.7090  1.5410  0.8607
 4393TIP3   OH234813   2.962   3.599   0.621  0.6916 -0.2691 -0.0913
 4393TIP3    H134814   2.914   3.539   0.677  0.2117  0.7933  0.6587
 4393TIP3    H234815   2.910   3.605   0.541  1.1968 -1.5065 -0.5525
 4394TIP3   OH234816   5.099   0.412   0.622  0.5152 -0.2919  0.6041
 4394TIP3    H134817   5.048   0.464   0.683  0.6482 -0.3273  0.7465
 4394TIP3    H234818   5.034   0.360   0.574  0.2422  1.1169 -0.6115
 4395TIP3   OH234819   2.772   4.909   1.119 -0.4155  0.0441  0.0598
 4395TIP3    H134820   2.782   4.905   1.024  2.4346 -3.0932  0.2888
 4395TIP3    H234821   2.678   4.919   1.134 -1.0803 -0.6150 -3.0942
 4396TIP3   OH234822   0.310   0.098   2.649 -0.6053  0.4161 -0.1063
 4396TIP3    H134823   0.243   0.154   2.611 -1.7125 -0.0174  1.1240
 4396TIP3    H234824   0.261   0.032   2.697  0.7024  0.2078  0.9941
 4397TIP3   OH234825   3.542   2.035   1.887  0.2918  0.1560  0.2029
 4397TIP3    H134826   3.484   1.961   1.866  1.5424 -0.4884 -1.1291
 4397TIP3    H234827   3.595   2.003   1.960 -1.2833  0.9233  1.7623
 4398TIP3   OH234828   2.487   2.660   1.861  0.1566 -0.2935 -0.8510
 4398TIP3    H134829   2.409   2.616   1.895  1.1804 -3.1268 -1.9213
 4398TIP3    H234830   2.534   2.690   1.938  0.0002 -2.1981  0.0239
 4399TIP3   OH234831   6.148   6.326   0.865 -0.2188  0.1722 -0.3286
 4399TIP3    H134832   6.200   6.384   0.810  2.5964 -0.9438  0.9693
 4399TIP3    H234833   6.210   6.262   0.897 -2.7094 -2.0839  0.3316
 4400TIP3   OH234834   6.473   5.888   2.501  0.0687  0.1186 -0.2282
 4400TIP3    H134835   6.401   5.825   2.505  1.0945 -1.1724 -1.2403
 4400TIP3    H234836   6.549   5.836   2.476  0.6724  1.9882 -2.6186
 4401TIP3   OH234837   3.276   4.617   0.980  0.1861  0.7323 -0.0222
 4401TIP3    H134838   3.196   4.651   1.021  0.6595 -0.5061  2.0081
 4401TIP3    H234839   3.257   4.525   0.962  1.4532  0.1694  1.3608
 4402TIP3   OH234840   4.848   5.633   0.473 -0.1285 -0.1350 -1.0550
 4402TIP3    H134841   4.854   5.538   0.477 -2.4960 -0.3573 -1.0269
 4402TIP3    H234842   4.937   5.663   0.457  1.2694 -2.1383  2.0082
 4403TIP3   OH234843   1.124   1.493   7.813  0.4406  0.4568  0.8417
 4403TIP3    H134844   1.193   1.431   7.788  0.0813 -0.4816  2.0675
 4403TIP3    H234845   1.135   1.567   7.753  1.3777 -0.4517 -0.1537
 4404TIP3   OH234846   0.679   4.930   8.022  0.4667  0.1135 -0.2853
 4404TIP3    H134847   0.702   4.837   8.012  3.4778  0.8415 -1.1840
 4404TIP3    H234848   0.586   4.934   8.000  0.5563 -2.5021 -1.5683
 4405TIP3   OH234849   2.476   5.189   0.422 -0.7998  0.4678 -0.1124
 4405TIP3    H134850   2.450   5.277   0.396 -2.4919  0.7184  2.2103
 4405TIP3    H234851   2.427   5.131   0.363  0.1316  0.9993 -1.4798
 4406TIP3   OH234852   0.406   6.698   1.038 -0.5388  0.3354 -0.1942
 4406TIP3    H134853   0.365   6.757   0.975  1.3670  1.4114 -0.4916
 4406TIP3    H234854   0.483   6.664   0.993 -0.0025 -0.0971  1.0037
 4407TIP3   OH234855   6.133   0.322   6.595 -0.5072  0.4136 -0.7352
 4407TIP3    H134856   6.042   0.305   6.619 -0.6374  1.7240 -0.1947
 4407TIP3    H234857   6.163   0.241   6.553 -1.6386 -0.3616 -0.1012
 4408TIP3   OH234858   3.692   6.018   7.405  0.4156 -0.1944 -0.1020
 4408TIP3    H134859   3.717   5.937   7.449 -0.5301 -0.0271  0.7712
 4408TIP3    H234860   3.600   6.007   7.383  0.5150  0.2887 -0.8046
 4409TIP3   OH234861   1.897   3.476   6.914  0.4451 -0.0512  0.1699
 4409TIP3    H134862   1.914   3.520   6.998  1.6368  1.3691 -0.7691
 4409TIP3    H234863   1.893   3.547   6.851  1.1024 -1.2054 -1.2161
 4410TIP3   OH234864   0.608   0.355   2.843  0.0322 -0.3300 -0.1841
 4410TIP3    H134865   0.694   0.323   2.870  0.3274  2.4348  2.6406
 4410TIP3    H234866   0.552   0.342   2.920 -1.2015  0.9730 -0.8205
 4411TIP3   OH234867   4.155   4.980   0.933 -0.3559  0.8818 -0.1293
 4411TIP3    H134868   4.079   4.987   0.992 -0.9229 -0.2162 -0.6757
 4411TIP3    H234869   4.174   5.069   0.907 -1.7394  1.1532 -0.2937
 4412TIP3   OH234870   4.342   1.824   1.916  0.8066 -0.4308 -0.1397
 4412TIP3    H134871   4.341   1.750   1.977  0.5039 -0.9054 -0.7020
 4412TIP3    H234872   4.433   1.853   1.915  0.7947 -0.3574  0.6058
 4413TIP3   OH234873   5.608   6.593   1.677  0.7265  0.2429 -0.3682
 4413TIP3    H134874   5.620   6.586   1.772 -0.4515 -2.0419 -0.3062
 4413TIP3    H234875   5.685   6.551   1.639  1.5587  1.8077 -0.4900
 4414TIP3   OH234876   4.568   3.831   6.775 -0.1354  0.3630  0.0466
 4414TIP3    H134877   4.617   3.818   6.856  1.2232  4.4143  0.1086
 4414TIP3    H234878   4.634   3.854   6.710 -1.4375 -0.2365 -1.5649
 4415TIP3   OH234879   5.843   4.855   6.442  0.5154  0.0031  0.6241
 4415TIP3    H134880   5.837   4.935   6.390 -0.5454 -1.1920 -1.1952
 4415TIP3    H234881   5.936   4.842   6.456  0.9149 -0.0352 -1.7052
 4416TIP3   OH234882   0.774   2.574   7.191 -0.6217  0.5605  0.1247
 4416TIP3    H134883   0.705   2.507   7.188 -0.7847  0.7570 -0.8266
 4416TIP3    H234884   0.817   2.568   7.106 -0.8397  1.8740 -0.1045
 4417TIP3   OH234885   5.317   2.473   8.145 -0.1689  0.3207  0.5922
 4417TIP3    H134886   5.318   2.459   8.240  0.9020 -1.5872  0.3601
 4417TIP3    H234887   5.298   2.386   8.108 -1.1921  1.1505 -0.9429
 4418TIP3   OH234888   3.313   2.833   0.833 -0.2521  0.3409  0.7297
 4418TIP3    H134889   3.357   2.918   0.821 -1.0269  1.4394  4.2546
 4418TIP3    H234890   3.382   2.775   0.866 -0.1418  0.1876  0.2321
 4419TIP3   OH234891   6.072   0.782   7.284 -0.3272 -0.1565 -0.7393
 4419TIP3    H134892   6.108   0.763   7.197 -0.3363 -2.4599 -0.2946
 4419TIP3    H234893   5.992   0.729   7.289 -1.3430  1.3694  0.0083
 4420TIP3   OH234894   0.100   3.253   7.404 -0.2241 -0.2488 -0.1817
 4420TIP3    H134895   0.010   3.284   7.405 -0.4323 -0.8266 -0.6941
 4420TIP3    H234896   0.094   3.160   7.383  0.5060 -0.1990 -0.6574
 4421TIP3   OH234897   5.230   4.011   8.223  0.3301  0.5043 -0.7745
 4421TIP3    H134898   5.213   3.928   8.268  0.5370  0.2798 -1.1093
 4421TIP3    H234899   5.143   4.049   8.208  0.2242  0.2447 -0.8168
 4422TIP3   OH234900   4.714   5.341   8.165  0.3953 -1.1305  0.0403
 4422TIP3    H134901   4.662   5.419   8.185 -0.5490 -1.8069  0.3274
 4422TIP3    H234902   4.682   5.313   8.079  1.6364 -0.4826 -0.6425
 4423TIP3   OH234903   6.219   6.260   7.998  0.4569 -0.3905  0.2580
 4423TIP3    H134904   6.164   6.323   8.044 -0.4599 -1.3777  0.5397
 4423TIP3    H234905   6.289   6.314   7.960 -1.4109  1.0907 -1.2752
 4424TIP3   OH234906   3.667   6.497   7.034  0.0974 -0.0209 -0.2434
 4424TIP3    H134907   3.709   6.449   7.105  0.5210 -0.5074 -0.8050
 4424TIP3    H234908   3.680   6.589   7.056  0.9140 -0.1666 -0.0807
 4425TIP3   OH234909   3.465   0.138   7.873 -0.2354 -0.2284  0.1981
 4425TIP3    H134910   3.548   0.094   7.856 -0.1417 -0.3691  1.0003
 4425TIP3    H234911   3.490   0.228   7.894 -0.3014 -0.2043  0.1728
 4426TIP3   OH234912   2.255   0.134   0.438 -0.3032 -0.2252 -0.0489
 4426TIP3    H134913   2.197   0.190   0.385 -0.3440 -0.8065 -0.6268
 4426TIP3    H234914   2.205   0.118   0.518 -0.4003  0.3439  0.0120
 4427TIP3   OH234915   6.588   3.314   8.594  0.2498 -0.9916  0.3847
 4427TIP3    H134916   6.574   3.393   8.646 -0.3166 -1.5990  1.1712
 4427TIP3    H234917   6.683   3.308   8.585  0.2961 -0.1719  0.2346
 4428TIP3   OH234918   2.640   2.475   0.786 -0.0438  0.5992 -0.0868
 4428TIP3    H134919   2.566   2.467   0.724  1.0978 -3.5711 -1.2540
 4428TIP3    H234920   2.599   2.477   0.872 -1.5731  2.8407 -0.7863
 4429TIP3   OH234921   5.684   2.598   7.061 -0.4075  0.4872 -0.3039
 4429TIP3    H134922   5.661   2.663   7.128 -2.0073  0.8057 -1.1060
 4429TIP3    H234923   5.779   2.605   7.053 -0.2952  1.1798  1.1758
 4430TIP3   OH234924   4.175   1.332   7.244 -0.1967 -0.2828  0.7525
 4430TIP3    H134925   4.108   1.378   7.193 -0.3415 -0.4413  0.7988
 4430TIP3    H234926   4.256   1.347   7.196 -0.4957 -1.3126 -0.1172
 4431TIP3   OH234927   1.755   6.470   7.926 -0.1513 -0.0294 -0.0811
 4431TIP3    H134928   1.773   6.559   7.954  1.3466  0.0194 -1.0268
 4431TIP3    H234929   1.783   6.415   8.000 -0.6529  0.2661  0.3271
 4432TIP3   OH234930   1.355   3.233   1.909 -0.3548 -0.5552  0.3227
 4432TIP3    H134931   1.266   3.251   1.939 -1.1838 -1.7209 -1.2634
 4432TIP3    H234932   1.366   3.139   1.921  0.0215 -0.7083 -1.0763
 4433TIP3   OH234933   5.253   4.382   8.183 -0.3840 -0.0588 -0.7379
 4433TIP3    H134934   5.322   4.325   8.217 -0.3465  1.5352  2.1892
 4433TIP3    H234935   5.179   4.369   8.242 -0.6268  2.2770 -0.4016
 4434TIP3   OH234936   3.443   5.942   1.996 -0.1533  0.1810 -0.4463
 4434TIP3    H134937   3.364   5.895   1.969 -0.9067  0.1770  1.5677
 4434TIP3    H234938   3.417   6.034   1.999 -0.2117  0.1499  0.5230
 4435TIP3   OH234939   4.531   0.198   0.740  0.7995  0.1694 -0.2517
 4435TIP3    H134940   4.588   0.129   0.775  2.4451  0.9744 -1.2489
 4435TIP3    H234941   4.581   0.278   0.750  0.5997  0.6749 -2.7754
 4436TIP3   OH234942   2.523   4.323   2.393 -0.1859  0.4694  0.1879
 4436TIP3    H134943   2.591   4.280   2.445 -0.3729 -0.7784 -0.5351
 4436TIP3    H234944   2.471   4.372   2.456 -0.3109 -0.8765  1.1752
 4437TIP3   OH234945   0.531   6.365   2.563  0.6727  0.4697 -0.4592
 4437TIP3    H134946   0.582   6.295   2.522  1.5460  1.5356 -1.2674
 4437TIP3    H234947   0.526   6.433   2.496 -0.9581  0.8205 -0.0208
 4438TIP3   OH234948   0.081   5.501   1.156  0.4197 -0.3725  0.3886
 4438TIP3    H134949   0.083   5.594   1.180  1.1411 -0.5301  0.9845
 4438TIP3    H234950   0.035   5.499   1.072 -0.2787  0.4373  0.7347
 4439TIP3   OH234951   4.959   3.094   7.911  0.2048 -0.2791  0.2477
 4439TIP3    H134952   4.869   3.126   7.909  0.1934 -0.3123  0.2228
 4439TIP3    H234953   4.968   3.053   7.997 -0.0743 -1.0618 -0.0885
 4440TIP3   OH234954   5.206   3.933   7.568 -0.3389 -0.1583  0.4324
 4440TIP3    H134955   5.301   3.945   7.579 -0.3916  0.5040  0.2040
 4440TIP3    H234956   5.197   3.845   7.533  0.2263 -0.0662  0.0435
 4441TIP3   OH234957   3.237   1.078   1.530 -0.0508  0.1938 -0.0373
 4441TIP3    H134958   3.212   1.165   1.498  0.9263  0.0469 -1.2945
 4441TIP3    H234959   3.157   1.025   1.520 -0.2454  0.5894 -0.6581
 4442TIP3   OH234960   6.415   1.397   1.048  0.0092  0.3389 -0.1307
 4442TIP3    H134961   6.370   1.435   1.123  1.4968  1.1189  0.3873
 4442TIP3    H234962   6.392   1.454   0.974  1.3583  1.6642  0.4331
 4443TIP3   OH234963   5.746   5.784   2.605 -0.2544 -0.6243  0.2348
 4443TIP3    H134964   5.772   5.870   2.636 -3.1871  0.7459 -0.7392
 4443TIP3    H234965   5.745   5.729   2.684  0.0677  0.6682  1.1633
 4444TIP3   OH234966   2.165   5.863   0.302 -0.0961 -0.1134  0.0632
 4444TIP3    H134967   2.166   5.954   0.274 -2.4038 -0.0568  0.0081
 4444TIP3    H234968   2.255   5.833   0.288  0.7286  2.1282  0.0950
 4445TIP3   OH234969   3.537   2.842   1.771  0.0828 -0.4138  0.5605
 4445TIP3    H134970   3.553   2.910   1.706 -0.2474 -1.8465 -1.1130
 4445TIP3    H234971   3.492   2.886   1.842 -0.1242  1.1121 -0.4715
 4446TIP3   OH234972   1.685   6.729   7.122 -0.1676 -0.0346  0.2463
 4446TIP3    H134973   1.711   6.748   7.212 -0.6245  0.3985  0.2903
 4446TIP3    H234974   1.605   6.678   7.130 -1.4752  1.9010  0.0807
 4447TIP3   OH234975   1.349   2.873   8.005 -0.0416 -0.3742 -0.4004
 4447TIP3    H134976   1.423   2.823   8.039 -0.0326 -1.6502 -2.2021
 4447TIP3    H234977   1.349   2.856   7.911 -1.5739  1.0168 -0.7007
 4448TIP3   OH234978   0.279   5.125   2.165  0.5836 -0.2985  0.0371
 4448TIP3    H134979   0.269   5.046   2.219  0.2034  0.2527  0.7948
 4448TIP3    H234980   0.248   5.099   2.078 -0.6614 -0.6563  0.5675
 4449TIP3   OH234981   1.841   3.783   7.098  0.3615  0.1008  0.2800
 4449TIP3    H134982   1.888   3.851   7.050 -0.0414  0.3355  0.2127
 4449TIP3    H234983   1.760   3.826   7.127  0.4678 -0.1181  0.9237
 4450TIP3   OH234984   0.602   1.574   1.500 -0.8762  0.1766  0.3269
 4450TIP3    H134985   0.556   1.612   1.575 -1.8036 -3.1263  1.5778
 4450TIP3    H234986   0.680   1.533   1.537 -0.3806  0.0331 -0.8203
 4451TIP3   OH234987   1.946   3.222   0.825 -0.2322  0.3643  0.0299
 4451TIP3    H134988   1.888   3.149   0.805 -0.2783  0.6199 -0.8457
 4451TIP3    H234989   2.031   3.197   0.788 -0.5019  1.1623 -1.1846
 4452TIP3   OH234990   2.884   2.591   1.620 -0.7490  0.3812 -0.1223
 4452TIP3    H134991   2.871   2.529   1.692  1.6826 -0.4301 -0.2857
 4452TIP3    H234992   2.807   2.578   1.564 -0.5972 -2.1928  0.1123
 4453TIP3   OH234993   3.331   6.346   2.259 -0.5752  0.5012  0.7996
 4453TIP3    H134994   3.269   6.316   2.326  0.5797 -1.1631  1.1718
 4453TIP3    H234995   3.411   6.367   2.308 -0.8456  2.8371  0.3536
 4454TIP3   OH234996   4.184   1.362   7.507 -0.4209  0.3984  0.1746
 4454TIP3    H134997   4.186   1.347   7.413 -0.7341 -3.3031  0.6135
 4454TIP3    H234998   4.276   1.375   7.531 -0.1250 -0.3882 -0.4749
 4455TIP3   OH234999   5.140   2.586   0.779 -0.3057  0.1012  0.0526
 4455TIP3    H135000   5.046   2.573   0.772 -0.2558 -0.1676 -0.1025
 4455TIP3    H235001   5.150   2.681   0.789 -0.6516  0.0415  1.0466
 4456TIP3   OH235002   5.747   0.159   1.593 -0.1126 -0.7187  0.3415
 4456TIP3    H135003   5.722   0.251   1.585  2.2469  0.0849  1.2787
 4456TIP3    H235004   5.719   0.120   1.510  2.5965  1.8633 -2.0397
 4457TIP3   OH235005   3.934   0.052   0.604 -0.9826 -0.5503  0.2380
 4457TIP3    H135006   3.839   0.064   0.607 -0.8449  1.1407 -0.9401
 4457TIP3    H235007   3.970   0.138   0.625  0.3173 -1.2077  0.8309
 4458TIP3   OH235008   2.099   6.434   0.637  0.0698 -0.0236 -0.2410
 4458TIP3    H135009   2.020   6.382   0.644  0.0705 -0.1186 -0.8253
 4458TIP3    H235010   2.147   6.395   0.563 -1.0297  2.1683 -2.2674
 4459TIP3   OH235011   2.451   0.733   0.506  0.0110 -0.2151 -0.2249
 4459TIP3    H135012   2.442   0.639   0.520  1.8022 -0.3924 -0.0238
 4459TIP3    H235013   2.426   0.773   0.589  0.4206 -0.5989  0.0840
 4460TIP3   OH235014   6.207   5.208   8.308  0.4554 -0.0108  0.0750
 4460TIP3    H135015   6.209   5.302   8.330 -0.7414 -0.1563  0.9040
 4460TIP3    H235016   6.251   5.166   8.381  1.6855 -0.0691 -0.6617
 4461TIP3   OH235017   3.990   0.894   7.857  0.4521  0.3648  0.2069
 4461TIP3    H135018   3.921   0.889   7.923  0.9252 -1.6957  0.6125
 4461TIP3    H235019   3.974   0.977   7.812 -2.1129  0.0974  0.4834
 4462TIP3   OH235020   0.391   1.027   1.251 -0.7700  0.1894  0.4193
 4462TIP3    H135021   0.347   1.061   1.329 -0.4909  4.0356 -0.8906
 4462TIP3    H235022   0.459   1.092   1.231  0.0956 -1.3594 -2.2653
 4463TIP3   OH235023   5.035   5.444   8.038 -0.1997  0.5486  0.3541
 4463TIP3    H135024   5.046   5.430   8.132 -0.4141 -1.5333  0.1275
 4463TIP3    H235025   5.044   5.357   8.000  0.6914  1.4555 -1.6577
 4464TIP3   OH235026   4.537   3.668   7.043  0.4196  0.0129  0.0776
 4464TIP3    H135027   4.618   3.718   7.046  0.2289  0.3922 -0.7015
 4464TIP3    H235028   4.549   3.608   6.969  0.5932 -1.0213  0.9179
 4465TIP3   OH235029   6.237   5.882   8.589  0.3812  0.1628 -0.3937
 4465TIP3    H135030   6.220   5.795   8.555 -0.2804 -0.0989  0.5878
 4465TIP3    H235031   6.304   5.870   8.657  2.1669  0.7625 -1.9376
 4466TIP3   OH235032   5.834   6.692   8.565 -0.0473  0.0482 -0.0742
 4466TIP3    H135033   5.798   6.613   8.605  1.1054 -0.4571 -0.0122
 4466TIP3    H235034   5.772   6.761   8.590 -1.1102 -0.8318 -0.1942
 4467TIP3   OH235035   5.954   0.910   2.347 -0.1802 -0.4010  0.1911
 4467TIP3    H135036   5.869   0.870   2.327  0.0603 -0.5059 -0.6490
 4467TIP3    H235037   5.995   0.848   2.408 -0.2339 -0.9213 -0.2937
 4468TIP3   OH235038   5.166   5.197   8.030  0.5236 -0.4100  0.1493
 4468TIP3    H135039   5.086   5.147   8.013  0.7655 -0.9386  0.5157
 4468TIP3    H235040   5.182   5.185   8.123  0.6072  0.3408  0.2350
 4469TIP3   OH235041   6.337   5.086   7.854  0.3272 -0.5916  0.1352
 4469TIP3    H135042   6.362   5.158   7.796  2.8786 -0.6550  1.0525
 4469TIP3    H235043   6.289   5.128   7.925 -1.0079 -0.2513 -0.9266
 4470TIP3   OH235044   5.554   4.847   8.153 -0.0325  0.1957  0.5032
 4470TIP3    H135045   5.578   4.812   8.239  0.7913 -0.6249 -0.0476
 4470TIP3    H235046   5.621   4.912   8.134 -0.2700  0.4455  0.5147
 4471TIP3   OH235047   5.371   0.374   1.825 -0.3623 -0.1941 -0.1633
 4471TIP3    H135048   5.278   0.395   1.830 -0.5958 -1.2941  0.3404
 4471TIP3    H235049   5.382   0.333   1.739 -0.0916  1.0337 -0.7377
 4472TIP3   OH235050   6.740   5.445   2.606 -0.2750  0.2558 -0.3832
 4472TIP3    H135051   6.776   5.361   2.636 -1.2251 -0.0624 -0.0967
 4472TIP3    H235052   6.766   5.451   2.514  0.8955  0.2650 -0.0755
 4473TIP3   OH235053   0.071   5.199   1.253 -0.0730  0.3490 -0.2234
 4473TIP3    H135054   0.066   5.278   1.200  0.3338 -0.5131 -1.5889
 4473TIP3    H235055   0.146   5.151   1.218 -1.0867 -1.2584 -0.2880
 4474TIP3   OH235056   3.069   0.184   0.775  0.1314 -0.2083 -0.4874
 4474TIP3    H135057   3.082   0.273   0.807  1.5945 -0.4508 -0.3443
 4474TIP3    H235058   2.984   0.187   0.731 -0.7770  0.7631  1.1937
 4475TIP3   OH235059   1.868   4.717   8.314  0.0592 -0.9918  0.1388
 4475TIP3    H135060   1.852   4.799   8.362 -0.9083 -0.8026 -0.4789
 4475TIP3    H235061   1.782   4.677   8.306  0.6260 -2.4983  1.1542
 4476TIP3   OH235062   2.729   6.703   1.118 -0.0697 -0.3775 -0.4927
 4476TIP3    H135063   2.705   6.715   1.026  0.9870 -0.6336 -0.8098
 4476TIP3    H235064   2.768   6.616   1.122 -0.2464 -0.4325  0.2346
 4477TIP3   OH235065   1.861   0.741   0.507  0.2428  0.2038  0.0549
 4477TIP3    H135066   1.879   0.744   0.601  0.3072  1.9494  0.0170
 4477TIP3    H235067   1.897   0.823   0.473 -1.3388  0.4254 -1.2083
 4478TIP3   OH235068   4.651   5.412   8.547  0.0780 -0.0857 -0.5751
 4478TIP3    H135069   4.615   5.354   8.614  0.5769 -2.1388 -1.9810
 4478TIP3    H235070   4.576   5.465   8.518 -0.1596  0.7762  1.4824
 4479TIP3   OH235071   3.692   6.346   2.209  0.0695  0.8202 -0.0627
 4479TIP3    H135072   3.655   6.413   2.151  0.2881  0.2108 -0.9143
 4479TIP3    H235073   3.640   6.353   2.289 -0.5681  1.3361 -0.5077
 4480TIP3   OH235074   5.516   4.347   0.213  0.2693  0.0201  0.6662
 4480TIP3    H135075   5.492   4.298   0.135  0.5574  0.4091  0.3230
 4480TIP3    H235076   5.563   4.284   0.268 -2.2395 -1.0058  1.7642
 4481TIP3   OH235077   4.287   2.700   0.610  0.2851  0.6239  0.4090
 4481TIP3    H135078   4.216   2.700   0.546 -0.4636  3.1587  1.1026
 4481TIP3    H235079   4.279   2.616   0.655  0.3174 -0.8717 -2.2000
 4482TIP3   OH235080   0.438   2.663   2.731 -0.4431 -0.4449 -0.1156
 4482TIP3    H135081   0.456   2.733   2.668  0.2281  1.6733  2.2576
 4482TIP3    H235082   0.507   2.671   2.797 -2.9639 -0.1401  2.7507
 4483TIP3   OH235083   6.145   2.564   2.679  0.4387 -0.4567  0.2806
 4483TIP3    H135084   6.205   2.518   2.737  0.6751 -1.7263 -0.9309
 4483TIP3    H235085   6.194   2.578   2.598  0.1434  1.3597  0.3690
 4484TIP3   OH235086   3.936   3.978   1.943 -0.4417  0.3195  0.1694
 4484TIP3    H135087   3.900   3.905   1.892  0.0899 -0.7056  1.2047
 4484TIP3    H235088   4.010   4.009   1.891 -1.5222  1.0940 -0.9716
 4485TIP3   OH235089   3.098   3.556   0.925  0.1701  0.7564  0.0615
 4485TIP3    H135090   3.168   3.502   0.888  0.0321  1.4412 -1.2661
 4485TIP3    H235091   3.116   3.557   1.019  0.1297 -1.6265  0.1502
 4486TIP3   OH235092   5.012   0.017   8.377  0.1702  0.2875  0.1486
 4486TIP3    H135093   4.982  -0.073   8.373  0.4627  0.1148  1.4400
 4486TIP3    H235094   5.102   0.011   8.409  0.8672  0.9268 -1.5740
 4487TIP3   OH235095   0.740   2.437   7.942 -0.0638 -0.2555  0.0343
 4487TIP3    H135096   0.742   2.418   7.848 -0.4879  0.1525 -0.0558
 4487TIP3    H235097   0.698   2.360   7.981 -1.5253  0.3393 -0.3054
 4488TIP3   OH235098   1.219   0.992   0.830 -0.6606  0.7289 -0.1869
 4488TIP3    H135099   1.207   0.902   0.801  0.5271  0.8668 -1.2157
 4488TIP3    H235100   1.148   1.041   0.788 -1.8792  0.1638  1.1240
 4489TIP3   OH235101   0.128   5.324   0.435 -0.1783 -0.4815  0.1873
 4489TIP3    H135102   0.129   5.374   0.516 -0.4516 -0.0549 -0.0661
 4489TIP3    H235103   0.121   5.233   0.463  0.4191 -0.3881  0.6524
 4490TIP3   OH235104   3.429   4.023   1.264 -0.0972  0.3413  0.2950
 4490TIP3    H135105   3.503   3.966   1.285  1.3068  2.2500  0.8029
 4490TIP3    H235106   3.367   3.966   1.218  1.7679 -1.2723 -0.3631
 4491TIP3   OH235107   0.869   3.060   2.112 -0.0096 -0.1273  0.5070
 4491TIP3    H135108   0.781   3.090   2.135 -0.8330 -1.0728 -1.2074
 4491TIP3    H235109   0.913   3.045   2.196 -1.7189 -0.3249  1.4012
 4492TIP3   OH235110   4.132   3.018   6.437 -0.0576  0.5443  0.1361
 4492TIP3    H135111   4.037   3.013   6.433 -0.0932  0.6927  0.7244
 4492TIP3    H235112   4.150   3.090   6.498  0.4299  0.3631  0.2123
 4493TIP3   OH235113   1.038   3.129   8.321  0.2908  0.8359 -1.0916
 4493TIP3    H135114   1.090   3.108   8.243  0.4489  0.6221 -0.9329
 4493TIP3    H235115   0.974   3.058   8.326  0.9404  0.2751 -0.4513
 4494TIP3   OH235116   1.446   0.358   8.474 -0.0527  0.4366 -0.1510
 4494TIP3    H135117   1.502   0.299   8.524 -0.3328 -0.6105 -1.0288
 4494TIP3    H235118   1.388   0.398   8.539  1.2684  1.0631  0.6843
 4495TIP3   OH235119   4.038   1.331   2.307 -0.1222  0.2030 -0.3545
 4495TIP3    H135120   4.071   1.327   2.217 -1.3786  1.8929 -0.9307
 4495TIP3    H235121   4.020   1.239   2.330 -1.3468 -0.1431 -2.4471
 4496TIP3   OH235122   1.348   5.826   1.074  0.4964  0.0959 -0.7802
 4496TIP3    H135123   1.334   5.804   0.982 -0.3899 -0.2251 -0.5845
 4496TIP3    H235124   1.260   5.834   1.111  0.7939 -1.6414  0.4575
 4497TIP3   OH235125   5.626   0.996   7.124  0.6032  0.2123  0.3384
 4497TIP3    H135126   5.658   0.956   7.044  1.2458 -0.9514  1.1321
 4497TIP3    H235127   5.647   0.932   7.192 -0.6069  0.8122  1.3302
 4498TIP3   OH235128   2.525   0.984   0.430  0.9002  0.3750 -0.2440
 4498TIP3    H135129   2.514   0.889   0.429 -1.1827  0.5533 -1.9760
 4498TIP3    H235130   2.619   0.998   0.417  1.6342 -1.3967  2.3617
 4499TIP3   OH235131   4.058   6.784   8.211  0.1185 -0.1201 -0.0006
 4499TIP3    H135132   4.037   6.761   8.302  0.3299  0.8564  0.3031
 4499TIP3    H235133   4.152   6.802   8.212 -0.1625  1.5097 -0.0423
 4500TIP3   OH235134   3.958   0.115   2.238  0.4342  0.2268 -0.6450
 4500TIP3    H135135   3.894   0.065   2.187  1.3525 -2.4547  0.6557
 4500TIP3    H235136   3.988   0.055   2.306  1.9848  2.4435  0.7968
 4501TIP3   OH235137   6.526   4.641   0.448  0.2287 -0.0445  0.4989
 4501TIP3    H135138   6.497   4.732   0.450 -0.6877 -0.2954 -0.4673
 4501TIP3    H235139   6.458   4.593   0.496 -0.5667 -0.5204 -1.0398
 4502TIP3   OH235140   1.564   0.247   1.893 -0.0160  0.0329 -0.1055
 4502TIP3    H135141   1.638   0.259   1.952 -0.1372  0.3526 -0.0110
 4502TIP3    H235142   1.545   0.336   1.861 -1.5372  0.2986  1.3285
 4503TIP3   OH235143   5.955   0.622   6.567 -0.0062 -0.1617  0.4605
 4503TIP3    H135144   5.969   0.532   6.597  0.3995 -0.1343  0.3475
 4503TIP3    H235145   6.029   0.671   6.602 -0.9102  0.4116  1.6855
 4504TIP3   OH235146   6.146   3.289   2.168 -0.2649  0.2531  0.2479
 4504TIP3    H135147   6.083   3.362   2.162 -0.8440 -0.3066 -0.8574
 4504TIP3    H235148   6.117   3.239   2.244 -0.1685  0.8899  0.7136
 4505TIP3   OH235149   3.241   5.017   2.277  0.2253  0.3025 -0.9724
 4505TIP3    H135150   3.322   5.062   2.300  1.2859 -1.6196 -0.7134
 4505TIP3    H235151   3.249   4.930   2.318 -0.7721 -0.8717 -3.0989
 4506TIP3   OH235152   3.640   4.852   8.588 -0.2741 -0.3432 -0.2371
 4506TIP3    H135153   3.646   4.905   8.667 -0.0020  0.6395 -0.8904
 4506TIP3    H235154   3.655   4.914   8.517  0.1726 -1.3202 -1.0277
 4507TIP3   OH235155   6.095   5.687   7.537 -0.4396 -0.4615  0.1446
 4507TIP3    H135156   6.139   5.762   7.497  0.4602 -0.3051  1.4062
 4507TIP3    H235157   6.002   5.704   7.521 -0.1419 -0.8038 -2.5644
 4508TIP3   OH235158   5.583   2.466   1.789 -0.3660 -0.6466 -0.2031
 4508TIP3    H135159   5.678   2.476   1.775 -0.5868 -2.0716 -3.4441
 4508TIP3    H235160   5.562   2.535   1.852  2.5944  0.6469 -0.4328
 4509TIP3   OH235161   1.221   3.575   7.074  0.2045  0.1461  0.4660
 4509TIP3    H135162   1.212   3.560   6.979 -1.2649  0.1292  0.5813
 4509TIP3    H235163   1.304   3.621   7.083  0.4782 -0.0466 -0.8113
 4510TIP3   OH235164   6.339   6.628   8.305 -0.1835 -0.2687  0.2771
 4510TIP3    H135165   6.301   6.706   8.266 -0.5451 -0.2744  0.6133
 4510TIP3    H235166   6.363   6.654   8.394  0.2460 -0.3729  0.1935
 4511TIP3   OH235167   4.568   0.686   0.302 -0.0316  0.0393 -0.3539
 4511TIP3    H135168   4.500   0.622   0.321  1.4877 -1.1716  1.3786
 4511TIP3    H235169   4.541   0.764   0.350  0.3007 -0.8029  1.2901
 4512TIP3   OH235170   4.124   4.044   1.766 -0.0715 -0.4406 -0.5139
 4512TIP3    H135171   4.127   4.122   1.710 -0.1673  1.3619  1.8427
 4512TIP3    H235172   4.215   4.019   1.778 -0.0857 -1.4373 -2.1572
 4513TIP3   OH235173   6.707   0.716   8.049 -0.0337  0.2104 -0.5087
 4513TIP3    H135174   6.665   0.787   8.000  0.0385  0.4207 -0.2678
 4513TIP3    H235175   6.770   0.760   8.105 -0.6408  0.0427  0.3305
 4514TIP3   OH235176   1.830   0.558   8.397  0.0201  0.0134  0.1351
 4514TIP3    H135177   1.747   0.604   8.403  0.7567  1.3426  0.5086
 4514TIP3    H235178   1.845   0.545   8.303  0.4549  1.8236 -0.0811
 4515TIP3   OH235179   2.156   1.951   1.325 -0.5760 -0.1204  0.5444
 4515TIP3    H135180   2.179   1.921   1.237 -0.4074 -0.0100  0.5500
 4515TIP3    H235181   2.138   1.871   1.374 -1.8372 -0.1434  0.0958
 4516TIP3   OH235182   5.779   3.350   8.293 -0.4991  0.0142 -0.2350
 4516TIP3    H135183   5.787   3.333   8.199  0.5474 -1.8809  0.1441
 4516TIP3    H235184   5.869   3.360   8.323 -0.8742  1.9487  0.3916
 4517TIP3   OH235185   5.371   2.045   2.818  0.2186 -0.1956 -0.1726
 4517TIP3    H135186   5.458   2.009   2.834 -0.3848 -0.8111  2.0818
 4517TIP3    H235187   5.362   2.116   2.881 -1.3205 -0.9222  0.4888
 4518TIP3   OH235188   0.964   4.778   0.615 -0.5931 -0.6247 -0.1426
 4518TIP3    H135189   0.878   4.814   0.640 -0.4944 -0.6151  0.1952
 4518TIP3    H235190   0.943   4.708   0.554 -0.8780 -0.9438  0.3063
 4519TIP3   OH235191   2.431   5.233   1.574 -0.0287  0.2298  0.2033
 4519TIP3    H135192   2.423   5.138   1.566 -0.2298  0.3223 -0.8672
 4519TIP3    H235193   2.521   5.251   1.548 -0.2041  0.3871 -0.3198
 4520TIP3   OH235194   4.126   6.195   8.256 -0.5329  0.4504  1.0105
 4520TIP3    H135195   4.040   6.155   8.239 -1.0302  2.2098 -1.0712
 4520TIP3    H235196   4.123   6.279   8.210  1.8478  1.1546  1.9994
 4521TIP3   OH235197   5.817   3.980   0.678  0.2954  0.1557 -0.0271
 4521TIP3    H135198   5.728   3.995   0.647  0.3978  0.2192 -0.2928
 4521TIP3    H235199   5.872   4.004   0.604  0.5964  1.3203  0.5500
 4522TIP3   OH235200   6.049   4.570   7.434 -0.4472  0.3893 -0.6101
 4522TIP3    H135201   5.984   4.510   7.397  0.1160  1.0862 -2.9013
 4522TIP3    H235202   5.997   4.640   7.473 -1.0764 -0.4118  0.0336
 4523TIP3   OH235203   6.435   1.389   0.199 -0.1352  0.2527 -0.2219
 4523TIP3    H135204   6.404   1.436   0.122 -0.0813  0.5546 -0.0624
 4523TIP3    H235205   6.405   1.442   0.273 -0.7177 -0.3633 -0.0138
 4524TIP3   OH235206   5.326   4.286   0.667 -0.3195 -0.1762 -0.1073
 4524TIP3    H135207   5.313   4.346   0.593  1.3109 -0.6666 -0.8402
 4524TIP3    H235208   5.271   4.211   0.646 -0.8479  0.2278 -0.1801
 4525TIP3   OH235209   5.162   4.797   7.581  0.2522 -0.2148 -0.4638
 4525TIP3    H135210   5.220   4.869   7.557 -1.9561  1.6336 -0.5315
 4525TIP3    H235211   5.155   4.802   7.676 -1.4338  0.9817 -0.6102
 4526TIP3   OH235212   2.958   3.590   2.887  0.2540  0.5542  0.3645
 4526TIP3    H135213   2.955   3.681   2.857  2.2084  0.2450 -0.9911
 4526TIP3    H235214   3.016   3.546   2.824 -1.9043 -2.0326  0.0198
 4527TIP3   OH235215   0.106   4.054   2.041  0.3703 -0.1074  0.3793
 4527TIP3    H135216   0.166   3.988   2.076  0.9513  0.1009 -0.2018
 4527TIP3    H235217   0.037   4.004   1.999  0.8570 -0.3660 -0.1389
 4528TIP3   OH235218   5.874   0.417   8.545 -0.5011  0.0070 -0.4345
 4528TIP3    H135219   5.888   0.400   8.452 -1.0872 -1.6712 -0.2588
 4528TIP3    H235220   5.787   0.457   8.549 -0.1673  0.7709 -0.6545
 4529TIP3   OH235221   6.861   5.892   0.811 -0.3854  0.4081  0.0612
 4529TIP3    H135222   6.943   5.889   0.761 -0.7669 -2.3113 -0.5984
 4529TIP3    H235223   6.880   5.947   0.886  1.0197  2.5252 -1.7159
 4530TIP3   OH235224   3.395   6.603   0.818  0.3493  0.1514 -0.3961
 4530TIP3    H135225   3.472   6.652   0.787  0.7688  0.1123  0.5577
 4530TIP3    H235226   3.432   6.525   0.860 -0.2836 -0.5913 -1.1905
 4531TIP3   OH235227   6.090   6.008   8.248  0.4111  0.0478  0.1736
 4531TIP3    H135228   6.046   5.934   8.291  0.0024  0.6473  0.8006
 4531TIP3    H235229   6.113   6.067   8.319 -0.5467  1.2119 -0.4407
 4532TIP3   OH235230   2.583   6.307   0.321 -0.1781 -0.0867 -0.2019
 4532TIP3    H135231   2.624   6.222   0.338  0.5898  0.5118  1.0794
 4532TIP3    H235232   2.493   6.297   0.353 -0.9581 -1.2384 -2.5385
 4533TIP3   OH235233   5.816   4.250   2.365  0.8476  0.0355  0.1685
 4533TIP3    H135234   5.882   4.310   2.397  1.0929 -0.0990 -0.0828
 4533TIP3    H235235   5.774   4.215   2.444  1.6703 -0.5482  0.3550
 4534TIP3   OH235236   3.454   2.840   1.332  0.0846  0.0734 -0.7232
 4534TIP3    H135237   3.445   2.820   1.425  0.8009  2.0822 -0.1694
 4534TIP3    H235238   3.376   2.802   1.291 -1.2946  0.9093  1.0124
 4535TIP3   OH235239   0.159   0.001   1.058 -0.1053 -0.2286 -0.2821
 4535TIP3    H135240   0.124  -0.076   1.103  0.7953 -0.6848 -0.3352
 4535TIP3    H235241   0.084   0.060   1.050 -0.2940 -0.0634  1.9086
 4536TIP3   OH235242   5.373   3.765   8.508 -0.2175  0.3452 -0.3284
 4536TIP3    H135243   5.299   3.768   8.448 -1.6102 -0.4317  1.2825
 4536TIP3    H235244   5.395   3.672   8.515 -1.2652  0.1990  1.6954
 4537TIP3   OH235245   1.345   1.776   0.374 -0.3052 -0.1447 -0.3783
 4537TIP3    H135246   1.374   1.808   0.288 -1.4449 -0.6983 -0.9869
 4537TIP3    H235247   1.265   1.826   0.393  0.6114  0.9015  0.9825
 4538TIP3   OH235248   5.227   4.440   7.484  0.2930  0.3481 -0.0883
 4538TIP3    H135249   5.218   4.519   7.429 -0.9382 -1.0452 -2.0550
 4538TIP3    H235250   5.271   4.377   7.428  1.5378 -0.3072  1.5644
 4539TIP3   OH235251   3.456   6.138   2.430 -0.3316 -0.0263  0.1340
 4539TIP3    H135252   3.501   6.162   2.349  2.2035  0.1250  1.5204
 4539TIP3    H235253   3.469   6.043   2.437  0.5978  0.1612  1.0134
 4540TIP3   OH235254   4.706   3.020   1.969 -0.0427  0.1178 -0.2757
 4540TIP3    H135255   4.722   2.954   1.902 -0.2675  2.2265 -2.5764
 4540TIP3    H235256   4.613   3.009   1.991  0.0575 -0.6685 -0.2199
 4541TIP3   OH235257   0.963   3.354   2.253 -0.2347  0.3433 -0.2618
 4541TIP3    H135258   0.990   3.390   2.337  0.1234 -0.6938  0.0941
 4541TIP3    H235259   0.968   3.259   2.266  1.1456  0.1471 -1.8630
 4542TIP3   OH235260   4.795   2.356   7.500 -0.4836 -0.1053 -0.1702
 4542TIP3    H135261   4.881   2.328   7.532 -0.7360 -0.7184 -0.0159
 4542TIP3    H235262   4.802   2.352   7.405  0.4415  2.2239 -0.2843
 4543TIP3   OH235263   3.233   3.981   0.555 -0.0767  0.2419 -0.0847
 4543TIP3    H135264   3.158   4.040   0.548  0.0728  0.3039 -1.7962
 4543TIP3    H235265   3.290   4.007   0.483  2.7240  1.6747  2.4516
 4544TIP3   OH235266   6.122   0.408   2.012  0.3645 -0.0286  0.0295
 4544TIP3    H135267   6.174   0.488   2.017  0.6925 -0.1373 -1.2044
 4544TIP3    H235268   6.066   0.411   2.089  1.6445  0.4759  0.9847
 4545TIP3   OH235269   3.768   3.256   2.125  0.0010 -0.3633  0.5108
 4545TIP3    H135270   3.689   3.220   2.165  0.5331 -1.9344  0.2283
 4545TIP3    H235271   3.840   3.215   2.172  0.6337 -0.9651 -0.9035
 4546TIP3   OH235272   1.370   6.737   0.141  0.4474 -0.2337  0.2086
 4546TIP3    H135273   1.315   6.720   0.217 -1.2024  0.7751 -0.6849
 4546TIP3    H235274   1.428   6.662   0.136 -1.4671 -1.8400  0.7078
 4547TIP3   OH235275   4.846   5.886   1.294 -0.0301 -0.5313  0.2105
 4547TIP3    H135276   4.797   5.967   1.280  0.3880 -0.1216  1.0440
 4547TIP3    H235277   4.928   5.900   1.247  0.5051 -0.0027  1.2641
 4548TIP3   OH235278   5.269   5.724   2.042  0.4376  0.2291  0.0550
 4548TIP3    H135279   5.303   5.813   2.054  0.1299  0.3093  0.3296
 4548TIP3    H235280   5.244   5.695   2.129 -0.6739  0.3681 -0.1949
 4549TIP3   OH235281   4.791   1.349   1.007  0.3766 -0.3267 -0.1601
 4549TIP3    H135282   4.707   1.362   1.049 -0.1170 -2.3375 -0.4483
 4549TIP3    H235283   4.770   1.342   0.913  0.9375 -0.2240 -0.2981
 4550TIP3   OH235284   3.857   4.723   8.375 -0.0086  0.3397 -0.1659
 4550TIP3    H135285   3.848   4.762   8.462 -1.3446 -0.4569  0.0781
 4550TIP3    H235286   3.929   4.660   8.385 -0.9787 -0.6766  0.7391
 4551TIP3   OH235287   6.528   3.816   6.827  0.2443  0.0906  0.0939
 4551TIP3    H135288   6.490   3.759   6.761 -2.6757  0.8954  0.9209
 4551TIP3    H235289   6.592   3.761   6.873  0.4976 -1.2113 -1.7379
 4552TIP3   OH235290   1.930   6.511   1.782  0.6937  0.3115 -0.0881
 4552TIP3    H135291   1.983   6.587   1.809  1.7694 -0.6209  0.5385
 4552TIP3    H235292   1.994   6.441   1.771 -0.4760 -1.0744  1.4576
 4553TIP3   OH235293   0.818   4.328   8.725  0.0590 -0.0974 -0.3644
 4553TIP3    H135294   0.861   4.368   8.801 -0.2563 -0.2112 -0.1222
 4553TIP3    H235295   0.729   4.308   8.756  0.2543 -1.1400 -0.4195
 4554TIP3   OH235296   0.857   0.883   0.881  0.2574 -0.0575 -0.4968
 4554TIP3    H135297   0.914   0.899   0.957  1.3273  0.2411 -1.3439
 4554TIP3    H235298   0.794   0.817   0.912  2.4151 -2.0943 -0.1673
 4555TIP3   OH235299   4.963   6.218   0.514  0.5551 -0.1666  0.7765
 4555TIP3    H135300   4.884   6.191   0.467 -0.1251  0.5322  1.4885
 4555TIP3    H235301   5.034   6.204   0.452 -0.2651  0.2953 -0.2925
 4556TIP3   OH235302   0.457   6.871   7.728  0.0310  0.2040 -0.2283
 4556TIP3    H135303   0.364   6.885   7.743  0.4433  1.1980  1.7223
 4556TIP3    H235304   0.470   6.894   7.636 -1.0107  3.9680  0.3868
 4557TIP3   OH235305   2.164   6.530   8.282 -0.2017 -0.0137  0.1942
 4557TIP3    H135306   2.130   6.620   8.286  1.9296  0.8113  2.2846
 4557TIP3    H235307   2.259   6.541   8.285  0.1212 -2.3475 -0.1084
 4558TIP3   OH235308   2.164   2.719   1.794 -0.2606 -0.0401  0.6111
 4558TIP3    H135309   2.141   2.648   1.735  2.1080 -0.3556 -0.0633
 4558TIP3    H235310   2.167   2.678   1.881 -0.8646 -0.2686  0.5264
 4559TIP3   OH235311   2.597   1.638   0.636  0.8037 -0.2844 -0.1595
 4559TIP3    H135312   2.550   1.556   0.649  0.9562 -0.5899 -1.4039
 4559TIP3    H235313   2.530   1.705   0.636  0.7269 -0.3308  1.3853
 4560TIP3   OH235314   4.914   1.664   7.195 -0.6930  0.8928 -0.6679
 4560TIP3    H135315   4.830   1.709   7.185 -0.4689  1.0762 -1.8611
 4560TIP3    H235316   4.956   1.708   7.269 -2.2651 -0.2170  0.9694
 4561TIP3   OH235317   5.735   5.484   0.313 -0.0302 -0.0269 -0.1263
 4561TIP3    H135318   5.686   5.468   0.394 -1.3506  1.2773 -0.6234
 4561TIP3    H235319   5.669   5.478   0.244  0.8521  0.0782 -0.9948
 4562TIP3   OH235320   3.535   0.606   1.866 -0.3383 -0.1246 -0.2602
 4562TIP3    H135321   3.584   0.623   1.786  1.1428 -1.2221  0.3645
 4562TIP3    H235322   3.548   0.684   1.920 -3.1521  1.6075 -1.8490
 4563TIP3   OH235323   0.528   2.730   0.306 -0.5354 -0.4890  0.0895
 4563TIP3    H135324   0.564   2.779   0.380  1.0616  0.1230 -1.0418
 4563TIP3    H235325   0.594   2.663   0.286 -0.1520  0.3434 -1.7144
 4564TIP3   OH235326   4.223   5.211   0.856  0.0161  0.0391  0.4559
 4564TIP3    H135327   4.146   5.252   0.817  0.7653 -0.1278 -1.3089
 4564TIP3    H235328   4.292   5.277   0.846  1.0071 -1.2232 -1.5548
 4565TIP3   OH235329   5.386   4.313   6.751 -0.1790 -0.2067  0.5734
 4565TIP3    H135330   5.420   4.233   6.790 -0.8262 -1.3755 -1.1536
 4565TIP3    H235331   5.455   4.342   6.691 -1.0615 -1.1110 -0.9456
 4566TIP3   OH235332   6.075   3.260   2.731 -0.2235  0.1324 -0.7997
 4566TIP3    H135333   6.140   3.239   2.798 -0.3006  0.1189 -0.7296
 4566TIP3    H235334   5.996   3.283   2.780 -0.2695  0.1561 -0.8849
 4567TIP3   OH235335   2.891   3.550   8.448 -0.0681 -0.1974 -0.1779
 4567TIP3    H135336   2.799   3.568   8.470 -0.1878 -1.3943  0.3445
 4567TIP3    H235337   2.893   3.457   8.427  1.3390 -0.5747  1.4864
 4568TIP3   OH235338   2.873   5.458   1.507  0.7753  0.1173 -0.8222
 4568TIP3    H135339   2.893   5.383   1.451  0.4413  0.8806 -2.0047
 4568TIP3    H235340   2.832   5.521   1.448  1.0653  1.2402  0.1511
 4569TIP3   OH235341   6.064   4.366   7.236 -0.2505 -0.4689  0.3976
 4569TIP3    H135342   6.134   4.398   7.179 -0.3795  1.8143  1.3850
 4569TIP3    H235343   5.992   4.345   7.176 -0.6688  2.6100 -0.3588
 4570TIP3   OH235344   4.482   1.322   2.582 -0.3322  0.2071 -0.2527
 4570TIP3    H135345   4.527   1.266   2.519  2.2108  0.9027  0.8023
 4570TIP3    H235346   4.449   1.263   2.648  0.5182 -0.2270 -0.2037
 4571TIP3   OH235347   3.246   6.290   1.495 -0.7262  0.2728  0.7003
 4571TIP3    H135348   3.191   6.334   1.560 -0.5477 -0.2704  1.2244
 4571TIP3    H235349   3.257   6.202   1.529 -0.7753 -0.0712 -0.1648
 4572TIP3   OH235350   1.344   1.674   8.497  0.1555  0.1802  0.0486
 4572TIP3    H135351   1.306   1.600   8.544  1.0851 -0.9884 -0.9525
 4572TIP3    H235352   1.435   1.677   8.527  0.3879  0.2660 -0.6426
 4573TIP3   OH235353   5.889   5.869   1.811  0.0152 -0.1680 -0.0133
 4573TIP3    H135354   5.941   5.924   1.870  0.7741 -1.4721  0.5965
 4573TIP3    H235355   5.814   5.923   1.788  0.9313  1.2786  0.1984
 4574TIP3   OH235356   4.625   2.069   1.045  0.4817 -1.0037  0.0349
 4574TIP3    H135357   4.718   2.080   1.026  0.3247 -0.7831 -0.6172
 4574TIP3    H235358   4.609   1.975   1.030  0.5616 -1.0083 -0.0214
 4575TIP3   OH235359   2.638   5.207   1.405  0.1847 -0.2527 -0.3394
 4575TIP3    H135360   2.717   5.194   1.353 -0.3139 -2.2586 -0.6542
 4575TIP3    H235361   2.636   5.132   1.465 -1.3485 -0.1058 -0.1769
 4576TIP3   OH235362   5.160   5.707   0.966  0.1643  0.0119 -0.5005
 4576TIP3    H135363   5.209   5.787   0.985  0.4976 -0.4054  0.4961
 4576TIP3    H235364   5.228   5.641   0.948  0.0054 -0.5514  0.8055
 4577TIP3   OH235365   0.009   4.295   7.148 -0.0842 -0.2019  0.0419
 4577TIP3    H135366   0.067   4.232   7.106 -0.7888 -1.2402  0.5918
 4577TIP3    H235367   0.052   4.380   7.134  0.2107 -0.6281 -1.8357
 4578TIP3   OH235368   0.568   0.802   0.866  0.1829  0.2169  0.3857
 4578TIP3    H135369   0.514   0.763   0.935 -1.4897  0.4402 -0.7239
 4578TIP3    H235370   0.551   0.896   0.874  0.5375  0.3046  0.1181
 4579TIP3   OH235371   5.673   6.319   6.367 -0.0595 -0.2706 -0.3551
 4579TIP3    H135372   5.678   6.290   6.459 -0.2773  0.1534 -0.2073
 4579TIP3    H235373   5.596   6.375   6.364  0.5440  0.5716 -0.5631
 4580TIP3   OH235374   3.768   2.814   0.814  0.1307  0.6558 -0.0153
 4580TIP3    H135375   3.771   2.864   0.895  1.8204  0.6584 -0.0454
 4580TIP3    H235376   3.717   2.736   0.836  0.6888  0.5888  1.0953
 4581TIP3   OH235377   6.248   0.541   6.863  0.0809 -0.0898 -0.1100
 4581TIP3    H135378   6.280   0.558   6.775 -1.1249  0.2444 -0.5043
 4581TIP3    H235379   6.325   0.547   6.919  0.9857 -0.9811 -1.2157
 4582TIP3   OH235380   5.574   2.455   8.094  0.5513  0.3341 -0.0909
 4582TIP3    H135381   5.481   2.461   8.112  0.4253  0.1729 -0.6778
 4582TIP3    H235382   5.585   2.498   8.009  0.8570 -0.5200 -0.4946
 4583TIP3   OH235383   0.281   0.245   2.987 -0.2768  0.3682  0.0670
 4583TIP3    H135384   0.190   0.222   2.968 -0.7721  0.2906  2.2421
 4583TIP3    H235385   0.318   0.166   3.027  0.7066  0.4479 -0.6521
 4584TIP3   OH235386   0.899   6.589   0.168 -0.3759 -0.1263  0.0163
 4584TIP3    H135387   0.899   6.679   0.201  2.0346 -0.1571  0.2748
 4584TIP3    H235388   0.893   6.598   0.073 -0.2428  0.3144  0.0448
 4585TIP3   OH235389   0.392   3.389   6.945  0.1325  0.3653 -0.3811
 4585TIP3    H135390   0.478   3.391   6.988  0.7485 -0.4079 -1.5258
 4585TIP3    H235391   0.361   3.299   6.956 -0.8020  0.7862  0.5168
 4586TIP3   OH235392   4.739   4.041   7.146  0.1780 -0.1027 -0.3826
 4586TIP3    H135393   4.824   4.081   7.131  1.2167 -2.2279 -0.5388
 4586TIP3    H235394   4.747   3.953   7.109 -1.8485 -0.6247  0.2750
 4587TIP3   OH235395   3.696   0.863   0.924 -0.0695  0.0939  0.2553
 4587TIP3    H135396   3.753   0.900   0.992 -0.2917 -1.1144  1.1212
 4587TIP3    H235397   3.611   0.906   0.939 -0.6351 -1.4834  1.9671
 4588TIP3   OH235398   3.596   4.542   8.001 -0.1235  0.4319  0.4160
 4588TIP3    H135399   3.592   4.486   8.078 -1.2203  1.7828  1.3949
 4588TIP3    H235400   3.506   4.570   7.987  0.4441  2.3641  0.3330
 4589TIP3   OH235401   2.561   6.095   1.629 -0.2221 -0.7219 -0.6854
 4589TIP3    H135402   2.613   6.037   1.573 -0.2324  0.1231 -1.6091
 4589TIP3    H235403   2.474   6.056   1.630 -0.3990 -0.4104 -1.8348
 4590TIP3   OH235404   6.858   6.448   7.552 -0.0853  0.0650  1.0861
 4590TIP3    H135405   6.868   6.496   7.635 -0.0793  0.6710  0.7363
 4590TIP3    H235406   6.811   6.509   7.495  1.1155  0.1757  0.1922
 4591TIP3   OH235407   2.561   3.710   7.123  0.2123  0.1800 -0.2724
 4591TIP3    H135408   2.536   3.666   7.041 -1.5617  0.8063 -0.1172
 4591TIP3    H235409   2.572   3.802   7.098 -1.8235  0.6482  0.4261
 4592TIP3   OH235410   4.675   2.915   8.003  0.4920 -0.1646 -0.2869
 4592TIP3    H135411   4.719   2.860   7.939  0.9601 -2.4667  1.8391
 4592TIP3    H235412   4.583   2.917   7.975  0.8545 -0.3003 -1.5221
 4593TIP3   OH235413   4.036   1.374   8.237 -0.5812  0.0910  0.0116
 4593TIP3    H135414   4.033   1.279   8.230  0.9002 -0.0498  0.8490
 4593TIP3    H235415   3.948   1.400   8.262 -1.5809 -0.8438 -2.2519
 4594TIP3   OH235416   1.585   4.477   1.194 -0.7969 -0.2631  0.1056
 4594TIP3    H135417   1.562   4.479   1.287  0.1248  2.1212  0.3406
 4594TIP3    H235418   1.511   4.521   1.150  0.3840  1.9259  0.1832
 4595TIP3   OH235419   5.416   3.291   0.508  0.6818  0.1972  0.3649
 4595TIP3    H135420   5.450   3.270   0.595  1.6465  0.0057 -0.0444
 4595TIP3    H235421   5.493   3.322   0.459  0.2691 -0.2294 -0.5824
 4596TIP3   OH235422   0.724   0.148   1.219 -0.8826  0.0609  0.4721
 4596TIP3    H135423   0.681   0.102   1.147 -1.8263  0.7479  0.5854
 4596TIP3    H235424   0.670   0.225   1.235  1.1847  1.8279 -0.3962
 4597TIP3   OH235425   6.834   2.558   1.185  0.7886 -0.2526 -0.1554
 4597TIP3    H135426   6.859   2.544   1.276  0.6438  0.2178 -0.0417
 4597TIP3    H235427   6.747   2.596   1.190  0.5015 -0.8510 -0.5145
 4598TIP3   OH235428   0.844   6.045   1.667 -0.1076 -0.2627  0.0605
 4598TIP3    H135429   0.810   6.077   1.751  1.8714  0.3618  0.6765
 4598TIP3    H235430   0.923   5.995   1.690 -0.0781 -0.9292 -1.3548
 4599TIP3   OH235431   1.176   1.541   2.537  0.1334  0.1631 -0.5542
 4599TIP3    H135432   1.088   1.572   2.558 -1.2147 -3.1670 -0.6253
 4599TIP3    H235433   1.186   1.462   2.590  3.8685  1.3599  0.7923
 4600TIP3   OH235434   2.214   3.970   2.987  0.2917  0.1974  0.7821
 4600TIP3    H135435   2.285   3.938   3.042 -0.8888  1.0581  2.9241
 4600TIP3    H235436   2.146   3.903   2.994 -0.5959  1.1678  1.9843
 4601TIP3   OH235437   1.968   5.970   0.850  0.2304  0.3855  0.2582
 4601TIP3    H135438   1.993   6.009   0.934 -0.9531  2.1498 -0.1534
 4601TIP3    H235439   2.013   6.024   0.785  0.5689 -0.5312 -0.2880
 4602TIP3   OH235440   6.172   3.280   8.076 -0.4380 -0.0237  0.6594
 4602TIP3    H135441   6.213   3.298   7.992 -1.4679 -1.9070 -0.3069
 4602TIP3    H235442   6.196   3.190   8.096 -0.8979  0.1232  1.9916
 4603TIP3   OH235443   1.219   0.393   1.841 -0.1231 -0.1071  0.5489
 4603TIP3    H135444   1.277   0.448   1.894  1.5655  0.2305 -1.5145
 4603TIP3    H235445   1.147   0.450   1.817  0.2879  0.4315  0.5716
 4604TIP3   OH235446   3.791   5.588   1.502  0.1342 -0.4281 -0.0947
 4604TIP3    H135447   3.866   5.589   1.442  0.6203  0.2760  0.4969
 4604TIP3    H235448   3.787   5.678   1.535 -2.2807  0.1350 -1.7172
 4605TIP3   OH235449   4.832   4.794   1.172  0.1590  0.1592 -0.0374
 4605TIP3    H135450   4.851   4.711   1.215  1.2231  0.3400 -0.1444
 4605TIP3    H235451   4.753   4.826   1.217  0.3068 -0.4357  0.6657
 4606TIP3   OH235452   1.240   0.476   8.130 -0.9657 -0.1287 -0.0706
 4606TIP3    H135453   1.305   0.514   8.190 -0.9486  1.6573 -1.1338
 4606TIP3    H235454   1.272   0.388   8.112 -1.4687 -1.1125  3.2316
 4607TIP3   OH235455   1.144   1.941   0.140  0.4128  0.0670 -0.7577
 4607TIP3    H135456   1.137   2.034   0.163  0.7614  0.6299 -2.7857
 4607TIP3    H235457   1.238   1.923   0.146  0.1102 -1.4419  3.9726
 4608TIP3   OH235458   5.788   1.593   1.638 -0.7493  0.7988  0.1631
 4608TIP3    H135459   5.855   1.531   1.611 -0.9191  1.1433 -1.1113
 4608TIP3    H235460   5.731   1.544   1.697 -1.3138 -0.4872 -1.3962
 4609TIP3   OH235461   1.818   0.559   1.060  0.1011  0.0151 -0.1608
 4609TIP3    H135462   1.822   0.532   1.152  0.1568 -0.4047 -0.2853
 4609TIP3    H235463   1.884   0.629   1.053 -1.8687  2.1019  0.7832
 4610TIP3   OH235464   1.027   2.190   1.640 -0.0727  0.1141 -0.0749
 4610TIP3    H135465   1.036   2.283   1.620  0.8161 -0.2286 -1.4179
 4610TIP3    H235466   1.091   2.174   1.709 -1.5586  0.8487  1.5437
 4611TIP3   OH235467   5.266   2.334   1.486  0.5582  0.0794  0.0889
 4611TIP3    H135468   5.208   2.367   1.417  0.7559 -1.1210 -0.6854
 4611TIP3    H235469   5.256   2.239   1.482  2.3334 -0.1485  0.1266
 4612TIP3   OH235470   6.581   2.753   0.569  0.2097  0.1460 -0.1909
 4612TIP3    H135471   6.661   2.802   0.553  2.5963 -2.6115  2.1066
 4612TIP3    H235472   6.567   2.760   0.664  0.5075 -3.0867  0.2160
 4613TIP3   OH235473   3.980   4.742   8.690 -0.4055 -0.3901 -0.5048
 4613TIP3    H135474   3.915   4.801   8.729  1.6837  0.6538  1.6358
 4613TIP3    H235475   3.993   4.674   8.756  3.5541  1.6677  1.1699
 4614TIP3   OH235476   1.341   2.029   1.449 -0.0213  0.6126 -0.3634
 4614TIP3    H135477   1.333   1.941   1.486  0.6934  0.2257 -1.1025
 4614TIP3    H235478   1.434   2.040   1.431 -0.1843  1.2822 -0.8623
 4615TIP3   OH235479   6.039   4.548   1.070  0.0069 -0.1697 -0.0974
 4615TIP3    H135480   6.048   4.638   1.040 -0.6500 -0.2677 -0.6123
 4615TIP3    H235481   6.036   4.555   1.165  2.4018  0.1216  0.0249
 4616TIP3   OH235482   6.750   5.441   0.896 -0.5486  0.6548 -0.4480
 4616TIP3    H135483   6.829   5.391   0.876 -2.2021 -2.0120 -0.7537
 4616TIP3    H235484   6.739   5.499   0.821 -0.3026 -0.8784 -1.7241
 4617TIP3   OH235485   1.901   6.617   1.237  0.2789 -0.3050 -0.2829
 4617TIP3    H135486   1.969   6.549   1.238  1.0397  0.4431 -0.3293
 4617TIP3    H235487   1.930   6.680   1.303  0.4342  0.7819 -1.3502
 4618TIP3   OH235488   5.183   2.594   7.300 -0.1870  0.2148  0.1473
 4618TIP3    H135489   5.180   2.618   7.207  0.6802  0.4458  0.1699
 4618TIP3    H235490   5.136   2.665   7.344 -3.5097 -1.4956 -0.3674
 4619TIP3   OH235491   2.547   5.452   1.352  0.3366  0.3480  0.2732
 4619TIP3    H135492   2.603   5.378   1.374 -0.0070 -0.4232 -1.3064
 4619TIP3    H235493   2.517   5.434   1.263 -2.3633  0.7403  0.9950
 4620TIP3   OH235494   1.260   1.241   7.533 -0.6128  0.4508  0.4106
 4620TIP3    H135495   1.299   1.266   7.617 -0.7037 -0.0726  0.6122
 4620TIP3    H235496   1.191   1.180   7.556  0.0279 -0.4925 -0.1069
 4621TIP3   OH235497   5.799   5.955   0.582 -0.2891 -0.6871 -0.0365
 4621TIP3    H135498   5.787   5.914   0.667 -1.0498  1.5035  0.9734
 4621TIP3    H235499   5.884   6.000   0.588  0.2320 -1.4981 -0.8988
 4622TIP3   OH235500   5.953   6.316   8.441 -0.0946 -0.2736  0.1331
 4622TIP3    H135501   5.986   6.404   8.425 -0.6658 -0.2874 -1.3380
 4622TIP3    H235502   6.032   6.264   8.458  0.2739  0.4519  0.6872
 4623TIP3   OH235503   0.275   6.244   8.460  0.3408 -0.0221  0.2451
 4623TIP3    H135504   0.282   6.326   8.411  0.9673 -0.9168 -1.2404
 4623TIP3    H235505   0.219   6.188   8.406  1.8610 -1.3903 -0.0107
 4624TIP3   OH235506   0.021   6.734   7.932  0.4142  0.2672  0.3072
 4624TIP3    H135507   0.020   6.828   7.917  0.0650  0.0952 -0.8639
 4624TIP3    H235508   0.077   6.699   7.862  0.4171 -0.4048  0.6331
 4625TIP3   OH235509   4.366   0.559   1.404 -0.0697  0.2734 -0.3653
 4625TIP3    H135510   4.343   0.650   1.388  0.8359  0.9564  1.8366
 4625TIP3    H235511   4.283   0.515   1.422 -0.6717  0.2917 -2.7481
 4626TIP3   OH235512   5.823   2.761   7.652  0.3324  0.5607  1.1068
 4626TIP3    H135513   5.826   2.716   7.567  0.2887  0.6800  1.0418
 4626TIP3    H235514   5.883   2.835   7.642 -0.2136  0.9930  0.9362
 4627TIP3   OH235515   4.340   2.078   7.857  0.1043  0.1459 -0.5068
 4627TIP3    H135516   4.289   2.020   7.801 -0.5694  0.0678  0.1789
 4627TIP3    H235517   4.281   2.101   7.929  0.6259  1.0455 -0.3497
 4628TIP3   OH235518   3.816   6.861   1.167  0.2872  0.7995  0.4964
 4628TIP3    H135519   3.788   6.893   1.253  0.4350  1.6188  0.2542
 4628TIP3    H235520   3.904   6.897   1.156 -0.3765  2.1335 -0.7069
 4629TIP3   OH235521   6.123   3.872   8.246  0.0175  0.3079 -0.5839
 4629TIP3    H135522   6.099   3.878   8.338 -0.0567 -1.1580 -0.4780
 4629TIP3    H235523   6.170   3.789   8.240  1.3886  1.1207 -1.5791
 4630TIP3   OH235524   1.173   6.312   1.724 -0.6228  0.5472  0.8741
 4630TIP3    H135525   1.105   6.377   1.703  0.3191  0.6301 -2.6266
 4630TIP3    H235526   1.127   6.246   1.776 -3.4556  0.6834 -1.1697
 4631TIP3   OH235527   3.244   5.041   1.160  0.0358 -0.0348 -0.0232
 4631TIP3    H135528   3.329   4.999   1.173  0.8815  0.9689 -1.8789
 4631TIP3    H235529   3.184   4.991   1.215  1.9345 -0.3054  1.9163
 4632TIP3   OH235530   6.420   2.121   8.178  0.4190  0.3065 -0.7053
 4632TIP3    H135531   6.488   2.078   8.127  0.7365  2.1875 -1.9725
 4632TIP3    H235532   6.351   2.055   8.187  1.9814 -1.3334 -0.1827
 4633TIP3   OH235533   4.823   0.256   0.852  0.2702  1.0527  0.1238
 4633TIP3    H135534   4.781   0.313   0.787 -0.8686  1.3799  1.1063
 4633TIP3    H235535   4.912   0.290   0.859  0.0512  1.7736 -0.3917
 4634TIP3   OH235536   5.522   2.628   1.035 -0.4709  0.1206 -0.5150
 4634TIP3    H135537   5.502   2.640   1.128  1.3504 -0.5927 -0.0038
 4634TIP3    H235538   5.491   2.540   1.015 -0.4900  0.1226 -0.4945
 4635TIP3   OH235539   3.588   0.493   7.490 -0.3205  0.2425 -0.0319
 4635TIP3    H135540   3.594   0.546   7.411 -0.5918  3.9361  2.2172
 4635TIP3    H235541   3.651   0.422   7.476 -2.6424 -1.2981 -4.7957
 4636TIP3   OH235542   5.566   2.250   2.112  0.3241  0.2078  0.0795
 4636TIP3    H135543   5.578   2.342   2.135  4.9868  0.2108 -1.4142
 4636TIP3    H235544   5.588   2.203   2.192  0.0888  0.3667  0.2388
 4637TIP3   OH235545   6.411   0.511   7.264  0.3966  0.4455  0.7037
 4637TIP3    H135546   6.450   0.429   7.295  0.4983  0.3677  0.3794
 4637TIP3    H235547   6.438   0.516   7.172 -2.8735 -1.2327 -0.5389
 4638TIP3   OH235548   4.347   2.476   0.357  0.4766  0.0488 -0.3646
 4638TIP3    H135549   4.370   2.558   0.400  1.0021 -0.0558 -0.4328
 4638TIP3    H235550   4.339   2.413   0.428 -1.0481  0.3889 -0.1993
 4639TIP3   OH235551   3.792   5.727   2.573 -0.1033  0.2736 -0.1511
 4639TIP3    H135552   3.775   5.821   2.576 -0.3243  0.2204  0.3442
 4639TIP3    H235553   3.727   5.689   2.632  0.0274 -0.1838 -0.3001
 4640TIP3   OH235554   0.327   6.840   8.434 -0.2044 -0.2228  0.0523
 4640TIP3    H135555   0.281   6.918   8.465  0.0128 -0.6390  1.5001
 4640TIP3    H235556   0.270   6.804   8.366 -1.4037 -0.0420  0.9371
 4641TIP3   OH235557   3.989   1.983   0.552  0.4349 -0.2742 -0.0536
 4641TIP3    H135558   4.059   1.937   0.506 -0.9045 -1.6324 -0.8190
 4641TIP3    H235559   3.977   2.064   0.502 -0.5097 -1.3973 -1.7416
 4642TIP3   OH235560   1.681   2.937   1.746 -0.4395  0.2503 -0.1170
 4642TIP3    H135561   1.703   2.892   1.664 -0.0496  1.3307 -0.6212
 4642TIP3    H235562   1.757   2.925   1.802 -0.0392  0.8713 -0.5147
 4643TIP3   OH235563   5.027   4.543   0.481  0.0612  0.4555  0.0170
 4643TIP3    H135564   4.947   4.521   0.528 -0.0885  0.8627 -0.0438
 4643TIP3    H235565   4.999   4.555   0.390  0.2582  0.2093 -0.0776
 4644TIP3   OH235566   6.179   4.546   7.976  0.3171  0.0919 -0.0733
 4644TIP3    H135567   6.106   4.608   7.976 -0.8096 -1.2060 -0.3683
 4644TIP3    H235568   6.163   4.490   8.052  0.1254 -1.1809 -1.0175
 4645TIP3   OH235569   3.776   0.137   1.463  0.1881 -0.0396  1.1253
 4645TIP3    H135570   3.850   0.116   1.521 -0.3636 -2.5375  1.0675
 4645TIP3    H235571   3.699   0.109   1.512 -0.5938  1.0399  0.5377
 4646TIP3   OH235572   0.316   3.588   7.153  0.3355 -0.4055  0.1932
 4646TIP3    H135573   0.228   3.572   7.186  0.2119  0.6374  0.4144
 4646TIP3    H235574   0.317   3.550   7.065 -1.4836  2.5485 -1.2619
 4647TIP3   OH235575   0.982   2.818   6.899  0.1377  0.1259 -0.4673
 4647TIP3    H135576   0.921   2.833   6.827 -0.0836  1.3852 -0.0361
 4647TIP3    H235577   1.052   2.882   6.886  0.5199 -0.1898 -0.0253
 4648TIP3   OH235578   0.893   0.802   8.070  0.2858  0.0039  0.4010
 4648TIP3    H135579   0.987   0.801   8.053  0.0561  0.1521 -1.0118
 4648TIP3    H235580   0.855   0.754   7.996 -0.7058 -0.5671  1.2580
 4649TIP3   OH235581   4.474   5.608   8.460 -0.3422 -0.5218 -0.2554
 4649TIP3    H135582   4.503   5.699   8.467 -0.7971 -0.4091  0.2530
 4649TIP3    H235583   4.426   5.592   8.541 -0.6408 -1.0814 -0.5353
 4650TIP3   OH235584   4.354   2.640   1.960  0.1052  0.0218 -0.4124
 4650TIP3    H135585   4.303   2.570   1.999 -0.3387  0.2735 -0.5337
 4650TIP3    H235586   4.427   2.596   1.917  0.1326 -0.3194 -0.0212
 4651TIP3   OH235587   2.669   6.149   2.537 -0.4729  0.2917 -0.0092
 4651TIP3    H135588   2.604   6.128   2.603  1.3413 -0.3471  1.6864
 4651TIP3    H235589   2.697   6.239   2.558 -1.1926  0.7785 -1.0803
 4652TIP3   OH235590   3.170   1.484   2.171  0.7339  0.7079 -0.3210
 4652TIP3    H135591   3.262   1.493   2.197  0.1818  1.2786  1.5886
 4652TIP3    H235592   3.126   1.558   2.213 -0.8808 -0.5459  0.2767
 4653TIP3   OH235593   4.731   0.119   2.339  0.3264  0.4469 -0.0326
 4653TIP3    H135594   4.673   0.162   2.402 -0.9213 -0.4614 -0.5449
 4653TIP3    H235595   4.673   0.074   2.278  1.5394  0.5185 -1.2915
 4654TIP3   OH235596   3.310   1.604   7.799 -0.0003  0.4644  0.1518
 4654TIP3    H135597   3.299   1.590   7.705 -2.0985  1.9586  0.0972
 4654TIP3    H235598   3.395   1.648   7.808  0.2574  0.2218 -1.0340
 4655TIP3   OH235599   0.512   3.550   0.383  0.1428 -0.4946  0.0687
 4655TIP3    H135600   0.464   3.564   0.302 -0.2605  0.3441  0.4380
 4655TIP3    H235601   0.572   3.478   0.364  0.1684 -0.1961 -1.0188
 4656TIP3   OH235602   3.803   1.172   2.498 -0.3137 -0.1515 -0.2618
 4656TIP3    H135603   3.763   1.137   2.578 -1.3058  0.5874 -0.4133
 4656TIP3    H235604   3.797   1.267   2.507 -0.6916 -0.0526 -1.3205
 4657TIP3   OH235605   4.216   5.692   7.866 -0.1271 -0.5584 -0.3102
 4657TIP3    H135606   4.296   5.742   7.882 -1.0644  0.7946  0.4048
 4657TIP3    H235607   4.238   5.634   7.794  1.4558 -0.1329 -0.2149
 4658TIP3   OH235608   1.373   5.483   0.197 -0.0384 -0.2014  0.3000
 4658TIP3    H135609   1.358   5.567   0.241  0.9657  1.5883 -2.4604
 4658TIP3    H235610   1.288   5.462   0.157  0.4584  1.3283 -1.7275
 4659TIP3   OH235611   2.536   3.085   2.638  0.0046  0.2897 -0.3879
 4659TIP3    H135612   2.610   3.144   2.623 -0.4610  1.1971  0.7707
 4659TIP3    H235613   2.459   3.137   2.615 -0.4045  0.1162  0.5541
 4660TIP3   OH235614   0.524   4.467   7.761  0.1101 -0.2686 -0.0332
 4660TIP3    H135615   0.454   4.461   7.827  0.2151 -0.8921  0.0325
 4660TIP3    H235616   0.601   4.495   7.810 -0.3847  1.7959 -0.3351
 4661TIP3   OH235617   1.741   0.483   6.844 -0.3747  0.0102  0.2827
 4661TIP3    H135618   1.715   0.558   6.897  1.9299  0.2702  1.1651
 4661TIP3    H235619   1.794   0.521   6.773 -0.8263 -0.6230 -0.4095
 4662TIP3   OH235620   4.267   5.562   7.549  0.6090 -0.3499 -0.0501
 4662TIP3    H135621   4.314   5.482   7.573 -0.0185 -1.0822 -1.1725
 4662TIP3    H235622   4.335   5.630   7.548  0.9978 -0.6726  1.7358
 4663TIP3   OH235623   2.068   4.445   2.674 -0.1973  0.2280  1.2691
 4663TIP3    H135624   1.989   4.411   2.716  0.5702 -1.6834  1.2601
 4663TIP3    H235625   2.140   4.411   2.727  0.7644 -1.4035 -0.9211
 4664TIP3   OH235626   3.085   4.428   2.528  0.4862  0.8921  0.3594
 4664TIP3    H135627   3.115   4.502   2.475  0.7201  0.6122  0.0911
 4664TIP3    H235628   3.054   4.364   2.465 -1.4933  1.4907  0.6640
 4665TIP3   OH235629   4.221   2.977   1.354  0.5120 -0.1671 -0.1327
 4665TIP3    H135630   4.127   2.994   1.366  0.1448 -1.4692 -0.9455
 4665TIP3    H235631   4.243   3.019   1.271  0.1676 -1.4799 -0.9207
 4666TIP3   OH235632   4.375   1.581   8.406 -0.7578  0.3776 -0.0193
 4666TIP3    H135633   4.451   1.538   8.367 -0.1973  0.7720  0.6069
 4666TIP3    H235634   4.308   1.512   8.410 -0.7433  0.2560 -1.3859
 4667TIP3   OH235635   5.625   6.352   1.280 -0.5769 -0.5811 -0.0876
 4667TIP3    H135636   5.597   6.285   1.218 -1.0650  0.0383 -0.5452
 4667TIP3    H235637   5.717   6.331   1.298 -0.8600 -1.6579  0.1648
 4668TIP3   OH235638   1.139   6.111   8.508  0.5781 -0.3393 -0.3934
 4668TIP3    H135639   1.230   6.091   8.530  0.0643 -1.4654  0.8647
 4668TIP3    H235640   1.136   6.108   8.413  1.3617 -2.7904 -0.4098
 4669TIP3   OH235641   3.532   4.952   7.082 -0.1801 -0.4325 -0.3493
 4669TIP3    H135642   3.610   4.915   7.041 -1.5922 -2.7869 -1.1885
 4669TIP3    H235643   3.460   4.898   7.048 -2.0610  0.9684  1.1585
 4670TIP3   OH235644   6.149   1.258   2.811  0.3005 -0.4906 -0.2873
 4670TIP3    H135645   6.184   1.329   2.758  0.3974 -0.6128 -0.3872
 4670TIP3    H235646   6.162   1.179   2.758 -1.7181 -0.3372 -1.1158
 4671TIP3   OH235647   6.117   1.251   2.356  0.0217  0.1430 -0.1706
 4671TIP3    H135648   6.143   1.206   2.436 -0.0703 -0.4223 -0.4508
 4671TIP3    H235649   6.116   1.182   2.289  2.2047  0.9605 -1.1381
 4672TIP3   OH235650   5.159   0.330   2.461 -0.3179  0.4385  0.0121
 4672TIP3    H135651   5.232   0.336   2.522 -0.6335  0.8699  0.3489
 4672TIP3    H235652   5.093   0.278   2.506  0.6044 -1.8571 -1.1256
 4673TIP3   OH235653   3.649   1.927   2.122 -0.1959 -0.0134  0.2591
 4673TIP3    H135654   3.673   1.841   2.156 -2.6492 -1.5227 -1.4677
 4673TIP3    H235655   3.619   1.976   2.198  1.2531 -0.6402  1.2812
 4674TIP3   OH235656   2.959   5.068   7.789 -0.3869  0.5069  0.6863
 4674TIP3    H135657   2.996   5.127   7.855 -0.1517  1.3661 -0.1893
 4674TIP3    H235658   3.018   5.078   7.714 -1.5093  0.7074 -0.1814
 4675TIP3   OH235659   1.921   2.009   2.498  0.1436  0.1146  0.4651
 4675TIP3    H135660   1.832   1.975   2.508 -0.8510  0.7341 -3.8879
 4675TIP3    H235661   1.951   1.972   2.415  2.2768  3.1149 -0.2874
 4676TIP3   OH235662   0.014   5.611   1.978  0.5687 -0.0840  0.4224
 4676TIP3    H135663  -0.033   5.530   1.958  0.5497  0.0864 -0.2502
 4676TIP3    H235664   0.100   5.583   2.007  0.2259 -0.3811  1.1552
 4677TIP3   OH235665   5.058   0.482   0.302  0.5936 -0.3887  0.3049
 4677TIP3    H135666   5.042   0.404   0.355 -0.2634  0.5334  1.4580
 4677TIP3    H235667   4.984   0.539   0.321  0.3947  0.1081 -1.6878
 4678TIP3   OH235668   3.003   5.035   1.497  0.0190 -0.4293  0.5783
 4678TIP3    H135669   3.096   5.055   1.501  0.0112 -0.5284  3.4049
 4678TIP3    H235670   2.964   5.085   1.568 -2.2348  0.0930 -0.9110
 4679TIP3   OH235671   6.545   4.130   6.806  0.1818 -0.3446  0.4077
 4679TIP3    H135672   6.450   4.133   6.797  0.3137  1.1782 -0.7432
 4679TIP3    H235673   6.573   4.066   6.741 -0.0893 -1.4774  1.3644
 4680TIP3   OH235674   0.496   4.284   1.800  0.4594  0.0296  0.2186
 4680TIP3    H135675   0.544   4.243   1.728 -0.2065  0.7203 -0.6484
 4680TIP3    H235676   0.563   4.305   1.865  1.0051 -1.0344  0.0154
 4681TIP3   OH235677   0.215   4.062   7.181 -0.2051 -0.1560  0.4315
 4681TIP3    H135678   0.133   4.086   7.224 -0.5466  0.4456 -0.5474
 4681TIP3    H235679   0.275   4.045   7.254 -0.7591  0.8801  1.1568
 4682TIP3   OH235680   1.388   1.684   1.786  0.7510  0.1150 -0.2204
 4682TIP3    H135681   1.322   1.753   1.799  0.4110 -0.4444  1.1113
 4682TIP3    H235682   1.379   1.627   1.861  3.8459  0.8806  0.8837
 4683TIP3   OH235683   5.286   2.189   0.823  0.2438 -0.1022  0.5258
 4683TIP3    H135684   5.304   2.095   0.818 -2.4404 -0.7409  1.1262
 4683TIP3    H235685   5.201   2.199   0.780 -0.1834  1.8190  1.7253
 4684TIP3   OH235686   5.580   0.158   1.331 -0.7324 -0.2130  0.3396
 4684TIP3    H135687   5.503   0.209   1.309  0.0496  0.7293 -0.2445
 4684TIP3    H235688   5.599   0.108   1.252  0.3158  0.9305 -0.1550
 4685TIP3   OH235689   6.339   4.759   0.824 -0.7366 -0.6022 -0.0755
 4685TIP3    H135690   6.247   4.753   0.797  0.0651 -0.8839 -3.0160
 4685TIP3    H235691   6.375   4.830   0.771  0.6290 -0.0047  1.5573
 4686TIP3   OH235692   5.641   2.840   0.341 -0.3034  0.3607 -0.1249
 4686TIP3    H135693   5.578   2.858   0.411  0.1498 -1.7621  0.9087
 4686TIP3    H235694   5.612   2.756   0.304  0.6098  0.4839 -1.1515
 4687TIP3   OH235695   5.021   5.928   7.857 -0.1556 -0.2859 -0.2199
 4687TIP3    H135696   4.995   6.013   7.821 -1.7349 -0.7524 -0.2468
 4687TIP3    H235697   5.022   5.941   7.952  0.6864  0.0329 -0.2596
 4688TIP3   OH235698   0.142   1.244   2.303 -0.7423 -0.4220 -0.0092
 4688TIP3    H135699   0.231   1.246   2.337 -1.0137  0.0562  0.6899
 4688TIP3    H235700   0.100   1.172   2.351 -1.3864  0.8266  1.3787
 4689TIP3   OH235701   4.008   1.526   8.605  0.1755  0.1032  0.1784
 4689TIP3    H135702   3.980   1.449   8.555  0.4150  0.5680 -0.7079
 4689TIP3    H235703   3.981   1.600   8.551 -0.6079  0.6698  1.3236
 4690TIP3   OH235704   4.549   6.393   0.088 -0.0680 -0.2200  0.3655
 4690TIP3    H135705   4.635   6.405   0.129  0.4400  1.8077 -1.1363
 4690TIP3    H235706   4.486   6.403   0.160  0.9228 -1.3661  1.4189
 4691TIP3   OH235707   1.447   2.521   8.483 -0.3157 -0.2909 -0.1450
 4691TIP3    H135708   1.542   2.520   8.473 -0.3272 -0.4738 -0.2447
 4691TIP3    H235709   1.421   2.429   8.474 -0.5370 -0.1978 -0.4604
 4692TIP3   OH235710   1.088   6.580   0.860  0.1543  0.3277 -0.4172
 4692TIP3    H135711   1.134   6.643   0.805 -1.0575  0.7759 -0.9525
 4692TIP3    H235712   1.150   6.558   0.929  0.9433  1.3554 -0.7830
 4693TIP3   OH235713   0.051   6.614   1.073 -0.0215 -0.4490  0.2784
 4693TIP3    H135714   0.026   6.626   0.982  3.7036 -0.8910 -0.9582
 4693TIP3    H235715   0.012   6.530   1.098 -0.9071 -0.4225 -0.9390
 4694TIP3   OH235716   5.957   5.412   6.931 -0.4804 -0.2382 -0.1389
 4694TIP3    H135717   5.947   5.363   7.013  2.2061 -0.6162  0.0507
 4694TIP3    H235718   6.051   5.420   6.919 -0.8058  0.8826 -2.5955
 4695TIP3   OH235719   4.090   2.236   0.756  0.1845  0.0945  0.2952
 4695TIP3    H135720   4.003   2.275   0.767  0.0034 -0.3550  0.4616
 4695TIP3    H235721   4.075   2.142   0.754  0.6354  0.0254  0.0045
 4696TIP3   OH235722   3.193   2.854   1.531 -0.1018 -0.8101 -0.1442
 4696TIP3    H135723   3.195   2.938   1.485 -1.1058 -0.5491  0.2698
 4696TIP3    H235724   3.156   2.874   1.617 -0.2949 -1.6679 -0.0165
 4697TIP3   OH235725   5.034   3.204   1.098 -0.0627 -0.2889  0.0972
 4697TIP3    H135726   4.978   3.265   1.144  1.6902  1.3626  0.1846
 4697TIP3    H235727   5.009   3.212   1.006 -0.4443 -0.1178  0.2165
 4698TIP3   OH235728   5.308   2.717   1.603  0.1482 -0.2065  0.6474
 4698TIP3    H135729   5.321   2.783   1.535  2.1463  0.1121  1.2545
 4698TIP3    H235730   5.285   2.767   1.681 -0.3494 -0.4142  0.6356
 4699TIP3   OH235731   6.346   0.117   8.611  0.5484  0.4455  0.4861
 4699TIP3    H135732   6.260   0.098   8.646  0.8756  0.5699  1.3826
 4699TIP3    H235733   6.341   0.093   8.519 -0.3002  0.0223  0.6404
 4700TIP3   OH235734   0.653   5.092   2.022 -0.2079  0.0752  0.5907
 4700TIP3    H135735   0.734   5.122   2.063  1.5230 -2.2192 -0.8571
 4700TIP3    H235736   0.627   5.163   1.964 -0.0319  1.3969  2.0814
 4701TIP3   OH235737   3.155   4.437   1.224  0.3825  0.0314 -0.2384
 4701TIP3    H135738   3.203   4.358   1.249  1.2816  0.8603  0.7718
 4701TIP3    H235739   3.063   4.414   1.236  0.6909 -0.1853  2.3754
 4702TIP3   OH235740   0.240   6.090   7.798 -0.6719  0.0516  0.1792
 4702TIP3    H135741   0.161   6.041   7.822 -1.1319  0.4194 -0.5608
 4702TIP3    H235742   0.211   6.150   7.730  0.5350 -0.7215 -1.0649
 4703TIP3   OH235743   4.072   4.291   0.679 -0.5753 -0.9000 -0.0133
 4703TIP3    H135744   4.103   4.231   0.748  0.4192  1.1135  1.3996
 4703TIP3    H235745   4.130   4.274   0.605 -1.4031 -2.8279 -0.2873
 4704TIP3   OH235746   5.645   1.477   7.587  0.2914  0.1724  0.1726
 4704TIP3    H135747   5.661   1.394   7.543 -0.1179  0.4321 -0.4808
 4704TIP3    H235748   5.695   1.471   7.669 -1.2612 -1.5040  1.0770
 4705TIP3   OH235749   5.068   5.612   8.527  0.3684  0.3334 -0.0441
 4705TIP3    H135750   5.122   5.566   8.463 -1.2084 -0.3211 -0.9625
 4705TIP3    H235751   5.126   5.680   8.563  1.7354 -0.2402 -1.0688
 4706TIP3   OH235752   0.811   2.175   7.122  0.5273  0.5163 -0.2785
 4706TIP3    H135753   0.790   2.231   7.048 -0.0016  0.9193  0.1703
 4706TIP3    H235754   0.754   2.099   7.111  0.2513  0.7011 -0.1411
 4707TIP3   OH235755   3.906   1.705   2.663 -0.9192  0.0158  0.2631
 4707TIP3    H135756   3.916   1.762   2.740 -1.4010 -0.8012  0.9520
 4707TIP3    H235757   3.952   1.751   2.593  0.7551  0.1005  1.3789
 4708TIP3   OH235758   3.147   6.379   0.778  0.2015 -0.3290  0.5459
 4708TIP3    H135759   3.187   6.461   0.750 -1.8101  1.2520  2.0068
 4708TIP3    H235760   3.152   6.382   0.874  0.4852 -2.1573  0.6182
 4709TIP3   OH235761   2.301   1.133   0.444 -0.1045  0.3152 -0.0344
 4709TIP3    H135762   2.385   1.089   0.459 -0.7090 -0.1487  2.3366
 4709TIP3    H235763   2.259   1.083   0.374  1.9034  1.0915 -1.9258
 4710TIP3   OH235764   1.258   0.737   1.211 -0.2213  0.2057  0.7626
 4710TIP3    H135765   1.294   0.708   1.128 -0.1468 -0.5855  1.0603
 4710TIP3    H235766   1.330   0.728   1.273 -0.3129  0.6676  0.9403
 4711TIP3   OH235767   2.413   1.080   7.364  0.6755 -0.0028  0.2748
 4711TIP3    H135768   2.500   1.043   7.346  0.2799 -1.2181  0.7349
 4711TIP3    H235769   2.375   1.094   7.277  1.0660 -0.1598  0.0761
 4712TIP3   OH235770   1.421   6.231   8.026  0.2305  0.1083  0.4733
 4712TIP3    H135771   1.427   6.212   7.932 -2.4233 -0.5881  0.3806
 4712TIP3    H235772   1.335   6.199   8.052  0.1878  1.8606  2.8000
 4713TIP3   OH235773   4.834   4.281   1.014  0.0093 -0.5466  0.0879
 4713TIP3    H135774   4.816   4.280   0.920 -0.8618  0.9470  0.2026
 4713TIP3    H235775   4.856   4.372   1.034  0.7880 -0.9596  1.2300
 4714TIP3   OH235776   6.444   6.388   0.278  0.3301 -0.0107 -0.2920
 4714TIP3    H135777   6.410   6.441   0.350  0.0186 -0.9292  0.2602
 4714TIP3    H235778   6.449   6.448   0.204  2.4191  1.4587  0.9357
 4715TIP3   OH235779   2.043   2.880   1.046 -0.4169  0.1420  0.7660
 4715TIP3    H135780   1.976   2.948   1.031  2.0077  2.1201 -2.2808
 4715TIP3    H235781   2.033   2.821   0.972  1.0579  0.3920  0.3478
 4716TIP3   OH235782   6.795   4.327   7.987  0.0350 -0.5133 -0.2434
 4716TIP3    H135783   6.819   4.249   7.937  1.2009 -0.4140  0.1393
 4716TIP3    H235784   6.709   4.307   8.023  1.0030 -2.3009  1.2090
 4717TIP3   OH235785   6.304   0.766   2.261 -0.0975  0.0177 -0.0040
 4717TIP3    H135786   6.293   0.761   2.356 -0.7773 -1.5289 -0.1276
 4717TIP3    H235787   6.244   0.835   2.233  0.8872  1.2262  0.7714
 4718TIP3   OH235788   1.254   2.919   2.058 -0.2936  0.6622 -0.8287
 4718TIP3    H135789   1.327   2.922   1.996  0.0697  1.1110 -0.3877
 4718TIP3    H235790   1.290   2.956   2.139 -0.7078 -0.0799 -0.2934
 4719TIP3   OH235791   2.455   6.537   2.023  0.1856 -0.3183  0.5461
 4719TIP3    H135792   2.380   6.568   2.074 -0.7932  0.8413 -1.4309
 4719TIP3    H235793   2.505   6.482   2.083 -1.5135 -0.0131  2.3392
 4720TIP3   OH235794   6.430   6.654   2.297 -0.8564 -0.2223 -0.0357
 4720TIP3    H135795   6.426   6.594   2.372 -1.1320 -0.8306 -0.5311
 4720TIP3    H235796   6.516   6.696   2.305 -0.5797 -0.8207  0.2219
 4721TIP3   OH235797   0.841   1.070   2.508  0.0730 -0.6666  0.3532
 4721TIP3    H135798   0.852   1.024   2.425  0.2600  1.5984 -0.9555
 4721TIP3    H235799   0.927   1.068   2.549 -0.0033 -1.7255  0.5024
 4722TIP3   OH235800   4.438   3.995   0.702  0.1504 -0.0185 -0.3868
 4722TIP3    H135801   4.530   3.971   0.710  0.2336  0.2809 -0.4149
 4722TIP3    H235802   4.439   4.084   0.666 -0.0985  0.7044  1.3064
 4723TIP3   OH235803   4.332   0.260   1.268  0.1051  0.3823  0.0147
 4723TIP3    H135804   4.412   0.252   1.215  0.5526 -1.2078  0.8457
 4723TIP3    H235805   4.336   0.185   1.328 -1.4286  0.9524  0.8819
 4724TIP3   OH235806   0.121   6.212   8.152  0.1318 -0.6431  0.1669
 4724TIP3    H135807   0.114   6.307   8.147 -0.7123 -0.6395  1.0913
 4724TIP3    H235808   0.126   6.183   8.061  2.9168  0.4269 -0.0980
 4725TIP3   OH235809   3.889   3.472   1.362 -0.0438  0.3959  0.1345
 4725TIP3    H135810   3.931   3.468   1.276 -1.3933 -1.5240 -0.5059
 4725TIP3    H235811   3.953   3.434   1.422 -0.2267 -1.0876 -0.5722
 4726TIP3   OH235812   2.838   5.954   0.298 -0.3089  0.5475  0.1767
 4726TIP3    H135813   2.744   5.937   0.300 -0.4646  1.3168 -0.2978
 4726TIP3    H235814   2.877   5.867   0.292 -0.8856  0.0849  2.2928
 4727TIP3   OH235815   5.249   4.029   1.713  0.3782 -0.4082 -0.0361
 4727TIP3    H135816   5.158   4.059   1.711  1.0367  1.8415  1.0275
 4727TIP3    H235817   5.255   3.966   1.641 -1.7755  0.0941 -0.7281
 4728TIP3   OH235818   2.650   2.205   1.068  0.0274  0.0436 -0.1227
 4728TIP3    H135819   2.608   2.285   1.036 -0.3321  0.0653  0.3964
 4728TIP3    H235820   2.578   2.152   1.103  0.3967 -0.0389  0.5269
 4729TIP3   OH235821   2.545   1.244   1.270  0.2923  0.0341 -0.2303
 4729TIP3    H135822   2.577   1.324   1.228 -0.6613 -0.7227 -2.5919
 4729TIP3    H235823   2.606   1.176   1.241  0.2492 -0.3405  0.5461
 4730TIP3   OH235824   5.932   4.188   1.753 -0.1305 -0.1930  0.0694
 4730TIP3    H135825   5.993   4.250   1.793 -0.9499  1.3848 -1.0079
 4730TIP3    H235826   5.926   4.116   1.816  1.6349  0.3313  0.9035
 4731TIP3   OH235827   6.520   2.057   2.889 -0.3799 -1.1833  0.0094
 4731TIP3    H135828   6.462   2.125   2.923  0.4784 -0.1788 -0.4545
 4731TIP3    H235829   6.491   1.977   2.932 -1.6280 -0.5911  0.3366
 4732TIP3   OH235830   0.646   6.352   6.968  0.4201  0.0191  0.5797
 4732TIP3    H135831   0.553   6.371   6.952  0.9849  1.6814 -1.0058
 4732TIP3    H235832   0.668   6.285   6.904  1.2027  2.4067 -1.8044
 4733TIP3   OH235833   2.920   3.758   0.956 -0.6827 -0.7075 -0.6182
 4733TIP3    H135834   2.877   3.680   0.990  0.1129 -1.8060 -2.0378
 4733TIP3    H235835   3.004   3.727   0.923 -0.2694  0.7864 -1.0544
 4734TIP3   OH235836   6.858   6.000   2.517 -0.0001 -0.0983  0.0199
 4734TIP3    H135837   6.876   6.010   2.610  1.7979 -2.8168  0.0830
 4734TIP3    H235838   6.797   5.926   2.513  0.6470 -0.5873 -0.9952
 4735TIP3   OH235839   6.432   3.616   1.509 -0.2069  0.1311  0.2316
 4735TIP3    H135840   6.433   3.703   1.550 -1.6337  0.3858 -0.2396
 4735TIP3    H235841   6.519   3.580   1.528  0.8110  2.0810 -0.4509
 4736TIP3   OH235842   4.334   5.299   8.401  0.2874  0.2758 -0.3761
 4736TIP3    H135843   4.352   5.279   8.493 -0.1941 -1.3432 -0.5952
 4736TIP3    H235844   4.395   5.245   8.352  0.3006  0.8622 -1.0191
 4737TIP3   OH235845   4.787   5.635   7.971  0.0535 -0.1984 -0.0828
 4737TIP3    H135846   4.778   5.547   8.009  1.6730 -0.7691 -0.9037
 4737TIP3    H235847   4.856   5.625   7.905  1.5642  2.0936  1.0316
 4738TIP3   OH235848   1.205   3.604   1.121 -0.2165  0.3264  0.1709
 4738TIP3    H135849   1.274   3.607   1.055  0.2754  0.3989  0.6709
 4738TIP3    H235850   1.236   3.538   1.184 -1.3863 -0.8306 -0.4279
 4739TIP3   OH235851   4.371   3.639   1.242 -0.3174 -0.2251 -0.1737
 4739TIP3    H135852   4.302   3.704   1.254  1.3183  1.6556 -0.4136
 4739TIP3    H235853   4.360   3.609   1.152 -1.3321 -0.5960  0.0636
 4740TIP3   OH235854   1.078   1.563   6.839 -0.2111 -0.0830 -0.3672
 4740TIP3    H135855   1.157   1.535   6.886 -0.4320 -0.0774  0.0144
 4740TIP3    H235856   1.107   1.636   6.785 -0.3797  1.4000  1.4274
 4741TIP3   OH235857   6.535   5.619   7.250 -0.1580  0.2430 -0.0656
 4741TIP3    H135858   6.474   5.690   7.235  0.2530  0.0649 -3.4233
 4741TIP3    H235859   6.619   5.651   7.216  0.6369 -0.9531  0.6643
 4742TIP3   OH235860   5.421   1.628   7.489  0.3609  0.5436 -0.2346
 4742TIP3    H135861   5.487   1.653   7.424  0.8822  0.0424  0.1022
 4742TIP3    H235862   5.465   1.565   7.546 -0.3473  0.3552  0.1138
 4743TIP3   OH235863   0.692   4.127   1.672  0.2104 -0.0282 -0.3945
 4743TIP3    H135864   0.782   4.160   1.665  0.5056 -0.5669  0.7006
 4743TIP3    H235865   0.693   4.046   1.621  0.0938  0.4338 -1.1463
 4744TIP3   OH235866   2.621   1.830   7.382 -0.4104 -0.3335 -0.0358
 4744TIP3    H135867   2.655   1.909   7.423 -1.0331  0.5252 -1.1141
 4744TIP3    H235868   2.541   1.858   7.338  0.7648 -0.9451 -2.7248
 4745TIP3   OH235869   0.919   0.036   2.076  0.3227 -0.5740  0.4820
 4745TIP3    H135870   0.918  -0.044   2.129 -0.1577 -0.5689  0.4844
 4745TIP3    H235871   0.828   0.050   2.051  0.2427  0.5499  1.3452
 4746TIP3   OH235872   5.445   1.598   7.825 -0.2088  0.4763 -0.1629
 4746TIP3    H135873   5.416   1.626   7.738 -0.6723 -0.5475 -0.3581
 4746TIP3    H235874   5.483   1.676   7.864  1.7013  0.5477 -1.9804
 4747TIP3   OH235875   5.332   5.026   2.616  0.2513  0.6964 -0.1548
 4747TIP3    H135876   5.284   4.971   2.555 -1.9081  1.3650  0.8612
 4747TIP3    H235877   5.415   4.980   2.630 -0.2783 -0.7642 -1.5622
 4748TIP3   OH235878   3.188   3.170   8.270  0.2060  0.0158  0.0668
 4748TIP3    H135879   3.266   3.135   8.226 -0.7516 -1.7773 -0.2994
 4748TIP3    H235880   3.114   3.132   8.222 -0.9615  2.4594 -0.2193
 4749TIP3   OH235881   5.843   5.586   8.652 -0.5853 -0.1962 -0.0881
 4749TIP3    H135882   5.894   5.530   8.592  0.5141  1.1234 -0.4504
 4749TIP3    H235883   5.907   5.649   8.685 -1.8099  0.9416  0.1840
 4750TIP3   OH235884   1.403   5.460   7.176 -0.3062 -0.4240  0.4294
 4750TIP3    H135885   1.348   5.495   7.106  0.1483 -0.5902 -0.0214
 4750TIP3    H235886   1.462   5.531   7.199  0.3728 -0.7526 -0.2321
 4751TIP3   OH235887   6.058   1.996   8.596  0.8383  0.0007 -0.1523
 4751TIP3    H135888   6.121   2.051   8.550  2.1940 -0.8353  0.6578
 4751TIP3    H235889   6.008   2.057   8.651  2.6444  0.3988  1.1162
 4752TIP3   OH235890   6.223   2.054   1.479  0.1617 -0.1918 -0.0426
 4752TIP3    H135891   6.192   1.964   1.492  0.1109 -0.0865  0.6071
 4752TIP3    H235892   6.288   2.068   1.548  0.7372  0.0134 -0.6237
 4753TIP3   OH235893   5.515   6.268   2.039  0.2453  0.1416 -0.0471
 4753TIP3    H135894   5.610   6.256   2.032  0.1199 -1.6589  0.7153
 4753TIP3    H235895   5.486   6.282   1.949  1.1111 -0.3453 -0.4138
 4754TIP3   OH235896   0.757   4.539   8.255 -0.0500  0.4959  0.2339
 4754TIP3    H135897   0.813   4.604   8.211  0.1616  0.2763  0.1782
 4754TIP3    H235898   0.670   4.580   8.257  0.2358  1.1095  0.8669
 4755TIP3   OH235899   2.783   6.050   7.385 -0.2468 -0.4399 -0.1294
 4755TIP3    H135900   2.729   5.971   7.392  1.1758 -1.4155  0.2252
 4755TIP3    H235901   2.818   6.064   7.473 -0.6159  0.6989 -0.1493
 4756TIP3   OH235902   4.707   2.497   1.353  0.3447  0.1380  0.0154
 4756TIP3    H135903   4.649   2.427   1.324  1.4257 -0.2496 -1.2961
 4756TIP3    H235904   4.769   2.508   1.281  1.0129  1.5280  0.7742
 4757TIP3   OH235905   3.289   5.854   8.086  0.4579 -0.5541 -0.3355
 4757TIP3    H135906   3.196   5.853   8.112  0.9355 -3.0763  1.7061
 4757TIP3    H235907   3.331   5.910   8.151  0.6053 -0.9362 -0.0946
 4758TIP3   OH235908   0.691   1.022   0.332 -0.3796 -0.2711 -0.0683
 4758TIP3    H135909   0.635   1.097   0.353 -3.2359 -2.0371 -0.8133
 4758TIP3    H235910   0.656   0.951   0.386 -0.5587 -2.0819 -2.4154
 4759TIP3   OH235911   6.217   6.337   2.587 -0.0479  0.0499  0.6539
 4759TIP3    H135912   6.265   6.255   2.575 -1.1227 -0.2685 -2.7568
 4759TIP3    H235913   6.127   6.308   2.603 -0.1219  0.5708  1.1606
 4760TIP3   OH235914   5.614   5.500   6.935 -0.1559  0.7083 -0.1996
 4760TIP3    H135915   5.545   5.437   6.910  0.9317 -0.6058 -0.0334
 4760TIP3    H235916   5.621   5.559   6.860 -2.2338  1.5874  0.2449
 4761TIP3   OH235917   6.574   5.512   8.455  0.4172  0.1950 -1.0055
 4761TIP3    H135918   6.485   5.525   8.487 -0.3387 -1.1618 -2.4642
 4761TIP3    H235919   6.586   5.580   8.389  0.5913  0.5877 -0.5726
 4762TIP3   OH235920   0.848   5.332   0.400 -0.2435 -0.5331  0.1783
 4762TIP3    H135921   0.834   5.404   0.339  0.3140  0.4026  1.1137
 4762TIP3    H235922   0.929   5.356   0.447 -0.3213 -1.5233  0.8397
 4763TIP3   OH235923   6.738   4.698   8.263  0.8128 -0.0268 -0.2325
 4763TIP3    H135924   6.759   4.781   8.305  0.9390 -0.0735 -0.2011
 4763TIP3    H235925   6.764   4.631   8.327 -0.1810 -0.0688  0.1375
 4764TIP3   OH235926   3.076   1.975   2.094 -0.5309 -0.0364 -0.0002
 4764TIP3    H135927   3.145   1.908   2.092 -0.5147 -0.0151 -0.1655
 4764TIP3    H235928   3.085   2.016   2.180 -1.5055 -1.2649  0.7314
 4765TIP3   OH235929   4.498   6.064   1.473 -0.2191  0.1982 -0.3426
 4765TIP3    H135930   4.491   6.158   1.491  1.2669  0.6450 -1.7880
 4765TIP3    H235931   4.428   6.047   1.410 -0.0388  0.5032 -0.6289
 4766TIP3   OH235932   4.144   3.895   7.433  0.1007 -0.2602  0.2497
 4766TIP3    H135933   4.228   3.941   7.431  0.5384 -1.0541  0.0992
 4766TIP3    H235934   4.140   3.848   7.349 -1.7493  1.9439 -1.0326
 4767TIP3   OH235935   4.522   4.683   0.434 -0.3795  0.4120 -0.2395
 4767TIP3    H135936   4.505   4.600   0.389 -0.5570  0.1405  0.3245
 4767TIP3    H235937   4.469   4.678   0.514 -1.6953  1.7502 -0.9777
 4768TIP3   OH235938   5.997   2.462   7.260  0.2995 -0.0869 -0.1132
 4768TIP3    H135939   5.972   2.547   7.297 -1.1436 -0.0829 -1.0245
 4768TIP3    H235940   5.961   2.463   7.171 -0.6976 -2.0731  0.2234
 4769TIP3   OH235941   1.398   4.099   1.586 -0.5680 -0.2692 -0.0672
 4769TIP3    H135942   1.336   4.031   1.560 -1.6167 -0.3816  2.4197
 4769TIP3    H235943   1.429   4.072   1.673  2.1453  0.3921 -0.7101
 4770TIP3   OH235944   2.715   4.125   2.133 -0.5364  0.1635 -0.2872
 4770TIP3    H135945   2.783   4.061   2.156  1.0280  1.7589 -0.2819
 4770TIP3    H235946   2.719   4.190   2.203 -1.7135  0.5728 -0.5799
 4771TIP3   OH235947   1.504   3.356   0.681  0.2030 -0.0239 -0.7353
 4771TIP3    H135948   1.488   3.443   0.646 -1.2716  1.0875  2.3423
 4771TIP3    H235949   1.591   3.362   0.721 -0.4935  0.5702  0.7610
 4772TIP3   OH235950   2.734   1.459   7.525 -0.5967 -0.3201 -0.3882
 4772TIP3    H135951   2.726   1.364   7.528 -1.1112 -0.2645  0.4640
 4772TIP3    H235952   2.794   1.480   7.597  1.2214 -0.1453 -1.9060
 4773TIP3   OH235953   6.315   1.832   7.366 -0.2187  0.5685 -0.4266
 4773TIP3    H135954   6.309   1.876   7.281 -0.2099 -0.2495 -0.8611
 4773TIP3    H235955   6.346   1.744   7.345  0.6383  0.6359  0.5133
 4774TIP3   OH235956   5.341   0.956   1.772 -0.0086 -0.3418 -0.3421
 4774TIP3    H135957   5.249   0.970   1.750 -0.6434 -1.7526  1.1605
 4774TIP3    H235958   5.339   0.917   1.860  2.1210  1.1400  0.4608
 4775TIP3   OH235959   2.534   4.448   0.941 -0.1498  0.9553 -0.2204
 4775TIP3    H135960   2.523   4.385   1.012 -1.0505  0.5579 -0.6963
 4775TIP3    H235961   2.461   4.509   0.952  1.0029  2.2450  0.5460
 4776TIP3   OH235962   3.120   6.527   7.210  0.2370 -0.0358  0.6309
 4776TIP3    H135963   3.064   6.497   7.138 -0.2938  1.9320  0.1637
 4776TIP3    H235964   3.172   6.598   7.172  1.2814 -0.1856  1.7190
 4777TIP3   OH235965   6.572   5.935   1.290  0.5349  0.4034 -0.1370
 4777TIP3    H135966   6.569   6.002   1.359  2.3692 -0.0931  0.4923
 4777TIP3    H235967   6.634   5.870   1.323  0.5700 -0.4401 -1.7670
 4778TIP3   OH235968   3.780   3.683   1.475 -0.3790 -0.0652  0.0631
 4778TIP3    H135969   3.728   3.654   1.549 -0.5888  0.4066  0.1098
 4778TIP3    H235970   3.822   3.604   1.441  0.7259 -0.1068  1.4517
 4779TIP3   OH235971   6.573   3.160   8.155 -0.4986  0.2817 -0.1293
 4779TIP3    H135972   6.656   3.114   8.150 -0.2569  0.3325  2.2474
 4779TIP3    H235973   6.597   3.250   8.180 -1.2876  0.1057  1.3187
 4780TIP3   OH235974   3.633   3.353   1.396 -0.2655  0.0768  0.2063
 4780TIP3    H135975   3.622   3.391   1.483  1.1675 -1.4352  1.1107
 4780TIP3    H235976   3.714   3.392   1.363 -0.8044  0.6457 -0.4781
 4781TIP3   OH235977   1.360   0.260   8.001 -0.4947 -0.8265  0.1731
 4781TIP3    H135978   1.431   0.262   8.066 -1.9757  1.8387  1.9037
 4781TIP3    H235979   1.397   0.301   7.923  0.1552 -0.2934  0.7464
 4782TIP3   OH235980   5.745   6.520   0.211 -0.3669  0.2302 -0.2513
 4782TIP3    H135981   5.724   6.514   0.304  0.3290 -0.3057 -0.1233
 4782TIP3    H235982   5.840   6.523   0.207 -0.3150 -1.4135 -1.0231
 4783TIP3   OH235983   6.569   3.469   2.024  0.1779  0.0236  0.4535
 4783TIP3    H135984   6.581   3.386   1.977 -1.6018 -1.9340  3.1377
 4783TIP3    H235985   6.480   3.495   2.003  0.0690  0.2062  1.1316
 4784TIP3   OH235986   2.221   0.838   8.110 -0.6283 -0.7601  0.0461
 4784TIP3    H135987   2.299   0.855   8.162 -1.4946 -0.3949  1.2538
 4784TIP3    H235988   2.255   0.827   8.021  0.6166  1.3744  0.1640
 4785TIP3   OH235989   4.147   0.066   7.451 -0.6967  0.0880 -0.1271
 4785TIP3    H135990   4.147  -0.028   7.466  0.2257  0.0254 -0.3919
 4785TIP3    H235991   4.102   0.077   7.367 -1.3063 -0.0616  0.1824
 4786TIP3   OH235992   6.183   3.341   1.100 -0.3900 -0.2938  0.0077
 4786TIP3    H135993   6.216   3.427   1.076 -1.5167  1.2806  3.4149
 4786TIP3    H235994   6.088   3.352   1.103 -0.5083 -1.4218  1.1691
 4787TIP3   OH235995   3.114   0.675   8.088 -0.3915  0.9998 -0.1005
 4787TIP3    H135996   3.106   0.770   8.077  2.6898  1.1989 -1.9795
 4787TIP3    H235997   3.092   0.659   8.180 -0.6774  3.5761  0.3539
 4788TIP3   OH235998   1.017   5.665   1.726 -0.1169 -0.1052 -0.1573
 4788TIP3    H135999   1.042   5.593   1.785 -1.1244 -0.6330 -0.3587
 4788TIP3    H236000   0.975   5.622   1.652  1.2596  0.5347 -1.3784
 4789TIP3   OH236001   5.491   2.722   7.967 -0.0724  0.2617  0.6549
 4789TIP3    H136002   5.524   2.807   7.937  1.3030 -0.0960  1.0772
 4789TIP3    H236003   5.522   2.714   8.057  1.3192 -1.3976  0.1012
 4790TIP3   OH236004   5.615   5.597   6.480 -0.1601  0.6929  0.2171
 4790TIP3    H136005   5.590   5.531   6.545 -1.4883  0.9442 -0.0120
 4790TIP3    H236006   5.642   5.546   6.403 -0.2338  0.4028  0.3833
 4791TIP3   OH236007   1.080   4.911   7.864  0.3063 -0.4620  0.0637
 4791TIP3    H136008   1.143   4.894   7.794  1.2280 -0.6363  0.9037
 4791TIP3    H236009   1.118   4.985   7.913 -0.1635 -0.5389  0.5590
 4792TIP3   OH236010   4.307   3.526   8.211 -0.9482 -0.4858 -0.8257
 4792TIP3    H136011   4.383   3.552   8.158 -0.5953 -0.3300 -0.2525
 4792TIP3    H236012   4.332   3.442   8.248  0.6243  1.2514  2.4953
 4793TIP3   OH236013   4.584   1.936   1.916  0.0684 -0.5102 -0.0742
 4793TIP3    H136014   4.664   1.903   1.957  0.0091  0.5414  0.9403
 4793TIP3    H236015   4.555   2.006   1.974 -0.3890  0.6107 -1.6141
 4794TIP3   OH236016   2.594   3.775   0.251  0.3797 -0.3332 -0.5127
 4794TIP3    H136017   2.506   3.812   0.247  0.4376 -0.2855 -2.4014
 4794TIP3    H236018   2.585   3.696   0.304 -0.8956 -0.5419 -1.0071
 4795TIP3   OH236019   4.553   0.454   1.848  0.5543  0.2594 -0.0621
 4795TIP3    H136020   4.489   0.388   1.876  0.4821  0.7241  0.9340
 4795TIP3    H236021   4.554   0.448   1.753 -0.4159 -0.2834 -0.0518
 4796TIP3   OH236022   2.381   3.688   1.591 -0.2702  0.8055  0.0542
 4796TIP3    H136023   2.306   3.740   1.620 -1.3016 -1.1539  1.1462
 4796TIP3    H236024   2.430   3.669   1.671 -0.3318 -0.4605 -0.1809
 4797TIP3   OH236025   3.546   5.985   8.051 -0.1081 -0.2256 -0.3071
 4797TIP3    H136026   3.488   6.061   8.049 -1.1520 -0.9898  0.0641
 4797TIP3    H236027   3.523   5.935   7.974 -1.0022 -1.2789  0.6102
 4798TIP3   OH236028   5.616   2.128   0.228  0.3822 -0.0721 -0.3537
 4798TIP3    H136029   5.611   2.211   0.276  0.9279  0.6382 -1.4763
 4798TIP3    H236030   5.690   2.082   0.267  0.8097  0.4858 -0.4951
 4799TIP3   OH236031   5.081   4.628   6.739  0.3524 -0.9213  0.0516
 4799TIP3    H136032   5.087   4.534   6.754  2.8093 -1.2342 -2.0748
 4799TIP3    H236033   5.171   4.659   6.751  0.0451  0.7309 -1.5509
 4800TIP3   OH236034   2.805   5.032   7.483 -0.0072 -1.0488  0.1346
 4800TIP3    H136035   2.877   4.970   7.489  0.0413 -0.8799  1.6532
 4800TIP3    H236036   2.756   5.004   7.406  1.2131 -1.6586 -0.4489
 4801TIP3   OH236037   2.428   6.039   1.184 -0.1705 -0.1702  0.1832
 4801TIP3    H136038   2.362   5.976   1.214 -0.1215 -0.6308 -0.6498
 4801TIP3    H236039   2.451   6.088   1.263 -2.0785  0.5372  0.3572
 4802TIP3   OH236040   3.750   2.739   8.641  0.0852 -0.0848  0.3825
 4802TIP3    H136041   3.751   2.814   8.581  1.2628 -0.2121  0.2038
 4802TIP3    H236042   3.801   2.672   8.595  0.4316 -0.4162  1.2290
 4803TIP3   OH236043   2.593   0.571   7.792  0.3936 -0.3879 -0.0966
 4803TIP3    H136044   2.636   0.599   7.711  1.4859  2.0408  1.2390
 4803TIP3    H236045   2.536   0.499   7.764  2.7335 -1.4819 -2.5391
 4804TIP3   OH236046   1.708   5.946   1.501  0.1774 -0.2296  0.0465
 4804TIP3    H136047   1.636   5.972   1.558 -0.3103 -0.2303 -0.5647
 4804TIP3    H236048   1.760   6.026   1.491 -0.6738  0.2238 -0.8783
 4805TIP3   OH236049   4.497   3.838   7.606 -0.4967  0.1250 -0.0314
 4805TIP3    H136050   4.426   3.775   7.598  0.1671 -0.5779 -0.4497
 4805TIP3    H236051   4.535   3.820   7.692 -2.3197  2.1083  1.2819
 4806TIP3   OH236052   4.059   6.685   1.993 -0.1349 -0.2005 -0.8864
 4806TIP3    H136053   3.982   6.682   2.050  0.1722  0.4855 -0.4150
 4806TIP3    H236054   4.120   6.624   2.033  0.2406  0.5915 -0.2157
 4807TIP3   OH236055   0.729   4.528   7.939 -0.6902  0.3940 -0.0149
 4807TIP3    H136056   0.766   4.478   8.012 -0.4185  1.5829  0.6829
 4807TIP3    H236057   0.646   4.562   7.972 -0.4684  1.1099 -0.1758
 4808TIP3   OH236058   3.698   5.930   0.836 -0.2652  0.1708  0.4260
 4808TIP3    H136059   3.619   5.976   0.865  0.7262  1.5077  1.1012
 4808TIP3    H236060   3.761   5.943   0.906  0.5667 -0.8979 -0.0960
 4809TIP3   OH236061   1.838   5.657   7.943 -0.0788  0.1086 -0.0458
 4809TIP3    H136062   1.811   5.748   7.931  1.9059  0.7455 -0.1392
 4809TIP3    H236063   1.757   5.610   7.961 -1.0588  2.0549  1.0150
 4810TIP3   OH236064   4.504   0.789   7.930 -0.1333 -0.1774 -0.4866
 4810TIP3    H136065   4.527   0.739   8.008  0.4349  2.6760  1.2889
 4810TIP3    H236066   4.462   0.868   7.963  1.6173  1.9471 -2.9684
 4811TIP3   OH236067   0.258   3.399   1.205 -0.0313  0.1303  0.6924
 4811TIP3    H136068   0.350   3.414   1.228  0.3058 -0.8539  0.0099
 4811TIP3    H236069   0.222   3.351   1.279  0.4958 -1.1147  0.1653
 4812TIP3   OH236070   3.840   4.595   7.909 -1.1935  0.0023 -0.0782
 4812TIP3    H136071   3.756   4.551   7.924 -0.0393 -2.8264 -1.0969
 4812TIP3    H236072   3.898   4.561   7.977 -0.3951  0.4250 -0.5282
 4813TIP3   OH236073   5.180   3.698   7.760 -0.3529 -0.3166 -0.2525
 4813TIP3    H136074   5.103   3.687   7.704 -0.3710 -1.1885 -0.0589
 4813TIP3    H236075   5.239   3.627   7.734  0.1809  0.0479 -0.0559
 4814TIP3   OH236076   3.142   0.628   1.459  0.3932  0.3323  0.0535
 4814TIP3    H136077   3.068   0.595   1.406  0.3640 -0.7917  0.7577
 4814TIP3    H236078   3.104   0.646   1.544  0.6084  1.3629 -0.0621
 4815TIP3   OH236079   2.171   5.676   8.565  0.3622 -0.5852 -0.7351
 4815TIP3    H136080   2.228   5.751   8.583 -1.2550  0.3720  0.7728
 4815TIP3    H236081   2.105   5.710   8.505  3.2222 -2.6394 -5.5640
 4816TIP3   OH236082   2.078   5.456   8.407  0.6744  0.5966  0.2651
 4816TIP3    H136083   2.113   5.481   8.321 -0.8270 -1.0298 -0.9099
 4816TIP3    H236084   2.107   5.526   8.466  2.3259  1.4252 -1.4080
 4817TIP3   OH236085   3.162   5.090   1.985 -0.5999  0.2457 -0.1124
 4817TIP3    H136086   3.180   5.070   2.076 -0.5512  0.0953 -0.1547
 4817TIP3    H236087   3.073   5.127   1.985 -0.2384  1.1540  0.1190
 4818TIP3   OH236088   2.594   2.569   7.986 -0.1735  0.0629 -0.1417
 4818TIP3    H136089   2.514   2.527   8.018 -1.2355  1.1153 -1.2789
 4818TIP3    H236090   2.664   2.529   8.036 -1.3387 -1.4551  0.3507
 4819TIP3   OH236091   1.956   5.088   8.547  0.0967 -0.3394 -0.6446
 4819TIP3    H136092   1.902   5.097   8.625 -0.3049  1.4740 -1.0736
 4819TIP3    H236093   2.035   5.042   8.577 -0.0764  0.2588  0.8017
 4820TIP3   OH236094   1.502   3.142   1.025  0.6585  0.7680 -0.3433
 4820TIP3    H136095   1.506   3.075   0.958 -3.7196 -0.5132  0.3727
 4820TIP3    H236096   1.451   3.213   0.986  0.2573  1.1384  0.8052
 4821TIP3   OH236097   6.525   1.396   8.630  0.2954 -0.4734 -0.0193
 4821TIP3    H136098   6.601   1.432   8.583  1.3080 -3.0872 -0.5064
 4821TIP3    H236099   6.549   1.402   8.722  1.0649 -1.2110 -0.1661
 4822TIP3   OH236100   6.569   1.966   1.238  0.3508 -0.2375  0.4009
 4822TIP3    H136101   6.596   2.027   1.307 -0.4075  0.7724 -0.1571
 4822TIP3    H236102   6.650   1.944   1.193  0.6691  0.1961  0.7479
 4823TIP3   OH236103   2.782   5.075   0.624 -0.3586 -0.2875  0.6694
 4823TIP3    H136104   2.753   5.069   0.533  2.5991  2.2306 -0.6182
 4823TIP3    H236105   2.866   5.029   0.626 -0.9515 -1.4187  2.5215
 4824TIP3   OH236106   0.593   5.704   2.233  0.5097  0.2120 -0.2540
 4824TIP3    H136107   0.614   5.794   2.211  0.2441  0.3087 -0.1123
 4824TIP3    H236108   0.657   5.652   2.184  1.1159  0.5039  0.2124
 4825TIP3   OH236109   6.649   1.068   1.429  0.6141  0.3690  0.3273
 4825TIP3    H136110   6.641   1.075   1.334  0.6125  1.3495  0.3895
 4825TIP3    H236111   6.675   0.977   1.444 -2.0895 -0.6111 -0.4160
 4826TIP3   OH236112   3.509   6.227   0.431 -0.3952 -0.5437 -0.3650
 4826TIP3    H136113   3.569   6.302   0.431  0.7749 -1.4599  0.4606
 4826TIP3    H236114   3.509   6.195   0.521 -0.9792 -1.4652 -0.6763
 4827TIP3   OH236115   2.644   0.519   1.518 -0.5505 -0.5781 -0.1363
 4827TIP3    H136116   2.625   0.434   1.478 -0.6549 -0.3537 -0.5695
 4827TIP3    H236117   2.559   0.558   1.534 -0.5061 -0.6353  0.2390
 4828TIP3   OH236118   3.682   2.253   0.423  0.1613 -0.0798  0.3412
 4828TIP3    H136119   3.709   2.183   0.482 -0.9131 -1.6813 -0.9893
 4828TIP3    H236120   3.593   2.275   0.449 -0.2483 -0.6558 -0.5180
 4829TIP3   OH236121   2.517   5.202   8.594  0.2571 -0.2244 -0.4911
 4829TIP3    H136122   2.567   5.126   8.625 -1.3438 -0.8550  0.7330
 4829TIP3    H236123   2.458   5.166   8.527 -3.0910 -1.0143  2.5580
 4830TIP3   OH236124   2.567   4.259   1.126  0.5668 -0.2663 -0.0946
 4830TIP3    H136125   2.538   4.261   1.218  1.4204  1.6213  0.1926
 4830TIP3    H236126   2.662   4.273   1.131  0.6035  0.0006 -1.2828
 4831TIP3   OH236127   0.222   4.094   1.542  0.2468 -0.5214  0.2347
 4831TIP3    H136128   0.166   4.016   1.535  2.4457 -2.0719 -1.6854
 4831TIP3    H236129   0.229   4.110   1.636 -1.9983 -1.2824  0.5833
 4832TIP3   OH236130   5.424   4.106   1.403 -0.7819 -0.1964  0.6988
 4832TIP3    H136131   5.352   4.053   1.370 -0.8893 -0.4094  1.2526
 4832TIP3    H236132   5.392   4.196   1.399  0.0698  0.0562 -1.9524
 4833TIP3   OH236133   6.171   6.138   8.473 -0.1644  0.0606  0.5303
 4833TIP3    H136134   6.199   6.052   8.505  2.4945  0.4908 -0.4003
 4833TIP3    H236135   6.178   6.196   8.549  2.3899  0.2894  0.2224
 4834TIP3   OH236136   5.820   0.316   2.086  0.4175  0.6659 -0.3085
 4834TIP3    H136137   5.792   0.226   2.104  2.7518  0.2125  1.5920
 4834TIP3    H236138   5.780   0.338   2.002 -1.8503 -1.3995  0.1365
 4835TIP3   OH236139   0.464   2.339   8.174 -0.5559  0.2112 -0.4596
 4835TIP3    H136140   0.435   2.269   8.232  0.1273 -0.2524 -0.6537
 4835TIP3    H236141   0.390   2.355   8.116 -0.3285 -1.2388 -1.2234
 4836TIP3   OH236142   4.437   3.283   0.959  0.3696 -0.0210  0.5705
 4836TIP3    H136143   4.467   3.254   0.873  0.2831  1.2550  0.0904
 4836TIP3    H236144   4.502   3.248   1.020  1.7264  0.9442 -0.2529
 4837TIP3   OH236145   1.957   3.471   1.011  0.0951 -0.2663 -0.4287
 4837TIP3    H136146   1.961   3.379   0.985 -0.2257 -0.4926  0.2924
 4837TIP3    H236147   2.008   3.475   1.092  2.4125  0.7224 -1.8289
 4838TIP3   OH236148   6.736   0.469   2.052 -0.0272 -0.2468  0.0835
 4838TIP3    H136149   6.643   0.473   2.073 -0.5208  0.2791 -2.0079
 4838TIP3    H236150   6.776   0.539   2.105 -0.6496 -0.9982  1.6004
 4839TIP3   OH236151   5.520   5.502   2.128  0.2040 -0.2178 -0.1529
 4839TIP3    H136152   5.547   5.593   2.143  1.5668 -0.5709 -0.3132
 4839TIP3    H236153   5.481   5.503   2.041 -0.5990  0.3614  0.1935
 4840TIP3   OH236154   5.766   2.655   2.012  0.5449  0.3681 -0.4238
 4840TIP3    H136155   5.817   2.682   2.089 -2.1166  1.9703  0.9255
 4840TIP3    H236156   5.773   2.559   2.012  5.2496  0.4520 -1.7254
 4841TIP3   OH236157   0.024   4.928   2.493 -0.6099 -0.1897  0.3134
 4841TIP3    H136158   0.002   4.868   2.565  0.3640 -2.5193 -1.1887
 4841TIP3    H236159  -0.054   4.982   2.483 -0.8021  0.1921  3.0325
 4842TIP3   OH236160   5.241   4.862   2.409  0.5022 -0.5406 -0.0811
 4842TIP3    H136161   5.171   4.796   2.410 -0.3149  0.3060  0.3997
 4842TIP3    H236162   5.295   4.838   2.333 -1.1847 -0.3283 -1.4030
 4843TIP3   OH236163   3.874   0.655   8.273 -0.6416  0.1486  0.4123
 4843TIP3    H136164   3.902   0.602   8.348 -1.8761  1.2489  1.7063
 4843TIP3    H236165   3.887   0.745   8.301 -1.4651  0.5913 -0.5646
 4844TIP3   OH236166   6.034   6.419   7.036  0.1757  0.0735  0.0627
 4844TIP3    H136167   6.079   6.499   7.008 -1.0677  0.2384 -1.6340
 4844TIP3    H236168   6.060   6.353   6.971 -0.7448 -0.2231 -0.0273
 4845TIP3   OH236169   3.319   3.802   1.024  0.0150 -0.3629 -0.0097
 4845TIP3    H136170   3.309   3.717   1.067  1.4817 -0.1508  0.8391
 4845TIP3    H236171   3.276   3.792   0.939  1.1981 -2.3728 -0.4462
 4846TIP3   OH236172   0.016   2.834   1.372  0.0319  0.6441  0.0244
 4846TIP3    H136173   0.025   2.794   1.286  1.5972  1.0198 -0.0167
 4846TIP3    H236174  -0.019   2.922   1.354 -2.8143 -0.3586  0.0740
 4847TIP3   OH236175   3.120   5.347   0.625  0.6329 -0.3112  0.7196
 4847TIP3    H136176   3.071   5.280   0.673 -0.5927  0.8990  1.2256
 4847TIP3    H236177   3.122   5.423   0.684  0.0490  0.8535 -0.6866
 4848TIP3   OH236178   1.842   4.208   8.379  0.2611  0.1262 -0.2976
 4848TIP3    H136179   1.929   4.176   8.355  0.2659  0.6334 -0.9854
 4848TIP3    H236180   1.837   4.197   8.473  1.1136  0.1816 -0.2416
 4849TIP3   OH236181   2.457   4.359   8.570 -0.0571  0.7009 -0.0777
 4849TIP3    H136182   2.472   4.359   8.665  0.5233  2.1212 -0.1487
 4849TIP3    H236183   2.374   4.406   8.559 -0.9214 -0.7829 -0.1968
 4850TIP3   OH236184   2.340   4.473   2.129 -0.2616 -0.1478  0.4705
 4850TIP3    H136185   2.396   4.396   2.129  0.9357  0.6702 -0.6347
 4850TIP3    H236186   2.386   4.537   2.184  0.1580  0.6612 -0.7478
 4851TIP3   OH236187   0.912   6.386   2.138 -0.1801 -0.3397 -0.4265
 4851TIP3    H136188   0.997   6.415   2.106 -0.8515  0.1138 -1.9035
 4851TIP3    H236189   0.860   6.466   2.145 -0.9382 -0.7628 -0.9978
 4852TIP3   OH236190   4.456   1.630   2.103 -0.2952 -0.4843 -0.5004
 4852TIP3    H136191   4.452   1.713   2.150  2.2549 -0.1374 -0.7554
 4852TIP3    H236192   4.514   1.575   2.156 -0.5891 -1.4964 -1.1902
 4853TIP3   OH236193   1.544   3.659   1.172  0.3736 -0.2386 -0.0323
 4853TIP3    H136194   1.545   3.583   1.231 -2.5938 -0.0604  0.3639
 4853TIP3    H236195   1.526   3.734   1.229 -1.5401  0.0686 -0.9779
 4854TIP3   OH236196   6.050   0.483   0.981 -0.1926  0.4079  0.1037
 4854TIP3    H136197   6.076   0.465   1.072  0.1289  1.6334  0.2654
 4854TIP3    H236198   6.097   0.416   0.930  1.5506  1.1700  0.6199
 4855TIP3   OH236199   6.749   0.515   7.864  0.0862  0.1385  0.0027
 4855TIP3    H136200   6.713   0.435   7.901  0.7808  0.1720  0.7736
 4855TIP3    H236201   6.738   0.581   7.932  1.4363  0.1875  0.2104
 4856TIP3   OH236202   2.069   1.393   1.704 -0.4624  0.1466 -0.3927
 4856TIP3    H136203   2.068   1.339   1.625 -1.3718 -1.5240  0.7106
 4856TIP3    H236204   1.990   1.369   1.751  0.5148  0.4216  1.4828
 4857TIP3   OH236205   6.714   3.629   1.610 -0.1857  0.4627 -0.1588
 4857TIP3    H136206   6.729   3.677   1.529  0.5676  0.0459 -0.2677
 4857TIP3    H236207   6.801   3.617   1.648 -0.4204 -0.3222  0.1523
 4858TIP3   OH236208   3.819   1.617   1.286  0.5685  0.1143 -0.6113
 4858TIP3    H136209   3.808   1.563   1.364  3.3708  0.8919  0.4528
 4858TIP3    H236210   3.759   1.580   1.222 -1.2702 -1.0261  1.6556
 4859TIP3   OH236211   0.342   5.257   2.804  0.0443 -0.2531  0.3053
 4859TIP3    H136212   0.321   5.342   2.766  0.6283 -0.3222 -0.1943
 4859TIP3    H236213   0.399   5.277   2.879 -0.7425 -0.1431  0.8847
 4860TIP3   OH236214   3.398   2.981   2.589  0.0119  0.4890 -0.3676
 4860TIP3    H136215   3.381   3.072   2.613 -0.1398 -0.0358  1.6611
 4860TIP3    H236216   3.481   2.959   2.632 -0.7713 -0.8003  0.5463
 4861TIP3   OH236217   2.601   4.689   2.668  0.1968 -0.2238 -0.8126
 4861TIP3    H136218   2.607   4.776   2.706 -0.1143 -0.5983  0.1192
 4861TIP3    H236219   2.522   4.691   2.614 -1.0831 -0.5555  0.9543
 4862TIP3   OH236220   2.793   1.122   1.401 -0.4951  0.4214  0.4473
 4862TIP3    H136221   2.753   1.205   1.377  0.5924  1.4476  1.9887
 4862TIP3    H236222   2.806   1.127   1.495 -0.5670 -1.5938  0.6210
 4863TIP3   OH236223   5.450   2.019   7.791 -0.0450  0.4517  0.1082
 4863TIP3    H136224   5.388   1.976   7.731 -0.1736 -0.4174  0.8414
 4863TIP3    H236225   5.490   1.947   7.839  1.1916  1.0401 -0.0084
 4864TIP3   OH236226   2.195   2.071   1.575  0.0298 -0.1231  0.0234
 4864TIP3    H136227   2.188   2.032   1.488 -0.2549  2.1556 -1.0552
 4864TIP3    H236228   2.131   2.142   1.575  2.1827  1.9941  0.8505
 4865TIP3   OH236229   4.729   6.786   7.182 -0.1179  0.5650  0.1932
 4865TIP3    H136230   4.737   6.737   7.264 -1.2978  0.7612  0.4579
 4865TIP3    H236231   4.725   6.878   7.209 -0.8403  0.6126 -0.0387
 4866TIP3   OH236232   4.534   2.174   0.750  0.0281 -0.0751 -0.1405
 4866TIP3    H136233   4.535   2.084   0.716  1.7014 -1.0434  2.2078
 4866TIP3    H236234   4.470   2.171   0.821  0.7984  0.3000  0.5793
 4867TIP3   OH236235   2.018   1.813   8.065  0.0409 -0.3539  0.1308
 4867TIP3    H136236   1.942   1.755   8.074  0.1020 -0.1616  2.2507
 4867TIP3    H236237   1.981   1.902   8.067  0.3138 -0.2390  1.8366
 4868TIP3   OH236238   2.202   0.506   1.127  0.4561  0.2369 -0.0785
 4868TIP3    H136239   2.136   0.481   1.061  0.1060  0.9915 -0.0322
 4868TIP3    H236240   2.279   0.454   1.105 -0.4399 -1.3319  0.4149
 4869TIP3   OH236241   1.430   2.891   8.632  0.3582 -0.4445 -0.6101
 4869TIP3    H136242   1.434   2.966   8.692 -0.7750 -1.0373  0.2505
 4869TIP3    H236243   1.520   2.859   8.628  0.9154  1.0950 -1.1959
 4870TIP3   OH236244   6.809   6.411   1.700 -0.3541 -0.5170  0.0020
 4870TIP3    H136245   6.864   6.359   1.642  1.0329  0.4316  0.4440
 4870TIP3    H236246   6.801   6.496   1.657  0.7954  0.2371  1.2251
 4871TIP3   OH236247   3.349   5.177   6.736  0.3084  0.2382 -0.4026
 4871TIP3    H136248   3.334   5.115   6.664  0.0373 -1.9958  1.4575
 4871TIP3    H236249   3.262   5.190   6.774  0.6445  0.2651  0.3716
 4872TIP3   OH236250   5.734   2.501   1.345 -0.5788 -0.1044  0.0603
 4872TIP3    H136251   5.664   2.491   1.409  0.3946 -1.4181  0.9791
 4872TIP3    H236252   5.773   2.413   1.339  0.6709  0.4811 -0.7868
 4873TIP3   OH236253   2.730   3.243   8.196  0.6979  0.5561 -0.4675
 4873TIP3    H136254   2.663   3.311   8.205  0.9773  1.0715 -1.9651
 4873TIP3    H236255   2.702   3.173   8.255  0.8032  2.2406  1.6985
 4874TIP3   OH236256   0.417   3.382   1.959  0.0914  0.2946 -0.7863
 4874TIP3    H136257   0.343   3.329   1.989 -0.8981  1.9943 -0.0655
 4874TIP3    H236258   0.438   3.348   1.872 -2.0902  0.2889 -1.3563
 4875TIP3   OH236259   0.939   5.826   8.459 -0.0685 -0.3309 -0.4989
 4875TIP3    H136260   1.011   5.797   8.516  0.7952  0.9483 -0.8912
 4875TIP3    H236261   0.903   5.902   8.505  0.5917  0.6691 -1.5876
 4876TIP3   OH236262   1.633   2.426   7.934  0.0522  0.9022  0.2726
 4876TIP3    H136263   1.554   2.470   7.901 -0.3811  1.1074  1.5526
 4876TIP3    H236264   1.602   2.343   7.967  0.4423  0.8204  0.4374
 4877TIP3   OH236265   3.887   5.034   1.939  0.2657 -0.0631  0.3066
 4877TIP3    H136266   3.795   5.022   1.919  0.2813  1.3050 -0.7429
 4877TIP3    H236267   3.888   5.082   2.022  0.0304 -0.0753  0.3165
 4878TIP3   OH236268   2.584   3.518   0.335  0.0740 -0.3811  0.3971
 4878TIP3    H136269   2.552   3.505   0.424  0.5526  2.1912  1.0340
 4878TIP3    H236270   2.663   3.463   0.330 -0.1590 -0.8407  1.4241
 4879TIP3   OH236271   6.805   6.246   2.232  0.4686  0.6003  0.4000
 4879TIP3    H136272   6.766   6.233   2.318  2.0924 -0.2296  1.0478
 4879TIP3    H236273   6.774   6.172   2.179  1.2337 -0.1236  0.9453
 4880TIP3   OH236274   5.139   6.263   7.138  0.0481  0.1510 -0.1728
 4880TIP3    H136275   5.087   6.197   7.093 -0.1385  0.3799 -0.2981
 4880TIP3    H236276   5.229   6.232   7.131 -0.1037 -0.4330  0.3644
 4881TIP3   OH236277   2.691   0.757   8.437  0.2758  0.0907 -0.4692
 4881TIP3    H136278   2.628   0.720   8.499  1.5956 -0.7354  0.4517
 4881TIP3    H236279   2.699   0.849   8.463  0.1550 -0.0329  0.0215
 4882TIP3   OH236280   0.509   6.583   7.382  0.1271  0.0648  0.0245
 4882TIP3    H136281   0.493   6.531   7.303 -1.8530 -0.5783  0.8133
 4882TIP3    H236282   0.423   6.605   7.415  0.9046 -0.1818  2.3661
 4883TIP3   OH236283   0.378   3.708   2.907  0.5103 -0.6366 -0.1385
 4883TIP3    H136284   0.354   3.636   2.966 -1.8890  0.4222  0.3080
 4883TIP3    H236285   0.332   3.687   2.826 -0.7200  0.6293  0.1909
 4884TIP3   OH236286   4.682   6.519   6.683 -0.4410 -0.8124 -0.7046
 4884TIP3    H136287   4.589   6.500   6.674 -1.3368  2.6038 -0.0711
 4884TIP3    H236288   4.694   6.538   6.776  0.7804 -0.6072 -0.8782
 4885TIP3   OH236289   6.627   5.749   0.455 -0.0233  0.1050 -0.4196
 4885TIP3    H136290   6.694   5.808   0.421  0.1597  1.5306  2.1491
 4885TIP3    H236291   6.572   5.729   0.379  2.2603  0.2930 -2.2243
 4886TIP3   OH236292   0.209   5.015   2.718  0.3932 -0.1922  0.8154
 4886TIP3    H136293   0.277   5.073   2.753  1.4400  0.4184 -1.9935
 4886TIP3    H236294   0.256   4.955   2.660 -1.3600 -0.1479 -0.7366
 4887TIP3   OH236295   2.947   4.760   0.386  0.1543  0.8296  0.2837
 4887TIP3    H136296   3.037   4.782   0.363  0.0711 -0.5208 -1.5442
 4887TIP3    H236297   2.898   4.769   0.305 -0.9776 -0.3007  0.7963
 4888TIP3   OH236298   2.056   4.981   8.112  0.4187 -0.0798 -0.1103
 4888TIP3    H136299   1.974   4.933   8.126  0.6299 -0.6715 -0.8226
 4888TIP3    H236300   2.046   5.060   8.165  0.2690 -1.1278  1.5289
 4889TIP3   OH236301   4.333   1.336   1.468  0.3050 -0.1095  0.0154
 4889TIP3    H136302   4.283   1.352   1.388 -0.9491  0.7083  0.9337
 4889TIP3    H236303   4.334   1.421   1.513  0.5518 -0.6799  1.1176
 4890TIP3   OH236304   0.886   5.860   0.960  0.0054 -0.4109 -0.4940
 4890TIP3    H136305   0.791   5.848   0.952  0.0826 -1.1256 -0.3983
 4890TIP3    H236306   0.918   5.859   0.869 -0.0082 -0.8112 -0.4968
 4891TIP3   OH236307   1.454   5.526   1.104 -0.1998  0.1498  0.2333
 4891TIP3    H136308   1.408   5.445   1.127 -0.7858  0.8727  1.7525
 4891TIP3    H236309   1.387   5.580   1.061 -0.1941  0.3589  0.4830
 4892TIP3   OH236310   4.075   2.741   8.414 -0.0922 -0.5717  0.1243
 4892TIP3    H136311   4.062   2.817   8.472  0.2493  0.0625 -0.6185
 4892TIP3    H236312   4.017   2.674   8.450  1.6114 -0.9295  2.4833
 4893TIP3   OH236313   6.543   0.618   1.395 -0.6255 -0.2570  0.8314
 4893TIP3    H136314   6.510   0.570   1.320  0.6591  0.4642 -0.2460
 4893TIP3    H236315   6.613   0.563   1.431  0.6393  0.6011 -0.2187
 4894TIP3   OH236316   5.067   6.681   7.696  0.2976  0.1589  0.0719
 4894TIP3    H136317   5.136   6.614   7.693 -0.2559 -0.4751  1.0729
 4894TIP3    H236318   5.100   6.747   7.757  0.2057  0.0629  0.2263
 4895TIP3   OH236319   5.044   4.479   1.116  0.0194  0.3301 -0.4296
 4895TIP3    H136320   5.080   4.560   1.080  0.1584  0.1396 -0.7188
 4895TIP3    H236321   5.068   4.411   1.053  0.4981 -0.0500  0.1564
 4896TIP3   OH236322   5.813   1.900   6.715 -0.2120  0.2245  0.0141
 4896TIP3    H136323   5.743   1.836   6.703 -0.0734  0.3074 -1.4723
 4896TIP3    H236324   5.860   1.899   6.632  0.7296  1.1526  0.5159
 4897TIP3   OH236325   0.273   2.666   8.107 -0.0299  0.7133 -0.2762
 4897TIP3    H136326   0.297   2.720   8.182  1.1898 -2.8904  2.2054
 4897TIP3    H236327   0.357   2.641   8.068 -0.0963 -2.8030  1.4539
 4898TIP3   OH236328   2.941   5.169   1.731 -0.0922 -0.4773 -0.3431
 4898TIP3    H136329   2.928   5.148   1.824 -2.0205  1.7573 -0.0117
 4898TIP3    H236330   2.854   5.195   1.701  0.6544 -0.4212 -2.6142
 4899TIP3   OH236331   6.387   0.349   2.281  0.1367  0.3648 -0.3449
 4899TIP3    H136332   6.344   0.266   2.301  1.4582  0.0463  1.3932
 4899TIP3    H236333   6.317   0.414   2.287 -0.5625 -0.4126  0.1187
 4900TIP3   OH236334   0.292   1.125   8.136  0.2453 -0.7696  1.1410
 4900TIP3    H136335   0.281   1.030   8.146  1.4225 -0.9114  1.2278
 4900TIP3    H236336   0.279   1.141   8.043 -0.0960 -0.9986  1.1470
 4901TIP3   OH236337   5.230   6.562   0.806  0.1610 -0.1960  0.8109
 4901TIP3    H136338   5.194   6.539   0.720  1.3603  0.4376  0.1169
 4901TIP3    H236339   5.157   6.605   0.851 -0.8492 -1.6011  0.5891
 4902TIP3   OH236340   2.824   3.948   0.222  0.0659 -0.3754  0.2361
 4902TIP3    H136341   2.739   3.906   0.233  0.1081 -0.4775  0.1711
 4902TIP3    H236342   2.853   3.966   0.312  0.1474 -0.6841  0.2715
 4903TIP3   OH236343   1.200   2.345   7.362  0.4216 -0.0181 -0.1361
 4903TIP3    H136344   1.250   2.270   7.393  2.4864  2.0761  2.0678
 4903TIP3    H236345   1.193   2.333   7.267 -0.8103 -3.7155  0.2777
 4904TIP3   OH236346   5.885   0.859   0.429 -0.3554 -0.3186  0.0986
 4904TIP3    H136347   5.950   0.916   0.469  0.8464 -1.0684 -0.7180
 4904TIP3    H236348   5.801   0.889   0.465  0.5569 -0.3824  2.4495
 4905TIP3   OH236349   6.635   6.832   2.020  0.6516 -0.2098  0.1712
 4905TIP3    H136350   6.664   6.873   2.102  0.0963  1.1880 -0.2999
 4905TIP3    H236351   6.554   6.878   1.998  0.4653 -0.9916 -0.8507
 4906TIP3   OH236352   0.523   3.782   2.388 -0.4077  0.7634 -0.4388
 4906TIP3    H136353   0.599   3.804   2.334 -1.1404 -0.4157 -2.0321
 4906TIP3    H236354   0.458   3.750   2.325 -1.0510 -1.3993  1.2142
 4907TIP3   OH236355   3.737   2.016   7.054  0.3059 -0.5320  0.2017
 4907TIP3    H136356   3.777   2.014   7.140 -1.6891 -0.3006  1.2014
 4907TIP3    H236357   3.645   1.994   7.070 -1.2136  3.7115 -1.1357
 4908TIP3   OH236358   0.279   0.920   2.153  0.0037  0.1459  0.1979
 4908TIP3    H136359   0.321   0.837   2.131 -1.6638 -0.6461 -0.1952
 4908TIP3    H236360   0.208   0.896   2.212 -0.8243  1.2134 -0.3268
 4909TIP3   OH236361   2.159   0.700   1.633 -0.1826  0.1512 -0.2825
 4909TIP3    H136362   2.112   0.774   1.592 -1.1434 -1.0909 -1.5342
 4909TIP3    H236363   2.246   0.735   1.652 -0.7365  1.7266 -0.4754
 4910TIP3   OH236364   6.492   0.014   7.690 -0.0590  0.6643  0.2202
 4910TIP3    H136365   6.546   0.093   7.697  1.7222 -0.0592 -3.2192
 4910TIP3    H236366   6.426   0.036   7.625 -0.1902 -0.3465  0.0015
 4911TIP3   OH236367   1.868   6.347   7.423 -0.6999  0.0576 -0.3346
 4911TIP3    H136368   1.891   6.326   7.513  0.4717  0.4735 -0.5238
 4911TIP3    H236369   1.776   6.374   7.428 -0.6029  0.2447  0.7604
 4912TIP3   OH236370   1.164   2.399   8.642  0.4040 -0.8535 -0.1033
 4912TIP3    H136371   1.167   2.479   8.694  0.4650 -0.7206 -0.3102
 4912TIP3    H236372   1.106   2.420   8.568 -0.5851 -1.3950  0.4998
 4913TIP3   OH236373   6.012   4.419   0.611 -0.4265  0.5449  0.6009
 4913TIP3    H136374   5.946   4.378   0.668 -0.0324 -1.2793 -0.1672
 4913TIP3    H236375   6.010   4.365   0.532  0.6023  1.6809 -0.2145
 4914TIP3   OH236376   2.061   4.893   0.840  0.6855 -0.4822 -0.0250
 4914TIP3    H136377   1.968   4.879   0.860  1.1149  0.5071  3.1271
 4914TIP3    H236378   2.107   4.867   0.920  2.9537  1.1357 -0.7064
 4915TIP3   OH236379   1.146   2.293   2.966 -0.0122 -0.3745 -0.5754
 4915TIP3    H136380   1.178   2.354   2.900  0.2045 -0.6114 -0.6896
 4915TIP3    H236381   1.176   2.329   3.049 -1.6843  0.8377 -0.4354
 4916TIP3   OH236382   6.512   1.894   6.700 -0.1152 -0.1889 -0.2171
 4916TIP3    H136383   6.489   1.967   6.642 -0.3479  0.8684  1.1410
 4916TIP3    H236384   6.496   1.928   6.788  4.6758 -0.0227  0.8380
 4917TIP3   OH236385   3.014   4.821   7.536  0.3547 -0.1050 -0.5430
 4917TIP3    H136386   3.073   4.794   7.465  1.3197  0.3959  0.0482
 4917TIP3    H236387   3.063   4.887   7.584 -0.9623  0.8262 -0.4294
 4918TIP3   OH236388   1.123   0.265   8.564  0.0474  0.4336 -0.0164
 4918TIP3    H136389   1.066   0.304   8.631 -1.2421  0.5660 -1.1506
 4918TIP3    H236390   1.141   0.337   8.503  0.1919  0.0214 -0.4714
 4919TIP3   OH236391   6.356   0.742   7.923 -0.1376  0.4706 -0.3364
 4919TIP3    H136392   6.304   0.815   7.890  1.2954  2.5522  1.6416
 4919TIP3    H236393   6.444   0.758   7.890  0.7792  1.2507  2.2045
 4920TIP3   OH236394   1.607   4.653   8.379 -0.2026 -0.2933 -0.0951
 4920TIP3    H136395   1.578   4.659   8.470 -0.6734  1.1892 -0.3270
 4920TIP3    H236396   1.594   4.561   8.356  1.1678 -1.0059  1.7335
 4921TIP3   OH236397   0.538   1.232   1.160  0.6209 -0.1392 -0.2200
 4921TIP3    H136398   0.496   1.316   1.178 -0.2935 -0.0316 -2.5348
 4921TIP3    H236399   0.596   1.218   1.235 -1.6903  0.9020  1.9109
 4922TIP3   OH236400   4.701   3.551   0.705  0.5097  0.1235 -0.2560
 4922TIP3    H136401   4.714   3.583   0.795  1.4631  0.9541 -0.6690
 4922TIP3    H236402   4.609   3.524   0.702  0.4681  0.0782  0.9719
 4923TIP3   OH236403   3.406   3.666   7.141 -0.1347 -0.6459 -0.7301
 4923TIP3    H136404   3.488   3.649   7.096  0.6232  2.5476 -0.7839
 4923TIP3    H236405   3.347   3.698   7.073 -0.7265 -0.8182 -0.3087
 4924TIP3   OH236406   6.646   0.998   1.167  0.3462  1.0302 -0.1324
 4924TIP3    H136407   6.660   0.903   1.158 -0.9993  0.7665  0.2852
 4924TIP3    H236408   6.572   1.016   1.109  0.7031  1.8660 -0.3400
 4925TIP3   OH236409   3.262   3.805   8.420 -0.4388 -0.2157 -0.5149
 4925TIP3    H136410   3.222   3.875   8.369 -1.9868 -1.7878 -1.5979
 4925TIP3    H236411   3.333   3.772   8.365  1.5523  1.6303  0.7933
 4926TIP3   OH236412   1.013   1.700   8.445  0.0148 -0.4627 -0.0623
 4926TIP3    H136413   0.953   1.737   8.509  0.7105  1.8953 -0.6955
 4926TIP3    H236414   1.081   1.658   8.497 -1.2115 -1.6630  0.6588
 4927TIP3   OH236415   3.413   2.746   8.063 -0.0116  0.6829 -0.8793
 4927TIP3    H136416   3.452   2.827   8.029  1.1624  0.2474 -0.6140
 4927TIP3    H236417   3.333   2.735   8.012  0.4393  1.3698 -1.7653
 4928TIP3   OH236418   2.630   4.586   7.311 -0.4594 -0.0867 -0.2113
 4928TIP3    H136419   2.567   4.630   7.254 -0.2658 -0.4386 -0.7041
 4928TIP3    H236420   2.635   4.642   7.389 -0.5323  0.5398 -0.6463
 4929TIP3   OH236421   6.397   3.539   0.174 -0.0804  0.0195  0.3043
 4929TIP3    H136422   6.323   3.556   0.116  0.8344  0.7668 -0.6965
 4929TIP3    H236423   6.358   3.510   0.256 -1.4593  0.1209 -0.2958
 4930TIP3   OH236424   6.024   4.223   8.444 -0.4936 -0.1293  0.1056
 4930TIP3    H136425   6.088   4.197   8.378 -1.1419 -1.8605  0.1316
 4930TIP3    H236426   6.074   4.225   8.526 -0.0052  0.6818 -0.1977
 4931TIP3   OH236427   2.198   3.238   7.274 -0.3052  0.3289  0.5702
 4931TIP3    H136428   2.141   3.188   7.216  1.0978 -0.0992 -0.5057
 4931TIP3    H236429   2.220   3.177   7.344  1.0959 -0.5163 -0.5377
 4932TIP3   OH236430   5.404   6.358   2.505 -0.0542 -0.0801  0.3130
 4932TIP3    H136431   5.334   6.414   2.538 -0.7837 -0.0557 -1.1946
 4932TIP3    H236432   5.366   6.313   2.430  1.5383 -0.0565 -0.5640
 4933TIP3   OH236433   2.126   3.740   7.135 -0.3028 -0.2106  0.1261
 4933TIP3    H136434   2.048   3.722   7.082 -1.0658  0.6307  0.9137
 4933TIP3    H236435   2.159   3.823   7.100  0.4071 -0.6965 -0.3770
 4934TIP3   OH236436   3.297   4.285   7.909  0.1320  0.3564 -0.0833
 4934TIP3    H136437   3.378   4.236   7.896  1.2685  1.2739  2.6959
 4934TIP3    H236438   3.228   4.225   7.883  1.6440 -0.7579 -1.7554
 4935TIP3   OH236439   6.013   5.302   0.485 -0.0857 -0.0223  0.2735
 4935TIP3    H136440   5.955   5.253   0.543  0.7869 -0.5602  0.7113
 4935TIP3    H236441   6.094   5.312   0.535  1.3088 -1.9566 -1.3976
 4936TIP3   OH236442   5.731   6.060   7.872  0.3043  0.3638  0.6413
 4936TIP3    H136443   5.818   6.087   7.902  1.0405 -0.0122 -1.0113
 4936TIP3    H236444   5.704   6.129   7.812  0.1367 -0.2588 -0.0118
 4937TIP3   OH236445   0.983   6.585   0.504  0.5325  0.7097  0.1161
 4937TIP3    H136446   0.903   6.544   0.473  0.8523  1.0433 -1.1842
 4937TIP3    H236447   0.953   6.660   0.556 -0.0437 -0.8537  2.1851
 4938TIP3   OH236448   0.452   3.629   1.842  0.1553 -0.3957  0.1799
 4938TIP3    H136449   0.540   3.595   1.825 -0.3766 -1.2726 -0.9385
 4938TIP3    H236450   0.413   3.567   1.903  0.4544  0.2386  1.0311
 4939TIP3   OH236451   0.924   2.738   8.584 -0.4636 -0.0672  0.1967
 4939TIP3    H136452   0.993   2.749   8.650  0.6587  0.0837 -0.9557
 4939TIP3    H236453   0.843   2.730   8.635 -0.0360  2.7565  1.5313
 4940TIP3   OH236454   1.300   1.884   0.719  0.2120  0.1121  0.3701
 4940TIP3    H136455   1.370   1.948   0.708  0.4358 -0.0499  0.8186
 4940TIP3    H236456   1.325   1.811   0.664  0.5560 -0.0718  0.7648
 4941TIP3   OH236457   5.507   6.536   8.217 -0.0079 -0.2677 -0.3346
 4941TIP3    H136458   5.563   6.610   8.191 -0.5026  0.3174  0.2176
 4941TIP3    H236459   5.499   6.483   8.138  0.3984  0.2403 -0.7298
 4942TIP3   OH236460   0.209   1.822   7.863 -0.4788  0.3000  0.2806
 4942TIP3    H136461   0.286   1.769   7.843 -0.7043  0.3270 -0.7408
 4942TIP3    H236462   0.165   1.833   7.778 -1.4669  0.4967  0.8024
 4943TIP3   OH236463   1.584   5.576   6.518 -0.6323  0.1934 -0.0001
 4943TIP3    H136464   1.518   5.641   6.492 -0.0738  0.8857  0.2898
 4943TIP3    H236465   1.666   5.624   6.519 -0.0939 -0.6871 -0.4535
 4944TIP3   OH236466   3.697   0.673   7.845 -0.2735  0.2024 -0.0010
 4944TIP3    H136467   3.746   0.733   7.902  1.5860  0.1405 -1.4527
 4944TIP3    H236468   3.654   0.730   7.781 -2.9432  0.3308  1.7499
 4945TIP3   OH236469   0.581   0.568   2.660  0.0397 -1.0506  0.3738
 4945TIP3    H136470   0.616   0.657   2.662 -1.2511 -0.5057  2.3042
 4945TIP3    H236471   0.621   0.524   2.735 -0.8339 -1.4427  0.6345
 4946TIP3   OH236472   1.869   3.222   1.843 -0.6280 -0.1764  0.4058
 4946TIP3    H136473   1.793   3.230   1.900  0.4857 -3.1639  2.5593
 4946TIP3    H236474   1.895   3.130   1.850  1.7402  0.1737 -2.1733
 4947TIP3   OH236475   0.975   3.039   2.370  0.0489 -0.1930 -0.1774
 4947TIP3    H136476   0.984   3.088   2.452  0.8098 -0.0985 -0.3037
 4947TIP3    H236477   1.036   2.965   2.380 -0.5745 -0.7287 -0.2718
 4948TIP3   OH236478   5.230   3.200   8.477  0.0865 -0.3414  0.0579
 4948TIP3    H136479   5.296   3.151   8.429  1.0271 -0.9069  1.8242
 4948TIP3    H236480   5.163   3.136   8.498  0.3062 -0.3999  0.5912
 4949TIP3   OH236481   4.511   3.341   0.178 -0.1986 -0.0604 -0.0377
 4949TIP3    H136482   4.579   3.407   0.188 -1.3187  0.9205  1.6034
 4949TIP3    H236483   4.548   3.262   0.218 -0.3775  0.7607  1.8512
 4950TIP3   OH236484   4.468   1.557   0.085  0.2451  0.2838 -0.6015
 4950TIP3    H136485   4.375   1.539   0.075 -0.0501  0.4350  1.3915
 4950TIP3    H236486   4.510   1.509   0.014 -1.2071 -1.3718 -0.3972
 4951TIP3   OH236487   3.703   0.764   6.982  0.4012  0.5438  0.4886
 4951TIP3    H136488   3.637   0.718   7.033  2.9692 -0.2155  3.4740
 4951TIP3    H236489   3.727   0.702   6.913 -2.5676  1.2611 -1.3542
 4952TIP3   OH236490   5.446   0.841   7.850 -0.0526 -0.1795 -0.6513
 4952TIP3    H136491   5.402   0.924   7.871 -0.3807 -0.8546  1.5865
 4952TIP3    H236492   5.376   0.776   7.852  0.3461 -0.6510 -1.5387
 4953TIP3   OH236493   6.019   6.761   8.256 -0.1103 -0.8226  0.2159
 4953TIP3    H136494   6.069   6.776   8.176  0.8296 -4.5325 -0.0967
 4953TIP3    H236495   6.034   6.838   8.310  1.0539  0.7855 -2.2605
 4954TIP3   OH236496   1.207   2.773   1.253 -0.0421 -0.1364 -0.2540
 4954TIP3    H136497   1.230   2.684   1.228  0.2005 -0.4247  0.9406
 4954TIP3    H236498   1.185   2.816   1.171  0.7826 -1.0208 -0.9580
 4955TIP3   OH236499   4.086   4.283   1.610  0.5049 -0.5345  0.6062
 4955TIP3    H136500   4.001   4.314   1.580  0.2232 -2.5314 -0.8437
 4955TIP3    H236501   4.115   4.350   1.672 -1.6174  0.7337  0.3377
 4956TIP3   OH236502   4.689   0.750   2.134 -0.2396  0.0512 -0.7248
 4956TIP3    H136503   4.673   0.659   2.109 -1.7847  0.3212 -0.8192
 4956TIP3    H236504   4.677   0.751   2.229  2.4711 -0.3334 -0.2787
 4957TIP3   OH236505   4.135   0.589   2.062  0.2883 -0.4018 -0.0290
 4957TIP3    H136506   4.100   0.521   2.004  1.5014 -1.5508  0.5498
 4957TIP3    H236507   4.147   0.665   2.004 -2.0255 -0.2841 -0.4815
 4958TIP3   OH236508   1.841   2.086   8.553 -0.2498  0.2862  0.2169
 4958TIP3    H136509   1.924   2.051   8.519 -0.0646  0.3913  0.5481
 4958TIP3    H236510   1.865   2.125   8.637 -0.6496  0.2584  0.3456
 4959TIP3   OH236511   4.236   1.775   7.287 -0.4460  0.2912 -0.9780
 4959TIP3    H136512   4.179   1.701   7.264  0.2190 -1.7891  3.2036
 4959TIP3    H236513   4.191   1.852   7.251 -3.1239 -1.7280 -2.3181
 4960TIP3   OH236514   0.288   3.757   0.870 -0.4259 -0.0921  0.1200
 4960TIP3    H136515   0.210   3.793   0.827 -0.1197  2.7377  1.6650
 4960TIP3    H236516   0.257   3.730   0.957  0.0137 -0.5209  0.1455
 4961TIP3   OH236517   3.705   0.275   8.265 -0.6044 -0.0122  0.0240
 4961TIP3    H136518   3.750   0.307   8.343 -1.5985 -2.4671  1.7467
 4961TIP3    H236519   3.751   0.194   8.243  0.9314  1.6089 -3.2727
 4962TIP3   OH236520   0.402   0.731   0.577 -0.4186 -0.3379 -0.2797
 4962TIP3    H136521   0.312   0.703   0.560 -2.4758  4.2968  1.3118
 4962TIP3    H236522   0.413   0.721   0.671 -0.1221  1.1089 -0.1423
 4963TIP3   OH236523   4.617   0.903   7.119 -0.3407 -0.0981 -0.0479
 4963TIP3    H136524   4.594   0.917   7.027 -0.3644 -1.7940 -0.3265
 4963TIP3    H236525   4.534   0.914   7.166 -0.3579  0.6256 -0.2351
 4964TIP3   OH236526   3.411   2.483   7.486 -0.4135 -0.3612 -0.4366
 4964TIP3    H136527   3.408   2.387   7.485  1.3590 -0.4863  0.6585
 4964TIP3    H236528   3.396   2.506   7.578  0.5288  0.3172 -0.4374
 4965TIP3   OH236529   1.061   1.242   0.017 -0.2843  0.3570  0.5026
 4965TIP3    H136530   0.990   1.178   0.026 -0.9836  1.1650  0.8594
 4965TIP3    H236531   1.099   1.249   0.104  0.2964 -0.1289  0.2954
 4966TIP3   OH236532   2.808   4.258   6.709 -0.1922 -0.3689  0.3652
 4966TIP3    H136533   2.764   4.306   6.639 -1.1936 -0.0884  1.1637
 4966TIP3    H236534   2.835   4.326   6.771 -0.8638 -0.7650  1.0944
 4967TIP3   OH236535   2.187   4.124   7.755 -0.1221  0.1048 -0.4649
 4967TIP3    H136536   2.249   4.172   7.702 -0.4760  1.2290  0.1066
 4967TIP3    H236537   2.211   4.032   7.743  0.5125  0.4064 -1.6413
 4968TIP3   OH236538   2.479   0.243   2.429 -0.1038  0.1630  0.0297
 4968TIP3    H136539   2.396   0.291   2.433  0.0119  0.4094 -0.4274
 4968TIP3    H236540   2.476   0.185   2.505  0.9739  2.8613  2.3410
 4969TIP3   OH236541   1.528   3.459   8.263 -0.1848  0.0678  0.0609
 4969TIP3    H136542   1.616   3.494   8.250 -0.9631  1.4458 -1.9777
 4969TIP3    H236543   1.503   3.425   8.177 -1.8520  0.2244  0.4535
 4970TIP3   OH236544   2.752   0.228   1.636  0.2170  0.4038  0.0431
 4970TIP3    H136545   2.751   0.148   1.689  0.4718  2.2481  3.0471
 4970TIP3    H236546   2.663   0.262   1.643  0.1269  0.4604 -1.1766
 4971TIP3   OH236547   0.346   4.658   2.360 -0.0154 -0.1432 -0.2989
 4971TIP3    H136548   0.318   4.599   2.290  1.3578 -1.6554  0.3669
 4971TIP3    H236549   0.399   4.603   2.418  2.7352  2.1137 -0.5033
 4972TIP3   OH236550   5.082   2.820   7.396 -0.2771  0.6623  0.4490
 4972TIP3    H136551   5.044   2.900   7.359 -0.4387  0.6678  0.6222
 4972TIP3    H236552   5.115   2.847   7.482 -1.4161  0.2813  1.0290
 4973TIP3   OH236553   3.813   3.575   7.754  0.1011  0.3785  0.6866
 4973TIP3    H136554   3.898   3.595   7.715 -0.0095 -2.3721 -1.3041
 4973TIP3    H236555   3.819   3.483   7.779 -2.3852 -0.0133  0.0911
 4974TIP3   OH236556   4.961   1.240   0.127 -0.4121 -0.1896 -0.1478
 4974TIP3    H136557   5.030   1.281   0.179  0.0725 -0.9864 -0.1537
 4974TIP3    H236558   4.970   1.280   0.041  0.8924 -1.2185 -0.5149
 4975TIP3   OH236559   0.673   6.652   0.951 -0.2129 -0.5877  0.4996
 4975TIP3    H136560   0.760   6.654   0.991  0.1168  1.8056 -0.1612
 4975TIP3    H236561   0.690   6.655   0.857 -1.0001  0.0383  0.3670
 4976TIP3   OH236562   5.979   4.656   1.544 -0.0517 -0.7219  0.0523
 4976TIP3    H136563   6.074   4.656   1.550 -0.0548 -0.4694  0.0786
 4976TIP3    H236564   5.953   4.568   1.573  0.1212 -0.5448  0.7566
 4977TIP3   OH236565   6.142   0.970   2.170 -0.3240  0.4162 -0.2428
 4977TIP3    H136566   6.104   0.927   2.094 -0.3463 -0.2605  0.1396
 4977TIP3    H236567   6.071   0.974   2.234 -0.1018  0.2786  0.0201
 4978TIP3   OH236568   3.867   4.664   0.932  0.0727 -0.0376 -0.2031
 4978TIP3    H136569   3.917   4.720   0.992 -0.2664  0.4129 -0.3302
 4978TIP3    H236570   3.912   4.674   0.848 -0.2460  0.4089 -0.3296
 4979TIP3   OH236571   2.609   4.364   2.728  0.4143  0.4886 -0.4076
 4979TIP3    H136572   2.700   4.341   2.750  0.0184 -0.5770  0.1562
 4979TIP3    H236573   2.600   4.455   2.758  0.5862 -0.1603  1.7936
 4980TIP3   OH236574   2.123   0.310   6.666 -0.7155 -0.2143 -0.6934
 4980TIP3    H136575   2.201   0.291   6.614  0.4010 -1.6758  1.3407
 4980TIP3    H236576   2.082   0.224   6.679 -1.1907  0.1678  0.4317
 4981TIP3   OH236577   3.127   0.904   0.459 -0.1311 -0.1000  0.2442
 4981TIP3    H136578   3.078   0.932   0.382  1.0446 -0.0519 -0.5074
 4981TIP3    H236579   3.142   0.985   0.508  1.0470  0.2268 -0.6251
 4982TIP3   OH236580   3.206   2.326   2.112 -0.0284  0.5706  0.6164
 4982TIP3    H136581   3.274   2.316   2.179  1.1483  0.8997 -0.4891
 4982TIP3    H236582   3.246   2.382   2.045 -0.5540 -1.0373 -1.1392
 4983TIP3   OH236583   1.614   0.985   0.861  0.2586  0.2754 -0.4354
 4983TIP3    H136584   1.652   1.011   0.945 -2.0882 -0.4031  0.9302
 4983TIP3    H236585   1.567   1.062   0.831 -0.7517 -0.1474  0.0218
 4984TIP3   OH236586   5.713   3.911   2.674  0.1865 -0.3511  0.1530
 4984TIP3    H136587   5.716   3.997   2.632  1.2953  0.1071  1.1289
 4984TIP3    H236588   5.766   3.921   2.753 -1.7559 -1.2255  1.6278
 4985TIP3   OH236589   4.320   5.721   1.809 -0.0287 -0.4561  0.1316
 4985TIP3    H136590   4.276   5.641   1.779  0.2366 -0.2842 -0.7431
 4985TIP3    H236591   4.302   5.785   1.741 -0.5472  0.3502  1.0095
 4986TIP3   OH236592   0.105   0.126   0.534 -0.5090  0.3744  0.6020
 4986TIP3    H136593   0.018   0.160   0.512 -0.1486  0.9616  0.0491
 4986TIP3    H236594   0.135   0.083   0.454  0.2774  1.3917  0.3248
 4987TIP3   OH236595   2.153   4.938   7.865 -0.1817 -0.4831  0.2163
 4987TIP3    H136596   2.084   4.919   7.929 -0.9654  0.4716 -0.3088
 4987TIP3    H236597   2.235   4.928   7.913 -0.7206  3.4891  2.4605
 4988TIP3   OH236598   4.692   1.313   0.197  0.1625 -0.3377  0.5401
 4988TIP3    H136599   4.728   1.400   0.178 -2.4342  0.3132 -1.9564
 4988TIP3    H236600   4.748   1.252   0.149 -0.3100  0.3707 -0.9429
 4989TIP3   OH236601   5.186   1.142   8.344  0.0535  0.2616  0.1543
 4989TIP3    H136602   5.199   1.047   8.347  0.2479  0.2983  0.5134
 4989TIP3    H236603   5.229   1.170   8.263 -1.2204 -0.1381 -0.6983
 4990TIP3   OH236604   3.453   1.413   1.291 -0.5369 -0.3999 -0.2050
 4990TIP3    H136605   3.478   1.338   1.344  0.3978  0.4149  0.5527
 4990TIP3    H236606   3.494   1.399   1.206  0.4557 -0.2753  0.2450
 4991TIP3   OH236607   5.271   5.054   8.290 -0.0307 -0.3602 -0.7210
 4991TIP3    H136608   5.245   5.078   8.379 -0.0993  1.1607 -1.1322
 4991TIP3    H236609   5.355   5.097   8.277 -0.4970  0.2717 -1.7446
 4992TIP3   OH236610   4.715   2.446   7.171  0.3570  0.3114  0.2032
 4992TIP3    H136611   4.776   2.372   7.165  1.0613  0.2629  4.6824
 4992TIP3    H236612   4.629   2.406   7.161  0.8010 -0.9312  1.0430
 4993TIP3   OH236613   6.339   0.550   0.368 -0.4309 -0.9247  0.0794
 4993TIP3    H136614   6.387   0.630   0.346 -0.3699 -0.8019  0.6660
 4993TIP3    H236615   6.272   0.579   0.430 -1.2305 -1.1011 -0.6736
 4994TIP3   OH236616   2.624   4.459   1.563 -0.1495 -0.2864 -0.0686
 4994TIP3    H136617   2.595   4.372   1.590 -0.9601  0.2199  0.7276
 4994TIP3    H236618   2.565   4.483   1.492 -1.6835  0.6900  1.4655
 4995TIP3   OH236619   6.849   5.822   2.213 -0.0478  0.3252 -0.1203
 4995TIP3    H136620   6.863   5.785   2.126 -0.2577 -0.3467  0.1221
 4995TIP3    H236621   6.936   5.834   2.249  0.0197 -0.7182  0.1082
 4996TIP3   OH236622   4.729   2.407   7.908 -0.5621  0.1572 -0.3047
 4996TIP3    H136623   4.725   2.495   7.946  0.8961 -0.8258  2.3454
 4996TIP3    H236624   4.795   2.413   7.840 -0.4597  1.1043 -0.1348
 4997TIP3   OH236625   0.260   3.082   0.553 -0.2159  0.7779 -0.4512
 4997TIP3    H136626   0.232   3.066   0.463 -1.1966 -0.5951  0.0618
 4997TIP3    H236627   0.347   3.042   0.558 -1.2427 -1.5415 -0.1181
 4998TIP3   OH236628   0.359   3.623   0.180  0.4427  0.2096  0.2444
 4998TIP3    H136629   0.434   3.660   0.134  1.1790 -0.6689  0.7037
 4998TIP3    H236630   0.282   3.661   0.136  1.1296  0.1061 -1.0853
 4999TIP3   OH236631   6.384   5.616   7.503 -0.0452  0.2022  0.7606
 4999TIP3    H136632   6.353   5.642   7.416  0.9243  0.9350  0.6210
 4999TIP3    H236633   6.305   5.616   7.557 -0.7061 -0.5010 -0.1583
 5000TIP3   OH236634   1.548   4.774   7.646  0.4326 -0.1106 -0.4230
 5000TIP3    H136635   1.589   4.853   7.610  0.8670  0.3441  1.0047
 5000TIP3    H236636   1.458   4.800   7.665  0.7812  0.2996  0.7587
 5001TIP3   OH236637   6.144   0.909   7.884  0.0085  0.4196  0.0743
 5001TIP3    H136638   6.122   0.907   7.791  1.9901 -0.2111 -0.4263
 5001TIP3    H236639   6.167   1.001   7.901 -0.3984  0.5446 -0.0424
 5002TIP3   OH236640   0.219   1.471   0.403 -0.4856 -0.2768 -0.2076
 5002TIP3    H136641   0.183   1.417   0.473 -1.6883 -0.1543 -0.7124
 5002TIP3    H236642   0.199   1.561   0.429  0.0250 -0.1632 -0.1901
 5003TIP3   OH236643   0.344   1.196   2.084 -0.0256 -0.4210 -0.2190
 5003TIP3    H136644   0.264   1.243   2.109  0.3221 -0.1673  0.4301
 5003TIP3    H236645   0.321   1.103   2.096  0.1966 -0.3073  1.2974
 5004TIP3   OH236646   4.734   6.852   3.189  0.1988  0.4030  0.1995
 5004TIP3    H136647   4.791   6.851   3.112 -0.6709  0.0219 -0.4555
 5004TIP3    H236648   4.669   6.784   3.172 -0.3370  0.6896  1.0245
 5005TIP3   OH236649   3.980   4.612   0.567  0.0992 -0.0149  0.4555
 5005TIP3    H136650   3.990   4.695   0.614 -0.5673 -0.1825  0.9070
 5005TIP3    H236651   4.027   4.548   0.621  0.2998 -0.0047  0.2964
 5006TIP3   OH236652   0.065   0.412   0.836  0.4756 -0.3094 -0.2912
 5006TIP3    H136653   0.101   0.428   0.748  0.0635  0.2006 -0.3733
 5006TIP3    H236654   0.078   0.318   0.851 -0.3451 -0.5975 -1.3033
 5007TIP3   OH236655   0.956   3.450   8.173  0.0811  0.0060 -0.5666
 5007TIP3    H136656   1.005   3.448   8.255 -1.7440  1.0166  0.6249
 5007TIP3    H236657   0.949   3.542   8.150 -2.3794  0.0658  0.0930
 5008TIP3   OH236658   1.414   3.943   0.400  0.5222 -0.4696  0.0631
 5008TIP3    H136659   1.390   4.036   0.403 -0.6809 -0.7886  1.0547
 5008TIP3    H236660   1.446   3.924   0.488 -0.6329 -1.3455  0.2991
 5009TIP3   OH236661   6.811   5.491   7.340 -0.2754  0.0424 -0.3148
 5009TIP3    H136662   6.849   5.515   7.424 -0.5958 -0.0907 -0.1277
 5009TIP3    H236663   6.813   5.572   7.289 -0.4216  0.2194 -0.0449
 5010TIP3   OH236664   5.214   1.230   2.694  0.2516 -0.0546 -0.7955
 5010TIP3    H136665   5.280   1.238   2.626  0.0208 -0.4063 -1.0640
 5010TIP3    H236666   5.132   1.214   2.647 -0.0983  0.7394 -0.4876
 5011TIP3   OH236667   3.226   5.874   0.488  0.2989  0.7590  0.5530
 5011TIP3    H136668   3.263   5.929   0.557  1.9768  2.0458 -1.2741
 5011TIP3    H236669   3.217   5.932   0.413 -2.3833 -0.3552 -0.1111
 5012TIP3   OH236670   0.458   4.083   0.855 -0.4151  0.2811  0.2862
 5012TIP3    H136671   0.365   4.086   0.832 -0.5310  2.5590  0.7663
 5012TIP3    H236672   0.499   4.032   0.785 -1.9428 -0.3371 -0.1971
 5013TIP3   OH236673   0.043   2.506   1.438  0.3843 -0.1701  0.3259
 5013TIP3    H136674  -0.050   2.498   1.459 -0.1267  2.1426 -0.6953
 5013TIP3    H236675   0.080   2.550   1.515  0.3641  0.0708  0.1987
 5014TIP3   OH236676   6.326   2.805   1.472 -0.2029 -0.1448 -0.2616
 5014TIP3    H136677   6.290   2.848   1.395  1.0474  0.1145 -0.7236
 5014TIP3    H236678   6.421   2.808   1.459  0.1186  1.0576  1.8687
 5015TIP3   OH236679   1.534   1.032   2.685 -0.9457  0.3748  0.0116
 5015TIP3    H136680   1.480   1.098   2.728 -1.2938 -0.6671  1.2192
 5015TIP3    H236681   1.516   0.951   2.732  0.6291 -0.2826 -0.4436
 5016TIP3   OH236682   1.351   3.870   2.396 -0.2657  0.9487 -0.2968
 5016TIP3    H136683   1.410   3.919   2.453 -1.1510 -1.5841  3.0724
 5016TIP3    H236684   1.265   3.911   2.410 -0.4989  0.2748  0.2975
 5017TIP3   OH236685   4.566   6.069   2.290 -0.1601 -0.1951 -0.6041
 5017TIP3    H136686   4.637   6.010   2.264  0.2469  0.2607 -0.5451
 5017TIP3    H236687   4.489   6.034   2.245  0.0315 -0.8863 -0.4062
 5018TIP3   OH236688   3.118   1.381   1.482 -0.4971 -0.4731 -0.0634
 5018TIP3    H136689   3.052   1.361   1.549 -0.3184 -0.0535  0.2435
 5018TIP3    H236690   3.070   1.378   1.399 -0.5687 -1.7256  0.0018
 5019TIP3   OH236691   1.491   2.938   0.855  0.2717  0.2849  0.5313
 5019TIP3    H136692   1.498   2.868   0.919  0.2825 -0.2128 -0.0061
 5019TIP3    H236693   1.534   2.904   0.777 -0.7473  0.4338 -0.1119
 5020TIP3   OH236694   1.493   6.166   8.282  0.1778  0.3573 -0.0338
 5020TIP3    H136695   1.502   6.228   8.209 -0.9357  2.1999  1.3083
 5020TIP3    H236696   1.477   6.221   8.359 -0.6636 -1.6044  1.2889
 5021TIP3   OH236697   1.059   1.998   7.297 -0.3847  0.1576 -0.3717
 5021TIP3    H136698   1.122   2.019   7.228 -0.6588  1.3512 -0.2917
 5021TIP3    H236699   1.090   1.916   7.335  1.8181  1.3042  0.4838
 5022TIP3   OH236700   2.366   0.838   1.038 -0.7626 -0.2718 -0.0078
 5022TIP3    H136701   2.370   0.933   1.030  0.5616 -0.3436 -0.4118
 5022TIP3    H236702   2.456   0.811   1.055 -1.1592 -1.4376  0.3508
 5023TIP3   OH236703   4.863   4.265   6.533  0.2968  0.3243  0.3096
 5023TIP3    H136704   4.953   4.233   6.520 -0.0924 -1.4909  1.7145
 5023TIP3    H236705   4.851   4.331   6.465  2.0094 -0.8397 -1.2060
 5024TIP3   OH236706   2.153   6.812   1.344 -0.6322  0.2784 -0.2389
 5024TIP3    H136707   2.200   6.745   1.395 -0.6454 -0.9274 -1.7292
 5024TIP3    H236708   2.201   6.893   1.361  0.2126 -0.3656  0.5629
 5025TIP3   OH236709   1.021   3.887   2.232 -0.3722  0.4175 -0.2607
 5025TIP3    H136710   1.049   3.927   2.315  2.4889  2.3620 -1.9538
 5025TIP3    H236711   1.102   3.849   2.196 -2.1893 -3.5033 -0.6870
 5026TIP3   OH236712   3.153   0.787   2.175  0.8602 -0.3538  0.2418
 5026TIP3    H136713   3.181   0.874   2.144 -0.1008 -0.4163 -0.8713
 5026TIP3    H236714   3.068   0.774   2.134  1.3627 -2.1830 -0.2854
 5027TIP3   OH236715   3.929   4.514   1.491 -0.7968  0.0639 -0.3342
 5027TIP3    H136716   3.904   4.460   1.415 -1.5386  0.9961 -0.7730
 5027TIP3    H236717   3.886   4.598   1.476  2.0000  1.5491 -0.7288
 5028TIP3   OH236718   5.935   1.318   1.728 -0.5337  0.4986  0.0189
 5028TIP3    H136719   6.021   1.336   1.690 -0.5326 -0.9342 -0.7209
 5028TIP3    H236720   5.932   1.222   1.738 -0.6645  0.7121  3.3624
 5029TIP3   OH236721   0.155   1.956   6.817  0.3782  0.0941  0.0570
 5029TIP3    H136722   0.138   2.048   6.796  1.4928  0.1009 -0.9140
 5029TIP3    H236723   0.105   1.906   6.753 -1.0994 -0.0274  1.2575
 5030TIP3   OH236724   1.874   2.156   0.527  0.0505 -0.4801  0.4241
 5030TIP3    H136725   1.786   2.129   0.500  1.4934 -1.1614 -4.5380
 5030TIP3    H236726   1.878   2.250   0.505  0.7318 -0.6136 -0.0544
 5031TIP3   OH236727   2.456   2.388   2.539 -0.2135 -0.6055  0.2811
 5031TIP3    H136728   2.529   2.344   2.581 -0.0051  0.6403  1.2870
 5031TIP3    H236729   2.480   2.392   2.447  1.1773  0.1113  0.6513
 5032TIP3   OH236730   6.518   3.928   1.512 -0.2264  0.3422 -0.0618
 5032TIP3    H136731   6.492   4.000   1.455  0.6905  1.6456  1.1103
 5032TIP3    H236732   6.594   3.890   1.469 -0.8089 -0.0623 -0.7651
 5033TIP3   OH236733   5.731   0.345   0.700 -0.4847  0.7852 -0.0231
 5033TIP3    H136734   5.652   0.311   0.743 -0.5300  2.3072  1.1924
 5033TIP3    H236735   5.802   0.292   0.737 -0.8223  0.1766 -0.2410
 5034TIP3   OH236736   3.186   2.999   7.840 -0.5513 -0.0400 -0.3556
 5034TIP3    H136737   3.145   2.947   7.910  0.4825 -1.2945 -0.6304
 5034TIP3    H236738   3.215   2.934   7.776 -1.2372  1.0663 -1.8493
 5035TIP3   OH236739   2.467   3.592   7.839  0.1511 -0.2368  0.6910
 5035TIP3    H136740   2.403   3.659   7.864  0.0969 -0.9816  2.7633
 5035TIP3    H236741   2.428   3.550   7.763  0.6219  2.6270 -1.3027
 5036TIP3   OH236742   2.726   1.907   1.837 -0.0872 -0.3981 -0.1584
 5036TIP3    H136743   2.702   1.823   1.798 -1.3238  0.7475 -2.0292
 5036TIP3    H236744   2.788   1.946   1.776 -0.9829  0.8345 -0.3342
 5037TIP3   OH236745   0.276   1.762   7.568 -0.0251 -0.0383 -0.4910
 5037TIP3    H136746   0.280   1.781   7.474  1.0281 -2.0710 -0.9284
 5037TIP3    H236747   0.362   1.724   7.588  0.2240  1.4131  1.5877
 5038TIP3   OH236748   0.568   4.623   0.047 -0.3299 -0.0223 -0.1699
 5038TIP3    H136749   0.577   4.678   0.125 -0.4689 -0.7641  0.3830
 5038TIP3    H236750   0.486   4.575   0.061 -0.9186  0.6365 -1.2865
 5039TIP3   OH236751   5.239   5.122   7.619  0.4801  0.5341 -0.2103
 5039TIP3    H136752   5.212   5.195   7.675  0.7404 -0.4998  1.3261
 5039TIP3    H236753   5.311   5.081   7.666 -0.2474 -1.2640 -0.5653
 5040TIP3   OH236754   0.100   2.034   1.851 -0.8524 -0.0940 -0.0964
 5040TIP3    H136755   0.190   2.067   1.852 -0.0403 -2.0677  2.4230
 5040TIP3    H236756   0.080   2.020   1.759  1.0500  1.3039 -0.7819
 5041TIP3   OH236757   1.144   0.481   1.193  0.0550  0.1748  0.1190
 5041TIP3    H136758   1.059   0.451   1.160 -0.4093  1.3982  0.1407
 5041TIP3    H236759   1.131   0.575   1.208  1.6558  0.5468 -0.6553
 5042TIP3   OH236760   2.885   6.597   7.765 -0.4126 -0.4518 -0.0971
 5042TIP3    H136761   2.925   6.569   7.683  0.0086  0.7144 -0.3100
 5042TIP3    H236762   2.877   6.692   7.757  0.3420 -0.2043  1.5095
 5043TIP3   OH236763   5.199   1.989   6.509 -0.0337 -0.6278  0.7763
 5043TIP3    H136764   5.259   2.050   6.465 -0.4477 -0.7989 -0.0509
 5043TIP3    H236765   5.243   1.967   6.591  0.9306 -0.5605  0.2932
 5044TIP3   OH236766   6.535   3.983   0.905  0.4826  0.2854 -0.1522
 5044TIP3    H136767   6.523   3.894   0.872 -2.8505 -0.4360  2.4177
 5044TIP3    H236768   6.459   4.031   0.873  0.9649  1.5405  0.4912
 5045TIP3   OH236769   0.287   5.606   7.721 -0.2549 -0.3284 -0.2495
 5045TIP3    H136770   0.246   5.668   7.661  0.0044  0.3722  0.2834
 5045TIP3    H236771   0.286   5.522   7.674 -0.4737  0.1114 -1.0379
 5046TIP3   OH236772   1.461   3.204   2.627 -0.1032  0.0097 -0.1172
 5046TIP3    H136773   1.471   3.188   2.534 -0.8821  0.3421 -0.2691
 5046TIP3    H236774   1.372   3.174   2.647 -0.0019  0.0906  0.4835
 5047TIP3   OH236775   0.692   4.046   7.505  0.0138 -0.2451  0.0581
 5047TIP3    H136776   0.622   4.027   7.444  0.1285  0.8403 -0.4369
 5047TIP3    H236777   0.663   4.125   7.551  1.3684  0.8997 -0.9461
 5048TIP3   OH236778   0.706   2.618   8.722 -0.0023 -0.1344 -0.6309
 5048TIP3    H136779   0.716   2.602   8.816  0.9682 -0.8299 -0.8389
 5048TIP3    H236780   0.666   2.538   8.689  0.1368 -0.0968 -0.8892
 5049TIP3   OH236781   5.220   5.151   7.349  0.1632  0.1033  0.0262
 5049TIP3    H136782   5.236   5.126   7.440 -0.6072  0.2009  0.1990
 5049TIP3    H236783   5.270   5.232   7.337 -1.7741  1.5861  1.1914
 5050TIP3   OH236784   4.677   2.138   7.655 -0.1154  0.7229 -0.1560
 5050TIP3    H136785   4.708   2.215   7.606  1.6107  0.2512  0.1422
 5050TIP3    H236786   4.724   2.142   7.738 -0.5067 -0.3109  0.1254
 5051TIP3   OH236787   0.671   1.297   1.847  0.4770 -0.6973  0.5936
 5051TIP3    H136788   0.689   1.296   1.753  0.6188 -0.0180  0.6064
 5051TIP3    H236789   0.654   1.206   1.870  3.2173 -1.3349  0.4404
 5052TIP3   OH236790   1.108   4.389   7.116  0.0710  0.3633 -0.0828
 5052TIP3    H136791   1.019   4.376   7.148 -0.1579  1.8973 -0.0224
 5052TIP3    H236792   1.098   4.449   7.042  1.0054  0.1280 -0.4098
 5053TIP3   OH236793   2.644   1.774   0.126 -0.1201  0.0726 -0.0594
 5053TIP3    H136794   2.612   1.763   0.215  1.4037 -0.8527  0.4096
 5053TIP3    H236795   2.567   1.763   0.071 -0.7599 -1.1789  1.0424
 5054TIP3   OH236796   2.773   3.889   7.391  0.7169 -0.0411  1.1440
 5054TIP3    H136797   2.708   3.949   7.353  0.1048 -0.5285  1.4143
 5054TIP3    H236798   2.849   3.897   7.333  1.0654  1.8336  1.7874
 5055TIP3   OH236799   2.149   1.215   7.553  0.1169 -0.2320 -0.1667
 5055TIP3    H136800   2.085   1.286   7.553 -0.0157 -0.3431  0.8749
 5055TIP3    H236801   2.234   1.259   7.552  0.0353 -0.0521  0.5422
 5056TIP3   OH236802   2.177   4.781   1.060 -0.1805 -0.0831  0.2093
 5056TIP3    H136803   2.210   4.708   1.112 -1.1568  0.4707  1.6687
 5056TIP3    H236804   2.130   4.836   1.123 -3.7460 -0.7021 -1.6434
 5057TIP3   OH236805   1.041   4.126   1.101  0.0771 -0.3994 -0.4548
 5057TIP3    H136806   1.102   4.051   1.102  1.3081  0.3517 -4.0786
 5057TIP3    H236807   1.023   4.141   1.009 -3.0829  1.5603  0.3308
 5058TIP3   OH236808   1.663   5.051   7.589 -0.0137  0.3249 -0.1373
 5058TIP3    H136809   1.751   5.074   7.557 -0.6927  0.2920 -2.1904
 5058TIP3    H236810   1.619   5.015   7.512 -1.9054  0.5515  0.7902
 5059TIP3   OH236811   6.655   0.922   6.473  0.1153  0.1512  0.3751
 5059TIP3    H136812   6.739   0.915   6.517 -0.5230 -1.0835  1.4504
 5059TIP3    H236813   6.593   0.943   6.542 -0.6986 -0.4677 -0.1552
 5060TIP3   OH236814   0.595   1.963   0.952  0.0993  0.1949 -0.0742
 5060TIP3    H136815   0.514   1.995   0.993 -0.1648 -2.8360  2.1277
 5060TIP3    H236816   0.572   1.952   0.860 -1.2780  1.4526  0.0724
 5061TIP3   OH236817   5.254   6.837   1.678  0.1930 -0.1883 -0.3393
 5061TIP3    H136818   5.275   6.807   1.767 -2.8569 -2.3539 -0.2175
 5061TIP3    H236819   5.339   6.838   1.633  1.7363  0.2357  2.3143
 5062TIP3   OH236820   4.292   3.642   1.913  0.2787  0.0861  0.4959
 5062TIP3    H136821   4.233   3.711   1.947 -0.3121 -0.3361  0.3404
 5062TIP3    H236822   4.379   3.682   1.917 -0.1547  1.2037 -0.4865
 5063TIP3   OH236823   6.539   4.196   0.392  0.0120  0.2783 -0.1792
 5063TIP3    H136824   6.615   4.219   0.446 -0.6866 -0.2585  1.0931
 5063TIP3    H236825   6.497   4.125   0.441  0.2304 -1.3673 -2.2427
 5064TIP3   OH236826   6.018   6.441   8.125  0.6554  0.5607  0.6343
 5064TIP3    H136827   5.985   6.500   8.192  1.6836 -0.7618  2.4207
 5064TIP3    H236828   5.968   6.360   8.138  0.7532  0.3352 -0.3272
 5065TIP3   OH236829   0.830   1.215   0.907 -0.1718  0.7427 -0.1392
 5065TIP3    H136830   0.907   1.213   0.851 -1.3565 -0.6516 -1.8219
 5065TIP3    H236831   0.774   1.282   0.868 -1.9247 -1.6590 -2.0690
 5066TIP3   OH236832   0.999   6.137   0.853  0.3709  0.1403  0.4343
 5066TIP3    H136833   1.008   6.050   0.893  0.7357 -0.4176 -0.8189
 5066TIP3    H236834   1.053   6.133   0.774  0.5791  1.5915  0.4760
 5067TIP3   OH236835   0.383   0.604   8.609  0.3881  0.1867  0.1452
 5067TIP3    H136836   0.317   0.602   8.540  0.1932  0.0941  0.3338
 5067TIP3    H236837   0.456   0.654   8.571  0.5313 -0.3789 -0.3458
 5068TIP3   OH236838   0.743   4.662   1.722  0.2783 -0.3729 -0.2971
 5068TIP3    H136839   0.738   4.623   1.809  0.1507 -0.2070 -0.2303
 5068TIP3    H236840   0.837   4.668   1.704  0.3168 -2.8930 -1.2954
 5069TIP3   OH236841   3.700   5.449   8.245 -0.0485 -0.8901 -0.2506
 5069TIP3    H136842   3.680   5.370   8.295 -0.1502  0.0014  1.1872
 5069TIP3    H236843   3.791   5.469   8.267  0.0971 -0.7990 -0.9022
 5070TIP3   OH236844   4.711   2.350   0.881  0.4035 -0.1343  0.1773
 5070TIP3    H136845   4.657   2.283   0.839 -0.8710  0.6310  0.5206
 5070TIP3    H236846   4.758   2.303   0.950 -0.2029 -0.7387  0.1925
 5071TIP3   OH236847   6.349   5.109   7.454  0.0210  0.4400 -0.4020
 5071TIP3    H136848   6.377   5.019   7.472  1.7575  1.3663  1.9585
 5071TIP3    H236849   6.424   5.150   7.411 -0.0048  1.2707  0.3145
 5072TIP3   OH236850   2.938   6.104   1.496  0.6546  0.2175 -0.2094
 5072TIP3    H136851   2.868   6.041   1.476  1.9457 -1.3838  0.0875
 5072TIP3    H236852   2.918   6.179   1.440 -1.4132 -0.0769  0.0341
 5073TIP3   OH236853   1.614   5.711   0.439  0.0648  0.0745  0.2749
 5073TIP3    H136854   1.644   5.802   0.451 -2.7272  1.0483  0.5221
 5073TIP3    H236855   1.519   5.717   0.442 -0.2667 -2.6372 -1.6637
 5074TIP3   OH236856   5.118   0.188   0.411  0.8815 -0.0574 -0.7045
 5074TIP3    H136857   5.062   0.176   0.334  1.1256  1.5357 -1.1656
 5074TIP3    H236858   5.206   0.168   0.379  0.8057 -0.9409 -0.4032
 5075TIP3   OH236859   0.658   5.310   8.663 -0.6984 -0.6074 -0.0188
 5075TIP3    H136860   0.753   5.324   8.663 -0.8066  0.1426 -0.0839
 5075TIP3    H236861   0.621   5.395   8.685 -1.3504 -0.9825  0.3570
 5076TIP3   OH236862   1.475   5.640   1.978 -0.6016  0.6041 -0.1783
 5076TIP3    H136863   1.537   5.592   1.923  0.2014 -0.0169  1.2235
 5076TIP3    H236864   1.492   5.733   1.958  1.5375  0.5035  0.9132
 5077TIP3   OH236865   0.053   4.132   7.840 -0.5872  0.2980  0.0585
 5077TIP3    H136866  -0.008   4.115   7.769  1.0764  0.4652 -1.4750
 5077TIP3    H236867   0.054   4.050   7.890  0.1627 -0.8073 -1.6625
 5078TIP3   OH236868   0.869   0.655   7.732 -0.0464  0.0897  0.2277
 5078TIP3    H136869   0.789   0.665   7.784 -1.0847 -0.9882 -1.0907
 5078TIP3    H236870   0.875   0.562   7.715  0.2183  0.4090 -1.6229
 5079TIP3   OH236871   6.040   6.228   0.479 -0.3646 -0.2597  0.1815
 5079TIP3    H136872   5.981   6.244   0.553 -0.1909  0.3374  0.1961
 5079TIP3    H236873   6.111   6.175   0.515 -0.6120 -0.5178  0.2915
 5080TIP3   OH236874   0.998   0.446   7.969 -0.2187  0.5243  0.4378
 5080TIP3    H136875   1.033   0.462   7.881 -0.7720  0.5928  0.2226
 5080TIP3    H236876   1.075   0.429   8.023  0.2959  2.2713  0.3317
 5081TIP3   OH236877   3.314   5.890   1.170  0.2866 -0.3283 -0.4692
 5081TIP3    H136878   3.365   5.958   1.127  0.9649 -0.1622  0.5519
 5081TIP3    H236879   3.241   5.936   1.210 -0.3907 -0.4940 -1.4863
 5082TIP3   OH236880   2.846   0.805   2.417 -0.4397  0.4953  0.9482
 5082TIP3    H136881   2.930   0.847   2.398 -0.4396 -0.1074 -0.5591
 5082TIP3    H236882   2.781   0.868   2.388 -0.4570  0.0862  0.0567
 5083TIP3   OH236883   1.764   1.589   8.474 -0.1008 -0.0232  0.1233
 5083TIP3    H136884   1.787   1.543   8.393 -0.2045 -1.7367  1.0264
 5083TIP3    H236885   1.715   1.666   8.445  1.3873  0.3740 -1.5208
 5084TIP3   OH236886   6.500   0.780   1.933 -0.1546 -0.0345  0.6344
 5084TIP3    H136887   6.417   0.793   1.888 -0.5415 -1.4346  0.8945
 5084TIP3    H236888   6.554   0.732   1.870  0.0494 -0.1296  0.8793
 5085TIP3   OH236889   4.455   1.694   0.540 -0.3086 -0.1750  0.6118
 5085TIP3    H136890   4.403   1.618   0.512  0.5323 -0.4092 -0.3587
 5085TIP3    H236891   4.516   1.709   0.468  0.7980  0.2666  1.6071
 5086TIP3   OH236892   4.900   4.120   0.504  0.6437 -0.3022 -0.5986
 5086TIP3    H136893   4.934   4.041   0.546 -0.0217  0.4063  1.4078
 5086TIP3    H236894   4.951   4.128   0.423  3.7515 -0.5021  1.1648
 5087TIP3   OH236895   1.176   1.489   0.834 -0.1900 -0.4412 -0.9936
 5087TIP3    H136896   1.145   1.451   0.753  1.1291 -2.0423 -0.7909
 5087TIP3    H236897   1.098   1.531   0.872 -1.5640 -2.3026 -1.5977
 5088TIP3   OH236898   2.009   6.770   0.053 -0.2492  0.2649 -0.5139
 5088TIP3    H136899   1.924   6.735   0.026 -0.9260  1.1191  0.4234
 5088TIP3    H236900   2.025   6.733   0.139  0.5459 -0.2075 -0.8471
 5089TIP3   OH236901   4.171   4.496   1.749 -0.1077 -0.0221 -0.2264
 5089TIP3    H136902   4.143   4.586   1.734 -0.2754 -0.0865 -0.3093
 5089TIP3    H236903   4.167   4.484   1.844 -2.7164 -0.7634 -0.3396
 5090TIP3   OH236904   2.253   6.653   1.591 -0.1447  0.0824 -0.0804
 5090TIP3    H136905   2.196   6.715   1.637  0.2496 -0.1152  0.6992
 5090TIP3    H236906   2.300   6.608   1.661  0.1558 -0.5390 -0.6729
 5091TIP3   OH236907   4.597   4.696   0.833  0.2838  0.2318  0.0622
 5091TIP3    H136908   4.511   4.721   0.865  0.2277 -2.6810  2.6287
 5091TIP3    H236909   4.619   4.762   0.767 -2.6594  2.6432  1.3080
 5092TIP3   OH236910   4.088   4.141   6.564  0.3281 -0.2649 -0.1234
 5092TIP3    H136911   4.083   4.149   6.660  1.6094  0.7144 -0.1017
 5092TIP3    H236912   4.182   4.151   6.545 -0.0400  0.6960 -1.5580
 5093TIP3   OH236913   4.862   2.556   0.761 -0.1590 -0.2158  0.2264
 5093TIP3    H136914   4.794   2.496   0.791 -2.8197  1.9023 -1.1770
 5093TIP3    H236915   4.830   2.643   0.784  2.8333  0.8670  0.8165
 5094TIP3   OH236916   3.841   5.834   8.069 -0.6259 -0.2693 -0.3192
 5094TIP3    H136917   3.761   5.817   8.019 -0.2349  0.8331 -1.3946
 5094TIP3    H236918   3.879   5.748   8.085 -1.7989 -0.7733 -0.1679
 5095TIP3   OH236919   1.740   4.848   0.655 -0.5707 -0.4763  0.3385
 5095TIP3    H136920   1.712   4.801   0.734  0.4226 -0.1523  0.9016
 5095TIP3    H236921   1.819   4.802   0.626 -0.6252 -0.2629 -0.1619
 5096TIP3   OH236922   4.517   5.891   8.391  0.0716  0.0273  0.1408
 5096TIP3    H136923   4.588   5.887   8.326  0.5921 -0.7395  0.7336
 5096TIP3    H236924   4.441   5.919   8.341  1.1310  2.5435 -0.2091
 5097TIP3   OH236925   1.481   6.051   0.874 -0.6171  0.5559 -0.0402
 5097TIP3    H136926   1.440   6.000   0.803 -0.6033  0.2690  0.1534
 5097TIP3    H236927   1.407   6.090   0.921 -0.6694  0.1816  0.2019
 5098TIP3   OH236928   2.674   0.961   0.766  0.3895  0.5626  0.1875
 5098TIP3    H136929   2.676   1.038   0.709 -1.0228  2.0641  2.0127
 5098TIP3    H236930   2.592   0.916   0.744  0.4242  0.4838  0.2169
 5099TIP3   OH236931   0.365   5.644   0.752 -0.4200 -0.5095 -0.3307
 5099TIP3    H136932   0.356   5.672   0.843  0.0137 -1.4948  0.0334
 5099TIP3    H236933   0.449   5.599   0.749 -0.8154 -1.2289 -1.0187
 5100TIP3   OH236934   3.456   1.470   2.209  0.4872  0.2910  0.0654
 5100TIP3    H136935   3.545   1.501   2.226  0.8584 -1.1209  0.8990
 5100TIP3    H236936   3.467   1.384   2.169 -0.5141  0.6625 -1.0967
 5101TIP3   OH236937   2.950   0.742   7.771 -0.7271 -0.5727  0.3998
 5101TIP3    H136938   2.906   0.672   7.723 -0.4763 -0.9990  0.7910
 5101TIP3    H236939   3.007   0.784   7.707 -0.3995 -1.1341  0.3246
 5102TIP3   OH236940   1.442   4.122   1.214 -0.0087  0.5711 -0.6016
 5102TIP3    H136941   1.419   4.203   1.260  0.7434  0.7170 -0.4764
 5102TIP3    H236942   1.498   4.075   1.275  0.9507  0.7398 -1.3367
 5103TIP3   OH236943   5.788   2.049   7.566 -0.3233 -0.1559  0.1361
 5103TIP3    H136944   5.816   2.140   7.557  0.1154 -0.5156 -3.6868
 5103TIP3    H236945   5.694   2.051   7.550 -0.0316 -0.5097 -1.7985
 5104TIP3   OH236946   5.487   0.197   8.020 -0.2272  0.5301 -0.3826
 5104TIP3    H136947   5.396   0.171   8.007 -0.6867  1.7552  0.2508
 5104TIP3    H236948   5.500   0.269   7.959  0.5060 -0.0062 -0.8774
 5105TIP3   OH236949   6.236   0.960   1.580  0.2985  0.2510  0.3350
 5105TIP3    H136950   6.278   0.924   1.502 -2.8375  0.5132 -1.6333
 5105TIP3    H236951   6.264   1.052   1.582 -0.3845  0.5196 -1.1288
 5106TIP3   OH236952   0.842   1.898   0.570  0.3178  0.4120  0.5313
 5106TIP3    H136953   0.863   1.963   0.503  1.0053 -1.6056 -1.3631
 5106TIP3    H236954   0.924   1.887   0.619  1.1220 -0.9328 -0.9800
 5107TIP3   OH236955   0.306   0.377   7.327 -0.0217 -0.7150  0.7749
 5107TIP3    H136956   0.350   0.405   7.246 -0.3226 -1.0143  0.5035
 5107TIP3    H236957   0.362   0.307   7.361  0.1259 -0.5625  0.8450
 5108TIP3   OH236958   2.955   0.207   0.459 -0.2480  0.5510 -0.3772
 5108TIP3    H136959   3.044   0.172   0.466 -0.1710  0.9262  0.7462
 5108TIP3    H236960   2.899   0.131   0.474 -0.0819  0.6945  1.2034
 5109TIP3   OH236961   5.724   0.996   8.539 -0.4293  0.4055  0.1630
 5109TIP3    H136962   5.818   1.013   8.527 -0.5264 -0.3704 -2.0527
 5109TIP3    H236963   5.682   1.033   8.462 -1.9768  0.7211  1.1139
 5110TIP3   OH236964   1.768   4.393   8.119 -0.4879 -0.3348 -0.1803
 5110TIP3    H136965   1.782   4.336   8.195 -1.4588 -0.4940 -0.1116
 5110TIP3    H236966   1.674   4.408   8.117 -0.1913  1.8181  0.1779
 5111TIP3   OH236967   5.884   6.631   1.424 -0.0435  0.2996 -0.0803
 5111TIP3    H136968   5.866   6.543   1.454  0.8711 -0.4506 -1.5955
 5111TIP3    H236969   5.821   6.646   1.353  0.2595  0.5885 -0.2946
 5112TIP3   OH236970   4.005   1.587   7.264 -0.5004  0.1990 -0.1245
 5112TIP3    H136971   3.961   1.642   7.198  2.2325 -0.1189 -2.4081
 5112TIP3    H236972   4.003   1.499   7.227  0.0315 -0.2150  0.8090
 5113TIP3   OH236973   2.114   2.566   1.525 -0.5190  0.4206 -0.6157
 5113TIP3    H136974   2.020   2.574   1.545 -0.3953 -0.7556  0.5645
 5113TIP3    H236975   2.134   2.645   1.474 -2.3539  0.2057 -1.7647
 5114TIP3   OH236976   1.080   5.401   0.123 -0.5262 -0.3191  0.3784
 5114TIP3    H136977   1.022   5.477   0.129  0.0189  0.0445  1.1656
 5114TIP3    H236978   1.025   5.332   0.086 -0.5795  0.9098 -2.0138
 5115TIP3   OH236979   1.089   2.878   7.842  0.1310  0.3439 -0.4080
 5115TIP3    H136980   1.061   2.788   7.829  1.3114  0.0638 -1.1522
 5115TIP3    H236981   1.087   2.890   7.937  1.0714 -0.8404 -0.2170
 5116TIP3   OH236982   0.781   5.390   0.882 -0.2460  0.0114 -0.8187
 5116TIP3    H136983   0.850   5.454   0.861 -0.7305  0.0938 -2.2748
 5116TIP3    H236984   0.826   5.321   0.931  0.5801  0.7523 -0.5068
 5117TIP3   OH236985   2.875   3.361   1.229 -0.1496  0.1707 -0.5765
 5117TIP3    H136986   2.818   3.300   1.184  0.8966  0.6400 -2.6323
 5117TIP3    H236987   2.857   3.446   1.189 -0.6451  1.0359  1.3404
 5118TIP3   OH236988   2.931   5.460   6.723  0.3249 -0.0581  0.2189
 5118TIP3    H136989   2.842   5.429   6.737  0.1551  0.9031  1.5263
 5118TIP3    H236990   2.920   5.547   6.684  0.7384 -0.6023 -1.1620
 5119TIP3   OH236991   5.541   4.775   8.434 -0.1436  0.0282  0.3532
 5119TIP3    H136992   5.572   4.754   8.522 -0.2100 -1.4934  0.0375
 5119TIP3    H236993   5.446   4.784   8.443 -0.3521 -1.6706  0.1940
 5120TIP3   OH236994   5.153   2.647   0.209 -0.6334 -0.1073 -0.3971
 5120TIP3    H136995   5.149   2.611   0.121 -0.0446 -1.5898  0.1440
 5120TIP3    H236996   5.133   2.572   0.266  0.8552  0.3560  0.7907
 5121TIP3   OH236997   6.124   1.421   7.255  0.4401 -0.0472  0.1438
 5121TIP3    H136998   6.110   1.481   7.329  0.5213 -0.6698  0.6707
 5121TIP3    H236999   6.063   1.349   7.270  0.6019 -0.2803 -0.2937
 5122TIP3   OH237000   3.812   3.134   7.456 -0.1781 -0.7230 -0.5331
 5122TIP3    H137001   3.900   3.146   7.420  0.3871 -1.6478  0.4995
 5122TIP3    H237002   3.774   3.064   7.403 -0.5603  0.0966 -1.3915
 5123TIP3   OH237003   6.631   3.348   1.405 -0.5447  0.5024 -0.5253
 5123TIP3    H137004   6.550   3.329   1.451 -1.1154  2.8953 -0.4285
 5123TIP3    H237005   6.606   3.357   1.313 -0.6412  2.2263 -0.3722
 5124TIP3   OH237006   3.581   4.181   0.479  0.3833  0.1737  0.2858
 5124TIP3    H137007   3.496   4.201   0.517 -0.0542 -1.1590  0.0656
 5124TIP3    H237008   3.623   4.266   0.468 -0.4198  0.7569  1.5343
 5125TIP3   OH237009   3.092   0.507   7.215  0.3480 -0.1074  0.4049
 5125TIP3    H137010   3.093   0.590   7.166 -0.8995 -1.6755 -2.5758
 5125TIP3    H237011   3.183   0.480   7.216  0.6846  0.9763  0.8409
 5126TIP3   OH237012   3.219   5.398   1.039  0.3566  0.9068 -0.5183
 5126TIP3    H137013   3.315   5.401   1.038  0.3726  0.7096  0.1319
 5126TIP3    H237014   3.195   5.425   1.127 -0.1252 -0.6556 -0.1392
 5127TIP3   OH237015   0.251   2.615   7.597  0.0935 -0.4063  0.0843
 5127TIP3    H137016   0.243   2.540   7.538 -1.1986 -2.0483  2.1633
 5127TIP3    H237017   0.321   2.590   7.658  0.0168  0.3305  0.4855
 5128TIP3   OH237018   1.744   1.029   7.377 -0.2162 -0.2165 -0.1890
 5128TIP3    H137019   1.734   0.940   7.411  0.6342  0.0050  0.6937
 5128TIP3    H237020   1.799   1.020   7.300  1.9717 -0.2272  1.2925
 5129TIP3   OH237021   6.140   1.316   0.017  0.3322  0.0191  0.0463
 5129TIP3    H137022   6.047   1.310  -0.007  0.3526  1.6454 -0.6085
 5129TIP3    H237023   6.186   1.268  -0.052  0.1415  1.7027 -1.3318
 5130TIP3   OH237024   4.966   6.821   1.716 -0.1928  0.2441 -0.5181
 5130TIP3    H137025   4.992   6.856   1.801  1.5577 -1.7291 -0.1624
 5130TIP3    H237026   5.043   6.835   1.660 -0.1698 -1.2174 -0.8895
 5131TIP3   OH237027   1.905   6.718   7.980 -0.1538 -0.0408  0.4310
 5131TIP3    H137028   1.875   6.809   7.979  0.9179  0.3414 -1.1017
 5131TIP3    H237029   1.946   6.707   8.065  0.1345  1.0787  0.4505
 5132TIP3   OH237030   4.754   2.154   2.114  0.3791  0.3576 -0.0258
 5132TIP3    H137031   4.681   2.204   2.151  1.0758  1.4016 -0.0436
 5132TIP3    H237032   4.831   2.185   2.161  0.9037 -0.3443 -0.3938
 5133TIP3   OH237033   6.717   6.793   0.598 -0.2949  0.7955  1.1134
 5133TIP3    H137034   6.673   6.864   0.552 -0.4226 -0.0578 -0.1604
 5133TIP3    H237035   6.789   6.768   0.541  0.5535  0.7626  2.1680
 5134TIP3   OH237036   5.409   3.851   1.074 -0.0487 -0.2577  0.3113
 5134TIP3    H137037   5.486   3.797   1.059  1.8560  2.0708  0.9393
 5134TIP3    H237038   5.404   3.860   1.169 -0.0849  0.8923  0.2222
 5135TIP3   OH237039   2.817   0.007   7.801 -0.0302  0.4788  0.8867
 5135TIP3    H137040   2.772   0.072   7.748  0.6762  0.6111  0.4339
 5135TIP3    H237041   2.891   0.054   7.840  0.0629  0.1273  1.1463
 5136TIP3   OH237042   3.165   2.816   7.641  0.2880 -0.6691 -0.6716
 5136TIP3    H137043   3.169   2.835   7.547  0.4864 -0.4209 -0.6127
 5136TIP3    H237044   3.082   2.768   7.652 -0.6074  0.8091 -0.7006
 5137TIP3   OH237045   4.671   4.303   0.473 -0.0207 -0.4729  0.3784
 5137TIP3    H137046   4.665   4.341   0.385 -0.1570  0.0058  0.5915
 5137TIP3    H237047   4.753   4.254   0.471  0.9689  1.1012  0.5689
 5138TIP3   OH237048   5.534   6.325   6.641 -0.7888 -0.5081  0.2899
 5138TIP3    H137049   5.513   6.236   6.668  0.0193 -0.4940  1.0020
 5138TIP3    H237050   5.602   6.354   6.703 -1.1003  0.6289  0.1268
 5139TIP3   OH237051   6.294   1.197   0.699  0.1205  0.1667 -0.4522
 5139TIP3    H137052   6.306   1.285   0.733 -0.0997 -0.3150  0.9340
 5139TIP3    H237053   6.383   1.167   0.679  0.2367  0.5257 -0.4909
 5140TIP3   OH237054   3.201   0.067   0.180  0.1363 -0.6214 -0.4451
 5140TIP3    H137055   3.220   0.146   0.129  0.4309 -1.6078 -1.9044
 5140TIP3    H237056   3.179   0.100   0.267  2.7060  0.9562 -0.2891
 5141TIP3   OH237057   4.523   1.896   0.736 -0.3321  0.1073 -0.4768
 5141TIP3    H137058   4.617   1.879   0.724 -0.3859 -0.0257 -0.7074
 5141TIP3    H237059   4.480   1.835   0.676 -0.5464  0.6527 -0.8772
 5142TIP3   OH237060   1.275   6.747   1.825  0.5090  0.0900 -0.1750
 5142TIP3    H137061   1.235   6.714   1.906  0.2326  1.3015  0.2186
 5142TIP3    H237062   1.367   6.760   1.847  0.3988  0.5892  0.0226
 5143TIP3   OH237063   6.848   2.512   0.207 -0.0124 -0.3559 -0.3926
 5143TIP3    H137064   6.891   2.597   0.222  0.8943 -0.3307 -2.6781
 5143TIP3    H237065   6.918   2.448   0.223 -0.4627 -0.6306  0.5013
 5144TIP3   OH237066   5.070   5.368   2.555 -0.2754 -0.4859 -0.5692
 5144TIP3    H137067   5.137   5.359   2.623 -1.3348 -2.9674  0.2214
 5144TIP3    H237068   5.067   5.463   2.538  1.9033 -0.0787  0.8834
 5145TIP3   OH237069   0.393   2.854   7.811 -0.4778  0.4315  0.4071
 5145TIP3    H137070   0.453   2.786   7.841  0.7932  1.6713  0.7940
 5145TIP3    H237071   0.388   2.843   7.717 -0.0537 -0.0178  0.4359
 5146TIP3   OH237072   1.725   3.787   0.741  0.0540  0.3504 -0.1273
 5146TIP3    H137073   1.669   3.814   0.814 -0.3722 -1.9487  0.4666
 5146TIP3    H237074   1.810   3.769   0.781  0.6356  1.6730 -0.6810
 5147TIP3   OH237075   4.246   3.160   8.597 -0.5631  0.3049  0.1526
 5147TIP3    H137076   4.181   3.207   8.649  0.3699  1.2728  0.4834
 5147TIP3    H237077   4.314   3.225   8.580  1.3615 -1.2005  1.6320
 5148TIP3   OH237078   0.742   1.285   6.783  0.0689  0.5431  0.2172
 5148TIP3    H137079   0.743   1.214   6.718  1.3834  0.6544  0.0954
 5148TIP3    H237080   0.650   1.310   6.788 -0.4791 -1.3130  0.4258
 5149TIP3   OH237081   0.375   3.287   7.928  0.5035 -0.0461  0.1068
 5149TIP3    H137082   0.414   3.335   7.854  1.6901  0.1922  0.8578
 5149TIP3    H237083   0.378   3.195   7.900  1.1955  0.0156 -0.0385
 5150TIP3   OH237084   3.399   1.443   0.573 -0.0950 -0.3375 -0.1554
 5150TIP3    H137085   3.342   1.499   0.521  0.2452 -0.2689 -0.4567
 5150TIP3    H237086   3.356   1.357   0.572 -0.7949 -0.0138  0.5874
 5151TIP3   OH237087   2.223   4.888   8.345 -0.6016 -0.2259  0.3161
 5151TIP3    H137088   2.271   4.809   8.369 -0.1841 -0.5810 -1.5708
 5151TIP3    H237089   2.173   4.863   8.267 -0.9417  1.2014  0.0514
 5152TIP3   OH237090   1.542   1.232   1.523  0.0995  0.5583  0.4905
 5152TIP3    H137091   1.628   1.192   1.538 -0.4149 -1.3990 -1.3433
 5152TIP3    H237092   1.546   1.316   1.570  2.8905  0.4034  0.6937
 5153TIP3   OH237093   2.075   4.047   1.171  0.7848 -0.1401  0.0701
 5153TIP3    H137094   2.061   4.141   1.187 -1.8533 -0.4813  0.1994
 5153TIP3    H237095   2.102   4.042   1.080  1.4787  0.7874  0.2131
 5154TIP3   OH237096   2.457   4.720   2.206 -0.4214 -0.1176  0.4531
 5154TIP3    H137097   2.405   4.794   2.237 -0.9222  0.5188 -1.7045
 5154TIP3    H237098   2.545   4.735   2.242 -1.0512  0.2615  1.9081
 5155TIP3   OH237099   5.964   1.095   6.982  0.2339 -0.0567 -0.6599
 5155TIP3    H137100   5.917   1.156   6.925  0.7476  0.5558 -0.4464
 5155TIP3    H237101   5.997   1.027   6.923  1.8011  1.2135 -1.3129
 5156TIP3   OH237102   5.584   6.405   0.420 -0.2110 -0.5243 -0.3971
 5156TIP3    H137103   5.607   6.351   0.344  0.8789  0.8619 -1.0869
 5156TIP3    H237104   5.666   6.413   0.470 -0.7539 -0.8562  0.5818
 5157TIP3   OH237105   2.438   4.956   1.001 -0.1245 -0.0322 -0.8811
 5157TIP3    H137106   2.416   4.912   0.918 -0.0227  0.1666 -1.0125
 5157TIP3    H237107   2.377   5.029   1.006 -0.7782 -0.5974 -0.3159
 5158TIP3   OH237108   3.276   2.364   1.380  0.1550  0.0818 -0.2112
 5158TIP3    H137109   3.231   2.429   1.433  0.7733  0.9537 -0.7099
 5158TIP3    H237110   3.207   2.323   1.328 -0.7049 -1.9247  2.3284
 5159TIP3   OH237111   0.916   5.185   2.087 -0.4531 -0.0079 -0.2365
 5159TIP3    H137112   0.927   5.230   2.003  1.2955 -0.3810 -0.2384
 5159TIP3    H237113   0.964   5.239   2.150  1.2173 -1.5172 -0.1396
 5160TIP3   OH237114   4.392   5.871   7.954 -0.4442  0.2850  0.0429
 5160TIP3    H137115   4.381   5.944   7.894  0.2072  0.1589 -0.2351
 5160TIP3    H237116   4.382   5.909   8.041  1.0140  0.9195 -0.0506
 5161TIP3   OH237117   1.617   0.871   7.825  0.4871  0.1260  0.5008
 5161TIP3    H137118   1.588   0.788   7.862  1.7704 -0.3364  0.4881
 5161TIP3    H237119   1.589   0.868   7.734 -1.2413  0.5856  0.9682
 5162TIP3   OH237120   0.365   0.152   1.115 -0.1477 -0.2277 -0.0424
 5162TIP3    H137121   0.305   0.091   1.074  1.1905 -1.7920  0.2271
 5162TIP3    H237122   0.449   0.137   1.071  1.0933 -1.2415  2.4853
 5163TIP3   OH237123   5.071   2.043   0.679 -0.0928 -0.1562  0.1091
 5163TIP3    H137124   5.048   2.026   0.588 -2.0784 -1.9440  0.8674
 5163TIP3    H237125   5.039   1.967   0.727  1.4342  0.4458  2.2642
 5164TIP3   OH237126   3.925   6.042   6.498 -0.3383 -0.5396 -0.0633
 5164TIP3    H137127   3.873   5.984   6.443  0.1952 -1.1302  0.0385
 5164TIP3    H237128   3.995   6.073   6.440  0.2562 -1.2066  0.2786
 5165TIP3   OH237129   5.096   5.619   7.304  0.1587 -0.0422  0.5894
 5165TIP3    H137130   5.047   5.558   7.249  1.8581  0.9269 -2.2369
 5165TIP3    H237131   5.041   5.698   7.306 -0.1981 -0.2920  0.8446
 5166TIP3   OH237132   0.431   6.787   0.264  0.1040  0.1625 -0.2740
 5166TIP3    H137133   0.510   6.758   0.310  1.5344  1.1656 -1.9886
 5166TIP3    H237134   0.455   6.787   0.172 -1.8225  0.7821 -0.8234
 5167TIP3   OH237135   2.270   6.141   6.320  0.3259  0.9467 -0.5127
 5167TIP3    H137136   2.260   6.200   6.394  0.2703 -3.3451  3.3740
 5167TIP3    H237137   2.202   6.074   6.333  3.2886 -2.6099 -1.5808
 5168TIP3   OH237138   4.182   1.527   0.067  0.2160 -0.4094 -0.0166
 5168TIP3    H137139   4.116   1.518  -0.001 -0.7911 -1.5611  1.0741
 5168TIP3    H237140   4.154   1.468   0.137  1.7955 -0.0831  0.9569
 5169TIP3   OH237141   5.617   0.428   7.929 -0.1302  0.0151 -0.0430
 5169TIP3    H137142   5.694   0.463   7.885 -0.3505  0.9516  0.3035
 5169TIP3    H237143   5.592   0.496   7.991 -0.6410 -0.7080  0.5584
 5170TIP3   OH237144   3.501   2.785   7.354  0.3258  0.7202 -0.3027
 5170TIP3    H137145   3.577   2.809   7.300  0.7460  0.0401 -0.0403
 5170TIP3    H237146   3.496   2.853   7.421  0.0309  1.3658 -0.9715
 5171TIP3   OH237147   0.490   5.167   1.277  0.6202 -0.0992  0.0743
 5171TIP3    H137148   0.440   5.213   1.344  0.3019  0.0646 -0.2717
 5171TIP3    H237149   0.550   5.110   1.326 -0.0058 -0.4085  0.4944
 5172TIP3   OH237150   4.813   5.830   7.530  0.0860 -0.2151 -0.1018
 5172TIP3    H137151   4.808   5.900   7.465 -2.8949 -0.5437 -0.3507
 5172TIP3    H237152   4.764   5.863   7.606  0.3365 -1.2659  0.5456
 5173TIP3   OH237153   0.126   2.409   1.887 -0.8233  0.1210 -0.4569
 5173TIP3    H137154   0.221   2.411   1.899 -0.5311 -0.6497 -2.2619
 5173TIP3    H237155   0.111   2.332   1.832 -2.7580 -1.0927  1.6238
 5174TIP3   OH237156   1.064   5.460   1.295 -0.0273 -0.4946  0.6230
 5174TIP3    H137157   1.103   5.547   1.287 -0.6207 -0.4013 -1.8449
 5174TIP3    H237158   1.121   5.402   1.245 -0.2012 -1.3612  1.3827
 5175TIP3   OH237159   5.068   3.246   2.170 -0.4894 -0.0495  0.0410
 5175TIP3    H137160   5.027   3.212   2.090 -1.3396  1.0585 -0.0210
 5175TIP3    H237161   5.066   3.172   2.231  0.8150 -1.1273 -1.1686
 5176TIP3   OH237162   0.415   6.549   2.756  0.0767  0.5270  0.0536
 5176TIP3    H137163   0.457   6.510   2.679  0.0690  0.4093  0.1090
 5176TIP3    H237164   0.341   6.598   2.720  0.3771  0.9027 -0.0642
 5177TIP3   OH237165   1.177   1.261   0.261  0.0826  0.0127 -0.1847
 5177TIP3    H137166   1.231   1.264   0.340  0.8069 -1.0838 -0.6036
 5177TIP3    H237167   1.099   1.212   0.287 -1.0231  2.0453  0.5615
 5178TIP3   OH237168   0.494   3.006   1.120 -0.8776 -0.5180 -0.4352
 5178TIP3    H137169   0.437   3.065   1.070 -0.7603 -1.0808 -1.2523
 5178TIP3    H237170   0.472   2.919   1.089 -0.4239 -0.8407  0.1271
 5179TIP3   OH237171   0.576   4.648   1.157  0.4087  0.5332 -0.0673
 5179TIP3    H137172   0.484   4.625   1.165  0.6561 -0.6026 -0.3094
 5179TIP3    H237173   0.576   4.735   1.117 -0.5519  0.6541  0.1834
 5180TIP3   OH237174   1.527   5.325   7.637 -0.0286 -0.4691  0.0285
 5180TIP3    H137175   1.537   5.239   7.597 -0.1203 -0.0053 -1.0295
 5180TIP3    H237176   1.517   5.385   7.563  0.6701  0.5343  0.7212
 5181TIP3   OH237177   1.816   1.302   1.785  0.0904  0.1073  0.6892
 5181TIP3    H137178   1.756   1.376   1.800 -0.3477 -0.0515 -0.2012
 5181TIP3    H237179   1.807   1.247   1.863 -3.0545 -1.3605 -0.5358
 5182TIP3   OH237180   0.195   2.460   0.964 -0.8664  0.3483  0.3326
 5182TIP3    H137181   0.229   2.480   1.052 -0.7798 -1.6652  0.7886
 5182TIP3    H237182   0.271   2.433   0.914 -1.1061  0.2710  0.0096
 5183TIP3   OH237183   4.577   5.274   1.607  0.0266  0.0234 -0.4135
 5183TIP3    H137184   4.533   5.195   1.576  0.7726  0.0172 -1.5130
 5183TIP3    H237185   4.534   5.295   1.690  0.8775 -2.4839  0.7665
 5184TIP3   OH237186   3.799   3.023   7.768 -0.6177 -0.6502 -0.2881
 5184TIP3    H137187   3.800   3.035   7.673 -0.3800 -0.2710 -0.2445
 5184TIP3    H237188   3.839   2.937   7.782 -0.1801 -0.4887 -0.5098
 5185TIP3   OH237189   2.076   3.315   7.741 -0.0490  0.8258  0.3867
 5185TIP3    H137190   2.052   3.305   7.832 -1.1306  0.3120  0.0566
 5185TIP3    H237191   2.140   3.245   7.724 -0.2374  0.6019  0.6095
 5186TIP3   OH237192   4.317   6.300   7.341  0.6576 -0.2640 -0.3835
 5186TIP3    H137193   4.228   6.316   7.309  0.6001  0.7175  0.2175
 5186TIP3    H237194   4.357   6.243   7.275 -0.0027  0.3468 -1.3341
 5187TIP3   OH237195   0.934   0.218   8.238 -0.0847  0.0496 -0.5600
 5187TIP3    H137196   0.939   0.293   8.179 -0.7744  0.1971 -0.4325
 5187TIP3    H237197   0.909   0.145   8.181  1.8159 -0.3914 -0.9317
 5188TIP3   OH237198   4.946   4.563   8.112  0.0917 -0.0663 -0.4617
 5188TIP3    H137199   4.996   4.482   8.105 -1.8088 -1.2343 -1.2692
 5188TIP3    H237200   5.010   4.632   8.095  1.7331 -1.3886  0.1425
 5189TIP3   OH237201   1.798   2.344   2.178 -0.5337  0.2613  0.0947
 5189TIP3    H137202   1.807   2.380   2.267  1.5827  0.1145  0.0022
 5189TIP3    H237203   1.790   2.249   2.192  0.0509  0.2136  0.1389
 5190TIP3   OH237204   4.833   5.178   7.324  0.0959 -0.1878  0.1220
 5190TIP3    H137205   4.858   5.148   7.411 -0.0467  1.2824  0.7046
 5190TIP3    H237206   4.744   5.147   7.312  0.8598 -2.3499 -0.4785
 5191TIP3   OH237207   3.027   3.438   7.980  0.7264 -0.1193 -0.7022
 5191TIP3    H137208   3.017   3.508   8.045 -2.8947  0.4044 -1.6019
 5191TIP3    H237209   2.971   3.465   7.908  1.3701 -2.6812 -2.2799
 5192TIP3   OH237210   0.169   5.363   2.241  0.1178 -0.2746 -0.3414
 5192TIP3    H137211   0.207   5.276   2.231 -2.2509 -1.1581 -2.8760
 5192TIP3    H237212   0.083   5.348   2.280  0.1495  1.0802  0.3086
 5193TIP3   OH237213   3.235   3.476   0.116 -0.1496 -0.3325  0.2035
 5193TIP3    H137214   3.252   3.560   0.159 -1.6449  0.4392 -0.6407
 5193TIP3    H237215   3.189   3.499   0.035  0.1453 -1.9229 -0.4505
 5194TIP3   OH237216   6.457   3.088   0.455 -0.1207 -0.1621  0.4029
 5194TIP3    H137217   6.363   3.068   0.450 -0.3278  0.9733 -0.7910
 5194TIP3    H237218   6.479   3.079   0.548 -1.8647  1.4907  1.0296
 5195TIP3   OH237219   6.240   3.860   1.959  0.5238 -0.0090  0.2119
 5195TIP3    H137220   6.283   3.889   1.879  1.9318  1.3278  1.3676
 5195TIP3    H237221   6.148   3.886   1.948  0.7288  0.3038 -0.8767
 5196TIP3   OH237222   6.121   4.935   1.602 -0.0096  0.5995 -0.8635
 5196TIP3    H137223   6.212   4.941   1.575 -0.2983  1.1780 -1.7572
 5196TIP3    H237224   6.099   4.842   1.595  0.4283  0.5016 -0.9271
 5197TIP3   OH237225   4.611   2.561   1.036 -0.8683 -0.5035  0.7457
 5197TIP3    H137226   4.525   2.541   1.000 -0.0995 -0.6182 -1.1160
 5197TIP3    H237227   4.673   2.524   0.973  0.5540  1.1421  1.0962
 5198TIP3   OH237228   4.775   6.032   6.788 -0.3469  0.2957  0.0791
 5198TIP3    H137229   4.742   6.083   6.715 -0.9889  0.7311  0.6591
 5198TIP3    H237230   4.728   5.949   6.783 -1.1684  0.7148  0.5891
 5199TIP3   OH237231   4.708   6.343   7.188  0.2123  0.1649  0.1576
 5199TIP3    H137232   4.714   6.316   7.280  1.1171  3.0755  1.0542
 5199TIP3    H237233   4.708   6.261   7.139  4.0053 -1.5014  2.4969
 5200TIP3   OH237234   3.934   3.922   1.415 -0.3916  0.1671 -0.2141
 5200TIP3    H137235   3.877   3.849   1.438  0.3689 -0.4899 -0.3784
 5200TIP3    H237236   4.019   3.882   1.397 -0.5520  0.7847 -2.7080
 5201TIP3   OH237237   4.033   0.289   0.736 -0.7012 -0.0591  0.5626
 5201TIP3    H137238   4.113   0.339   0.752 -0.0293 -1.7679  3.1811
 5201TIP3    H237239   3.966   0.356   0.720  0.4324  1.6437  2.4340
 5202TIP3   OH237240   3.635   1.518   0.666  0.0182 -0.7329  0.1373
 5202TIP3    H137241   3.549   1.480   0.647  0.2021 -0.8162 -0.5550
 5202TIP3    H237242   3.644   1.590   0.603  0.6170 -0.9744 -0.0595
 5203TIP3   OH237243   4.177   3.703   8.694  0.0606 -0.0380 -0.2655
 5203TIP3    H137244   4.172   3.619   8.740  0.0783  0.9661  1.6874
 5203TIP3    H237245   4.119   3.693   8.619 -1.6642 -1.0716  1.1405
 5204TIP3   OH237246   6.753   3.358   0.777  0.6878 -0.0847  0.0789
 5204TIP3    H137247   6.687   3.302   0.737  0.1632  1.1796 -0.8856
 5204TIP3    H237248   6.784   3.308   0.852  0.7235 -1.9522 -1.1089
 5205TIP3   OH237249   0.554   5.239   8.423  0.3436  0.0509  0.2903
 5205TIP3    H137250   0.577   5.291   8.500 -2.6197 -0.6991  1.8193
 5205TIP3    H237251   0.509   5.300   8.365  0.4777  0.0979  0.2365
 5206TIP3   OH237252   1.420   5.343   0.529  0.0833  0.1156 -0.1294
 5206TIP3    H137253   1.349   5.303   0.479  0.0399 -0.2913  0.2563
 5206TIP3    H237254   1.496   5.338   0.471 -0.2197  0.6646 -0.5936
 5207TIP3   OH237255   0.510   1.445   0.605  0.3142  0.0591  0.3610
 5207TIP3    H137256   0.445   1.461   0.673 -0.4983  0.7255 -0.5565
 5207TIP3    H237257   0.498   1.515   0.542 -0.7829 -1.9851 -1.8541
 5208TIP3   OH237258   0.356   6.076   0.471 -0.6583  0.1121  0.0840
 5208TIP3    H137259   0.296   6.149   0.457 -1.3230 -0.2807  0.8368
 5208TIP3    H237260   0.442   6.118   0.482 -0.7868  0.6723 -0.9495
 5209TIP3   OH237261   6.201   2.742   7.513 -0.1289  0.0140 -0.1694
 5209TIP3    H137262   6.138   2.701   7.454  0.1196 -0.2763 -0.2340
 5209TIP3    H237263   6.252   2.800   7.456 -0.4202  0.3496 -0.0944
 5210TIP3   OH237264   5.152   3.298   0.428 -0.0231 -0.1823 -0.4819
 5210TIP3    H137265   5.141   3.383   0.470 -0.1247 -1.3523  1.9910
 5210TIP3    H237266   5.243   3.274   0.445 -0.0257 -0.6521 -1.0706
 5211TIP3   OH237267   0.225   1.020   1.456 -0.0223 -0.3129  0.3011
 5211TIP3    H137268   0.142   1.066   1.464  1.0193  1.5478  1.0501
 5211TIP3    H237269   0.235   0.972   1.538 -0.7903 -1.3645 -0.1994
 5212TIP3   OH237270   3.198   6.829   8.364 -0.1387  0.0766  0.2645
 5212TIP3    H137271   3.276   6.804   8.413 -0.6870  0.2659  1.2495
 5212TIP3    H237272   3.127   6.827   8.428 -1.0324 -0.5368 -0.7032
 5213TIP3   OH237273   5.325   0.296   0.823  0.1116  0.8430 -0.5156
 5213TIP3    H137274   5.389   0.235   0.860 -0.3281  0.4023 -0.4709
 5213TIP3    H237275   5.356   0.383   0.850  0.5601  0.6174 -0.3005
 5214TIP3   OH237276   0.853   0.551   7.021  0.6621  0.1977 -0.5839
 5214TIP3    H137277   0.801   0.632   7.020  0.4145  0.0507  0.1829
 5214TIP3    H237278   0.927   0.570   7.078  0.4536 -0.2114 -0.1761
 5215TIP3   OH237279   3.378   0.835   0.711  0.2527  0.0707  0.3638
 5215TIP3    H137280   3.283   0.824   0.711  0.2284  0.0119 -0.9589
 5215TIP3    H237281   3.397   0.873   0.625  1.2131  2.1676  1.4313
 5216TIP3   OH237282   1.873   1.311   0.998 -0.1115 -0.3377  0.3716
 5216TIP3    H137283   1.806   1.377   1.015  1.0420  1.2304 -0.7634
 5216TIP3    H237284   1.933   1.319   1.072 -0.4594 -0.7776  0.7027
 5217TIP3   OH237285   4.884   4.703   7.808 -0.4113 -0.2379  0.3745
 5217TIP3    H137286   4.843   4.630   7.856 -1.6737  0.3814  0.2917
 5217TIP3    H237287   4.977   4.693   7.824 -0.6347 -1.3659  1.0907
 5218TIP3   OH237288   6.662   5.888   8.623 -0.6269 -0.1741  0.1217
 5218TIP3    H137289   6.704   5.830   8.687  1.9092  1.4305  0.0243
 5218TIP3    H237290   6.594   5.933   8.673  0.4725  0.1336  1.3915
 5219TIP3   OH237291   4.224   1.336   8.443  0.1613 -0.1837  0.0088
 5219TIP3    H137292   4.170   1.303   8.514  0.5239 -1.2508 -0.1893
 5219TIP3    H237293   4.162   1.352   8.371  0.1359 -1.8665 -0.3820
 5220TIP3   OH237294   6.003   3.098   1.292  0.4500 -0.0007  0.0854
 5220TIP3    H137295   5.946   3.168   1.258  0.6410  0.6663  1.0697
 5220TIP3    H237296   5.984   3.097   1.386  0.6355 -1.1196  0.1195
 5221TIP3   OH237297   2.873   0.898   7.502  0.0060 -0.0943  0.2043
 5221TIP3    H137298   2.843   0.982   7.466  0.4489  0.0389  0.1433
 5221TIP3    H237299   2.962   0.888   7.469  0.8142  0.5152  2.0294
 5222TIP3   OH237300   6.286   3.538   1.984 -0.1559  0.1179  0.0991
 5222TIP3    H137301   6.210   3.510   1.933  1.2032 -0.0616 -1.9876
 5222TIP3    H237302   6.273   3.631   1.999 -0.5991  0.1823 -0.6297
 5223TIP3   OH237303   3.038   6.439   1.605 -0.4729  0.0244 -0.2687
 5223TIP3    H137304   2.972   6.409   1.543 -1.3632  0.0168  0.6575
 5223TIP3    H237305   2.988   6.484   1.674  0.4144 -0.5440  0.7859
 5224TIP3   OH237306   1.276   1.459   7.030  0.3215 -0.1889 -0.4331
 5224TIP3    H137307   1.347   1.394   7.027 -0.6447 -1.4332  1.2536
 5224TIP3    H237308   1.297   1.513   7.106 -1.1989 -1.5167  1.0354
 5225TIP3   OH237309   1.013   3.625   0.103  0.0607  0.2616 -0.0825
 5225TIP3    H137310   1.071   3.550   0.095 -0.0942  0.2209 -0.8102
 5225TIP3    H237311   0.936   3.591   0.150 -0.6193 -0.3848 -1.6140
 5226TIP3   OH237312   3.029   2.431   7.725 -0.0753 -0.0269  0.7116
 5226TIP3    H137313   3.077   2.460   7.647  0.7335 -1.8140  0.4835
 5226TIP3    H237314   2.967   2.366   7.691 -1.6619  1.1614  1.2236
 5227TIP3   OH237315   2.428   5.024   7.959 -0.0041  0.2199 -0.1015
 5227TIP3    H137316   2.516   5.046   7.927  0.1375  1.9587  1.3574
 5227TIP3    H237317   2.440   4.944   8.010  0.6173  0.1146 -0.4058
 5228TIP3   OH237318   1.455   1.065   0.196 -0.1453 -0.4294  0.6197
 5228TIP3    H137319   1.374   1.075   0.246  0.7401  0.3279  1.9738
 5228TIP3    H237320   1.523   1.058   0.262  1.0107 -0.0502 -0.4901
 5229TIP3   OH237321   5.415   1.310   2.531 -0.8853  0.3056 -0.7300
 5229TIP3    H137322   5.475   1.241   2.501 -1.3084 -0.9344  1.0699
 5229TIP3    H237323   5.461   1.391   2.513  0.8206 -0.5602 -0.5281
 5230TIP3   OH237324   1.839   0.398   0.627  0.3293  0.9636  0.0904
 5230TIP3    H137325   1.777   0.437   0.688 -0.4544 -0.8270  0.5244
 5230TIP3    H237326   1.921   0.444   0.641 -0.5084  2.3252  0.6308
 5231TIP3   OH237327   0.875   2.430   2.127 -0.6646  0.5893  0.0587
 5231TIP3    H137328   0.893   2.342   2.159  1.2511  1.0789  0.4522
 5231TIP3    H237329   0.905   2.488   2.197  0.2062  1.5900 -1.0884
 5232TIP3   OH237330   6.112   4.455   0.056  0.2513 -0.4809 -0.2204
 5232TIP3    H137331   6.164   4.517   0.005  1.5092 -0.9050  0.5051
 5232TIP3    H237332   6.158   4.371   0.046 -0.2606 -0.8566  0.4761
 5233TIP3   OH237333   0.276   0.985   0.589 -0.2591 -0.0618  0.0487
 5233TIP3    H137334   0.352   1.027   0.548 -0.2729 -0.5939 -0.5323
 5233TIP3    H237335   0.311   0.906   0.630 -0.2109  0.5550  1.2495
 5234TIP3   OH237336   1.605   2.750   2.646  0.2434 -0.2415 -0.4875
 5234TIP3    H137337   1.553   2.830   2.637 -0.4127 -0.8189 -2.0920
 5234TIP3    H237338   1.549   2.690   2.695 -0.3333 -0.6002 -1.5573
 5235TIP3   OH237339   6.802   3.036   0.574 -0.4026  0.7198  0.0173
 5235TIP3    H137340   6.841   3.106   0.521 -0.6986  0.5533 -0.4231
 5235TIP3    H237341   6.714   3.067   0.592 -0.0284  1.1794  1.1670
 5236TIP3   OH237342   4.471   0.185   6.296  0.3187  0.0480 -0.1582
 5236TIP3    H137343   4.546   0.182   6.236  0.7185 -0.1281  0.3406
 5236TIP3    H237344   4.471   0.099   6.338 -0.4711 -0.1352 -0.5174
 5237TIP3   OH237345   6.358   3.811   1.194 -0.2903  0.3555  0.0444
 5237TIP3    H137346   6.343   3.720   1.221 -0.7137  0.3820 -0.1061
 5237TIP3    H237347   6.278   3.836   1.148  0.6148  0.1336 -1.7438
 5238TIP3   OH237348   1.674   6.246   1.153  0.7834  0.1760 -0.1381
 5238TIP3    H137349   1.671   6.281   1.242  1.1585 -0.6746  0.2156
 5238TIP3    H237350   1.606   6.178   1.152  0.5288  0.4299 -0.6186
 5239TIP3   OH237351   5.884   3.801   7.640 -0.3319  0.2236 -0.0504
 5239TIP3    H137352   5.905   3.707   7.641 -0.0462  0.2453 -1.6832
 5239TIP3    H237353   5.966   3.844   7.665 -0.3661  0.0594  0.3533
 5240TIP3   OH237354   2.281   6.358   7.345 -0.0786 -0.3104  0.0718
 5240TIP3    H137355   2.374   6.335   7.348 -0.5666 -2.7272 -0.7235
 5240TIP3    H237356   2.248   6.337   7.433 -0.1752 -1.0670 -0.1370
 5241TIP3   OH237357   4.161   3.456   1.726  0.7165  0.2427  0.0705
 5241TIP3    H137358   4.173   3.516   1.800  0.2117  0.3744  0.0440
 5241TIP3    H237359   4.217   3.493   1.657  1.2286  0.0904  0.3979
 5242TIP3   OH237360   5.004   6.672   7.432  0.1816 -0.1231  0.7269
 5242TIP3    H137361   5.017   6.671   7.527 -0.2803 -2.4714  0.8318
 5242TIP3    H237362   4.912   6.648   7.421  0.0589  0.7655 -0.3191
 5243TIP3   OH237363   1.881   3.082   7.770 -0.1771 -0.7968 -0.2606
 5243TIP3    H137364   1.873   2.986   7.777 -0.7458 -0.8652 -1.4884
 5243TIP3    H237365   1.962   3.096   7.721  2.1767 -0.4505  3.3972
 5244TIP3   OH237366   1.241   4.875   7.663 -0.3110 -0.3234  0.1759
 5244TIP3    H137367   1.311   4.931   7.697  0.8195 -0.5569 -1.6657
 5244TIP3    H237368   1.239   4.893   7.569 -2.8677 -0.1997  0.1921
 5245TIP3   OH237369   4.121   0.246   8.150  0.1059 -0.1096 -0.3785
 5245TIP3    H137370   4.039   0.283   8.117  0.3557  0.9864  0.1884
 5245TIP3    H237371   4.167   0.320   8.189  0.6629 -1.0109  0.7375
 5246TIP3   OH237372   5.508   1.421   8.446 -0.0650 -0.6114  0.3827
 5246TIP3    H137373   5.580   1.482   8.463  0.3993 -1.0433 -0.0175
 5246TIP3    H237374   5.547   1.350   8.395 -1.0307 -0.2472 -0.9187
 5247TIP3   OH237375   5.183   6.699   6.719  0.2111  0.2178 -0.0351
 5247TIP3    H137376   5.165   6.725   6.628  1.7249 -1.0713 -0.7418
 5247TIP3    H237377   5.098   6.669   6.752 -0.2141  0.0267 -1.2581
 5248TIP3   OH237378   5.636   5.940   1.213 -0.2078 -0.3388  0.2306
 5248TIP3    H137379   5.702   6.000   1.177 -0.0701  0.7052  2.0528
 5248TIP3    H237380   5.648   5.859   1.165  3.1063 -0.5060  1.0931
 5249TIP3   OH237381   0.365   5.260   7.890  0.0506  0.2403  0.2295
 5249TIP3    H137382   0.388   5.333   7.948  0.7748 -0.6310  1.0763
 5249TIP3    H237383   0.274   5.278   7.866 -0.4974  0.3296  2.1595
 5250TIP3   OH237384   6.397   0.759   0.654 -0.0743 -0.1383 -0.2109
 5250TIP3    H137385   6.365   0.669   0.653 -1.6093  0.3740 -1.0638
 5250TIP3    H237386   6.481   0.754   0.699  0.2451 -2.1109 -0.9200
 5251TIP3   OH237387   0.099   6.204   0.877 -0.1968  0.2675 -0.0040
 5251TIP3    H137388   0.051   6.179   0.797 -0.3157 -0.8977  0.4093
 5251TIP3    H237389   0.156   6.276   0.849 -0.8120  0.4072 -0.9535
 5252TIP3   OH237390   0.216   1.111   1.060 -0.3635  0.1311 -0.0580
 5252TIP3    H137391   0.152   1.135   1.126  0.9376  1.8703  0.6200
 5252TIP3    H237392   0.293   1.082   1.109 -0.1515 -0.6941 -0.8414
 5253TIP3   OH237393   1.962   3.940   1.913 -0.0392 -0.0012 -0.3304
 5253TIP3    H137394   1.942   3.907   2.000 -0.0643 -0.4700 -0.5093
 5253TIP3    H237395   2.056   3.955   1.914 -0.0697  0.1876 -0.1612
 5254TIP3   OH237396   3.204   3.779   0.771  0.2895  0.3963  0.3687
 5254TIP3    H137397   3.246   3.809   0.690 -0.6657  0.4050 -0.1383
 5254TIP3    H237398   3.149   3.705   0.744 -1.2464  1.3652  0.7053
 5255TIP3   OH237399   2.267   3.595   0.284 -0.2764 -0.5760  0.6279
 5255TIP3    H137400   2.348   3.576   0.235  0.1730  0.2526  1.0357
 5255TIP3    H237401   2.295   3.601   0.375 -0.3685  1.9624  0.5493
 5256TIP3   OH237402   2.609   6.032   7.678  0.1623 -0.1311  0.0875
 5256TIP3    H137403   2.704   6.046   7.669  0.2542  0.8173  1.9439
 5256TIP3    H237404   2.601   5.957   7.737 -0.2501 -0.2778 -0.1502
 5257TIP3   OH237405   0.498   3.544   1.532 -0.0341  0.0588  0.4474
 5257TIP3    H137406   0.449   3.491   1.595  0.2070  0.3452  0.8805
 5257TIP3    H237407   0.573   3.576   1.582  0.1940  0.2301 -0.0081
 5258TIP3   OH237408   0.189   3.953   0.302 -0.1312  0.4058  0.1466
 5258TIP3    H137409   0.241   3.875   0.319  0.4938  0.7035 -0.3688
 5258TIP3    H237410   0.103   3.933   0.340 -0.4256 -1.0875 -1.2126
 5259TIP3   OH237411   3.233   5.549   6.636  1.0064  0.3657  0.5218
 5259TIP3    H137412   3.208   5.472   6.586 -0.1676  0.1096  1.4705
 5259TIP3    H237413   3.160   5.610   6.625  1.0546  0.5806  1.3487
 5260TIP3   OH237414   6.463   3.762   0.741 -0.0771  0.6144 -0.1792
 5260TIP3    H137415   6.375   3.791   0.719  0.4557  0.6901 -2.4187
 5260TIP3    H237416   6.478   3.684   0.687  1.2451  0.6206  0.1348
 5261TIP3   OH237417   2.057   5.687   1.096  0.2333 -0.8983  0.3246
 5261TIP3    H137418   1.976   5.676   1.145  0.1419  2.6117  1.2391
 5261TIP3    H237419   2.045   5.635   1.016 -2.0453 -2.0635  1.3524
 5262TIP3   OH237420   5.841   6.611   7.646  0.2158  0.0472 -0.0405
 5262TIP3    H137421   5.753   6.594   7.679 -0.4878  0.4481 -1.6102
 5262TIP3    H237422   5.899   6.592   7.720 -1.2227  0.3754  1.2116
 5263TIP3   OH237423   4.111   2.759   0.388  0.3803 -0.4150 -0.8334
 5263TIP3    H137424   4.083   2.756   0.296 -0.1248 -0.1122 -0.6870
 5263TIP3    H237425   4.031   2.746   0.438  0.9772 -3.0480 -0.4418
 5264TIP3   OH237426   1.145   6.542   0.037 -0.0020  0.6262  0.3585
 5264TIP3    H137427   1.068   6.542   0.094 -0.5994 -0.0124 -0.4355
 5264TIP3    H237428   1.138   6.462  -0.015  1.8215 -0.0541  1.0803
 5265TIP3   OH237429   4.832   0.553   2.850  0.1315  0.1671  0.0841
 5265TIP3    H137430   4.806   0.507   2.771  1.7244 -1.3742  0.3910
 5265TIP3    H237431   4.769   0.525   2.916 -0.5337  0.5858 -0.3638
 5266TIP3   OH237432   5.565   5.558   0.697  0.4156 -0.0476  0.1455
 5266TIP3    H137433   5.524   5.488   0.647  3.2367 -0.7835 -1.3877
 5266TIP3    H237434   5.514   5.564   0.777 -2.5554 -0.8212 -1.5361
 5267TIP3   OH237435   4.902   5.079   8.005 -0.1439 -0.1159 -0.3316
 5267TIP3    H137436   4.832   5.063   7.942  0.2565 -0.2334 -0.7561
 5267TIP3    H237437   4.950   4.996   8.009 -0.0498 -0.0502 -0.0117
 5268TIP3   OH237438   1.974   5.370   7.940  0.1364 -0.1335  0.2390
 5268TIP3    H137439   2.025   5.315   7.881  0.1014  1.2665 -1.1627
 5268TIP3    H237440   1.946   5.311   8.010  2.6947 -1.2218  0.4776
 5269TIP3   OH237441   1.599   2.055   8.397 -0.7327 -0.4655  0.2737
 5269TIP3    H137442   1.536   2.127   8.391 -0.2954 -0.0817  0.1600
 5269TIP3    H237443   1.666   2.087   8.458 -1.8935 -1.8386  2.3926
 5270TIP3   OH237444   3.981   6.334   0.900 -0.0203 -0.5570  0.4117
 5270TIP3    H137445   4.009   6.264   0.958 -0.3643 -2.4923 -1.6451
 5270TIP3    H237446   4.059   6.355   0.848 -0.0247  0.3717  0.7459
 5271TIP3   OH237447   5.330   5.908   1.060  0.0277  0.9074 -0.2363
 5271TIP3    H137448   5.356   5.938   1.147 -1.6854  1.3725  0.1470
 5271TIP3    H237449   5.325   5.988   1.008  0.7215  0.6657 -0.6873
 5272TIP3   OH237450   1.146   5.665   8.614 -0.0167  0.3071  0.0423
 5272TIP3    H137451   1.231   5.708   8.611  1.1953 -1.9553 -0.2878
 5272TIP3    H237452   1.113   5.683   8.702  0.1208  2.3212 -0.2562
 5273TIP3   OH237453   2.414   4.273   1.869  0.2874  0.3873 -0.7182
 5273TIP3    H137454   2.480   4.332   1.905 -0.6174  2.9585 -2.9404
 5273TIP3    H237455   2.457   4.231   1.795 -0.5478  2.4114 -2.4568
 5274TIP3   OH237456   0.929   2.350   1.302  0.0016 -0.1185 -0.7159
 5274TIP3    H137457   0.951   2.258   1.289  1.0279  0.0987 -0.6667
 5274TIP3    H237458   0.920   2.360   1.397 -0.5663 -0.2621 -0.7541
 5275TIP3   OH237459   4.759   3.225   0.657 -0.5293  0.3646 -0.6076
 5275TIP3    H137460   4.666   3.207   0.670 -0.5880  1.6118  0.9122
 5275TIP3    H237461   4.763   3.317   0.633  0.2065 -0.1114 -2.5245
 5276TIP3   OH237462   5.200   6.230   7.526  0.2097 -0.1195  0.0104
 5276TIP3    H137463   5.241   6.143   7.526 -1.5551 -1.0157 -1.0201
 5276TIP3    H237464   5.152   6.233   7.443  1.9342  2.7192 -1.0122
 5277TIP3   OH237465   1.416   6.467   1.910 -0.1949 -0.3146 -0.0104
 5277TIP3    H137466   1.327   6.473   1.876 -0.3497 -0.4718  0.3716
 5277TIP3    H237467   1.414   6.394   1.971 -0.0955  0.4347  0.9052
 5278TIP3   OH237468   1.682   3.737   8.711 -0.5545  0.0937  0.3185
 5278TIP3    H137469   1.773   3.712   8.700 -0.6725 -0.6799  0.9930
 5278TIP3    H237470   1.635   3.654   8.723 -1.8082  0.2018 -2.8647
 5279TIP3   OH237471   4.117   1.192   6.878 -0.1331  0.1348  0.4942
 5279TIP3    H137472   4.035   1.179   6.926 -0.2033  2.3400  1.0739
 5279TIP3    H237473   4.119   1.120   6.815 -0.9642 -1.7494  2.5133
 5280TIP3   OH237474   1.415   4.850   1.312  0.1617 -0.2618  0.1658
 5280TIP3    H137475   1.328   4.811   1.304 -0.1139  0.0159  1.5593
 5280TIP3    H237476   1.462   4.791   1.370  0.5297  0.1658  0.3102
 5281TIP3   OH237477   5.183   1.526   2.861 -0.0903 -0.0735 -0.3199
 5281TIP3    H137478   5.108   1.501   2.915 -1.4885  1.4000 -1.4741
 5281TIP3    H237479   5.206   1.447   2.813 -0.7999 -0.5989  0.1821
 5282TIP3   OH237480   3.006   1.329   8.199  0.1089 -0.0625 -0.3442
 5282TIP3    H137481   3.102   1.330   8.189 -0.0315  0.3177 -1.9378
 5282TIP3    H237482   2.975   1.399   8.142 -1.0939  0.3124  0.7345
 5283TIP3   OH237483   6.548   1.109   8.604 -0.0896 -0.6938 -0.3131
 5283TIP3    H137484   6.637   1.119   8.569  0.0430 -2.0149 -0.3792
 5283TIP3    H237485   6.509   1.196   8.595  1.1662 -0.1180 -0.3576
 5284TIP3   OH237486   2.077   6.053   0.602  0.4161  0.1473  0.4749
 5284TIP3    H137487   2.020   6.080   0.530 -0.7535 -0.1808  1.2471
 5284TIP3    H237488   2.166   6.056   0.566 -0.0344  1.2485 -0.5802
 5285TIP3   OH237489   4.182   6.843   1.471 -0.4673 -0.7711  0.0816
 5285TIP3    H137490   4.129   6.844   1.551 -1.1608 -0.8301 -0.3719
 5285TIP3    H237491   4.268   6.812   1.500 -0.5091 -0.1385  0.9262
 5286TIP3   OH237492   5.067   0.626   8.630  0.3219 -0.4808 -0.2652
 5286TIP3    H137493   5.057   0.543   8.677 -0.5815 -0.5279 -0.5388
 5286TIP3    H237494   5.104   0.601   8.545  1.6233 -0.4284  0.2522
 5287TIP3   OH237495   1.435   6.399   1.083  0.0815  0.3093  0.5684
 5287TIP3    H137496   1.392   6.483   1.101 -0.8452  0.1843 -0.9611
 5287TIP3    H237497   1.528   6.421   1.079 -0.3041  1.9291 -2.8287
 5288TIP3   OH237498   3.434   5.905   8.586  0.6002  0.0921  0.2951
 5288TIP3    H137499   3.486   5.836   8.627  2.1323  0.3832 -1.0586
 5288TIP3    H237500   3.472   5.915   8.499 -2.4210 -0.3822 -1.2012
 5289TIP3   OH237501   6.722   5.334   0.047  0.1653 -0.1504 -0.5072
 5289TIP3    H137502   6.721   5.265   0.114  1.5270 -0.9132 -1.2257
 5289TIP3    H237503   6.629   5.354   0.032 -0.2666 -1.7815 -0.2275
 5290TIP3   OH237504   6.218   5.095   8.563  0.2570 -0.2364 -0.3080
 5290TIP3    H137505   6.242   5.062   8.650 -0.6119 -1.1960 -0.4093
 5290TIP3    H237506   6.123   5.086   8.560 -0.2599  3.4897  0.1265
 5291TIP3   OH237507   5.544   5.444   1.301 -0.5535 -0.0781 -0.5395
 5291TIP3    H137508   5.634   5.426   1.273 -0.6245 -0.6924 -0.3802
 5291TIP3    H237509   5.539   5.407   1.390 -1.1897 -0.7401 -0.8465
 5292TIP3   OH237510   3.838   2.064   7.763 -0.0291  0.1586 -0.1780
 5292TIP3    H137511   3.882   2.146   7.787 -0.9397  0.3661  0.8746
 5292TIP3    H237512   3.902   1.996   7.779  0.8566  0.6673 -1.3727
 5293TIP3   OH237513   3.696   5.970   1.916 -0.2509  1.0305  0.2313
 5293TIP3    H137514   3.710   6.025   1.993 -0.1523  1.3578 -0.0177
 5293TIP3    H237515   3.606   5.937   1.927 -0.0619  0.6725  0.7324
 5294TIP3   OH237516   3.712   6.642   1.715 -0.7853  1.1186 -0.1166
 5294TIP3    H137517   3.747   6.704   1.779  0.0833 -0.7279  1.3323
 5294TIP3    H237518   3.636   6.603   1.759 -0.6746  0.4053 -0.5410
 5295TIP3   OH237519   0.465   4.097   1.392 -0.2251  0.6129  0.1508
 5295TIP3    H137520   0.395   4.056   1.443  0.3222 -2.2790 -1.1951
 5295TIP3    H237521   0.424   4.117   1.307  0.1963  0.3074 -0.1277
 5296TIP3   OH237522   5.488   1.308   7.763  0.3669  0.5328  0.3478
 5296TIP3    H137523   5.481   1.398   7.731  0.0754  0.4068  0.0591
 5296TIP3    H237524   5.566   1.309   7.818  0.7515  0.8105 -0.1857
 5297TIP3   OH237525   5.563   2.829   7.706  0.2812  0.2324 -0.0600
 5297TIP3    H137526   5.526   2.917   7.702  0.5448  0.4126  0.9597
 5297TIP3    H237527   5.654   2.840   7.678 -0.2003 -0.0830 -1.8579
 5298TIP3   OH237528   0.766   3.198   7.539 -0.0843 -0.4318 -0.3305
 5298TIP3    H137529   0.768   3.116   7.588 -0.8458 -0.2039  0.1103
 5298TIP3    H237530   0.702   3.184   7.470  0.4414 -0.5019 -0.8087
 5299TIP3   OH237531   5.275   6.127   6.658 -0.6206  0.0585  0.3220
 5299TIP3    H137532   5.250   6.130   6.566 -0.0886  1.2220  0.1919
 5299TIP3    H237533   5.222   6.195   6.700 -0.5067 -0.1263  0.7724
 5300TIP3   OH237534   6.163   2.130   0.545 -0.7264  0.5544 -0.3410
 5300TIP3    H137535   6.120   2.123   0.460 -1.4843 -2.3799  0.1993
 5300TIP3    H237536   6.093   2.155   0.605 -0.4118  1.5353 -0.3561
 5301TIP3   OH237537   1.070   0.656   0.002 -0.3527  0.2461  0.0919
 5301TIP3    H137538   0.987   0.654   0.050 -0.8334  1.9856 -0.5832
 5301TIP3    H237539   1.093   0.564  -0.012 -0.2145 -0.3887  3.5501
 5302TIP3   OH237540   4.063   0.120   0.013 -0.7858  0.1157  0.3197
 5302TIP3    H137541   4.041   0.083   0.098 -0.8121  0.1187  0.3143
 5302TIP3    H237542   3.986   0.172  -0.012 -0.5180  0.6466  0.5873
 5303TIP3   OH237543   5.768   5.055   0.445  0.4598 -0.0829 -0.3868
 5303TIP3    H137544   5.801   5.109   0.517 -0.7752  2.3947 -1.5170
 5303TIP3    H237545   5.712   4.991   0.487  0.3699  0.8238  0.9430
 5304TIP3   OH237546   5.937   5.827   1.081 -0.0774 -0.0034 -0.4042
 5304TIP3    H137547   5.938   5.755   1.018  0.5927 -3.6517  3.3639
 5304TIP3    H237548   6.009   5.808   1.141 -2.5116  1.3169  3.3112
 5305TIP3   OH237549   1.741   5.792   1.926 -0.2886  0.0082  0.5184
 5305TIP3    H137550   1.715   5.876   1.964 -0.6210 -0.1205  0.5803
 5305TIP3    H237551   1.836   5.789   1.937 -0.1544  0.7907 -0.3262
 5306TIP3   OH237552   3.465   4.607   1.199  0.1008 -0.6550 -0.2080
 5306TIP3    H137553   3.408   4.592   1.123 -1.2293 -1.7104  0.9457
 5306TIP3    H237554   3.408   4.593   1.274  1.1796  1.1671  1.0253
 5307TIP3   OH237555   5.953   5.578   8.035 -0.0799  0.6006  0.3199
 5307TIP3    H137556   5.898   5.656   8.039  0.0017  0.7767 -1.2518
 5307TIP3    H237557   5.902   5.515   7.983  0.9212  0.5515 -0.6544
 5308TIP3   OH237558   4.646   5.582   6.468 -0.2837  0.0152 -0.5710
 5308TIP3    H137559   4.680   5.495   6.447 -0.8370 -0.4589  0.4431
 5308TIP3    H237560   4.722   5.639   6.465  0.2672 -0.6935 -0.1972
 5309TIP3   OH237561   3.937   1.944   1.441  0.1221  0.5241 -0.1481
 5309TIP3    H137562   3.904   2.006   1.507 -0.7484  1.1512 -1.1365
 5309TIP3    H237563   3.861   1.927   1.385  0.6883 -0.4767 -0.6241
 5310TIP3   OH237564   6.482   6.336   7.793 -0.0751 -0.2093 -0.0217
 5310TIP3    H137565   6.559   6.316   7.739 -0.9221 -0.6362 -1.1149
 5310TIP3    H237566   6.482   6.269   7.861  0.2490 -0.5107 -0.3133
 5311TIP3   OH237567   4.905   6.865   6.648  0.0250 -0.2164  0.4394
 5311TIP3    H137568   4.904   6.839   6.741 -0.6844 -0.6413  0.3251
 5311TIP3    H237569   4.882   6.958   6.649 -2.5631 -0.7674  0.5754
 5312TIP3   OH237570   1.926   4.609   1.797  0.2804 -0.3681  0.1433
 5312TIP3    H137571   1.971   4.632   1.878  0.9353  0.9989 -0.5722
 5312TIP3    H237572   1.983   4.546   1.755  1.7523  1.5446 -0.8785
 5313TIP3   OH237573   2.843   1.101   1.682 -0.5474 -0.1578 -0.6336
 5313TIP3    H137574   2.828   1.079   1.774 -0.8094 -0.8710 -0.8417
 5313TIP3    H237575   2.914   1.164   1.684 -1.8431  1.3468  0.1966
 5314TIP3   OH237576   4.025   1.135   1.022 -0.1564  0.5272 -0.0825
 5314TIP3    H137577   4.015   1.071   0.951  0.7897  1.2603 -0.9147
 5314TIP3    H237578   4.119   1.131   1.044 -0.4434  0.2750  1.1845
 5315TIP3   OH237579   5.318   5.978   7.628  0.0777  0.2253 -0.2725
 5315TIP3    H137580   5.375   5.995   7.702  0.2470  0.2654 -0.4107
 5315TIP3    H237581   5.312   5.882   7.623  2.4129  0.0793 -1.9535
 5316TIP3   OH237582   4.769   4.114   7.542 -0.2631  0.1622  0.1318
 5316TIP3    H137583   4.858   4.142   7.522  0.1804 -0.6497  0.9097
 5316TIP3    H237584   4.778   4.025   7.576 -1.3653  0.0950  0.3047
 5317TIP3   OH237585   2.127   6.814   8.193 -0.0645 -0.4779 -0.3183
 5317TIP3    H137586   2.168   6.849   8.272  0.4569 -0.3535 -0.6471
 5317TIP3    H237587   2.193   6.822   8.125 -0.4810 -0.6716 -0.7526
 5318TIP3   OH237588   0.550   3.718   7.613 -0.2344 -0.4090  0.5557
 5318TIP3    H137589   0.496   3.640   7.599 -1.4888  0.7100 -1.4127
 5318TIP3    H237590   0.488   3.785   7.643  0.2908  0.5269 -0.3863
 5319TIP3   OH237591   3.559   1.859   7.517  0.5137 -0.0276 -0.5479
 5319TIP3    H137592   3.654   1.862   7.509  0.5475 -3.5658 -3.9925
 5319TIP3    H237593   3.528   1.931   7.463  1.0856  1.6621  1.2355
 5320TIP3   OH237594   1.746   3.028   1.367 -0.0101 -0.0052 -0.1515
 5320TIP3    H137595   1.811   3.064   1.307 -0.5930  0.1061 -0.7360
 5320TIP3    H237596   1.716   3.103   1.418 -0.0486  0.0424 -0.2432
 5321TIP3   OH237597   6.448   0.113   7.084  0.1063  0.4688 -0.1367
 5321TIP3    H137598   6.384   0.072   7.025 -0.0194 -0.3708  0.5691
 5321TIP3    H237599   6.486   0.184   7.032 -1.8176  1.3924 -0.3794
 5322TIP3   OH237600   6.193   2.748   7.787  0.6852  0.1652  0.1125
 5322TIP3    H137601   6.194   2.713   7.698 -1.0939  0.3624 -0.0166
 5322TIP3    H237602   6.159   2.837   7.778  0.5335  0.2051  0.9683
 5323TIP3   OH237603   0.456   4.649   1.941  0.3455  0.2551  0.6563
 5323TIP3    H137604   0.547   4.624   1.958  0.4343 -1.0859 -1.4651
 5323TIP3    H237605   0.444   4.731   1.990  3.3836  1.7062 -0.7470
 5324TIP3   OH237606   0.903   5.839   1.910  0.7188  0.5471 -0.0175
 5324TIP3    H137607   0.820   5.807   1.874  1.1284  1.0601 -1.4637
 5324TIP3    H237608   0.970   5.804   1.852  1.6476 -0.7713  1.7560
 5325TIP3   OH237609   5.655   5.743   0.059  0.1771 -0.9778 -0.4599
 5325TIP3    H137610   5.717   5.675   0.033 -0.0822 -1.3521 -0.1257
 5325TIP3    H237611   5.698   5.825   0.038  1.5415 -1.1540  1.3616
 5326TIP3   OH237612   2.740   4.539   8.149  0.6735 -0.1936 -0.1624
 5326TIP3    H137613   2.664   4.481   8.153 -2.9082  3.7575 -2.1708
 5326TIP3    H237614   2.754   4.566   8.239 -0.2684 -1.0538  0.2729
 5327TIP3   OH237615   4.619   5.557   0.644  0.3242  0.0304  0.1174
 5327TIP3    H137616   4.595   5.606   0.722 -0.0637 -0.1430  0.1075
 5327TIP3    H237617   4.705   5.592   0.619  1.5190 -1.4164  1.8919
 5328TIP3   OH237618   3.778   1.852   8.349 -0.1733  0.1914 -0.2803
 5328TIP3    H137619   3.752   1.762   8.333 -0.9505  0.7289 -2.2510
 5328TIP3    H237620   3.697   1.898   8.368  0.2978  0.3763  1.4759
 5329TIP3   OH237621   3.471   1.654   1.416 -0.3040 -0.3029  0.1120
 5329TIP3    H137622   3.494   1.567   1.448  0.9128  0.4350  1.3652
 5329TIP3    H237623   3.429   1.639   1.332  1.8294 -1.9947 -0.7263
 5330TIP3   OH237624   3.527   5.520   0.766  0.1222 -0.3517  0.4338
 5330TIP3    H137625   3.581   5.584   0.720 -0.6980 -0.0601 -0.1369
 5330TIP3    H237626   3.492   5.567   0.841 -0.8276  0.0186 -0.2201
 5331TIP3   OH237627   4.878   5.440   0.180 -0.6599  0.2000  0.1190
 5331TIP3    H137628   4.784   5.460   0.183 -0.3029  2.1536 -0.0796
 5331TIP3    H237629   4.898   5.408   0.268 -1.1036  2.0702  0.9615
 5332TIP3   OH237630   4.621   4.135   7.857  0.0227  0.2209 -0.0553
 5332TIP3    H137631   4.705   4.150   7.812 -1.4737  2.0075 -2.4987
 5332TIP3    H237632   4.562   4.200   7.819 -2.3551 -0.6113  1.9972
 5333TIP3   OH237633   5.298   3.779   7.169  0.8180  0.5227 -0.5323
 5333TIP3    H137634   5.341   3.856   7.132  0.3826  2.9963  3.5423
 5333TIP3    H237635   5.205   3.801   7.167  0.6402 -0.1389  0.2440
 5334TIP3   OH237636   3.458   1.877   8.625  0.1330  0.1422  0.0841
 5334TIP3    H137637   3.480   1.941   8.557  2.4561 -1.2802 -0.6059
 5334TIP3    H237638   3.534   1.878   8.684 -0.1795 -1.3135  0.5457
 5335TIP3   OH237639   5.040   4.444   7.720  0.8720  0.1885 -0.1473
 5335TIP3    H137640   5.095   4.461   7.797  0.1252 -2.7179  1.1391
 5335TIP3    H237641   5.100   4.453   7.646  2.8248 -1.5178  1.1191
 5336TIP3   OH237642   1.650   1.818   2.038  0.1091  0.2548 -0.2162
 5336TIP3    H137643   1.704   1.755   2.086  1.3385  0.5494 -1.1501
 5336TIP3    H237644   1.664   1.796   1.945 -2.5232 -0.5743 -0.4947
 5337TIP3   OH237645   0.011   0.997   0.069 -0.3697  0.0251 -0.0538
 5337TIP3    H137646  -0.081   0.969   0.065 -0.0007 -1.1014 -1.2798
 5337TIP3    H237647   0.060   0.915   0.075  0.6759  0.4467 -2.2632
 5338TIP3   OH237648   1.888   0.041   0.866 -0.3146 -0.3311  0.2941
 5338TIP3    H137649   1.834   0.107   0.910 -0.5159 -1.1279  1.2658
 5338TIP3    H237650   1.860  -0.042   0.903  0.9579 -0.8397  0.1565
 5339TIP3   OH237651   5.526   0.982   0.269  0.0163 -0.4059  0.0736
 5339TIP3    H137652   5.461   1.052   0.278 -0.2197 -0.5797 -0.2615
 5339TIP3    H237653   5.527   0.939   0.355 -0.8010 -0.8231 -0.1147
 5340TIP3   OH237654   0.116   4.625   8.073  0.0388 -0.2584 -0.4198
 5340TIP3    H137655   0.047   4.686   8.048 -0.2742 -0.1118  0.7351
 5340TIP3    H237656   0.154   4.596   7.990 -1.4292 -0.3755 -1.0802
 5341TIP3   OH237657   4.735   3.243   7.963 -0.6534 -0.0397  0.1990
 5341TIP3    H137658   4.660   3.199   7.922  0.4420 -1.2043 -0.6340
 5341TIP3    H237659   4.716   3.336   7.953 -1.7880 -0.3129 -0.3821
 5342TIP3   OH237660   0.153   6.634   2.637  0.2054 -0.1008 -0.1179
 5342TIP3    H137661   0.153   6.672   2.549 -0.6666  0.7643  0.2374
 5342TIP3    H237662   0.068   6.658   2.673 -0.1187 -1.8473  0.3696
 5343TIP3   OH237663   5.652   1.281   1.657  0.6691 -0.6609  0.0386
 5343TIP3    H137664   5.746   1.267   1.659  0.7257 -0.8368 -2.1658
 5343TIP3    H237665   5.617   1.207   1.608 -0.5682 -0.2930  0.3209
 5344TIP3   OH237666   2.870   5.444   7.814 -0.4394 -0.1094  0.0259
 5344TIP3    H137667   2.886   5.407   7.727 -1.8549 -2.6585  0.7619
 5344TIP3    H237668   2.925   5.522   7.817  1.4549 -1.2336 -2.2900
 5345TIP3   OH237669   5.148   4.598   0.718  0.9471 -1.1196  0.1996
 5345TIP3    H137670   5.114   4.587   0.629  0.3217 -1.3675  0.4583
 5345TIP3    H237671   5.127   4.516   0.762 -0.7501 -0.2110  1.1926
 5346TIP3   OH237672   5.540   2.595   0.304  0.3867 -0.0047  0.0573
 5346TIP3    H137673   5.621   2.545   0.318 -0.2333 -1.6519 -1.7410
 5346TIP3    H237674   5.470   2.532   0.321 -0.4245  0.2165 -2.1660
 5347TIP3   OH237675   5.051   2.574   0.494  0.2580 -0.4284  0.3191
 5347TIP3    H137676   5.049   2.656   0.544 -1.0283  1.1578 -2.1379
 5347TIP3    H237677   5.030   2.506   0.559 -0.3929  1.3697  2.0967
 5348TIP3   OH237678   2.307   6.133   8.692  0.0269  0.5916 -0.6407
 5348TIP3    H137679   2.361   6.101   8.620 -1.1296  0.7378 -1.6072
 5348TIP3    H237680   2.290   6.224   8.672 -1.9445  0.1344 -1.2683
 5349TIP3   OH237681   4.419   4.204   0.519 -0.3259  0.9662 -0.0242
 5349TIP3    H137682   4.384   4.167   0.438  0.5767 -0.5628  0.2589
 5349TIP3    H237683   4.501   4.246   0.494 -0.0864  0.5633  0.0846
 5350TIP3   OH237684   6.330   1.984   2.586  0.9734  0.5898 -0.7911
 5350TIP3    H137685   6.353   2.076   2.573 -2.1181  1.6272  0.0579
 5350TIP3    H237686   6.236   1.986   2.603  0.7212 -2.8195 -1.2174
 5351TIP3   OH237687   4.482   4.569   7.589  0.1604 -0.1420  0.2625
 5351TIP3    H137688   4.405   4.512   7.598 -0.0363  0.1057  0.1476
 5351TIP3    H237689   4.557   4.510   7.600 -0.0381 -0.5052 -0.3036
 5352TIP3   OH237690   3.263   6.753   0.569  0.6221  0.8525  0.0068
 5352TIP3    H137691   3.278   6.686   0.635 -1.0067  0.5605  0.1071
 5352TIP3    H237692   3.303   6.717   0.489 -1.8160 -1.1417 -0.4174
 5353TIP3   OH237693   2.563   3.077   8.333 -0.1151  0.6414  0.1269
 5353TIP3    H137694   2.560   2.994   8.380  0.6985  0.2643 -0.4640
 5353TIP3    H237695   2.474   3.111   8.339 -1.2867 -1.6563 -2.0721
 5354TIP3   OH237696   5.507   6.252   1.762  0.1140  0.1358  0.1347
 5354TIP3    H137697   5.437   6.188   1.756  0.2520  0.0828 -1.1005
 5354TIP3    H237698   5.492   6.312   1.689 -0.5855  2.1348  1.8088
 5355TIP3   OH237699   3.154   2.135   7.477  0.3932  0.2625  0.0168
 5355TIP3    H137700   3.240   2.161   7.510  0.3009 -0.2709  0.7064
 5355TIP3    H237701   3.154   2.162   7.385  1.8979 -1.1318 -0.4462
 5356TIP3   OH237702   3.100   0.771   7.152  0.3980 -0.4691 -0.1812
 5356TIP3    H137703   3.194   0.769   7.132  0.4153  0.8764 -0.3703
 5356TIP3    H237704   3.096   0.809   7.240  0.0040  0.8165 -0.7200
 5357TIP3   OH237705   3.419   3.118   0.709 -0.3172 -0.0354 -0.4370
 5357TIP3    H137706   3.432   3.128   0.803  0.7636  0.2411 -0.6015
 5357TIP3    H237707   3.481   3.050   0.683  0.6063  1.0443 -1.1990
 5358TIP3   OH237708   5.711   2.247   7.964 -0.2315 -0.5804 -0.1517
 5358TIP3    H137709   5.795   2.289   7.945  0.5133 -1.9136  0.0727
 5358TIP3    H237710   5.659   2.315   8.006  0.6705  0.3187 -0.4522
 5359TIP3   OH237711   4.207   3.840   8.023 -0.2250  0.1845  0.4067
 5359TIP3    H137712   4.151   3.775   8.067 -2.1002  2.1947  1.1979
 5359TIP3    H237713   4.220   3.806   7.935 -3.7854  0.0937 -0.2277
 5360TIP3   OH237714   1.198   5.012   0.268 -0.1570 -0.1099  0.8880
 5360TIP3    H137715   1.211   5.101   0.300  0.0841 -0.1107  0.7990
 5360TIP3    H237716   1.221   4.956   0.343 -0.3177 -0.0975  0.9467
 5361TIP3   OH237717   2.780   4.507   7.873 -1.2249 -0.4858 -0.0476
 5361TIP3    H137718   2.834   4.449   7.818 -1.6954 -0.4056 -0.5955
 5361TIP3    H237719   2.809   4.487   7.962 -1.8282 -2.0520 -0.1662
 5362TIP3   OH237720   1.423   5.240   0.927  0.5110  0.1783 -0.3710
 5362TIP3    H137721   1.454   5.166   0.979  0.2885 -1.6004 -2.6038
 5362TIP3    H237722   1.340   5.266   0.967  0.0286 -1.5607 -0.1858
 5363TIP3   OH237723   3.474   6.699   7.951 -0.0035 -0.0851 -0.3144
 5363TIP3    H137724   3.524   6.728   8.027 -0.1387  1.5232 -0.7985
 5363TIP3    H237725   3.515   6.744   7.877 -1.0751 -0.1056 -0.9389
 5364TIP3   OH237726   1.752   5.436   2.738 -0.9427  0.1501 -0.5169
 5364TIP3    H137727   1.756   5.532   2.742 -0.2572  0.2193 -2.1850
 5364TIP3    H237728   1.802   5.413   2.659  1.2379 -1.7566  1.2741
 5365TIP3   OH237729   1.916   2.518   1.057  0.2019  0.0760  0.2991
 5365TIP3    H137730   2.003   2.498   1.092 -0.2180 -1.2515  0.6267
 5365TIP3    H237731   1.884   2.435   1.023 -1.9833 -0.0859  2.4631
 5366TIP3   OH237732   3.980   0.666   0.929 -0.4125 -0.4511  0.3991
 5366TIP3    H137733   4.005   0.580   0.895 -0.5551 -0.6720  0.8444
 5366TIP3    H237734   3.955   0.650   1.020  2.1350  0.4401  1.3673
 5367TIP3   OH237735   0.800   6.674   1.361 -0.4347 -0.3761  0.2677
 5367TIP3    H137736   0.825   6.752   1.410  0.7312  0.7106 -1.9507
 5367TIP3    H237737   0.716   6.697   1.321  0.1348 -0.0203 -0.7736
 5368TIP3   OH237738   6.393   1.555   1.623 -0.2776  0.2733 -0.1647
 5368TIP3    H137739   6.486   1.544   1.603 -0.0738  1.1140  0.2442
 5368TIP3    H237740   6.382   1.650   1.630 -1.3654  0.2458 -1.1117
 5369TIP3   OH237741   5.657   3.767   0.285 -0.1076 -0.2916  0.6435
 5369TIP3    H137742   5.695   3.791   0.200 -4.2515  1.5972 -0.9723
 5369TIP3    H237743   5.666   3.847   0.338 -1.8094  0.2972  0.1284
 5370TIP3   OH237744   1.712   3.875   7.581  0.2255  0.3433 -0.8730
 5370TIP3    H137745   1.794   3.923   7.595  1.0270 -1.5293  1.6509
 5370TIP3    H237746   1.729   3.823   7.502  1.5942 -0.1768 -0.2724
 5371TIP3   OH237747   6.076   0.349   7.510 -0.1982 -0.1868  0.0228
 5371TIP3    H137748   5.991   0.305   7.510 -0.3820  0.1355 -1.0046
 5371TIP3    H237749   6.064   0.424   7.568 -1.1749  0.8228 -1.3924
 5372TIP3   OH237750   6.436   6.535   2.011 -0.1962  0.4086  0.0219
 5372TIP3    H137751   6.489   6.584   1.947  2.5383 -1.0777  0.9482
 5372TIP3    H237752   6.487   6.540   2.092 -3.0437  1.3547  1.8763
 5373TIP3   OH237753   4.740   6.121   1.380 -0.0533 -0.5203 -0.0360
 5373TIP3    H137754   4.820   6.129   1.432 -0.1523  0.7035 -0.0466
 5373TIP3    H237755   4.674   6.089   1.442  0.0717 -0.0321  0.3588
 5374TIP3   OH237756   3.275   0.129   7.672  0.4330  0.8851 -0.2515
 5374TIP3    H137757   3.332   0.115   7.748 -0.0818 -0.8755 -0.1297
 5374TIP3    H237758   3.327   0.099   7.598 -0.9217 -2.9020  0.0832
 5375TIP3   OH237759   2.504   6.411   7.101 -0.3637  0.2331  0.1006
 5375TIP3    H137760   2.453   6.377   7.027 -1.8951  1.5996  0.4732
 5375TIP3    H237761   2.465   6.368   7.177 -0.5078  0.7589  0.3273
 5376TIP3   OH237762   4.471   2.255   1.468 -0.1101  0.2037 -0.1016
 5376TIP3    H137763   4.516   2.181   1.508 -1.9580 -0.7206  0.3879
 5376TIP3    H237764   4.467   2.233   1.375  0.8156  0.5032 -0.2160
 5377TIP3   OH237765   2.759   3.138   0.975  0.2533 -0.5104  0.1517
 5377TIP3    H137766   2.774   3.052   1.013  0.7503 -0.0917  0.9274
 5377TIP3    H237767   2.693   3.178   1.032 -1.1589 -0.9553 -1.1121
 5378TIP3   OH237768   0.347   5.734   1.009 -0.3225 -0.1468 -0.3845
 5378TIP3    H137769   0.397   5.803   1.053 -0.9179 -0.2502  0.4878
 5378TIP3    H237770   0.330   5.670   1.078 -1.9435  0.0527 -0.5555
 5379TIP3   OH237771   6.388   0.024   1.897  0.2643 -0.2019 -0.5634
 5379TIP3    H137772   6.342   0.026   1.981  0.8213  0.5255 -0.2681
 5379TIP3    H237773   6.321   0.050   1.833 -0.3253 -1.3479 -0.4447
 5380TIP3   OH237774   3.211   0.929   8.454  0.1344  0.1817  0.3522
 5380TIP3    H137775   3.248   0.890   8.376 -2.1017 -0.2946 -0.5330
 5380TIP3    H237776   3.248   0.878   8.526 -1.1585 -2.3137 -0.6551
 5381TIP3   OH237777   2.370   5.370   2.100  0.2295 -0.5390 -0.8559
 5381TIP3    H137778   2.359   5.310   2.174  1.0667  0.1789 -0.1210
 5381TIP3    H237779   2.407   5.315   2.030  0.6464 -0.9628 -0.3151
 5382TIP3   OH237780   3.064   0.950   8.097  0.3393 -0.0847  0.5260
 5382TIP3    H137781   3.007   0.982   8.167 -0.7608 -0.9951  0.0798
 5382TIP3    H237782   3.053   1.014   8.027  0.3768  0.0957  0.6833
 5383TIP3   OH237783   0.702   2.471   1.183  0.1019  0.5528  0.5105
 5383TIP3    H137784   0.654   2.390   1.204  0.9335  0.0977  0.7161
 5383TIP3    H237785   0.793   2.451   1.206  0.3836  1.4152  0.1765
 5384TIP3   OH237786   3.848   4.383   0.844  0.2901  0.9301 -0.2393
 5384TIP3    H137787   3.825   4.475   0.853  1.4131  1.4017 -1.8770
 5384TIP3    H237788   3.919   4.381   0.780 -0.4415 -1.1629 -1.0873
 5385TIP3   OH237789   6.298   0.610   2.039  0.2097  0.0140  0.8133
 5385TIP3    H137790   6.271   0.659   2.117  0.1322 -1.0529  1.4714
 5385TIP3    H237791   6.353   0.671   1.990 -0.1696  0.8755  1.4375
 5386TIP3   OH237792   5.969   5.359   0.222 -0.1973 -0.5449 -0.7145
 5386TIP3    H137793   5.883   5.401   0.221  0.0253 -0.0148  0.5777
 5386TIP3    H237794   5.979   5.328   0.312  1.7208  1.0445 -0.3223
 5387TIP3   OH237795   4.430   5.079   1.053  0.1037 -0.1551 -0.3729
 5387TIP3    H137796   4.361   5.014   1.040  1.5617 -1.6147 -1.3266
 5387TIP3    H237797   4.390   5.162   1.029 -0.9376 -1.1389 -2.3246
 5388TIP3   OH237798   1.612   1.749   1.162 -0.2097  0.2331  0.4080
 5388TIP3    H137799   1.622   1.677   1.225 -0.7115 -0.6360 -0.4729
 5388TIP3    H237800   1.523   1.738   1.128 -0.6503  1.8796  0.9649
 5389TIP3   OH237801   4.134   6.744   0.639 -0.0927  0.2320  0.6605
 5389TIP3    H137802   4.071   6.810   0.610 -0.0225 -0.4091 -1.0579
 5389TIP3    H237803   4.105   6.720   0.727 -2.7518 -0.6269 -0.3529
 5390TIP3   OH237804   6.698   1.503   1.927 -0.2005 -0.0327  0.8333
 5390TIP3    H137805   6.732   1.508   2.016 -1.1259 -0.5930  1.2369
 5390TIP3    H237806   6.637   1.576   1.920  0.1374  0.2254  0.5305
 5391TIP3   OH237807   3.693   4.939   8.334 -0.0161  0.1316  0.0234
 5391TIP3    H137808   3.732   4.852   8.339  0.1077  0.2076  0.4115
 5391TIP3    H237809   3.610   4.926   8.287  0.4981 -0.0223 -0.8715
 5392TIP3   OH237810   5.597   4.134   6.843 -0.2145 -0.4577  0.0694
 5392TIP3    H137811   5.620   4.218   6.804 -0.3249  0.3838  1.7304
 5392TIP3    H237812   5.680   4.088   6.851  0.0644  0.1099  0.5127
 5393TIP3   OH237813   1.197   2.685   0.771 -0.2645  0.2305 -0.0571
 5393TIP3    H137814   1.194   2.778   0.749 -1.8438 -0.2291 -1.9973
 5393TIP3    H237815   1.119   2.670   0.823 -2.4062 -0.7174 -3.2380
 5394TIP3   OH237816   6.517   2.631   2.128  0.2411 -0.3913  0.0763
 5394TIP3    H137817   6.538   2.624   2.221  1.5064  1.0406 -0.0722
 5394TIP3    H237818   6.491   2.722   2.116  1.5936 -0.1494 -1.2549
 5395TIP3   OH237819   2.678   3.095   0.394  0.3679 -0.0034  0.4028
 5395TIP3    H137820   2.757   3.080   0.343  1.5237  0.8105  1.8808
 5395TIP3    H237821   2.656   3.010   0.431  0.5785 -0.2168  0.0363
 5396TIP3   OH237822   3.847   1.862   7.485  0.0932  0.1361  0.1672
 5396TIP3    H137823   3.866   1.925   7.416 -0.8963  0.4422  0.1728
 5396TIP3    H237824   3.929   1.813   7.496 -0.1009 -0.8360 -2.1742
 5397TIP3   OH237825   5.490   2.849   7.043 -0.3604 -0.5292  0.4903
 5397TIP3    H137826   5.451   2.894   6.969 -0.2308  0.6685  1.1231
 5397TIP3    H237827   5.447   2.764   7.045 -0.4787 -0.5202 -0.8487
 5398TIP3   OH237828   3.713   5.003   1.261 -0.3445 -0.2277 -0.1580
 5398TIP3    H137829   3.790   5.057   1.276 -0.3067 -0.3553  0.1098
 5398TIP3    H237830   3.701   5.004   1.165  0.7364 -1.2339 -0.3194
 5399TIP3   OH237831   5.581   6.866   7.460  0.2254 -0.5505 -0.4928
 5399TIP3    H137832   5.579   6.957   7.433  1.0515 -0.4688 -0.2905
 5399TIP3    H237833   5.664   6.832   7.428  0.9595 -0.6244  1.3377
 5400TIP3   OH237834   0.121   1.319   8.496 -0.1803 -0.5507 -0.4250
 5400TIP3    H137835   0.187   1.313   8.427 -0.4686  1.5872 -0.9836
 5400TIP3    H237836   0.155   1.265   8.568  2.1151  0.3567 -0.7424
 5401TIP3   OH237837   0.660   6.150   0.958 -0.0988 -0.7132 -0.0425
 5401TIP3    H137838   0.644   6.243   0.974  1.3568 -0.3999 -0.1964
 5401TIP3    H237839   0.591   6.123   0.897  0.5689  0.7681 -1.5247
 5402TIP3   OH237840   3.954   1.246   8.486 -0.0796 -0.2750  0.2438
 5402TIP3    H137841   3.880   1.208   8.439  0.6922 -0.8797 -0.5348
 5402TIP3    H237842   4.020   1.176   8.487  0.9804  0.6808 -0.2839
 5403TIP3   OH237843   1.916   4.738   7.968 -0.1671 -0.1376  0.5358
 5403TIP3    H137844   1.835   4.766   8.011 -0.5495 -0.0598 -0.2025
 5403TIP3    H237845   1.893   4.656   7.925  0.2800 -0.3507  0.7020
 5404TIP3   OH237846   3.882   2.530   7.645 -0.1124 -0.5319 -0.1087
 5404TIP3    H137847   3.976   2.545   7.648 -0.3267  1.0974 -0.4670
 5404TIP3    H237848   3.847   2.605   7.596 -1.8143  0.0400  1.8398
 5405TIP3   OH237849   3.958   0.691   8.705  0.1721 -0.1335 -0.0163
 5405TIP3    H137850   4.018   0.616   8.700  0.2486 -0.1177  0.6567
 5405TIP3    H237851   3.949   0.709   8.798 -3.2087 -2.0188  0.1721
 5406TIP3   OH237852   0.361   1.160   7.564  0.2805 -0.1869  0.0426
 5406TIP3    H137853   0.448   1.170   7.525  0.2686 -0.5710 -0.0901
 5406TIP3    H237854   0.351   1.065   7.575 -0.7552 -0.2727 -1.3852
 5407TIP3   OH237855   3.994   5.742   0.909 -0.7523  0.0381 -0.5856
 5407TIP3    H137856   3.935   5.784   0.971 -0.8761  3.7937 -2.9549
 5407TIP3    H237857   3.942   5.734   0.829  0.3541 -1.6793 -1.1905
 5408TIP3   OH237858   4.166   3.364   7.845  0.1430 -0.6642 -0.1506
 5408TIP3    H137859   4.172   3.375   7.940  1.8621  0.4395 -0.3426
 5408TIP3    H237860   4.130   3.447   7.814  1.2411 -0.3280 -0.5806
 5409TIP3   OH237861   6.293   0.109   2.317 -0.1630 -0.2952 -0.1225
 5409TIP3    H137862   6.266   0.037   2.374  0.6270 -0.1861  0.4020
 5409TIP3    H237863   6.281   0.075   2.228  1.4342 -1.5777  0.1004
 5410TIP3   OH237864   1.639   2.592   1.769 -0.0294  1.2381  0.4292
 5410TIP3    H137865   1.586   2.514   1.783 -0.9088  1.8814  0.8130
 5410TIP3    H237866   1.669   2.617   1.856  0.1093  1.4182  0.3307
 5411TIP3   OH237867   4.639   4.850   1.948 -0.1730  0.0480 -0.9380
 5411TIP3    H137868   4.615   4.765   1.913  0.6039 -0.7847  0.4752
 5411TIP3    H237869   4.634   4.840   2.043 -0.2420  1.6405 -0.7328
 5412TIP3   OH237870   5.771   2.963   8.320  0.4010 -0.2068  0.2490
 5412TIP3    H137871   5.694   2.996   8.366  0.2895  0.2128 -0.2312
 5412TIP3    H237872   5.740   2.886   8.273  0.3517 -0.2301  0.3188
 5413TIP3   OH237873   5.453   6.187   7.254  0.6109 -0.4383  0.4822
 5413TIP3    H137874   5.452   6.265   7.198 -0.7607 -0.3386  0.6143
 5413TIP3    H237875   5.466   6.221   7.342 -1.0711 -0.2223  0.6807
 5414TIP3   OH237876   4.055   4.072   0.459  0.4266  0.1764  0.2542
 5414TIP3    H137877   4.000   4.089   0.382 -1.4255 -1.7921  1.0451
 5414TIP3    H237878   4.137   4.040   0.424 -0.4416 -0.8305 -0.9320
 5415TIP3   OH237879   6.334   4.951   7.086  0.4499  0.0261 -0.4727
 5415TIP3    H137880   6.353   4.862   7.054 -0.5673  0.3042 -1.9264
 5415TIP3    H237881   6.264   4.982   7.030  0.9449  1.8639 -0.1270
 5416TIP3   OH237882   5.292   6.607   1.385 -0.7225 -0.1630 -0.2192
 5416TIP3    H137883   5.305   6.701   1.376 -1.3438 -0.1003 -0.4972
 5416TIP3    H237884   5.261   6.596   1.475  2.1033 -0.4233  0.8273
 5417TIP3   OH237885   1.165   5.925   0.544 -0.3253 -0.2873  0.0956
 5417TIP3    H137886   1.223   5.870   0.492  0.3735 -1.0184  1.5965
 5417TIP3    H237887   1.218   6.002   0.565 -0.4015 -0.2736  0.2360
 5418TIP3   OH237888   2.616   0.169   1.091  0.6406 -0.1569 -0.5869
 5418TIP3    H137889   2.655   0.186   1.005  0.9449 -0.5309 -0.5282
 5418TIP3    H237890   2.556   0.096   1.076 -0.7106  0.9782 -0.8528
 5419TIP3   OH237891   4.336   6.827   6.717  0.1448  0.0757  0.2066
 5419TIP3    H137892   4.367   6.861   6.633  1.4498 -2.3639 -0.3858
 5419TIP3    H237893   4.416   6.806   6.766 -0.5984 -0.0398  1.4249
 5420TIP3   OH237894   3.142   6.654   0.879  0.4748  0.1946  0.2280
 5420TIP3    H137895   3.236   6.654   0.865  0.4878 -0.3958  0.3084
 5420TIP3    H237896   3.123   6.739   0.919  1.0952 -0.0516  1.0577
 5421TIP3   OH237897   3.964   6.598   7.257 -0.0428 -0.0876  0.5047
 5421TIP3    H137898   3.914   6.679   7.254  0.1324  0.0320  0.7297
 5421TIP3    H237899   4.003   6.598   7.345  0.9422  0.1843  0.0763
 5422TIP3   OH237900   6.627   5.984   8.173  0.0672  0.2600  0.1551
 5422TIP3    H137901   6.664   6.013   8.257 -0.4665 -0.9617  0.8459
 5422TIP3    H237902   6.654   5.892   8.166 -1.6455 -0.2684  0.0133
 5423TIP3   OH237903   5.262   1.695   0.935  0.0941  0.8723 -0.3944
 5423TIP3    H137904   5.233   1.614   0.891 -0.4054  1.7360 -1.7419
 5423TIP3    H237905   5.296   1.666   1.019 -1.4486 -0.5973 -0.2225
 5424TIP3   OH237906   5.415   5.528   8.045  0.4916  0.6111  0.0886
 5424TIP3    H137907   5.345   5.591   8.031  0.5224  1.2429  2.4256
 5424TIP3    H237908   5.445   5.544   8.134  1.5121 -1.7377  0.2461
 5425TIP3   OH237909   5.665   5.959   6.477 -0.1911  0.3485 -0.6663
 5425TIP3    H137910   5.631   5.978   6.565  0.3218 -2.0264  0.1177
 5425TIP3    H237911   5.749   6.005   6.473  0.4820 -0.6696  0.7080
 5426TIP3   OH237912   0.209   1.375   8.031  0.7185  0.3061 -0.0973
 5426TIP3    H137913   0.301   1.389   8.008  0.5090 -1.6537 -2.6315
 5426TIP3    H237914   0.210   1.301   8.091  0.7862 -0.0030 -0.4756
 5427TIP3   OH237915   1.178   3.217   7.872 -0.4316 -0.1451  0.4916
 5427TIP3    H137916   1.104   3.236   7.815 -0.1541 -0.9533 -0.1684
 5427TIP3    H237917   1.255   3.229   7.816 -0.0531  0.6557  1.1585
 5428TIP3   OH237918   6.857   0.299   0.033  0.1255  0.2423  0.2483
 5428TIP3    H137919   6.773   0.290   0.079 -0.1974  0.5573 -0.2703
 5428TIP3    H237920   6.882   0.390   0.048  0.3455  0.1691  0.3375
 5429TIP3   OH237921   4.745   0.997   0.136  0.0600 -0.5815  0.1829
 5429TIP3    H137922   4.778   1.025   0.221 -1.1928  0.7335  0.2774
 5429TIP3    H237923   4.822   0.967   0.088  1.8732  4.2310 -0.4153
 5430TIP3   OH237924   5.405   6.309   8.062 -0.2024 -0.2293 -0.3932
 5430TIP3    H137925   5.409   6.361   7.982  0.5561  0.9070  0.3580
 5430TIP3    H237926   5.314   6.320   8.092 -0.6724 -1.1670 -1.3970
 5431TIP3   OH237927   0.813   0.326   0.340 -0.1604 -0.7439 -0.0871
 5431TIP3    H137928   0.792   0.238   0.307 -0.3150 -0.7960  0.1466
 5431TIP3    H237929   0.893   0.314   0.391 -0.0365 -0.7012 -0.2710
 5432TIP3   OH237930   6.268   6.164   2.103 -0.4454  0.3511 -0.0925
 5432TIP3    H137931   6.232   6.246   2.068  0.2715  1.0671  0.7903
 5432TIP3    H237932   6.358   6.162   2.070 -0.3985  0.0222  0.0603
 5433TIP3   OH237933   1.341   0.581   2.018  0.0791 -0.1103  0.2607
 5433TIP3    H137934   1.356   0.576   2.112 -0.8897  0.2062  0.4452
 5433TIP3    H237935   1.423   0.615   1.982 -0.4652  2.5197  1.2989
 5434TIP3   OH237936   3.847   1.169   2.039  0.0755 -0.2379  0.5220
 5434TIP3    H137937   3.810   1.090   2.000 -2.3126  0.5828  0.9344
 5434TIP3    H237938   3.893   1.138   2.117  0.1562 -1.3273  0.0479
 5435TIP3   OH237939   6.438   2.100   7.752  0.3766 -0.1739  0.1670
 5435TIP3    H137940   6.358   2.124   7.705 -0.1079  0.8421  1.4316
 5435TIP3    H237941   6.490   2.052   7.688 -1.1054 -0.5923 -0.7859
 5436TIP3   OH237942   2.759   6.546   0.566 -0.2615  0.7137  0.4754
 5436TIP3    H137943   2.822   6.617   0.577  0.0780  0.6029 -0.6489
 5436TIP3    H237944   2.732   6.524   0.656 -0.1584  2.0544  0.8589
 5437TIP3   OH237945   2.941   1.561   1.231 -0.2999  0.7211 -0.4534
 5437TIP3    H137946   3.030   1.568   1.198 -0.4989 -0.8079 -1.4332
 5437TIP3    H237947   2.886   1.597   1.162 -0.5488 -0.1354 -0.7218
 5438TIP3   OH237948   4.667   2.300   0.561  0.1115 -0.6786 -0.7165
 5438TIP3    H137949   4.623   2.247   0.627 -0.6821  0.7743 -0.0379
 5438TIP3    H237950   4.656   2.391   0.591  2.0114 -0.1487 -1.4775
 5439TIP3   OH237951   3.528   4.326   1.338  0.2117  0.2015 -0.1405
 5439TIP3    H137952   3.467   4.265   1.297 -0.1819  0.5853 -0.1354
 5439TIP3    H237953   3.472   4.394   1.375  0.6577  0.6841 -0.3432
 5440TIP3   OH237954   0.799   6.087   6.937  0.1118  0.4969  0.1958
 5440TIP3    H137955   0.854   6.014   6.909  0.7504  0.9983  0.1117
 5440TIP3    H237956   0.855   6.140   6.994  0.0515  1.5542 -0.6798
 5441TIP3   OH237957   1.079   0.702   1.960  0.6470  0.5255  0.0149
 5441TIP3    H137958   1.030   0.627   1.993 -0.9984  1.6917  0.3806
 5441TIP3    H237959   1.171   0.681   1.977  0.3783 -1.9744 -1.1312
 5442TIP3   OH237960   4.381   3.681   0.149 -0.1221  0.5569 -0.1709
 5442TIP3    H137961   4.342   3.602   0.113 -2.7900  1.7081 -0.0179
 5442TIP3    H237962   4.352   3.751   0.091 -0.7144  1.8524  1.5883
 5443TIP3   OH237963   5.038   3.837   0.107  0.1000  0.2308 -0.1385
 5443TIP3    H137964   5.083   3.897   0.048 -1.3274 -0.5780 -2.1571
 5443TIP3    H237965   5.089   3.756   0.104 -0.3221 -0.0191 -0.8058
 5444TIP3   OH237966   4.859   5.807   8.372 -0.0344  0.4318  0.6114
 5444TIP3    H137967   4.864   5.738   8.437 -0.1540 -0.3108 -0.1468
 5444TIP3    H237968   4.874   5.888   8.421 -0.9540 -0.0267  1.6930
 5445TIP3   OH237969   3.906   3.986   7.861 -0.0374  0.1722  0.8709
 5445TIP3    H137970   3.876   3.901   7.893  0.2522 -1.5228 -2.8357
 5445TIP3    H237971   3.986   3.966   7.812 -0.4789  2.4070 -0.9387
 5446TIP3   OH237972   4.220   4.562   1.279 -0.4377 -0.2084  0.6572
 5446TIP3    H137973   4.128   4.538   1.264 -0.5872 -0.8459  2.3795
 5446TIP3    H237974   4.261   4.482   1.310  0.5809  0.2262  0.4748
 5447TIP3   OH237975   3.234   1.491   8.357 -0.1659  0.0077 -0.3836
 5447TIP3    H137976   3.297   1.476   8.428  0.3641 -1.4323 -1.1429
 5447TIP3    H237977   3.271   1.565   8.308  1.4252 -1.3672 -1.3341
 5448TIP3   OH237978   2.884   3.682   0.356  0.5842 -0.0501 -0.1400
 5448TIP3    H137979   2.960   3.720   0.312 -0.4336  0.6647 -1.3298
 5448TIP3    H237980   2.881   3.592   0.325  1.1863 -0.2164  0.2610
 5449TIP3   OH237981   2.673   5.295   7.988  0.0420 -0.1250  0.4644
 5449TIP3    H137982   2.694   5.202   7.981  2.1022  0.0363  3.0608
 5449TIP3    H237983   2.753   5.340   7.960 -1.1175  0.9736 -1.3511
 5450TIP3   OH237984   5.552   0.279   1.004  0.2423 -0.0826 -0.6753
 5450TIP3    H137985   5.594   0.195   0.984 -0.5196 -1.1242  1.6694
 5450TIP3    H237986   5.622   0.335   1.036  0.3225 -0.8716  0.5874
 5451TIP3   OH237987   1.058   5.405   0.575 -0.1926 -0.3706 -0.1094
 5451TIP3    H137988   1.088   5.496   0.568 -0.4169 -0.3417 -0.7816
 5451TIP3    H237989   1.058   5.386   0.669 -1.2611  0.6913  0.1197
 5452TIP3   OH237990   2.315   3.130   7.641 -0.6450  0.3374 -0.7711
 5452TIP3    H137991   2.289   3.072   7.713  0.0696  0.9464 -0.0003
 5452TIP3    H237992   2.291   3.082   7.562 -1.2551 -0.4411 -0.1302
 5453TIP3   OH237993   4.124   6.255   1.373  0.4285  0.1639 -0.4691
 5453TIP3    H137994   4.139   6.290   1.461 -0.7359 -0.8428  0.1731
 5453TIP3    H237995   4.028   6.252   1.365  0.5150 -1.0025 -1.2441
 5454TIP3   OH237996   5.572   1.054   7.633  0.2596  0.1249  0.3477
 5454TIP3    H137997   5.546   1.128   7.688 -1.3580  1.1438 -1.6339
 5454TIP3    H237998   5.494   0.998   7.630  0.4404 -0.1025 -0.5313
 5455TIP3   OH237999   5.490   5.187   8.245 -0.3583  0.0025 -0.2864
 5455TIP3    H138000   5.559   5.237   8.200  0.6891 -0.2859  0.9314
 5455TIP3    H238001   5.485   5.226   8.332  0.2050 -1.7087  0.5600
 5456TIP3   OH238002   1.605   5.593   1.717 -0.7396 -0.2657 -0.7475
 5456TIP3    H138003   1.639   5.649   1.788 -1.5375 -0.6568 -0.0460
 5456TIP3    H238004   1.658   5.617   1.641  0.8697 -0.5955  0.2207
 5457TIP3   OH238005   4.864   2.455   1.801 -0.4316  0.3408  0.3282
 5457TIP3    H138006   4.909   2.536   1.824  1.6013 -0.6130 -0.0413
 5457TIP3    H238007   4.890   2.438   1.710 -0.4670 -0.9543  0.5477
 5458TIP3   OH238008   6.763   2.306   2.333 -0.3730 -0.1867  0.1580
 5458TIP3    H138009   6.698   2.276   2.397 -1.5565 -1.3067 -1.5157
 5458TIP3    H238010   6.848   2.281   2.371 -1.1052 -1.7074  0.8357
 5459TIP3   OH238011   2.819   1.793   2.285 -0.2322 -0.3010  0.2249
 5459TIP3    H138012   2.803   1.809   2.378  1.0194  2.1453  0.0834
 5459TIP3    H238013   2.760   1.852   2.240  3.0982  2.9012 -0.3631
 5460TIP3   OH238014   1.813   5.154   6.420  0.0559  0.4958  0.3426
 5460TIP3    H138015   1.833   5.157   6.513 -0.8546 -0.7393  0.6069
 5460TIP3    H238016   1.763   5.234   6.403 -0.7130  0.2016  1.1570
 5461TIP3   OH238017   1.917   5.958   1.709 -0.7492  0.1823 -0.1217
 5461TIP3    H138018   1.917   5.994   1.797 -0.5711 -0.6626  0.2278
 5461TIP3    H238019   1.862   6.018   1.659  0.1117  1.3419  0.2753
 5462TIP3   OH238020   0.432   6.021   8.031 -0.1854 -0.4137  0.5285
 5462TIP3    H138021   0.388   6.104   8.017 -0.3149 -0.5935 -0.1705
 5462TIP3    H238022   0.457   6.022   8.123  0.0027  0.4862  0.4729
 5463TIP3   OH238023   4.509   3.373   8.527 -0.3690 -0.0729  0.1961
 5463TIP3    H138024   4.579   3.427   8.491  2.1281 -1.8679  2.1009
 5463TIP3    H238025   4.552   3.294   8.558 -3.4686 -1.9057  0.2186
 5464TIP3   OH238026   5.871   3.184   1.530 -0.4238  0.3428 -0.2479
 5464TIP3    H138027   5.854   3.224   1.615  1.8838 -0.3022  0.5898
 5464TIP3    H238028   5.847   3.092   1.541  1.1688 -0.0455  0.1863
 5465TIP3   OH238029   1.382   3.378   2.832  0.2324  0.1971  0.2957
 5465TIP3    H138030   1.290   3.359   2.812  0.3597 -1.3535  0.9874
 5465TIP3    H238031   1.432   3.315   2.780  0.7530 -0.8662  2.0027
 5466TIP3   OH238032   2.631   5.878   1.931  0.2612 -0.3793 -0.0453
 5466TIP3    H138033   2.663   5.794   1.965 -0.2764 -1.1167 -1.2763
 5466TIP3    H238034   2.637   5.868   1.836  1.4885  1.5017 -0.2257
 5467TIP3   OH238035   5.436   6.016   7.891  0.0429  0.4156 -0.4047
 5467TIP3    H138036   5.529   5.999   7.873 -0.5197 -1.5022 -1.6787
 5467TIP3    H238037   5.437   6.098   7.941  2.6117 -0.7817  1.8080
 5468TIP3   OH238038   4.805   4.405   7.042  0.0730  0.0145 -0.2934
 5468TIP3    H138039   4.792   4.417   7.136  1.3577  2.0839 -0.3091
 5468TIP3    H238040   4.842   4.317   7.034  1.0171  0.2247  1.2983
 5469TIP3   OH238041   2.454   0.834   1.380  0.4180  0.6029  0.1507
 5469TIP3    H138042   2.380   0.800   1.329  0.3224  0.4727  0.3730
 5469TIP3    H238043   2.440   0.928   1.382  1.9117  0.9739 -2.4215
 5470TIP3   OH238044   0.682   3.098   1.295 -0.7103  0.2921 -0.0715
 5470TIP3    H138045   0.751   3.033   1.279 -0.8465  0.7393 -3.0987
 5470TIP3    H238046   0.610   3.072   1.237 -1.7887  1.6885  0.5629
 5471TIP3   OH238047   1.027   0.588   0.850 -0.0209 -0.1635  0.0299
 5471TIP3    H138048   1.026   0.493   0.861 -0.0296 -0.1296  0.3330
 5471TIP3    H238049   0.944   0.617   0.889 -1.7426 -0.3435 -3.1430
 5472TIP3   OH238050   5.588   5.789   7.384  0.3005 -0.3460  0.1306
 5472TIP3    H138051   5.583   5.758   7.474  0.4758  0.9593  0.6132
 5472TIP3    H238052   5.511   5.751   7.341  0.3156 -1.1310  0.7734
 5473TIP3   OH238053   4.089   4.721   8.112 -0.0797  0.2097  0.3538
 5473TIP3    H138054   4.078   4.748   8.021  1.2799 -0.8676 -0.1629
 5473TIP3    H238055   4.025   4.651   8.125 -0.0613  0.1484  0.1180
 5474TIP3   OH238056   1.255   6.547   8.387 -0.5623 -0.0692 -0.1317
 5474TIP3    H138057   1.260   6.574   8.295  1.1870 -0.8526 -0.3208
 5474TIP3    H238058   1.205   6.465   8.385  1.5145 -1.4107 -0.7917
 5475TIP3   OH238059   6.362   3.077   7.967 -0.0196 -0.0440 -0.5854
 5475TIP3    H138060   6.452   3.082   7.999 -0.7512 -1.3873  1.9452
 5475TIP3    H238061   6.312   3.041   8.040 -2.6714  0.7846 -1.8472
 5476TIP3   OH238062   3.167   6.618   1.442  0.2165  0.8745  0.4002
 5476TIP3    H138063   3.242   6.603   1.499  0.3384 -1.1326 -0.1910
 5476TIP3    H238064   3.091   6.616   1.501  0.4682  0.5896  0.7185
 5477TIP3   OH238065   0.836   0.892   2.295 -0.0158 -0.3215  0.8688
 5477TIP3    H138066   0.860   0.803   2.323 -1.6234 -0.4344  2.0532
 5477TIP3    H238067   0.827   0.886   2.200 -2.8730 -2.2363  1.1172
 5478TIP3   OH238068   1.276   0.069   8.409  0.3608 -0.3427  0.0191
 5478TIP3    H138069   1.229   0.151   8.425 -2.7892 -1.7739 -1.0479
 5478TIP3    H238070   1.271   0.021   8.491  0.9411 -0.0504  0.2267
 5479TIP3   OH238071   1.162   3.545   0.357 -0.9794 -0.3898 -0.4047
 5479TIP3    H138072   1.132   3.599   0.285 -0.7443 -1.6571 -1.5002
 5479TIP3    H238073   1.257   3.559   0.361 -0.6745 -1.8259 -1.7037
 5480TIP3   OH238074   5.960   3.441   8.581  0.0187  0.6614  0.6868
 5480TIP3    H138075   6.047   3.468   8.553  0.2005 -0.0407  0.5612
 5480TIP3    H238076   5.957   3.347   8.564 -0.6234  0.6081  1.0548
 5481TIP3   OH238077   6.007   4.997   2.186 -0.5517  0.4634  0.1757
 5481TIP3    H138078   5.994   4.925   2.247  0.7918 -0.6947 -0.8422
 5481TIP3    H238079   6.086   5.040   2.217 -2.3082  2.7404  1.8671
 5482TIP3   OH238080   3.415   5.988   7.632 -0.2803 -0.6871  0.0032
 5482TIP3    H138081   3.412   6.046   7.556 -1.1571 -0.2510  0.3590
 5482TIP3    H238082   3.449   6.044   7.703 -1.4945 -0.4801  0.4429
 5483TIP3   OH238083   1.963   4.296   7.665 -0.2350 -0.0834  0.1473
 5483TIP3    H138084   1.999   4.208   7.671  0.8440  0.1700 -1.8561
 5483TIP3    H238085   2.037   4.354   7.681 -0.6992  0.4763  0.3213
 5484TIP3   OH238086   2.816   4.273   8.676 -0.9506 -0.7461  0.5443
 5484TIP3    H138087   2.840   4.303   8.763 -1.3590  1.4051 -0.0195
 5484TIP3    H238088   2.767   4.192   8.691  0.8234 -1.6128  2.1218
 5485TIP3   OH238089   5.501   5.920   8.273  0.6846 -0.0883  0.0665
 5485TIP3    H138090   5.480   5.829   8.251  0.2694 -0.1836  0.8286
 5485TIP3    H238091   5.545   5.914   8.358 -1.2830  0.5919  1.1971
 5486TIP3   OH238092   4.598   3.862   7.893  0.0186 -0.0247  0.0898
 5486TIP3    H138093   4.683   3.843   7.933  0.0816  0.5738  0.2486
 5486TIP3    H238094   4.594   3.957   7.889 -0.8402 -0.0344  0.4978
 5487TIP3   OH238095   4.698   2.637   6.935 -0.3613  0.1713  0.6477
 5487TIP3    H138096   4.681   2.587   7.014  0.8961 -2.0635 -0.4067
 5487TIP3    H238097   4.650   2.591   6.866  1.7555 -0.3652 -0.5662
 5488TIP3   OH238098   1.761   5.705   2.788 -0.0765  0.3374  0.5272
 5488TIP3    H138099   1.818   5.734   2.858 -2.6827  0.2243  2.8744
 5488TIP3    H238100   1.690   5.770   2.786 -1.2577 -0.9238 -0.4016
 5489TIP3   OH238101   3.191   5.949   1.893 -0.4095  0.2316  0.1518
 5489TIP3    H138102   3.120   5.931   1.830 -1.8445  0.4205  1.6384
 5489TIP3    H238103   3.183   6.043   1.910  0.9916  0.5045 -0.5248
 5490TIP3   OH238104   2.636   0.732   1.069  1.1152  0.1995 -0.3602
 5490TIP3    H138105   2.715   0.767   1.112  2.0040 -1.8389 -0.2369
 5490TIP3    H238106   2.669   0.687   0.992  0.2567 -1.8845  0.4223
 5491TIP3   OH238107   1.167   2.505   1.268  0.4141 -0.7330 -0.3603
 5491TIP3    H138108   1.080   2.472   1.288  0.4964 -0.6056  0.2238
 5491TIP3    H238109   1.226   2.451   1.321  0.5605  0.2608  0.5328
 5492TIP3   OH238110   1.576   6.819   2.155  0.0454  0.0571  0.3181
 5492TIP3    H138111   1.640   6.882   2.187  1.4303 -1.0729 -0.0960
 5492TIP3    H238112   1.580   6.826   2.060 -0.9724  0.4532  0.2930
 5493TIP3   OH238113   0.816   4.471   2.207  0.0561  0.4369 -0.3086
 5493TIP3    H138114   0.889   4.478   2.269  0.3440 -0.2151 -0.5649
 5493TIP3    H238115   0.755   4.411   2.250 -0.0823  0.5595 -0.3343
 5494TIP3   OH238116   0.250   3.874   8.199 -0.3614 -0.9398  0.3189
 5494TIP3    H138117   0.334   3.850   8.236  1.0306  3.6098  0.7853
 5494TIP3    H238118   0.271   3.939   8.132 -3.4411  1.2192  1.2113
 5495TIP3   OH238119   0.320   4.360   8.536  0.2359 -0.2230 -0.2530
 5495TIP3    H138120   0.310   4.443   8.489 -1.9119 -1.4668 -2.1707
 5495TIP3    H238121   0.372   4.306   8.477  0.6477 -0.6370  0.4756
 5496TIP3   OH238122   0.613   3.408   7.784  0.6211  0.2093  0.2142
 5496TIP3    H138123   0.605   3.331   7.728 -0.6683 -0.2769  1.0103
 5496TIP3    H238124   0.703   3.403   7.818  0.6005 -0.8986  0.1638
 5497TIP3   OH238125   4.261   1.643   8.166 -0.7874 -0.0682 -0.4921
 5497TIP3    H138126   4.231   1.733   8.155  1.0401  0.5295 -0.9456
 5497TIP3    H238127   4.330   1.649   8.232 -0.1067 -1.0083 -1.1010
 5498TIP3   OH238128   5.172   6.108   0.362 -0.3195 -0.5305  0.2433
 5498TIP3    H138129   5.263   6.129   0.383  0.3789 -1.6608 -1.3924
 5498TIP3    H238130   5.158   6.147   0.275 -1.0959 -1.1251  0.0840
 5499TIP3   OH238131   5.786   2.755   2.774 -0.6894 -0.5154 -0.5168
 5499TIP3    H138132   5.784   2.660   2.776 -1.1693 -0.5181 -0.7731
 5499TIP3    H238133   5.875   2.779   2.799 -0.5389 -1.0337 -0.5610
 5500TIP3   OH238134   5.179   6.196   8.453  0.1049 -0.0858 -0.1487
 5500TIP3    H138135   5.183   6.284   8.416  0.2478 -0.4020 -0.9013
 5500TIP3    H238136   5.248   6.195   8.519  0.5639  0.1491 -0.6166
 5501TIP3   OH238137   4.271   0.106   0.831 -0.4207 -0.0659 -0.0942
 5501TIP3    H138138   4.219   0.105   0.751 -0.2272 -2.0577 -0.2573
 5501TIP3    H238139   4.351   0.154   0.807  0.0723 -1.4620 -1.4450
 5502TIP3   OH238140   6.548   5.394   7.447 -0.2346  0.0939  0.2293
 5502TIP3    H138141   6.614   5.442   7.397 -0.0180 -0.3202  0.1103
 5502TIP3    H238142   6.488   5.461   7.479 -1.3805  0.2427 -2.0410
 5503TIP3   OH238143   4.862   0.484   1.208  0.3407  0.0530  0.2752
 5503TIP3    H138144   4.834   0.550   1.271 -1.3263 -0.2533 -0.0783
 5503TIP3    H238145   4.844   0.523   1.122  1.4143 -0.0179  0.0071
 5504TIP3   OH238146   3.072   1.445   0.197 -0.0627  0.7073  0.0095
 5504TIP3    H138147   3.015   1.478   0.267 -0.1145 -0.0644  0.3364
 5504TIP3    H238148   3.160   1.449   0.234  0.1191  1.9373 -0.5100
 5505TIP3   OH238149   6.271   5.522   1.805 -0.4998 -0.1743 -0.0419
 5505TIP3    H138150   6.316   5.495   1.885 -0.5809 -2.1785 -0.6175
 5505TIP3    H238151   6.186   5.555   1.834 -1.2882 -2.6288  0.6138
 5506TIP3   OH238152   1.396   5.775   6.420  0.3287  0.1996  0.1869
 5506TIP3    H138153   1.440   5.838   6.363  0.7815  1.8506  2.2376
 5506TIP3    H238154   1.310   5.815   6.438  1.1824  1.1229  2.7232
 5507TIP3   OH238155   2.694   4.831   2.274 -0.0647 -0.2482  0.3229
 5507TIP3    H138156   2.753   4.784   2.332 -0.4034 -0.8883  0.1573
 5507TIP3    H238157   2.628   4.869   2.332 -0.0120 -0.3074  0.4219
 5508TIP3   OH238158   5.357   2.069   7.402 -0.5234 -0.1656  0.6579
 5508TIP3    H138159   5.268   2.083   7.371 -0.1047 -0.0186 -0.5291
 5508TIP3    H238160   5.391   2.157   7.418 -0.1285 -0.1311 -0.2892
 5509TIP3   OH238161   0.966   0.854   0.621  0.2250  0.4184 -0.2494
 5509TIP3    H138162   0.930   0.938   0.594 -0.2000  0.3463  0.0880
 5509TIP3    H238163   0.931   0.839   0.708  0.1201 -0.2100 -0.3952
 5510TIP3   OH238164   0.810   0.634   1.016  0.3833  0.7379 -0.2940
 5510TIP3    H138165   0.805   0.695   1.090 -0.2880  0.3542 -0.0153
 5510TIP3    H238166   0.721   0.604   1.003  0.7626 -0.5351 -0.1231
 5511TIP3   OH238167   0.473   4.607   8.011 -0.1675 -0.1812  0.2457
 5511TIP3    H138168   0.487   4.652   8.095 -0.7781 -0.6254  0.5888
 5511TIP3    H238169   0.412   4.536   8.032 -1.8733  0.8729 -0.9282
 5512TIP3   OH238170   2.844   0.063   1.222  0.2715 -0.4430 -0.1603
 5512TIP3    H138171   2.777   0.111   1.173  0.9772  0.2413 -0.4935
 5512TIP3    H238172   2.814  -0.027   1.223 -1.9599  0.2418  1.9555
 5513TIP3   OH238173   6.694   6.201   0.322  0.0355  0.0631  0.1472
 5513TIP3    H138174   6.739   6.222   0.240  1.2687  1.2335  1.0693
 5513TIP3    H238175   6.622   6.263   0.326  0.7259  0.8686  0.5129
 5514TIP3   OH238176   5.042   0.885   8.671  0.0412  0.1082 -0.2937
 5514TIP3    H138177   5.078   0.888   8.760 -2.8542 -0.0055  1.0050
 5514TIP3    H238178   5.053   0.794   8.644  1.4683  0.2685 -0.3436
 5515TIP3   OH238179   4.997   0.896   1.034  0.4544  0.4205 -0.6419
 5515TIP3    H138180   4.990   0.984   0.998 -1.1159  1.3856  1.8072
 5515TIP3    H238181   5.070   0.901   1.095  0.1725  0.1138 -0.2766
 5516TIP3   OH238182   1.355   2.841   0.489 -0.7130  0.2242 -0.2073
 5516TIP3    H138183   1.342   2.911   0.553 -0.6258 -1.2875  1.5601
 5516TIP3    H238184   1.267   2.808   0.470 -0.6500 -0.2061  0.2100
 5517TIP3   OH238185   6.456   2.115   7.336  0.3251 -0.6368 -0.3118
 5517TIP3    H138186   6.483   2.193   7.286 -0.8953  0.3366  0.5133
 5517TIP3    H238187   6.405   2.064   7.274 -0.1220 -0.0494 -0.4353
 5518TIP3   OH238188   3.270   4.351   0.867 -0.1747  0.3311 -0.3454
 5518TIP3    H138189   3.350   4.355   0.815  0.0957  1.3304  0.1309
 5518TIP3    H238190   3.286   4.282   0.930  0.9802  1.5944  0.7996
 5519TIP3   OH238191   4.227   2.699   1.376  0.2764 -0.1497 -0.0702
 5519TIP3    H138192   4.212   2.793   1.380 -0.3143 -0.2410  0.0110
 5519TIP3    H238193   4.261   2.683   1.288 -0.5177  0.0198 -0.4147
 5520TIP3   OH238194   3.006   1.627   8.348  0.0538 -0.1851 -0.1564
 5520TIP3    H138195   2.933   1.580   8.307  0.5989 -0.1595 -1.1914
 5520TIP3    H238196   3.071   1.559   8.366  0.4666  0.0390 -0.7988
 5521TIP3   OH238197   2.605   0.016   0.300 -0.0724 -0.4186 -0.1400
 5521TIP3    H138198   2.675   0.031   0.236 -1.7873  2.0361 -1.6188
 5521TIP3    H238199   2.563  -0.065   0.271  0.7623 -0.7148 -0.5623
 5522TIP3   OH238200   5.834   6.527   0.484 -0.5300  0.2409 -0.4124
 5522TIP3    H138201   5.858   6.470   0.557 -2.1467 -0.7525 -0.6047
 5522TIP3    H238202   5.842   6.616   0.520  0.2587 -0.1559  0.4523
 5523TIP3   OH238203   5.574   5.768   0.998 -0.0174 -0.5346 -0.0271
 5523TIP3    H138204   5.603   5.776   0.907  0.5230  0.6295  0.2376
 5523TIP3    H238205   5.512   5.840   1.010  2.2027  1.2613  1.3692
 5524TIP3   OH238206   3.488   6.835   1.809 -0.6330 -0.4366 -0.0465
 5524TIP3    H138207   3.576   6.813   1.838 -0.4580  0.5134  0.1798
 5524TIP3    H238208   3.498   6.917   1.761 -1.5478  0.3407  1.0209
 5525TIP3   OH238209   2.597   3.468   8.272 -0.0592  0.4423  0.1196
 5525TIP3    H138210   2.508   3.483   8.304 -0.6522 -0.3786 -1.0609
 5525TIP3    H238211   2.613   3.539   8.210 -0.7593 -0.5711 -1.2988
 5526TIP3   OH238212   2.175   2.101   0.154 -0.3191 -0.0045  0.5435
 5526TIP3    H138213   2.192   2.153   0.075 -2.0027 -0.1943  0.0136
 5526TIP3    H238214   2.206   2.156   0.226  0.5411  0.4986 -0.1894
 5527TIP3   OH238215   6.443   3.611   0.506  0.5729 -0.2671 -0.5979
 5527TIP3    H138216   6.401   3.525   0.503 -0.4143  0.1112  1.2469
 5527TIP3    H238217   6.377   3.671   0.472  0.9704 -0.1182 -1.1213
 5528TIP3   OH238218   6.747   6.860   0.338  0.2741 -0.3694 -0.0306
 5528TIP3    H138219   6.809   6.816   0.282 -0.5435 -0.8260 -0.5982
 5528TIP3    H238220   6.664   6.816   0.322 -0.0908 -0.1426  1.1251
 5529TIP3   OH238221   0.764   5.596   7.524  0.3857 -0.2673  0.7422
 5529TIP3    H138222   0.848   5.604   7.570  0.4577 -1.9770  0.9694
 5529TIP3    H238223   0.699   5.625   7.589  0.8249  2.2754  0.1585
 5530TIP3   OH238224   0.105   5.984   1.924 -0.0314  0.3807 -0.0582
 5530TIP3    H138225   0.167   5.928   1.971  0.2918  1.6941  1.1574
 5530TIP3    H238226   0.120   6.072   1.960 -0.2030  1.3556 -2.2174
 5531TIP3   OH238227   4.308   1.397   7.994  0.1460 -1.3570  0.4083
 5531TIP3    H138228   4.369   1.459   8.035 -0.3003  0.3673 -1.3474
 5531TIP3    H238229   4.343   1.385   7.906 -2.5298  0.6262 -1.0894
 5532TIP3   OH238230   4.823   1.411   7.294  0.0410 -0.0141 -0.2119
 5532TIP3    H138231   4.872   1.491   7.277  0.3134 -0.2738 -0.6755
 5532TIP3    H238232   4.807   1.412   7.389  1.5484 -0.2540  0.0809
 5533TIP3   OH238233   0.985   6.725   7.821 -0.0250  0.1225  0.6478
 5533TIP3    H138234   0.894   6.700   7.807 -0.4447  2.1610 -0.7468
 5533TIP3    H238235   0.982   6.792   7.889  0.6863 -1.0790  1.9237
 5534TIP3   OH238236   1.877   4.758   0.237 -0.4116  0.0486  0.4293
 5534TIP3    H138237   1.888   4.679   0.290  0.5018 -0.8431 -1.0152
 5534TIP3    H238238   1.835   4.727   0.156 -0.7325  1.1774  0.1423
 5535TIP3   OH238239   1.593   2.814   0.645  0.0307 -0.2538 -0.3506
 5535TIP3    H138240   1.565   2.726   0.670 -1.4818  0.6954  1.6207
 5535TIP3    H238241   1.517   2.852   0.601  0.3093  0.3990 -0.2816
 5536TIP3   OH238242   2.823   5.693   1.349 -0.1263 -0.4396 -0.1839
 5536TIP3    H138243   2.798   5.662   1.262 -0.8398  1.1111 -0.5790
 5536TIP3    H238244   2.916   5.713   1.342  0.1168 -1.5208 -0.1958
 5537TIP3   OH238245   5.178   4.718   7.844  0.6796  0.4704 -0.3508
 5537TIP3    H138246   5.209   4.634   7.876  2.5736  0.8977 -0.9619
 5537TIP3    H238247   5.216   4.783   7.903 -3.1326  0.9088  1.9891
 5538TIP3   OH238248   2.565   1.878   1.558  0.0466 -0.2362  0.4051
 5538TIP3    H138249   2.649   1.916   1.586  0.1927 -0.7788  0.7430
 5538TIP3    H238250   2.559   1.898   1.465  0.5725 -0.2150  0.3693
 5539TIP3   OH238251   5.644   2.844   2.508  0.0310  0.4359  0.2382
 5539TIP3    H138252   5.583   2.775   2.484 -2.0472  1.5925  1.8793
 5539TIP3    H238253   5.679   2.817   2.593 -0.8813  1.4154  0.9427
 5540TIP3   OH238254   2.747   1.456   8.367 -0.5104 -0.2938 -0.0799
 5540TIP3    H138255   2.718   1.448   8.276  2.3848  0.6623 -1.1748
 5540TIP3    H238256   2.735   1.368   8.403  0.9931 -1.5054 -2.3030
 5541TIP3   OH238257   3.646   0.649   0.273 -0.4613  0.2214 -0.3579
 5541TIP3    H138258   3.641   0.720   0.338  1.6192 -2.4628  3.0526
 5541TIP3    H238259   3.558   0.611   0.274 -0.2180 -0.4414  1.8690
 5542TIP3   OH238260   6.282   1.868   8.001  0.0625  0.3386 -0.5497
 5542TIP3    H138261   6.365   1.893   7.961  1.0389 -2.2733 -0.3896
 5542TIP3    H238262   6.290   1.894   8.093  1.3862 -1.1682 -0.1904
 5543TIP3   OH238263   0.191   2.175   7.289 -0.2389  0.0201  0.0637
 5543TIP3    H138264   0.219   2.125   7.213 -2.5671  0.6069 -1.2797
 5543TIP3    H238265   0.099   2.197   7.271  0.0570  3.0036  1.4977
 5544TIP3   OH238266   1.762   2.675   1.273  0.1974 -0.4847 -0.0369
 5544TIP3    H138267   1.838   2.622   1.298  1.0924  1.2883  1.1953
 5544TIP3    H238268   1.701   2.667   1.347  1.2800  1.8465  1.2143
 5545TIP3   OH238269   0.373   0.973   2.805 -0.0454  0.6608 -0.5053
 5545TIP3    H138270   0.285   0.987   2.840 -0.5827 -0.3173 -1.4141
 5545TIP3    H238271   0.431   0.993   2.878 -1.1103 -1.4971  1.0495
 5546TIP3   OH238272   1.601   5.399   0.776 -0.2945 -0.4443  0.4467
 5546TIP3    H138273   1.542   5.341   0.823 -0.8065  0.9841  1.6417
 5546TIP3    H238274   1.544   5.462   0.732  0.2661  1.5467  2.3935
 5547TIP3   OH238275   6.466   6.007   0.035  0.7133 -0.0607  0.8987
 5547TIP3    H138276   6.468   6.099   0.011 -0.3180 -0.6101 -1.6040
 5547TIP3    H238277   6.391   5.998   0.094 -0.5125  0.3961 -0.5349
 5548TIP3   OH238278   3.264   6.773   2.637 -0.1595  0.6253  0.4147
 5548TIP3    H138279   3.290   6.729   2.556 -1.3516  0.8319 -0.1016
 5548TIP3    H238280   3.342   6.820   2.665  0.8152 -0.9095  0.3856
 5549TIP3   OH238281   4.654   1.047   1.614  0.2069 -0.3213 -0.2940
 5549TIP3    H138282   4.701   1.126   1.587  0.5971 -0.1640  0.7769
 5549TIP3    H238283   4.568   1.079   1.640  0.0636 -0.3761 -0.6981
 5550TIP3   OH238284   6.428   1.744   8.590  0.5678 -0.1865  0.6565
 5550TIP3    H138285   6.450   1.829   8.627 -0.6202 -0.7145  2.7426
 5550TIP3    H238286   6.430   1.684   8.665 -0.1463 -1.6892 -0.4755
 5551TIP3   OH238287   6.229   3.424   2.561 -0.1098  0.1200 -0.3633
 5551TIP3    H138288   6.205   3.515   2.583 -0.3463  0.3291 -1.4420
 5551TIP3    H238289   6.150   3.374   2.580 -0.4019  0.3413 -0.9480
 5552TIP3   OH238290   5.838   6.631   7.146  0.3395 -0.7939 -0.2932
 5552TIP3    H138291   5.900   6.578   7.096  1.4797  1.3414 -1.2969
 5552TIP3    H238292   5.846   6.599   7.236  2.9660 -0.6180 -0.3811
 5553TIP3   OH238293   6.761   3.768   0.795 -0.3802  0.2721 -0.1350
 5553TIP3    H138294   6.792   3.692   0.746  0.0096 -0.8990  1.8343
 5553TIP3    H238295   6.665   3.762   0.791 -0.3485 -0.2723 -0.0468
 5554TIP3   OH238296   5.745   2.069   1.555 -0.4983 -0.7698 -0.2773
 5554TIP3    H138297   5.674   2.124   1.589  0.8886  0.5979  0.4868
 5554TIP3    H238298   5.725   2.060   1.462 -0.2005  1.9726 -0.6762
 5555TIP3   OH238299   4.561   1.439   1.169  0.2749  0.7075  0.3527
 5555TIP3    H138300   4.628   1.405   1.228  0.6028  0.5884 -0.0885
 5555TIP3    H238301   4.515   1.505   1.221  0.7955  0.8584  0.6287
 5556TIP3   OH238302   1.856   0.014   7.720 -0.1642 -0.4809  0.1565
 5556TIP3    H138303   1.919   0.076   7.756  0.3050 -0.8119 -0.0863
 5556TIP3    H238304   1.873  -0.068   7.766  0.2194 -0.8204 -0.5750
 5557TIP3   OH238305   5.137   1.270   0.387 -0.4127 -0.4785 -0.5612
 5557TIP3    H138306   5.136   1.196   0.447  0.5277 -1.1768 -1.3700
 5557TIP3    H238307   5.230   1.291   0.375 -0.5653 -0.4597 -1.8768
 5558TIP3   OH238308   4.037   4.195   6.840 -0.0833 -0.3516  0.0693
 5558TIP3    H138309   3.975   4.264   6.863  0.2266  0.3484 -1.0950
 5558TIP3    H238310   4.052   4.148   6.922 -0.8711  0.5006  0.7287
 5559TIP3   OH238311   3.534   0.202   1.680 -0.2593 -0.1543  0.1240
 5559TIP3    H138312   3.525   0.158   1.596 -0.0004 -0.3493  0.1988
 5559TIP3    H238313   3.455   0.255   1.688 -0.1029  0.1652 -0.4176
 5560TIP3   OH238314   5.597   4.226   0.698  0.0213 -0.3174 -0.5062
 5560TIP3    H138315   5.597   4.264   0.610 -0.8673 -1.6689 -1.1345
 5560TIP3    H238316   5.509   4.242   0.731  0.2655 -0.0661  0.0332
 5561TIP3   OH238317   1.511   4.228   6.940 -0.9603  0.9120  0.2875
 5561TIP3    H138318   1.547   4.206   7.026  0.8433  2.0377 -0.1281
 5561TIP3    H238319   1.425   4.187   6.939 -0.1126 -1.0618  1.7454
 5562TIP3   OH238320   5.678   2.947   7.977  0.1407 -0.3864 -0.2355
 5562TIP3    H138321   5.764   2.916   7.948 -0.1394 -0.4739 -0.9773
 5562TIP3    H238322   5.658   3.022   7.921 -0.0353 -0.0304  0.2901
 5563TIP3   OH238323   2.626   1.407   1.652  0.3751 -0.1794 -0.5497
 5563TIP3    H138324   2.574   1.328   1.669  0.4929 -0.3158 -0.8220
 5563TIP3    H238325   2.561   1.476   1.639  0.2758 -0.0477  0.5324
 5564TIP3   OH238326   0.402   4.787   1.441 -0.2714  0.6052  0.1181
 5564TIP3    H138327   0.318   4.763   1.481 -0.7114 -1.0659 -1.6191
 5564TIP3    H238328   0.455   4.820   1.513 -1.9741  0.4336  1.5086
 5565TIP3   OH238329   1.577   1.540   7.386 -0.2733 -0.0540 -0.5496
 5565TIP3    H138330   1.501   1.553   7.330 -1.2618  1.5215  1.0690
 5565TIP3    H238331   1.599   1.447   7.375 -2.1109 -0.4299 -1.4151
 5566TIP3   OH238332   1.575   4.454   8.661  0.0313 -0.4495 -0.1989
 5566TIP3    H138333   1.651   4.484   8.610 -0.8422  0.9612 -0.7176
 5566TIP3    H238334   1.589   4.360   8.671  0.7196 -0.6081 -2.2321
 5567TIP3   OH238335   6.353   3.975   1.752 -0.2359 -0.6233 -0.6489
 5567TIP3    H138336   6.414   3.952   1.682  0.6955 -0.0760 -0.0515
 5567TIP3    H238337   6.312   4.056   1.722 -0.8034 -1.0774 -1.1233
 5568TIP3   OH238338   0.025   4.675   1.996 -0.0553  0.0915  0.1297
 5568TIP3    H138339   0.021   4.683   2.092 -1.3025 -1.3923  0.2411
 5568TIP3    H238340  -0.059   4.634   1.972 -1.0348  2.9192 -1.8820
 5569TIP3   OH238341   0.595   0.227   8.551  0.1610  0.0225 -0.3813
 5569TIP3    H138342   0.592   0.135   8.524  0.1096 -0.5553  1.4756
 5569TIP3    H238343   0.670   0.263   8.504 -0.3533 -0.7222 -1.8176
 5570TIP3   OH238344   5.641   0.957   0.648  0.5043 -0.7225  0.1345
 5570TIP3    H138345   5.564   1.005   0.677  0.8021 -1.4098  2.2812
 5570TIP3    H238346   5.608   0.873   0.618  0.2223 -0.1268 -1.3049
 5571TIP3   OH238347   4.690   5.498   0.951 -0.0612 -0.4827 -0.1541
 5571TIP3    H138348   4.699   5.501   1.046 -0.9763  0.3707 -0.0803
 5571TIP3    H238349   4.675   5.589   0.926  0.1013 -0.7128 -1.1151
 5572TIP3   OH238350   0.156   0.033   7.687 -0.6000 -0.3029  0.0058
 5572TIP3    H138351   0.108   0.115   7.679 -0.9072 -0.4974 -0.1642
 5572TIP3    H238352   0.103  -0.031   7.640  0.6782 -0.1811 -1.6946
 5573TIP3   OH238353   1.890   0.749   1.340  0.0868 -0.5098 -0.1409
 5573TIP3    H138354   1.826   0.744   1.269 -0.1064  0.2524 -0.0297
 5573TIP3    H238355   1.838   0.765   1.419  0.1333 -2.9887  0.4930
 5574TIP3   OH238356   3.699   0.012   7.883  0.1303 -0.3607  0.2969
 5574TIP3    H138357   3.752   0.006   7.962  1.1476 -0.0264 -0.3393
 5574TIP3    H238358   3.748  -0.038   7.817 -0.5150 -0.3338 -0.2184
 5575TIP3   OH238359   5.026   3.237   1.481  0.3953 -0.1911  0.2997
 5575TIP3    H138360   5.104   3.283   1.450  0.5615 -0.9480 -0.4622
 5575TIP3    H238361   5.055   3.191   1.560  0.9548 -1.0820 -0.3950
 5576TIP3   OH238362   2.663   3.560   7.339 -0.0303 -0.3137 -0.0145
 5576TIP3    H138363   2.647   3.615   7.262  0.3831  0.1096  0.1954
 5576TIP3    H238364   2.636   3.473   7.312  0.6600 -0.2824 -0.8515
 5577TIP3   OH238365   3.285   5.638   7.456  0.5191  0.2473 -0.0700
 5577TIP3    H138366   3.201   5.672   7.426 -0.3371 -2.4026 -0.9345
 5577TIP3    H238367   3.265   5.594   7.539  1.2088  0.1929  0.0778
 5578TIP3   OH238368   1.960   2.168   7.513  0.6805 -0.0638  0.2320
 5578TIP3    H138369   1.893   2.154   7.445  0.6685 -0.0909  0.2500
 5578TIP3    H238370   1.938   2.105   7.582  0.9161 -0.3000  0.0950
 5579TIP3   OH238371   4.945   4.830   1.706  0.1393 -0.3309  0.0550
 5579TIP3    H138372   4.964   4.740   1.682  0.5637 -0.1835 -0.1876
 5579TIP3    H238373   4.855   4.846   1.677  0.3797 -0.3903 -0.7570
 5580TIP3   OH238374   2.034   4.774   7.653  0.4341  0.5652 -0.0643
 5580TIP3    H138375   2.047   4.817   7.738  0.0962 -1.6525  1.1781
 5580TIP3    H238376   1.961   4.714   7.667 -1.2933  1.8326 -2.6561
 5581TIP3   OH238377   3.324   0.223   7.295  0.2406 -0.7173  0.2637
 5581TIP3    H138378   3.277   0.169   7.232  0.4935 -1.1118  0.4081
 5581TIP3    H238379   3.332   0.309   7.253 -1.1565 -0.4491  0.4878
 5582TIP3   OH238380   6.099   0.549   7.767 -0.2045  0.2931  0.1990
 5582TIP3    H138381   6.060   0.511   7.846 -0.4175  2.5912  1.2631
 5582TIP3    H238382   6.027   0.593   7.723  0.1790  0.1106 -0.6413
 5583TIP3   OH238383   2.916   3.268   8.421  0.6360  0.7337 -0.0570
 5583TIP3    H138384   2.931   3.247   8.328  0.9168 -0.4409  0.2349
 5583TIP3    H238385   2.986   3.221   8.467  1.3199  2.4003  0.6625
 5584TIP3   OH238386   5.775   4.730   0.397 -0.2232  0.1997 -0.6464
 5584TIP3    H138387   5.847   4.667   0.387 -1.5505 -1.3435 -1.0768
 5584TIP3    H238388   5.789   4.770   0.482  1.0848 -0.1391 -0.6795
 5585TIP3   OH238389   5.435   6.602   8.607 -0.1431 -0.2103 -0.6115
 5585TIP3    H138390   5.530   6.613   8.604  0.1450 -2.2223 -0.2353
 5585TIP3    H238391   5.419   6.551   8.686 -1.4070 -0.9710 -1.3228
 5586TIP3   OH238392   3.583   3.147   8.545 -0.1134 -0.2168 -0.1310
 5586TIP3    H138393   3.544   3.201   8.613 -0.4585  0.6312 -0.9717
 5586TIP3    H238394   3.635   3.208   8.493 -2.0797 -0.2067 -2.3061
 5587TIP3   OH238395   4.538   4.631   8.436  0.2760 -0.3439 -0.6290
 5587TIP3    H138396   4.597   4.704   8.417  1.8395 -0.9733  1.3781
 5587TIP3    H238397   4.451   4.662   8.409  0.7406  2.6006  0.8110
 5588TIP3   OH238398   2.120   2.848   7.635  0.4442 -0.4830  0.2030
 5588TIP3    H138399   2.121   2.754   7.618  0.0475 -0.6393  0.9829
 5588TIP3    H238400   2.165   2.887   7.560 -1.2016 -1.1157 -1.1777
 5589TIP3   OH238401   6.561   6.703   7.504 -0.1190  0.0239 -0.1103
 5589TIP3    H138402   6.504   6.764   7.551  1.6606  1.0558  0.7903
 5589TIP3    H238403   6.616   6.759   7.450 -0.5791 -1.0204 -1.7260
 5590TIP3   OH238404   3.477   4.250   7.246  0.2186  0.1904  0.1918
 5590TIP3    H138405   3.396   4.280   7.205  0.3693 -1.2028 -1.2167
 5590TIP3    H238406   3.546   4.299   7.203  0.2614 -0.1303 -0.1109
 5591TIP3   OH238407   1.988   3.633   0.561 -0.4871  0.5443  0.6628
 5591TIP3    H138408   2.052   3.704   0.566 -2.2849  2.3452 -0.4395
 5591TIP3    H238409   1.973   3.609   0.652  2.7667 -1.0306  0.9566
 5592TIP3   OH238410   1.294   4.276   1.862  0.3715 -0.3111  0.0437
 5592TIP3    H138411   1.360   4.207   1.860  1.9973  1.2060 -1.2543
 5592TIP3    H238412   1.244   4.263   1.781  0.6513 -0.0152 -0.1803
 5593TIP3   OH238413   2.802   6.305   7.180  0.4162 -0.1568 -0.1993
 5593TIP3    H138414   2.876   6.305   7.120  0.9393 -3.0040  0.2779
 5593TIP3    H238415   2.748   6.231   7.152 -1.5284  0.9488  0.3626
 5594TIP3   OH238416   0.346   3.534   7.585  0.0877  0.2259 -0.1580
 5594TIP3    H138417   0.379   3.526   7.496  0.4930  1.0685 -0.0936
 5594TIP3    H238418   0.252   3.550   7.574  0.2083  0.7582 -0.4558
 5595TIP3   OH238419   5.115   6.688   0.306  0.8546 -0.4262  0.0638
 5595TIP3    H138420   5.077   6.673   0.393  0.9930  0.7575  0.3325
 5595TIP3    H238421   5.205   6.713   0.323  0.8173  0.0425 -0.4048
 5596TIP3   OH238422   0.537   6.404   0.992  0.7222  0.9674 -0.2326
 5596TIP3    H138423   0.596   6.478   0.977  0.1187  2.1100  2.5117
 5596TIP3    H238424   0.453   6.444   1.013  0.2767 -0.4767  0.9067
 5597TIP3   OH238425   4.717   6.131   0.405 -0.6686  0.0111  0.1318
 5597TIP3    H138426   4.721   6.044   0.444 -0.3271 -0.3255 -0.6190
 5597TIP3    H238427   4.636   6.132   0.355 -0.9368  0.3159  0.5723
 5598TIP3   OH238428   1.093   6.279   8.705 -0.8377 -0.4409  0.6721
 5598TIP3    H138429   1.062   6.222   8.775  2.0813 -2.2769  0.6486
 5598TIP3    H238430   1.093   6.224   8.627  1.6625 -0.4019  0.5618
 5599TIP3   OH238431   2.467   5.914   7.085  0.1117  0.2764  0.8224
 5599TIP3    H138432   2.520   5.840   7.115 -1.2202  0.2057  3.2757
 5599TIP3    H238433   2.382   5.900   7.126 -1.0343  1.7317 -0.9200
 5600TIP3   OH238434   5.869   4.217   0.094  0.0478 -0.4768 -0.3927
 5600TIP3    H138435   5.962   4.203   0.075  0.5340  0.4217  1.1553
 5600TIP3    H238436   5.841   4.280   0.028  1.0094  0.5604  0.1365
 5601TIP3   OH238437   5.434   6.015   0.452 -0.1445 -0.2322 -0.0322
 5601TIP3    H138438   5.416   5.924   0.476  0.6883 -0.1527  0.9713
 5601TIP3    H238439   5.433   6.016   0.357  0.6438 -1.4787 -0.0737
 5602TIP3   OH238440   0.678   3.437   8.473 -0.5139 -0.3367 -0.0194
 5602TIP3    H138441   0.758   3.385   8.466 -0.3836 -0.1758  0.2576
 5602TIP3    H238442   0.701   3.509   8.532 -0.5178  0.3476 -0.8220
 5603TIP3   OH238443   4.068   4.538   8.461 -0.3894 -0.2870  0.1960
 5603TIP3    H138444   3.998   4.562   8.522 -1.5623  0.1298 -1.2351
 5603TIP3    H238445   4.116   4.468   8.505 -1.5820 -0.4331  1.3180
 5604TIP3   OH238446   3.942   4.776   1.876  1.2259 -0.1610  0.0906
 5604TIP3    H138447   3.896   4.860   1.878  2.7934  0.7728 -1.0796
 5604TIP3    H238448   3.960   4.757   1.968 -0.3124  0.0867  0.4742
 5605TIP3   OH238449   1.649   4.240   7.666 -0.6890 -0.6693  0.1341
 5605TIP3    H138450   1.637   4.335   7.677  0.6850 -0.4778  0.0634
 5605TIP3    H238451   1.742   4.229   7.646 -1.0779 -1.9232 -1.1682
 5606TIP3   OH238452   0.859   0.079   1.457 -0.3070  0.3235 -0.1365
 5606TIP3    H138453   0.807   0.111   1.383 -0.2202  1.6689  0.3550
 5606TIP3    H238454   0.935   0.137   1.460  1.6819 -2.0100 -1.2776
 5607TIP3   OH238455   5.771   6.667   8.192 -0.1672  0.8108 -0.3180
 5607TIP3    H138456   5.750   6.627   8.277 -0.1908  0.2915 -0.5609
 5607TIP3    H238457   5.855   6.710   8.206  1.5802 -2.1351 -0.8869
 5608TIP3   OH238458   0.227   2.240   8.533  0.1160  0.2003  0.0301
 5608TIP3    H138459   0.307   2.228   8.480  0.4131  1.8712  0.0644
 5608TIP3    H238460   0.177   2.307   8.486 -0.4900  0.3628  0.8890
 5609TIP3   OH238461   5.266   3.894   0.412 -0.1973  0.2388 -0.3379
 5609TIP3    H138462   5.290   3.927   0.326 -0.3805  3.1142  0.6229
 5609TIP3    H238463   5.195   3.951   0.441 -1.9869 -2.2980  0.7011
 5610TIP3   OH238464   1.820   5.574   8.226 -0.7413 -0.6267 -0.5375
 5610TIP3    H138465   1.845   5.613   8.142  1.7932 -0.0885  0.3702
 5610TIP3    H238466   1.812   5.481   8.208 -1.4671 -0.3810 -1.5983
 5611TIP3   OH238467   5.871   1.867   1.778  0.7094  0.1307 -0.0204
 5611TIP3    H138468   5.797   1.925   1.796  0.6242  1.2175 -3.1320
 5611TIP3    H238469   5.942   1.900   1.832 -0.9507 -0.9150  3.0285
 5612TIP3   OH238470   2.926   6.296   7.462 -0.5988 -0.4668  0.6013
 5612TIP3    H138471   2.868   6.279   7.387 -0.7310  0.7019  0.4151
 5612TIP3    H238472   3.012   6.310   7.422 -0.7253  0.4547  0.6071
 5613TIP3   OH238473   0.911   4.010   0.064  0.2366  0.5805 -0.1359
 5613TIP3    H138474   0.885   3.927   0.106 -0.9367  1.3998  0.8465
 5613TIP3    H238475   0.831   4.062   0.065  0.7726  1.4514 -1.4473
 5614TIP3   OH238476   2.881   3.335   1.671  0.4162  0.1879 -0.3229
 5614TIP3    H138477   2.896   3.386   1.751 -0.4794 -0.1764  0.0961
 5614TIP3    H238478   2.925   3.384   1.602  0.4964  0.9442  0.2588
 5615TIP3   OH238479   6.766   0.426   2.349 -0.1403 -0.2211  0.1469
 5615TIP3    H138480   6.855   0.446   2.378  0.4246 -0.0797 -1.5756
 5615TIP3    H238481   6.715   0.505   2.370  0.4734  0.2661 -0.1796
 5616TIP3   OH238482   6.318   5.316   0.290  0.6461  0.1004  0.6919
 5616TIP3    H138483   6.267   5.328   0.370  0.5626  0.0716  0.6433
 5616TIP3    H238484   6.404   5.286   0.320  1.0772  1.4396  0.8594
 5617TIP3   OH238485   4.376   1.101   2.719 -0.6795 -0.2695  0.2887
 5617TIP3    H138486   4.322   1.048   2.777 -1.6532  0.8837  0.4768
 5617TIP3    H238487   4.458   1.051   2.710 -1.6146 -1.8674  0.3001
 5618TIP3   OH238488   3.087   5.950   0.183 -0.1638 -0.3941 -0.6226
 5618TIP3    H138489   3.167   5.996   0.207  0.7197 -2.0701 -0.2395
 5618TIP3    H238490   3.017   6.004   0.219  0.8083  0.8086 -0.4708
 5619TIP3   OH238491   5.444   0.419   7.007 -0.0174 -0.5161  0.2622
 5619TIP3    H138492   5.426   0.351   6.942 -0.6198  0.3214 -0.4828
 5619TIP3    H238493   5.377   0.407   7.075  1.5842 -2.3978  1.5887
 5620TIP3   OH238494   1.225   4.899   8.710  0.2777  0.4678 -0.1781
 5620TIP3    H138495   1.237   4.815   8.755  0.3445  0.8467  0.5170
 5620TIP3    H238496   1.217   4.963   8.780  2.1063  1.3273 -0.6892
 5621TIP3   OH238497   4.378   4.988   7.787  0.5665  0.3827 -0.1367
 5621TIP3    H138498   4.467   4.972   7.818  0.8114 -0.7422 -1.3428
 5621TIP3    H238499   4.387   4.998   7.693 -0.7131 -0.9810 -0.4484
 5622TIP3   OH238500   2.821   6.278   1.881 -0.2039  0.0609 -0.2874
 5622TIP3    H138501   2.736   6.307   1.847  0.2530 -0.5449 -2.0409
 5622TIP3    H238502   2.877   6.355   1.875 -1.0296  0.9970  2.5729
 5623TIP3   OH238503   4.512   0.042   2.185 -0.3170 -0.0375 -0.8547
 5623TIP3    H138504   4.523  -0.028   2.121 -0.9652  1.0910 -2.2414
 5623TIP3    H238505   4.473  -0.001   2.261  0.9001 -1.4892 -0.9910
 5624TIP3   OH238506   1.277   3.412   1.294 -0.2025  0.6064 -0.6463
 5624TIP3    H138507   1.246   3.360   1.368 -0.2046 -0.6526 -1.5046
 5624TIP3    H238508   1.367   3.436   1.317 -0.7803  1.7766  0.5428
 5625TIP3   OH238509   1.775   0.943   8.606  0.5468 -0.2695 -0.1807
 5625TIP3    H138510   1.808   0.940   8.516 -0.2138 -0.9547 -0.4475
 5625TIP3    H238511   1.681   0.930   8.597  0.5027 -0.6178  0.7413
 5626TIP3   OH238512   5.084   0.379   0.040  0.4747  0.8639 -0.4765
 5626TIP3    H138513   5.161   0.325   0.058 -0.6108 -0.5837  0.0852
 5626TIP3    H238514   5.068   0.427   0.121  0.4838  0.7639 -0.4156
 5627TIP3   OH238515   3.555   5.835   0.385 -0.4557  0.3245 -0.1482
 5627TIP3    H138516   3.619   5.907   0.386  0.1797 -0.2315 -0.1835
 5627TIP3    H238517   3.472   5.877   0.363 -0.1017  1.0565 -0.1180
 5628TIP3   OH238518   1.853   0.824   0.769 -0.7064 -0.3467 -0.3536
 5628TIP3    H138519   1.875   0.756   0.834 -0.0758 -0.7002 -0.9306
 5628TIP3    H238520   1.833   0.901   0.822 -0.6639 -0.7581  0.2838
 5629TIP3   OH238521   3.112   4.475   0.311 -0.1504  0.7188  0.0212
 5629TIP3    H138522   3.095   4.531   0.387 -1.1769 -0.5325  0.7465
 5629TIP3    H238523   3.191   4.426   0.335 -0.1638  0.7134  0.0541
 5630TIP3   OH238524   5.836   3.688   1.911 -0.1174  0.1847  0.1660
 5630TIP3    H138525   5.802   3.668   1.998 -2.9460 -0.2823 -0.9334
 5630TIP3    H238526   5.839   3.784   1.908 -1.9649  0.2754  0.1574
 5631TIP3   OH238527   0.843   3.999   0.389  0.5606 -0.1028  0.2925
 5631TIP3    H138528   0.863   4.092   0.399  1.4358 -0.3499  0.8794
 5631TIP3    H238529   0.927   3.958   0.371  0.2345 -0.8343  0.4019
 5632TIP3   OH238530   0.552   3.168   8.422 -0.1745  0.5775  0.4642
 5632TIP3    H138531   0.610   3.236   8.454  1.2768 -0.7384  0.7232
 5632TIP3    H238532   0.532   3.195   8.332  1.7654  0.4885 -0.0232
 5633TIP3   OH238533   4.665   5.474   1.245  0.2016 -0.4619  0.7464
 5633TIP3    H138534   4.655   5.379   1.252  0.5842 -0.6370 -0.7059
 5633TIP3    H238535   4.735   5.496   1.306  0.4764 -1.2052  0.7017
 5634TIP3   OH238536   4.096   3.554   0.190 -0.4346  0.0769 -0.3520
 5634TIP3    H138537   4.169   3.514   0.238 -1.2268  1.7685  2.5550
 5634TIP3    H238538   4.025   3.490   0.195 -0.5983  0.3211  1.1606
 5635TIP3   OH238539   3.620   1.653   1.034  0.0556  0.0130 -0.0366
 5635TIP3    H138540   3.677   1.708   0.979  0.7345 -0.5930  0.0504
 5635TIP3    H238541   3.551   1.624   0.974  0.8595 -0.7437 -0.6166
 5636TIP3   OH238542   5.744   3.536   7.776 -0.5921  0.0292  0.0792
 5636TIP3    H138543   5.703   3.449   7.771 -2.4476  0.8368  0.4068
 5636TIP3    H238544   5.675   3.593   7.811  0.5933  1.6392 -0.1015
 5637TIP3   OH238545   1.724   3.013   2.170 -0.5053 -0.9042  0.5111
 5637TIP3    H138546   1.769   3.002   2.087  0.2570 -1.9938  1.0418
 5637TIP3    H238547   1.789   2.990   2.236 -1.1209 -0.1562  1.4104
 5638TIP3   OH238548   6.484   6.796   0.212  0.2520  0.1784  0.1490
 5638TIP3    H138549   6.434   6.868   0.174  0.0595  0.0039  0.0676
 5638TIP3    H238550   6.431   6.765   0.285 -0.0791 -0.4233 -0.3279
 5639TIP3   OH238551   0.885   5.566   7.802  0.4650 -0.6443 -0.7811
 5639TIP3    H138552   0.834   5.628   7.854  0.9917  0.1919 -1.2412
 5639TIP3    H238553   0.976   5.583   7.827  0.6312 -1.0705 -1.0839
 5640TIP3   OH238554   5.041   1.568   0.396 -0.0373 -0.7108 -0.2544
 5640TIP3    H138555   5.040   1.480   0.435  0.0932 -0.2858  0.7344
 5640TIP3    H238556   5.052   1.552   0.303 -0.9218 -1.7858 -0.2094
 5641TIP3   OH238557   4.932   2.515   1.189 -0.0757  0.2690  0.0937
 5641TIP3    H138558   4.984   2.585   1.228  0.6303  0.0675 -0.4681
 5641TIP3    H238559   4.989   2.477   1.122 -0.7080 -0.3857 -0.0854
 5642TIP3   OH238560   4.145   2.443   1.500 -0.4333  0.8009 -0.2613
 5642TIP3    H138561   4.173   2.531   1.474 -0.5482  1.0563  0.4623
 5642TIP3    H238562   4.151   2.391   1.420  0.3871  1.2822 -0.5208
 5643TIP3   OH238563   3.830   3.753   1.813 -0.7392 -0.1546 -0.7710
 5643TIP3    H138564   3.823   3.813   1.739 -1.0947  0.0259 -0.5965
 5643TIP3    H238565   3.850   3.668   1.774 -0.3077  0.0603 -1.0261
 5644TIP3   OH238566   5.355   0.216   1.568  0.4045  0.6112 -0.2063
 5644TIP3    H138567   5.285   0.186   1.510  0.5607 -0.6034  0.2003
 5644TIP3    H238568   5.430   0.161   1.545  0.9067  1.1449  0.1271
 5645TIP3   OH238569   0.762   4.876   1.008  0.3916 -0.4017 -0.2416
 5645TIP3    H138570   0.733   4.967   1.000 -1.3658 -0.8791  0.3039
 5645TIP3    H238571   0.838   4.880   1.066  0.4054  0.7239 -0.3206
 5646TIP3   OH238572   6.078   4.294   0.344  1.2806  0.2645 -0.5349
 5646TIP3    H138573   6.160   4.326   0.305  0.3452  2.0710 -1.1070
 5646TIP3    H238574   6.010   4.321   0.283  0.1713 -0.6537  0.2564
 5647TIP3   OH238575   6.399   2.724   8.064 -0.4439  0.0894 -0.7148
 5647TIP3    H138576   6.454   2.752   7.991 -0.5289 -1.1127 -1.2670
 5647TIP3    H238577   6.357   2.804   8.095  0.4161  0.7793 -1.2910
 5648TIP3   OH238578   4.021   1.032   0.453 -0.5619  0.3483 -0.0262
 5648TIP3    H138579   4.103   1.081   0.458 -1.2850  1.5183  1.0233
 5648TIP3    H238580   4.044   0.943   0.479  0.3072  0.7460  0.6121
 5649TIP3   OH238581   4.326   3.466   1.511  0.3593 -0.5262 -0.6983
 5649TIP3    H138582   4.351   3.544   1.462 -0.7806  0.4444  0.2045
 5649TIP3    H238583   4.408   3.418   1.524  1.1348  0.6971 -0.9528
 5650TIP3   OH238584   4.472   1.182   2.085  0.1362  0.0157  0.1661
 5650TIP3    H138585   4.480   1.095   2.045 -0.2824  0.5391 -1.0926
 5650TIP3    H238586   4.562   1.207   2.106  0.2916 -0.5676  0.2174
 5651TIP3   OH238587   1.586   6.542   2.227  0.6971  0.1912  0.0349
 5651TIP3    H138588   1.638   6.519   2.150 -1.5526 -2.0854 -0.9456
 5651TIP3    H238589   1.596   6.637   2.235  2.9299  0.1656 -1.5676
 5652TIP3   OH238590   2.563   0.093   2.204  0.2194 -0.1060  0.3990
 5652TIP3    H138591   2.508   0.016   2.191  1.4013 -1.4131  2.4646
 5652TIP3    H238592   2.539   0.126   2.290  3.2393 -1.4026  1.9119
 5653TIP3   OH238593   0.373   4.052   1.129  0.2812  0.5027 -0.0112
 5653TIP3    H138594   0.395   3.963   1.159 -0.8717 -0.5273 -1.9860
 5653TIP3    H238595   0.434   4.068   1.057  0.5827  1.3889  0.4392
 5654TIP3   OH238596   5.485   6.569   0.905 -0.3723 -0.2715  0.6370
 5654TIP3    H138597   5.401   6.562   0.859 -0.1069  0.0302  0.0953
 5654TIP3    H238598   5.463   6.614   0.987 -0.7675 -0.3622  0.5842
 5655TIP3   OH238599   3.767   1.163   1.650  0.0483  1.0158 -0.8064
 5655TIP3    H138600   3.826   1.096   1.617 -0.9857 -0.8022  0.7863
 5655TIP3    H238601   3.823   1.223   1.699  0.8098  0.3122 -0.7990
 5656TIP3   OH238602   5.438   0.211   6.519  0.3381  0.0610  0.4195
 5656TIP3    H138603   5.396   0.281   6.569  0.4107  1.0643 -0.8437
 5656TIP3    H238604   5.524   0.247   6.496 -0.0680  0.0556 -1.2321
 5657TIP3   OH238605   2.375   0.393   0.848 -0.6635 -0.0703  0.6143
 5657TIP3    H138606   2.411   0.322   0.795 -1.2759  1.0947 -1.4639
 5657TIP3    H238607   2.431   0.395   0.925 -0.7556 -2.9239  0.8835
 5658TIP3   OH238608   2.484   2.760   2.544 -0.0596 -0.0002  0.4396
 5658TIP3    H138609   2.449   2.745   2.456  0.6934 -0.7055  0.2558
 5658TIP3    H238610   2.501   2.855   2.547 -0.5312  0.1008 -0.0056
 5659TIP3   OH238611   6.594   6.122   7.179  0.3450 -0.1301  0.1742
 5659TIP3    H138612   6.603   6.031   7.152 -0.8179 -0.1639 -0.1619
 5659TIP3    H238613   6.625   6.173   7.104 -3.9674 -0.1920 -2.0139
 5660TIP3   OH238614   4.889   1.914   1.817 -0.0768  0.3303 -0.3315
 5660TIP3    H138615   4.859   1.996   1.855  2.0724  0.9830  0.0797
 5660TIP3    H238616   4.903   1.934   1.724 -2.0441 -0.3244 -0.8025
 5661TIP3   OH238617   2.042   1.402   1.200 -0.4208  0.4141 -0.2098
 5661TIP3    H138618   2.080   1.352   1.271  1.5791  1.2271 -0.6527
 5661TIP3    H238619   1.999   1.476   1.242  1.0899  1.1076  0.1820
 5662TIP3   OH238620   3.423   6.032   7.269 -0.7365 -0.8014 -0.0523
 5662TIP3    H138621   3.343   6.038   7.216 -0.6179 -0.7638 -0.2302
 5662TIP3    H238622   3.474   5.963   7.227  0.2984  0.6470 -1.2893
 5663TIP3   OH238623   3.613   2.250   6.820 -0.0703  0.0945  0.2977
 5663TIP3    H138624   3.602   2.198   6.740 -0.1788  1.3304 -0.5169
 5663TIP3    H238625   3.708   2.257   6.830 -0.0550  0.6131 -0.1831
 5664TIP3   OH238626   3.431   2.738   7.761 -0.4395  0.6230  0.6938
 5664TIP3    H138627   3.362   2.722   7.697 -0.9722  0.9132  1.1901
 5664TIP3    H238628   3.408   2.683   7.835  0.6709 -0.4167  0.2992
 5665TIP3   OH238629   5.903   5.031   2.490  0.0957 -0.2540 -0.4463
 5665TIP3    H138630   5.965   5.103   2.501  0.2908 -0.6328  1.1049
 5665TIP3    H238631   5.957   4.954   2.472  0.0920 -0.5508  0.7346
 5666TIP3   OH238632   0.337   5.425   0.253  0.6917 -0.0555  0.2276
 5666TIP3    H138633   0.276   5.396   0.321 -1.0236  1.8465 -0.3992
 5666TIP3    H238634   0.416   5.375   0.269 -0.3430 -1.1371  2.3713
 5667TIP3   OH238635   5.689   6.231   8.469 -0.1961  0.0365  0.1510
 5667TIP3    H138636   5.777   6.265   8.455  1.0671 -2.7710  0.5821
 5667TIP3    H238637   5.652   6.221   8.381 -0.3619  1.7388 -0.0072
 5668TIP3   OH238638   4.116   0.644   7.921 -0.2888 -0.1861  0.0558
 5668TIP3    H138639   4.052   0.705   7.883 -0.9320 -1.1635 -0.4838
 5668TIP3    H238640   4.196   0.658   7.870 -0.4905  0.0774 -0.1916
 5669TIP3   OH238641   0.150   2.501   7.224  0.4283 -0.4384  0.8739
 5669TIP3    H138642   0.182   2.480   7.312 -1.8393  1.7443  2.3954
 5669TIP3    H238643   0.070   2.450   7.215  0.4196 -0.3178  0.2484
 5670TIP3   OH238644   1.718   0.759   7.431 -0.2748  0.6471 -0.6623
 5670TIP3    H138645   1.643   0.716   7.471 -0.0091  0.2603 -0.5731
 5670TIP3    H238646   1.762   0.690   7.381  1.8013  0.0259  1.7766
 5671TIP3   OH238647   6.408   2.117   0.458 -0.1841  0.6596  0.0005
 5671TIP3    H138648   6.397   2.154   0.370  1.1073 -0.6483 -0.7463
 5671TIP3    H238649   6.319   2.111   0.492 -0.8577 -0.1310 -1.7766
 5672TIP3   OH238650   6.389   4.417   7.155  0.3199  0.7510 -0.0758
 5672TIP3    H138651   6.382   4.421   7.250  0.4778 -0.7508  0.0307
 5672TIP3    H238652   6.345   4.496   7.123 -0.4560  0.8598  1.2143
 5673TIP3   OH238653   2.647   2.857   2.748 -0.2356 -0.0258  0.0174
 5673TIP3    H138654   2.616   2.941   2.717  1.2377  0.7333  0.5037
 5673TIP3    H238655   2.641   2.799   2.673  0.8458  1.1077 -0.9887
 5674TIP3   OH238656   6.261   4.154   8.106  0.2455 -0.1206 -0.0440
 5674TIP3    H138657   6.310   4.157   8.188 -1.6128  0.7836  1.1154
 5674TIP3    H238658   6.176   4.193   8.128 -0.1026  0.7114 -2.5626
 5675TIP3   OH238659   0.694   6.827   2.989 -0.5366 -0.0283  0.3190
 5675TIP3    H138660   0.704   6.784   2.904 -0.8261  0.9710 -0.2375
 5675TIP3    H238661   0.682   6.755   3.051 -1.3452 -0.7418 -0.6284
 5676TIP3   OH238662   2.928   0.360   1.444 -0.4182  0.0155  0.3316
 5676TIP3    H138663   2.898   0.446   1.416  0.2487 -0.0049 -0.4865
 5676TIP3    H238664   2.878   0.342   1.523 -0.1695  1.4001  0.8362
 5677TIP3   OH238665   2.559   2.505   3.034 -0.3956 -0.4695 -0.3261
 5677TIP3    H138666   2.635   2.564   3.038 -1.3997  0.8844 -0.5884
 5677TIP3    H238667   2.505   2.530   3.109 -0.8174 -1.1055 -0.4090
 5678TIP3   OH238668   5.902   3.019   0.470 -0.0377 -0.5691 -0.3404
 5678TIP3    H138669   5.916   3.109   0.441  1.2060 -0.8087 -0.5558
 5678TIP3    H238670   5.809   3.003   0.455 -0.5156  1.0034  0.6536
 5679TIP3   OH238671   3.312   1.691   2.992  0.1850 -0.1480 -0.0199
 5679TIP3    H138672   3.257   1.672   2.917 -1.3499  0.3455  0.9302
 5679TIP3    H238673   3.365   1.612   3.004  0.8056 -0.0452 -1.8774
 5680TIP3   OH238674   2.470   6.812   1.063  0.4724 -0.1699  0.1003
 5680TIP3    H138675   2.395   6.760   1.033  1.4889 -0.6728 -1.6975
 5680TIP3    H238676   2.542   6.750   1.069  1.0940  0.5666  0.4288
 5681TIP3   OH238677   2.143   4.546   1.598 -0.0265  0.0982  0.0166
 5681TIP3    H138678   2.214   4.525   1.537  0.2906 -2.6432  1.1886
 5681TIP3    H238679   2.183   4.605   1.662  0.7510 -0.1636 -0.2235
 5682TIP3   OH238680   6.112   4.207   7.862 -0.3409  0.3114  0.5096
 5682TIP3    H138681   6.127   4.225   7.955 -1.2090  0.5528  0.6093
 5682TIP3    H238682   6.175   4.263   7.816 -0.2282  0.5379  0.9320
 5683TIP3   OH238683   5.388   6.720   2.721 -0.6763  0.6579 -0.0455
 5683TIP3    H138684   5.427   6.807   2.728 -0.5300  0.6110 -0.2505
 5683TIP3    H238685   5.425   6.684   2.640  1.1344 -0.5169  1.2256
 5684TIP3   OH238686   5.150   6.169   1.490 -0.6618 -0.2144 -0.4684
 5684TIP3    H138687   5.093   6.245   1.480 -0.7267 -0.4271 -1.8767
 5684TIP3    H238688   5.106   6.115   1.555 -0.3177  1.1955  1.0125
 5685TIP3   OH238689   5.266   4.446   7.913 -0.7515 -0.0541 -0.1237
 5685TIP3    H138690   5.341   4.429   7.856 -0.7956  1.9117 -0.8457
 5685TIP3    H238691   5.290   4.407   7.997  0.2417 -1.1234 -0.8653
 5686TIP3   OH238692   3.789   4.243   8.692  0.4396 -0.6006 -0.0030
 5686TIP3    H138693   3.787   4.295   8.612  1.0081  1.7653  1.4273
 5686TIP3    H238694   3.725   4.285   8.750  2.4192 -0.1404  1.9642
 5687TIP3   OH238695   4.689   0.492   7.900  0.1156 -0.0452  0.0413
 5687TIP3    H138696   4.750   0.435   7.852 -1.0407 -0.1770 -1.3179
 5687TIP3    H238697   4.746   0.548   7.953  1.3542 -1.1385 -0.0771
 5688TIP3   OH238698   6.293   5.682   2.541  0.1287 -0.4946 -0.0665
 5688TIP3    H138699   6.344   5.612   2.583 -2.0025 -1.5979  0.8529
 5688TIP3    H238700   6.202   5.664   2.566 -0.4769  3.1446  0.9912
 5689TIP3   OH238701   3.228   6.461   1.890 -0.7087  0.2769  0.1792
 5689TIP3    H138702   3.164   6.464   1.819 -0.5878 -0.9178 -0.0160
 5689TIP3    H238703   3.218   6.544   1.936 -1.7080  0.5161 -0.4430
 5690TIP3   OH238704   0.163   6.805   0.314  0.0045 -0.2802  0.5431
 5690TIP3    H138705   0.125   6.831   0.230  1.2345  0.0562  0.0724
 5690TIP3    H238706   0.257   6.794   0.296  0.2389 -0.4969  1.8023
 5691TIP3   OH238707   5.803   2.544   0.243 -0.2463  0.4581  0.0783
 5691TIP3    H138708   5.895   2.517   0.232 -0.0917  0.9103  0.2261
 5691TIP3    H238709   5.760   2.516   0.162 -0.0812 -0.1766  0.2038
 5692TIP3   OH238710   4.163   5.814   1.448  0.3381  0.1707  0.3480
 5692TIP3    H138711   4.198   5.835   1.534 -1.0239 -0.9311  1.2065
 5692TIP3    H238712   4.119   5.730   1.459 -1.9767  1.1477 -0.7944
 5693TIP3   OH238713   3.198   5.303   2.827 -0.1047 -0.3612 -0.2937
 5693TIP3    H138714   3.165   5.322   2.739  1.0153  3.9118  0.0083
 5693TIP3    H238715   3.280   5.255   2.812  0.4603  0.9630 -1.6756
 5694TIP3   OH238716   5.035   6.230   7.784 -0.2892  0.2915 -0.6861
 5694TIP3    H138717   4.999   6.305   7.738  0.7509 -0.5686 -3.0730
 5694TIP3    H238718   5.107   6.200   7.728  1.3928 -0.5811  1.7722
 5695TIP3   OH238719   2.628   2.559   1.248  0.7120  0.0017  0.0397
 5695TIP3    H138720   2.566   2.603   1.306  0.3795 -0.2979 -0.0865
 5695TIP3    H238721   2.676   2.500   1.306  0.4088 -0.2670  0.0179
 5696TIP3   OH238722   3.011   0.911   1.532 -0.3355  0.4965 -0.3553
 5696TIP3    H138723   2.924   0.947   1.515 -1.0374 -1.4965 -1.2790
 5696TIP3    H238724   3.023   0.922   1.627 -0.3128  3.3899 -0.5919
 5697TIP3   OH238725   4.729   0.730   8.225  0.0657  0.1668  0.2078
 5697TIP3    H138726   4.653   0.775   8.260  0.4544  0.1635  1.0728
 5697TIP3    H238727   4.792   0.729   8.297  0.7231 -0.2043 -0.3594
 5698TIP3   OH238728   4.853   0.899   8.009 -0.4193  0.7593 -0.4983
 5698TIP3    H138729   4.800   0.837   8.059  0.0328  1.4272  0.8861
 5698TIP3    H238730   4.823   0.985   8.039  1.1241  1.1564  0.0157
 5699TIP3   OH238731   2.348   2.880   0.414 -0.4296 -0.2186 -0.3893
 5699TIP3    H138732   2.270   2.874   0.358 -0.5793 -1.3269 -0.0839
 5699TIP3    H238733   2.377   2.971   0.405 -1.4497  0.0681 -0.9169
 5700TIP3   OH238734   1.980   2.028   2.010  0.0049 -0.3847 -0.2333
 5700TIP3    H138735   2.047   1.971   1.972 -0.0219 -0.4218 -0.2250
 5700TIP3    H238736   1.943   2.075   1.936 -1.0228 -1.4753 -0.4415
 5701TIP3   OH238737   2.226   1.601   1.778 -0.6518 -0.3528 -0.3547
 5701TIP3    H138738   2.302   1.592   1.720 -1.8564  0.9413 -2.2542
 5701TIP3    H238739   2.165   1.534   1.748 -0.5597 -0.9411  0.7176
 5702TIP3   OH238740   2.621   1.048   7.155 -0.4541 -0.7681 -0.0717
 5702TIP3    H138741   2.619   0.958   7.124 -2.1541 -0.8218  0.1198
 5702TIP3    H238742   2.551   1.092   7.107  0.2231  0.4157 -0.0198
 5703TIP3   OH238743   5.287   1.775   1.644 -0.2131 -0.3427  0.2066
 5703TIP3    H138744   5.225   1.839   1.609 -0.5698 -0.0054  1.4032
 5703TIP3    H238745   5.261   1.692   1.604  0.3552  0.2527 -1.4873
 5704TIP3   OH238746   2.877   4.845   2.488  0.2513 -0.4372  0.2881
 5704TIP3    H138747   2.841   4.919   2.537 -0.1752 -1.0440  0.9018
 5704TIP3    H238748   2.955   4.881   2.444  0.0635  0.3656  0.5960
 5705TIP3   OH238749   1.930   4.209   6.856  0.2601  0.6016  0.3754
 5705TIP3    H138750   1.942   4.206   6.761  1.0317  1.9195  0.4078
 5705TIP3    H238751   1.860   4.272   6.870  1.5530  2.0002  0.7525
 5706TIP3   OH238752   3.744   0.626   2.180  0.0323  0.4809  0.6456
 5706TIP3    H138753   3.668   0.622   2.238 -0.5489  0.4767 -0.1074
 5706TIP3    H238754   3.752   0.718   2.157  1.1632  0.7244  1.8820
 5707TIP3   OH238755   6.729   5.107   7.939  0.1514  0.2757  0.2066
 5707TIP3    H138756   6.663   5.042   7.963  1.7693 -1.4461  0.3036
 5707TIP3    H238757   6.732   5.103   7.843  1.3898 -1.1152  0.2511
 5708TIP3   OH238758   3.955   6.846   6.601 -0.0462  0.3531 -0.2033
 5708TIP3    H138759   3.941   6.784   6.530  0.9073 -0.2018  0.0809
 5708TIP3    H238760   3.976   6.928   6.557  0.4878  0.0238 -0.5653
 5709TIP3   OH238761   2.844   6.606   6.773 -0.0265 -0.6051 -0.6961
 5709TIP3    H138762   2.897   6.526   6.778  2.1793  0.4003 -4.2059
 5709TIP3    H238763   2.790   6.593   6.694  0.3592  1.3233 -1.3205
 5710TIP3   OH238764   1.818   4.444   8.558 -0.4200  0.2135 -0.0370
 5710TIP3    H138765   1.861   4.435   8.473  0.3710  0.9518  0.2623
 5710TIP3    H238766   1.828   4.359   8.599 -2.6503 -0.8297 -1.4759
 5711TIP3   OH238767   1.495   3.268   8.480 -0.0285 -0.4840 -0.3014
 5711TIP3    H138768   1.524   3.346   8.432 -0.8001 -0.1676 -0.2506
 5711TIP3    H238769   1.507   3.197   8.417 -1.5140 -0.0050 -1.1804
 5712TIP3   OH238770   6.474   6.371   2.282 -0.1792 -0.0405 -0.1848
 5712TIP3    H138771   6.556   6.388   2.236 -0.6708  1.6448 -0.5056
 5712TIP3    H238772   6.494   6.391   2.374 -0.1727  0.1806 -0.2335
 5713TIP3   OH238773   1.962   6.731   8.420  0.3976  0.6924 -0.1831
 5713TIP3    H138774   1.882   6.679   8.422  0.9443 -0.1436  0.4934
 5713TIP3    H238775   1.957   6.780   8.337 -1.0469  1.0578  0.0919
 5714TIP3   OH238776   5.164   3.440   8.726 -0.6050  0.2094 -0.3830
 5714TIP3    H138777   5.195   3.363   8.774  0.5109  1.1192  0.3810
 5714TIP3    H238778   5.071   3.422   8.711 -0.4980 -1.0297  0.2747
 5715TIP3   OH238779   2.384   2.229   7.945  0.9512 -0.1369 -0.1289
 5715TIP3    H138780   2.372   2.196   7.856 -0.3797 -0.1938  0.0388
 5715TIP3    H238781   2.325   2.304   7.951  0.9694 -0.1740  0.7215
 5716TIP3   OH238782   2.607   1.883   1.000 -0.1890  0.1736  0.1336
 5716TIP3    H138783   2.646   1.967   0.977  1.9134 -1.0292 -1.0687
 5716TIP3    H238784   2.530   1.875   0.944 -0.6601  1.4503  0.5719
 5717TIP3   OH238785   3.262   2.772   6.640 -0.3137 -0.0076  0.0103
 5717TIP3    H138786   3.230   2.861   6.658 -2.8854 -1.2014  2.0291
 5717TIP3    H238787   3.280   2.772   6.546 -1.6436  2.2491 -0.3296
 5718TIP3   OH238788   4.505   6.560   1.753  0.3407  0.6135 -0.0621
 5718TIP3    H138789   4.484   6.586   1.663  0.7518  3.3134  0.5320
 5718TIP3    H238790   4.600   6.566   1.758  0.2133  3.4438  1.2293
 5719TIP3   OH238791   0.829   3.576   1.516  0.1675  0.2671  0.4686
 5719TIP3    H138792   0.831   3.585   1.420 -2.6027 -0.0220  0.2923
 5719TIP3    H238793   0.816   3.483   1.531 -0.2882  0.4231  1.0808
 5720TIP3   OH238794   0.887   2.465   8.516  0.2011 -0.4685  0.3768
 5720TIP3    H138795   0.892   2.555   8.546 -0.8423  0.5084 -2.1198
 5720TIP3    H238796   0.839   2.469   8.434  0.8325 -3.2086 -0.2548
 5721TIP3   OH238797   4.950   1.664   8.338  0.3072 -0.5027  0.0041
 5721TIP3    H138798   4.877   1.685   8.396 -1.6169 -0.6236 -2.1964
 5721TIP3    H238799   4.990   1.749   8.319 -1.2911  0.0500 -1.1767
 5722TIP3   OH238800   4.261   3.252   1.919 -0.1942  0.3030  0.5366
 5722TIP3    H138801   4.227   3.313   1.854  1.1994  0.6594  0.1226
 5722TIP3    H238802   4.356   3.257   1.910 -0.0242 -1.8008  0.5883
 5723TIP3   OH238803   5.305   0.042   0.970  0.3709 -0.2642 -0.2998
 5723TIP3    H138804   5.265   0.031   0.883  0.2814 -0.7200 -0.2060
 5723TIP3    H238805   5.234   0.021   1.031  0.2166  0.8036 -0.1002
 5724TIP3   OH238806   2.160   3.742   1.097 -0.0437  0.0954  0.0941
 5724TIP3    H138807   2.226   3.721   1.164  0.3161 -2.2110 -0.8859
 5724TIP3    H238808   2.079   3.752   1.147  0.5917  0.5444  1.0784
 5725TIP3   OH238809   0.365   2.740   8.389  0.5782 -0.5133 -0.2778
 5725TIP3    H138810   0.431   2.792   8.435  0.3306 -0.4483 -0.0005
 5725TIP3    H238811   0.314   2.698   8.458  0.4097 -0.6688 -0.4949
 5726TIP3   OH238812   4.781   2.909   8.689 -0.0375 -0.3093 -0.3011
 5726TIP3    H138813   4.687   2.897   8.702 -0.1541 -1.3513 -1.7515
 5726TIP3    H238814   4.821   2.874   8.768 -0.8381 -0.9778 -0.1716
 5727TIP3   OH238815   1.310   6.592   7.629 -0.4850  0.1186 -0.7019
 5727TIP3    H138816   1.366   6.603   7.552  0.6618 -0.4736  0.0218
 5727TIP3    H238817   1.232   6.548   7.595  0.9807 -2.2853 -1.1991
 5728TIP3   OH238818   6.779   6.368   1.083  0.2708  0.5134  0.3958
 5728TIP3    H138819   6.815   6.313   1.013 -1.1731 -2.7434  2.0172
 5728TIP3    H238820   6.694   6.397   1.050 -0.5711 -1.3184  0.8353
 5729TIP3   OH238821   6.217   3.597   0.975  0.3200 -0.1110  0.2648
 5729TIP3    H138822   6.137   3.617   1.023  0.8420  0.7058  0.8291
 5729TIP3    H238823   6.249   3.683   0.946  1.0938 -0.4030  0.2385
 5730TIP3   OH238824   6.761   4.933   0.749 -0.9025  0.0341  0.0439
 5730TIP3    H138825   6.760   4.910   0.842 -0.3009 -1.5980 -0.3037
 5730TIP3    H238826   6.824   4.872   0.711  0.7906  2.3060 -1.0539
 5731TIP3   OH238827   3.142   3.545   1.809 -0.3791  0.0146  0.0362
 5731TIP3    H138828   3.048   3.534   1.823 -0.5418 -0.2375 -1.1132
 5731TIP3    H238829   3.182   3.526   1.893 -1.3571  0.1229  0.5381
 5732TIP3   OH238830   2.909   6.042   1.201  0.3048 -0.0184 -0.0586
 5732TIP3    H138831   2.911   6.098   1.123  0.2070 -0.4998 -0.4122
 5732TIP3    H238832   2.848   5.972   1.179  0.9430 -0.6456  0.1070
 5733TIP3   OH238833   6.732   4.262   1.942  0.1043  0.3326 -0.1430
 5733TIP3    H138834   6.733   4.278   1.848  2.0544 -1.2486 -0.4607
 5733TIP3    H238835   6.731   4.166   1.949 -2.2392  0.4067  1.4910
 5734TIP3   OH238836   0.021   3.380   8.349  0.4193 -0.3793  0.1780
 5734TIP3    H138837   0.113   3.377   8.324  0.6042 -1.4441  0.9192
 5734TIP3    H238838   0.020   3.428   8.432  0.3192 -0.4247  0.2033
 5735TIP3   OH238839   2.882   1.845   8.009  0.3630 -0.2781 -0.3235
 5735TIP3    H138840   2.951   1.830   7.944  1.5152 -0.4142  0.8976
 5735TIP3    H238841   2.928   1.850   8.093 -1.0758  0.0318  0.4820
 5736TIP3   OH238842   1.558   4.446   0.802 -0.2717 -0.5611 -0.0699
 5736TIP3    H138843   1.576   4.416   0.713  1.2896  0.0162 -0.0004
 5736TIP3    H238844   1.512   4.374   0.844 -1.5100 -0.6321 -1.4948
 5737TIP3   OH238845   2.522   5.559   1.953  0.3219 -0.3698 -0.3161
 5737TIP3    H138846   2.566   5.484   1.993 -1.4301 -0.6927  1.1153
 5737TIP3    H238847   2.457   5.520   1.894 -0.2648  0.0245  0.0603
 5738TIP3   OH238848   0.139   3.344   1.633  0.2878 -0.1121  0.0254
 5738TIP3    H138849   0.141   3.424   1.580 -1.0110 -0.8752 -1.2413
 5738TIP3    H238850   0.082   3.365   1.707 -0.2502  0.0673 -0.4364
 5739TIP3   OH238851   0.486   0.878   8.151 -0.1726  0.3956 -0.2754
 5739TIP3    H138852   0.523   0.868   8.063  0.9582  0.4315  0.1808
 5739TIP3    H238853   0.398   0.841   8.144  0.7200 -1.7877 -0.8464
 5740TIP3   OH238854   0.966   4.189   7.449 -0.3751 -0.1298 -0.4827
 5740TIP3    H138855   0.928   4.193   7.362  2.3636 -1.1266 -1.8585
 5740TIP3    H238856   0.902   4.141   7.501 -1.3683 -0.9703 -2.3700
 5741TIP3   OH238857   0.311   3.254   7.217 -0.4901  0.4792 -0.1028
 5741TIP3    H138858   0.227   3.274   7.257  0.5199 -0.1370  2.5202
 5741TIP3    H238859   0.374   3.308   7.264  0.4267  3.0470 -3.7985
 5742TIP3   OH238860   0.717   0.554   0.420 -0.4730  0.0786 -0.5377
 5742TIP3    H138861   0.729   0.463   0.391 -0.6285 -0.1169  0.0002
 5742TIP3    H238862   0.689   0.546   0.511  0.1033  0.6884 -0.3043
 5743TIP3   OH238863   5.836   0.448   7.106 -0.3368 -0.6054 -0.2343
 5743TIP3    H138864   5.774   0.377   7.086 -1.0086  0.0692 -0.5857
 5743TIP3    H238865   5.899   0.445   7.035  0.4466 -1.7171  0.4616
 5744TIP3   OH238866   2.151   0.100   0.678 -0.3092 -0.1790 -0.4148
 5744TIP3    H138867   2.116   0.012   0.692 -0.8916  0.2622  1.2076
 5744TIP3    H238868   2.113   0.152   0.749 -2.0802  2.0187 -2.8284
 5745TIP3   OH238869   0.049   4.216   0.105  0.5107 -0.0450 -0.3848
 5745TIP3    H138870   0.062   4.283   0.172  0.5260 -0.2183 -0.2142
 5745TIP3    H238871  -0.033   4.173   0.131  1.1814 -0.9756  0.2575
 5746TIP3   OH238872   4.937   4.665   6.992  0.0722 -0.1905  0.3610
 5746TIP3    H138873   4.885   4.689   7.069  2.1264 -2.8802  2.8631
 5746TIP3    H238874   4.907   4.577   6.970  2.1684 -1.0528  0.7035
 5747TIP3   OH238875   1.388   5.900   8.224  0.1761  0.3774  0.6298
 5747TIP3    H138876   1.399   5.895   8.129 -0.6332 -1.0960  0.5860
 5747TIP3    H238877   1.431   5.982   8.249 -0.2673  1.1655 -1.0912
 5748TIP3   OH238878   5.120   6.582   8.133  0.2397  0.3216  0.1810
 5748TIP3    H138879   5.115   6.503   8.080  0.2011 -0.0513  0.7406
 5748TIP3    H238880   5.078   6.649   8.079 -0.3123 -0.1822 -0.0240
 5749TIP3   OH238881   2.633   2.060   1.335 -0.2221  0.8685  0.5065
 5749TIP3    H138882   2.678   2.125   1.388  0.3108  1.6456 -0.8360
 5749TIP3    H238883   2.555   2.105   1.303  0.4611  1.1009 -0.9352
 5750TIP3   OH238884   6.807   2.617   1.780  0.0740  0.1987 -0.4578
 5750TIP3    H138885   6.718   2.639   1.808  0.3868  0.1001  0.6582
 5750TIP3    H238886   6.833   2.545   1.838  1.0429  0.5220 -0.4795
 5751TIP3   OH238887   1.347   6.255   1.514  0.3961 -0.0296  0.2716
 5751TIP3    H138888   1.308   6.301   1.589  0.6212  0.8818 -0.1564
 5751TIP3    H238889   1.373   6.170   1.549 -2.5898 -0.9751  0.4183
 5752TIP3   OH238890   3.198   1.134   7.598 -0.5485  0.3087  0.2839
 5752TIP3    H138891   3.163   1.045   7.607 -1.5016  0.8470  2.6200
 5752TIP3    H238892   3.147   1.172   7.526 -0.8216 -0.7151 -0.0874
 5753TIP3   OH238893   2.005   4.847   2.116 -0.2094  0.3872 -0.5383
 5753TIP3    H138894   2.096   4.871   2.097 -0.1706  1.1203  0.4760
 5753TIP3    H238895   2.012   4.764   2.164  0.1857  1.7859  2.0395
 5754TIP3   OH238896   6.712   3.539   7.890  0.7491  0.0506  0.3806
 5754TIP3    H138897   6.763   3.458   7.890  1.1736  0.2840  1.6599
 5754TIP3    H238898   6.741   3.584   7.970  0.7308  1.5981 -0.4637
 5755TIP3   OH238899   4.031   3.438   0.827  0.0456  0.1718  0.2799
 5755TIP3    H138900   3.973   3.363   0.817 -0.5053  0.5006  0.9670
 5755TIP3    H238901   3.993   3.506   0.771 -0.4729  0.5196  1.0400
 5756TIP3   OH238902   0.831   0.141   2.363  0.2766 -0.3995  0.0356
 5756TIP3    H138903   0.874   0.094   2.291  1.1589 -1.7601  1.3913
 5756TIP3    H238904   0.783   0.073   2.411 -0.5971  0.5414  0.5460
 5757TIP3   OH238905   5.861   6.813   0.532 -0.2386 -0.6592  0.5192
 5757TIP3    H138906   5.789   6.801   0.594  0.2492 -0.8350  1.0510
 5757TIP3    H238907   5.837   6.891   0.482 -0.5095 -0.3690  1.0952
 5758TIP3   OH238908   0.352   0.488   2.558 -0.3721  0.3128 -0.2534
 5758TIP3    H138909   0.438   0.523   2.581 -0.7001  0.9243  0.0923
 5758TIP3    H238910   0.306   0.482   2.642 -0.9457  0.7811 -0.5254
 5759TIP3   OH238911   1.149   2.003   7.667  0.1767  0.3819 -0.1894
 5759TIP3    H138912   1.066   2.050   7.653 -0.3023 -0.8936 -2.1243
 5759TIP3    H238913   1.216   2.067   7.645 -0.2882  1.2797  0.9047
 5760TIP3   OH238914   4.501   2.936   7.389  0.8326 -0.4317 -0.8047
 5760TIP3    H138915   4.413   2.960   7.416 -0.0657 -2.0146 -2.1808
 5760TIP3    H238916   4.494   2.923   7.294  2.4057 -1.2118 -0.8406
 5761TIP3   OH238917   2.669   5.369   8.342 -0.1981 -0.4100  0.4196
 5761TIP3    H138918   2.578   5.382   8.315 -0.0668 -1.5375 -0.6340
 5761TIP3    H238919   2.679   5.274   8.349  0.9324 -0.3069  0.3819
 5762TIP3   OH238920   1.893   0.029   1.428 -0.3745 -0.0827 -0.7139
 5762TIP3    H138921   1.980  -0.007   1.407 -0.5176  0.8708 -3.2732
 5762TIP3    H238922   1.884   0.015   1.523  2.5058 -0.3301 -0.3753
 5763TIP3   OH238923   3.623   6.788   8.171 -0.1749 -0.5792  0.1929
 5763TIP3    H138924   3.665   6.861   8.125 -0.9332 -1.7929 -2.6842
 5763TIP3    H238925   3.696   6.737   8.207  0.4119  0.8668  1.1289
 5764TIP3   OH238926   2.836   3.711   2.372 -0.9277  0.0575 -0.4477
 5764TIP3    H138927   2.844   3.620   2.341 -1.5610 -0.2256  0.2063
 5764TIP3    H238928   2.743   3.724   2.384 -1.0790  1.5597 -2.7107
 5765TIP3   OH238929   6.683   0.226   0.507 -0.2804 -0.0516 -0.0035
 5765TIP3    H138930   6.611   0.213   0.445 -0.1533  1.4808 -0.5227
 5765TIP3    H238931   6.653   0.187   0.588 -1.1446 -0.6158 -0.5846
 5766TIP3   OH238932   2.504   2.960   2.339  0.4520  0.1076  0.0150
 5766TIP3    H138933   2.514   3.054   2.352  2.7764 -0.0139 -0.4793
 5766TIP3    H238934   2.594   2.926   2.337 -0.2348 -1.8260 -2.0069
 5767TIP3   OH238935   1.135   1.914   6.950 -0.1574  0.1456 -0.3039
 5767TIP3    H138936   1.145   1.979   7.020 -0.9330 -0.5777  0.5151
 5767TIP3    H238937   1.224   1.885   6.931  0.1233  0.8781 -0.1200
 5768TIP3   OH238938   6.114   5.555   1.511  0.0433 -0.1064  0.4883
 5768TIP3    H138939   6.057   5.614   1.560 -0.2366  0.6026 -0.6389
 5768TIP3    H238940   6.086   5.467   1.538 -2.3088  0.1707 -0.7120
 5769TIP3   OH238941   6.441   4.505   0.856 -0.2825 -0.0104 -0.2334
 5769TIP3    H138942   6.405   4.593   0.841 -0.5338 -0.0764 -0.0328
 5769TIP3    H238943   6.429   4.459   0.773 -0.8876 -0.1073 -0.0950
 5770TIP3   OH238944   3.895   0.381   6.613 -0.2760  0.0295 -0.0638
 5770TIP3    H138945   3.902   0.462   6.564 -1.5938  0.0721 -0.2236
 5770TIP3    H238946   3.950   0.319   6.566 -0.1734  0.5289 -0.6099
 5771TIP3   OH238947   2.497   5.317   1.099  0.4802  0.1050 -0.2264
 5771TIP3    H138948   2.443   5.238   1.103  2.0060 -1.2426 -3.0920
 5771TIP3    H238949   2.457   5.369   1.029  0.7507  0.8606  0.1750
 5772TIP3   OH238950   4.677   1.113   8.024  0.1967 -0.3628  0.2116
 5772TIP3    H138951   4.582   1.114   8.014 -0.0378 -0.1160  2.1811
 5772TIP3    H238952   4.708   1.181   7.964 -0.9069 -0.1226 -0.1055
 5773TIP3   OH238953   3.064   3.723   1.440 -0.6266 -0.0988 -0.3572
 5773TIP3    H138954   3.147   3.768   1.452 -0.6817  0.3104 -1.4610
 5773TIP3    H238955   2.998   3.793   1.438 -0.8485 -0.3192 -0.8583
 5774TIP3   OH238956   2.627   2.455   6.983  0.4270 -0.2152  0.1908
 5774TIP3    H138957   2.556   2.495   6.932  2.3200  0.4810 -2.0791
 5774TIP3    H238958   2.650   2.376   6.934  1.4758 -0.2026  0.6446
 5775TIP3   OH238959   2.608   4.800   0.291 -0.3638  0.2368  0.4287
 5775TIP3    H138960   2.681   4.777   0.234 -1.9470 -0.2717 -1.5257
 5775TIP3    H238961   2.610   4.896   0.297 -1.4835  0.5381 -2.5121
 5776TIP3   OH238962   0.946   2.944   7.472  0.1790 -0.5556 -0.1237
 5776TIP3    H138963   0.905   2.860   7.454  0.6762 -0.6194 -1.0164
 5776TIP3    H238964   0.926   2.962   7.564 -1.9227 -0.5317 -0.5360
 5777TIP3   OH238965   1.016   0.673   0.436  0.8073 -0.1286 -0.0841
 5777TIP3    H138966   0.990   0.722   0.514  2.2161 -0.4318  0.6053
 5777TIP3    H238967   0.948   0.606   0.426  0.1180  0.4916  0.3207
 5778TIP3   OH238968   1.689   0.057   1.148  0.0909  0.1293  0.5236
 5778TIP3    H138969   1.663   0.139   1.106  0.8045  1.0449  1.7998
 5778TIP3    H238970   1.617  -0.004   1.129 -0.4562  1.0466 -0.4286
 5779TIP3   OH238971   3.428   3.285   0.021 -0.4226  0.1184  0.2444
 5779TIP3    H138972   3.376   3.219   0.066 -3.0693  1.5211 -0.5756
 5779TIP3    H238973   3.379   3.366   0.031  1.0391  1.3186 -1.5763
 5780TIP3   OH238974   2.674   5.748   6.680  0.5735 -0.1891 -0.0756
 5780TIP3    H138975   2.742   5.800   6.636  1.3326 -0.5342  0.6635
 5780TIP3    H238976   2.599   5.807   6.686  0.6418  0.0497 -1.3155
 5781TIP3   OH238977   1.101   4.284   0.594 -0.3899  0.1478  0.4433
 5781TIP3    H138978   1.044   4.316   0.664  1.4714  1.6512  1.3669
 5781TIP3    H238979   1.114   4.359   0.537 -0.5587 -0.6143 -0.6356
 5782TIP3   OH238980   1.550   1.511   8.072  0.4637  0.3490 -0.0482
 5782TIP3    H138981   1.538   1.530   8.165  0.4171  0.9127 -0.1645
 5782TIP3    H238982   1.463   1.517   8.034  0.6072  1.0070 -0.2828
 5783TIP3   OH238983   5.984   6.484   1.058  0.4437  0.0167  0.2151
 5783TIP3    H138984   5.957   6.414   1.117 -0.8409  0.7367  0.5086
 5783TIP3    H238985   6.047   6.442   0.999 -0.1007 -1.3182  0.5457
 5784TIP3   OH238986   5.185   5.138   0.172  0.8520  0.0520  0.2317
 5784TIP3    H138987   5.171   5.183   0.255 -1.8551  1.2205 -0.7393
 5784TIP3    H238988   5.174   5.207   0.106 -1.4707 -1.5735 -1.2258
 5785TIP3   OH238989   1.843   1.528   1.490 -0.3102  0.1097  0.7185
 5785TIP3    H138990   1.876   1.600   1.437 -1.4033  0.0595 -0.0682
 5785TIP3    H238991   1.906   1.520   1.562  1.3746 -0.0032 -0.7086
 5786TIP3   OH238992   3.140   2.283   1.158 -0.4068  0.5257 -0.0403
 5786TIP3    H138993   3.054   2.243   1.175  0.0934  0.1815  1.8549
 5786TIP3    H238994   3.202   2.211   1.168  0.1610  0.8540 -1.0389
 5787TIP3   OH238995   5.193   2.905   0.247 -0.6828 -0.1439  0.2048
 5787TIP3    H138996   5.215   2.953   0.327 -0.3185 -0.6187  0.4017
 5787TIP3    H238997   5.179   2.815   0.277  0.0784 -0.4611 -0.3385
 5788TIP3   OH238998   3.680   5.481   8.651 -0.0556 -0.2618  0.6243
 5788TIP3    H138999   3.603   5.427   8.633  0.3096 -0.1947 -1.4315
 5788TIP3    H239000   3.649   5.550   8.709 -1.3671 -0.6449  0.3999
 5789TIP3   OH239001   6.359   1.830   1.668  0.2980 -0.0658  0.0142
 5789TIP3    H139002   6.293   1.852   1.733 -0.2467 -0.0932 -0.5220
 5789TIP3    H239003   6.430   1.893   1.684 -0.0636  0.2786  0.2831
 5790TIP3   OH239004   0.167   6.110   1.680  0.4927 -0.8635  0.5692
 5790TIP3    H139005   0.170   6.064   1.596  0.4418 -1.2298  0.7689
 5790TIP3    H239006   0.113   6.055   1.736 -2.9982  1.2811 -0.3304
 5791TIP3   OH239007   3.806   0.955   0.624 -0.1948  0.0624 -0.8622
 5791TIP3    H139008   3.865   1.005   0.567  2.3803  0.1303  1.6447
 5791TIP3    H239009   3.726   1.008   0.628  0.3903  1.1700 -2.5602
 5792TIP3   OH239010   2.074   6.613   7.062 -0.3132  0.7163  0.2257
 5792TIP3    H139011   2.020   6.535   7.072  0.8073 -0.2832 -1.0671
 5792TIP3    H239012   2.029   6.666   6.996  0.3983 -0.2818 -1.1174
 5793TIP3   OH239013   1.510   3.537   0.074  0.0244 -0.0037  0.1730
 5793TIP3    H139014   1.444   3.548   0.142  0.2261  0.7653  0.2504
 5793TIP3    H239015   1.587   3.503   0.120  0.4344  1.2931  0.4943
 5794TIP3   OH239016   3.157   4.235   8.721 -0.3081 -0.0862  0.0595
 5794TIP3    H139017   3.142   4.186   8.802  0.5626 -1.1813 -0.4192
 5794TIP3    H239018   3.250   4.257   8.724 -0.6508  1.5000  0.2129
 5795TIP3   OH239019   3.350   1.174   8.303  0.7669  0.0518 -0.0725
 5795TIP3    H139020   3.285   1.243   8.315  1.2526  0.3798  0.7392
 5795TIP3    H239021   3.317   1.101   8.355  1.0180  0.1985  0.2933
 5796TIP3   OH239022   4.710   3.663   1.823  0.3689 -0.0525 -0.1650
 5796TIP3    H139023   4.735   3.571   1.831 -1.3833 -0.6678 -1.0521
 5796TIP3    H239024   4.637   3.674   1.884  0.6859  0.8163  0.0753
 5797TIP3   OH239025   2.153   0.453   0.429  0.2614  0.0806  0.7447
 5797TIP3    H139026   2.120   0.436   0.517 -1.3580 -2.0338 -0.1633
 5797TIP3    H239027   2.081   0.497   0.384  0.8377  0.5841  0.2967
 5798TIP3   OH239028   6.317   5.605   1.000  0.0971  1.1944 -0.5814
 5798TIP3    H139029   6.228   5.603   1.035  0.3114 -0.3713 -0.0507
 5798TIP3    H239030   6.371   5.633   1.074  0.0267  2.6635 -1.0430
 5799TIP3   OH239031   4.277   6.091   0.674 -0.1566  0.2015 -0.2789
 5799TIP3    H139032   4.260   6.058   0.762  2.9208  1.4072  0.9412
 5799TIP3    H239033   4.214   6.162   0.662 -1.6532 -0.9930  0.2547
 5800TIP3   OH239034   2.350   0.053   1.836  0.5217  0.4788  0.5888
 5800TIP3    H139035   2.423   0.103   1.873  0.5010  1.3827 -0.5347
 5800TIP3    H239036   2.364   0.057   1.741 -0.2409 -0.5071  0.4174
 5801TIP3   OH239037   5.416   4.933   7.758 -0.7981  0.5935  0.3450
 5801TIP3    H139038   5.469   4.853   7.764  0.2158  1.1642 -0.6457
 5801TIP3    H239039   5.381   4.944   7.846  0.4252 -0.0280  0.9486
 5802TIP3   OH239040   5.847   5.825   1.496  0.0570 -0.3391 -0.4165
 5802TIP3    H139041   5.810   5.816   1.584  0.5158  1.1098 -0.0437
 5802TIP3    H239042   5.821   5.745   1.451 -0.3610 -1.0217  0.9729
 5803TIP3   OH239043   6.443   3.386   8.358  0.0463  0.0032 -0.0788
 5803TIP3    H139044   6.515   3.379   8.296 -0.2000 -1.7859 -0.2250
 5803TIP3    H239045   6.486   3.383   8.444  0.2416  0.3695 -0.1621
 5804TIP3   OH239046   5.251   3.673   0.099 -0.2638 -0.2267 -0.1743
 5804TIP3    H139047   5.262   3.672   0.194 -2.4675 -0.1271  0.1440
 5804TIP3    H239048   5.211   3.588   0.079  2.0530 -1.1283 -1.3478
 5805TIP3   OH239049   4.316   0.267   0.568  0.2992  0.4011 -0.1596
 5805TIP3    H139050   4.271   0.240   0.488  2.9611 -0.9608 -1.3297
 5805TIP3    H239051   4.387   0.203   0.578  1.3169  1.7740  2.1273
 5806TIP3   OH239052   1.941   1.613   8.689 -0.4490  0.2633  0.2393
 5806TIP3    H139053   1.894   1.606   8.606  0.3200 -2.3957 -0.0740
 5806TIP3    H239054   2.030   1.638   8.664  0.1831 -1.9677  0.0145
 5807TIP3   OH239055   4.214   1.398   2.061 -0.3137  0.9191 -0.2261
 5807TIP3    H139056   4.269   1.366   1.989  0.5524 -0.0981  0.8562
 5807TIP3    H239057   4.168   1.473   2.024 -1.8699 -1.0607 -2.6765
 5808TIP3   OH239058   3.516   1.689   8.417 -0.2733 -0.3238 -1.0351
 5808TIP3    H139059   3.437   1.699   8.364  0.5578 -0.7622 -2.3897
 5808TIP3    H239060   3.499   1.741   8.495 -2.5243 -1.6167 -0.5650
 5809TIP3   OH239061   0.750   2.342   7.673 -0.6242 -0.0716  0.1747
 5809TIP3    H139062   0.667   2.310   7.639  0.0317 -2.2121  0.4719
 5809TIP3    H239063   0.804   2.357   7.596 -1.1556  1.1032 -0.0043
 5810TIP3   OH239064   1.092   5.359   0.867 -0.1080  0.4527  0.6040
 5810TIP3    H139065   1.108   5.450   0.890 -1.2658  0.8370 -0.0666
 5810TIP3    H239066   1.168   5.334   0.814  0.1282  1.0686  0.6507
 5811TIP3   OH239067   3.184   5.148   0.238 -0.0334 -0.1641  0.1384
 5811TIP3    H139068   3.206   5.235   0.272 -2.4890  0.3002  0.7395
 5811TIP3    H239069   3.188   5.157   0.143 -0.2091  0.5794  0.1970
 5812TIP3   OH239070   6.175   2.900   0.913 -0.1227  0.0785  0.7427
 5812TIP3    H139071   6.192   2.967   0.847  2.2094 -0.3146  0.8709
 5812TIP3    H239072   6.080   2.890   0.913 -0.2434  0.2920 -2.3354
 5813TIP3   OH239073   3.402   2.297   0.453  0.0689 -0.4881  0.1227
 5813TIP3    H139074   3.309   2.276   0.439 -0.2132 -0.5350  1.8453
 5813TIP3    H239075   3.405   2.335   0.540  1.6906 -0.5055  0.1014
 5814TIP3   OH239076   3.001   0.348   1.810 -0.2791 -0.2424  0.0610
 5814TIP3    H139077   3.017   0.258   1.839  1.4511  0.2318  0.7282
 5814TIP3    H239078   2.921   0.374   1.856  0.0152 -0.9722  1.0248
 5815TIP3   OH239079   4.709   0.678   1.356  0.9782  0.7463  0.0195
 5815TIP3    H139080   4.658   0.712   1.283  1.0583  0.0387 -0.3797
 5815TIP3    H239081   4.648   0.678   1.430  0.9764  1.7240  0.0341
 5816TIP3   OH239082   1.853   2.472   8.670  0.4642 -0.5481  0.2594
 5816TIP3    H139083   1.856   2.379   8.694  1.4850 -0.0712  2.1617
 5816TIP3    H239084   1.848   2.518   8.754 -1.9809  1.0997 -0.6860
 5817TIP3   OH239085   1.378   3.174   0.537 -0.1286  0.3296  0.2669
 5817TIP3    H139086   1.412   3.157   0.449 -0.9175  1.2847 -0.2500
 5817TIP3    H239087   1.443   3.230   0.578  0.8811 -1.1711  0.7927
 5818TIP3   OH239088   0.387   3.848   7.815 -0.5966  0.3074  0.0218
 5818TIP3    H139089   0.380   3.757   7.845 -0.8989  0.4767  0.4898
 5818TIP3    H239090   0.328   3.853   7.740  0.5211 -0.2393 -0.9133
 5819TIP3   OH239091   5.802   0.166   7.823  0.0694 -0.1090 -0.2305
 5819TIP3    H139092   5.760   0.241   7.866  0.9029  0.8679 -1.0670
 5819TIP3    H239093   5.795   0.185   7.729  0.5993 -0.9104 -0.4439
 5820TIP3   OH239094   2.616   2.615   0.112  0.2969 -0.0950 -0.3776
 5820TIP3    H139095   2.625   2.699   0.065 -1.4360  0.6118  0.4512
 5820TIP3    H239096   2.694   2.610   0.166  0.0593  1.4121  0.1673
 5821TIP3   OH239097   5.854   3.913   6.597  0.6236  0.0733 -0.0705
 5821TIP3    H139098   5.836   3.945   6.685  1.9518 -0.6117  0.4799
 5821TIP3    H239099   5.772   3.873   6.569 -0.5334  2.2704 -0.0773
 5822TIP3   OH239100   0.461   2.002   8.514  0.2551 -0.0084 -0.2102
 5822TIP3    H139101   0.381   1.978   8.561 -0.2026  1.2741 -0.3067
 5822TIP3    H239102   0.491   1.920   8.476  0.3235 -0.9825  1.8262
 5823TIP3   OH239103   4.697   3.664   1.300 -0.2075  0.0765 -0.0948
 5823TIP3    H139104   4.629   3.729   1.281  0.8103  1.1178 -0.2966
 5823TIP3    H239105   4.689   3.648   1.394 -0.5237  0.4457 -0.0584
 5824TIP3   OH239106   0.002   4.069   7.380 -0.3223  0.0543 -0.2923
 5824TIP3    H139107  -0.045   4.031   7.454  0.7104  0.4088  0.5683
 5824TIP3    H239108   0.018   4.160   7.406 -1.8854  0.8666 -1.9021
 5825TIP3   OH239109   3.831   1.450   2.549  0.6240  0.4483  0.6843
 5825TIP3    H139110   3.881   1.525   2.517 -1.5859  1.7296  0.0449
 5825TIP3    H239111   3.791   1.481   2.631  1.0188 -0.6103  1.2968
 5826TIP3   OH239112   0.836   5.818   0.286  0.6436 -0.2445 -0.7561
 5826TIP3    H139113   0.870   5.900   0.322  1.2962 -1.1501  0.7806
 5826TIP3    H239114   0.748   5.841   0.255  0.0515  0.6510  1.3587
 5827TIP3   OH239115   3.475   1.858   1.628  0.1259 -0.1001 -0.5071
 5827TIP3    H139116   3.427   1.931   1.590 -0.3410 -1.3617 -2.4694
 5827TIP3    H239117   3.480   1.793   1.558 -1.0459 -2.7170  1.6636
 5828TIP3   OH239118   0.689   1.495   1.130 -0.3330 -0.5775 -0.1979
 5828TIP3    H139119   0.619   1.488   1.195  1.2562 -0.1667  1.6616
 5828TIP3    H239120   0.741   1.416   1.143 -0.4658 -0.9202 -1.6144
 5829TIP3   OH239121   6.785   6.080   1.445  0.1089  0.2397 -0.8488
 5829TIP3    H139122   6.714   6.053   1.504  1.4545 -0.1033  0.7014
 5829TIP3    H239123   6.776   6.175   1.438  0.7783  0.4995  1.1680
 5830TIP3   OH239124   2.406   6.640   8.225 -0.1273 -0.0654  0.5485
 5830TIP3    H139125   2.475   6.623   8.289 -1.2462  1.3027  2.2139
 5830TIP3    H239126   2.426   6.727   8.192 -2.0851  1.2406  2.5669
 5831TIP3   OH239127   3.671   1.182   1.241 -0.3103  0.3828 -0.2758
 5831TIP3    H139128   3.678   1.204   1.333 -1.4545  0.2800 -0.1490
 5831TIP3    H239129   3.736   1.237   1.197  1.7106 -1.0324  0.7979
 5832TIP3   OH239130   3.500   0.056   1.457  0.4878 -0.5647 -0.4117
 5832TIP3    H139131   3.507   0.089   1.367  1.6000 -0.5225 -0.3202
 5832TIP3    H239132   3.495  -0.039   1.448  0.7572 -0.5689 -0.5081
 5833TIP3   OH239133   2.825   2.119   2.183 -0.1236 -0.0127 -0.0276
 5833TIP3    H139134   2.903   2.064   2.191 -1.2746 -1.5426  1.1738
 5833TIP3    H239135   2.837   2.187   2.249  0.8566  0.6448 -0.8579
 5834TIP3   OH239136   1.555   0.009   1.484  0.2127  0.2106 -0.0989
 5834TIP3    H139137   1.602  -0.068   1.516 -2.0623 -1.6744 -0.9145
 5834TIP3    H239138   1.534   0.059   1.562  1.4880 -0.1466  0.4899
 5835TIP3   OH239139   6.278   6.656   8.610 -0.3151  0.0298  0.6173
 5835TIP3    H139140   6.242   6.745   8.617  0.6968  0.6143 -1.1344
 5835TIP3    H239141   6.222   6.612   8.546  0.4752  0.1033 -0.1336
 5836TIP3   OH239142   0.279   4.079   1.826 -0.3424 -0.1358 -0.3518
 5836TIP3    H139143   0.330   4.157   1.849 -0.1958 -0.4184  0.3071
 5836TIP3    H239144   0.206   4.079   1.887 -1.2612  0.3734 -1.4256
 5837TIP3   OH239145   4.315   0.442   0.070  0.4263  0.1316  0.0121
 5837TIP3    H139146   4.390   0.490   0.036  1.5074 -1.0553  0.6186
 5837TIP3    H239147   4.295   0.486   0.153  0.7361  0.1907  0.0601
 5838TIP3   OH239148   5.060   0.336   8.427 -0.3844  0.3908 -0.6882
 5838TIP3    H139149   5.059   0.241   8.438 -0.4597  0.3053 -1.4119
 5838TIP3    H239150   4.982   0.355   8.375  0.9650  0.5510 -2.7535
 5839TIP3   OH239151   5.993   2.228   7.665  0.1615 -0.1946  0.2825
 5839TIP3    H139152   6.006   2.200   7.756  0.2592  0.5522  0.5084
 5839TIP3    H239153   5.942   2.309   7.672 -0.5459 -0.5682 -0.3747
 5840TIP3   OH239154   0.247   2.392   8.028  0.0581 -0.3446  0.1370
 5840TIP3    H139155   0.272   2.484   8.038  1.4128 -0.2558 -2.7917
 5840TIP3    H239156   0.158   2.387   8.063  0.9313  1.3847  2.9072
 5841TIP3   OH239157   0.938   4.801   2.203  0.4828 -0.4218  0.6686
 5841TIP3    H139158   1.013   4.861   2.202 -0.3500  0.6739  1.3025
 5841TIP3    H239159   0.898   4.813   2.116  0.4991 -0.2809  0.6789
 5842TIP3   OH239160   3.620   2.411   8.672 -0.0963  0.0883  0.2342
 5842TIP3    H139161   3.645   2.337   8.616 -2.0224 -0.8175  0.4955
 5842TIP3    H239162   3.566   2.467   8.616  1.1064  1.1916  0.1269
 5843TIP3   OH239163   2.730   5.409   7.052  0.1840  0.1655  0.1981
 5843TIP3    H139164   2.777   5.410   7.135  1.1776 -0.9335 -0.3114
 5843TIP3    H239165   2.790   5.364   6.992 -0.0940  1.7951 -1.3711
 5844TIP3   OH239166   6.141   1.939   2.222 -0.2189  0.5303 -0.5424
 5844TIP3    H139167   6.165   1.985   2.142 -0.5001 -0.3125 -1.1304
 5844TIP3    H239168   6.212   1.875   2.235 -0.4115  0.3464 -0.3904
 5845TIP3   OH239169   1.180   0.534   0.631  0.2481 -0.2819  0.1578
 5845TIP3    H139170   1.189   0.622   0.593 -0.2506 -0.0071  0.6532
 5845TIP3    H239171   1.122   0.547   0.707 -1.7006 -1.4014 -1.0677
 5846TIP3   OH239172   6.598   6.648   7.788  0.6193  0.1585  0.3692
 5846TIP3    H139173   6.610   6.584   7.718  1.8507  0.7307  0.0325
 5846TIP3    H239174   6.590   6.732   7.743 -2.2086  0.1969  0.7249
 5847TIP3   OH239175   3.230   5.794   6.961 -0.7596 -0.0383 -0.3608
 5847TIP3    H139176   3.218   5.874   7.012  0.6309 -1.3258  2.1374
 5847TIP3    H239177   3.150   5.744   6.976  0.2065 -1.0453  1.9267
 5848TIP3   OH239178   1.158   5.914   1.425  0.2366  0.0327  0.0651
 5848TIP3    H139179   1.167   6.000   1.385  0.7996 -0.3392 -0.6257
 5848TIP3    H239180   1.243   5.872   1.412 -0.5326 -1.2598 -1.0971
 5849TIP3   OH239181   5.715   0.880   6.873 -0.1494  0.4470 -0.4570
 5849TIP3    H139182   5.799   0.911   6.839 -0.3935  0.1925 -1.3133
 5849TIP3    H239183   5.718   0.785   6.864 -0.7416  0.4746 -1.0187
 5850TIP3   OH239184   4.621   2.641   1.574 -0.4514 -0.3208 -0.7640
 5850TIP3    H139185   4.535   2.600   1.584 -0.1625 -0.6245  0.5514
 5850TIP3    H239186   4.660   2.596   1.499 -0.6056 -1.6396 -0.0613
 5851TIP3   OH239187   2.663   3.635   1.443 -0.1303  0.0817 -0.5456
 5851TIP3    H139188   2.585   3.620   1.496  0.5884 -1.7357  0.0703
 5851TIP3    H239189   2.689   3.547   1.414  1.9036  0.6143 -0.4106
 5852TIP3   OH239190   1.499   6.445   8.177  0.4941 -0.0477  0.4526
 5852TIP3    H139191   1.441   6.521   8.168  0.8585  0.6440  3.0646
 5852TIP3    H239192   1.493   6.400   8.093 -4.6968 -0.6595  0.8230
 5853TIP3   OH239193   4.847   5.732   7.248 -0.1043 -0.2690  0.0154
 5853TIP3    H139194   4.849   5.691   7.161 -0.1962 -0.3175  0.0360
 5853TIP3    H239195   4.844   5.826   7.230 -1.5998 -0.3104 -0.0574
 5854TIP3   OH239196   0.575   4.202   7.722 -0.3522  0.6439 -0.3612
 5854TIP3    H139197   0.552   4.295   7.720  0.9959  1.0072  0.0821
 5854TIP3    H239198   0.493   4.156   7.706 -1.0873  1.9080 -0.2812
 5855TIP3   OH239199   3.106   1.911   2.521 -0.0280  0.0151  0.0568
 5855TIP3    H139200   3.086   1.989   2.469  0.6990  0.0582 -0.1758
 5855TIP3    H239201   3.052   1.920   2.599 -0.3322  0.4957 -0.2008
 5856TIP3   OH239202   3.956   5.337   8.264  0.3685  0.1520  0.7003
 5856TIP3    H139203   4.024   5.269   8.254  0.1449 -0.0054  0.2217
 5856TIP3    H239204   3.880   5.289   8.297  0.4254  0.2941  1.0405
 5857TIP3   OH239205   6.442   5.379   2.360 -0.2601  0.4136  0.1341
 5857TIP3    H139206   6.427   5.285   2.354 -0.6000  0.4953 -0.3131
 5857TIP3    H239207   6.442   5.397   2.454 -1.1534  0.1200  0.2000
 5858TIP3   OH239208   2.010   4.291   1.924  0.3193  0.1365  0.3857
 5858TIP3    H139209   1.978   4.327   2.007 -1.4049  2.0580 -1.0047
 5858TIP3    H239210   2.093   4.336   1.909 -0.0270  0.8173  0.4412
 5859TIP3   OH239211   5.232   4.595   2.240  0.1291  0.9081  0.6379
 5859TIP3    H139212   5.294   4.658   2.203  1.0659  0.0234  0.6706
 5859TIP3    H239213   5.282   4.515   2.250 -1.1480  0.0249  0.2384
 5860TIP3   OH239214   1.158   1.876   8.213 -0.0456  0.1885  0.0043
 5860TIP3    H139215   1.101   1.798   8.219  2.2474 -1.6086 -0.1562
 5860TIP3    H239216   1.127   1.922   8.135 -0.7231 -1.2245 -0.5952
 5861TIP3   OH239217   2.226   0.443   1.693  0.0293  0.0649 -0.2004
 5861TIP3    H139218   2.201   0.522   1.645 -2.2726  2.4098  4.2705
 5861TIP3    H239219   2.154   0.382   1.676  0.1747  0.1163 -1.0878
 5862TIP3   OH239220   2.973   0.486   7.592  0.2379  0.1641 -0.7451
 5862TIP3    H139221   3.065   0.462   7.588 -0.4702 -3.4579  0.6264
 5862TIP3    H239222   2.947   0.498   7.501  1.6788 -0.5777 -1.2795
 5863TIP3   OH239223   3.877   0.517   0.656  0.0621  0.0757  0.1526
 5863TIP3    H139224   3.839   0.473   0.580 -0.2099 -0.3117  0.5069
 5863TIP3    H239225   3.802   0.537   0.712  0.4760 -3.5743  2.4166
 5864TIP3   OH239226   0.957   1.120   0.408 -0.3441  0.1431  0.0305
 5864TIP3    H139227   0.930   1.208   0.433 -0.1678  0.3636 -0.5495
 5864TIP3    H239228   0.875   1.076   0.385 -0.4017  0.2465  0.0348
 5865TIP3   OH239229   4.322   0.022   1.785 -0.1429  0.2406  0.0766
 5865TIP3    H139230   4.236  -0.020   1.779 -0.4639  0.9538 -0.4837
 5865TIP3    H239231   4.364  -0.022   1.859 -1.9305  1.5425  1.9812
 5866TIP3   OH239232   0.670   2.898   0.879  0.4684 -0.1801 -0.3803
 5866TIP3    H139233   0.663   2.809   0.913  1.3523 -1.2947 -2.8957
 5866TIP3    H239234   0.642   2.954   0.952 -0.6210 -2.5091  1.0984
 5867TIP3   OH239235   3.531   3.535   0.372  0.4098 -0.0157 -0.2641
 5867TIP3    H139236   3.568   3.610   0.325  0.0251  0.1587 -0.2890
 5867TIP3    H239237   3.437   3.553   0.375  0.1914 -0.9363 -1.0625
 5868TIP3   OH239238   3.213   0.155   0.460 -0.5806  0.1301 -0.1034
 5868TIP3    H139239   3.240   0.073   0.503  0.3916  0.4108 -0.1691
 5868TIP3    H239240   3.295   0.197   0.435 -1.0505  1.4558  0.5269
 5869TIP3   OH239241   2.901   2.409   0.770  0.0242  0.2938  0.0879
 5869TIP3    H139242   2.944   2.428   0.853  1.4092 -0.4187 -0.4435
 5869TIP3    H239243   2.819   2.459   0.774  0.7692  1.4967  1.2197
 5870TIP3   OH239244   6.073   1.562   0.846  0.6063 -0.4672  0.1285
 5870TIP3    H139245   6.052   1.609   0.927  0.5428  0.7273 -0.5691
 5870TIP3    H239246   5.993   1.569   0.793 -0.3719 -3.5527  0.9740
 5871TIP3   OH239247   0.041   5.770   1.211  0.6381 -0.2451 -0.1377
 5871TIP3    H139248  -0.051   5.750   1.193  0.2960  0.6319  0.5827
 5871TIP3    H239249   0.060   5.847   1.159  1.6348 -1.6704 -2.0174
 5872TIP3   OH239250   6.455   5.463   2.639 -0.0790 -0.1684 -0.4617
 5872TIP3    H139251   6.542   5.502   2.646  0.0263 -0.6959  2.1486
 5872TIP3    H239252   6.470   5.369   2.649 -1.0926 -0.0840  2.7084
 5873TIP3   OH239253   2.111   0.325   8.314  0.5770 -0.0270 -0.1917
 5873TIP3    H139254   2.194   0.292   8.350  0.7518 -0.8969 -1.3557
 5873TIP3    H239255   2.050   0.252   8.323 -0.5040  1.0400  1.9255
 5874TIP3   OH239256   1.102   3.896   0.342  0.0619 -0.1394 -0.7375
 5874TIP3    H139257   1.109   3.861   0.431  0.2207 -0.4559 -0.8747
 5874TIP3    H239258   1.192   3.911   0.314  0.1184 -1.7591 -1.5242
 5875TIP3   OH239259   2.460   3.327   1.989  0.1100 -0.0170 -0.3980
 5875TIP3    H139260   2.535   3.306   1.932  0.5423 -0.8260  0.4426
 5875TIP3    H239261   2.396   3.259   1.970  0.1789 -0.1779 -0.0611
 5876TIP3   OH239262   0.663   2.890   7.306  0.1433  0.0660 -0.2234
 5876TIP3    H139263   0.652   2.810   7.255  1.9323 -1.4285  1.5130
 5876TIP3    H239264   0.737   2.935   7.265  0.7312 -0.4765  0.1980
 5877TIP3   OH239265   2.781   4.364   7.377  0.8090 -0.0987  0.0951
 5877TIP3    H139266   2.765   4.291   7.317 -1.1045  0.1718  0.2307
 5877TIP3    H239267   2.727   4.435   7.343  2.1205  1.0717  0.3612
 5878TIP3   OH239268   5.918   0.505   2.219  0.1641 -0.2629 -0.1675
 5878TIP3    H139269   5.855   0.446   2.178 -0.6849 -0.7267  1.6898
 5878TIP3    H239270   5.873   0.590   2.222  0.3862 -0.1309 -0.5676
 5879TIP3   OH239271   3.872   2.434   0.791  0.5243  0.0973  0.0380
 5879TIP3    H139272   3.802   2.495   0.767  1.5313  0.1795 -3.1511
 5879TIP3    H239273   3.869   2.432   0.887 -2.4182  1.7037  0.1246
 5880TIP3   OH239274   6.155   4.468   8.224 -0.2055 -0.4779  0.2220
 5880TIP3    H139275   6.224   4.404   8.242  0.6671  0.0290 -1.1660
 5880TIP3    H239276   6.145   4.517   8.306  0.2282 -1.3331  0.8004
 5881TIP3   OH239277   3.986   0.471   8.102  0.6933  0.3381  0.4565
 5881TIP3    H139278   4.035   0.528   8.043  1.3417  1.4798  2.0483
 5881TIP3    H239279   3.957   0.527   8.173 -0.3054 -0.9470  1.1195
 5882TIP3   OH239280   5.932   2.806   0.266 -0.4226 -0.2141 -0.2751
 5882TIP3    H139281   5.876   2.735   0.234 -0.5725 -0.0661 -0.3464
 5882TIP3    H239282   5.884   2.842   0.341 -1.4625  1.2720 -1.5837
 5883TIP3   OH239283   6.116   5.153   7.237 -0.0690 -0.2629  0.6872
 5883TIP3    H139284   6.195   5.102   7.255  0.1914  0.5166  1.8522
 5883TIP3    H239285   6.051   5.087   7.213  1.5830 -0.7489 -3.1158
 5884TIP3   OH239286   4.171   2.138   8.046  0.2329  0.0154 -0.0956
 5884TIP3    H139287   4.147   2.211   7.989  0.2410  1.5500  1.7547
 5884TIP3    H239288   4.104   2.138   8.115  0.2188 -1.7695 -0.0469
 5885TIP3   OH239289   5.128   0.437   1.201 -0.2962 -0.1618  0.1428
 5885TIP3    H139290   5.164   0.525   1.209  0.5356 -0.6216  2.1091
 5885TIP3    H239291   5.034   0.448   1.214 -0.4724  0.6184 -1.4977
 5886TIP3   OH239292   3.425   2.458   0.216  0.1345  0.5633 -0.4444
 5886TIP3    H139293   3.448   2.417   0.299 -0.5756 -0.4958 -0.7531
 5886TIP3    H239294   3.445   2.392   0.150 -2.9673 -0.1903 -0.7890
 5887TIP3   OH239295   3.557   3.122   2.254 -0.0292 -0.0363 -0.3283
 5887TIP3    H139296   3.542   3.028   2.258  0.8879 -0.1575  1.0650
 5887TIP3    H239297   3.608   3.142   2.333  1.3798  1.3376 -1.5166
 5888TIP3   OH239298   1.074   1.983   7.986  0.2258 -0.4698  0.5471
 5888TIP3    H139299   1.056   2.077   7.984  0.4473 -0.4400 -1.3746
 5888TIP3    H239300   1.006   1.945   7.932  0.7502 -1.3061  0.4675
 5889TIP3   OH239301   0.038   1.228   0.371 -0.3423 -0.0726 -0.0929
 5889TIP3    H139302   0.085   1.145   0.382 -1.4476 -0.6149  0.6241
 5889TIP3    H239303   0.086   1.272   0.301  0.1660 -1.3901 -0.6206
 5890TIP3   OH239304   0.233   5.419   7.082  0.7339  0.1515 -0.1121
 5890TIP3    H139305   0.216   5.378   6.997  2.1399  2.3071 -1.5301
 5890TIP3    H239306   0.214   5.350   7.146 -0.1420 -1.6247 -2.1532
 5891TIP3   OH239307   3.542   1.380   1.044 -0.4183 -0.1871  0.2581
 5891TIP3    H139308   3.613   1.444   1.046 -1.1329  0.6484 -0.4610
 5891TIP3    H239309   3.490   1.403   0.967 -0.3387 -2.0290 -0.3808
 5892TIP3   OH239310   4.937   3.592   7.648  0.2571  0.3513 -0.4990
 5892TIP3    H139311   4.991   3.528   7.602 -0.3121 -1.7105  1.4953
 5892TIP3    H239312   4.890   3.638   7.578  0.9750 -1.1654 -2.0612
 5893TIP3   OH239313   4.509   6.350   8.529  0.1130 -0.5993  0.2325
 5893TIP3    H139314   4.521   6.363   8.623 -1.2994 -0.8186  0.4706
 5893TIP3    H239315   4.455   6.271   8.522  0.7353 -0.9581 -0.7941
 5894TIP3   OH239316   3.802   0.217   7.233 -0.1741  0.3134  0.2167
 5894TIP3    H139317   3.759   0.235   7.316  0.3362  3.6422 -0.0844
 5894TIP3    H239318   3.792   0.298   7.183  3.2884  0.0205 -1.2328
 5895TIP3   OH239319   6.081   4.575   8.473 -0.2754  0.3969 -0.2348
 5895TIP3    H139320   6.168   4.557   8.508 -0.0798  0.3718 -0.7247
 5895TIP3    H239321   6.048   4.647   8.526  0.1073  0.5088 -0.1462
 5896TIP3   OH239322   3.052   3.176   0.461  0.3158 -0.1796  0.2269
 5896TIP3    H139323   3.108   3.177   0.538 -0.5710  1.9439  0.9229
 5896TIP3    H239324   2.982   3.115   0.483  0.3720 -0.0186  0.8757
 5897TIP3   OH239325   2.109   5.642   1.487  0.1319 -0.4031 -0.0108
 5897TIP3    H139326   2.058   5.587   1.429 -1.4181  0.4911  0.4467
 5897TIP3    H239327   2.069   5.630   1.574  0.8608  0.1166  0.4129
 5898TIP3   OH239328   5.258   0.880   0.136 -0.0737  0.1678  0.0092
 5898TIP3    H139329   5.294   0.791   0.137 -2.3423 -0.8097  0.2883
 5898TIP3    H239330   5.304   0.923   0.065  1.4356 -1.0678  0.1775
 5899TIP3   OH239331   2.664   0.986   8.602  0.2127 -0.2607 -0.5926
 5899TIP3    H139332   2.618   0.972   8.685  1.8536 -0.7588  0.2704
 5899TIP3    H239333   2.717   1.065   8.618 -0.1463  0.1781 -1.4961
 5900TIP3   OH239334   4.752   6.683   8.089  0.1020 -0.1967 -1.0338
 5900TIP3    H139335   4.767   6.772   8.120  0.5721 -0.8709  0.8284
 5900TIP3    H239336   4.662   6.683   8.057  0.4230  1.1737 -2.0672
 5901TIP3   OH239337   2.860   4.280   1.143 -0.2647  0.0645 -0.8352
 5901TIP3    H139338   2.930   4.308   1.084  1.1720 -1.0740  0.2480
 5901TIP3    H239339   2.881   4.189   1.162 -0.2876  0.5617  1.9193
 5902TIP3   OH239340   5.472   0.734   2.893 -0.2820  0.6771 -0.4605
 5902TIP3    H139341   5.505   0.676   2.961  0.5694  0.5232 -0.9882
 5902TIP3    H239342   5.551   0.769   2.851 -0.7754  0.3023 -1.7571
 5903TIP3   OH239343   5.320   0.543   7.965  0.6272 -0.9725 -0.0552
 5903TIP3    H139344   5.240   0.589   7.939  0.4207 -0.9001  0.6704
 5903TIP3    H239345   5.333   0.569   8.056  2.2312  0.0963 -0.5474
 5904TIP3   OH239346   4.619   1.527   8.245 -0.0130 -0.3115  0.6791
 5904TIP3    H139347   4.596   1.506   8.154  1.9725  2.3834 -0.5753
 5904TIP3    H239348   4.704   1.485   8.258 -0.5540 -1.1791  1.5535
 5905TIP3   OH239349   0.396   0.042   2.180 -0.4806 -0.5695  0.1920
 5905TIP3    H139350   0.416  -0.013   2.104 -0.6505 -0.8158  0.3248
 5905TIP3    H239351   0.410   0.132   2.149 -1.1212 -0.6358 -0.3066
 5906TIP3   OH239352   2.170   6.593   8.557 -0.0130 -0.4945  0.3001
 5906TIP3    H139353   2.189   6.559   8.470 -1.5691 -1.1678  0.1872
 5906TIP3    H239354   2.111   6.667   8.542  3.3653  2.5314  0.5287
 5907TIP3   OH239355   4.278   4.761   7.237  0.4846 -0.6439  0.1380
 5907TIP3    H139356   4.352   4.719   7.281 -0.6754 -1.9391  0.9361
 5907TIP3    H239357   4.216   4.690   7.221 -0.6241  0.4217 -0.4319
 5908TIP3   OH239358   1.106   4.025   0.657  0.0022  0.1045 -0.2730
 5908TIP3    H139359   1.176   4.049   0.718 -0.4079  1.1513 -0.1841
 5908TIP3    H239360   1.090   4.105   0.607 -1.3138 -0.0292 -0.1088
 5909TIP3   OH239361   5.812   0.706   1.248  0.4492  0.2543  0.0186
 5909TIP3    H139362   5.796   0.628   1.300  0.1834  0.9817  1.0777
 5909TIP3    H239363   5.907   0.709   1.237  0.5234  0.1903  0.6345
 5910TIP3   OH239364   0.980   0.136   7.248 -0.0085  0.9116  0.3550
 5910TIP3    H139365   1.019   0.187   7.319 -1.1193  2.3567 -0.0184
 5910TIP3    H239366   0.971   0.198   7.176  0.5034 -0.3655 -0.8484
 5911TIP3   OH239367   2.927   1.449   0.866 -0.9017  0.5606 -0.0070
 5911TIP3    H139368   2.956   1.358   0.856 -1.7688  0.4316 -1.7338
 5911TIP3    H239369   3.008   1.497   0.881 -0.2882 -0.3406 -0.2953
 5912TIP3   OH239370   4.162   0.851   8.145 -0.2093 -0.3982  0.0682
 5912TIP3    H139371   4.169   0.776   8.203  0.1513 -0.3206  0.1301
 5912TIP3    H239372   4.147   0.813   8.058  2.2445 -0.6868 -0.3136
 5913TIP3   OH239373   4.409   4.916   8.576  0.3189 -0.4141  0.1124
 5913TIP3    H139374   4.335   4.949   8.525 -0.7736  0.1008  1.9383
 5913TIP3    H239375   4.378   4.832   8.611  0.7894 -0.4488  0.4468
 5914TIP3   OH239376   1.816   6.659   0.695 -0.7835 -0.0388  0.5469
 5914TIP3    H139377   1.764   6.629   0.770 -0.9163  0.2945  0.5932
 5914TIP3    H239378   1.905   6.665   0.728 -0.7123 -0.6290  0.4639
 5915TIP3   OH239379   6.086   6.870   8.617  0.1039  0.3437  0.0134
 5915TIP3    H139380   6.027   6.795   8.629  0.3074  0.1401 -0.2456
 5915TIP3    H239381   6.065   6.903   8.530  1.0731 -0.3570 -0.5015
 5916TIP3   OH239382   0.541   1.311   7.264 -0.2238  0.1771 -0.4647
 5916TIP3    H139383   0.485   1.376   7.221 -0.3164 -0.5895 -1.5439
 5916TIP3    H239384   0.584   1.265   7.192 -0.5747 -1.3234  0.2332
 5917TIP3   OH239385   0.849   3.347   7.945 -0.3669 -0.3803 -0.3511
 5917TIP3    H139386   0.896   3.370   8.025  0.1663 -1.0888 -0.4484
 5917TIP3    H239387   0.845   3.251   7.946  0.2414 -0.4409 -1.5035
 5918TIP3   OH239388   5.426   1.408   7.282 -0.1116  0.4610 -0.1485
 5918TIP3    H139389   5.405   1.334   7.338 -0.7046  0.4221 -0.4196
 5918TIP3    H239390   5.514   1.389   7.248  0.1921  0.4190  0.6451
 5919TIP3   OH239391   5.850   2.516   1.785  0.1035 -0.3720  0.5318
 5919TIP3    H139392   5.937   2.479   1.791  0.2294 -0.6641 -1.8754
 5919TIP3    H239393   5.864   2.611   1.792  0.6792 -0.3933 -0.2129
 5920TIP3   OH239394   6.529   1.478   7.971 -0.2280 -0.0478 -0.0111
 5920TIP3    H139395   6.617   1.440   7.973  0.7018  1.9558  2.1296
 5920TIP3    H239396   6.542   1.568   7.942 -1.6725  0.1031 -0.2708
 5921TIP3   OH239397   3.527   2.847   1.048  0.8386  0.0686  0.3024
 5921TIP3    H139398   3.608   2.897   1.053  1.2702 -0.4629 -0.8664
 5921TIP3    H239399   3.516   2.808   1.135  1.6871  0.3668  0.5469
 5922TIP3   OH239400   0.325   1.177   7.852  0.6789  0.1304  0.0799
 5922TIP3    H139401   0.393   1.238   7.880  0.7452  0.5451 -0.9182
 5922TIP3    H239402   0.317   1.193   7.758 -0.5760 -0.1355  0.1310
 5923TIP3   OH239403   4.621   0.991   1.187  0.7661 -0.8959 -0.3461
 5923TIP3    H139404   4.714   1.003   1.206  0.6130 -1.3722  0.8044
 5923TIP3    H239405   4.577   1.053   1.244  0.3044 -2.0612  0.6199
 5924TIP3   OH239406   6.074   1.885   7.801  0.1287  0.2300  0.7645
 5924TIP3    H139407   6.108   1.906   7.714  0.2453 -1.1360  0.4621
 5924TIP3    H239408   6.152   1.877   7.856  0.1183  0.1082  0.7622
 5925TIP3   OH239409   3.526   6.230   1.803 -0.4448 -0.1967 -0.2162
 5925TIP3    H139410   3.506   6.163   1.737  1.9671 -2.4153  1.0848
 5925TIP3    H239411   3.470   6.207   1.877 -0.9996  0.4357 -0.4376
 5926TIP3   OH239412   2.728   4.495   2.284  0.0364  0.3901 -0.3960
 5926TIP3    H139413   2.749   4.537   2.367  2.6153  0.3561 -0.9608
 5926TIP3    H239414   2.649   4.443   2.302  0.9970 -0.2928  2.2654
 5927TIP3   OH239415   4.716   4.359   0.197  0.1564 -0.6940 -0.7082
 5927TIP3    H139416   4.757   4.299   0.135 -0.0201 -1.0704 -0.4673
 5927TIP3    H239417   4.779   4.430   0.208  0.4415 -0.9234 -0.8596
 5928TIP3   OH239418   0.364   0.337   2.188  0.0063  0.0806  0.7526
 5928TIP3    H139419   0.350   0.398   2.260 -0.2356  2.0199 -0.8472
 5928TIP3    H239420   0.304   0.366   2.119  1.6894 -0.3825 -0.9976
 5929TIP3   OH239421   6.076   1.720   7.157  0.1905 -0.0242  0.1606
 5929TIP3    H139422   6.169   1.698   7.163  0.0606 -0.5251  0.3851
 5929TIP3    H239423   6.071   1.811   7.187  0.5601 -0.1213  0.5329
 5930TIP3   OH239424   4.100   6.652   7.501 -0.0758 -0.1088  0.1030
 5930TIP3    H139425   4.181   6.633   7.548 -0.1839  2.3472  1.4679
 5930TIP3    H239426   4.048   6.703   7.563 -2.0311 -0.2904 -1.2885
 5931TIP3   OH239427   3.892   4.290   7.906  0.2162  0.3598  0.7636
 5931TIP3    H139428   3.925   4.206   7.875 -0.9299  0.3765 -0.6405
 5931TIP3    H239429   3.810   4.303   7.857  0.5097  2.4229  0.7064
 5932TIP3   OH239430   6.583   2.012   7.551  0.5735 -0.1072  0.7864
 5932TIP3    H139431   6.630   1.938   7.513 -0.0966 -0.1335 -0.0359
 5932TIP3    H239432   6.536   2.051   7.477  1.4379  1.5526  1.0631
 5933TIP3   OH239433   2.403   1.593   1.101  0.2913 -0.0334  0.4447
 5933TIP3    H139434   2.487   1.555   1.077  0.3832  0.4029  0.0667
 5933TIP3    H239435   2.347   1.578   1.025 -0.7241 -2.4641  1.5600
 5934TIP3   OH239436   0.534   5.180   7.696 -0.1557  0.5304  0.2879
 5934TIP3    H139437   0.616   5.229   7.700  1.0764 -1.3285 -0.7064
 5934TIP3    H239438   0.481   5.216   7.767  1.0504  2.5616  0.2391
 5935TIP3   OH239439   3.457   6.107   0.669 -0.2559  0.1405 -0.5790
 5935TIP3    H139440   3.395   6.126   0.739  1.4778  1.3321  0.7119
 5935TIP3    H239441   3.467   6.012   0.671 -1.6281 -0.0244 -0.5041
 5936TIP3   OH239442   3.105   1.924   0.181 -0.6788 -0.3029  0.2600
 5936TIP3    H139443   3.023   1.905   0.226 -0.7787 -1.3555 -0.3328
 5936TIP3    H239444   3.096   2.014   0.150 -1.5453 -0.3553  0.3487
 5937TIP3   OH239445   6.841   5.492   7.867  0.1873  0.0162 -0.4963
 5937TIP3    H139446   6.887   5.410   7.849  0.7544  0.4994 -1.3254
 5937TIP3    H239447   6.748   5.470   7.855  0.2340 -0.7742  0.4337
 5938TIP3   OH239448   2.557   6.578   0.336 -0.2639 -0.0605 -0.2363
 5938TIP3    H139449   2.581   6.545   0.249  1.9583  1.2295 -0.1787
 5938TIP3    H239450   2.638   6.573   0.387 -1.0454  1.0195  1.1846
 5939TIP3   OH239451   3.123   2.451   1.630  0.5619 -0.4121  0.1187
 5939TIP3    H139452   3.042   2.490   1.599  0.0590 -1.1588  0.4582
 5939TIP3    H239453   3.107   2.357   1.627  0.5580 -0.5421  2.4186
 5940TIP3   OH239454   1.219   4.522   0.411  0.1658  0.6814  0.3515
 5940TIP3    H139455   1.269   4.485   0.339  0.8840  0.4531  0.9494
 5940TIP3    H239456   1.265   4.492   0.490  1.3170  3.5636  0.8865
 5941TIP3   OH239457   3.640   4.686   1.683 -0.0308  0.2778  0.2165
 5941TIP3    H139458   3.694   4.638   1.620  0.7254  1.6732 -0.2477
 5941TIP3    H239459   3.651   4.638   1.765  2.2306  0.6891  0.2247
 5942TIP3   OH239460   6.843   2.035   0.197  0.7466 -0.1255 -0.3591
 5942TIP3    H139461   6.776   2.037   0.265  1.0685 -0.1386 -0.0404
 5942TIP3    H239462   6.797   2.004   0.119  0.7479 -1.7571  0.2562
 5943TIP3   OH239463   6.811   6.286   7.858 -0.4304  0.2032  0.0722
 5943TIP3    H139464   6.764   6.212   7.897 -2.5005  1.2189 -0.3173
 5943TIP3    H239465   6.775   6.363   7.903  3.2846  0.9697  2.0973
 5944TIP3   OH239466   5.745   6.355   6.072 -0.1228 -0.2273  0.3268
 5944TIP3    H139467   5.744   6.449   6.054 -1.0207 -0.5589 -1.6014
 5944TIP3    H239468   5.727   6.348   6.166  0.0138  1.5098  0.5115
 5945TIP3   OH239469   4.652   2.014   1.376 -0.5183  0.0925  0.3143
 5945TIP3    H139470   4.647   2.024   1.281  1.8409  0.1808  0.1309
 5945TIP3    H239471   4.650   1.920   1.390 -0.1398  0.0522  0.1092
 5946TIP3   OH239472   3.924   3.235   1.884  0.4093 -0.0067  0.3231
 5946TIP3    H139473   4.017   3.251   1.898  0.5227 -1.1232  0.9892
 5946TIP3    H239474   3.884   3.248   1.969 -0.2610  1.6923 -0.2154
 5947TIP3   OH239475   2.142   2.184   2.291  0.1847  0.5891 -0.6237
 5947TIP3    H139476   2.228   2.154   2.319  0.1481 -0.5893 -1.7158
 5947TIP3    H239477   2.091   2.104   2.280 -0.7821  1.2223 -0.8744
 5948TIP3   OH239478   6.865   3.492   8.582  0.6369  0.0639 -0.0502
 5948TIP3    H139479   6.781   3.537   8.575  0.9113  0.5148 -0.4929
 5948TIP3    H239480   6.906   3.529   8.660 -0.8342 -2.3056  2.0147
 5949TIP3   OH239481   3.785   6.247   7.521  0.0367  0.0642 -0.0289
 5949TIP3    H139482   3.703   6.294   7.505 -0.2719 -0.4587  0.0194
 5949TIP3    H239483   3.771   6.160   7.483  1.6260  0.8682 -2.7454
 5950TIP3   OH239484   1.888   5.158   2.229  0.2916  0.1989 -0.0559
 5950TIP3    H139485   1.863   5.078   2.276 -0.4615  0.7646  0.5383
 5950TIP3    H239486   1.968   5.187   2.272 -0.0127  0.3324  0.4315
 5951TIP3   OH239487   5.086   4.744   1.008  0.2671  0.5936 -0.0175
 5951TIP3    H139488   5.019   4.788   0.956  0.8570  2.0449  0.3996
 5951TIP3    H239489   5.160   4.733   0.947  0.9085  2.1711  0.4395
 5952TIP3   OH239490   2.118   1.405   8.163 -0.2238 -0.2598  0.3381
 5952TIP3    H139491   2.116   1.335   8.228 -1.0429 -0.4486  0.1140
 5952TIP3    H239492   2.118   1.359   8.079 -0.9478  0.0167  0.1884
 5953TIP3   OH239493   3.252   5.046   2.648 -0.1352 -0.3545 -0.1155
 5953TIP3    H139494   3.231   5.043   2.742  1.9519  1.5707  0.5078
 5953TIP3    H239495   3.348   5.040   2.645 -0.1966 -0.9967 -2.1964
 5954TIP3   OH239496   0.113   5.404   1.465  0.6792 -0.6028  0.4670
 5954TIP3    H139497   0.178   5.458   1.420  1.8133 -0.8193  1.7682
 5954TIP3    H239498   0.078   5.346   1.398  0.4692  0.7632 -0.6535
 5955TIP3   OH239499   3.063   1.857   8.218 -0.2197 -0.1186 -0.0639
 5955TIP3    H139500   3.063   1.774   8.265  1.1256 -0.5667 -0.8037
 5955TIP3    H239501   3.022   1.919   8.279  0.9966 -0.7844  1.4994
 5956TIP3   OH239502   4.234   0.715   8.407 -0.4527 -0.0632 -0.0950
 5956TIP3    H139503   4.268   0.716   8.496  1.0844  1.1429 -0.6551
 5956TIP3    H239504   4.256   0.628   8.374  0.3704  0.0286  0.1950
 5957TIP3   OH239505   6.584   0.127   0.750 -0.4205  0.2739  0.2463
 5957TIP3    H139506   6.515   0.073   0.713  0.7203 -0.7238 -0.5124
 5957TIP3    H239507   6.558   0.217   0.729 -1.4943 -0.0779  0.0185
 5958TIP3   OH239508   2.006   1.082   7.779  0.0849  0.1272  0.2900
 5958TIP3    H139509   2.062   1.141   7.728 -0.5675  0.0135 -0.5748
 5958TIP3    H239510   2.060   1.004   7.793  0.1180 -0.0255 -0.6332
 5959TIP3   OH239511   5.891   4.826   8.174 -0.0598 -0.1202 -0.3219
 5959TIP3    H139512   5.968   4.863   8.219 -0.0486  0.3120 -0.6819
 5959TIP3    H239513   5.869   4.748   8.224  0.8115 -0.4295 -0.3880
 5960TIP3   OH239514   6.666   5.720   8.289  0.4728 -0.7535  0.2169
 5960TIP3    H139515   6.610   5.687   8.220 -1.6418 -0.2203  1.5665
 5960TIP3    H239516   6.606   5.767   8.348  2.4129  0.2225  1.5368
 5961TIP3   OH239517   1.309   0.658   1.683 -0.2482  0.4380  0.0339
 5961TIP3    H139518   1.371   0.722   1.718  0.2396 -0.5318  0.9966
 5961TIP3    H239519   1.228   0.708   1.671 -1.0235  0.5907  4.2363
 5962TIP3   OH239520   3.106   6.238   0.325  0.3363  0.4940  0.0844
 5962TIP3    H139521   3.129   6.217   0.416 -1.3344  0.5702  0.5628
 5962TIP3    H239522   3.023   6.284   0.332  0.1428  0.4260 -1.5026
 5963TIP3   OH239523   1.471   6.121   0.521  0.1548 -0.4133 -0.4217
 5963TIP3    H139524   1.476   6.178   0.444 -1.7731 -1.2594 -1.2182
 5963TIP3    H239525   1.553   6.072   0.519  0.2415 -0.2497 -1.8041
 5964TIP3   OH239526   2.186   2.535   2.437  0.0648 -0.0665 -0.2850
 5964TIP3    H139527   2.262   2.537   2.378  0.6897  0.2157  0.5077
 5964TIP3    H239528   2.154   2.625   2.437 -1.0286 -0.4314 -1.5552
 5965TIP3   OH239529   0.753   1.783   8.034 -0.2355  0.2001 -0.2546
 5965TIP3    H139530   0.749   1.867   8.080  1.4295  0.9217 -1.3274
 5965TIP3    H239531   0.791   1.804   7.949  0.0068 -1.6064 -0.6345
 5966TIP3   OH239532   5.103   3.051   8.154  0.0291  0.4658 -0.5307
 5966TIP3    H139533   5.197   3.047   8.141  0.6041  2.2963  2.2766
 5966TIP3    H239534   5.081   3.144   8.152 -1.4847  0.1707  0.1753
 5967TIP3   OH239535   1.844   5.249   1.896  0.5219 -0.8055 -0.5379
 5967TIP3    H139536   1.845   5.335   1.939  1.5703 -1.0219 -0.1237
 5967TIP3    H239537   1.778   5.259   1.827 -0.4823 -0.1569  0.4755
 5968TIP3   OH239538   4.844   3.621   2.161 -0.1235  0.3687  0.1763
 5968TIP3    H139539   4.760   3.574   2.167 -0.2354  0.2383 -1.5928
 5968TIP3    H239540   4.902   3.559   2.116 -0.1527  1.7134 -1.8532
 5969TIP3   OH239541   6.367   2.650   1.017 -0.5483 -0.2080 -0.2870
 5969TIP3    H139542   6.323   2.651   0.932 -1.9167 -0.7155  0.3787
 5969TIP3    H239543   6.296   2.662   1.080  0.6493  2.2238  0.7403
 5970TIP3   OH239544   3.832   6.201   0.230 -0.3095 -0.1400  0.2661
 5970TIP3    H139545   3.808   6.292   0.246 -2.4335 -0.3319 -1.4239
 5970TIP3    H239546   3.797   6.182   0.143  2.0034 -1.9545 -0.3798
 5971TIP3   OH239547   3.388   0.591   0.260  0.7756  0.8708 -0.0432
 5971TIP3    H139548   3.306   0.596   0.210  1.4845  0.0805 -1.3305
 5971TIP3    H239549   3.365   0.541   0.339 -0.3105  1.9682  0.3796
 5972TIP3   OH239550   4.854   2.072   1.605 -0.2574  0.2805 -0.3252
 5972TIP3    H139551   4.817   2.124   1.676  0.9365  0.8684 -0.1129
 5972TIP3    H239552   4.778   2.043   1.554 -0.9564  2.4260 -0.5971
 5973TIP3   OH239553   5.920   6.035   7.584 -0.2605  0.6944 -0.4915
 5973TIP3    H139554   5.920   6.098   7.656  2.1807 -0.2788  0.4606
 5973TIP3    H239555   5.990   6.066   7.526  0.4105 -0.6404 -0.4288
 5974TIP3   OH239556   1.808   3.589   7.762 -0.3398  0.0045 -0.2473
 5974TIP3    H139557   1.772   3.503   7.786  0.5638 -0.6568 -1.1525
 5974TIP3    H239558   1.840   3.625   7.844 -0.3965 -0.6879  0.0912
 5975TIP3   OH239559   3.881   4.838   0.368  0.1049  0.2549 -0.3273
 5975TIP3    H139560   3.817   4.841   0.440 -0.8332 -0.9466 -1.0668
 5975TIP3    H239561   3.952   4.895   0.396 -0.0030 -0.5678  1.7858
 5976TIP3   OH239562   6.029   6.743   0.277 -0.1718 -0.4280 -0.3367
 5976TIP3    H139563   6.013   6.813   0.214 -0.2840 -1.2738 -1.2839
 5976TIP3    H239564   5.984   6.770   0.356 -0.5042  0.4037 -0.7997
 5977TIP3   OH239565   0.490   5.943   1.989  0.2545  0.4758  0.5174
 5977TIP3    H139566   0.498   6.030   1.949 -1.5136  1.4397  2.1243
 5977TIP3    H239567   0.558   5.941   2.057  2.4485 -0.7086 -1.5418
 5978TIP3   OH239568   4.716   2.736   7.783  0.0670 -0.1460  0.1713
 5978TIP3    H139569   4.783   2.707   7.845  2.5477  2.6530 -0.9728
 5978TIP3    H239570   4.750   2.712   7.697 -1.5982 -0.7912 -0.3355
 5979TIP3   OH239571   3.475   2.345   0.780 -0.2652  0.3189  0.2549
 5979TIP3    H139572   3.495   2.290   0.856  0.2382 -0.6126 -0.5272
 5979TIP3    H239573   3.384   2.370   0.792 -0.5399 -0.7842  0.5887
 5980TIP3   OH239574   0.771   2.558   0.245 -0.8348  0.0619  0.1813
 5980TIP3    H139575   0.866   2.568   0.245 -0.9171  0.9746 -0.1479
 5980TIP3    H239576   0.755   2.469   0.277  0.0436  0.8079  3.0211
 5981TIP3   OH239577   0.964   0.336   2.046  0.6846  0.0205  0.2553
 5981TIP3    H139578   0.916   0.256   2.065  1.6313 -0.2943  1.4439
 5981TIP3    H239579   1.036   0.309   1.989  0.3437  0.2335 -0.2856
 5982TIP3   OH239580   6.559   3.600   7.597 -0.0199 -0.1029 -0.3361
 5982TIP3    H139581   6.463   3.607   7.605  0.0176 -0.5954  0.8330
 5982TIP3    H239582   6.591   3.618   7.685  0.9861  0.2059 -0.7573
 5983TIP3   OH239583   2.064   5.762   7.817  0.0970 -0.0827 -0.3761
 5983TIP3    H139584   1.987   5.714   7.845  0.5897 -0.9766 -0.4894
 5983TIP3    H239585   2.093   5.716   7.738 -0.6581  1.7373 -1.7747
 5984TIP3   OH239586   1.370   5.663   8.320  0.2011 -0.4308  0.3624
 5984TIP3    H139587   1.464   5.659   8.332  0.3249 -0.5777 -0.5872
 5984TIP3    H239588   1.354   5.751   8.284 -0.0375 -0.3533  0.6567
 5985TIP3   OH239589   5.282   4.324   7.027  0.0439  0.1992  0.2541
 5985TIP3    H139590   5.311   4.348   6.939  1.1876 -0.4667  0.4296
 5985TIP3    H239591   5.214   4.388   7.048  0.3110  0.8573 -0.7997
 5986TIP3   OH239592   4.268   2.974   7.517  0.2902  0.1098 -0.4203
 5986TIP3    H139593   4.199   2.951   7.454  0.5784  0.4251 -0.8609
 5986TIP3    H239594   4.237   3.056   7.556  0.4298  0.2714 -0.6455
 5987TIP3   OH239595   4.527   0.537   8.631  0.0427 -0.3576  0.3074
 5987TIP3    H139596   4.530   0.633   8.627  0.3662 -0.4081 -1.7900
 5987TIP3    H239597   4.617   0.510   8.612 -0.2561 -1.1006 -0.0709
 5988TIP3   OH239598   5.035   2.504   8.425  0.4151 -0.3871  0.1066
 5988TIP3    H139599   4.965   2.534   8.367 -0.4170  0.1722  1.3695
 5988TIP3    H239600   5.014   2.412   8.442 -0.4379 -0.0251  1.0656
 5989TIP3   OH239601   5.700   1.305   0.619 -0.5653 -0.0899 -0.0282
 5989TIP3    H139602   5.621   1.332   0.666 -1.1816  1.9639 -2.0420
 5989TIP3    H239603   5.702   1.361   0.542  2.3526 -0.7745 -0.5791
 5990TIP3   OH239604   6.673   1.559   0.614 -0.1306 -0.7865  0.5389
 5990TIP3    H139605   6.710   1.637   0.656  1.1498 -0.9831 -0.1858
 5990TIP3    H239606   6.702   1.563   0.523 -1.5653 -1.1884  0.0215
 5991TIP3   OH239607   0.947   1.368   1.912 -0.2195 -0.0525 -0.0134
 5991TIP3    H139608   0.859   1.362   1.875 -0.1948 -0.2330 -0.0422
 5991TIP3    H239609   0.950   1.455   1.952 -0.2601  0.1311 -0.3981
 5992TIP3   OH239610   5.199   5.638   1.222 -0.4504 -0.9763 -0.7982
 5992TIP3    H139611   5.161   5.658   1.136 -0.2339  0.3547 -0.6086
 5992TIP3    H239612   5.238   5.721   1.251 -1.3246 -1.1363  0.9953
 5993TIP3   OH239613   5.347   3.018   0.680  0.3723  0.0054  0.2917
 5993TIP3    H139614   5.352   2.938   0.733  2.3074  0.2118  0.4883
 5993TIP3    H239615   5.379   3.087   0.738  1.6793  0.3876 -0.8285
 5994TIP3   OH239616   2.548   3.919   1.330 -0.0804  0.1240  0.2969
 5994TIP3    H139617   2.637   3.929   1.297 -0.3011 -1.9075 -1.1390
 5994TIP3    H239618   2.504   4.000   1.307  0.4395 -0.2815 -2.3858
 5995TIP3   OH239619   5.001   4.140   8.182  0.1357 -0.0698 -0.3909
 5995TIP3    H139620   5.001   4.179   8.269  1.1570 -1.4228  0.2598
 5995TIP3    H239621   4.916   4.163   8.145  0.2238  1.6970  0.4040
 5996TIP3   OH239622   5.517   5.162   0.986  0.1690  0.5823  0.1993
 5996TIP3    H139623   5.576   5.227   0.949  0.1198  0.5326  0.0342
 5996TIP3    H239624   5.464   5.211   1.049 -2.1009  1.4365 -2.1931
 5997TIP3   OH239625   2.528   2.931   1.259  0.0091 -0.3861  0.4819
 5997TIP3    H139626   2.566   2.991   1.323  0.6664  1.4033 -1.4814
 5997TIP3    H239627   2.603   2.891   1.215 -0.4035 -0.3943 -0.2369
 5998TIP3   OH239628   4.885   5.340   6.719 -0.0546  0.0983  0.0835
 5998TIP3    H139629   4.791   5.341   6.701 -0.1475  0.0044  0.5622
 5998TIP3    H239630   4.919   5.271   6.662 -0.6203 -1.4891  1.6078
 5999TIP3   OH239631   3.810   1.146   8.135 -0.3559 -0.2494 -0.3000
 5999TIP3    H139632   3.768   1.071   8.093 -1.1769 -0.0029  0.0508
 5999TIP3    H239633   3.737   1.198   8.169  0.2790 -0.7152  1.9478
 6000TIP3   OH239634   1.760   2.749   0.411  0.1761  0.0610  0.6476
 6000TIP3    H139635   1.732   2.772   0.499  1.9897 -0.8690  1.5298
 6000TIP3    H239636   1.798   2.662   0.420  0.4132 -0.0507 -1.0667
 6001TIP3   OH239637   1.891   1.003   6.545 -0.0267  0.7764  0.0172
 6001TIP3    H139638   1.910   1.053   6.624 -2.2768  1.1044  0.4292
 6001TIP3    H239639   1.805   1.034   6.517 -0.5362 -1.3160 -0.9646
 6002TIP3   OH239640   5.812   5.311   1.387  0.4667 -0.1020 -0.6686
 6002TIP3    H139641   5.771   5.225   1.378  0.2980 -0.1274  0.1935
 6002TIP3    H239642   5.905   5.295   1.373  0.5695 -0.6220  0.4813
 6003TIP3   OH239643   4.429   6.700   1.970  0.0940 -0.3725  0.3552
 6003TIP3    H139644   4.398   6.643   2.041  0.6390 -0.4637  0.5274
 6003TIP3    H239645   4.460   6.639   1.903  2.3234 -0.3244  1.2637
 6004TIP3   OH239646   0.120   1.136   2.694 -0.5600  0.2109 -0.2413
 6004TIP3    H139647   0.172   1.215   2.687  2.3835 -1.6139 -0.5557
 6004TIP3    H239648   0.079   1.126   2.608  0.0710  0.6956 -0.5999
 6005TIP3   OH239649   3.119   1.391   7.873 -0.1964  0.4920 -0.4979
 6005TIP3    H139650   3.189   1.456   7.864 -0.7146  1.3877  1.3984
 6005TIP3    H239651   3.164   1.313   7.906 -0.0282  0.9493  0.3752
 6006TIP3   OH239652   0.851   0.183   7.834  0.3357  0.3777 -0.4233
 6006TIP3    H139653   0.817   0.255   7.888  2.7367  0.6031  0.9437
 6006TIP3    H239654   0.945   0.196   7.835  0.5616  0.1109 -4.4266
 6007TIP3   OH239655   4.275   2.552   0.064 -0.0022  0.0517  0.1092
 6007TIP3    H139656   4.302   2.539   0.155  1.4101 -0.4074 -0.3549
 6007TIP3    H239657   4.181   2.535   0.064  0.2388 -1.4300  1.2157
 6008TIP3   OH239658   2.349   6.770   7.590  0.0773  0.0853  0.2381
 6008TIP3    H139659   2.419   6.713   7.622  0.6732  0.7114  0.0830
 6008TIP3    H239660   2.395   6.839   7.541 -0.7057  0.0331 -0.6006
 6009TIP3   OH239661   2.634   3.103   0.066  0.6828 -0.4582 -0.2260
 6009TIP3    H139662   2.651   3.159  -0.010 -1.1985  1.8433  0.9118
 6009TIP3    H239663   2.721   3.084   0.101  1.4492  1.7946 -0.7096
 6010TIP3   OH239664   3.951   3.052   0.522  0.5011  0.4315 -0.1903
 6010TIP3    H139665   3.864   3.087   0.501 -0.9938 -0.6512  3.4028
 6010TIP3    H239666   3.950   2.963   0.488 -0.1241  0.1873  0.4321
 6011TIP3   OH239667   3.285   3.489   1.591  0.3883 -0.2467  0.0706
 6011TIP3    H139668   3.230   3.511   1.516  1.3587  2.4325  0.0070
 6011TIP3    H239669   3.238   3.523   1.667 -0.0197 -1.8458  0.5623
 6012TIP3   OH239670   5.035   5.731   1.518  0.2633 -0.4780  0.4000
 6012TIP3    H139671   4.952   5.691   1.490  0.3787 -0.6679  0.3300
 6012TIP3    H239672   5.076   5.760   1.437 -0.2715  0.6818  0.5186
 6013TIP3   OH239673   3.774   1.927   1.690  0.3062 -0.3361  0.1382
 6013TIP3    H139674   3.720   2.002   1.665  1.7329  0.2963 -1.2373
 6013TIP3    H239675   3.714   1.853   1.691 -0.6881  0.4304 -0.8603
 6014TIP3   OH239676   5.746   0.617   6.900  0.5564  0.3351 -0.0328
 6014TIP3    H139677   5.704   0.546   6.851 -0.6366 -0.6317  2.2356
 6014TIP3    H239678   5.838   0.613   6.874 -0.0186 -0.0284 -2.2218
 6015TIP3   OH239679   3.505   6.630   6.545  0.1369 -0.5900 -0.1734
 6015TIP3    H139680   3.469   6.718   6.557  0.2136 -0.4730 -0.7402
 6015TIP3    H239681   3.586   6.630   6.597 -1.0805 -1.1427  1.8118
 6016TIP3   OH239682   3.032   1.925   7.623 -0.0259 -0.1951 -0.4602
 6016TIP3    H139683   3.051   1.993   7.558  0.3756 -0.9700 -1.1688
 6016TIP3    H239684   2.949   1.886   7.594 -1.1358  1.0369  0.8498
 6017TIP3   OH239685   0.183   0.377   1.795 -0.1089 -0.2424  0.0986
 6017TIP3    H139686   0.153   0.452   1.846 -0.0748  0.1358 -0.4231
 6017TIP3    H239687   0.136   0.385   1.712  0.3946 -0.4248 -0.2057
 6018TIP3   OH239688   4.560   0.067   7.794 -0.1931  0.0510  0.9195
 6018TIP3    H139689   4.498   0.098   7.860 -2.5983  0.9362 -1.5811
 6018TIP3    H239690   4.513  -0.000   7.746  0.9951  0.3164 -0.7063
 6019TIP3   OH239691   1.182   1.519   0.226 -0.5975  0.2791  0.4404
 6019TIP3    H139692   1.176   1.424   0.238  0.7897  0.0357 -0.5947
 6019TIP3    H239693   1.253   1.546   0.284 -0.9889  0.6912  0.7302
 6020TIP3   OH239694   2.364   5.663   7.434 -0.4333  0.4686  0.1043
 6020TIP3    H139695   2.359   5.722   7.358  1.0273  0.2483 -0.1954
 6020TIP3    H239696   2.367   5.575   7.395  0.8041  0.3794  0.3845
 6021TIP3   OH239697   3.518   6.796   7.026 -0.2006 -0.3012  0.6398
 6021TIP3    H139698   3.424   6.788   7.014  0.0264  0.9064 -4.5597
 6021TIP3    H239699   3.538   6.887   7.006  2.0996 -0.6935  0.8085
 6022TIP3   OH239700   5.142   6.801   6.446  1.0477  0.3467  0.5405
 6022TIP3    H139701   5.126   6.709   6.426  2.6499  0.5523 -2.2238
 6022TIP3    H239702   5.055   6.840   6.449  0.4214 -0.9593  0.1472
 6023TIP3   OH239703   4.864   3.673   2.661  0.3449  0.4441  0.1758
 6023TIP3    H139704   4.933   3.643   2.602  0.3852  1.9916 -0.6247
 6023TIP3    H239705   4.908   3.681   2.746  0.8518  0.2870 -0.0671
 6024TIP3   OH239706   4.798   4.556   0.945  0.4263  0.1822 -0.0992
 6024TIP3    H139707   4.808   4.617   1.018  0.0186  1.3347 -0.9853
 6024TIP3    H239708   4.744   4.602   0.881  0.3857 -0.9779 -0.9440
 6025TIP3   OH239709   0.335   3.829   7.299 -0.7226 -0.1875  0.1158
 6025TIP3    H139710   0.334   3.741   7.260 -0.5451 -1.0865  2.0225
 6025TIP3    H239711   0.417   3.867   7.269 -1.9497  0.3781 -2.8146
 6026TIP3   OH239712   0.678   3.410   8.219  0.0960  0.3798 -0.5905
 6026TIP3    H139713   0.773   3.397   8.214  0.0306 -0.9042  1.0468
 6026TIP3    H239714   0.661   3.429   8.311 -1.3043 -0.0451 -0.7443
 6027TIP3   OH239715   0.316   5.246   1.064  0.3283  0.3454 -0.1912
 6027TIP3    H139716   0.361   5.230   1.147  0.5687 -0.8266 -0.5336
 6027TIP3    H239717   0.271   5.164   1.044  2.4070 -0.3384 -2.5352
 6028TIP3   OH239718   5.787   3.896   8.430  0.6603 -0.4916  0.5453
 6028TIP3    H139719   5.727   3.930   8.496 -0.0701  0.3634 -0.5310
 6028TIP3    H239720   5.771   3.802   8.428 -1.0422 -0.2086 -0.1043
 6029TIP3   OH239721   0.794   1.873   2.056 -0.0444  0.0838  0.3582
 6029TIP3    H139722   0.883   1.899   2.076 -0.0445  0.1439  0.2801
 6029TIP3    H239723   0.799   1.836   1.967 -0.0602 -0.0974  0.4324
 6030TIP3   OH239724   1.819   4.854   1.104 -0.4869 -0.1441 -0.1897
 6030TIP3    H139725   1.871   4.918   1.153  0.1184 -0.1097 -0.8598
 6030TIP3    H239726   1.773   4.906   1.038  0.3856 -0.4553 -1.0526
 6031TIP3   OH239727   1.443   6.641   7.892  0.2322  0.1375  0.2871
 6031TIP3    H139728   1.534   6.629   7.865  0.6557 -1.2394  2.1659
 6031TIP3    H239729   1.391   6.622   7.814  1.4949 -0.6744 -0.3712
 6032TIP3   OH239730   2.842   6.228   0.959 -0.7790 -0.2419 -0.2011
 6032TIP3    H139731   2.840   6.195   0.870  0.7604  0.8612 -0.6796
 6032TIP3    H239732   2.895   6.307   0.955  0.8629 -1.1240  1.9948
 6033TIP3   OH239733   1.591   6.331   7.755  0.4766 -0.4019  0.2807
 6033TIP3    H139734   1.640   6.391   7.811 -2.1658  2.0688  0.1972
 6033TIP3    H239735   1.576   6.379   7.674  1.3652 -2.6500 -1.3257
 6034TIP3   OH239736   2.834   3.864   1.454  0.7232 -0.5768 -1.0845
 6034TIP3    H139737   2.818   3.923   1.380 -0.3083 -1.2029 -1.3931
 6034TIP3    H239738   2.755   3.810   1.458  1.9590 -2.4903 -1.3422
 6035TIP3   OH239739   4.018   2.993   8.272  0.4522  0.7617  0.2192
 6035TIP3    H139740   3.992   2.909   8.235  0.4608  0.8305  0.0590
 6035TIP3    H239741   4.021   2.977   8.367  0.4023  0.5964  0.1936
 6036TIP3   OH239742   0.359   4.962   0.028  0.2516  0.2760 -0.3393
 6036TIP3    H139743   0.324   4.964  -0.062 -0.5225  0.8784 -0.0322
 6036TIP3    H239744   0.312   4.889   0.069  1.8706 -1.1531 -0.9041
 6037TIP3   OH239745   5.738   3.175   1.149  0.8973  0.8645  0.2546
 6037TIP3    H139746   5.688   3.160   1.068  0.9418  0.6240  0.2740
 6037TIP3    H239747   5.708   3.261   1.179  1.6354  1.4226 -0.5681
 6038TIP3   OH239748   1.273   4.149   0.826 -0.5436 -0.0641 -0.1526
 6038TIP3    H139749   1.239   4.236   0.802  1.6407  0.4386 -1.7248
 6038TIP3    H239750   1.354   4.168   0.873 -0.6438 -1.2689  0.5385
 6039TIP3   OH239751   3.912   5.527   0.099 -0.5144  0.1513  0.2328
 6039TIP3    H139752   3.860   5.556   0.175  1.8704  1.0822  1.6247
 6039TIP3    H239753   3.931   5.607   0.051  0.6651  0.0299  0.4649
 6040TIP3   OH239754   5.984   0.863   1.540  0.1218 -0.2232  0.5034
 6040TIP3    H139755   6.074   0.895   1.526  0.9498 -2.5933 -0.0061
 6040TIP3    H239756   5.931   0.915   1.480  1.2478  0.6997  0.2592
 6041TIP3   OH239757   6.764   6.792   8.190 -0.6750 -0.0628 -0.5062
 6041TIP3    H139758   6.756   6.886   8.171 -0.7711  0.0842  0.2292
 6041TIP3    H239759   6.784   6.752   8.106 -0.6782  0.6164 -0.8356
 6042TIP3   OH239760   0.991   2.333   0.641 -0.0524  0.2267 -0.2062
 6042TIP3    H139761   0.988   2.426   0.619 -0.8409  0.4048  0.6056
 6042TIP3    H239762   0.934   2.291   0.577  0.1919  0.3173 -0.4858
 6043TIP3   OH239763   4.853   5.505   1.476 -0.2941  0.3183 -0.4466
 6043TIP3    H139764   4.912   5.433   1.498 -0.2600 -0.3511 -2.5448
 6043TIP3    H239765   4.778   5.492   1.534  0.3583 -0.5219  0.2466
 6044TIP3   OH239766   5.854   0.969   7.536 -0.4316 -0.1832  0.0100
 6044TIP3    H139767   5.901   1.051   7.523 -0.8267 -0.3100 -2.9654
 6044TIP3    H239768   5.779   0.993   7.590  0.2612  1.0669  0.4657
 6045TIP3   OH239769   1.994   4.423   7.421 -0.7270 -0.6866  0.4215
 6045TIP3    H139770   2.023   4.340   7.384  0.3781 -0.1691  0.0710
 6045TIP3    H239771   2.007   4.413   7.515  1.7822 -0.0881  0.2089
 6046TIP3   OH239772   3.097   2.536   7.471  0.2971  0.2993 -0.1596
 6046TIP3    H139773   3.066   2.506   7.386 -0.2029 -0.1950  0.1901
 6046TIP3    H239774   3.121   2.628   7.457  0.7657  0.0632 -0.9642
 6047TIP3   OH239775   2.293   4.726   1.728  0.2860  0.5696 -0.2168
 6047TIP3    H139776   2.286   4.803   1.784  2.3048 -0.0528  0.9697
 6047TIP3    H239777   2.371   4.680   1.759 -0.3483 -1.4902 -1.4853
 6048TIP3   OH239778   1.897   1.941   1.648 -0.3544 -0.1377  0.0382
 6048TIP3    H139779   1.897   1.846   1.637  0.7515 -0.3024  1.3327
 6048TIP3    H239780   1.922   1.975   1.562  0.4044 -1.0585 -0.1163
 6049TIP3   OH239781   2.005   4.113   0.081 -0.3394 -0.0732 -0.3089
 6049TIP3    H139782   1.997   4.046   0.013  0.1620 -0.3794 -0.0739
 6049TIP3    H239783   2.069   4.077   0.142 -0.1481  0.5728 -0.1204
 6050TIP3   OH239784   2.199   4.367   7.033  0.5545 -0.5078  0.1272
 6050TIP3    H139785   2.110   4.400   7.023  0.6242 -0.3693 -0.0463
 6050TIP3    H239786   2.241   4.429   7.093  0.8777  0.0979 -0.7079
 6051TIP3   OH239787   4.909   5.189   8.263 -0.0108  0.4289 -0.2992
 6051TIP3    H139788   4.885   5.132   8.190 -0.4042  1.1440 -0.7390
 6051TIP3    H239789   4.843   5.258   8.262 -0.4863  0.0391  1.2151
 6052TIP3   OH239790   3.721   2.016   0.567  0.9632 -0.6073  0.5009
 6052TIP3    H139791   3.809   1.981   0.583  0.6220 -0.7204  2.3987
 6052TIP3    H239792   3.693   2.050   0.652 -1.2330 -1.5222  0.2140
 6053TIP3   OH239793   6.009   2.797   8.408 -0.0794  0.0303  0.6287
 6053TIP3    H139794   5.933   2.810   8.464  0.7221  2.4870  1.2740
 6053TIP3    H239795   5.985   2.839   8.325 -0.3138 -1.4027 -0.0714
 6054TIP3   OH239796   4.853   0.680   0.322 -0.1350  0.5716 -0.1749
 6054TIP3    H139797   4.776   0.678   0.267  1.0061 -0.6693 -1.8194
 6054TIP3    H239798   4.873   0.774   0.332 -0.5214  0.8406 -1.6761
 6055TIP3   OH239799   6.834   0.064   1.695  0.2378 -0.0215 -0.3009
 6055TIP3    H139800   6.763   0.100   1.748 -0.2269  1.3122 -1.7302
 6055TIP3    H239801   6.882   0.141   1.663 -0.1604 -0.6556 -2.6398
 6056TIP3   OH239802   5.948   6.331   7.305 -0.6680 -0.1350 -0.1164
 6056TIP3    H139803   5.886   6.259   7.302 -1.6193  0.6482  0.3420
 6056TIP3    H239804   5.982   6.336   7.215  2.6457 -3.8210  0.6430
 6057TIP3   OH239805   0.698   1.590   1.830  0.8180 -0.3218 -0.4888
 6057TIP3    H139806   0.750   1.552   1.759  1.0306 -0.4183 -0.2820
 6057TIP3    H239807   0.608   1.564   1.810  0.8345 -0.0706 -0.9026
 6058TIP3   OH239808   5.580   1.736   6.726  0.2410 -0.3913  0.1354
 6058TIP3    H139809   5.577   1.658   6.783  0.3808 -0.2176  0.3813
 6058TIP3    H239810   5.499   1.732   6.676 -0.0655 -0.3449  0.6163
 6059TIP3   OH239811   6.441   3.974   0.521 -0.0070  0.0311 -0.1290
 6059TIP3    H139812   6.520   3.921   0.524  0.1311  0.2531  0.1241
 6059TIP3    H239813   6.373   3.913   0.491  0.6194  0.3014 -2.2539
 6060TIP3   OH239814   5.081   0.624   2.032 -0.4953 -0.3123 -0.1017
 6060TIP3    H139815   5.021   0.662   1.968  0.5616  0.8744 -0.4222
 6060TIP3    H239816   5.071   0.529   2.021 -0.4915 -0.1416 -1.8807
 6061TIP3   OH239817   6.604   4.279   7.563  0.0303 -0.0534 -0.1448
 6061TIP3    H139818   6.638   4.367   7.578 -0.3791 -0.1452  1.4477
 6061TIP3    H239819   6.610   4.267   7.468 -0.7286  2.0108 -0.4986
 6062TIP3   OH239820   3.768   5.799   7.574 -0.3128  0.5044  0.5289
 6062TIP3    H139821   3.814   5.874   7.612  0.1247  0.2246  0.5661
 6062TIP3    H239822   3.834   5.758   7.518 -0.2605 -0.3696  1.2078
 6063TIP3   OH239823   3.436   1.917   2.906  0.0099 -0.3143 -0.7542
 6063TIP3    H139824   3.401   1.914   2.816 -1.2111 -3.4480 -0.2984
 6063TIP3    H239825   3.401   1.838   2.948  1.8279  0.2276  2.0364
 6064TIP3   OH239826   1.515   4.862   0.533  0.1267 -0.0312  0.1374
 6064TIP3    H139827   1.574   4.874   0.608  0.0566  1.3219 -0.0036
 6064TIP3    H239828   1.434   4.905   0.560 -1.2028 -2.7373  0.7238
 6065TIP3   OH239829   2.066   6.065   8.435 -0.4788  0.1343  0.0547
 6065TIP3    H139830   2.043   6.041   8.345 -1.8260  2.0358 -0.1841
 6065TIP3    H239831   2.159   6.084   8.432 -0.7458  1.4244 -1.2859
 6066TIP3   OH239832   1.889   2.679   7.591  0.8507 -0.1512 -0.3117
 6066TIP3    H139833   1.939   2.605   7.626 -1.3539 -1.8692 -0.5652
 6066TIP3    H239834   1.842   2.643   7.516 -0.0179  1.6282 -0.6725
 6067TIP3   OH239835   3.171   6.359   7.403 -0.5573 -0.2548 -0.3962
 6067TIP3    H139836   3.260   6.323   7.411 -0.3649  0.5567  1.8713
 6067TIP3    H239837   3.164   6.385   7.311  1.3804 -0.7796 -0.7459
 6068TIP3   OH239838   3.920   4.619   0.211  0.0141  0.0921  0.6820
 6068TIP3    H139839   3.898   4.548   0.272 -1.3899 -0.4857 -0.4492
 6068TIP3    H239840   3.901   4.699   0.259  2.1460 -0.2215  2.1860
 6069TIP3   OH239841   1.148   5.612   7.445  1.0324  0.2503 -0.5179
 6069TIP3    H139842   1.114   5.526   7.422 -0.2505  0.1530  1.4313
 6069TIP3    H239843   1.240   5.597   7.468  0.5172 -0.8700  0.9701
 6070TIP3   OH239844   0.279   2.065   7.062 -0.2883 -0.0155  0.4501
 6070TIP3    H139845   0.261   2.024   6.977 -0.5541 -0.5709  0.7688
 6070TIP3    H239846   0.297   2.157   7.041  0.1898 -0.2595 -0.2656
 6071TIP3   OH239847   4.400   1.354   2.296 -0.1535  0.1821  0.2064
 6071TIP3    H139848   4.315   1.373   2.255 -0.5059  0.9008  1.2299
 6071TIP3    H239849   4.431   1.276   2.250 -2.1822 -1.1549  0.9393
 6072TIP3   OH239850   1.907   0.544   0.312  0.0788  0.2940 -0.4307
 6072TIP3    H139851   1.839   0.482   0.336  0.4513 -0.7568 -1.9874
 6072TIP3    H239852   1.887   0.622   0.363 -1.7631 -0.2952 -0.1909
 6073TIP3   OH239853   2.111   3.375   1.681 -0.0234  0.4945  0.6293
 6073TIP3    H139854   2.040   3.422   1.638  1.1267  1.9263  0.2404
 6073TIP3    H239855   2.181   3.371   1.616 -0.0046 -1.6438  0.7136
 6074TIP3   OH239856   5.105   3.577   2.583 -0.0780  0.0084 -0.5387
 6074TIP3    H139857   5.121   3.563   2.490  0.8248 -3.0729 -0.0385
 6074TIP3    H239858   5.192   3.593   2.620 -0.1808 -0.5669 -0.0172
 6075TIP3   OH239859   2.690   0.252   7.645  0.1399  0.2615  0.1200
 6075TIP3    H139860   2.677   0.330   7.592  1.5790  1.4706  1.4680
 6075TIP3    H239861   2.609   0.244   7.696 -0.7167 -0.1713 -1.2615
 6076TIP3   OH239862   2.324   1.146   8.029  0.4608 -0.0264 -0.0111
 6076TIP3    H139863   2.279   1.067   7.999  1.6889 -1.3244  1.3974
 6076TIP3    H239864   2.284   1.217   7.978 -0.0415 -1.6354 -1.9933
 6077TIP3   OH239865   0.013   6.557   0.467  0.1083  0.7261 -0.4148
 6077TIP3    H139866   0.106   6.532   0.461 -0.3924 -1.3020 -0.3700
 6077TIP3    H239867  -0.009   6.586   0.378  0.2286 -1.0214 -1.0583
 6078TIP3   OH239868   3.997   6.283   8.538 -0.0663 -0.3862  0.1679
 6078TIP3    H139869   3.990   6.326   8.623 -0.5876 -0.3514  0.1115
 6078TIP3    H239870   4.079   6.233   8.543  0.8538  1.0281  0.0437
 6079TIP3   OH239871   0.272   5.638   1.352 -0.0579 -0.8738  0.2597
 6079TIP3    H139872   0.186   5.679   1.361 -0.8867 -2.5190  0.3246
 6079TIP3    H239873   0.320   5.665   1.431 -0.6558 -0.2476  0.4169
 6080TIP3   OH239874   3.547   2.431   1.339  0.2680  0.2748 -0.1223
 6080TIP3    H139875   3.454   2.409   1.327  0.4493 -1.4599  1.2317
 6080TIP3    H239876   3.551   2.475   1.424  0.6903  0.2861 -0.1478
 6081TIP3   OH239877   5.313   5.125   0.792  0.3257 -0.2880  0.4628
 6081TIP3    H139878   5.367   5.153   0.866  0.1244 -0.1385  0.5561
 6081TIP3    H239879   5.280   5.207   0.755  1.3340 -0.2988 -0.4920
 6082TIP3   OH239880   2.584   1.836   7.032  0.5442  0.7115  0.3653
 6082TIP3    H139881   2.518   1.877   6.976  0.2661 -0.0653  0.1082
 6082TIP3    H239882   2.565   1.869   7.120  0.2058  0.9711  0.1974
 6083TIP3   OH239883   1.806   5.297   8.174 -0.1036  0.0466 -0.0806
 6083TIP3    H139884   1.849   5.225   8.222  1.2453  0.2656 -0.9047
 6083TIP3    H239885   1.713   5.280   8.184  0.1582 -0.7326  1.3766
 6084TIP3   OH239886   0.166   1.060   2.950 -0.8305  0.1961  0.5258
 6084TIP3    H139887   0.107   1.103   3.013 -2.0282 -2.4451  1.3574
 6084TIP3    H239888   0.143   1.100   2.866 -2.3351  0.7405  1.1438
 6085TIP3   OH239889   5.649   4.691   0.900  0.4512 -0.7364 -0.2369
 6085TIP3    H139890   5.645   4.787   0.898  1.8752 -0.6675 -1.0968
 6085TIP3    H239891   5.558   4.664   0.912  0.3100  0.7187  3.1056
 6086TIP3   OH239892   6.358   3.642   8.288  0.0359  0.6519  0.3872
 6086TIP3    H139893   6.329   3.628   8.197  1.9580 -1.1621 -0.0220
 6086TIP3    H239894   6.387   3.556   8.317  2.4325  1.7918  1.6276
 6087TIP3   OH239895   3.409   6.675   1.591 -0.1405 -0.2410  0.5312
 6087TIP3    H139896   3.463   6.600   1.615  0.8667  0.4731  0.5732
 6087TIP3    H239897   3.409   6.731   1.669 -0.3908  0.0725  0.3091
 6088TIP3   OH239898   2.551   0.073   8.349 -0.6655  0.4240  0.6533
 6088TIP3    H139899   2.533   0.058   8.257 -1.1307  0.8234  0.6743
 6088TIP3    H239900   2.646   0.080   8.355 -0.3824 -2.2067  0.5974
 6089TIP3   OH239901   0.885   1.473   6.660 -0.0699 -0.0187 -0.5797
 6089TIP3    H139902   0.836   1.402   6.702 -0.4966 -0.5407 -1.9032
 6089TIP3    H239903   0.943   1.506   6.729 -2.1248  0.5220  1.0143
 6090TIP3   OH239904   6.713   0.127   7.988  0.5643 -0.0077 -0.2254
 6090TIP3    H139905   6.633   0.135   7.937 -0.6181  0.8882  1.6665
 6090TIP3    H239906   6.758   0.210   7.977  1.0830 -0.3760 -0.9909
 6091TIP3   OH239907   1.771   1.393   0.050  0.3890 -0.1924 -0.2828
 6091TIP3    H139908   1.810   1.306   0.037  1.7661  0.0104  2.0043
 6091TIP3    H239909   1.840   1.454   0.024 -0.0773  0.2269 -0.5536
 6092TIP3   OH239910   5.061   1.896   8.280  0.3096  0.4923 -0.1885
 6092TIP3    H139911   5.007   1.975   8.289 -1.0253  0.0683 -3.1908
 6092TIP3    H239912   5.115   1.913   8.203  2.3611 -0.3410  0.9814
 6093TIP3   OH239913   0.504   3.708   3.258 -0.1269 -0.0265 -0.2327
 6093TIP3    H139914   0.456   3.787   3.283  2.5040  1.3662  0.8354
 6093TIP3    H239915   0.445   3.662   3.199 -2.3289  2.0282  0.1969
 6094TIP3   OH239916   2.771   2.864   7.451  0.0714 -0.1305  0.2656
 6094TIP3    H139917   2.792   2.940   7.396 -2.7083  1.1259  0.7638
 6094TIP3    H239918   2.824   2.877   7.530  0.3518  0.7977 -0.0547
 6095TIP3   OH239919   1.603   4.235   0.535  0.2390  0.1108  0.0114
 6095TIP3    H139920   1.633   4.156   0.580  0.2413  1.2263  2.0983
 6095TIP3    H239921   1.510   4.220   0.519  0.1231 -0.1125  0.8764
 6096TIP3   OH239922   5.939   0.686   7.597  0.5320 -0.2703  0.2234
 6096TIP3    H139923   5.896   0.770   7.612  1.0034  0.3021 -1.3701
 6096TIP3    H239924   5.924   0.667   7.504  2.7357 -0.5629 -0.1432
 6097TIP3   OH239925   4.580   3.979   0.324  0.0872  0.2986  0.0164
 6097TIP3    H139926   4.663   3.960   0.282 -0.3005 -1.2470 -0.1150
 6097TIP3    H239927   4.600   3.980   0.418 -0.2197 -3.3206  0.2542
 6098TIP3   OH239928   2.579   4.895   7.425  0.6324 -0.4079 -0.0114
 6098TIP3    H139929   2.498   4.935   7.456  0.4303  0.3641 -1.4412
 6098TIP3    H239930   2.630   4.878   7.504 -0.9126 -0.9049  0.9130
 6099TIP3   OH239931   0.392   0.899   7.774  0.3820  0.3451  0.3589
 6099TIP3    H139932   0.358   0.984   7.802  2.7338  1.7022 -0.5751
 6099TIP3    H239933   0.472   0.887   7.824  1.1597 -0.3345 -0.9915
 6100TIP3   OH239934   4.138   0.463   1.509 -0.8338 -0.1477  0.4594
 6100TIP3    H139935   4.057   0.500   1.545 -1.3490 -0.2914 -0.5170
 6100TIP3    H239936   4.174   0.410   1.581 -1.2546  0.4478  1.1244
 6101TIP3   OH239937   5.958   1.291   0.810  0.3146 -0.1540 -0.1638
 6101TIP3    H139938   5.993   1.203   0.807 -0.6664 -0.5283 -1.0702
 6101TIP3    H239939   5.951   1.318   0.719 -2.5074 -0.4418 -0.1359
 6102TIP3   OH239940   2.323   0.427   0.207  0.4238 -0.0962 -0.3151
 6102TIP3    H139941   2.246   0.447   0.260  0.7968 -0.4370  0.3787
 6102TIP3    H239942   2.367   0.357   0.255  1.2113  0.1513 -0.6622
 6103TIP3   OH239943   0.022   4.894   8.038 -0.3060  0.2019 -0.0441
 6103TIP3    H139944  -0.027   4.971   8.009 -0.2712  0.3800  0.3586
 6103TIP3    H239945   0.064   4.922   8.120  1.6511  0.5103 -1.0962
 6104TIP3   OH239946   1.648   0.893   2.423 -0.3164  0.1557 -0.2270
 6104TIP3    H139947   1.603   0.907   2.506  0.3786  0.2573  0.1382
 6104TIP3    H239948   1.680   0.979   2.398 -2.2175  0.5143 -1.6186
 6105TIP3   OH239949   0.917   0.105   0.083 -1.0060 -0.3422 -0.1492
 6105TIP3    H139950   0.934   0.073  -0.006  1.7067  0.2485  0.0808
 6105TIP3    H239951   0.974   0.053   0.139 -1.2678  0.5809  1.0086
 6106TIP3   OH239952   6.400   3.070   8.372 -0.0112 -0.0492 -0.0761
 6106TIP3    H139953   6.478   3.106   8.329  1.3048 -0.7023  1.6370
 6106TIP3    H239954   6.418   3.079   8.465 -1.8754 -0.5095  0.3703
 6107TIP3   OH239955   6.242   4.442   7.733 -0.4931  1.2185 -0.2979
 6107TIP3    H139956   6.223   4.486   7.815 -2.7475 -2.2468  1.3220
 6107TIP3    H239957   6.322   4.393   7.749  1.1761  3.3700 -1.5782
 6108TIP3   OH239958   1.133   5.430   7.215  0.3717  0.1464  0.3641
 6108TIP3    H139959   1.227   5.420   7.227  0.6561  0.2755 -1.4236
 6108TIP3    H239960   1.122   5.435   7.120 -1.5101 -0.5331  0.5117
 6109TIP3   OH239961   5.612   3.039   1.798  0.3104  0.2865  0.0333
 6109TIP3    H139962   5.680   3.105   1.814  0.0200  0.9499 -1.3173
 6109TIP3    H239963   5.561   3.037   1.879  2.0938 -0.4655  1.2125
 6110TIP3   OH239964   0.871   4.311   1.568  0.4179 -0.1026  0.5450
 6110TIP3    H139965   0.784   4.298   1.530 -1.5249  2.4804  3.5746
 6110TIP3    H239966   0.914   4.372   1.508 -1.0126  0.8083  0.3920
 6111TIP3   OH239967   2.431   4.629   8.369  0.1987  0.0957  0.0050
 6111TIP3    H139968   2.397   4.603   8.455  1.2297 -0.8366  0.1424
 6111TIP3    H239969   2.440   4.547   8.321 -0.2037  0.5972 -0.9454
 6112TIP3   OH239970   5.722   6.105   1.839 -0.3519 -0.0534  0.5667
 6112TIP3    H139971   5.658   6.176   1.830 -0.7421 -0.5396 -0.7642
 6112TIP3    H239972   5.771   6.127   1.918 -0.6681  1.5229  0.3564
 6113TIP3   OH239973   2.858   0.744   7.020 -0.2043  0.0022 -0.1902
 6113TIP3    H139974   2.930   0.747   7.083 -1.2249 -1.3669  1.1127
 6113TIP3    H239975   2.883   0.674   6.959  0.2962  0.6232 -0.7127
 6114TIP3   OH239976   2.530   3.448   6.482  0.0104  0.0611  0.3675
 6114TIP3    H139977   2.460   3.510   6.459  0.9988  0.6483 -1.2691
 6114TIP3    H239978   2.603   3.474   6.426  1.2760 -1.0586  1.4473
 6115TIP3   OH239979   4.185   6.722   0.184  0.1469 -0.5814  0.2248
 6115TIP3    H139980   4.145   6.781   0.248 -0.6265 -0.5346 -0.2909
 6115TIP3    H239981   4.153   6.635   0.209  0.0052 -0.5867  0.0308
 6116TIP3   OH239982   3.228   0.690   2.412  0.1617 -0.3892  0.0283
 6116TIP3    H139983   3.148   0.654   2.451  0.3222  0.6176  1.3688
 6116TIP3    H239984   3.197   0.763   2.358  0.1662  0.0043  0.5521
 6117TIP3   OH239985   6.583   2.337   1.275  0.3478  0.0570  0.1288
 6117TIP3    H139986   6.602   2.380   1.192 -0.6197 -1.3202 -0.8551
 6117TIP3    H239987   6.495   2.301   1.264 -0.9252  2.0164  2.7070
 6118TIP3   OH239988   4.862   0.941   8.445  0.2104  0.6522 -0.7666
 6118TIP3    H139989   4.932   0.919   8.384  1.3530 -0.1419  0.7595
 6118TIP3    H239990   4.900   0.927   8.531 -0.2410  4.8459  0.3493
 6119TIP3   OH239991   2.170   4.523   1.928  0.0574 -0.2751 -0.2819
 6119TIP3    H139992   2.231   4.521   2.001 -0.3603  2.2714  0.2381
 6119TIP3    H239993   2.226   4.528   1.850  0.4887 -0.9300 -0.0250
 6120TIP3   OH239994   5.769   5.590   2.787 -0.4388  0.1721  0.1645
 6120TIP3    H139995   5.778   5.505   2.744 -0.0116  0.2798  0.0367
 6120TIP3    H239996   5.785   5.571   2.880  0.5326  0.2525  0.0232
 6121TIP3   OH239997   4.409   5.944   1.106 -0.0545  0.0729  0.5780
 6121TIP3    H139998   4.443   5.855   1.105  0.3484  0.2279  0.2543
 6121TIP3    H239999   4.374   5.955   1.195  2.4220  0.5390  1.5701
 6122TIP3   OH240000   0.001   5.724   8.012 -0.4958  0.0851  0.0204
 6122TIP3    H140001  -0.073   5.771   7.973  0.5534  0.6877 -1.3115
 6122TIP3    H240002   0.004   5.640   7.965 -0.9048 -0.3573  0.7533
 6123TIP3   OH240003   5.171   2.863   8.697  0.1587  0.4619 -0.3492
 6123TIP3    H140004   5.200   2.854   8.788  0.5112 -0.0030 -0.5038
 6123TIP3    H240005   5.106   2.933   8.700 -1.2726 -0.8276  0.5928
 6124TIP3   OH240006   6.763   4.677   1.513 -0.0624 -0.1403 -0.3421
 6124TIP3    H140007   6.673   4.672   1.481 -0.6438 -0.4467  1.2460
 6124TIP3    H240008   6.817   4.659   1.436 -1.3249  0.8065 -1.4877
 6125TIP3   OH240009   2.662   0.408   2.276  0.3113  0.4696  0.1225
 6125TIP3    H140010   2.635   0.497   2.257 -0.8334 -0.0612 -0.8677
 6125TIP3    H240011   2.597   0.376   2.340 -0.4070 -0.2346 -0.9269
 6126TIP3   OH240012   5.891   1.759   0.376  0.7231 -0.9854  0.1754
 6126TIP3    H140013   5.879   1.725   0.464 -1.7079  0.9685  0.7237
 6126TIP3    H240014   5.858   1.690   0.319  1.1122 -1.7473  0.8470
 6127TIP3   OH240015   3.950   0.823   2.586 -0.6027 -0.4382 -0.4023
 6127TIP3    H140016   4.008   0.900   2.586  0.1573 -0.9181  2.1800
 6127TIP3    H240017   3.888   0.839   2.657 -0.6282 -2.0582 -0.0185
 6128TIP3   OH240018   4.200   3.861   2.050 -0.3669  0.3024 -0.5200
 6128TIP3    H140019   4.118   3.910   2.054  0.1589  1.1620 -0.1775
 6128TIP3    H240020   4.269   3.927   2.056  0.3553 -0.4308 -0.5376
 6129TIP3   OH240021   1.249   4.682   0.143 -0.0109  0.3430 -0.7392
 6129TIP3    H140022   1.194   4.605   0.127 -0.5473  0.8468 -1.3482
 6129TIP3    H240023   1.210   4.722   0.221 -0.0528  0.2876 -0.7310
 6130TIP3   OH240024   2.201   1.701   8.614 -0.3077 -0.1721 -0.2082
 6130TIP3    H140025   2.280   1.661   8.578 -1.1053 -1.1280 -0.9680
 6130TIP3    H240026   2.162   1.746   8.540 -1.0915 -0.7313 -0.1498
 6131TIP3   OH240027   4.538   0.936   8.667 -0.5594 -0.7891  0.3145
 6131TIP3    H140028   4.583   0.949   8.584 -2.3652 -1.5098 -0.8282
 6131TIP3    H240029   4.604   0.957   8.733  1.6221 -2.2422 -1.2450
 6132TIP3   OH240030   3.663   5.611   8.032 -0.1278 -0.2560  0.1516
 6132TIP3    H140031   3.676   5.550   8.105  2.1628  2.3324  2.1045
 6132TIP3    H240032   3.573   5.642   8.044 -0.3672 -1.1277  0.8143
 6133TIP3   OH240033   3.736   4.425   7.373 -0.2516 -0.0170 -0.1634
 6133TIP3    H140034   3.715   4.334   7.390 -2.2082  0.4004 -0.0133
 6133TIP3    H240035   3.748   4.464   7.459 -2.7393  0.5061  0.0455
 6134TIP3   OH240036   1.323   2.200   1.129 -0.4215 -0.4214 -0.1922
 6134TIP3    H140037   1.306   2.165   1.216 -0.3822  0.0198 -0.0057
 6134TIP3    H240038   1.238   2.203   1.087 -0.8868  1.8629  0.7672
 6135TIP3   OH240039   4.313   2.500   7.772  0.5858 -0.0370  0.4750
 6135TIP3    H140040   4.377   2.538   7.832 -0.7896 -0.3934  2.2519
 6135TIP3    H240041   4.313   2.559   7.696  2.9370 -0.0090  0.4012
 6136TIP3   OH240042   0.121   6.782   2.047  0.9108 -0.3072  0.5275
 6136TIP3    H140043   0.179   6.728   1.994  0.9923 -0.7476  1.0561
 6136TIP3    H240044   0.123   6.868   2.004  0.2187 -0.9003 -0.7271
 6137TIP3   OH240045   4.011   2.290   0.432  0.0957  0.2467  0.4576
 6137TIP3    H140046   3.943   2.277   0.367  0.0257 -1.3929  0.8234
 6137TIP3    H240047   4.005   2.383   0.455 -1.7128  0.2352  0.1508
 6138TIP3   OH240048   3.955   0.316   8.404 -0.8785 -0.4716 -0.5916
 6138TIP3    H140049   3.927   0.225   8.411  0.8787 -1.1439 -1.6885
 6138TIP3    H240050   3.992   0.323   8.316  3.1452  0.0288  0.9040
 6139TIP3   OH240051   6.155   2.684   1.209  0.2667  0.1950  0.1252
 6139TIP3    H140052   6.179   2.776   1.197 -0.5633  0.5479  0.9633
 6139TIP3    H240053   6.089   2.687   1.278 -0.0029 -1.0077 -0.0743
 6140TIP3   OH240054   0.210   1.792   1.229 -0.7427 -0.7005  0.2527
 6140TIP3    H140055   0.219   1.718   1.169 -0.1447  0.6831 -1.4296
 6140TIP3    H240056   0.296   1.801   1.269 -0.8231 -0.9230  0.4782
 6141TIP3   OH240057   3.079   2.852   0.224  0.2769  0.1295  0.1947
 6141TIP3    H140058   3.168   2.818   0.231 -0.0206 -0.8103 -0.3970
 6141TIP3    H240059   3.051   2.829   0.135 -1.0936 -1.0016  0.8631
 6142TIP3   OH240060   5.554   3.723   0.673 -0.1936 -0.1034 -0.2371
 6142TIP3    H140061   5.547   3.680   0.588 -0.4344 -0.2895 -0.1245
 6142TIP3    H240062   5.647   3.714   0.697  0.4569  2.1394 -1.6068
 6143TIP3   OH240063   1.516   0.734   0.763  0.0258 -0.2860  0.3447
 6143TIP3    H140064   1.446   0.749   0.700  1.0341  0.8813 -0.5424
 6143TIP3    H240065   1.532   0.820   0.803  0.2968 -0.7381  1.2418
 6144TIP3   OH240066   3.876   2.748   0.573  0.3171 -0.2917  0.3996
 6144TIP3    H140067   3.789   2.722   0.544 -0.0686  1.1967  0.1376
 6144TIP3    H240068   3.864   2.777   0.663  0.4284  0.4426  0.1810
 6145TIP3   OH240069   3.273   1.283   2.006 -0.1262 -0.0697  0.4680
 6145TIP3    H140070   3.268   1.376   2.028  0.7475 -0.2319  1.4028
 6145TIP3    H240071   3.191   1.265   1.961 -0.8556  0.8682  1.3799
 6146TIP3   OH240072   3.669   0.606   0.858 -0.1893 -0.3026 -0.2797
 6146TIP3    H140073   3.698   0.684   0.904  0.2823 -1.0870  0.8143
 6146TIP3    H240074   3.645   0.636   0.770  1.5078  0.7866 -0.3984
 6147TIP3   OH240075   1.498   2.232   8.088 -0.4355 -0.0976 -0.2167
 6147TIP3    H140076   1.423   2.178   8.063  0.3333 -2.7367  2.5088
 6147TIP3    H240077   1.460   2.307   8.133 -1.4576 -0.2760 -0.7536
 6148TIP3   OH240078   1.835   5.362   1.008  0.2948 -0.0760  0.4111
 6148TIP3    H140079   1.802   5.335   0.922 -1.7524  1.3820  0.6827
 6148TIP3    H240080   1.758   5.366   1.063  1.6799 -1.8746  2.6508
 6149TIP3   OH240081   0.973   6.845   0.591  0.5520 -0.3168  0.2205
 6149TIP3    H140082   0.911   6.908   0.629  1.0516  0.3110  0.0094
 6149TIP3    H240083   1.048   6.849   0.650  1.1529  0.3329 -0.5678
 6150TIP3   OH240084   3.326   6.219   2.010 -0.0067  0.3607  0.0172
 6150TIP3    H140085   3.269   6.275   1.956 -0.2442  1.9297  1.7988
 6150TIP3    H240086   3.332   6.264   2.094  2.8866 -0.3937  0.3246
 6151TIP3   OH240087   0.097   4.545   8.593 -0.0767 -0.1641  0.6757
 6151TIP3    H140088   0.011   4.579   8.615  0.4452  1.5814  0.1739
 6151TIP3    H240089   0.090   4.516   8.502 -0.5433 -1.5286  1.1274
 6152TIP3   OH240090   6.771   6.597   0.204  0.0863 -0.0131 -0.3401
 6152TIP3    H140091   6.726   6.522   0.165  1.8903 -0.6380 -1.2928
 6152TIP3    H240092   6.733   6.673   0.159 -0.2589 -0.4913 -0.8717
 6153TIP3   OH240093   5.625   4.748   7.622  0.2233  0.1451  0.1597
 6153TIP3    H140094   5.611   4.717   7.712 -1.2828 -1.0696 -0.4459
 6153TIP3    H240095   5.719   4.738   7.608 -0.0709 -4.3447  0.0544
 6154TIP3   OH240096   5.275   5.799   8.060 -0.1947 -0.0727  1.1133
 6154TIP3    H140097   5.345   5.850   8.020  0.3727 -1.9513 -0.4422
 6154TIP3    H240098   5.257   5.843   8.143  3.0173  0.2989  1.7088
 6155TIP3   OH240099   3.403   5.652   7.983  0.4815  0.1142 -0.0315
 6155TIP3    H140100   3.370   5.729   8.028  0.2137  2.7778 -4.1865
 6155TIP3    H240101   3.346   5.581   8.011 -0.4186  1.7505  2.6303
 6156TIP3   OH240102   1.649   2.985   8.015  0.1477  0.4561  0.7082
 6156TIP3    H140103   1.590   3.025   7.951 -1.5613 -0.8046  1.3896
 6156TIP3    H240104   1.722   2.951   7.963  0.4998  2.3691 -0.1199
 6157TIP3   OH240105   6.097   5.724   1.274  0.0832  0.2483 -0.0719
 6157TIP3    H140106   6.104   5.665   1.349  0.3177  2.8226  2.0551
 6157TIP3    H240107   6.188   5.744   1.251  0.1319 -2.4119 -2.7822
 6158TIP3   OH240108   6.163   3.153   0.767  0.2011 -0.2983 -0.1398
 6158TIP3    H140109   6.103   3.158   0.841  0.2640 -0.2448 -0.0921
 6158TIP3    H240110   6.223   3.226   0.780  1.0159 -1.0522  0.4582
 6159TIP3   OH240111   3.063   1.135   1.922  0.2587 -0.4053 -0.6127
 6159TIP3    H140112   3.023   1.099   2.001  3.0722 -1.0568  0.6427
 6159TIP3    H240113   3.077   1.060   1.865  1.1262 -0.4926 -0.3151
 6160TIP3   OH240114   1.100   4.016   8.487  0.0492 -0.2337 -0.0586
 6160TIP3    H140115   1.061   4.101   8.508 -0.5072 -0.1027 -1.4869
 6160TIP3    H240116   1.148   3.992   8.566 -0.8027  0.8171  0.8244
 6161TIP3   OH240117   3.937   6.059   1.772 -0.1236  0.0985  0.4803
 6161TIP3    H140118   3.848   6.069   1.806 -0.4965  3.3527 -1.0233
 6161TIP3    H240119   3.989   6.121   1.824  1.0323 -0.8865  0.5332
 6162TIP3   OH240120   0.327   4.484   0.057 -0.0045 -0.4639 -0.4931
 6162TIP3    H140121   0.304   4.427  -0.017  1.4181 -0.3563 -1.0442
 6162TIP3    H240122   0.245   4.528   0.079 -0.3215  0.0921 -2.5342
 6163TIP3   OH240123   2.608   2.551   6.628  0.4400 -0.3580 -0.2604
 6163TIP3    H140124   2.556   2.532   6.706 -0.1510 -0.5631 -0.6928
 6163TIP3    H240125   2.679   2.608   6.659  0.0620 -0.2267  0.3772
 6164TIP3   OH240126   0.373   3.692   1.147 -0.0182 -0.0567 -0.5737
 6164TIP3    H140127   0.441   3.706   1.082  1.2540 -2.4732  0.1012
 6164TIP3    H240128   0.408   3.623   1.203 -3.0807 -1.4974 -0.2446
 6165TIP3   OH240129   5.454   0.233   0.426  0.4640  0.3113  0.3492
 6165TIP3    H140130   5.545   0.221   0.454  0.5141  0.9660  0.4890
 6165TIP3    H240131   5.433   0.155   0.376  0.8964 -0.1456  0.8757
 6166TIP3   OH240132   3.339   2.910   8.353 -0.4425  0.1143  0.8819
 6166TIP3    H140133   3.380   2.997   8.354  0.0972 -0.1405  1.7673
 6166TIP3    H240134   3.370   2.870   8.272  0.2735  0.2964  1.0617
 6167TIP3   OH240135   1.748   1.780   7.352 -0.3176 -0.6486 -0.5418
 6167TIP3    H140136   1.756   1.818   7.264  1.5211 -0.5354 -0.3586
 6167TIP3    H240137   1.716   1.691   7.336 -1.0720 -0.2615 -1.2381
 6168TIP3   OH240138   0.722   1.074   8.578 -0.3623  0.0151  0.3360
 6168TIP3    H140139   0.728   0.980   8.566 -0.0249 -0.2439  2.1377
 6168TIP3    H240140   0.739   1.087   8.672 -0.7219  1.8307  0.1923
 6169TIP3   OH240141   2.406   0.891   8.320  0.3510 -0.3647  0.0444
 6169TIP3    H140142   2.397   0.828   8.392  1.0927 -1.7391 -1.0300
 6169TIP3    H240143   2.499   0.888   8.297  0.3731  1.0360 -0.1280
 6170TIP3   OH240144   6.859   4.423   1.265  0.5010  0.0750  1.0900
 6170TIP3    H140145   6.869   4.357   1.197 -1.0977 -0.6113  1.4635
 6170TIP3    H240146   6.939   4.418   1.316  1.6422  0.4483 -0.5837
 6171TIP3   OH240147   2.098   2.749   0.552 -0.1723  0.0615  0.2481
 6171TIP3    H140148   2.112   2.810   0.480  0.5481 -0.9376 -0.4766
 6171TIP3    H240149   2.040   2.681   0.516 -0.1583 -0.2153  0.7370
 6172TIP3   OH240150   2.721   0.690   7.577  0.4382  0.2571 -0.5337
 6172TIP3    H140151   2.782   0.635   7.528 -0.9182 -1.3319 -0.5083
 6172TIP3    H240152   2.764   0.776   7.580  2.9360 -0.9321  0.0308
 6173TIP3   OH240153   4.733   3.918   8.280 -0.0148  0.0337  0.6197
 6173TIP3    H140154   4.778   3.995   8.316  0.5860  0.5832 -1.1855
 6173TIP3    H240155   4.785   3.894   8.203 -1.7339 -0.5004 -0.4219
 6174TIP3   OH240156   1.624   4.835   8.645  0.0358  0.1210 -0.2315
 6174TIP3    H140157   1.562   4.875   8.706 -0.0570 -0.1842 -0.1230
 6174TIP3    H240158   1.638   4.902   8.578 -0.6075  0.1069 -0.3931
 6175TIP3   OH240159   2.448   5.677   0.556 -0.3527  0.6386 -0.2977
 6175TIP3    H140160   2.447   5.602   0.497 -1.9139  1.2167 -1.0438
 6175TIP3    H240161   2.359   5.681   0.591 -0.1883  1.9177  0.0217
 6176TIP3   OH240162   5.113   0.042   7.302  0.3271  0.0859  0.2958
 6176TIP3    H140163   5.179   0.026   7.369  0.3574  0.4886  0.3615
 6176TIP3    H240164   5.059  -0.037   7.303  0.5014 -0.0308  0.5919
 6177TIP3   OH240165   3.339   1.446   1.606 -0.5444 -0.6549  0.9811
 6177TIP3    H140166   3.259   1.408   1.569 -0.6277 -0.3174  0.8069
 6177TIP3    H240167   3.394   1.371   1.627  0.0053 -0.8423 -0.9669
 6178TIP3   OH240168   3.925   4.966   8.129 -0.5840 -0.3489  0.5720
 6178TIP3    H140169   3.972   4.886   8.151 -1.0792 -1.0832 -0.9469
 6178TIP3    H240170   3.834   4.940   8.121 -1.2684  0.9580  2.9055
 6179TIP3   OH240171   0.735   1.035   0.676  0.1161  0.1059  0.3865
 6179TIP3    H140172   0.718   0.959   0.621  1.5438  0.6500 -0.8772
 6179TIP3    H240173   0.767   0.999   0.758 -0.9423 -0.6866  0.4641
 6180TIP3   OH240174   4.822   6.335   8.067 -0.1558 -0.4202  0.4945
 6180TIP3    H140175   4.907   6.302   8.096  1.0181  1.9662 -0.0030
 6180TIP3    H240176   4.843   6.402   8.002 -2.5032 -1.0238 -1.0014
 6181TIP3   OH240177   0.567   0.237   2.609  0.4039 -0.3312 -0.0328
 6181TIP3    H140178   0.484   0.192   2.623  0.2726 -0.0480  0.1073
 6181TIP3    H240179   0.567   0.308   2.674  1.6316 -1.5076  1.2921
 6182TIP3   OH240180   3.274   2.492   1.022  0.0676  0.2270  0.3278
 6182TIP3    H140181   3.264   2.473   0.929  1.5993 -0.6492  0.3049
 6182TIP3    H240182   3.256   2.409   1.066  0.1599  0.4255  0.7545
 6183TIP3   OH240183   5.275   3.166   0.041 -0.3060 -0.0827 -0.0255
 6183TIP3    H140184   5.310   3.189  -0.045  1.3490 -1.3249  0.2832
 6183TIP3    H240185   5.239   3.078   0.030  0.8626 -0.6759  0.7921
 6184TIP3   OH240186   5.084   1.361   2.365  0.2948 -0.7989  0.2102
 6184TIP3    H140187   4.994   1.386   2.341 -0.4468 -2.7726  0.7787
 6184TIP3    H240188   5.073   1.294   2.432  2.2266 -0.9758  0.3908
 6185TIP3   OH240189   4.643   2.159   0.099  0.2010 -0.2907  0.1523
 6185TIP3    H140190   4.620   2.247   0.069 -0.4740 -0.1621  1.0044
 6185TIP3    H240191   4.623   2.160   0.193 -0.0285 -1.4281  0.1243
 6186TIP3   OH240192   3.942   4.140   2.647  0.5544 -0.1758 -0.4399
 6186TIP3    H140193   3.949   4.188   2.729  0.0928  2.2943 -1.7757
 6186TIP3    H240194   4.006   4.070   2.656  2.4401  1.6067  0.9803
 6187TIP3   OH240195   4.600   3.602   1.554 -0.0833  0.2831 -0.1039
 6187TIP3    H140196   4.590   3.509   1.576 -1.9267  0.5117  0.1880
 6187TIP3    H240197   4.583   3.647   1.636  0.7303  0.8969 -0.2641
 6188TIP3   OH240198   1.690   4.864   8.101 -0.4595 -0.1309  0.4080
 6188TIP3    H140199   1.725   4.884   8.188  0.0975  0.5996  0.0345
 6188TIP3    H240200   1.694   4.948   8.054  1.3252 -0.9538 -1.0325
 6189TIP3   OH240201   2.697   3.839   0.502 -0.5208 -0.9081 -0.5169
 6189TIP3    H140202   2.654   3.916   0.466  2.5360  1.5345  0.6203
 6189TIP3    H240203   2.753   3.808   0.430  0.6310 -0.0709 -0.0028
 6190TIP3   OH240204   2.462   0.473   8.227  0.4386  0.6061 -0.1230
 6190TIP3    H140205   2.387   0.533   8.234 -0.4821 -0.3198 -1.4860
 6190TIP3    H240206   2.529   0.523   8.181  0.1634  1.0096 -0.0950
 6191TIP3   OH240207   2.259   0.098   7.262  0.5229 -0.0666 -0.3175
 6191TIP3    H140208   2.316   0.106   7.185  0.4397 -0.0092 -0.3736
 6191TIP3    H240209   2.171   0.087   7.225  0.4922 -0.1083 -0.2310
 6192TIP3   OH240210   5.377   2.340   7.388  0.3985 -0.5453 -0.3800
 6192TIP3    H140211   5.384   2.307   7.299 -2.2855  0.3313 -1.0034
 6192TIP3    H240212   5.359   2.433   7.378 -0.0592 -0.4529  1.0721
 6193TIP3   OH240213   6.765   1.132   8.425  0.0421  0.0417  0.4813
 6193TIP3    H140214   6.851   1.153   8.461 -0.3674  1.2515  0.8151
 6193TIP3    H240215   6.751   1.198   8.357 -1.2394  0.7971  1.4405
 6194TIP3   OH240216   6.517   5.807   1.750 -0.3471 -0.2356  0.2396
 6194TIP3    H140217   6.586   5.798   1.816 -0.6709 -3.4626  0.2851
 6194TIP3    H240218   6.441   5.837   1.799  0.2833  0.6656  0.6931
 6195TIP3   OH240219   1.978   1.388   7.766  0.3537 -0.6707  0.4566
 6195TIP3    H140220   1.917   1.351   7.830 -1.1353 -1.2629 -1.2159
 6195TIP3    H240221   1.929   1.389   7.684  1.8207  1.0742 -0.4744
 6196TIP3   OH240222   0.585   1.078   8.311 -0.6065 -0.5912  0.1853
 6196TIP3    H140223   0.522   1.048   8.245  0.7991 -0.0804 -1.4474
 6196TIP3    H240224   0.645   1.004   8.323 -0.7012 -0.5899  0.7322
 6197TIP3   OH240225   6.266   1.201   8.538 -0.2007  0.0977  0.1342
 6197TIP3    H140226   6.334   1.262   8.510  0.9506 -1.5309 -0.8331
 6197TIP3    H240227   6.301   1.115   8.515 -1.2623 -1.0427  2.4179
 6198TIP3   OH240228   2.295   1.021   8.699 -0.2928  0.1232  0.0535
 6198TIP3    H140229   2.345   1.099   8.723 -0.5445 -0.3233  2.2237
 6198TIP3    H240230   2.247   1.047   8.620  0.4427  1.8069  0.1251
 6199TIP3   OH240231   4.770   4.521   0.601 -1.0716 -0.0826  0.6922
 6199TIP3    H140232   4.748   4.613   0.584 -0.9637 -0.2778 -0.6010
 6199TIP3    H240233   4.696   4.472   0.565 -0.1415 -0.5884 -0.5934
 6200TIP3   OH240234   2.871   0.688   2.164  0.2900  0.2020  0.7251
 6200TIP3    H140235   2.832   0.680   2.251 -0.9785 -0.2918  0.1392
 6200TIP3    H240236   2.798   0.712   2.107  1.2294  1.2326 -0.0955
 6201TIP3   OH240237   0.043   1.986   0.544  0.5149 -0.7401 -0.2270
 6201TIP3    H140238   0.064   1.903   0.500  1.5959 -0.4182 -0.3466
 6201TIP3    H240239  -0.039   2.014   0.505  0.7956 -1.1244 -1.1102
 6202TIP3   OH240240   5.082   0.074   7.822 -0.4153  0.1163 -0.0522
 6202TIP3    H140241   5.100   0.163   7.851 -2.1985  1.0462 -1.5710
 6202TIP3    H240242   4.986   0.068   7.820 -0.4125 -0.7665 -2.7983
 6203TIP3   OH240243   3.012   2.893   0.503  0.2603  0.2651 -0.1998
 6203TIP3    H140244   3.045   2.903   0.414  0.2177  0.6841 -0.1727
 6203TIP3    H240245   3.025   2.800   0.524 -0.9542 -0.1429 -1.1230
 6204TIP3   OH240246   4.171   5.557   1.512 -0.2956  0.3344  0.0603
 6204TIP3    H140247   4.260   5.578   1.486  0.4387 -2.3425  0.1070
 6204TIP3    H240248   4.177   5.535   1.605 -1.8869  4.2608  1.3307
 6205TIP3   OH240249   6.105   0.324   1.713  0.4651 -0.2399 -0.0871
 6205TIP3    H140250   6.122   0.395   1.652  2.0476 -0.0894  0.4963
 6205TIP3    H240251   6.099   0.366   1.799 -3.0170 -0.2631 -0.1692
 6206TIP3   OH240252   4.383   4.033   1.394  0.5421 -0.3365  0.2874
 6206TIP3    H140253   4.333   4.107   1.428  0.9110 -0.1041  0.3173
 6206TIP3    H240254   4.468   4.039   1.436  0.5565 -0.8141  0.3396
 6207TIP3   OH240255   5.528   1.635   0.676 -0.1863  0.0944 -0.4266
 6207TIP3    H140256   5.480   1.710   0.642 -0.4359 -0.2313 -0.8043
 6207TIP3    H240257   5.620   1.659   0.666 -0.2640  0.4656 -0.2770
 6208TIP3   OH240258   1.491   3.642   2.383 -0.0371 -0.3354  0.4857
 6208TIP3    H140259   1.548   3.651   2.460  1.1854  1.4495 -0.5490
 6208TIP3    H240260   1.450   3.729   2.374 -1.2924 -0.9561 -0.0445
 6209TIP3   OH240261   4.118   5.125   8.240  0.0000 -0.4484 -0.1467
 6209TIP3    H140262   4.165   5.135   8.157 -0.1173 -2.7805 -0.5515
 6209TIP3    H240263   4.038   5.078   8.217 -1.7210  1.7859  0.8245
 6210TIP3   OH240264   1.970   3.871   7.622 -0.0819 -0.2597 -0.1221
 6210TIP3    H140265   2.012   3.890   7.705  1.2668  1.8607 -1.2039
 6210TIP3    H240266   2.023   3.917   7.557 -0.5790 -2.5006 -2.2899
 6211TIP3   OH240267   4.582   3.419   1.222 -0.3281  0.4505 -0.3590
 6211TIP3    H140268   4.604   3.508   1.249  1.8603  0.0069 -0.5514
 6211TIP3    H240269   4.498   3.401   1.266 -0.6792  2.4804 -0.1089
 6212TIP3   OH240270   3.708   3.579   1.069  0.0538 -0.4127  0.1202
 6212TIP3    H140271   3.759   3.501   1.048  1.1353  0.1885  0.4699
 6212TIP3    H240272   3.703   3.627   0.986  2.1635  0.7134  0.5852
 6213TIP3   OH240273   1.808   6.285   2.051  0.5596 -0.3346 -0.1152
 6213TIP3    H140274   1.794   6.267   2.144  1.9289 -0.2304  0.1352
 6213TIP3    H240275   1.881   6.347   2.049 -0.9929  1.5810 -1.1759
 6214TIP3   OH240276   6.426   0.806   0.351 -0.0210 -0.3521 -0.4432
 6214TIP3    H140277   6.511   0.851   0.348  1.0680 -2.1777  0.6958
 6214TIP3    H240278   6.390   0.828   0.436 -0.6122  0.2392 -0.8379
 6215TIP3   OH240279   1.551   1.637   8.687  0.0248 -0.8902 -0.3568
 6215TIP3    H140280   1.612   1.711   8.688  0.4327 -1.2213  0.9298
 6215TIP3    H240281   1.601   1.565   8.650 -0.2496 -0.6336 -1.2431
 6216TIP3   OH240282   0.567   2.172   6.829 -0.2849  0.3552  0.4134
 6216TIP3    H140283   0.597   2.096   6.878  1.5363  0.3421 -0.6279
 6216TIP3    H240284   0.516   2.135   6.756  1.1788  0.0498 -0.4886
 6217TIP3   OH240285   5.516   3.294   8.327 -0.0164  0.5564  0.5815
 6217TIP3    H140286   5.605   3.314   8.298 -0.1828 -1.1473 -1.4110
 6217TIP3    H240287   5.506   3.200   8.309 -1.8206  0.4397  1.9192
 6218TIP3   OH240288   4.558   5.055   1.795 -0.0757 -0.3813 -0.6602
 6218TIP3    H140289   4.644   5.094   1.785  0.1511 -0.6805  0.1040
 6218TIP3    H240290   4.565   4.999   1.872 -0.6235 -1.2943 -1.2505
 6219TIP3   OH240291   6.680   4.572   8.030  0.2735  0.0333 -0.4397
 6219TIP3    H140292   6.709   4.628   8.102  1.0970  2.0241 -2.2285
 6219TIP3    H240293   6.748   4.505   8.023 -0.9416 -1.6155  2.0138
 6220TIP3   OH240294   2.194   4.124   2.765  0.1878  0.8584  0.4650
 6220TIP3    H140295   2.116   4.177   2.779 -0.8988 -0.7109  0.5865
 6220TIP3    H240296   2.195   4.063   2.838 -0.8108 -1.8306 -1.5822
 6221TIP3   OH240297   1.792   3.423   1.230  0.1197 -0.1060 -0.5643
 6221TIP3    H140298   1.877   3.459   1.207 -0.7772  2.5987  0.0622
 6221TIP3    H240299   1.782   3.346   1.173  2.8925 -0.4454 -0.6991
 6222TIP3   OH240300   2.811   2.399   0.411  0.2907  0.3017 -0.1090
 6222TIP3    H140301   2.742   2.342   0.443 -0.0662  0.4128 -0.6620
 6222TIP3    H240302   2.889   2.373   0.460  0.5779 -1.9206 -1.6397
 6223TIP3   OH240303   0.806   5.360   1.217  0.1553  0.1390 -0.1455
 6223TIP3    H140304   0.858   5.303   1.274 -0.0087  0.7720  0.6490
 6223TIP3    H240305   0.850   5.445   1.221  1.9060 -0.4859 -3.3433
 6224TIP3   OH240306   1.185   5.921   7.874  0.0392 -0.3790 -0.6200
 6224TIP3    H140307   1.238   5.965   7.807 -1.8644 -0.7049 -2.4345
 6224TIP3    H240308   1.210   5.829   7.867  2.8360 -0.0068  2.0742
 6225TIP3   OH240309   2.009   6.347   7.163  0.7420 -0.2068  0.0453
 6225TIP3    H140310   1.990   6.254   7.173  0.8594 -0.1554  0.8529
 6225TIP3    H240311   2.052   6.372   7.245 -1.5496  1.0932  0.9824
 6226TIP3   OH240312   6.849   2.792   8.307  0.2783 -0.0506  0.2788
 6226TIP3    H140313   6.870   2.886   8.307  0.7222 -0.1150  2.0525
 6226TIP3    H240314   6.869   2.763   8.218  0.5532  1.4510 -0.1782
 6227TIP3   OH240315   3.505   3.559   1.262  0.8556  0.2731 -0.0232
 6227TIP3    H140316   3.535   3.489   1.319  1.8406  0.4083 -0.3549
 6227TIP3    H240317   3.559   3.552   1.183  0.1972  0.7037 -0.5297
 6228TIP3   OH240318   2.709   3.304   2.600 -0.7948  0.3003 -0.1213
 6228TIP3    H140319   2.753   3.360   2.536 -1.6678  0.0681 -0.9525
 6228TIP3    H240320   2.679   3.364   2.668  0.0926  0.5575  0.0568
 6229TIP3   OH240321   0.178   4.257   8.157 -0.3330  0.2010 -0.4391
 6229TIP3    H140322   0.205   4.190   8.093  0.2887  0.7622 -0.7827
 6229TIP3    H240323   0.096   4.225   8.193 -0.3345 -0.4676 -1.0252
 6230TIP3   OH240324   4.899   2.395   1.526  0.0654  0.0862  0.0461
 6230TIP3    H140325   4.823   2.417   1.472  0.3652 -0.0140 -0.4135
 6230TIP3    H240326   4.946   2.328   1.477  1.8798  1.9727 -0.9491
 6231TIP3   OH240327   4.871   2.795   8.435 -0.1825 -0.1755  0.1863
 6231TIP3    H140328   4.865   2.803   8.530  3.6198 -1.0218  0.6884
 6231TIP3    H240329   4.862   2.884   8.402 -3.3970 -0.0695  1.0343
 6232TIP3   OH240330   5.188   3.469   8.255 -0.3823 -0.0732  0.1068
 6232TIP3    H140331   5.249   3.506   8.319  0.0271 -2.1572  1.0072
 6232TIP3    H240332   5.112   3.443   8.308 -1.2086  0.5971 -0.7022
 6233TIP3   OH240333   4.690   3.477   8.352 -0.4283  0.2121 -0.2050
 6233TIP3    H140334   4.708   3.554   8.406  2.0658 -0.4027 -0.0019
 6233TIP3    H240335   4.729   3.498   8.267 -0.7333 -0.3881 -0.5006
 6234TIP3   OH240336   4.921   2.834   0.237  0.2645 -0.1995  0.4243
 6234TIP3    H140337   4.869   2.894   0.290 -0.2776 -0.4067  0.1343
 6234TIP3    H240338   4.996   2.886   0.209 -0.5905  0.5939 -0.4728
 6235TIP3   OH240339   0.852   3.630   1.230 -0.3918  0.0544 -0.4499
 6235TIP3    H140340   0.870   3.720   1.202  0.4236  0.3197  0.7972
 6235TIP3    H240341   0.862   3.577   1.151  1.9099  0.7297 -0.6767
 6236TIP3   OH240342   2.868   2.182   1.242 -0.3615  0.5252  0.3058
 6236TIP3    H140343   2.832   2.180   1.153  1.1309  0.7759 -0.3330
 6236TIP3    H240344   2.883   2.090   1.264  0.8039  0.5263 -0.3853
 6237TIP3   OH240345   1.701   6.023   0.739 -0.4006 -0.4439 -0.0291
 6237TIP3    H140346   1.774   5.991   0.792  0.7035  1.5196 -0.2529
 6237TIP3    H240347   1.628   6.030   0.800  0.1938 -0.4813  0.7033
 6238TIP3   OH240348   3.202   1.755   0.705  0.2846 -0.1257 -0.6041
 6238TIP3    H140349   3.287   1.797   0.692  0.8399 -1.2707 -0.7603
 6238TIP3    H240350   3.203   1.679   0.648  0.2427 -1.6631  1.3337
 6239TIP3   OH240351   0.022   6.206   2.853 -0.0507 -0.4169 -0.0436
 6239TIP3    H140352  -0.041   6.137   2.872  0.6904 -0.8615  0.9072
 6239TIP3    H240353   0.105   6.160   2.843 -0.0429 -0.0068 -2.6666
 6240TIP3   OH240354   0.005   3.907   7.987  0.0907  0.4085  0.1687
 6240TIP3    H140355  -0.004   3.874   8.077 -1.5626  1.3645  0.4100
 6240TIP3    H240356   0.053   3.839   7.941 -1.2284 -1.2930  1.1870
 6241TIP3   OH240357   5.153   1.167   0.672 -0.2998  0.9023 -0.5524
 6241TIP3    H140358   5.090   1.102   0.703 -0.1476  1.5459  1.2405
 6241TIP3    H240359   5.200   1.193   0.751  1.0974  1.6404 -1.5886
 6242TIP3   OH240360   5.373   3.686   1.310 -0.5214 -0.3585  0.6222
 6242TIP3    H140361   5.467   3.695   1.323 -0.3248 -1.8543  0.4313
 6242TIP3    H240362   5.338   3.663   1.396 -0.7878  0.5785  0.7794
 6243TIP3   OH240363   2.382   4.279   2.627 -0.0154  0.8947  0.3645
 6243TIP3    H140364   2.471   4.291   2.660 -1.1690  2.8840  3.2330
 6243TIP3    H240365   2.331   4.256   2.704 -2.1155  0.4199 -1.0884
 6244TIP3   OH240366   2.513   4.209   1.393  0.0191 -0.0457  0.4508
 6244TIP3    H140367   2.522   4.219   1.488 -0.2343  2.2549  0.2730
 6244TIP3    H240368   2.422   4.231   1.375  0.1359 -0.2141 -0.3615
 6245TIP3   OH240369   3.849   6.029   7.701 -0.0706 -0.5774 -0.1982
 6245TIP3    H140370   3.916   5.989   7.757  1.3730 -1.7473 -2.6187
 6245TIP3    H240371   3.890   6.110   7.669 -1.6635  1.1983  1.8900
 6246TIP3   OH240372   3.369   1.871   0.393  0.1406  0.0339 -0.3814
 6246TIP3    H140373   3.299   1.809   0.414  0.8097 -0.6671 -0.1885
 6246TIP3    H240374   3.347   1.902   0.305 -1.5274  1.3956  0.4734
 6247TIP3   OH240375   5.392   5.711   0.100  0.0705  0.3582 -0.5605
 6247TIP3    H140376   5.486   5.712   0.079  0.0550 -0.0653 -0.6666
 6247TIP3    H240377   5.385   5.768   0.177  0.2645  1.1709 -1.1255
 6248TIP3   OH240378   1.802   1.131   0.536 -0.3562  0.2534  0.0124
 6248TIP3    H140379   1.815   1.115   0.630 -0.7889 -1.0487 -0.1372
 6248TIP3    H240380   1.884   1.105   0.495 -0.6688 -0.5650 -0.1121
 6249TIP3   OH240381   2.887   4.361   0.193 -0.1663  0.0483  0.7225
 6249TIP3    H140382   2.832   4.424   0.239  0.2702 -0.8547  2.5661
 6249TIP3    H240383   2.970   4.361   0.241 -0.1178 -1.8387  0.7306
 6250TIP3   OH240384   2.936   1.239   7.110 -0.2327 -0.8506 -0.4244
 6250TIP3    H140385   2.882   1.314   7.136 -0.6745 -1.5254  0.6789
 6250TIP3    H240386   2.976   1.266   7.028  1.4328  1.4876  1.0474
 6251TIP3   OH240387   4.442   2.879   7.135 -0.4662 -0.9942  0.0189
 6251TIP3    H140388   4.383   2.932   7.081  0.9454  0.0405 -0.5557
 6251TIP3    H240389   4.403   2.791   7.132 -0.5106 -0.9789 -2.6374
 6252TIP3   OH240390   0.906   5.167   0.970 -0.0659 -0.4147  0.4299
 6252TIP3    H140391   0.969   5.114   1.019  0.7339 -0.5822 -0.7301
 6252TIP3    H240392   0.961   5.223   0.914 -0.9164  0.8897  0.8611
 6253TIP3   OH240393   1.114   6.721   7.352 -0.6035  0.5607  0.4794
 6253TIP3    H140394   1.177   6.730   7.281  1.2874  0.0653  2.0141
 6253TIP3    H240395   1.089   6.810   7.373  0.2245  0.8168  0.3963
 6254TIP3   OH240396   5.715   3.180   0.267  0.2378  0.3646  0.1623
 6254TIP3    H140397   5.718   3.089   0.238 -0.6972  0.7556 -1.2499
 6254TIP3    H240398   5.625   3.208   0.251  0.4685  1.4973  0.7334
 6255TIP3   OH240399   2.344   0.646   7.908  0.2991 -0.2663  0.1713
 6255TIP3    H140400   2.423   0.608   7.869 -0.6889 -1.4936 -0.7247
 6255TIP3    H240401   2.298   0.688   7.836 -0.0033  0.2018  0.6265
 6256TIP3   OH240402   6.565   3.065   0.712  0.4194  0.3711 -0.1782
 6256TIP3    H140403   6.550   2.977   0.747 -1.7483  0.7567  0.0515
 6256TIP3    H240404   6.582   3.119   0.788  0.3323  0.3928 -0.1737
 6257TIP3   OH240405   6.243   2.359   7.614 -0.6310 -0.0087  0.2483
 6257TIP3    H140406   6.171   2.310   7.652  0.3596 -1.1255  0.7661
 6257TIP3    H240407   6.301   2.377   7.688  0.0533  0.0996 -0.3005
 6258TIP3   OH240408   0.269   0.509   0.312  0.1822  0.2658 -0.1709
 6258TIP3    H140409   0.185   0.509   0.265  0.1646 -1.5668 -0.2033
 6258TIP3    H240410   0.300   0.419   0.306  2.3030  0.9601 -0.3650
 6259TIP3   OH240411   4.570   4.121   0.990 -0.4497  0.3975  0.0696
 6259TIP3    H140412   4.659   4.139   1.018 -0.8415  0.0050  1.6943
 6259TIP3    H240413   4.535   4.206   0.964  0.2876  0.6041 -0.2724
 6260TIP3   OH240414   4.718   0.057   0.538 -0.3201  0.6416 -0.1470
 6260TIP3    H140415   4.804   0.016   0.538 -0.2525  0.7008 -1.7402
 6260TIP3    H240416   4.736   0.151   0.535 -0.2930  0.6564 -3.7887
 6261TIP3   OH240417   1.452   2.334   0.550  0.2131 -0.1610 -0.2478
 6261TIP3    H140418   1.471   2.395   0.621 -2.3809 -0.3796  0.7449
 6261TIP3    H240419   1.374   2.287   0.579  0.1420 -1.5624 -2.4703
 6262TIP3   OH240420   5.258   0.853   2.020  0.2649 -0.0631  0.4921
 6262TIP3    H140421   5.224   0.771   2.057 -0.6160 -1.1409 -2.4269
 6262TIP3    H240422   5.180   0.900   1.991  0.8718  1.1567  0.7678
 6263TIP3   OH240423   5.864   1.379   2.001 -0.4209 -0.3067  0.0048
 6263TIP3    H140424   5.801   1.448   1.984 -0.8970 -1.0958 -1.6388
 6263TIP3    H240425   5.891   1.348   1.914  1.9388 -0.2744  0.6412
 6264TIP3   OH240426   4.861   3.635   7.356 -0.3836  0.2709 -0.1674
 6264TIP3    H140427   4.783   3.593   7.320 -0.6265  0.2567  0.3695
 6264TIP3    H240428   4.908   3.669   7.279  0.2541 -1.6938 -0.7110
 6265TIP3   OH240429   5.518   4.479   1.634  0.2485  0.2345  0.5533
 6265TIP3    H140430   5.450   4.483   1.701  2.0037 -0.1623  2.4784
 6265TIP3    H240431   5.540   4.386   1.627  1.3226  0.4428  0.8284
 6266TIP3   OH240432   4.993   1.820   0.881  0.0488  0.0284 -0.4187
 6266TIP3    H140433   5.043   1.767   0.820 -1.2603 -0.1240 -1.3988
 6266TIP3    H240434   5.044   1.818   0.962  1.2722 -0.6494 -1.1811
 6267TIP3   OH240435   5.857   1.770   8.521  0.6878 -0.0017 -0.1561
 6267TIP3    H140436   5.893   1.829   8.587  1.5774  0.7558 -1.2755
 6267TIP3    H240437   5.766   1.800   8.509 -0.0648 -1.2406  1.9044
 6268TIP3   OH240438   5.830   5.826   2.154 -0.3211 -0.2597 -0.0508
 6268TIP3    H140439   5.917   5.798   2.126 -0.3813 -0.8857  0.3719
 6268TIP3    H240440   5.772   5.797   2.084 -0.2566 -0.3081 -0.0846
 6269TIP3   OH240441   2.064   0.237   1.613  0.0463 -0.2389 -0.2861
 6269TIP3    H140442   2.006   0.165   1.636  1.1464 -1.1270 -0.2095
 6269TIP3    H240443   2.040   0.259   1.523  0.0784 -1.1079 -0.5196
 6270TIP3   OH240444   1.968   5.586   6.402  0.1017  0.0831 -0.3674
 6270TIP3    H140445   2.013   5.637   6.335  0.2183 -1.3085 -1.4042
 6270TIP3    H240446   1.886   5.632   6.417  0.0108  0.3471 -1.5999
 6271TIP3   OH240447   5.908   1.151   0.492  0.5280 -0.3500  0.1264
 6271TIP3    H140448   5.889   1.186   0.405  0.7382 -1.4096 -0.3737
 6271TIP3    H240449   5.833   1.178   0.545 -0.0110 -0.3725 -0.5954
 6272TIP3   OH240450   6.835   2.649   0.851 -0.1574  0.0047 -0.4660
 6272TIP3    H140451   6.787   2.721   0.892 -1.6134 -0.7532 -0.7676
 6272TIP3    H240452   6.869   2.686   0.770  2.5436  1.4524  1.2138
 6273TIP3   OH240453   1.635   1.285   7.719 -0.1903  0.4525 -0.0238
 6273TIP3    H140454   1.688   1.361   7.693  0.9941  0.6777  2.6955
 6273TIP3    H240455   1.691   1.237   7.780 -1.4834 -1.8346 -0.5401
 6274TIP3   OH240456   3.641   4.278   7.769  0.0484 -0.1225  0.1897
 6274TIP3    H140457   3.590   4.356   7.749  1.8549  0.9315 -0.5790
 6274TIP3    H240458   3.580   4.205   7.757 -1.5124  1.1196  0.3170
 6275TIP3   OH240459   2.372   0.846   2.546 -0.5238  0.2374  0.1344
 6275TIP3    H140460   2.282   0.828   2.520 -0.4251 -0.5243  0.2909
 6275TIP3    H240461   2.412   0.887   2.469 -1.3501  1.8241  0.5083
 6276TIP3   OH240462   5.681   4.688   6.581 -0.2370 -0.4681 -0.2747
 6276TIP3    H140463   5.750   4.739   6.538  0.0707  0.1788  0.9499
 6276TIP3    H240464   5.613   4.753   6.602 -0.4741 -0.8131  0.0246
 6277TIP3   OH240465   5.760   0.474   1.060 -0.2002 -0.2852 -0.0459
 6277TIP3    H140466   5.776   0.395   1.112 -0.4649 -1.4531 -1.6641
 6277TIP3    H240467   5.848   0.508   1.041 -0.0775  1.6905  3.2356
 6278TIP3   OH240468   3.908   0.918   6.890 -0.2370  0.1954 -0.4138
 6278TIP3    H140469   3.883   1.004   6.924 -1.0044  0.4167 -1.4849
 6278TIP3    H240470   3.834   0.861   6.913  1.2497 -0.7864  2.3589
 6279TIP3   OH240471   5.174   4.133   1.050  0.4302  0.2178 -0.2453
 6279TIP3    H140472   5.248   4.171   1.002  0.8388 -0.4161 -0.1216
 6279TIP3    H240473   5.211   4.059   1.098 -0.0708  0.5528  0.6864
 6280TIP3   OH240474   0.477   5.413   6.505  0.0717 -0.4871  0.0696
 6280TIP3    H140475   0.421   5.490   6.520 -0.9615 -0.6091 -2.6564
 6280TIP3    H240476   0.439   5.344   6.559 -1.1875 -0.0075 -0.1787
 6281TIP3   OH240477   6.553   1.670   7.536 -0.3854 -0.0518 -0.3331
 6281TIP3    H140478   6.581   1.580   7.550 -1.5396 -0.7675 -2.2011
 6281TIP3    H240479   6.632   1.715   7.505  0.3349 -0.2324  1.1368
 6282TIP3   OH240480   2.679   3.224   8.544  0.0654 -0.6535 -0.0127
 6282TIP3    H140481   2.629   3.182   8.474  0.7197 -0.5262 -0.5697
 6282TIP3    H240482   2.756   3.260   8.500  1.7600 -2.6691  1.1384
 6283TIP3   OH240483   5.529   3.803   7.604  0.4164 -0.2808 -0.2480
 6283TIP3    H140484   5.558   3.868   7.540 -0.6515 -1.5555 -2.1379
 6283TIP3    H240485   5.469   3.850   7.661  2.2048  1.1484  0.5288
 6284TIP3   OH240486   0.828   0.955   1.573  0.0053  0.8552 -0.7236
 6284TIP3    H140487   0.857   0.930   1.660  0.7148  0.5788 -1.0368
 6284TIP3    H240488   0.906   0.991   1.530 -0.1711  0.3742 -1.4683
 6285TIP3   OH240489   5.142   4.711   1.275 -0.0812 -0.0119  0.0618
 6285TIP3    H140490   5.125   4.714   1.181 -1.9280  0.5288  0.3649
 6285TIP3    H240491   5.056   4.694   1.314  0.9863 -2.4963  1.5615
 6286TIP3   OH240492   2.460   1.409   0.753  0.1576  0.2670 -0.0275
 6286TIP3    H140493   2.524   1.415   0.824  0.7895  1.2355 -0.6490
 6286TIP3    H240494   2.411   1.329   0.771  1.6027 -0.5456  0.4278
 6287TIP3   OH240495   6.748   1.746   1.401  0.5178  0.1710  0.2596
 6287TIP3    H140496   6.757   1.800   1.322 -0.3388  1.0518  0.7496
 6287TIP3    H240497   6.826   1.764   1.452  1.9922 -1.7446 -1.1308
 6288TIP3   OH240498   5.208   3.057   1.215 -1.1420 -0.1540 -0.0017
 6288TIP3    H140499   5.163   3.125   1.166 -3.0798  0.2728  2.1971
 6288TIP3    H240500   5.149   2.981   1.210 -0.6119 -0.6002  0.3526
 6289TIP3   OH240501   0.356   6.190   1.317 -0.3099 -0.4556 -0.4238
 6289TIP3    H140502   0.343   6.216   1.226 -1.4779  0.1118 -0.1157
 6289TIP3    H240503   0.282   6.132   1.336 -2.0746  2.1209  1.1293
 6290TIP3   OH240504   0.093   5.757   8.574 -0.5241 -0.2540 -0.0017
 6290TIP3    H140505   0.030   5.686   8.577 -1.7810  0.7390 -1.4546
 6290TIP3    H240506   0.125   5.766   8.664 -2.7857 -0.5048  0.8744
 6291TIP3   OH240507   2.951   5.846   8.542 -0.1121 -0.6301  0.3872
 6291TIP3    H140508   3.013   5.782   8.507  0.2656 -0.3125  0.4725
 6291TIP3    H240509   3.003   5.925   8.557 -0.8064  0.0848 -0.8334
 6292TIP3   OH240510   6.753   6.647   7.242 -0.9406  0.4940  0.3225
 6292TIP3    H140511   6.801   6.596   7.177  0.7061 -0.8318  2.4438
 6292TIP3    H240512   6.662   6.618   7.234 -0.9775  1.1084 -1.9944
 6293TIP3   OH240513   4.578   0.722   6.660 -0.2735 -0.1319 -0.2202
 6293TIP3    H140514   4.611   0.780   6.592  1.9275 -0.3089  0.6051
 6293TIP3    H240515   4.525   0.657   6.613  2.5238 -1.2428 -2.0640
 6294TIP3   OH240516   0.895   0.553   8.223 -0.3173 -0.9900  0.3139
 6294TIP3    H140517   0.809   0.593   8.215 -0.0329 -0.5683 -0.7865
 6294TIP3    H240518   0.937   0.567   8.138  1.0524 -0.6655  1.0023
 6295TIP3   OH240519   5.804   4.171   7.518  0.1643 -0.1887 -0.6499
 6295TIP3    H140520   5.789   4.200   7.608  1.5852 -1.5171  0.0633
 6295TIP3    H240521   5.722   4.130   7.492 -0.2309  0.1240  0.0795
 6296TIP3   OH240522   3.626   1.988   2.560  0.1960  0.3823 -0.0211
 6296TIP3    H140523   3.688   2.022   2.624 -0.1594  1.5883 -0.2927
 6296TIP3    H240524   3.541   1.992   2.604 -0.0195  1.0195 -0.4810
 6297TIP3   OH240525   5.225   4.873   1.715 -0.2260 -0.2698  0.6822
 6297TIP3    H140526   5.292   4.805   1.721  0.4949  0.2500 -0.8206
 6297TIP3    H240527   5.142   4.825   1.714  0.2844 -1.2015 -0.8181
 6298TIP3   OH240528   2.950   6.049   1.768  0.4154 -0.4556  0.1179
 6298TIP3    H140529   2.946   6.069   1.674 -0.0770 -2.4670 -0.3524
 6298TIP3    H240530   2.923   6.130   1.811  0.3192  0.4154 -1.4919
 6299TIP3   OH240531   4.308   0.534   0.574  0.1866 -0.2375 -0.1711
 6299TIP3    H140532   4.333   0.567   0.660  2.1764  1.9130 -1.4826
 6299TIP3    H240533   4.290   0.441   0.589  1.7885 -0.2446  2.3270
 6300TIP3   OH240534   4.014   2.976   8.547  0.8458  0.2440  0.4792
 6300TIP3    H140535   4.071   3.049   8.572  0.5552  0.6269  0.0339
 6300TIP3    H240536   3.932   2.994   8.592  1.2524 -0.6458  1.6436
 6301TIP3   OH240537   5.015   3.088   0.017  0.0395 -0.1283 -0.4999
 6301TIP3    H140538   5.027   3.117   0.107 -1.6303 -1.4043  0.1749
 6301TIP3    H240539   4.933   3.128  -0.011  0.1348 -0.3841 -1.1779
 6302TIP3   OH240540   2.678   0.239   0.837 -0.0023  0.5627 -0.0954
 6302TIP3    H140541   2.724   0.276   0.762 -0.0105 -1.6740 -1.3081
 6302TIP3    H240542   2.605   0.191   0.799 -1.0829  0.8615  1.5068
 6303TIP3   OH240543   1.544   1.770   2.529 -0.5965 -0.2731 -0.1988
 6303TIP3    H140544   1.508   1.822   2.601 -3.0605 -1.8456 -0.1928
 6303TIP3    H240545   1.596   1.833   2.478 -1.9836  1.7727  0.7732
 6304TIP3   OH240546   3.826   1.818   0.349 -0.1990 -0.8161 -0.6202
 6304TIP3    H140547   3.819   1.901   0.396 -1.4414 -1.3097  0.1199
 6304TIP3    H240548   3.878   1.839   0.272  1.2084  0.1904  0.5548
 6305TIP3   OH240549   4.491   3.887   8.166 -0.3360  0.2343 -0.7983
 6305TIP3    H140550   4.563   3.907   8.226 -0.0622  1.2976 -1.4454
 6305TIP3    H240551   4.533   3.874   8.081 -0.5727 -2.6215 -0.5672
 6306TIP3   OH240552   3.293   3.597   7.388 -0.1298  0.3854  0.1844
 6306TIP3    H140553   3.285   3.509   7.352  0.4091  0.1361  0.6707
 6306TIP3    H240554   3.306   3.653   7.311  2.1071 -0.2747  0.0158
 6307TIP3   OH240555   1.906   0.043   7.105  0.3088  0.2494 -0.1179
 6307TIP3    H140556   1.828  -0.012   7.111  0.2482  0.3164 -0.2812
 6307TIP3    H240557   1.964  -0.004   7.045  0.6167 -0.0666  0.4283
 6308TIP3   OH240558   1.832   2.846   8.205  0.4126  0.7507 -0.2717
 6308TIP3    H140559   1.878   2.916   8.157  3.0264 -0.3714  0.4158
 6308TIP3    H240560   1.828   2.878   8.295  1.6495  0.0460  0.0517
 6309TIP3   OH240561   4.755   3.845   2.338 -0.0150  0.3861  0.5047
 6309TIP3    H140562   4.764   3.931   2.296 -1.6017 -0.6244 -2.1768
 6309TIP3    H240563   4.771   3.783   2.268 -3.6835 -1.4615  1.0617
 6310TIP3   OH240564   6.144   1.325   8.253  0.1169 -0.1508 -0.2781
 6310TIP3    H140565   6.163   1.325   8.347 -1.9462  0.2503  0.1961
 6310TIP3    H240566   6.228   1.343   8.212  1.4285 -2.0705  1.3839
 6311TIP3   OH240567   2.655   0.926   1.622 -0.2861 -0.4938 -0.2463
 6311TIP3    H140568   2.634   0.932   1.528  2.0025 -1.4204 -0.8842
 6311TIP3    H240569   2.723   0.992   1.635  0.8683 -1.7612  0.2771
 6312TIP3   OH240570   6.205   0.873   0.826  0.2256  0.1911 -0.0307
 6312TIP3    H140571   6.257   0.809   0.778  0.4598  0.9333 -0.8009
 6312TIP3    H240572   6.268   0.938   0.856 -0.1247  0.5695 -0.1032
 6313TIP3   OH240573   3.520   0.392   2.042  0.2399 -0.5128  0.1314
 6313TIP3    H140574   3.555   0.446   1.970  1.0944  1.6661  2.0505
 6313TIP3    H240575   3.453   0.447   2.082  0.4439 -1.2713  1.5810
 6314TIP3   OH240576   0.229   4.159   2.818  0.5972  0.1577  0.8077
 6314TIP3    H140577   0.200   4.122   2.734  1.6350 -0.8904  0.8860
 6314TIP3    H240578   0.279   4.089   2.859  1.8554  1.3349  1.3823
 6315TIP3   OH240579   2.441   2.088   0.036  0.1276  0.5903  0.0309
 6315TIP3    H140580   2.517   2.082  -0.022  0.2823 -1.0417  0.3616
 6315TIP3    H240581   2.445   2.176   0.072  0.1483  1.5865 -2.2448
 6316TIP3   OH240582   6.413   5.766   0.700 -0.0933  0.9559  0.0240
 6316TIP3    H140583   6.461   5.789   0.780  2.0121 -2.2732 -0.1380
 6316TIP3    H240584   6.481   5.761   0.633 -1.1267 -0.8081 -0.9406
 6317TIP3   OH240585   2.254   2.553   0.981 -0.5187 -0.4954 -0.3012
 6317TIP3    H140586   2.251   2.571   0.887  1.8681  1.2640 -0.1201
 6317TIP3    H240587   2.240   2.638   1.022  0.2119 -0.9387  0.9004
 6318TIP3   OH240588   5.108   2.658   7.625  0.0077 -0.0102  0.3117
 6318TIP3    H140589   5.136   2.722   7.690 -0.2979 -0.8042  1.2299
 6318TIP3    H240590   5.189   2.613   7.600  0.1739  0.5124 -0.1046
 6319TIP3   OH240591   1.649   5.508   0.234 -0.2041  0.5999 -0.2040
 6319TIP3    H140592   1.569   5.457   0.225  0.2634 -0.0680 -0.6137
 6319TIP3    H240593   1.632   5.566   0.309 -0.7469 -0.1374  0.2487
 6320TIP3   OH240594   0.985   2.371   0.283  0.2448 -0.1634 -0.2034
 6320TIP3    H140595   0.929   2.367   0.360  2.4388  1.2732  1.5776
 6320TIP3    H240596   0.949   2.305   0.224 -1.8114 -0.9784  1.8218
 6321TIP3   OH240597   1.735   2.023   1.088 -0.3519 -0.4009 -0.4655
 6321TIP3    H140598   1.662   2.055   1.036 -0.6072 -1.4520 -0.7666
 6321TIP3    H240599   1.707   1.937   1.120  1.3141 -1.5464 -1.8623
 6322TIP3   OH240600   2.154   2.422   0.643 -0.1158 -0.2823  0.7615
 6322TIP3    H140601   2.182   2.348   0.589 -2.0124 -0.9023  0.5370
 6322TIP3    H240602   2.091   2.469   0.589  0.8006  1.3522  1.0381
 6323TIP3   OH240603   6.623   6.267   7.575  0.5516  0.0356  0.4121
 6323TIP3    H140604   6.711   6.286   7.542  0.8680  1.4845  1.9072
 6323TIP3    H240605   6.565   6.314   7.516  0.5666 -2.3026 -1.6194
 6324TIP3   OH240606   3.171   3.170   0.743 -0.0277  0.0380  0.3300
 6324TIP3    H140607   3.259   3.143   0.716  0.2905  1.4146 -0.1183
 6324TIP3    H240608   3.127   3.089   0.767  0.8416 -0.8690 -1.0011
 6325TIP3   OH240609   5.753   5.755   6.685 -0.4359 -0.4051 -0.0307
 6325TIP3    H140610   5.832   5.700   6.689 -0.6678 -0.8193 -0.8108
 6325TIP3    H240611   5.702   5.717   6.613 -1.1515  0.1185  0.1976
 6326TIP3   OH240612   6.755   4.508   0.845  0.7052 -0.5819 -0.2612
 6326TIP3    H140613   6.674   4.458   0.858  0.6429 -0.9336 -1.8408
 6326TIP3    H240614   6.824   4.451   0.880  0.3066 -0.3226  0.9997
 6327TIP3   OH240615   4.442   2.560   6.869 -0.0804  0.6320  0.2833
 6327TIP3    H140616   4.395   2.627   6.917 -0.8167 -1.1274  2.1950
 6327TIP3    H240617   4.379   2.526   6.805 -0.6857 -0.1337  1.2572
 6328TIP3   OH240618   2.442   4.806   0.037 -0.1006 -0.1468 -0.2199
 6328TIP3    H140619   2.506   4.858  -0.011 -2.5879  1.8480 -1.6428
 6328TIP3    H240620   2.459   4.824   0.129  1.0372  0.7210 -0.5780
 6329TIP3   OH240621   5.756   6.365   6.812  0.7316 -0.3499 -0.1888
 6329TIP3    H140622   5.807   6.284   6.821 -0.1028 -1.0751 -1.6333
 6329TIP3    H240623   5.820   6.432   6.789  1.4651 -0.5289  1.2300
 6330TIP3   OH240624   5.911   0.707   7.988 -0.0131 -0.2139 -0.0195
 6330TIP3    H140625   5.844   0.764   7.950 -0.5292 -1.0131 -0.3315
 6330TIP3    H240626   5.990   0.724   7.936 -0.6811 -1.2313 -1.4486
 6331TIP3   OH240627   0.335   1.140   0.285 -0.2803  0.1504 -0.0587
 6331TIP3    H140628   0.381   1.163   0.366 -1.8041  0.2143  0.8432
 6331TIP3    H240629   0.336   1.045   0.282  0.9523  0.1669 -0.7032
 6332TIP3   OH240630   1.076   6.413   8.161  0.2212  1.3343 -0.2598
 6332TIP3    H140631   1.114   6.331   8.127 -1.7458  0.7309 -1.1272
 6332TIP3    H240632   1.119   6.482   8.110  2.6741  0.9846  1.1923
 6333TIP3   OH240633   2.540   3.698   0.955 -0.2540 -0.2873 -0.0835
 6333TIP3    H140634   2.546   3.793   0.969 -1.4479 -0.1199 -0.6042
 6333TIP3    H240635   2.546   3.687   0.860  0.9263 -0.8378  0.0404
 6334TIP3   OH240636   1.615   3.145   2.384  0.5049 -0.4657 -0.5728
 6334TIP3    H140637   1.689   3.117   2.439  0.2479 -2.7854 -1.3118
 6334TIP3    H240638   1.638   3.116   2.296 -0.2231  0.9661 -1.2707
 6335TIP3   OH240639   4.992   4.280   2.237 -0.5223  0.2347  0.1902
 6335TIP3    H140640   5.069   4.251   2.287  0.3372  0.3636 -1.0027
 6335TIP3    H240641   4.954   4.350   2.290  0.6645  0.7186  0.4438
 6336TIP3   OH240642   2.565   6.640   8.476  0.6138 -0.0226 -0.3317
 6336TIP3    H140643   2.655   6.642   8.509  1.0207  0.4331 -1.4072
 6336TIP3    H240644   2.515   6.692   8.539  1.5586  1.7207 -0.9323
 6337TIP3   OH240645   5.095   0.951   7.299 -0.0751  0.3137  0.1037
 6337TIP3    H140646   5.170   0.995   7.260 -0.6553 -0.7563 -2.3822
 6337TIP3    H240647   5.106   0.964   7.393  3.3203  0.0639 -0.1321
 6338TIP3   OH240648   2.342   6.443   1.381  0.2551 -0.1377  0.0104
 6338TIP3    H140649   2.429   6.481   1.367  1.0312 -1.4097  1.2070
 6338TIP3    H240650   2.308   6.489   1.458  0.4406 -0.6031  0.3701
 6339TIP3   OH240651   6.562   2.962   1.217  0.3977  0.2736  0.4133
 6339TIP3    H140652   6.494   3.023   1.189 -0.8591 -1.3337 -0.2137
 6339TIP3    H240653   6.637   3.017   1.238 -1.3886  2.2217  2.1286
 6340TIP3   OH240654   1.107   0.219   7.829  0.1415  0.1555 -0.0156
 6340TIP3    H140655   1.128   0.133   7.792 -1.8998 -1.1735  1.7189
 6340TIP3    H240656   1.188   0.246   7.872  0.6778 -1.1651 -0.1276
 6341TIP3   OH240657   0.115   0.313   7.709 -0.3901 -0.4640  0.4122
 6341TIP3    H140658   0.117   0.371   7.633 -2.1529 -1.1758 -0.2430
 6341TIP3    H240659   0.187   0.343   7.765 -1.0138  2.1077 -0.0432
 6342TIP3   OH240660   0.884   3.404   0.220  0.0130 -0.1949  0.1628
 6342TIP3    H140661   0.848   3.361   0.142 -1.2877 -0.3759  0.8294
 6342TIP3    H240662   0.912   3.332   0.276  0.0508 -0.0935  0.2751
 6343TIP3   OH240663   2.635   5.711   1.682  0.5148 -0.4388  0.0949
 6343TIP3    H140664   2.617   5.657   1.758 -0.7485  1.4442  1.2135
 6343TIP3    H240665   2.563   5.694   1.622  1.8972 -2.4872 -1.0895
 6344TIP3   OH240666   0.466   6.837   7.191 -0.3463  0.7636  0.0745
 6344TIP3    H140667   0.463   6.750   7.229 -2.2690  0.6290 -0.2904
 6344TIP3    H240668   0.559   6.854   7.176  0.0442 -1.2934 -0.0330
 6345TIP3   OH240669   3.314   4.776   7.346 -0.2286 -0.6291  0.1301
 6345TIP3    H140670   3.376   4.705   7.336  0.3170 -0.0152 -1.0357
 6345TIP3    H240671   3.361   4.843   7.397 -0.6542 -0.9769  1.0076
 6346TIP3   OH240672   6.764   2.346   2.707  0.1835  0.0464  0.9307
 6346TIP3    H140673   6.697   2.338   2.639  1.5126 -0.8238 -0.3695
 6346TIP3    H240674   6.720   2.321   2.788 -1.5750  1.5525  0.5043
 6347TIP3   OH240675   3.197   2.053   8.466 -0.5255 -0.0941  0.5376
 6347TIP3    H140676   3.136   2.123   8.490  0.5472  0.5722  1.4143
 6347TIP3    H240677   3.183   1.985   8.533 -0.2665  0.0835  0.7727
 6348TIP3   OH240678   5.623   1.558   2.134 -0.3946 -0.0205 -0.3965
 6348TIP3    H140679   5.586   1.595   2.214 -2.0279  0.9570 -1.5527
 6348TIP3    H240680   5.657   1.634   2.086  0.4840 -0.5791 -0.6842
 6349TIP3   OH240681   2.352   6.575   7.968 -0.4704 -0.0631  0.0210
 6349TIP3    H140682   2.343   6.483   7.992 -2.2813 -0.1889 -0.9535
 6349TIP3    H240683   2.380   6.618   8.048  1.8772 -1.6428  0.1365
 6350TIP3   OH240684   3.720   3.333   8.401  0.2656  0.0269 -0.6000
 6350TIP3    H140685   3.761   3.275   8.336  1.4837 -0.1087  0.2378
 6350TIP3    H240686   3.780   3.408   8.407 -0.5176  0.6629 -0.5812
 6351TIP3   OH240687   1.285   5.321   1.166  0.1155 -0.7858 -0.1334
 6351TIP3    H140688   1.345   5.269   1.220 -0.7851 -0.9675  0.7304
 6351TIP3    H240689   1.211   5.263   1.149  0.2589 -0.6293 -1.3538
 6352TIP3   OH240690   2.182   2.352   1.165  0.2499 -0.0925 -0.4578
 6352TIP3    H140691   2.221   2.385   1.246 -1.9432  1.2177  0.1565
 6352TIP3    H240692   2.198   2.421   1.100  0.5404 -0.3939 -0.7150
 6353TIP3   OH240693   4.037   4.699   7.557 -0.0270  0.3034 -0.6025
 6353TIP3    H140694   4.050   4.634   7.489 -0.3735  1.2564 -1.6027
 6353TIP3    H240695   4.052   4.783   7.514 -0.6905  0.9547  0.3780
 6354TIP3   OH240696   5.441   2.636   0.027  0.4187 -0.0151 -0.1964
 6354TIP3    H140697   5.432   2.595   0.113  3.0910  0.3404  0.3555
 6354TIP3    H240698   5.455   2.729   0.047  0.4548  0.1649 -1.0419
 6355TIP3   OH240699   3.994   4.271   7.151  0.1296  0.0165 -0.6286
 6355TIP3    H140700   4.013   4.178   7.145 -0.1611 -0.4933  3.4009
 6355TIP3    H240701   3.902   4.279   7.127  0.4180 -0.4851 -2.0120
 6356TIP3   OH240702   5.419   6.298   0.638  0.2401 -0.0950  0.2589
 6356TIP3    H140703   5.478   6.336   0.572  0.8895  0.3288  1.0667
 6356TIP3    H240704   5.414   6.206   0.614  1.1291 -0.1111  0.0815
 6357TIP3   OH240705   5.450   3.859   2.661  0.2030 -0.1480  0.6150
 6357TIP3    H140706   5.536   3.888   2.693  0.0589 -0.6984  1.5447
 6357TIP3    H240707   5.408   3.938   2.629 -0.6378  0.9744  4.0940
 6358TIP3   OH240708   4.227   2.748   8.150 -0.2247 -0.1771 -0.2807
 6358TIP3    H140709   4.307   2.799   8.167 -1.4749  1.9158 -0.3006
 6358TIP3    H240710   4.189   2.736   8.237 -0.7046  0.3112 -0.4132
 6359TIP3   OH240711   6.345   5.517   8.285 -0.3151 -0.2864 -0.1412
 6359TIP3    H140712   6.360   5.566   8.203 -1.2936  0.0998 -0.1032
 6359TIP3    H240713   6.370   5.427   8.264  1.6927  0.2383 -0.1612
 6360TIP3   OH240714   2.652   6.866   0.582 -0.1216 -0.3175  0.0267
 6360TIP3    H140715   2.611   6.889   0.499  1.0179  1.2500 -0.1462
 6360TIP3    H240716   2.742   6.841   0.559  0.0191 -0.4910  0.7214
 6361TIP3   OH240717   3.792   0.454   7.080 -0.3049 -0.0254  0.0091
 6361TIP3    H140718   3.717   0.513   7.090  0.0370  0.2720  0.8616
 6361TIP3    H240719   3.768   0.398   7.006 -1.4134  0.0098  0.3242
 6362TIP3   OH240720   3.604   3.596   6.968  0.2293  0.4976 -0.1057
 6362TIP3    H140721   3.550   3.616   6.891  0.9507  0.7882 -0.5526
 6362TIP3    H240722   3.637   3.508   6.951 -0.2771  0.2270  0.2780
 6363TIP3   OH240723   0.919   1.611   2.635  0.4513  0.0682 -0.0473
 6363TIP3    H140724   0.936   1.576   2.723  0.4429 -2.1027 -0.8405
 6363TIP3    H240725   0.853   1.551   2.598 -2.5507  3.1661 -0.2001
 6364TIP3   OH240726   0.564   2.854   0.008  0.2047  0.2961  0.5162
 6364TIP3    H140727   0.624   2.886   0.076  0.7135  0.5470 -0.0492
 6364TIP3    H240728   0.593   2.764  -0.009  2.3110  1.3016 -1.7976
 6365TIP3   OH240729   2.366   3.082   1.009  0.1426 -0.1112 -0.3731
 6365TIP3    H140730   2.438   3.093   1.071  1.5250 -0.6374 -1.8039
 6365TIP3    H240731   2.399   3.018   0.945 -0.8999  0.9877 -2.0860
 6366TIP3   OH240732   0.102   0.625   6.842  0.0391  0.1293 -0.5752
 6366TIP3    H140733   0.076   0.707   6.799  0.2676  0.8462  0.5939
 6366TIP3    H240734   0.023   0.595   6.886  0.2631  0.4098  0.0364
 6367TIP3   OH240735   3.726   2.814   1.353  0.5200  0.3931  0.1837
 6367TIP3    H140736   3.639   2.854   1.345  0.3963  0.2236  0.6279
 6367TIP3    H240737   3.709   2.730   1.396  0.9056  0.3643  0.2803
 6368TIP3   OH240738   1.069   5.733   1.213  0.7381 -0.1058  0.4717
 6368TIP3    H140739   0.988   5.685   1.227 -1.6021  2.8118 -1.7460
 6368TIP3    H240740   1.074   5.795   1.286 -1.0644  2.0790 -1.1364
 6369TIP3   OH240741   2.419   1.270   7.600  0.3379 -0.2041 -0.0892
 6369TIP3    H140742   2.420   1.245   7.508  0.6832  1.1809 -0.4907
 6369TIP3    H240743   2.499   1.232   7.636 -0.7331 -2.3685  0.1368
 6370TIP3   OH240744   5.850   3.081   2.216  0.3847 -0.6066  0.0169
 6370TIP3    H140745   5.910   3.007   2.218  0.1556 -0.8166 -0.6580
 6370TIP3    H240746   5.763   3.041   2.218  0.2651 -0.3336  0.2543
 6371TIP3   OH240747   2.628   4.047   0.025  0.3763  1.0539 -0.1906
 6371TIP3    H140748   2.563   4.110   0.055 -1.4975 -0.3206 -1.1539
 6371TIP3    H240749   2.681   4.028   0.103  0.0320  2.6561  0.4629
 6372TIP3   OH240750   6.776   1.339   0.085 -0.2398  0.4130  0.0349
 6372TIP3    H140751   6.751   1.365  -0.004 -2.2631 -0.9640  0.1351
 6372TIP3    H240752   6.871   1.350   0.087 -0.0870  0.1562 -2.4087
 6373TIP3   OH240753   5.465   0.733   8.257 -0.1881  0.6994 -0.1061
 6373TIP3    H140754   5.453   0.719   8.350 -1.8060 -0.2191 -0.4183
 6373TIP3    H240755   5.476   0.645   8.220  1.9886  1.1252 -0.6361
 6374TIP3   OH240756   0.769   1.663   8.671 -0.8240  0.0771 -0.0194
 6374TIP3    H140757   0.679   1.688   8.690 -0.9649 -0.9719  0.7559
 6374TIP3    H240758   0.765   1.571   8.645  0.3354 -1.1876  3.5776
 6375TIP3   OH240759   5.102   3.840   8.405 -0.2908  0.0667 -0.1706
 6375TIP3    H140760   5.109   3.884   8.491 -1.6481  0.3929 -0.2095
 6375TIP3    H240761   5.011   3.811   8.400 -0.2864  0.2306 -1.5925
 6376TIP3   OH240762   2.693   1.605   2.558 -0.3081  0.1407 -0.5221
 6376TIP3    H140763   2.605   1.581   2.588 -0.1284 -0.7339 -0.6833
 6376TIP3    H240764   2.697   1.700   2.569 -0.7832  0.0232  0.7942
 6377TIP3   OH240765   3.517   3.853   8.029 -0.4312 -0.1382 -0.0086
 6377TIP3    H140766   3.445   3.819   8.081 -0.3973  1.0168  0.8197
 6377TIP3    H240767   3.594   3.807   8.062 -0.5715 -0.2657  0.1435
 6378TIP3   OH240768   3.922   5.972   8.563  0.2487  0.0324 -0.0033
 6378TIP3    H140769   3.859   6.022   8.616 -0.5032 -1.1813  0.2808
 6378TIP3    H240770   3.868   5.934   8.494  0.6454 -1.1535  0.3350
 6379TIP3   OH240771   5.254   2.829   1.842  0.0269  0.1576 -0.2568
 6379TIP3    H140772   5.298   2.910   1.816  0.2576  0.0777 -0.1151
 6379TIP3    H240773   5.235   2.841   1.935 -0.7597  0.4260 -0.4430
 6380TIP3   OH240774   1.516   4.998   8.452  0.5684  0.6648  0.4069
 6380TIP3    H140775   1.482   5.071   8.504 -0.0958 -0.2121  1.2381
 6380TIP3    H240776   1.448   4.931   8.458  0.7207  0.3320 -1.1726
 6381TIP3   OH240777   4.585   6.253   1.195 -0.1686 -0.2752  0.0202
 6381TIP3    H140778   4.589   6.190   1.267 -0.0706  0.6653  0.8560
 6381TIP3    H240779   4.652   6.224   1.133 -2.2756 -2.8984 -1.2389
 6382TIP3   OH240780   6.488   3.441   1.144 -0.7584 -0.3019 -0.2601
 6382TIP3    H140781   6.407   3.491   1.153  0.1380  0.7503  3.5431
 6382TIP3    H240782   6.545   3.497   1.090 -1.6756  0.0918 -0.8406
 6383TIP3   OH240783   3.978   0.795   2.312 -0.0698 -0.1065  0.5257
 6383TIP3    H140784   4.011   0.707   2.294 -0.8488 -0.6430  1.5916
 6383TIP3    H240785   3.909   0.782   2.378  0.5078  1.3903  1.4827
 6384TIP3   OH240786   2.975   5.754   1.009 -0.1946  0.1258 -0.2776
 6384TIP3    H140787   2.986   5.795   1.095  0.2140 -0.2562 -0.1401
 6384TIP3    H240788   2.998   5.822   0.946  1.2182 -0.0970 -0.0347
 6385TIP3   OH240789   5.255   4.115   7.949  0.3747 -0.2228  0.0228
 6385TIP3    H140790   5.236   4.079   8.036  1.1337  0.3566  0.4498
 6385TIP3    H240791   5.184   4.177   7.933  1.4467  1.4316  1.3057
 6386TIP3   OH240792   1.123   3.732   7.517 -0.4374  0.1253  0.0567
 6386TIP3    H140793   1.063   3.754   7.588 -0.2138  2.4494 -0.4044
 6386TIP3    H240794   1.070   3.682   7.456 -1.2115 -0.0132  0.8213
 6387TIP3   OH240795   3.308   5.597   0.525 -0.1405  0.1480  0.3199
 6387TIP3    H140796   3.391   5.630   0.557  0.4195 -0.9211  0.0262
 6387TIP3    H240797   3.254   5.675   0.511  1.0694  0.9112 -0.2022
 6388TIP3   OH240798   1.628   0.225   8.649 -0.1553  0.5216 -0.4785
 6388TIP3    H140799   1.592   0.150   8.696  1.1451  0.6786  0.8275
 6388TIP3    H240800   1.603   0.301   8.702  0.8345  0.7534 -0.3171
 6389TIP3   OH240801   0.019   5.500   0.223 -0.1264  0.4728  0.2949
 6389TIP3    H140802   0.060   5.484   0.308 -0.0511 -1.1034 -0.0108
 6389TIP3    H240803   0.015   5.414   0.182  1.4715  1.4159 -2.0523
 6390TIP3   OH240804   3.439   4.708   0.083  0.7176 -0.2461 -0.6439
 6390TIP3    H140805   3.364   4.652   0.062 -0.9493  1.6853 -0.2565
 6390TIP3    H240806   3.477   4.730  -0.001  0.2025 -0.4541 -0.9370
 6391TIP3   OH240807   3.546   1.357   7.951  0.9635  0.0479 -0.3440
 6391TIP3    H140808   3.602   1.405   7.891  1.1373  0.7948  0.3909
 6391TIP3    H240809   3.488   1.306   7.895  1.3363  0.4768 -1.1319
 6392TIP3   OH240810   2.552   6.205   7.335  0.1014 -0.1365 -0.2520
 6392TIP3    H140811   2.487   6.135   7.346 -0.2761  0.2932  0.3518
 6392TIP3    H240812   2.635   6.160   7.323 -0.0811 -0.6943  0.5038
 6393TIP3   OH240813   5.589   6.689   6.295 -0.2342  0.1375  0.3901
 6393TIP3    H140814   5.541   6.620   6.341  0.4146  0.0198  0.9052
 6393TIP3    H240815   5.534   6.767   6.305 -1.0036 -0.3094 -0.2555
 6394TIP3   OH240816   0.777   2.285   0.456  0.0506 -0.0229  0.5875
 6394TIP3    H140817   0.690   2.305   0.492 -0.5286  0.7081 -1.0805
 6394TIP3    H240818   0.761   2.216   0.392  0.4015  1.1717 -0.8440
 6395TIP3   OH240819   2.981   1.922   0.717  0.3863  1.0590 -0.4341
 6395TIP3    H140820   3.071   1.903   0.693  1.2674  1.2318  2.3548
 6395TIP3    H240821   2.941   1.837   0.732  0.7599  1.0164  0.3968
 6396TIP3   OH240822   4.585   1.704   0.301  0.8711 -0.3787  0.3053
 6396TIP3    H140823   4.530   1.642   0.253 -0.1768 -0.1847  1.1994
 6396TIP3    H240824   4.652   1.731   0.239 -0.8326  0.3948 -1.2565
 6397TIP3   OH240825   1.699   1.545   6.850 -0.0418 -0.0553  0.1371
 6397TIP3    H140826   1.736   1.625   6.888 -1.5913 -0.0648  1.7826
 6397TIP3    H240827   1.641   1.577   6.780  0.0700  0.1872  0.1533
 6398TIP3   OH240828   2.877   3.800   8.083  0.2143 -0.6374  0.0586
 6398TIP3    H140829   2.794   3.753   8.087 -1.1957  1.6642  0.0990
 6398TIP3    H240830   2.937   3.749   8.138 -1.2358 -2.2125  0.2577
 6399TIP3   OH240831   1.679   1.571   7.647 -1.0103  0.0678  0.0502
 6399TIP3    H140832   1.632   1.643   7.691 -0.3814  0.7648 -0.3941
 6399TIP3    H240833   1.637   1.564   7.562  0.1679  1.2523 -0.6796
 6400TIP3   OH240834   6.790   0.964   1.751 -0.2602  0.1156 -0.0691
 6400TIP3    H140835   6.698   0.989   1.765  0.2211  0.9189  2.0161
 6400TIP3    H240836   6.785   0.887   1.694 -2.1534  0.8032 -0.9378
 6401TIP3   OH240837   3.690   2.417   8.371 -0.0130 -0.2060 -0.0729
 6401TIP3    H140838   3.746   2.420   8.294  0.4361 -0.9287  0.2241
 6401TIP3    H240839   3.605   2.448   8.339  0.7504  1.8329 -0.3259
 6402TIP3   OH240840   3.853   0.316   7.919  0.2148 -0.4161  0.5842
 6402TIP3    H140841   3.761   0.340   7.903  0.6356 -0.0404 -1.6391
 6402TIP3    H240842   3.879   0.367   7.995 -1.1605  0.1589  0.6948
 6403TIP3   OH240843   4.729   2.869   7.074  0.0643  0.0190 -0.2001
 6403TIP3    H140844   4.683   2.815   7.010 -0.9084 -1.1213  1.3744
 6403TIP3    H240845   4.797   2.811   7.109 -0.0798  0.2791  0.5201
 6404TIP3   OH240846   1.129   0.347   7.436 -0.5181 -0.2438  0.1888
 6404TIP3    H140847   1.189   0.276   7.458 -1.1802 -0.4157  1.5759
 6404TIP3    H240848   1.181   0.407   7.382  0.6471 -0.7936  0.6674
 6405TIP3   OH240849   4.983   6.797   0.598 -0.7965 -0.4805 -0.3982
 6405TIP3    H140850   5.064   6.847   0.586 -0.7744 -0.5792 -0.6709
 6405TIP3    H240851   4.985   6.769   0.689 -1.1399  0.6049 -0.0379
 6406TIP3   OH240852   4.805   5.704   6.973 -0.2091  0.2434 -0.2312
 6406TIP3    H140853   4.727   5.656   7.000 -0.7701  0.6708 -1.0531
 6406TIP3    H240854   4.808   5.695   6.878  1.6860 -1.1781 -0.0950
 6407TIP3   OH240855   1.763   0.287   8.420 -0.8319  0.0703 -0.6210
 6407TIP3    H140856   1.737   0.275   8.511 -1.4804  1.0615 -0.6564
 6407TIP3    H240857   1.776   0.381   8.411  0.8045 -0.1808 -1.1587
 6408TIP3   OH240858   1.527   1.306   8.456 -0.1124  0.0788 -0.2224
 6408TIP3    H140859   1.595   1.345   8.511 -2.2658  1.9378  1.3020
 6408TIP3    H240860   1.445   1.330   8.499 -1.9260  1.0260 -3.8313
 6409TIP3   OH240861   5.931   2.724   8.678 -0.3279  0.0365 -0.5490
 6409TIP3    H140862   5.910   2.646   8.627 -3.1939  0.3257  0.0422
 6409TIP3    H240863   5.995   2.695   8.742  0.3140 -1.2689 -1.7316
 6410TIP3   OH240864   3.838   0.235   8.672  0.4304 -0.0462  0.6781
 6410TIP3    H140865   3.853   0.330   8.671 -0.2509  0.0717 -0.3650
 6410TIP3    H240866   3.744   0.226   8.681  0.4480 -0.6107  0.3546
 6411TIP3   OH240867   0.765   3.917   2.271 -0.0568  0.2518  0.2342
 6411TIP3    H140868   0.729   3.990   2.220  1.1742 -0.6369 -2.0858
 6411TIP3    H240869   0.860   3.928   2.265  0.1394 -0.5157  1.4580
 6412TIP3   OH240870   6.384   2.632   6.874 -0.0131  0.0267  0.4695
 6412TIP3    H140871   6.454   2.696   6.856 -0.8007  1.3235  1.8212
 6412TIP3    H240872   6.328   2.675   6.938 -2.6220 -0.5687 -1.2442
 6413TIP3   OH240873   5.584   6.012   8.702  0.2019  0.0147 -0.0457
 6413TIP3    H140874   5.605   5.996   8.610  0.2037  0.4135 -0.1164
 6413TIP3    H240875   5.649   6.076   8.731 -0.4482  0.6883 -0.0590
 6414TIP3   OH240876   5.586   1.956   1.907 -0.0701  0.0311 -0.0880
 6414TIP3    H140877   5.614   1.956   1.998 -1.2437 -0.3263  0.2869
 6414TIP3    H240878   5.566   2.047   1.888  0.8916  0.2250 -0.2337
 6415TIP3   OH240879   5.800   1.965   7.882  0.1282 -0.2340 -0.4990
 6415TIP3    H140880   5.862   1.920   7.824 -1.3779 -1.3757 -1.2930
 6415TIP3    H240881   5.774   2.043   7.833  1.8535  0.9736  0.3876
 6416TIP3   OH240882   2.292   1.813   8.120  0.0529  0.1202 -0.1245
 6416TIP3    H140883   2.283   1.738   8.179  1.1646 -0.7038 -0.9445
 6416TIP3    H240884   2.203   1.841   8.102 -0.6437 -2.7942 -1.9654
 6417TIP3   OH240885   0.301   5.518   2.062 -0.1221  0.3017 -0.1107
 6417TIP3    H140886   0.246   5.464   2.120  0.2580  0.2976  0.2495
 6417TIP3    H240887   0.384   5.471   2.057  0.4347  1.1607  0.7101
 6418TIP3   OH240888   5.642   2.361   0.417  0.4495 -0.3464 -0.1597
 6418TIP3    H140889   5.700   2.404   0.480 -0.0821  1.0483 -0.5855
 6418TIP3    H240890   5.590   2.300   0.470 -1.6835  2.4765  1.2966
 6419TIP3   OH240891   5.486   6.638   2.468  0.5437  0.1575 -0.1398
 6419TIP3    H140892   5.460   6.569   2.407  0.6081 -0.6993  0.7743
 6419TIP3    H240893   5.575   6.615   2.493  0.6414  0.6935  0.0149
 6420TIP3   OH240894   3.233   2.761   1.163 -0.3874 -0.1426 -0.1453
 6420TIP3    H140895   3.204   2.676   1.194 -1.3686  0.5334  0.8926
 6420TIP3    H240896   3.254   2.748   1.071 -2.2727 -1.0949 -0.4838
 6421TIP3   OH240897   3.647   3.652   8.151 -0.1881 -0.0117  0.1124
 6421TIP3    H140898   3.675   3.637   8.242 -0.5072 -0.0409  0.2057
 6421TIP3    H240899   3.594   3.575   8.130  1.5290 -1.0100 -0.7720
 6422TIP3   OH240900   0.495   1.177   0.535  0.2224 -0.1870 -0.5775
 6422TIP3    H140901   0.498   1.266   0.572  0.4461 -1.2987  2.3641
 6422TIP3    H240902   0.558   1.128   0.588 -1.7565 -2.6812 -0.3581
 6423TIP3   OH240903   3.635   4.635   7.054  0.8862 -0.4639  0.1605
 6423TIP3    H140904   3.688   4.710   7.028 -0.3974  0.1224 -0.8717
 6423TIP3    H240905   3.590   4.608   6.974 -1.2846 -0.1791  1.2145
 6424TIP3   OH240906   4.259   4.413   8.644 -0.1670 -0.3952 -0.1298
 6424TIP3    H140907   4.245   4.354   8.719 -0.9859  0.3362  0.3067
 6424TIP3    H240908   4.351   4.399   8.621  0.2757 -0.2348  1.3785
 6425TIP3   OH240909   5.846   5.776   7.453 -0.0481 -0.3774  0.3910
 6425TIP3    H140910   5.772   5.776   7.392  0.8610  2.2919 -0.8248
 6425TIP3    H240911   5.836   5.857   7.503  1.5493 -0.4530  0.8751
 6426TIP3   OH240912   0.477   2.539   6.999 -0.7401  0.1437  0.0488
 6426TIP3    H140913   0.506   2.519   7.089 -0.7591  0.2801  0.0853
 6426TIP3    H240914   0.524   2.619   6.977  1.4860 -1.3648 -1.1063
 6427TIP3   OH240915   0.162   4.687   7.722 -0.4124 -0.2814 -0.2184
 6427TIP3    H140916   0.246   4.732   7.732 -1.3345  1.4984  0.0042
 6427TIP3    H240917   0.182   4.595   7.736  1.6378 -0.0157 -1.0003
 6428TIP3   OH240918   0.078   3.466   7.203  0.0954  0.2248  0.3268
 6428TIP3    H140919   0.061   3.424   7.287  0.7895  0.3357  0.5283
 6428TIP3    H240920  -0.006   3.506   7.178 -0.6902 -1.5220 -0.0192
 6429TIP3   OH240921   2.693   5.383   1.717  0.2791  0.4823 -0.3584
 6429TIP3    H140922   2.745   5.432   1.654  2.0597 -0.6728  0.1409
 6429TIP3    H240923   2.704   5.430   1.800 -1.2086  1.4072 -0.6531
 6430TIP3   OH240924   3.624   2.168   1.669  0.2560  0.1138  0.4342
 6430TIP3    H140925   3.589   2.127   1.747  2.1676 -2.3276  0.1135
 6430TIP3    H240926   3.554   2.162   1.604 -0.3180 -0.4696  1.1080
 6431TIP3   OH240927   6.096   1.678   8.063  0.2399  0.1099  0.0848
 6431TIP3    H140928   6.128   1.630   7.986 -0.1952  2.6949 -1.8283
 6431TIP3    H240929   6.156   1.752   8.071  0.2112 -0.0359  2.2481
 6432TIP3   OH240930   1.545   4.648   1.475 -0.5392  0.5614  0.1732
 6432TIP3    H140931   1.608   4.595   1.525  0.8932  2.9003  1.0198
 6432TIP3    H240932   1.472   4.661   1.535 -0.9742 -0.5442 -0.0976
 6433TIP3   OH240933   4.292   1.597   7.021  0.0208 -0.2944 -0.3486
 6433TIP3    H140934   4.272   1.543   6.945 -0.9709  0.1721 -0.4308
 6433TIP3    H240935   4.246   1.679   7.006 -2.3544 -1.0750  1.8921
 6434TIP3   OH240936   3.058   4.818   6.976  0.2068  0.2845 -0.2517
 6434TIP3    H140937   3.008   4.760   7.033  3.1350 -0.9148  1.3305
 6434TIP3    H240938   3.030   4.795   6.887 -1.5781 -0.6530  0.5028
 6435TIP3   OH240939   5.169   5.580   6.754  0.1161  0.2835 -0.2819
 6435TIP3    H140940   5.121   5.574   6.672 -1.5814  1.0135  0.6144
 6435TIP3    H240941   5.148   5.499   6.800  0.0652  0.4239 -0.0564
 6436TIP3   OH240942   2.057   2.851   2.136  0.1818  0.2680  0.4315
 6436TIP3    H140943   2.025   2.908   2.206  0.1762  0.3543  0.3594
 6436TIP3    H240944   2.150   2.840   2.156  0.5241  1.4979 -0.3566
 6437TIP3   OH240945   0.638   4.017   1.942 -0.4736 -0.3067 -0.5117
 6437TIP3    H140946   0.544   4.014   1.958 -0.9875  2.1616 -2.4867
 6437TIP3    H240947   0.647   4.036   1.849  2.0223 -1.0926 -0.5119
 6438TIP3   OH240948   2.552   2.001   8.436  0.3550 -0.2542  0.1815
 6438TIP3    H140949   2.521   1.974   8.350 -1.2907 -0.2197  0.7273
 6438TIP3    H240950   2.578   2.093   8.425 -3.5661  1.0646  0.5033
 6439TIP3   OH240951   4.453   1.299   7.747 -0.4179 -0.0670 -0.6716
 6439TIP3    H140952   4.475   1.296   7.654 -1.4904 -0.7472 -0.9151
 6439TIP3    H240953   4.534   1.327   7.790  0.1001  0.2128 -1.7969
 6440TIP3   OH240954   2.074   2.840   7.238  0.3223 -0.5602  0.1780
 6440TIP3    H140955   2.085   2.747   7.258  2.2665 -0.3871  0.1313
 6440TIP3    H240956   2.149   2.883   7.279  0.9931  0.6246 -2.1064
 6441TIP3   OH240957   4.303   1.820   0.077 -0.1355  0.0193 -0.5638
 6441TIP3    H140958   4.387   1.865   0.073 -0.1875  0.1602 -0.0815
 6441TIP3    H240959   4.323   1.730   0.049  0.1194  0.1290 -0.7364
 6442TIP3   OH240960   3.248   5.307   2.520  0.1051 -0.6062  0.4578
 6442TIP3    H140961   3.293   5.339   2.441 -1.3347 -1.3469 -0.7216
 6442TIP3    H240962   3.281   5.218   2.533 -0.4600 -0.8951 -0.0010
 6443TIP3   OH240963   4.741   6.710   1.635  0.2255 -0.2425  0.5496
 6443TIP3    H140964   4.751   6.650   1.561  0.9379  0.6262 -0.0782
 6443TIP3    H240965   4.831   6.728   1.664 -0.0295 -0.3012  1.4064
 6444TIP3   OH240966   3.498   5.469   1.050  0.3704 -0.0619 -0.4567
 6444TIP3    H140967   3.533   5.424   0.973 -0.8823  0.9144 -1.6488
 6444TIP3    H240968   3.518   5.561   1.035  0.5821  0.0758  0.6550
 6445TIP3   OH240969   3.286   6.807   1.136 -0.0426 -0.3478 -0.1493
 6445TIP3    H140970   3.200   6.846   1.122 -0.0529 -0.6393 -0.9569
 6445TIP3    H240971   3.340   6.840   1.064  1.1787  1.5935  1.5334
 6446TIP3   OH240972   1.653   2.315   1.471  0.0189 -0.2014 -0.3691
 6446TIP3    H140973   1.709   2.370   1.417  1.2122 -2.0455 -1.1162
 6446TIP3    H240974   1.674   2.339   1.561  2.5397 -1.2286 -0.5988
 6447TIP3   OH240975   0.368   1.937   8.098  0.3107  0.4254 -0.6599
 6447TIP3    H140976   0.335   1.853   8.068  1.5457 -0.2923 -0.0910
 6447TIP3    H240977   0.386   1.986   8.018 -1.8948  0.7873 -0.9928
 6448TIP3   OH240978   2.583   0.449   7.461 -0.5521 -0.5050 -0.0014
 6448TIP3    H140979   2.636   0.528   7.448  1.5454 -2.0477 -1.4917
 6448TIP3    H240980   2.494   0.476   7.440 -0.3588  2.0254  1.8828
 6449TIP3   OH240981   1.823   2.592   7.369  0.9675 -0.2796 -0.3403
 6449TIP3    H140982   1.744   2.545   7.341  0.7447  0.4733 -1.0103
 6449TIP3    H240983   1.889   2.570   7.303  1.0017 -0.0444 -0.3854
 6450TIP3   OH240984   0.828   1.047   0.090  0.3103 -0.1853 -0.3724
 6450TIP3    H140985   0.903   1.001   0.128  0.3317  1.7533  2.1656
 6450TIP3    H240986   0.759   1.039   0.155 -1.1335 -0.3074 -1.8395
 6451TIP3   OH240987   5.785   0.944   1.932 -0.5707 -0.4044 -0.3922
 6451TIP3    H140988   5.711   0.887   1.910 -2.0159  1.1120  0.3360
 6451TIP3    H240989   5.764   0.979   2.018  0.6575  0.6129 -0.4751
 6452TIP3   OH240990   2.511   5.861   8.659  0.3761  0.0603  0.6114
 6452TIP3    H140991   2.485   5.795   8.594  0.2825  0.4873  0.2107
 6452TIP3    H240992   2.590   5.824   8.699  0.6368 -0.0540  0.0085
 6453TIP3   OH240993   2.436   1.534   7.975  0.3608 -0.0811 -0.2789
 6453TIP3    H140994   2.492   1.568   7.905 -1.0331 -0.2094 -1.5077
 6453TIP3    H240995   2.363   1.493   7.929 -1.2401  0.9079  1.2602
 6454TIP3   OH240996   0.354   1.136   7.049  0.1689  0.1208  0.4454
 6454TIP3    H140997   0.441   1.173   7.064  0.3705 -1.0887  2.7281
 6454TIP3    H240998   0.361   1.046   7.080 -1.4814 -0.5312 -0.9012
 6455TIP3   OH240999   4.830   4.299   0.741 -0.2542 -0.4195  0.5846
 6455TIP3    H141000   4.825   4.232   0.673  1.2515 -0.5880  0.6096
 6455TIP3    H241001   4.800   4.379   0.698  2.4783 -0.0772 -0.9638
 6456TIP3   OH241002   3.892   3.487   1.762 -0.4773  0.5932  0.3528
 6456TIP3    H141003   3.984   3.462   1.752 -0.3648  1.1466 -0.0706
 6456TIP3    H241004   3.845   3.404   1.769 -0.0247  0.2857 -0.1919
 6457TIP3   OH241005   1.524   0.563   7.485  0.1612 -0.3672 -0.3623
 6457TIP3    H141006   1.527   0.583   7.391 -2.9234  0.6973 -0.3327
 6457TIP3    H241007   1.507   0.468   7.488  1.9801 -0.7489 -0.7742
 6458TIP3   OH241008   4.994   2.170   8.301  0.3153  1.0988  0.1570
 6458TIP3    H141009   4.912   2.210   8.273 -0.0783 -0.0615 -0.4478
 6458TIP3    H241010   5.056   2.192   8.231  0.7263  2.5147  0.9216
 6459TIP3   OH241011   6.603   5.836   7.509  0.6499  0.5366  0.4346
 6459TIP3    H141012   6.536   5.768   7.505  0.3020  0.8942  0.0636
 6459TIP3    H241013   6.653   5.825   7.428  0.4364  0.8743  0.2527
 6460TIP3   OH241014   5.906   2.418   6.991 -0.0623 -0.0049 -0.7315
 6460TIP3    H141015   5.899   2.323   6.981  2.5523 -0.1659 -2.0473
 6460TIP3    H241016   5.935   2.449   6.905 -0.8071  1.9976 -0.3127
 6461TIP3   OH241017   4.708   3.279   6.883  0.1362  0.3578  0.4284
 6461TIP3    H141018   4.658   3.359   6.900  2.0690  1.4798  1.1888
 6461TIP3    H241019   4.770   3.304   6.814  0.7453 -0.4904  0.6534
 6462TIP3   OH241020   4.036   2.520   0.576 -0.5899 -0.0106  0.1275
 6462TIP3    H141021   4.018   2.469   0.655 -2.5239  1.4194  0.6884
 6462TIP3    H241022   3.991   2.603   0.591  0.5791  1.0116 -1.7011
 6463TIP3   OH241023   5.925   6.128   2.266 -0.3063  0.2606 -0.6044
 6463TIP3    H141024   5.852   6.098   2.319  0.1549 -2.0376 -1.1796
 6463TIP3    H241025   5.998   6.070   2.289  1.3928  2.4265 -0.0756
 6464TIP3   OH241026   4.174   0.314   2.269 -0.0051  0.6977  0.0236
 6464TIP3    H141027   4.120   0.239   2.243 -0.4993 -0.0309  2.8003
 6464TIP3    H241028   4.119   0.390   2.251 -0.1914  0.2899 -1.2126
 6465TIP3   OH241029   6.030   6.713   0.819 -0.7980 -0.5685  0.3079
 6465TIP3    H141030   5.945   6.678   0.844 -1.2431  0.4039  0.2367
 6465TIP3    H241031   6.011   6.803   0.791  0.0918 -0.6803 -0.7397
 6466TIP3   OH241032   1.149   3.569   7.863  0.6115 -0.3224 -0.2224
 6466TIP3    H141033   1.061   3.563   7.824  0.3473 -0.9567  0.4388
 6466TIP3    H241034   1.183   3.479   7.858  0.2475 -0.6057  1.7068
 6467TIP3   OH241035   5.917   2.699   1.374  0.5098 -0.0756 -0.5522
 6467TIP3    H141036   5.988   2.648   1.412  1.4500  0.0361 -2.0672
 6467TIP3    H241037   5.839   2.643   1.382  1.4553 -1.6847 -1.9353
 6468TIP3   OH241038   6.206   6.845   2.097  0.0279  0.7916 -0.2267
 6468TIP3    H141039   6.159   6.764   2.074  1.5839  0.2875 -1.8578
 6468TIP3    H241040   6.157   6.914   2.051  0.9518  0.2338 -2.1678
 6469TIP3   OH241041   0.768   0.759   2.615  0.1877 -0.6816  0.4513
 6469TIP3    H141042   0.845   0.729   2.567 -0.3381 -3.2799  1.0752
 6469TIP3    H241043   0.803   0.796   2.695  0.8416 -2.7769  1.2114
 6470TIP3   OH241044   2.268   6.706   0.478 -0.4643  0.0581  0.2470
 6470TIP3    H141045   2.325   6.663   0.542 -0.9438  1.1904  1.4795
 6470TIP3    H241046   2.299   6.796   0.474  1.3034 -0.5417 -3.2045
 6471TIP3   OH241047   1.285   3.353   7.644 -0.0796 -0.0278  0.3972
 6471TIP3    H141048   1.190   3.353   7.628 -0.6750  2.4941  3.1270
 6471TIP3    H241049   1.318   3.425   7.591  0.2282 -0.4391  0.0204
 6472TIP3   OH241050   2.163   0.736   1.275  0.2619  0.0179 -0.1043
 6472TIP3    H141051   2.162   0.645   1.246 -0.1276  0.1741 -0.5947
 6472TIP3    H241052   2.072   0.753   1.301  0.7201 -0.3345  1.9237
 6473TIP3   OH241053   6.707   3.942   6.664 -0.6044 -0.2335 -0.1559
 6473TIP3    H141054   6.638   3.941   6.598 -0.8566  0.0498  0.0998
 6473TIP3    H241055   6.672   3.889   6.736 -0.1143 -0.9862 -0.4611
 6474TIP3   OH241056   1.745   0.262   0.932 -0.0591  0.0984 -0.0848
 6474TIP3    H141057   1.653   0.241   0.950  0.2965 -2.0932 -0.4800
 6474TIP3    H241058   1.742   0.342   0.879 -1.8483 -0.7159 -1.3110
 6475TIP3   OH241059   2.281   6.302   7.629  0.1624  0.3911 -0.1528
 6475TIP3    H141060   2.226   6.238   7.674 -2.6999  1.1118 -2.3239
 6475TIP3    H241061   2.337   6.339   7.698 -1.9759 -0.5210  2.2050
 6476TIP3   OH241062   2.254   1.253   8.510 -0.0469  0.1715 -0.0796
 6476TIP3    H141063   2.328   1.228   8.454 -0.3317 -1.7316  0.3251
 6476TIP3    H241064   2.270   1.345   8.531  2.1873 -0.1717 -0.0448
 6477TIP3   OH241065   6.014   0.127   8.394 -0.2137 -0.4868  0.1537
 6477TIP3    H141066   5.932   0.149   8.349  0.8329  0.3655 -1.4361
 6477TIP3    H241067   6.059   0.211   8.403  0.2573 -0.8657  1.5464
 6478TIP3   OH241068   5.209   6.104   0.038 -0.3373  0.1660 -0.9714
 6478TIP3    H141069   5.131   6.153   0.012  0.0379 -0.2737 -3.0587
 6478TIP3    H241070   5.282   6.152  -0.001  0.5014  0.6054  1.0024
 6479TIP3   OH241071   2.755   5.736   6.935  0.1351 -0.3459 -0.3446
 6479TIP3    H141072   2.850   5.729   6.929  0.1454  0.8858 -2.1583
 6479TIP3    H241073   2.724   5.737   6.845 -1.3250  2.4832  0.0749
 6480TIP3   OH241074   6.238   1.738   1.454  0.1556 -0.2118  0.1025
 6480TIP3    H141075   6.293   1.764   1.528 -2.6360 -1.9076  3.0835
 6480TIP3    H241076   6.271   1.652   1.429  1.5803  0.6787 -1.2649
 6481TIP3   OH241077   0.685   3.529   2.702  0.4652 -0.0159  0.2683
 6481TIP3    H141078   0.607   3.584   2.711  0.4251 -0.1403  0.6758
 6481TIP3    H241079   0.657   3.442   2.729  0.9517  0.1037  1.1844
 6482TIP3   OH241080   1.004   3.773   0.579 -0.6244 -0.5874 -0.4978
 6482TIP3    H141081   1.014   3.864   0.606 -2.8625 -0.4158 -0.0262
 6482TIP3    H241082   1.020   3.723   0.660 -1.2624 -0.4815 -0.3034
 6483TIP3   OH241083   0.260   6.386   1.056 -0.4281 -0.2074  0.2988
 6483TIP3    H141084   0.235   6.426   0.973 -2.6409  0.1425  1.0741
 6483TIP3    H241085   0.283   6.296   1.034 -1.3498 -0.2167 -0.6375
 6484TIP3   OH241086   4.571   1.876   7.359  0.1803  0.1506  0.4064
 6484TIP3    H141087   4.492   1.822   7.356  0.9096 -0.9108 -1.0230
 6484TIP3    H241088   4.579   1.911   7.270  0.8473  0.9728  0.7805
 6485TIP3   OH241089   5.799   3.289   0.833 -0.0022  0.6109 -0.2856
 6485TIP3    H141090   5.857   3.235   0.886 -0.4822 -0.9639 -1.3084
 6485TIP3    H241091   5.857   3.355   0.794  1.1749 -0.9580 -1.3451
 6486TIP3   OH241092   1.052   0.293   0.916  0.0311 -0.1175  0.3915
 6486TIP3    H141093   1.111   0.220   0.932  1.2685  0.6937 -0.2121
 6486TIP3    H241094   0.986   0.287   0.984 -0.8771 -2.7215 -0.5839
 6487TIP3   OH241095   4.464   4.239   2.541  0.5634  0.3041 -0.2186
 6487TIP3    H141096   4.431   4.320   2.503 -0.9876  0.6326  1.6891
 6487TIP3    H241097   4.405   4.171   2.508  0.0918  0.3815  0.4608
 6488TIP3   OH241098   2.519   5.527   6.898 -0.1500  0.1743  0.0989
 6488TIP3    H141099   2.560   5.613   6.906 -0.5743  0.4750 -0.8089
 6488TIP3    H241100   2.581   5.466   6.939  1.1750  0.6246 -1.1510
 6489TIP3   OH241101   0.448   6.551   2.387 -0.1710 -0.0891  0.0072
 6489TIP3    H141102   0.413   6.640   2.384 -0.9565 -0.3918  0.1778
 6489TIP3    H241103   0.380   6.496   2.349 -0.3827 -0.8332  1.4109
 6490TIP3   OH241104   4.869   3.091   0.425  0.1761  0.0971  0.5058
 6490TIP3    H141105   4.961   3.086   0.451  0.4500  1.6591 -0.0430
 6490TIP3    H241106   4.822   3.112   0.506  0.3188 -0.4459  0.7353
 6491TIP3   OH241107   1.393   4.646   1.947 -0.1120 -0.1998  0.0049
 6491TIP3    H141108   1.308   4.628   1.907  0.5032  0.5501 -1.7799
 6491TIP3    H241109   1.454   4.590   1.900  0.4118 -0.6930  1.2329
 6492TIP3   OH241110   1.585   6.539   0.155  0.2311 -0.0725 -0.0153
 6492TIP3    H141111   1.617   6.452   0.129  0.9752  0.4300 -0.8046
 6492TIP3    H241112   1.627   6.554   0.240  0.1415 -0.4496  0.1021
 6493TIP3   OH241113   0.531   2.534   7.690 -0.1723 -0.1162 -0.1724
 6493TIP3    H141114   0.622   2.520   7.716 -0.6540  0.4042  2.0595
 6493TIP3    H241115   0.534   2.545   7.595  2.2256  0.9148 -0.0515
 6494TIP3   OH241116   0.418   2.423   1.871  0.5399 -0.1164  0.0447
 6494TIP3    H141117   0.469   2.491   1.917  1.0588  1.8087 -3.0796
 6494TIP3    H241118   0.433   2.441   1.778 -2.8670 -1.8584 -0.9898
 6495TIP3   OH241119   3.157   5.350   8.264  0.0523  0.2610 -0.3832
 6495TIP3    H141120   3.098   5.402   8.209  0.0995  0.4090 -0.2933
 6495TIP3    H241121   3.215   5.414   8.305 -0.2124  0.1822  0.1205
 6496TIP3   OH241122   3.554   2.974   7.893  0.4473  0.0655 -0.2795
 6496TIP3    H141123   3.624   2.982   7.829 -0.2001  0.8711 -0.9201
 6496TIP3    H241124   3.533   3.065   7.918  0.7471 -0.2281  1.1517
 6497TIP3   OH241125   3.893   4.195   0.275  0.3665 -0.4829  0.4543
 6497TIP3    H141126   3.858   4.246   0.348 -0.0044  1.3118 -0.8775
 6497TIP3    H241127   3.820   4.140   0.246 -0.8169  1.6435 -0.9288
 6498TIP3   OH241128   0.290   1.595   8.304  0.0641  0.2934 -0.1857
 6498TIP3    H141129   0.300   1.503   8.280  0.0871  0.0545  0.7274
 6498TIP3    H241130   0.231   1.630   8.236  0.6252 -0.2080 -0.9484
 6499TIP3   OH241131   2.946   6.846   8.107 -0.6983  0.0337 -0.2566
 6499TIP3    H141132   2.923   6.766   8.153  1.0354  1.3559  3.2866
 6499TIP3    H241133   2.863   6.877   8.070 -2.7502 -0.3379  3.5398
 6500TIP3   OH241134   1.785   3.012   0.833  0.1413  0.3282  0.0740
 6500TIP3    H141135   1.779   2.949   0.905 -1.7286  0.1894 -0.1473
 6500TIP3    H241136   1.735   2.972   0.762 -0.0825  1.5347 -0.4736
 6501TIP3   OH241137   5.429   3.057   8.175  0.3044  0.0742 -0.4444
 6501TIP3    H141138   5.507   3.017   8.138  0.1061  1.0492 -2.0048
 6501TIP3    H241139   5.381   3.091   8.100 -0.3019  1.8510  0.6793
 6502TIP3   OH241140   2.386   1.448   7.188  0.0683 -0.6969  0.1611
 6502TIP3    H141141   2.344   1.408   7.112 -0.1928  0.6892 -0.4442
 6502TIP3    H241142   2.476   1.464   7.161 -0.0433 -0.1372  0.1159
 6503TIP3   OH241143   6.295   4.419   0.595  0.0020 -0.3935  0.2255
 6503TIP3    H141144   6.199   4.420   0.586  0.0545  1.2278 -0.4994
 6503TIP3    H241145   6.325   4.366   0.521 -0.3141 -0.6648  0.2861
 6504TIP3   OH241146   2.430   5.087   8.349 -0.0517  0.6343  0.4296
 6504TIP3    H141147   2.375   5.010   8.359  0.4535  0.1642 -0.2914
 6504TIP3    H241148   2.399   5.128   8.268 -1.1832  1.9344  1.4636
 6505TIP3   OH241149   6.573   4.088   2.630  0.1286  0.1464  0.2691
 6505TIP3    H141150   6.632   4.162   2.619 -0.6815  0.6929 -0.5757
 6505TIP3    H241151   6.499   4.107   2.571 -0.1997 -1.2168  0.2006
 6506TIP3   OH241152   1.955   0.517   1.543  0.2026 -0.0775  1.3150
 6506TIP3    H141153   1.982   0.469   1.464 -2.0393 -1.5137  1.3316
 6506TIP3    H241154   2.012   0.593   1.545  0.3025  0.0613 -1.7776
 6507TIP3   OH241155   5.028   4.345   1.351  0.3326 -0.2398 -0.0887
 6507TIP3    H141156   5.106   4.356   1.406  0.2819  1.4422 -0.2807
 6507TIP3    H241157   5.053   4.383   1.267 -1.3164  2.4467  0.4909
 6508TIP3   OH241158   4.067   1.103   8.217 -0.1204  0.2381 -0.5110
 6508TIP3    H141159   3.981   1.082   8.180  0.5643  0.4607 -2.3558
 6508TIP3    H241160   4.113   1.019   8.218  0.4871  0.5146 -1.9954
 6509TIP3   OH241161   3.996   0.934   0.847  0.1273 -0.2358  0.4115
 6509TIP3    H141162   3.925   0.940   0.784 -0.4259  0.5224  1.0879
 6509TIP3    H241163   3.991   0.845   0.882  0.5487 -0.7174 -0.7222
 6510TIP3   OH241164   0.931   0.584   2.487 -0.1642 -0.3519  0.2116
 6510TIP3    H141165   1.017   0.570   2.448  0.4467 -0.2617  1.4712
 6510TIP3    H241166   0.877   0.512   2.453  0.1345  0.0873 -1.2835
 6511TIP3   OH241167   6.571   5.126   0.739  0.2809  0.1837  0.1146
 6511TIP3    H141168   6.559   5.169   0.824  1.0569 -0.3369  0.5005
 6511TIP3    H241169   6.642   5.064   0.753 -0.0014 -0.3587 -0.7598
 6512TIP3   OH241170   6.627   0.507   0.085  0.2030  0.2172  0.1021
 6512TIP3    H141171   6.613   0.477  -0.004  0.2857 -0.7772  0.4196
 6512TIP3    H241172   6.559   0.463   0.136  1.4429 -0.8543  0.8666
 6513TIP3   OH241173   2.188   1.717   2.257 -0.0736 -0.2529 -0.0768
 6513TIP3    H141174   2.253   1.720   2.187 -0.3442  1.1180 -0.2997
 6513TIP3    H241175   2.183   1.625   2.281  2.3610 -0.3545  0.3432
 6514TIP3   OH241176   0.740   5.467   7.265  0.0713  0.0752  0.0036
 6514TIP3    H141177   0.770   5.524   7.335  1.8842 -0.2060 -0.4804
 6514TIP3    H241178   0.748   5.379   7.301 -2.4125  0.0210  0.6358
 6515TIP3   OH241179   6.215   6.379   1.908  0.1410 -0.1493 -0.5741
 6515TIP3    H141180   6.301   6.394   1.948  0.0037  1.5541 -0.8428
 6515TIP3    H241181   6.234   6.364   1.816  0.2231 -0.9492 -0.4340
 6516TIP3   OH241182   0.253   1.308   6.829  0.1134  0.2701  0.7169
 6516TIP3    H141183   0.288   1.260   6.904  1.7825 -1.6228 -1.1259
 6516TIP3    H241184   0.328   1.358   6.797 -0.4040  0.5827 -0.0249
 6517TIP3   OH241185   3.686   3.059   0.335 -0.1642 -0.1333 -0.0965
 6517TIP3    H141186   3.606   3.032   0.290  1.3809 -0.7552 -2.6941
 6517TIP3    H241187   3.695   3.152   0.314 -1.6251  0.7251  2.6493
 6518TIP3   OH241188   5.865   6.416   1.848  0.1522  0.3780 -0.1979
 6518TIP3    H141189   5.861   6.380   1.937 -0.9314  0.1080 -0.3411
 6518TIP3    H241190   5.862   6.511   1.860  0.1740  0.3460  0.0624
 6519TIP3   OH241191   6.602   1.175   0.192 -0.2205  0.0075  0.3627
 6519TIP3    H141192   6.679   1.226   0.169  0.0679  0.0327  1.3317
 6519TIP3    H241193   6.532   1.239   0.203 -0.6138 -0.0942 -1.3873
 6520TIP3   OH241194   4.064   0.431   8.678 -0.1477  0.6252  0.3274
 6520TIP3    H141195   4.080   0.361   8.615 -1.5485 -0.0401  0.6745
 6520TIP3    H241196   4.145   0.438   8.728 -0.2091 -1.2665  0.7543
 6521TIP3   OH241197   2.810   4.052   7.996  0.2592  0.5225  0.0660
 6521TIP3    H141198   2.799   4.103   8.076  0.9789  0.2466  0.3553
 6521TIP3    H241199   2.827   3.963   8.027  0.8370  0.4711 -0.3847
 6522TIP3   OH241200   5.595   0.927   1.063 -0.0344  0.1641  0.1462
 6522TIP3    H141201   5.619   0.842   1.027 -0.9096  0.0413 -0.1603
 6522TIP3    H241202   5.621   0.922   1.155  0.8375 -0.0631 -0.1041
 6523TIP3   OH241203   1.875   1.737   7.764  0.1854 -0.7543  0.1028
 6523TIP3    H141204   1.970   1.729   7.776  0.1671  0.3851  1.1571
 6523TIP3    H241205   1.850   1.656   7.719  1.8422 -0.4948 -1.4189
 6524TIP3   OH241206   0.310   4.146   7.707 -0.2630  0.0880 -0.3112
 6524TIP3    H141207   0.253   4.083   7.752  0.7801  0.1158  1.1064
 6524TIP3    H241208   0.273   4.153   7.619 -3.6014  1.4986  1.0192
 6525TIP3   OH241209   1.772   2.689   7.087 -0.6179 -0.0765  0.2434
 6525TIP3    H141210   1.739   2.771   7.123  0.5473 -0.3337  1.9937
 6525TIP3    H241211   1.859   2.679   7.124 -0.0772 -1.3126 -1.2429
 6526TIP3   OH241212   3.418   0.496   8.529  0.0043 -0.0709  0.0689
 6526TIP3    H141213   3.489   0.464   8.583 -1.5960 -1.9356  1.1745
 6526TIP3    H241214   3.440   0.468   8.440  0.9004 -0.1136  0.3025
 6527TIP3   OH241215   6.781   5.948   2.837  0.0799 -0.0671  0.4357
 6527TIP3    H141216   6.690   5.965   2.812 -0.0290 -1.4045 -0.1816
 6527TIP3    H241217   6.797   5.858   2.809  1.6620  0.2058  0.3563
 6528TIP3   OH241218   6.712   5.446   6.445  0.5801  0.4613  0.0625
 6528TIP3    H141219   6.799   5.465   6.480  0.0999  1.3869  0.7728
 6528TIP3    H241220   6.661   5.416   6.520  0.0417  0.7528 -0.1773
 6529TIP3   OH241221   3.831   4.776   1.471  0.0549 -0.0714 -0.4255
 6529TIP3    H141222   3.766   4.816   1.528  0.7981 -0.3328  0.6293
 6529TIP3    H241223   3.878   4.850   1.432 -0.9904  0.1208 -1.3557
 6530TIP3   OH241224   5.071   1.328   1.504 -0.6277  0.5076 -0.1197
 6530TIP3    H141225   5.094   1.241   1.473  1.2477  1.4354 -1.6277
 6530TIP3    H241226   5.071   1.322   1.599  0.1714 -0.9644 -0.1992
 6531TIP3   OH241227   6.620   4.934   7.628 -0.1690  0.5578  0.0719
 6531TIP3    H141228   6.692   4.875   7.650  0.7818  0.5037 -2.7419
 6531TIP3    H241229   6.622   4.940   7.533 -1.2488  3.8923  0.1247
 6532TIP3   OH241230   0.307   5.723   2.367  0.4423  0.5284 -0.0700
 6532TIP3    H141231   0.322   5.749   2.458  2.0708  1.8765 -0.6714
 6532TIP3    H241232   0.338   5.797   2.316 -0.5729 -0.1521 -1.7512
 6533TIP3   OH241233   1.945   5.807   2.984  0.2583  0.2983 -0.7297
 6533TIP3    H141234   2.010   5.875   2.965  0.8310  0.4448  1.4426
 6533TIP3    H241235   1.993   5.743   3.037 -1.1016 -0.1185  0.0512
 6534TIP3   OH241236   6.361   0.713   0.080 -0.0885  0.0885  0.3941
 6534TIP3    H141237   6.389   0.697   0.170 -0.6554  2.7391  1.1335
 6534TIP3    H241238   6.374   0.807   0.067 -0.6243 -0.1043 -2.0985
 6535TIP3   OH241239   5.909   2.022   2.337  0.3880 -0.1427  0.1871
 6535TIP3    H141240   5.896   2.116   2.320  0.1435 -0.2494 -0.2258
 6535TIP3    H241241   5.994   2.002   2.298 -1.2516 -0.9490 -3.3313
 6536TIP3   OH241242   1.259   2.714   1.678 -0.0266  0.2570 -0.6673
 6536TIP3    H141243   1.315   2.640   1.655 -0.1822 -0.2240  0.4567
 6536TIP3    H241244   1.268   2.775   1.604  1.8671  0.1467 -0.5608
 6537TIP3   OH241245   6.357   3.168   2.034  0.0610 -0.4680  0.3214
 6537TIP3    H141246   6.287   3.209   2.085  0.5345 -0.1585  0.7309
 6537TIP3    H241247   6.430   3.230   2.039  1.0786 -1.7171  1.6508
 6538TIP3   OH241248   3.418   2.214   7.536 -0.0068 -0.6625  0.6670
 6538TIP3    H141249   3.447   2.157   7.607 -1.8889 -0.3382  1.7643
 6538TIP3    H241250   3.453   2.172   7.457  1.1101 -1.7078  1.6580
 6539TIP3   OH241251   0.264   0.691   0.806 -0.3941 -0.0062  0.3061
 6539TIP3    H141252   0.256   0.603   0.769 -0.1289  0.1010 -0.0085
 6539TIP3    H241253   0.211   0.688   0.886 -0.0038 -0.5985  0.5496
 6540TIP3   OH241254   5.572   4.872   0.525  0.2836  0.2127 -0.2614
 6540TIP3    H141255   5.520   4.827   0.591 -1.6597  1.4309 -0.8714
 6540TIP3    H241256   5.605   4.803   0.468 -1.5475 -0.5636 -0.4357
 6541TIP3   OH241257   3.849   1.335   1.062  0.1866  0.0164 -0.5071
 6541TIP3    H141258   3.892   1.260   1.021  1.2162  0.6048 -0.5480
 6541TIP3    H241259   3.879   1.410   1.011  0.8938  0.6796  0.8439
 6542TIP3   OH241260   6.180   5.176   2.330  0.1166  0.2196  0.4155
 6542TIP3    H141261   6.144   5.187   2.418  0.1860 -0.1510  0.4897
 6542TIP3    H241262   6.272   5.155   2.345 -0.2159 -1.3720  0.3036
 6543TIP3   OH241263   2.410   1.596   2.406  0.0653 -0.0712  0.3806
 6543TIP3    H141264   2.326   1.641   2.398  0.2868  0.5138  1.2520
 6543TIP3    H241265   2.443   1.620   2.492  0.5265 -1.3396  0.5823
 6544TIP3   OH241266   3.556   1.206   1.806 -0.2238  0.4296 -0.2488
 6544TIP3    H141267   3.632   1.164   1.765 -0.4981  0.2364 -0.5665
 6544TIP3    H241268   3.487   1.140   1.799 -0.5375  0.7713 -0.3485
 6545TIP3   OH241269   1.528   0.473   1.734 -0.3211 -0.7289  1.0270
 6545TIP3    H141270   1.543   0.568   1.739  3.6053 -1.1989  1.0022
 6545TIP3    H241271   1.472   0.462   1.657  0.4022  1.5035  0.0957
 6546TIP3   OH241272   6.456   5.837   2.154 -0.4123  0.1481 -0.1303
 6546TIP3    H141273   6.545   5.815   2.125 -0.7288  0.7973 -1.6929
 6546TIP3    H241274   6.460   5.930   2.174 -0.1852 -0.2820  2.1645
 6547TIP3   OH241275   0.014   6.040   7.375 -0.1784  0.6755  0.4026
 6547TIP3    H141276  -0.003   6.000   7.290 -0.2136  0.7626  0.3683
 6547TIP3    H241277   0.107   6.063   7.372 -0.3130  1.2077  0.1626
 6548TIP3   OH241278   1.281   3.745   8.182  0.0614 -0.1706 -0.7162
 6548TIP3    H141279   1.233   3.782   8.108  0.4190  1.3281 -0.2237
 6548TIP3    H241280   1.346   3.687   8.142 -0.6100 -0.4161 -1.4898
 6549TIP3   OH241281   3.098   4.246   6.947  0.0394  0.4806  0.2742
 6549TIP3    H141282   3.128   4.156   6.941 -0.3627  0.4225 -1.1156
 6549TIP3    H241283   3.171   4.298   6.913 -0.9115  0.4254 -1.9646
 6550TIP3   OH241284   5.322   3.148   7.929  0.2736  0.4445 -0.1425
 6550TIP3    H141285   5.402   3.149   7.876 -1.5342 -0.0408 -3.1123
 6550TIP3    H241286   5.266   3.213   7.887 -1.4354 -0.2766  0.9548
 6551TIP3   OH241287   6.627   4.284   7.286  0.6979  0.5299 -0.3708
 6551TIP3    H141288   6.567   4.355   7.264 -0.9296 -0.5056  0.5894
 6551TIP3    H241289   6.698   4.293   7.222 -1.0752  1.0280 -2.4038
 6552TIP3   OH241290   4.793   0.204   1.263 -0.3043  0.2148 -0.4027
 6552TIP3    H141291   4.781   0.298   1.272  0.7489  0.3424 -0.2715
 6552TIP3    H241292   4.783   0.170   1.352  0.4935  0.3483 -0.2563
 6553TIP3   OH241293   1.115   5.934   1.732 -0.3823 -0.0739  0.4048
 6553TIP3    H141294   1.147   5.961   1.646  0.0347  0.6949  0.7888
 6553TIP3    H241295   1.100   5.840   1.723 -1.5337  0.1973 -0.8620
 6554TIP3   OH241296   3.444   4.050   7.731 -0.0099  0.6645  0.1024
 6554TIP3    H141297   3.403   3.966   7.751 -0.9879  1.1724  0.2984
 6554TIP3    H241298   3.389   4.087   7.661 -0.9413  2.1068  1.5242
 6555TIP3   OH241299   5.565   4.306   1.104 -0.7909  0.0275  0.0635
 6555TIP3    H141300   5.497   4.287   1.039 -2.8194  2.1751  1.3651
 6555TIP3    H241301   5.614   4.379   1.068 -1.6758  0.9744  0.7392
 6556TIP3   OH241302   1.946   0.906   8.106 -0.5580 -0.5400  0.0006
 6556TIP3    H141303   2.037   0.880   8.121 -0.8578 -1.3220  0.5553
 6556TIP3    H241304   1.902   0.824   8.082 -1.5235 -0.5774  1.7190
 6557TIP3   OH241305   6.034   4.803   2.413  0.0595  0.3123 -0.2194
 6557TIP3    H141306   6.106   4.741   2.402 -0.0258  0.2909 -0.7019
 6557TIP3    H241307   5.998   4.783   2.499  0.3342  0.0087 -0.1708
 6558TIP3   OH241308   5.530   0.745   0.534 -0.1916  0.0418 -0.6038
 6558TIP3    H141309   5.441   0.710   0.530 -0.3685  0.5488 -1.2793
 6558TIP3    H241310   5.586   0.672   0.508 -0.4502 -0.1165 -0.7238
 6559TIP3   OH241311   4.440   3.084   1.492 -0.0883 -0.6336 -0.1916
 6559TIP3    H141312   4.453   3.053   1.582  2.3861 -3.0323 -1.2419
 6559TIP3    H241313   4.349   3.060   1.472 -0.1762 -1.5548  1.1453
 6560TIP3   OH241314   4.230   6.598   2.587  0.3164 -0.2794  0.5371
 6560TIP3    H141315   4.293   6.553   2.530 -0.4888 -1.6944  0.7143
 6560TIP3    H241316   4.188   6.528   2.636 -1.5820  0.5830  0.2465
 6561TIP3   OH241317   0.800   3.271   8.707 -0.0220  0.4518  0.2787
 6561TIP3    H141318   0.865   3.306   8.647  1.0295  1.8678  2.1110
 6561TIP3    H241319   0.731   3.337   8.709  0.5341  1.0433  1.4728
 6562TIP3   OH241320   5.105   1.286   1.760 -0.5073 -0.5190 -0.2640
 6562TIP3    H141321   5.121   1.202   1.803  0.7700 -0.6483 -0.9497
 6562TIP3    H241322   5.184   1.337   1.779 -1.6626  0.8901  0.9444
 6563TIP3   OH241323   4.400   0.895   7.276  0.4097 -0.9749  0.3072
 6563TIP3    H141324   4.426   0.919   7.364 -0.7392 -0.5023  0.5333
 6563TIP3    H241325   4.350   0.969   7.244 -0.3897 -1.7121 -0.2094
 6564TIP3   OH241326   0.807   6.543   2.521  0.2983 -0.1395  0.0270
 6564TIP3    H141327   0.834   6.451   2.513 -0.5831 -0.5434  1.3173
 6564TIP3    H241328   0.884   6.593   2.494  1.4112 -1.2655  0.9850
 6565TIP3   OH241329   6.195   6.056   2.333  0.0381 -0.5954 -1.1354
 6565TIP3    H141330   6.261   6.064   2.402 -1.1695 -2.0646  0.3024
 6565TIP3    H241331   6.244   6.065   2.251  2.0233 -1.6204 -0.1410
 6566TIP3   OH241332   6.645   0.214   0.188  0.4325 -0.2711  0.1719
 6566TIP3    H141333   6.553   0.186   0.192  0.4276 -0.4628 -0.8974
 6566TIP3    H241334   6.693   0.143   0.230  0.1485 -0.4927  0.1296
 6567TIP3   OH241335   1.791   1.093   1.592 -0.1832  0.1391  0.3398
 6567TIP3    H141336   1.865   1.109   1.533 -0.2135  2.0234  0.7419
 6567TIP3    H241337   1.814   1.143   1.672 -0.7622 -1.2530  1.4120
 6568TIP3   OH241338   3.543   5.905   8.333 -0.1554  0.1411 -0.1227
 6568TIP3    H141339   3.541   5.931   8.241  0.0168  1.0438  0.1201
 6568TIP3    H241340   3.636   5.889   8.351 -0.2620 -0.6720 -0.2740
 6569TIP3   OH241341   4.917   3.076   8.382  0.3794 -0.2048  0.3527
 6569TIP3    H141342   4.854   3.078   8.310  1.7102 -1.3891 -0.8959
 6569TIP3    H241343   4.903   3.160   8.427 -0.4635  0.6046 -1.2892
 6570TIP3   OH241344   0.685   3.844   0.219 -0.4219  0.3550 -0.3115
 6570TIP3    H141345   0.693   3.758   0.261  0.5521  0.3019 -0.5902
 6570TIP3    H241346   0.701   3.906   0.290  1.0272  0.2681 -0.5515
 6571TIP3   OH241347   4.445   4.036   0.071  0.3904  0.7432 -0.3980
 6571TIP3    H141348   4.518   4.070   0.019  1.4538  0.4535  0.8442
 6571TIP3    H241349   4.485   3.970   0.127 -0.6979  1.0586  0.7918
 6572TIP3   OH241350   2.841   1.037   7.767 -0.3554 -0.3501 -0.3069
 6572TIP3    H141351   2.912   0.977   7.744 -0.2228  0.2595 -1.6069
 6572TIP3    H241352   2.761   0.985   7.757 -0.1563 -0.7558  0.1723
 6573TIP3   OH241353   2.735   0.062   6.571 -0.0437  0.3669 -0.4819
 6573TIP3    H141354   2.792   0.131   6.537 -0.7305  0.8914 -0.5991
 6573TIP3    H241355   2.779   0.031   6.650  0.2906  0.9105 -0.4509
 6574TIP3   OH241356   4.771   6.267   8.629 -0.1673  0.4256 -0.0878
 6574TIP3    H141357   4.723   6.350   8.630 -0.4187  0.2882  1.1054
 6574TIP3    H241358   4.703   6.200   8.628  0.0045  0.2334  0.6335
 6575TIP3   OH241359   5.033   4.288   8.408  0.6745  0.0041 -0.6182
 6575TIP3    H141360   4.989   4.368   8.435 -0.3387 -0.8268  0.2583
 6575TIP3    H241361   5.096   4.271   8.478 -0.8461 -1.2851  0.5002
 6576TIP3   OH241362   6.429   2.394   1.641 -0.2107  0.1045 -0.0914
 6576TIP3    H141363   6.366   2.460   1.668 -1.2586 -1.9131  2.9000
 6576TIP3    H241364   6.510   2.442   1.624 -1.5220  2.3415 -0.2963
 6577TIP3   OH241365   4.676   0.569   6.995  0.1332 -0.4828 -0.7051
 6577TIP3    H141366   4.646   0.487   7.034  1.9807 -1.0032 -0.2889
 6577TIP3    H241367   4.706   0.545   6.907 -1.4216  0.1945 -1.4719
 6578TIP3   OH241368   0.821   4.785   8.707  0.5053 -0.1736  0.1983
 6578TIP3    H141369   0.758   4.715   8.724 -0.8941  1.1074  0.5010
 6578TIP3    H241370   0.877   4.786   8.785 -0.5078  0.0970  0.9379
 6579TIP3   OH241371   3.422   3.806   7.513 -0.4239  0.4881 -0.5991
 6579TIP3    H141372   3.413   3.725   7.463 -0.8501  0.8598 -1.1301
 6579TIP3    H241373   3.470   3.780   7.592  0.8564  0.0121 -1.4949
 6580TIP3   OH241374   0.876   2.173   7.388 -0.1879  0.0213 -0.0090
 6580TIP3    H141375   0.841   2.196   7.302 -0.3748 -0.6595 -0.1251
 6580TIP3    H241376   0.947   2.112   7.369  0.0923  0.2566  0.2968
 6581TIP3   OH241377   4.202   1.159   7.797  0.1088 -0.1700 -0.2403
 6581TIP3    H141378   4.258   1.091   7.834  0.2641  0.1531  0.1315
 6581TIP3    H241379   4.264   1.223   7.760 -0.0449 -0.5741 -1.2266
 6582TIP3   OH241380   6.439   2.738   8.416  0.1025  0.3921 -0.0655
 6582TIP3    H141381   6.448   2.827   8.382  1.9329 -0.4981 -2.1780
 6582TIP3    H241382   6.514   2.691   8.380 -0.8950 -2.0686  0.8344
 6583TIP3   OH241383   3.276   6.036   8.327 -0.8472  0.4908 -0.0456
 6583TIP3    H141384   3.368   6.049   8.351 -1.5977  1.4901  2.6650
 6583TIP3    H241385   3.266   6.084   8.245  1.7050 -2.3376 -2.2575
 6584TIP3   OH241386   0.226   2.072   0.720 -0.5716 -0.0224 -0.0272
 6584TIP3    H141387   0.154   2.035   0.669 -1.0967  0.8134  0.0877
 6584TIP3    H241388   0.290   2.101   0.654 -1.0853  0.7256 -0.2053
 6585TIP3   OH241389   0.525   1.534   0.141  0.1174  0.2819  0.1087
 6585TIP3    H141390   0.543   1.445   0.111  1.1101  0.5184 -0.0319
 6585TIP3    H241391   0.476   1.574   0.069  0.0769 -0.0031 -0.0256
 6586TIP3   OH241392   6.782   5.185   1.717 -0.4327 -0.6470 -0.5841
 6586TIP3    H141393   6.873   5.190   1.744 -0.2429 -3.7040 -0.3409
 6586TIP3    H241394   6.740   5.130   1.783 -2.2967  0.0620 -1.1060
 6587TIP3   OH241395   0.735   0.024   7.152  0.4238  1.0281  0.2359
 6587TIP3    H141396   0.801   0.079   7.195  1.2954  0.6461 -0.5714
 6587TIP3    H241397   0.786  -0.037   7.099 -0.5954  0.7741 -0.4813
 6588TIP3   OH241398   3.545   1.253   2.075 -0.2272  0.2739 -0.0526
 6588TIP3    H141399   3.470   1.224   2.023  0.1974 -1.2613  0.1499
 6588TIP3    H241400   3.621   1.233   2.021  0.1436 -0.0822  0.5828
 6589TIP3   OH241401   4.789   0.558   0.087 -0.9465 -0.0632 -0.8204
 6589TIP3    H141402   4.853   0.629   0.094 -1.4157  0.3276 -0.4224
 6589TIP3    H241403   4.796   0.528  -0.004 -0.9664  0.7037 -1.0827
 6590TIP3   OH241404   5.868   5.046   1.307  0.3191  0.6059 -0.0531
 6590TIP3    H141405   5.897   5.068   1.219  1.1987  0.1791  0.1100
 6590TIP3    H241406   5.892   4.954   1.318  0.2051  0.6476  0.6202
 6591TIP3   OH241407   2.627   1.572   6.747  0.1699 -0.1044 -0.2950
 6591TIP3    H141408   2.561   1.632   6.712  0.5769  0.2094 -0.5267
 6591TIP3    H241409   2.655   1.521   6.671  0.7345  0.2753 -0.3469
 6592TIP3   OH241410   3.596   4.585   8.573 -0.4671  0.2047  0.3568
 6592TIP3    H141411   3.628   4.673   8.594  0.4732  0.0274 -0.2891
 6592TIP3    H241412   3.525   4.600   8.510 -0.3399  0.5116  0.2835
 6593TIP3   OH241413   2.851   0.006   6.813 -0.4446  0.1642  0.3579
 6593TIP3    H141414   2.828  -0.087   6.807  2.1962 -0.5147 -0.7241
 6593TIP3    H241415   2.932   0.007   6.864  0.2781  1.6872 -0.7342
 6594TIP3   OH241416   1.597   2.664   8.106 -0.0614 -0.5605  0.1626
 6594TIP3    H141417   1.665   2.726   8.079 -0.0768  0.1378  1.5978
 6594TIP3    H241418   1.604   2.591   8.045  2.8268 -1.0915  0.9941
 6595TIP3   OH241419   1.492   5.701   6.836 -0.6250  0.8291 -0.3730
 6595TIP3    H141420   1.414   5.676   6.886  0.3748 -0.7721  0.4443
 6595TIP3    H241421   1.561   5.711   6.901 -0.1492  2.3868 -1.0717
 6596TIP3   OH241422   2.139   4.289   8.337 -0.0924 -0.1276  0.5211
 6596TIP3    H141423   2.123   4.384   8.338 -3.0286 -0.5478  0.7818
 6596TIP3    H241424   2.144   4.266   8.244 -3.9230 -0.2557  0.2000
 6597TIP3   OH241425   6.784   4.900   8.455  0.6922 -0.1244  0.0197
 6597TIP3    H141426   6.801   4.979   8.403  0.3022 -0.2671 -0.3267
 6597TIP3    H241427   6.793   4.929   8.545 -0.0741  0.4682 -0.0865
 6598TIP3   OH241428   5.177   5.878   2.359  0.3182  0.3303  0.0745
 6598TIP3    H141429   5.131   5.940   2.302 -0.0450  1.2942  1.3829
 6598TIP3    H241430   5.124   5.798   2.356 -0.3177  0.7518 -0.0477
 6599TIP3   OH241431   5.036   6.346   1.871 -0.7201 -0.2537 -0.4017
 6599TIP3    H141432   5.045   6.261   1.913 -2.3046 -0.4574 -0.4270
 6599TIP3    H241433   5.123   6.386   1.878 -0.2631 -1.3895  0.6422
 6600TIP3   OH241434   3.871   0.842   7.248  0.3951 -0.0614 -0.5226
 6600TIP3    H141435   3.928   0.908   7.289 -2.2894  1.7337  0.6114
 6600TIP3    H241436   3.790   0.889   7.230 -1.4748 -2.9584 -0.1749
 6601TIP3   OH241437   4.877   5.563   7.696 -0.5649  0.6594  0.3259
 6601TIP3    H141438   4.811   5.583   7.631 -1.9413 -0.1637  1.4209
 6601TIP3    H241439   4.873   5.468   7.706  2.2334  0.2838 -1.0485
 6602TIP3   OH241440   2.089   3.683   7.400 -0.0247 -0.5761 -0.2124
 6602TIP3    H141441   2.168   3.629   7.405  0.1480 -0.2204  1.0552
 6602TIP3    H241442   2.079   3.702   7.307  2.1906  0.5519 -0.2800
 6603TIP3   OH241443   1.354   4.577   0.675  0.2748 -0.3805  0.3811
 6603TIP3    H141444   1.331   4.655   0.724  0.8237 -0.6642  1.1114
 6603TIP3    H241445   1.430   4.541   0.721  1.9328  0.2724 -1.6388
 6604TIP3   OH241446   0.149   6.237   7.586  0.8777  0.2847 -0.3140
 6604TIP3    H141447   0.127   6.181   7.512 -1.0151 -1.0791  1.1735
 6604TIP3    H241448   0.086   6.310   7.581  0.6244  0.0928  0.0405
 6605TIP3   OH241449   3.020   0.416   7.844 -0.1536 -0.0159 -0.8697
 6605TIP3    H141450   2.978   0.422   7.758 -1.1027  0.1209 -0.4166
 6605TIP3    H241451   2.963   0.468   7.902 -0.0822 -0.9031  0.0328
 6606TIP3   OH241452   0.145   2.764   1.110  0.2627 -0.4422  0.0558
 6606TIP3    H141453   0.122   2.761   1.017 -0.5345 -0.0739  0.2341
 6606TIP3    H241454   0.135   2.674   1.140  2.2481 -0.9276 -0.5983
 6607TIP3   OH241455   0.766   3.529   0.769  0.0169  0.3633 -0.0351
 6607TIP3    H141456   0.841   3.556   0.823 -1.3775  2.7460  0.8835
 6607TIP3    H241457   0.767   3.590   0.695  0.5438 -1.3867 -1.5378
 6608TIP3   OH241458   3.880   5.992   1.030 -0.2652  0.1069  0.4523
 6608TIP3    H141459   3.968   6.012   0.997 -0.4638  1.3366  0.6409
 6608TIP3    H241460   3.881   6.020   1.121 -1.4030  1.9610 -0.0367
 6609TIP3   OH241461   4.793   1.044   2.115  0.4926  0.4313 -0.2229
 6609TIP3    H141462   4.831   1.044   2.203  1.6446  0.6207 -0.7035
 6609TIP3    H241463   4.773   1.136   2.097  0.0431  0.3658 -0.0837
 6610TIP3   OH241464   2.407   3.698   8.334 -0.8115 -0.7330 -0.1459
 6610TIP3    H141465   2.499   3.706   8.310 -0.4555 -0.9498  1.0673
 6610TIP3    H241466   2.363   3.767   8.284 -0.2322 -1.5012 -1.7948
 6611TIP3   OH241467   3.482   5.032   7.317 -0.3290 -0.1027  0.3119
 6611TIP3    H141468   3.572   5.049   7.346 -0.7355  1.8444  0.5700
 6611TIP3    H241469   3.490   5.015   7.223  0.3192 -0.0382  0.3488
 6612TIP3   OH241470   3.098   6.613   8.027  0.1364 -0.3019 -0.1715
 6612TIP3    H141471   3.011   6.577   8.012  1.1993 -3.1126 -0.2832
 6612TIP3    H241472   3.089   6.707   8.013 -3.1202 -0.3188  1.1051
 6613TIP3   OH241473   5.709   1.515   0.424  0.0108  0.6398  0.0833
 6613TIP3    H141474   5.640   1.578   0.404  0.0958  0.6040 -0.3464
 6613TIP3    H241475   5.755   1.552   0.499 -0.4114  0.7120  0.3132
 6614TIP3   OH241476   0.140   2.240   0.478  0.0108 -0.1242  0.4082
 6614TIP3    H141477   0.203   2.249   0.407  1.2353 -0.0509  1.4703
 6614TIP3    H241478   0.109   2.149   0.470 -2.4857  0.7879 -2.2553
 6615TIP3   OH241479   1.070   5.033   1.754 -0.0080 -0.1298 -0.1695
 6615TIP3    H141480   1.089   4.997   1.668  0.7046  0.1402 -0.1276
 6615TIP3    H241481   1.152   5.072   1.783 -0.1051 -0.6364  0.8404
 6616TIP3   OH241482   6.002   3.175   0.987  0.0443 -0.3746  0.7234
 6616TIP3    H141483   6.063   3.203   1.055  1.3998 -1.0260 -0.2001
 6616TIP3    H241484   5.955   3.101   1.026 -1.3454  1.1062  2.0233
 6617TIP3   OH241485   5.713   6.618   1.219  0.3231 -0.7547  0.1366
 6617TIP3    H141486   5.666   6.536   1.235 -1.0688  0.1468  0.8201
 6617TIP3    H241487   5.661   6.664   1.153  1.2469 -0.5141 -0.4527
 6618TIP3   OH241488   5.637   0.867   0.057 -0.8215 -0.0285  0.1877
 6618TIP3    H141489   5.653   0.952   0.016  2.4316 -0.2975  0.6109
 6618TIP3    H241490   5.587   0.887   0.136  0.8948  1.7130  0.9100
 6619TIP3   OH241491   6.353   3.376   2.310 -0.1495  0.4005  0.6171
 6619TIP3    H141492   6.282   3.358   2.248  1.0167  0.9377 -0.9282
 6619TIP3    H241493   6.317   3.349   2.395 -0.9037 -2.8332 -0.5616
 6620TIP3   OH241494   4.085   4.796   7.850 -0.2114 -0.8158  0.6972
 6620TIP3    H141495   4.044   4.781   7.765  0.0973  0.2888  0.3301
 6620TIP3    H241496   4.139   4.874   7.836 -0.7407 -0.1664  2.1066
 6621TIP3   OH241497   5.145   1.551   7.480 -0.3229  0.7384 -0.8378
 6621TIP3    H141498   5.106   1.638   7.474  2.4203  2.1378 -0.2714
 6621TIP3    H241499   5.238   1.566   7.466  0.1776 -2.2383 -1.3592
 6622TIP3   OH241500   0.202   6.333   2.448 -0.0834 -0.1348  0.4246
 6622TIP3    H141501   0.263   6.296   2.511 -0.4024  1.7652  1.9295
 6622TIP3    H241502   0.130   6.366   2.501 -0.2081  1.8372 -0.8913
 6623TIP3   OH241503   4.815   4.496   8.381  0.5832 -0.1993 -0.3209
 6623TIP3    H141504   4.856   4.546   8.310  1.4486 -1.5068 -0.7697
 6623TIP3    H241505   4.724   4.486   8.354  0.9561 -0.8626 -1.3693
 6624TIP3   OH241506   4.640   2.799   2.523  0.1537 -0.0996  0.1997
 6624TIP3    H141507   4.689   2.758   2.595 -0.8821 -1.8805 -0.0518
 6624TIP3    H241508   4.697   2.869   2.492  1.5875 -0.7250  1.3109
 6625TIP3   OH241509   0.928   0.898   7.136 -0.1843 -0.1885 -0.5568
 6625TIP3    H141510   0.917   0.982   7.091  1.2296  0.2194 -0.1882
 6625TIP3    H241511   0.849   0.890   7.190 -1.3182 -0.1036 -2.1226
 6626TIP3   OH241512   0.566   3.270   0.293  0.1191 -0.2023  0.1914
 6626TIP3    H141513   0.589   3.179   0.276  1.0779 -0.5394  2.9091
 6626TIP3    H241514   0.570   3.312   0.207 -1.8879 -2.9676 -1.4046
 6627TIP3   OH241515   2.716   3.759   8.346 -0.0445 -0.2782  0.2587
 6627TIP3    H141516   2.810   3.779   8.345 -0.2750  0.8402 -0.1293
 6627TIP3    H241517   2.676   3.834   8.388 -0.7328 -0.9796  0.8926
 6628TIP3   OH241518   2.753   2.456   7.576  0.2028 -0.0604 -0.3316
 6628TIP3    H141519   2.665   2.424   7.596  0.7617  0.1168  3.0335
 6628TIP3    H241520   2.808   2.377   7.573  0.5026  0.0083  1.5851
 6629TIP3   OH241521   5.094   2.238   0.124  0.9413 -0.2466  0.2669
 6629TIP3    H141522   5.137   2.311   0.080  0.5414  0.5594  1.1820
 6629TIP3    H241523   5.143   2.226   0.205 -1.0390  1.3062  1.7931
 6630TIP3   OH241524   1.990   5.821   2.135  0.1485 -0.2085  0.0149
 6630TIP3    H141525   2.029   5.748   2.088 -0.9196 -0.1208 -1.0618
 6630TIP3    H241526   2.042   5.829   2.215  0.9976 -1.3984 -0.3930
 6631TIP3   OH241527   1.098   5.659   8.197  0.2555 -0.3263  0.0959
 6631TIP3    H141528   1.162   5.684   8.263  0.3817  1.3913 -0.6150
 6631TIP3    H241529   1.101   5.563   8.195  0.9576 -0.3741  1.8429
 6632TIP3   OH241530   4.827   5.352   6.404  0.1036  0.3639 -0.6262
 6632TIP3    H141531   4.873   5.292   6.463 -0.9374  0.2758  0.1217
 6632TIP3    H241532   4.895   5.410   6.371  0.8084  0.0313  0.2003
 6633TIP3   OH241533   2.054   4.346   1.176 -0.1381 -0.6991  0.5159
 6633TIP3    H141534   2.007   4.390   1.248  0.2683 -1.8956  1.5526
 6633TIP3    H241535   2.006   4.371   1.097 -0.7432  0.4591  1.2263
 6634TIP3   OH241536   2.169   3.778   0.098 -0.2220  0.5416  0.4412
 6634TIP3    H141537   2.207   3.704   0.146  1.4054  1.3677  0.4908
 6634TIP3    H241538   2.230   3.795   0.027 -2.2420 -0.1979 -1.5656
 6635TIP3   OH241539   4.788   4.150   8.436  0.0488 -0.3147 -0.0569
 6635TIP3    H141540   4.858   4.213   8.450 -0.7611  0.4595  0.6621
 6635TIP3    H241541   4.716   4.201   8.400 -0.8376 -0.6943  1.1199
 6636TIP3   OH241542   0.867   2.237   8.301 -0.0386 -0.3624  0.4544
 6636TIP3    H141543   0.795   2.300   8.306  0.6814  0.4524  0.8246
 6636TIP3    H241544   0.930   2.277   8.242 -0.0550 -1.2578 -0.1839
 6637TIP3   OH241545   0.873   5.367   8.449 -0.2944  0.2347  0.0887
 6637TIP3    H141546   0.941   5.372   8.382 -1.3120  2.1280 -0.8881
 6637TIP3    H241547   0.849   5.274   8.452  1.9184 -0.3979  0.1063
 6638TIP3   OH241548   0.739   3.864   1.597 -0.2928  0.2707  0.7245
 6638TIP3    H141549   0.729   3.859   1.502 -0.4631  1.6749  0.6500
 6638TIP3    H241550   0.651   3.885   1.629 -0.3620 -0.7699  1.2602
 6639TIP3   OH241551   5.732   2.318   8.493  0.0244  0.4878  0.2052
 6639TIP3    H141552   5.670   2.249   8.470 -0.5224  1.3147 -0.8725
 6639TIP3    H241553   5.761   2.354   8.409  1.4558  0.5726  0.7080
 6640TIP3   OH241554   0.665   1.940   7.014  0.3155  1.0165 -0.2915
 6640TIP3    H141555   0.743   1.909   6.968  0.3736  0.9398 -0.1408
 6640TIP3    H241556   0.617   1.861   7.036  1.9941  0.6972  2.9075
 6641TIP3   OH241557   4.007   1.277   7.963 -0.3037  0.4621  0.0790
 6641TIP3    H141558   4.068   1.213   7.927 -0.5743  1.1669 -1.7628
 6641TIP3    H241559   3.970   1.235   8.041  3.0312  0.2997  1.7684
 6642TIP3   OH241560   1.491   0.106   2.681  0.1447  0.3514  0.4776
 6642TIP3    H141561   1.577   0.137   2.710 -0.0041  2.4884 -1.1376
 6642TIP3    H241562   1.437   0.185   2.678 -0.6124 -0.1555 -2.7565
 6643TIP3   OH241563   4.333   4.783   1.383 -0.3314 -0.0006  0.0457
 6643TIP3    H141564   4.254   4.832   1.406  0.2447 -0.3081  3.0510
 6643TIP3    H241565   4.300   4.700   1.349 -1.3496 -0.2972  1.6478
 6644TIP3   OH241566   6.381   0.200   0.151  0.4131 -0.2955  0.7352
 6644TIP3    H141567   6.327   0.266   0.194  0.3635 -0.2025  0.5335
 6644TIP3    H241568   6.365   0.214   0.057  1.0002 -0.0825  0.6640
 6645TIP3   OH241569   6.065   2.293   2.506 -0.0153  0.5243  0.1252
 6645TIP3    H141570   6.154   2.266   2.525 -0.5826 -0.6466  1.3017
 6645TIP3    H241571   6.055   2.378   2.549 -0.2074 -0.5021  2.2503
 6646TIP3   OH241572   4.822   5.156   0.376 -0.4209  0.5058 -0.0269
 6646TIP3    H141573   4.741   5.106   0.382  0.4282 -0.7647  1.7333
 6646TIP3    H241574   4.881   5.100   0.326  0.0399  0.4308  0.5927
 6647TIP3   OH241575   4.007   2.395   2.755 -0.0303  0.1146 -0.2293
 6647TIP3    H141576   3.962   2.345   2.687  2.1272  0.4498 -2.0390
 6647TIP3    H241577   4.094   2.357   2.759 -0.2480 -0.2955  2.8993
 6648TIP3   OH241578   3.072   3.874   7.315  0.2552  0.3814 -0.1731
 6648TIP3    H141579   3.154   3.914   7.286  1.1669 -1.5257 -0.3996
 6648TIP3    H241580   3.097   3.825   7.394 -0.3263 -1.3230 -1.0020
 6649TIP3   OH241581   5.565   5.225   7.677  0.6508 -0.1135  0.6804
 6649TIP3    H141582   5.579   5.313   7.642 -0.4876 -0.7616 -1.5743
 6649TIP3    H241583   5.505   5.238   7.751  1.1838  1.0709  0.9323
 6650TIP3   OH241584   0.322   3.538   8.390  0.1189  0.5916 -0.0445
 6650TIP3    H141585   0.322   3.453   8.346  1.3294  0.9326 -0.7569
 6650TIP3    H241586   0.390   3.589   8.344 -0.0324  1.6695  0.8774
 6651TIP3   OH241587   6.079   5.073   7.542 -0.6578  0.1348 -0.1219
 6651TIP3    H141588   6.021   5.028   7.481 -1.1141  0.6123 -0.0521
 6651TIP3    H241589   6.155   5.098   7.489 -0.5230 -0.4659 -0.2215
 6652TIP3   OH241590   2.405   5.441   8.094 -0.2476 -0.3122  0.0503
 6652TIP3    H141591   2.378   5.350   8.102  2.0632 -1.0844 -0.3101
 6652TIP3    H241592   2.473   5.441   8.026 -0.1154  1.6654  0.1038
 6653TIP3   OH241593   2.911   4.651   7.208 -0.1749 -0.0300 -0.0722
 6653TIP3    H141594   2.979   4.675   7.271 -0.3736  0.9249 -0.2015
 6653TIP3    H241595   2.832   4.638   7.262  0.1151 -1.2659  0.0929
 6654TIP3   OH241596   3.106   5.007   0.697  0.3879 -0.4317  0.6813
 6654TIP3    H141597   3.135   5.070   0.764  0.5114  0.0172  0.2116
 6654TIP3    H241598   3.108   4.923   0.742 -0.4578 -0.0260  1.5330
 6655TIP3   OH241599   0.854   3.620   8.605  0.2642  0.2629 -0.1511
 6655TIP3    H141600   0.898   3.632   8.688 -0.8373  0.5945  0.4071
 6655TIP3    H241601   0.924   3.600   8.543  1.0166 -0.7303  0.9853
 6656TIP3   OH241602   3.284   5.559   8.539 -1.0160 -0.4725 -0.0616
 6656TIP3    H141603   3.323   5.630   8.487  1.0364 -0.8766  0.8348
 6656TIP3    H241604   3.190   5.564   8.520 -0.6448  1.0548 -1.7370
 6657TIP3   OH241605   3.558   1.096   0.654 -0.5506  0.0548 -0.3943
 6657TIP3    H141606   3.502   1.094   0.577 -0.0538 -0.4764 -0.7525
 6657TIP3    H241607   3.499   1.080   0.727 -0.8097 -1.0184 -0.8157
 6658TIP3   OH241608   4.195   1.085   1.299 -0.9532 -0.1095 -0.0020
 6658TIP3    H141609   4.242   1.134   1.366 -2.1406  1.0639  0.0227
 6658TIP3    H241610   4.236   1.111   1.217 -1.3029  0.6229  0.0491
 6659TIP3   OH241611   1.603   2.673   0.108  0.1869  0.4845 -0.6005
 6659TIP3    H141612   1.561   2.743   0.158  0.0918 -0.0859  0.1428
 6659TIP3    H241613   1.589   2.594   0.161 -1.2560 -0.4451 -2.2404
 6660TIP3   OH241614   4.279   2.951   0.446 -0.4421 -0.1567 -0.1760
 6660TIP3    H141615   4.223   3.016   0.488 -0.6556 -1.3882  1.5792
 6660TIP3    H241616   4.222   2.875   0.435  0.3417 -0.7505 -0.2122
 6661TIP3   OH241617   2.920   3.944   0.705  0.1827  0.2402  0.3858
 6661TIP3    H141618   2.911   3.947   0.610 -0.4165  1.0086  0.4619
 6661TIP3    H241619   2.963   3.860   0.722 -1.0113 -0.5716 -0.4559
 6662TIP3   OH241620   5.945   0.933   6.753 -0.9733  0.6256  0.0292
 6662TIP3    H141621   5.989   1.008   6.712 -0.3847  0.6398  0.6706
 6662TIP3    H241622   6.004   0.860   6.739  1.4586  1.4069  4.4757
 6663TIP3   OH241623   5.279   4.369   1.477 -0.3212 -0.4989 -0.3453
 6663TIP3    H141624   5.321   4.428   1.414 -0.9076 -0.3504 -0.6055
 6663TIP3    H241625   5.342   4.361   1.548 -0.6546  1.3677  0.2349
 6664TIP3   OH241626   6.324   3.349   0.816 -0.6170  0.5146 -0.3598
 6664TIP3    H141627   6.390   3.301   0.865 -0.3238  0.5164 -0.7469
 6664TIP3    H241628   6.316   3.433   0.861  0.6317  1.0500 -1.0944
 6665TIP3   OH241629   3.373   2.362   6.891  0.1916  0.4969  0.6010
 6665TIP3    H141630   3.396   2.453   6.874 -1.6499  0.5631 -2.3788
 6665TIP3    H241631   3.453   2.313   6.874  1.0307  1.4674  1.6096
 6666TIP3   OH241632   3.085   1.773   7.845  0.1864 -0.4387 -0.3820
 6666TIP3    H141633   3.091   1.833   7.771 -0.1211 -1.2979 -1.1157
 6666TIP3    H241634   3.151   1.705   7.827  0.0964 -0.6651  0.1207
 6667TIP3   OH241635   3.709   4.831   0.158  0.5887 -0.6742 -1.0492
 6667TIP3    H141636   3.762   4.779   0.219 -1.4814 -0.1441  1.4170
 6667TIP3    H241637   3.620   4.799   0.171 -0.4400  1.9140 -1.1071
 6668TIP3   OH241638   2.657   5.775   7.426 -0.2468  0.0948  0.3851
 6668TIP3    H141639   2.741   5.762   7.469 -0.2962  1.3341  0.8946
 6668TIP3    H241640   2.667   5.735   7.340  0.5989 -0.4590  0.7359
 6669TIP3   OH241641   1.659   2.459   6.982  0.4042 -0.0003  0.2456
 6669TIP3    H141642   1.712   2.529   7.022 -0.4531  0.3765  0.7451
 6669TIP3    H241643   1.657   2.481   6.889 -0.3881  1.0205  0.4821
 6670TIP3   OH241644   1.318   0.464   1.491 -0.3600  0.5372  0.4416
 6670TIP3    H141645   1.389   0.476   1.428 -0.4400  0.6468  0.3740
 6670TIP3    H241646   1.322   0.541   1.547 -1.1611  1.1216 -0.2728
 6671TIP3   OH241647   4.010   3.245   0.003  0.2554  0.0211 -0.0831
 6671TIP3    H141648   4.074   3.220   0.069  0.2548 -0.3223 -0.2057
 6671TIP3    H241649   3.950   3.170  -0.001  0.3362 -0.0209 -0.5686
 6672TIP3   OH241650   4.806   6.476   1.852  0.2020  0.3399  0.0172
 6672TIP3    H141651   4.775   6.475   1.943  0.2376  1.4323  0.0650
 6672TIP3    H241652   4.886   6.425   1.853 -0.4381 -0.6827  0.3440
 6673TIP3   OH241653   4.529   3.572   2.631 -0.9593  0.2099  0.2232
 6673TIP3    H141654   4.556   3.513   2.561  0.3394  0.4076  0.5281
 6673TIP3    H241655   4.442   3.541   2.657 -1.8341  0.6211 -1.9838
 6674TIP3   OH241656   0.089   5.011   1.013  0.4279 -0.7212 -0.5310
 6674TIP3    H141657   0.118   4.921   1.029 -0.0630 -1.0683 -1.4733
 6674TIP3    H241658   0.019   5.025   1.077  2.0031 -0.1890  1.1455
 6675TIP3   OH241659   6.021   0.106   1.320 -0.4144 -0.6207 -0.0858
 6675TIP3    H141660   6.091   0.116   1.383 -0.6450  1.9230 -0.1227
 6675TIP3    H241661   6.055   0.044   1.255  2.3024  1.3667 -0.7165
 6676TIP3   OH241662   4.700   6.297   1.648  0.5803 -0.5312  0.1247
 6676TIP3    H141663   4.606   6.278   1.641  0.4274 -0.0088  0.6686
 6676TIP3    H241664   4.710   6.336   1.734  1.2509 -0.2838 -0.0610
 6677TIP3   OH241665   1.330   2.070   7.950  0.1239  0.2425 -0.7346
 6677TIP3    H141666   1.245   2.029   7.970 -1.5376  3.5213 -0.4570
 6677TIP3    H241667   1.318   2.109   7.864  1.2632  0.9848 -0.5778
 6678TIP3   OH241668   1.633   0.579   0.101  0.3731  0.0995 -0.1641
 6678TIP3    H141669   1.567   0.646   0.118  0.7676  0.0998  1.6098
 6678TIP3    H241670   1.707   0.626   0.062  1.0926  0.9733  2.0959
 6679TIP3   OH241671   3.146   6.531   0.238  0.1430 -0.2231 -0.0299
 6679TIP3    H141672   3.152   6.436   0.235 -1.8750 -0.5219  2.0663
 6679TIP3    H241673   3.229   6.562   0.202  0.3725 -2.7172 -1.8772
 6680TIP3   OH241674   4.278   0.501   1.128 -0.1284  0.0825 -0.1603
 6680TIP3    H141675   4.320   0.469   1.208  0.5812 -0.0051 -0.5648
 6680TIP3    H241676   4.212   0.563   1.159 -0.7507 -0.8998  0.5776
 6681TIP3   OH241677   0.896   3.185   0.389  0.4710  0.0026  0.2498
 6681TIP3    H141678   0.985   3.213   0.409  1.3515 -0.6301 -2.3135
 6681TIP3    H241679   0.853   3.177   0.474  2.5494  1.2813  1.4974
 6682TIP3   OH241680   0.417   6.807   2.424  0.2691 -1.1266  0.1470
 6682TIP3    H141681   0.376   6.851   2.499 -1.6757 -0.1953 -1.3729
 6682TIP3    H241682   0.422   6.874   2.356 -0.8450 -2.6524 -1.5556
 6683TIP3   OH241683   1.341   0.500   7.160 -0.3695 -0.2512 -0.6030
 6683TIP3    H141684   1.253   0.537   7.163 -0.7217 -1.0596 -0.5425
 6683TIP3    H241685   1.346   0.458   7.073 -0.7640 -1.8641  0.1082
 6684TIP3   OH241686   4.888   0.555   0.765  0.1294  0.2613 -0.6423
 6684TIP3    H141687   4.845   0.596   0.691 -0.7319  1.1290  0.3003
 6684TIP3    H241688   4.863   0.609   0.840  1.6388 -0.1000  0.1658
 6685TIP3   OH241689   3.379   0.807   8.208  0.1903  0.3717  0.1555
 6685TIP3    H141690   3.336   0.783   8.126 -0.7230  2.0734  0.0770
 6685TIP3    H241691   3.461   0.759   8.208 -1.0446 -1.8455 -0.4024
 6686TIP3   OH241692   3.709   6.600   6.733  0.0637  0.4580 -0.2820
 6686TIP3    H141693   3.722   6.654   6.811  0.3814  1.7888 -1.2254
 6686TIP3    H241694   3.786   6.544   6.730  1.0798  1.8226 -0.7274
 6687TIP3   OH241695   4.414   6.446   6.694  0.4045  0.0591 -0.1919
 6687TIP3    H141696   4.319   6.435   6.696  0.3429  0.4900 -0.5287
 6687TIP3    H241697   4.444   6.381   6.630  0.5762 -1.5732  1.4544
 6688TIP3   OH241698   5.428   2.575   7.697 -0.5270 -0.2125 -0.3218
 6688TIP3    H141699   5.477   2.657   7.688  1.1736 -1.1845 -0.3783
 6688TIP3    H241700   5.478   2.525   7.761 -1.9076 -0.9693  0.2031
 6689TIP3   OH241701   0.678   2.491   8.335  0.3098  0.2242  0.3320
 6689TIP3    H141702   0.626   2.547   8.391 -0.8007 -0.8223  0.3995
 6689TIP3    H241703   0.625   2.481   8.255  0.7610 -0.2311  0.0815
 6690TIP3   OH241704   5.317   5.563   1.837  0.5493 -0.2277  0.5472
 6690TIP3    H141705   5.314   5.477   1.879 -0.6779 -0.2359  0.4819
 6690TIP3    H241706   5.311   5.625   1.909  1.6025 -0.1818  0.6072
 6691TIP3   OH241707   6.729   6.500   2.177  0.1025 -0.0927 -0.1376
 6691TIP3    H141708   6.742   6.405   2.186  0.2856 -0.1097 -0.5746
 6691TIP3    H241709   6.786   6.526   2.105  1.3134  0.6403  1.0414
 6692TIP3   OH241710   6.084   5.741   2.061  0.1146 -0.4885  0.1355
 6692TIP3    H141711   6.143   5.707   2.128 -0.6045  0.6680  1.4125
 6692TIP3    H241712   6.139   5.798   2.007  0.2799  0.2541  1.0582
 6693TIP3   OH241713   5.408   1.197   8.083  0.4162  0.0618  0.2023
 6693TIP3    H141714   5.418   1.158   7.997 -0.7508 -2.6930  1.2016
 6693TIP3    H241715   5.357   1.277   8.068  1.8527  0.6669 -1.8194
 6694TIP3   OH241716   6.207   6.818   2.531  0.4364  0.1950  0.1518
 6694TIP3    H141717   6.287   6.770   2.509 -1.1502 -2.4583 -0.2604
 6694TIP3    H241718   6.192   6.798   2.623  0.7384  1.5661  0.5338
 6695TIP3   OH241719   6.140   3.874   0.996  0.5175 -0.0359 -0.6840
 6695TIP3    H141720   6.146   3.969   1.009  2.3905 -0.5668  4.4826
 6695TIP3    H241721   6.047   3.855   1.004  0.1201  1.2660 -1.7335
 6696TIP3   OH241722   3.929   2.234   1.294  0.4454  1.1859  0.2516
 6696TIP3    H141723   3.938   2.230   1.389 -1.5671  1.8061  0.5199
 6696TIP3    H241724   3.950   2.145   1.264 -0.5511  0.5042  1.4749
 6697TIP3   OH241725   2.918   6.857   1.528 -0.4893  0.2578  0.2513
 6697TIP3    H141726   2.912   6.946   1.491 -0.6271  0.1276 -0.0435
 6697TIP3    H241727   2.833   6.817   1.508 -0.2573 -0.0989 -0.0336
 6698TIP3   OH241728   4.143   5.393   0.045 -0.1766  0.7406 -0.2453
 6698TIP3    H141729   4.072   5.453   0.069  0.8814  2.3521 -0.9430
 6698TIP3    H241730   4.100   5.324  -0.005 -1.7043 -0.1156  2.0719
 6699TIP3   OH241731   6.054   5.686   6.848  0.1252 -0.4520 -0.6149
 6699TIP3    H141732   6.038   5.685   6.754  2.1331  0.1969 -1.0272
 6699TIP3    H241733   6.011   5.607   6.881  1.0087 -1.7584 -2.3997
 6700TIP3   OH241734   0.805   2.229   8.615 -0.6983  0.2828  0.5249
 6700TIP3    H141735   0.874   2.167   8.592  0.2638  0.1580  3.3338
 6700TIP3    H241736   0.837   2.314   8.585  1.0257  0.3070  2.2368
 6701TIP3   OH241737   6.247   2.581   8.517  0.0173 -0.1967  0.1592
 6701TIP3    H141738   6.324   2.634   8.498  0.5078 -1.6341 -2.1899
 6701TIP3    H241739   6.184   2.643   8.553  1.5348  1.4067  0.1955
 6702TIP3   OH241740   2.308   3.440   1.487  0.0875  0.0893 -0.1353
 6702TIP3    H141741   2.311   3.533   1.506  1.3741  0.1226 -0.4166
 6702TIP3    H241742   2.399   3.411   1.494 -0.5608 -1.6666  2.4819
 6703TIP3   OH241743   3.190   1.654   0.420  0.1553  0.2808 -0.5148
 6703TIP3    H141744   3.101   1.655   0.385  0.6937 -2.1305 -2.2747
 6703TIP3    H241745   3.244   1.623   0.346  2.2743  0.5178  0.8413
 6704TIP3   OH241746   0.468   1.680   0.372  0.0178 -0.3137 -0.4042
 6704TIP3    H141747   0.456   1.610   0.307  0.0450  0.0408 -0.7951
 6704TIP3    H241748   0.523   1.744   0.328  0.7001 -0.4353  0.2555
 6705TIP3   OH241749   4.225   4.480   7.118  0.0112  0.1387 -0.0879
 6705TIP3    H141750   4.286   4.449   7.185  0.3771  0.9112 -0.0596
 6705TIP3    H241751   4.162   4.408   7.108  0.4872 -0.3546  0.4207
 6706TIP3   OH241752   5.841   5.385   7.849  0.3767  0.4297  0.4401
 6706TIP3    H141753   5.865   5.294   7.831 -3.2692 -0.3309 -1.6433
 6706TIP3    H241754   5.911   5.437   7.807  1.7193 -1.3846  0.3076
 6707TIP3   OH241755   3.579   3.803   1.340  0.1679 -0.2331 -0.7776
 6707TIP3    H141756   3.544   3.730   1.289  1.2715  0.0230 -1.9651
 6707TIP3    H241757   3.660   3.768   1.377 -0.6507 -0.4346  0.9100
 6708TIP3   OH241758   6.821   2.308   0.754 -0.3993 -0.0584 -0.0032
 6708TIP3    H141759   6.896   2.288   0.699 -0.2365 -0.0718  0.2251
 6708TIP3    H241760   6.760   2.354   0.695 -0.2890 -0.2044 -0.2302
 6709TIP3   OH241761   4.331   6.341   6.996 -0.1264 -0.1309 -0.1803
 6709TIP3    H141762   4.269   6.284   7.042 -0.2215 -0.8415 -1.1616
 6709TIP3    H241763   4.283   6.370   6.919 -0.3684  1.9531  0.6771
 6710TIP3   OH241764   3.460   3.535   7.866 -0.4287 -0.1575 -0.0395
 6710TIP3    H141765   3.405   3.614   7.868 -1.9829 -1.2070  0.4581
 6710TIP3    H241766   3.491   3.530   7.776 -0.4808  0.8970 -0.1307
 6711TIP3   OH241767   0.063   2.054   2.983 -0.2792  0.2335 -0.2724
 6711TIP3    H141768   0.036   1.991   2.917  1.0860 -0.2860 -0.3801
 6711TIP3    H241769   0.127   2.007   3.036 -0.5209  0.9984  0.7248
 6712TIP3   OH241770   3.056   6.543   8.633 -0.0067 -0.2281  0.1651
 6712TIP3    H141771   3.120   6.475   8.610 -0.1407 -0.2217 -0.2295
 6712TIP3    H241772   3.104   6.601   8.693  0.4229 -0.1129 -0.2795
 6713TIP3   OH241773   2.846   4.768   0.144 -0.2667 -0.3209 -0.1062
 6713TIP3    H141774   2.841   4.829   0.071 -2.2461 -0.4943 -0.1671
 6713TIP3    H241775   2.854   4.682   0.103 -0.5732 -0.3484 -0.1134
 6714TIP3   OH241776   4.248   3.030   1.037 -0.3655  0.3576 -0.2467
 6714TIP3    H141777   4.197   3.095   0.989 -2.0701 -1.1701 -0.6608
 6714TIP3    H241778   4.302   2.987   0.970 -0.1178  0.5605 -0.1781
 6715TIP3   OH241779   5.341   5.747   0.439  0.3355 -0.5992  0.0882
 6715TIP3    H141780   5.314   5.655   0.430  0.2971 -0.5020 -0.8192
 6715TIP3    H241781   5.436   5.742   0.451  0.4367 -0.7116 -0.7548
 6716TIP3   OH241782   0.902   4.064   0.836 -0.6661 -0.9871  0.0803
 6716TIP3    H141783   0.975   4.061   0.773 -1.6924  0.5500 -1.2608
 6716TIP3    H241784   0.824   4.045   0.783 -1.7878  2.1259  0.4286
 6717TIP3   OH241785   5.501   2.623   2.425 -0.0507  0.9914 -0.7485
 6717TIP3    H141786   5.420   2.573   2.437  0.0252  1.3571  1.7881
 6717TIP3    H241787   5.549   2.575   2.357 -1.3716 -0.5446 -0.6583
 6718TIP3   OH241788   2.075   4.596   2.237 -0.2211  0.1220 -0.4190
 6718TIP3    H141789   2.169   4.600   2.255 -0.4508  2.1883  0.7459
 6718TIP3    H241790   2.052   4.503   2.242  0.9688 -0.1564  3.9696
 6719TIP3   OH241791   6.857   6.671   1.613 -0.5245 -0.3691  0.5403
 6719TIP3    H141792   6.940   6.711   1.640 -0.8370  0.3617  0.4516
 6719TIP3    H241793   6.794   6.742   1.619 -0.6233 -0.1184 -2.1522
 6720TIP3   OH241794   5.077   0.297   0.963 -0.4530  0.0911  0.1317
 6720TIP3    H141795   5.101   0.372   1.019 -1.4948  0.7897 -0.3230
 6720TIP3    H241796   5.140   0.299   0.891 -1.2018  1.2919 -0.5223
 6721TIP3   OH241797   6.016   4.985   0.293 -0.3881 -0.4590  0.1380
 6721TIP3    H141798   5.933   5.032   0.304  0.0004  0.1088  0.7604
 6721TIP3    H241799   6.053   4.982   0.381  0.6416  0.0375 -0.2625
 6722TIP3   OH241800   1.178   3.872   1.133  0.0069  0.1430  0.3088
 6722TIP3    H141801   1.267   3.864   1.097  0.0121 -1.7771  0.6262
 6722TIP3    H241802   1.144   3.782   1.133 -1.5551  0.6938  1.1641
 6723TIP3   OH241803   3.814   6.386   1.117 -0.0106  0.7941 -0.2013
 6723TIP3    H141804   3.876   6.370   1.046 -0.0039  0.6560 -0.1651
 6723TIP3    H241805   3.842   6.468   1.156 -1.0070  1.7639 -1.4269
 6724TIP3   OH241806   3.271   3.345   7.837 -0.0533 -0.3220  0.2405
 6724TIP3    H141807   3.339   3.412   7.841  1.3398 -1.6643 -0.1589
 6724TIP3    H241808   3.202   3.377   7.895  1.3246  0.6282  1.4065
 6725TIP3   OH241809   5.264   4.683   0.277  0.6597 -0.2470  0.3507
 6725TIP3    H141810   5.331   4.751   0.277 -0.0333  0.6101 -2.8438
 6725TIP3    H241811   5.223   4.690   0.191 -2.8737 -1.4094  1.7609
 6726TIP3   OH241812   0.009   1.973   8.275  0.5424 -0.1339 -0.2225
 6726TIP3    H141813   0.062   1.916   8.219 -0.9892 -1.6729 -0.1769
 6726TIP3    H241814  -0.040   2.028   8.214 -0.1754 -0.9350 -0.3897
 6727TIP3   OH241815   6.322   4.069   7.439 -0.0796  0.1398 -0.3076
 6727TIP3    H141816   6.241   4.112   7.465  0.0161  1.6348 -2.2766
 6727TIP3    H241817   6.369   4.134   7.387  1.2991 -1.4689 -1.1958
 6728TIP3   OH241818   5.919   3.495   1.113  0.0456  0.0190  0.1020
 6728TIP3    H141819   5.902   3.519   1.021 -1.1127  1.3110  0.6195
 6728TIP3    H241820   5.930   3.579   1.158  0.9487 -0.6111  1.0985
 6729TIP3   OH241821   2.978   3.983   1.666  0.0658 -0.4446  0.4363
 6729TIP3    H141822   2.915   3.949   1.603  1.3498 -0.5979 -0.8106
 6729TIP3    H241823   3.004   4.068   1.630  0.8607 -0.5583  0.7177
 6730TIP3   OH241824   4.233   1.846   6.998  0.2112  0.2380  0.0824
 6730TIP3    H141825   4.200   1.912   7.060  0.6088 -0.2843  0.8619
 6730TIP3    H241826   4.286   1.896   6.936  1.1711  0.5612  1.1362
 6731TIP3   OH241827   3.709   4.255   6.438  0.2882  1.3273 -0.4476
 6731TIP3    H141828   3.793   4.278   6.478  0.3312 -0.3394  0.5220
 6731TIP3    H241829   3.650   4.325   6.464  1.0445  1.8213  0.0007
 6732TIP3   OH241830   1.283   3.154   2.386  0.0299  0.0388 -0.1144
 6732TIP3    H141831   1.240   3.155   2.471  1.5100 -1.9339  0.7368
 6732TIP3    H241832   1.324   3.241   2.379 -1.4154  0.8026  0.4265
 6733TIP3   OH241833   2.478   5.244   1.884  0.3424  0.4302  0.3599
 6733TIP3    H141834   2.542   5.273   1.819 -0.4118  0.6949 -0.2924
 6733TIP3    H241835   2.470   5.149   1.870 -0.7338  0.6598 -0.8274
 6734TIP3   OH241836   2.904   4.449   1.394 -0.7733  0.2292  0.3098
 6734TIP3    H141837   2.835   4.490   1.446 -1.3758 -0.7803  0.3140
 6734TIP3    H241838   2.858   4.405   1.323 -0.2798 -1.6841  1.1216
 6735TIP3   OH241839   2.974   5.120   8.462  0.0667  0.0865  0.3781
 6735TIP3    H141840   3.013   5.130   8.375 -0.5407 -0.6630  0.0104
 6735TIP3    H241841   2.882   5.144   8.450  0.2362  1.1472  1.0859
 6736TIP3   OH241842   4.233   2.630   7.552 -0.5865 -0.3656 -0.1495
 6736TIP3    H141843   4.300   2.665   7.492 -0.0680 -2.0770 -0.6279
 6736TIP3    H241844   4.163   2.695   7.549  0.8635  1.2955  0.0695
 6737TIP3   OH241845   5.416   5.908   6.057 -0.0497 -0.2079 -0.3255
 6737TIP3    H141846   5.476   5.956   6.000 -1.8416  2.2320 -0.3326
 6737TIP3    H241847   5.341   5.888   6.002 -0.2667 -1.1177  0.2708
 6738TIP3   OH241848   3.587   5.616   1.752 -0.1502 -0.0876 -0.0188
 6738TIP3    H141849   3.634   5.700   1.755  1.7036 -1.0782  1.8052
 6738TIP3    H241850   3.656   5.551   1.743 -1.3173 -1.5405  1.0565
 6739TIP3   OH241851   3.352   1.519   0.248  0.3882 -0.5229  0.0196
 6739TIP3    H141852   3.338   1.581   0.176  1.5253  1.4044  1.3775
 6739TIP3    H241853   3.436   1.479   0.229  1.2053  0.7712  0.7634
 6740TIP3   OH241854   6.428   1.002   0.080  0.6217 -0.1458  0.2143
 6740TIP3    H141855   6.443   1.025  -0.011  0.2257 -0.0382  0.1780
 6740TIP3    H241856   6.508   1.030   0.125  1.4379 -1.4967 -0.3262
 6741TIP3   OH241857   0.950   2.127   0.158 -0.3373 -0.2692  0.3750
 6741TIP3    H141858   0.916   2.064   0.222  1.8246 -2.1620 -0.1799
 6741TIP3    H241859   0.947   2.080   0.075 -1.3047  1.4493 -0.6041
 6742TIP3   OH241860   6.735   6.724   2.379 -0.0295 -0.8519  0.5521
 6742TIP3    H141861   6.828   6.744   2.372  0.2518 -2.0566  0.6770
 6742TIP3    H241862   6.722   6.649   2.322 -0.4863 -2.0460  2.1609
 6743TIP3   OH241863   5.445   0.139   8.300  0.3203  0.3513 -0.1251
 6743TIP3    H141864   5.437   0.135   8.205  1.2133  0.1831 -0.1988
 6743TIP3    H241865   5.411   0.054   8.330 -0.7321  0.7226 -0.2245
 6744TIP3   OH241866   4.105   4.391   2.020 -0.2618 -0.1711 -0.2311
 6744TIP3    H141867   4.030   4.372   2.077  0.7608 -1.4261  0.7656
 6744TIP3    H241868   4.135   4.477   2.048 -0.7958 -0.0341 -0.0537
 6745TIP3   OH241869   4.525   2.862   0.335  0.4540 -0.0839  0.3845
 6745TIP3    H141870   4.437   2.860   0.375  0.5283 -0.5726  0.5250
 6745TIP3    H241871   4.583   2.834   0.406  0.5607 -1.2131 -0.1377
 6746TIP3   OH241872   6.832   2.419   8.090 -0.2573  0.2065 -0.2730
 6746TIP3    H141873   6.810   2.372   8.171  0.0721  0.9302  0.2441
 6746TIP3    H241874   6.789   2.504   8.099  3.2011  2.0306  1.1592
 6747TIP3   OH241875   2.432   2.582   8.618 -0.1134 -0.1079 -0.3902
 6747TIP3    H141876   2.507   2.584   8.678 -0.8636 -1.4685  0.6528
 6747TIP3    H241877   2.424   2.672   8.586  0.6980  0.5225  1.0770
 6748TIP3   OH241878   5.117   6.684   7.127  0.1326  0.2375  0.5226
 6748TIP3    H141879   5.176   6.647   7.062  0.7527  1.1135  0.5805
 6748TIP3    H241880   5.057   6.612   7.148  1.5445 -0.8758  0.9277
 6749TIP3   OH241881   2.863   0.365   0.646 -0.0597  0.6354  0.1453
 6749TIP3    H141882   2.903   0.353   0.560 -1.1781  0.0359 -0.3085
 6749TIP3    H241883   2.905   0.443   0.682 -0.5106  1.6565 -1.4876
 6750TIP3   OH241884   4.695   6.732   6.516 -0.2794 -0.7447  0.0263
 6750TIP3    H141885   4.690   6.644   6.554 -0.9534 -0.1141  1.4562
 6750TIP3    H241886   4.779   6.767   6.547  0.3576 -1.1466 -1.1851
 6751TIP3   OH241887   1.092   4.139   7.832  0.5195 -0.3755 -0.2705
 6751TIP3    H141888   1.159   4.191   7.875 -0.0008  3.0017 -3.0769
 6751TIP3    H241889   1.015   4.196   7.830 -1.0895 -2.4492 -0.9051
 6752TIP3   OH241890   3.858   0.899   1.618  0.0958 -0.2221 -0.0957
 6752TIP3    H141891   3.894   0.915   1.530  0.3346  0.3486  0.1007
 6752TIP3    H241892   3.914   0.830   1.654  0.7274  0.3432  0.0366
 6753TIP3   OH241893   4.310   1.093   7.080  0.2271  0.2465 -0.3305
 6753TIP3    H141894   4.270   1.117   6.996 -0.8705  1.0299  0.3800
 6753TIP3    H241895   4.373   1.162   7.097  0.8446 -0.2014 -0.7510
 6754TIP3   OH241896   5.441   3.056   1.052 -0.1727  0.0064 -0.0066
 6754TIP3    H141897   5.404   3.052   1.140 -2.5960 -0.3584 -0.9901
 6754TIP3    H241898   5.382   3.114   1.003  0.2981 -0.9398 -1.7763
 6755TIP3   OH241899   1.076   4.182   0.205 -0.0771 -0.4103  0.0629
 6755TIP3    H141900   1.166   4.174   0.174  0.1919 -2.7062  1.2829
 6755TIP3    H241901   1.034   4.100   0.181 -2.1280  0.8709 -1.1166
 6756TIP3   OH241902   5.315   4.232   7.295  0.0119  0.1767 -0.1696
 6756TIP3    H141903   5.403   4.196   7.287  0.0361  0.1759  0.0737
 6756TIP3    H241904   5.304   4.288   7.218  0.2588  0.2458 -0.1558
 6757TIP3   OH241905   1.466   2.539   0.748  0.2040 -0.0351 -0.1044
 6757TIP3    H141906   1.521   2.539   0.826  0.4569  0.0849 -0.2820
 6757TIP3    H241907   1.388   2.588   0.774 -0.2748 -1.0624  0.4599
 6758TIP3   OH241908   3.664   4.783   0.802 -0.2584  0.6863 -0.0365
 6758TIP3    H141909   3.652   4.859   0.860  1.8450  1.2532 -0.2713
 6758TIP3    H241910   3.716   4.722   0.854 -0.6587  0.0264 -0.3962
 6759TIP3   OH241911   6.689   1.980   3.135 -0.4850 -0.3050  0.1957
 6759TIP3    H141912   6.648   2.066   3.142 -0.8237 -0.6160  3.6400
 6759TIP3    H241913   6.783   1.997   3.137 -0.5227  0.0147 -0.4351
 6760TIP3   OH241914   5.908   3.976   0.205 -0.0371 -0.4520 -0.2180
 6760TIP3    H141915   5.840   4.042   0.189  0.8221  0.1360 -1.6509
 6760TIP3    H241916   5.896   3.913   0.134  0.0213 -1.1074  0.3496
 6761TIP3   OH241917   1.769   3.431   0.734 -0.0305 -0.2142 -0.2120
 6761TIP3    H141918   1.835   3.367   0.759  0.0068 -0.0672  0.0723
 6761TIP3    H241919   1.775   3.499   0.802 -1.0750 -0.6301  0.3220
 6762TIP3   OH241920   3.420   6.349   6.559 -0.3558  0.3120  0.0726
 6762TIP3    H141921   3.398   6.295   6.484  0.8710  0.8265 -0.6875
 6762TIP3    H241922   3.429   6.437   6.524 -0.8665  0.7604  1.0328
 6763TIP3   OH241923   3.451   4.850   1.550  0.8070  0.0164 -0.1357
 6763TIP3    H141924   3.451   4.859   1.454  0.6830 -0.9987 -0.2503
 6763TIP3    H241925   3.530   4.798   1.569  1.5893  1.3823  0.4568
 6764TIP3   OH241926   3.924   3.611   0.649 -0.0013 -0.2045  0.6032
 6764TIP3    H141927   3.998   3.646   0.600  1.0757 -0.0946  2.2368
 6764TIP3    H241928   3.865   3.576   0.582  0.4484  1.6978 -0.8877
 6765TIP3   OH241929   3.333   6.218   8.134 -0.1227  0.3179  0.0105
 6765TIP3    H141930   3.307   6.224   8.042  1.6201  0.3798 -0.5161
 6765TIP3    H241931   3.346   6.309   8.161  0.2493  0.2593  0.0366
 6766TIP3   OH241932   6.274   6.803   7.548 -0.1723  0.3952 -0.1708
 6766TIP3    H141933   6.228   6.748   7.485 -3.3315 -0.9631  2.9806
 6766TIP3    H241934   6.216   6.878   7.562 -0.1272  0.1044  1.8684
 6767TIP3   OH241935   3.563   4.879   2.443 -0.3497 -0.4199  0.3540
 6767TIP3    H141936   3.484   4.837   2.477 -0.6096  0.3062  0.6626
 6767TIP3    H241937   3.539   4.971   2.430  0.3725 -0.2376  0.2328
 6768TIP3   OH241938   3.678   0.980   8.359 -0.0131 -0.3347  0.6807
 6768TIP3    H141939   3.637   0.977   8.273  1.8487 -1.9067 -0.2302
 6768TIP3    H241940   3.660   1.068   8.392  0.0723  0.6569 -1.7495
 6769TIP3   OH241941   1.181   0.953   0.419 -0.3211  0.3769  0.4592
 6769TIP3    H141942   1.139   0.891   0.360 -1.7653 -0.2478  2.0848
 6769TIP3    H241943   1.120   1.028   0.422 -0.1019  0.5394  0.9131
 6770TIP3   OH241944   0.904   1.770   1.815  0.5836  0.2250  0.2556
 6770TIP3    H141945   0.966   1.722   1.871  0.3942 -1.0676 -0.5922
 6770TIP3    H241946   0.841   1.704   1.787  1.2343  0.5669 -2.2681
 6771TIP3   OH241947   1.749   0.201   2.580 -0.7041 -0.0141 -0.4771
 6771TIP3    H141948   1.807   0.278   2.584  2.0658 -1.9667  0.6585
 6771TIP3    H241949   1.744   0.180   2.487  1.4905 -0.4297 -0.5729
 6772TIP3   OH241950   4.746   6.791   7.626 -0.8728 -0.3370 -0.0686
 6772TIP3    H141951   4.786   6.866   7.582 -0.0926  0.1004  1.3291
 6772TIP3    H241952   4.700   6.828   7.701 -0.1698 -1.2868  0.8599
 6773TIP3   OH241953   0.179   4.137   0.523  0.1880 -1.0198 -0.1239
 6773TIP3    H141954   0.227   4.093   0.453  2.5834 -0.9172  1.3412
 6773TIP3    H241955   0.117   4.071   0.554 -0.2915 -1.3597 -1.7225
 6774TIP3   OH241956   3.141   4.956   7.226  0.0516  0.4794  0.1462
 6774TIP3    H141957   3.202   4.900   7.273 -0.0241 -0.5595 -0.9409
 6774TIP3    H241958   3.116   4.905   7.149  0.3886  2.2229 -1.1731
 6775TIP3   OH241959   6.343   4.658   0.199  0.2216  0.9329  0.1670
 6775TIP3    H141960   6.432   4.692   0.200  0.5756  0.2288 -1.8449
 6775TIP3    H241961   6.353   4.565   0.221 -0.1282  1.0563  0.8458
 6776TIP3   OH241962   5.119   4.732   0.034 -0.3472 -0.3376  0.8205
 6776TIP3    H141963   5.122   4.697  -0.056  0.7452  0.9568  0.3212
 6776TIP3    H241964   5.144   4.824   0.025  0.1459 -0.2729  2.4969
 6777TIP3   OH241965   1.032   6.555   1.682 -0.2326 -0.3918 -0.3867
 6777TIP3    H141966   1.100   6.602   1.634  2.0768 -0.1970  2.7969
 6777TIP3    H241967   1.021   6.604   1.763 -1.8323 -2.2589  0.6108
 6778TIP3   OH241968   1.038   3.265   0.720  1.0599  0.0236 -0.4295
 6778TIP3    H141969   1.055   3.278   0.627  0.9092  0.6877 -0.3709
 6778TIP3    H241970   0.980   3.338   0.744  2.9753  1.2704  0.7157
 6779TIP3   OH241971   6.580   3.343   7.706  0.6506  0.2260  0.1583
 6779TIP3    H141972   6.616   3.393   7.632 -0.5018  3.4888  1.5981
 6779TIP3    H241973   6.648   3.347   7.773  1.6878 -2.7125 -0.5811
 6780TIP3   OH241974   5.417   4.578   1.054 -0.0303  0.1770  0.1428
 6780TIP3    H141975   5.397   4.543   1.141 -1.3672 -0.2547 -0.3225
 6780TIP3    H241976   5.402   4.672   1.062  0.7729  0.2753  0.6190
 6781TIP3   OH241977   3.606   1.703   0.471 -0.1761 -0.5991 -0.0517
 6781TIP3    H141978   3.534   1.754   0.434 -0.0594 -0.4290 -0.0419
 6781TIP3    H241979   3.685   1.746   0.439 -0.0735 -1.4038 -0.9329
 6782TIP3   OH241980   4.161   5.519   1.034  0.2329 -0.1326 -0.0428
 6782TIP3    H141981   4.148   5.561   0.949 -0.1642  0.0871  0.1217
 6782TIP3    H241982   4.251   5.487   1.032 -0.9835 -4.1194 -2.2886
 6783TIP3   OH241983   2.325   2.855   2.110  0.2869 -0.4193 -0.0111
 6783TIP3    H141984   2.352   2.772   2.071  0.7131 -0.0849 -0.4362
 6783TIP3    H241985   2.390   2.872   2.179 -1.4441 -1.9041  2.1572
 6784TIP3   OH241986   4.291   4.587   2.067  0.3117  0.1774 -0.6215
 6784TIP3    H141987   4.365   4.578   2.128  0.1385  1.4667 -0.1958
 6784TIP3    H241988   4.244   4.664   2.098 -0.8320 -0.2343 -1.3048
 6785TIP3   OH241989   6.155   0.513   2.374  0.0780  0.1565  0.1033
 6785TIP3    H141990   6.094   0.488   2.306  1.5773  1.1115 -1.7011
 6785TIP3    H241991   6.110   0.582   2.423 -0.6761  0.1453 -0.5607
 6786TIP3   OH241992   5.989   4.451   2.427 -0.4842  0.2899  0.3901
 6786TIP3    H141993   6.015   4.543   2.415 -1.0521  0.5495  1.0265
 6786TIP3    H241994   6.071   4.403   2.429 -0.2188  0.6360 -1.0407
 6787TIP3   OH241995   2.157   4.009   7.429 -0.1420  0.1758 -0.1140
 6787TIP3    H141996   2.190   3.951   7.360 -1.3519  0.0458 -0.6195
 6787TIP3    H241997   2.181   4.097   7.400  0.1634  0.0568 -0.2303
 6788TIP3   OH241998   6.833   5.731   2.682  0.0103 -0.4766 -0.4677
 6788TIP3    H141999   6.916   5.777   2.669  0.1689 -1.0816 -1.7582
 6788TIP3    H242000   6.831   5.665   2.613 -2.4552  0.8414 -1.8021
 6789TIP3   OH242001   6.725   0.088   1.438  0.0833  0.3588 -0.4554
 6789TIP3    H142002   6.762   0.077   1.526  3.2549  2.2349 -1.3993
 6789TIP3    H242003   6.630   0.094   1.453  0.5222  1.1677  2.9095
 6790TIP3   OH242004   6.554   4.254   8.482 -0.7846 -0.1971 -0.0523
 6790TIP3    H142005   6.576   4.170   8.522 -2.6547 -0.8543 -0.3005
 6790TIP3    H242006   6.542   4.314   8.556  1.1133  0.0495  0.1067
 6791TIP3   OH242007   4.096   4.932   1.427  0.3918  0.0421  0.2735
 6791TIP3    H142008   4.129   4.906   1.513  0.1668  2.4850  1.1787
 6791TIP3    H242009   4.090   5.027   1.431 -3.0141  0.0408 -1.2103
 6792TIP3   OH242010   0.437   1.958   0.217  0.1967 -0.5220  0.2258
 6792TIP3    H142011   0.508   1.953   0.153 -0.3543 -0.2971 -0.4120
 6792TIP3    H242012   0.357   1.966   0.164 -0.3562 -1.3042  0.9122
 6793TIP3   OH242013   5.494   5.400   0.475 -0.2645 -0.1970  0.5267
 6793TIP3    H142014   5.417   5.389   0.418  0.2960  1.3546 -0.6195
 6793TIP3    H242015   5.500   5.318   0.523 -2.1194 -0.7020  0.0043
 6794TIP3   OH242016   5.130   5.604   2.274 -0.0074 -0.1022 -0.2738
 6794TIP3    H142017   5.047   5.625   2.230 -2.0349 -4.4447  0.8979
 6794TIP3    H242018   5.149   5.514   2.246  2.3015 -0.5655  2.4169
 6795TIP3   OH242019   4.557   1.938   8.688  0.3030 -0.6689 -0.2281
 6795TIP3    H142020   4.572   2.013   8.746  1.5820 -0.0783 -1.2812
 6795TIP3    H242021   4.536   1.977   8.604  0.1101 -1.5100 -0.5743
 6796TIP3   OH242022   6.165   4.792   1.878 -0.1332 -0.1238  0.2096
 6796TIP3    H142023   6.182   4.713   1.827  0.3612  0.2871 -0.2675
 6796TIP3    H242024   6.151   4.861   1.813  3.1694  1.0229  0.5278
 6797TIP3   OH242025   2.304   5.346   7.657  0.2451 -0.2953 -0.1435
 6797TIP3    H142026   2.323   5.306   7.572  0.3594 -3.7676  1.3614
 6797TIP3    H242027   2.378   5.405   7.672  1.2755 -1.1383 -1.5727
 6798TIP3   OH242028   4.739   3.144   1.665 -0.2717  0.1489 -0.4599
 6798TIP3    H142029   4.733   3.065   1.611 -2.5342  0.7000 -1.1196
 6798TIP3    H242030   4.705   3.117   1.750  0.5139  0.0269 -0.1734
 6799TIP3   OH242031   0.079   3.948   6.811 -0.2417 -0.0443  0.8774
 6799TIP3    H142032   0.034   4.021   6.856 -0.5644 -0.1880  0.7918
 6799TIP3    H242033   0.032   3.939   6.728 -0.9332 -1.0798  1.3554
 6800TIP3   OH242034   5.313   6.068   1.794 -0.3691 -0.0009 -0.2784
 6800TIP3    H142035   5.221   6.073   1.771 -0.1431  0.6029 -1.1168
 6800TIP3    H242036   5.341   5.981   1.765 -0.9856 -0.7460  1.2679
 6801TIP3   OH242037   0.217   5.459   1.729  0.8523 -0.3175  0.2513
 6801TIP3    H142038   0.232   5.367   1.753  2.2872 -0.1867 -0.0541
 6801TIP3    H242039   0.197   5.455   1.635 -0.3616 -0.4140  0.4940
 6802TIP3   OH242040   4.216   1.095   1.944  0.1623 -0.0482  0.5300
 6802TIP3    H142041   4.246   1.138   2.024  0.4453 -0.8611  0.8642
 6802TIP3    H242042   4.269   1.135   1.874  0.4690  0.0959  0.8432
 6803TIP3   OH242043   4.762   4.236   8.084 -0.0552  0.2047  0.1280
 6803TIP3    H142044   4.696   4.187   8.035  0.5621 -0.6805  0.1565
 6803TIP3    H242045   4.712   4.300   8.135 -0.7750  0.5179 -0.9473
 6804TIP3   OH242046   0.658   3.620   8.046 -0.0581 -0.0749  0.5985
 6804TIP3    H142047   0.752   3.631   8.031  0.0088 -1.0525  0.2601
 6804TIP3    H242048   0.651   3.538   8.094 -0.8206 -0.5959 -0.3759
 6805TIP3   OH242049   0.354   1.324   8.317 -0.2384  0.2464  0.2889
 6805TIP3    H142050   0.398   1.296   8.397  1.3537  0.3877 -0.4928
 6805TIP3    H242051   0.360   1.249   8.258 -0.1977  0.5998 -0.1613
 6806TIP3   OH242052   5.546   1.845   1.664 -0.4651  0.2983 -0.1412
 6806TIP3    H142053   5.547   1.873   1.756  0.1899  0.8928 -0.3154
 6806TIP3    H242054   5.463   1.800   1.653 -1.5745  2.1653  0.1776
 6807TIP3   OH242055   3.641   0.394   1.420  0.5869  0.2523  0.1768
 6807TIP3    H142056   3.676   0.305   1.413  0.1176  0.0321  0.5231
 6807TIP3    H242057   3.558   0.391   1.371  0.3937  0.4004  0.4910
 6808TIP3   OH242058   3.298   1.787   2.042 -0.4069  0.2599  0.2671
 6808TIP3    H142059   3.281   1.749   1.956 -1.0235  0.5398  0.2576
 6808TIP3    H242060   3.390   1.767   2.060  0.0508  1.1361 -0.9421
 6809TIP3   OH242061   2.937   1.059   2.174  0.4409 -0.4945 -0.1548
 6809TIP3    H142062   2.954   1.134   2.231 -0.0147 -0.8935  0.5257
 6809TIP3    H242063   2.856   1.021   2.208 -0.4588 -0.0849 -1.7814
 6810TIP3   OH242064   1.133   3.950   1.936 -0.4000  0.2145  0.5231
 6810TIP3    H142065   1.078   3.989   2.004 -1.0514  0.0317  0.1179
 6810TIP3    H242066   1.084   3.965   1.855  0.3098  0.3294  0.1077
 6811TIP3   OH242067   1.463   2.109   1.970 -0.2845  0.0026 -0.1658
 6811TIP3    H142068   1.547   2.067   1.951  1.6338  3.0931  0.6404
 6811TIP3    H242069   1.439   2.076   2.057 -0.0266 -1.0525 -0.4797
 6812TIP3   OH242070   0.405   0.120   7.440  0.2617  0.7661 -0.1693
 6812TIP3    H142071   0.465   0.058   7.398 -0.3308  1.6064 -2.3691
 6812TIP3    H242072   0.461   0.193   7.467  0.5022  0.6887 -0.4537
 6813TIP3   OH242073   5.920   3.192   7.772  0.3216 -0.2576 -0.2618
 6813TIP3    H142074   5.824   3.198   7.773  0.1665 -2.1576 -0.5041
 6813TIP3    H242075   5.945   3.207   7.864 -0.6092 -4.0460  0.7673
 6814TIP3   OH242076   1.209   5.573   2.060  0.0476  0.8895  0.0982
 6814TIP3    H142077   1.205   5.538   2.149  1.4228 -1.1893 -0.5736
 6814TIP3    H242078   1.302   5.595   2.047  0.5874 -1.8833 -1.7853
 6815TIP3   OH242079   1.097   5.114   8.048  0.1857 -0.1883  0.3795
 6815TIP3    H142080   1.159   5.123   8.120 -0.9493  1.0081  1.2603
 6815TIP3    H242081   1.015   5.150   8.082 -0.3561  0.5357 -1.5335
 6816TIP3   OH242082   2.543   2.339   0.141  0.0261  0.1793  0.4210
 6816TIP3    H142083   2.600   2.344   0.064 -0.4995 -0.5012 -0.0200
 6816TIP3    H242084   2.532   2.430   0.168  0.9468  0.3589  0.2370
 6817TIP3   OH242085   2.207   2.069   8.575  0.7319 -0.6179  0.1602
 6817TIP3    H142086   2.250   2.155   8.573 -1.0017  0.3063 -1.4881
 6817TIP3    H242087   2.187   2.051   8.483 -0.3137 -2.0773  0.6439
 6818TIP3   OH242088   3.628   0.743   1.666  0.2659 -0.0370  0.4892
 6818TIP3    H142089   3.631   0.751   1.571  1.3040  0.0762  0.5132
 6818TIP3    H242090   3.693   0.806   1.697  2.3381 -2.3285  1.1003
 6819TIP3   OH242091   0.532   0.176   0.090 -0.3324 -0.2063  0.3895
 6819TIP3    H142092   0.527   0.267   0.120 -0.2153 -0.2133  0.4320
 6819TIP3    H242093   0.540   0.183  -0.005  2.6584 -0.0411  0.5481
 6820TIP3   OH242094   6.432   0.056   0.529 -0.3766 -0.9160  0.1099
 6820TIP3    H142095   6.387   0.135   0.499  0.2476 -0.4435  0.3946
 6820TIP3    H242096   6.381  -0.016   0.491 -0.6180 -0.3717 -0.6286
 6821TIP3   OH242097   3.962   4.765   2.434 -0.1784  0.2782 -0.0473
 6821TIP3    H142098   4.005   4.850   2.426 -0.3402  0.4364  0.6639
 6821TIP3    H242099   4.024   4.703   2.395  0.8282  0.4683  1.1741
 6822TIP3   OH242100   5.457   5.490   1.621 -0.8677  0.3614  0.5408
 6822TIP3    H142101   5.422   5.418   1.569 -3.1283  3.3386 -2.5537
 6822TIP3    H242102   5.390   5.507   1.687 -0.7523  0.1267  0.7148
 6823TIP3   OH242103   1.698   1.128   1.093 -0.0013 -0.0387 -0.0080
 6823TIP3    H142104   1.762   1.105   1.161 -0.6451 -0.5743  0.4255
 6823TIP3    H242105   1.743   1.195   1.041  0.8239 -0.2276  0.4297
 6824TIP3   OH242106   0.210   4.943   1.621 -0.6131  0.0501 -0.1662
 6824TIP3    H142107   0.204   5.015   1.683 -0.5034  0.1913 -0.3206
 6824TIP3    H242108   0.235   4.867   1.674  0.8969  0.4605 -0.2409
 6825TIP3   OH242109   1.794   6.206   1.544 -0.5776  0.9272  0.1221
 6825TIP3    H142110   1.883   6.223   1.513 -0.4818  0.5395  0.1780
 6825TIP3    H242111   1.793   6.241   1.633  0.1054 -0.7673  0.8274
 6826TIP3   OH242112   5.823   6.046   2.703 -0.2757  0.6114 -0.8262
 6826TIP3    H142113   5.847   6.048   2.795 -1.4209  1.0732 -0.5279
 6826TIP3    H242114   5.873   6.117   2.663 -1.3679  1.7824 -0.1512
 6827TIP3   OH242115   2.965   1.939   2.762 -0.8149 -0.5486 -0.0066
 6827TIP3    H142116   2.924   2.017   2.799  0.8026 -0.6804  2.3211
 6827TIP3    H242117   2.969   1.878   2.836  1.2965 -1.4163 -0.7601
 6828TIP3   OH242118   3.094   5.730   1.307  0.0261  0.3373  0.0182
 6828TIP3    H142119   3.146   5.649   1.307 -2.3465 -1.3810  2.3325
 6828TIP3    H242120   3.148   5.794   1.352  0.5981 -1.0994  1.4760
 6829TIP3   OH242121   4.319   4.058   7.956  0.1659  0.3241 -0.6098
 6829TIP3    H142122   4.390   4.040   8.018  0.2654  1.3672 -0.3910
 6829TIP3    H242123   4.263   3.981   7.960  0.6331  0.0115  0.1438
 6830TIP3   OH242124   1.621   1.521   1.331 -0.1915 -0.1403 -0.3396
 6830TIP3    H142125   1.703   1.510   1.379 -0.8958  1.9122  1.5286
 6830TIP3    H242126   1.553   1.517   1.399 -1.5301 -0.3752 -1.6376
 6831TIP3   OH242127   4.725   6.261   7.438  0.1328 -0.7584  0.2691
 6831TIP3    H142128   4.768   6.336   7.479  0.1481  0.3938 -1.7201
 6831TIP3    H242129   4.643   6.250   7.487 -0.1209  0.9211  0.2858
 6832TIP3   OH242130   5.128   0.208   1.340 -0.3752  0.8549  0.7130
 6832TIP3    H142131   5.044   0.215   1.385 -0.2420  2.2555  0.7843
 6832TIP3    H242132   5.127   0.278   1.276  0.7748  0.9389  0.7613
 6833TIP3   OH242133   5.849   3.286   2.001  0.3457 -0.0551  0.2826
 6833TIP3    H142134   5.887   3.211   1.956  1.0128  0.9602 -0.9017
 6833TIP3    H242135   5.838   3.256   2.092  1.4873 -1.2508  0.0632
 6834TIP3   OH242136   2.468   0.260   7.783  0.6586 -0.3745 -0.2175
 6834TIP3    H142137   2.436   0.243   7.872  1.5483 -0.0467  0.1755
 6834TIP3    H242138   2.411   0.208   7.726  0.2636 -0.8114  0.5689
 6835TIP3   OH242139   4.732   4.438   6.782  0.4798  0.1849 -0.2004
 6835TIP3    H142140   4.746   4.353   6.741 -2.7467 -0.7587  0.3328
 6835TIP3    H242141   4.757   4.425   6.874 -1.3752 -0.7292  0.2213
 6836TIP3   OH242142   2.298   4.147   0.111  0.3926  0.0389 -0.3883
 6836TIP3    H142143   2.233   4.214   0.131  1.5229  0.7516  1.1626
 6836TIP3    H242144   2.292   4.135   0.017 -1.2212  0.8688 -0.4216
 6837TIP3   OH242145   2.975   4.431   1.856 -0.1275  0.6877 -0.1149
 6837TIP3    H142146   2.986   4.337   1.873  1.3781  0.8266 -0.1480
 6837TIP3    H242147   2.997   4.473   1.939 -1.4683  1.0020  0.1003
 6838TIP3   OH242148   2.717   5.852   0.641  0.3466 -0.0035 -0.5741
 6838TIP3    H142149   2.636   5.840   0.591 -1.2983 -0.9700  2.0906
 6838TIP3    H242150   2.758   5.765   0.641  1.5212  0.5004 -1.9847
 6839TIP3   OH242151   6.685   3.605   1.055  0.3949  0.2518 -0.4501
 6839TIP3    H142152   6.682   3.666   1.129  0.8890 -0.6514  0.3419
 6839TIP3    H242153   6.778   3.602   1.032  0.1448  1.1691 -1.6833
 6840TIP3   OH242154   5.507   1.701   0.372 -0.1186  0.1135  0.8476
 6840TIP3    H142155   5.517   1.707   0.277  1.3906  0.9807  1.0361
 6840TIP3    H242156   5.449   1.773   0.395 -2.6158 -1.5982  0.3622
 6841TIP3   OH242157   3.347   1.489   6.937  0.2191  0.3976 -0.0954
 6841TIP3    H142158   3.418   1.505   6.874  1.2034 -0.3364  0.7796
 6841TIP3    H242159   3.350   1.565   6.996 -0.4346  0.8839 -0.6696
 6842TIP3   OH242160   6.432   2.126   1.638  0.1466  0.2906 -0.0826
 6842TIP3    H142161   6.449   2.091   1.726 -0.5636  0.5262  0.1624
 6842TIP3    H242162   6.394   2.212   1.654 -0.7514  0.0019 -0.5860
 6843TIP3   OH242163   5.798   5.269   8.302 -0.1223 -0.2089  0.0242
 6843TIP3    H142164   5.772   5.283   8.211  2.9351 -0.7804 -1.0425
 6843TIP3    H242165   5.743   5.196   8.331  0.5403 -1.7404 -2.2612
 6844TIP3   OH242166   0.553   6.794   1.985 -0.5460 -0.5931 -0.1744
 6844TIP3    H142167   0.587   6.732   1.920 -0.1176  0.3325 -0.8485
 6844TIP3    H242168   0.552   6.878   1.940  1.5315  0.4483  1.5754
 6845TIP3   OH242169   3.345   3.895   0.174 -0.4638  0.3331  0.1174
 6845TIP3    H142170   3.391   3.819   0.140  0.5106 -0.3231  2.6435
 6845TIP3    H242171   3.371   3.967   0.117  0.4024 -0.8010 -0.9741
 6846TIP3   OH242172   6.653   0.021   7.328  1.0146  0.0385  0.8815
 6846TIP3    H142173   6.669   0.007   7.235 -0.2360  1.3908  0.4254
 6846TIP3    H242174   6.675   0.113   7.342  2.9760 -0.5924  2.3594
 6847TIP3   OH242175   0.636   0.075   8.036  0.2441 -0.5856 -0.2524
 6847TIP3    H142176   0.608   0.142   8.099 -1.0259 -0.0056 -1.3589
 6847TIP3    H242177   0.558   0.021   8.022 -0.0742  0.3456 -2.5650
 6848TIP3   OH242178   1.761   1.704   0.236 -0.5035 -0.3868  0.3342
 6848TIP3    H142179   1.743   1.797   0.226 -0.8530 -0.4874 -0.0099
 6848TIP3    H242180   1.762   1.670   0.146 -0.3510 -0.7100  0.4551
 6849TIP3   OH242181   4.856   4.933   2.446  0.4491  0.4941 -0.2078
 6849TIP3    H142182   4.898   4.990   2.510 -2.1395  1.4819  0.7529
 6849TIP3    H242183   4.915   4.857   2.439  1.9085  1.3682  1.6578
 6850TIP3   OH242184   2.732   5.714   8.707 -0.5415  0.5370 -0.6301
 6850TIP3    H142185   2.808   5.766   8.679 -1.0749  1.8118  0.1978
 6850TIP3    H242186   2.741   5.632   8.659  0.0765  1.5647 -2.3808
 6851TIP3   OH242187   3.810   5.389   1.082 -0.5369  0.3807 -0.1909
 6851TIP3    H142188   3.829   5.305   1.124  1.2364 -1.0816 -3.5257
 6851TIP3    H242189   3.895   5.419   1.050 -1.5920  1.9038 -1.7085
 6852TIP3   OH242190   1.698   0.509   0.814 -0.3182  0.2920 -0.4241
 6852TIP3    H142191   1.729   0.522   0.904  0.2277 -0.6198 -0.4701
 6852TIP3    H242192   1.635   0.580   0.801 -2.1151 -0.8453  1.4560
 6853TIP3   OH242193   0.072   5.692   8.276  0.3261 -0.2498 -0.1280
 6853TIP3    H142194  -0.018   5.684   8.308  0.0803 -1.5819 -1.0402
 6853TIP3    H242195   0.063   5.704   8.181  1.0876 -2.5607 -0.5656
 6854TIP3   OH242196   3.345   1.692   8.180 -0.5847  0.4819  0.0941
 6854TIP3    H142197   3.370   1.662   8.092  0.5699  0.4908  0.4124
 6854TIP3    H242198   3.294   1.772   8.164 -2.0238 -0.5356 -0.6574
 6855TIP3   OH242199   2.903   2.225   7.579 -0.9257  0.5188 -0.1630
 6855TIP3    H142200   2.844   2.150   7.575 -0.7519  0.3911 -0.3367
 6855TIP3    H242201   2.976   2.201   7.522 -0.7789  0.7396 -0.0683
 6856TIP3   OH242202   3.887   5.889   1.354  0.1494 -0.3875 -0.7060
 6856TIP3    H142203   3.821   5.856   1.293  1.4462 -1.2578 -1.6807
 6856TIP3    H242204   3.949   5.817   1.363  0.3823 -0.0105  1.1025
 6857TIP3   OH242205   0.620   0.074   0.982 -0.4238 -0.4142  0.2242
 6857TIP3    H142206   0.653  -0.015   0.975  1.5928  0.2592  0.4622
 6857TIP3    H242207   0.610   0.103   0.891  0.0077 -0.5156  0.1421
 6858TIP3   OH242208   1.343   4.796   0.839  0.4101 -0.2796  0.3296
 6858TIP3    H142209   1.434   4.809   0.865  0.6890 -1.5881  0.0957
 6858TIP3    H242210   1.305   4.884   0.838  0.6587 -0.0032  3.9586
 6859TIP3   OH242211   2.736   2.816   1.053 -0.3904 -0.4765  0.0969
 6859TIP3    H142212   2.740   2.818   0.957  0.6904  0.0894  0.1384
 6859TIP3    H242213   2.715   2.725   1.074 -1.1898 -0.4868 -0.6909
 6860TIP3   OH242214   5.983   5.603   2.394 -0.1689 -0.1455  0.3903
 6860TIP3    H142215   6.062   5.628   2.347  0.0893 -0.1553  0.8078
 6860TIP3    H242216   6.016   5.566   2.477 -0.6024 -0.3124  0.4887
 6861TIP3   OH242217   3.101   2.817   8.053 -0.4095  0.7888 -0.1926
 6861TIP3    H142218   3.043   2.800   7.979 -0.5219  1.7629 -0.3422
 6861TIP3    H242219   3.087   2.744   8.113  0.8697 -0.9161 -1.8412
 6862TIP3   OH242220   2.282   3.721   1.934  0.1838  0.3009  0.5626
 6862TIP3    H142221   2.251   3.773   1.860 -0.9811  2.0111  2.1598
 6862TIP3    H242222   2.378   3.719   1.924  0.3517  3.1985  0.6148
 6863TIP3   OH242223   2.842   2.386   0.123  0.0704 -0.0709 -0.3573
 6863TIP3    H142224   2.801   2.382   0.210  0.5543  0.8446 -0.0752
 6863TIP3    H242225   2.936   2.375   0.140  0.7436  4.1360 -0.2180
 6864TIP3   OH242226   5.347   1.541   1.139 -0.2240  0.2897  0.2674
 6864TIP3    H142227   5.412   1.490   1.186 -0.9709 -0.4003  0.5766
 6864TIP3    H242228   5.304   1.477   1.081 -0.4187  0.7960 -0.1530
 6865TIP3   OH242229   0.991   3.326   7.653  0.5876  0.8639  0.1405
 6865TIP3    H142230   0.949   3.399   7.698  1.3690  0.4170  1.6570
 6865TIP3    H242231   0.929   3.301   7.584  0.5690  3.3050 -0.8239
 6866TIP3   OH242232   2.857   3.560   7.809 -0.2741 -0.3571 -0.3570
 6866TIP3    H142233   2.821   3.621   7.873 -3.5450 -0.7560 -1.5994
 6866TIP3    H242234   2.878   3.614   7.733  0.7576 -0.2701 -0.0169
 6867TIP3   OH242235   0.779   1.365   8.631 -0.1045 -0.1453 -0.1336
 6867TIP3    H142236   0.757   1.354   8.724  0.3026  1.7180  0.2229
 6867TIP3    H242237   0.874   1.380   8.631  0.0645 -1.1072 -0.9658
 6868TIP3   OH242238   5.394   3.273   2.633 -0.1208  0.1717 -0.0755
 6868TIP3    H142239   5.381   3.364   2.609  0.8151  0.0531 -1.0972
 6868TIP3    H242240   5.454   3.275   2.707  0.3184  0.3636 -0.4359
 6869TIP3   OH242241   3.025   0.546   6.926 -0.5604 -0.1260  0.8250
 6869TIP3    H142242   3.037   0.480   6.994 -0.5062 -0.8082  0.1578
 6869TIP3    H242243   3.114   0.565   6.895 -0.6847 -0.8632 -0.0301
 6870TIP3   OH242244   2.184   5.793   2.328  0.2590  0.8379 -0.3841
 6870TIP3    H142245   2.260   5.744   2.295  0.2922  1.2845 -0.9998
 6870TIP3    H242246   2.168   5.757   2.415  1.7069  1.3329  0.1118
 6871TIP3   OH242247   1.967   3.040   8.064  0.3613  0.3341 -0.3941
 6871TIP3    H142248   2.010   3.053   7.980  0.0171 -0.2762 -0.6717
 6871TIP3    H242249   1.884   3.088   8.056 -0.2539 -0.7568 -0.8893
 6872TIP3   OH242250   4.834   0.854   0.738 -0.5517 -0.4465 -0.2057
 6872TIP3    H142251   4.838   0.937   0.787 -1.7475  0.1526 -1.0833
 6872TIP3    H242252   4.763   0.805   0.780 -1.1476 -0.2002 -0.9112
 6873TIP3   OH242253   1.750   4.731   2.370 -0.1359 -0.5896 -0.3856
 6873TIP3    H142254   1.792   4.670   2.430  1.4101  0.6479 -0.1346
 6873TIP3    H242255   1.786   4.817   2.395 -1.7324  0.3360 -1.1436
 6874TIP3   OH242256   6.795   6.404   6.919  0.2033  0.3436  0.1446
 6874TIP3    H142257   6.853   6.468   6.960 -1.9614  1.4167  1.7306
 6874TIP3    H242258   6.817   6.321   6.961  1.7990  0.3316 -0.6302
 6875TIP3   OH242259   1.607   6.363   1.415 -0.8948 -0.8339 -0.1347
 6875TIP3    H142260   1.524   6.323   1.441 -0.4876 -1.3313  0.4313
 6875TIP3    H242261   1.673   6.318   1.467 -0.2372 -0.6062 -0.7503
 6876TIP3   OH242262   2.734   5.903   1.475 -0.1615 -0.3175 -0.1053
 6876TIP3    H142263   2.667   5.855   1.524  1.3475  0.0776  2.5202
 6876TIP3    H242264   2.771   5.838   1.415 -3.6844 -0.2141 -2.7306
 6877TIP3   OH242265   2.729   2.331   8.081 -0.1848  0.4713  0.2075
 6877TIP3    H142266   2.707   2.263   8.018  0.1951  0.9156 -0.4125
 6877TIP3    H242267   2.784   2.287   8.146  0.9797  0.4190 -0.7876
 6878TIP3   OH242268   2.128   0.420   7.943  0.3416 -0.1764  0.8686
 6878TIP3    H142269   2.120   0.425   8.038 -1.9990  0.9746  0.6862
 6878TIP3    H242270   2.191   0.489   7.921  1.2202 -0.7253  1.5818
 6879TIP3   OH242271   0.067   4.342   7.420 -0.1904  0.0389  0.0074
 6879TIP3    H142272   0.062   4.334   7.325 -1.1089 -1.5191  0.1497
 6879TIP3    H242273  -0.001   4.406   7.442 -1.6706 -1.3844 -0.2336
 6880TIP3   OH242274   6.242   5.988   1.722  0.2008 -0.1438 -0.0570
 6880TIP3    H142275   6.167   6.044   1.740  0.0129 -0.4389  0.0914
 6880TIP3    H242276   6.211   5.927   1.655  0.2867 -0.3073  0.0511
 6881TIP3   OH242277   4.519   4.635   7.304  0.1884 -0.7830 -0.4343
 6881TIP3    H142278   4.476   4.614   7.387  0.0409  0.6255 -0.1356
 6881TIP3    H242279   4.609   4.604   7.315  0.4368  0.2594  0.6366
 6882TIP3   OH242280   2.640   3.123   7.553 -0.0506  0.1644  0.0552
 6882TIP3    H142281   2.650   3.191   7.620  0.0524  0.7123 -0.5092
 6882TIP3    H242282   2.598   3.051   7.599 -3.4958  1.8534 -0.0727
 6883TIP3   OH242283   2.597   6.456   7.459  0.1418 -0.0632 -1.0206
 6883TIP3    H142284   2.570   6.365   7.447  0.3122 -0.1069 -1.0766
 6883TIP3    H242285   2.593   6.471   7.553  0.6715 -0.3025 -0.9561
 6884TIP3   OH242286   0.925   0.363   8.727  0.0465  0.0458 -0.3820
 6884TIP3    H142287   0.875   0.435   8.766  1.2146  0.9871 -0.5747
 6884TIP3    H242288   0.919   0.292   8.791 -4.6927 -1.3629 -1.9485
 6885TIP3   OH242289   0.460   5.671   0.494 -0.4291 -0.1705  0.1990
 6885TIP3    H142290   0.422   5.675   0.582 -0.3530  2.8231  0.1984
 6885TIP3    H242291   0.402   5.725   0.440 -0.5487 -2.0542 -1.6888
 6886TIP3   OH242292   5.692   5.457   7.201 -0.3157 -0.5375 -0.0261
 6886TIP3    H142293   5.662   5.488   7.116  0.0285  1.3370  0.4880
 6886TIP3    H242294   5.749   5.383   7.181 -1.6856 -1.3180 -1.2761
 6887TIP3   OH242295   2.961   3.336   0.836 -0.0585 -0.3795  0.7892
 6887TIP3    H142296   3.041   3.289   0.815 -0.0660 -0.3108  0.6008
 6887TIP3    H242297   2.991   3.417   0.878  0.0351  0.2372 -0.4162
 6888TIP3   OH242298   5.783   5.142   2.234 -0.0163  0.5421 -0.6096
 6888TIP3    H142299   5.726   5.068   2.216  0.5002  0.1371 -0.5917
 6888TIP3    H242300   5.871   5.110   2.216  0.4066  0.5355  1.2691
 6889TIP3   OH242301   2.784   2.508   8.348  0.1477 -0.0644 -0.1545
 6889TIP3    H142302   2.840   2.530   8.423  1.7409 -0.1557 -1.2797
 6889TIP3    H242303   2.709   2.567   8.357 -0.1332 -0.6505  1.9624
 6890TIP3   OH242304   0.706   2.541   2.553 -0.2679  0.0709  0.0932
 6890TIP3    H142305   0.741   2.625   2.522 -1.2138  0.4029 -0.1269
 6890TIP3    H242306   0.780   2.481   2.552  0.4844  0.9692  0.4831
 6891TIP3   OH242307   2.321   4.856   0.752  0.0483 -0.6541 -0.4401
 6891TIP3    H142308   2.356   4.944   0.757 -0.6638 -0.4200  3.2405
 6891TIP3    H242309   2.227   4.867   0.767  0.1718 -2.0642  1.8312
 6892TIP3   OH242310   1.645   5.760   2.305 -0.0150 -0.3227 -0.2947
 6892TIP3    H142311   1.730   5.742   2.346  0.7982  1.3710 -1.1189
 6892TIP3    H242312   1.585   5.697   2.344  1.7000 -1.8393  0.0257
 6893TIP3   OH242313   6.250   1.217   2.117 -0.4545 -0.3912  0.0680
 6893TIP3    H142314   6.239   1.121   2.116  0.7064 -0.5668  1.4257
 6893TIP3    H242315   6.268   1.239   2.025 -1.6366 -1.3414 -0.4267
 6894TIP3   OH242316   0.578   1.720   2.175 -0.1080 -0.4466  0.1345
 6894TIP3    H142317   0.636   1.645   2.190 -0.2282 -0.5757 -0.0446
 6894TIP3    H242318   0.637   1.792   2.155  0.0260 -0.4170  0.6057
 6895TIP3   OH242319   6.086   0.740   2.514  0.2535 -0.6069  0.2038
 6895TIP3    H142320   6.168   0.776   2.549 -0.7382  2.4311 -0.3131
 6895TIP3    H242321   6.032   0.724   2.591  1.0326 -1.9319  0.4999
 6896TIP3   OH242322   1.056   3.820   8.309 -0.3442 -1.1126 -0.6144
 6896TIP3    H142323   1.148   3.801   8.288 -0.6947 -2.5233 -0.9547
 6896TIP3    H242324   1.061   3.886   8.378  1.0893 -3.8567  2.1689
 6897TIP3   OH242325   4.040   0.105   7.205  0.2056  0.2525  0.4299
 6897TIP3    H142326   3.955   0.142   7.228 -0.0188 -1.0206  1.7988
 6897TIP3    H242327   4.062   0.146   7.121 -0.7098  2.2693  1.1325
 6898TIP3   OH242328   2.804   3.905   1.168  0.0103 -0.1833  0.5124
 6898TIP3    H142329   2.890   3.942   1.148  0.9760 -1.3007  2.3199
 6898TIP3    H242330   2.761   3.897   1.083  2.3198 -1.1285 -0.6559
 6899TIP3   OH242331   1.853   5.277   0.704 -0.5578  0.3256 -0.3902
 6899TIP3    H142332   1.818   5.217   0.638  0.3717  0.9596 -1.4861
 6899TIP3    H242333   1.798   5.355   0.697 -1.1958 -0.0370  0.4130
 6900TIP3   OH242334   0.733   5.351   1.858  0.3346 -0.2123 -0.2899
 6900TIP3    H142335   0.816   5.387   1.827 -1.8340  3.1307 -2.8105
 6900TIP3    H242336   0.704   5.293   1.787 -0.9889  1.2777 -1.0018
 6901TIP3   OH242337   2.540   3.639   0.661 -0.3435  0.3896  0.2082
 6901TIP3    H142338   2.600   3.694   0.612  0.4760 -1.0009 -0.4022
 6901TIP3    H242339   2.453   3.662   0.627  0.1580 -0.2042 -1.6134
 6902TIP3   OH242340   0.837   3.290   1.645 -0.0726 -0.6699  0.0416
 6902TIP3    H142341   0.820   3.273   1.553 -0.6251 -0.6331  0.1294
 6902TIP3    H242342   0.810   3.209   1.689  1.1106 -1.0529  0.0829
 6903TIP3   OH242343   5.969   6.271   0.216 -0.3118 -0.0147  0.5900
 6903TIP3    H142344   6.006   6.359   0.214 -1.1931  0.5842  4.0110
 6903TIP3    H242345   5.984   6.240   0.305 -0.3847 -3.2265 -0.3748
 6904TIP3   OH242346   4.449   0.894   0.465  0.2070 -0.8389  0.2515
 6904TIP3    H142347   4.485   0.983   0.466 -0.0015 -0.7548  0.3341
 6904TIP3    H242348   4.435   0.872   0.557  1.8568 -1.6212  0.3569
 6905TIP3   OH242349   1.431   3.768   8.622  0.5552  0.2384 -0.4247
 6905TIP3    H142350   1.398   3.703   8.561  0.4415 -1.4511  1.3197
 6905TIP3    H242351   1.481   3.716   8.686 -1.1967  1.5697  2.1724
 6906TIP3   OH242352   0.074   0.496   1.123  0.2590 -0.2495  0.6306
 6906TIP3    H142353   0.095   0.590   1.119  1.1036 -0.4090  1.0441
 6906TIP3    H242354   0.087   0.465   1.033 -0.0517  0.0381  0.4858
 6907TIP3   OH242355   1.482   2.765   1.111  0.3952  0.1204 -0.6562
 6907TIP3    H142356   1.420   2.823   1.155 -0.1372  1.1870 -2.6891
 6907TIP3    H242357   1.562   2.774   1.162 -0.0122  1.7717 -0.2149
 6908TIP3   OH242358   2.955   2.198   8.139 -0.0999 -0.5018 -0.1405
 6908TIP3    H142359   2.984   2.117   8.097 -0.2006 -0.5191 -0.1778
 6908TIP3    H242360   3.019   2.264   8.112  1.3434 -1.0289  1.7506
 6909TIP3   OH242361   6.092   4.122   0.778 -0.3981 -0.1295  0.3109
 6909TIP3    H142362   6.118   4.197   0.831 -0.8667 -1.5330  2.6853
 6909TIP3    H242363   6.002   4.142   0.751 -0.9572 -0.2939  1.9381
 6910TIP3   OH242364   4.792   1.746   1.205  0.0955 -0.5029  0.4326
 6910TIP3    H142365   4.718   1.778   1.154 -0.9341 -0.9245  1.6172
 6910TIP3    H242366   4.820   1.666   1.159  0.4631  0.1788 -0.5662
 6911TIP3   OH242367   3.881   3.213   8.219 -0.5802  0.2355 -0.1846
 6911TIP3    H142368   3.926   3.143   8.267  1.1869  1.8713  0.7219
 6911TIP3    H242369   3.841   3.169   8.144  0.4712 -1.7343  0.3179
 6912TIP3   OH242370   2.523   3.858   8.062  0.3177 -0.4227  0.0625
 6912TIP3    H142371   2.439   3.883   8.103  0.8222  0.1093  0.8137
 6912TIP3    H242372   2.517   3.893   7.973 -0.2170 -0.3006  0.1384
 6913TIP3   OH242373   0.366   4.497   1.627  0.6278 -0.2321 -0.1411
 6913TIP3    H142374   0.314   4.542   1.694  2.2008  1.8273 -0.1801
 6913TIP3    H242375   0.436   4.454   1.676  0.2581 -0.9919 -0.2708
 6914TIP3   OH242376   0.540   5.482   1.454 -0.0550 -0.1004  0.5175
 6914TIP3    H142377   0.537   5.471   1.359  0.2883 -0.4046  0.5385
 6914TIP3    H242378   0.488   5.408   1.488  2.3627 -1.8471  0.6650
 6915TIP3   OH242379   0.288   6.736   0.558  0.6665 -0.2462 -0.5169
 6915TIP3    H142380   0.322   6.655   0.520  1.1372 -0.0839 -0.4503
 6915TIP3    H242381   0.235   6.775   0.488  0.0642 -0.8270 -0.4019
 6916TIP3   OH242382   2.231   4.228   6.790  0.0082  0.2710  0.1844
 6916TIP3    H142383   2.240   4.283   6.868  1.0650 -0.6575  0.7476
 6916TIP3    H242384   2.157   4.171   6.809 -0.9891  1.3357 -0.3343
 6917TIP3   OH242385   0.729   1.439   0.779 -0.1984  0.5702 -0.4212
 6917TIP3    H142386   0.665   1.386   0.731  0.5254 -1.7322  0.9726
 6917TIP3    H242387   0.723   1.526   0.740 -3.0277  0.0443 -1.3780
 6918TIP3   OH242388   4.509   6.523   7.085 -0.5049  0.9140  0.1312
 6918TIP3    H142389   4.575   6.476   7.134  0.6082  0.6342 -1.5571
 6918TIP3    H242390   4.457   6.455   7.042  0.5975  1.1411 -1.6618
 6919TIP3   OH242391   1.783   4.559   2.171 -0.1222 -0.0937 -0.5562
 6919TIP3    H142392   1.719   4.619   2.210  1.0041  1.7235 -1.3346
 6919TIP3    H242393   1.843   4.537   2.243  0.2015  0.7887 -0.5456
 6920TIP3   OH242394   1.584   3.207   0.291  0.3102 -0.9157  0.0383
 6920TIP3    H142395   1.642   3.281   0.310  0.3874 -0.9242 -0.1696
 6920TIP3    H242396   1.642   3.136   0.266  0.1760 -0.7251 -0.8353
 6921TIP3   OH242397   5.573   3.033   2.317 -0.2787 -0.5287  0.0010
 6921TIP3    H142398   5.482   3.061   2.326 -0.1631 -0.6353  1.8407
 6921TIP3    H242399   5.584   2.964   2.383  0.5151 -2.1939 -1.7579
 6922TIP3   OH242400   6.641   4.378   1.428  0.7732 -0.1107 -0.2707
 6922TIP3    H142401   6.714   4.392   1.368  0.2669  0.0871 -0.8572
 6922TIP3    H242402   6.587   4.312   1.384  0.6248 -0.2872  0.1758
 6923TIP3   OH242403   0.499   5.017   0.835  0.0125  0.6929  0.5121
 6923TIP3    H142404   0.469   5.104   0.808 -0.6861  0.2085 -0.3085
 6923TIP3    H242405   0.548   5.033   0.915  0.4490  1.9305  0.0234
 6924TIP3   OH242406   1.721   0.929   1.900  0.0755  0.3327 -0.1980
 6924TIP3    H142407   1.740   1.015   1.936  2.9668 -0.0627 -0.5576
 6924TIP3    H242408   1.765   0.868   1.960 -1.8917 -0.9564  0.0474
 6925TIP3   OH242409   2.948   4.555   2.135 -0.0671 -0.8119 -0.6576
 6925TIP3    H142410   3.023   4.556   2.194 -0.7795 -1.0909  0.2709
 6925TIP3    H242411   2.872   4.546   2.192 -1.0685  2.2130 -1.3472
 6926TIP3   OH242412   2.689   1.931   0.502 -0.2124  0.5477 -0.0521
 6926TIP3    H142413   2.623   1.891   0.558 -0.0623  2.0937  1.3254
 6926TIP3    H242414   2.659   2.022   0.491  0.0017  0.4268 -2.1524
 6927TIP3   OH242415   6.346   3.246   1.451 -0.1971  0.1973  0.0363
 6927TIP3    H142416   6.339   3.199   1.534 -0.7602  0.4330  0.1269
 6927TIP3    H242417   6.261   3.289   1.440 -0.2602 -0.1349 -0.8446
 6928TIP3   OH242418   5.371   2.096   1.394  0.0818 -0.2225 -0.4507
 6928TIP3    H142419   5.424   2.144   1.330 -0.2368  0.9512  0.1469
 6928TIP3    H242420   5.434   2.068   1.461  0.1195  0.2565 -0.2814
 6929TIP3   OH242421   0.812   5.824   1.504 -1.3766  0.1188  0.5665
 6929TIP3    H142422   0.848   5.864   1.425  0.9195 -0.8115  1.0555
 6929TIP3    H242423   0.778   5.898   1.555 -0.9785  0.9528 -0.3379
 6930TIP3   OH242424   5.913   3.038   2.666  0.0274 -0.2632 -0.2038
 6930TIP3    H142425   5.853   2.978   2.710  0.4519  1.7659  3.6452
 6930TIP3    H242426   5.994   3.031   2.716  0.6828  2.0443 -0.8182
 6931TIP3   OH242427   3.398   4.520   1.511 -0.2588 -0.2731  0.4181
 6931TIP3    H142428   3.426   4.603   1.472 -1.7711  0.3586  0.6126
 6931TIP3    H242429   3.303   4.527   1.515 -0.4257 -2.1042  0.2657
 6932TIP3   OH242430   2.799   2.712   8.067 -0.3750  0.1154 -0.1547
 6932TIP3    H142431   2.729   2.730   8.005 -0.9187 -1.2474  0.0371
 6932TIP3    H242432   2.852   2.643   8.026  0.8338  1.0646 -0.2645
 6933TIP3   OH242433   3.062   5.064   2.472  0.1693 -0.8922  0.7154
 6933TIP3    H142434   3.128   5.054   2.541  1.5380 -1.8652 -0.6788
 6933TIP3    H242435   3.112   5.076   2.392 -1.3796  2.2490  0.0844
 6934TIP3   OH242436   0.708   2.381   6.916 -0.5715  0.0998  0.1143
 6934TIP3    H142437   0.678   2.304   6.867 -0.3227  0.5507 -0.7729
 6934TIP3    H242438   0.629   2.432   6.931 -0.7310 -0.3006  0.6679
 6935TIP3   OH242439   1.072   2.302   0.904  0.1066  0.5582 -0.0228
 6935TIP3    H142440   1.046   2.211   0.917  0.0028  0.6211  0.2165
 6935TIP3    H242441   1.050   2.321   0.813 -0.8474  0.6569  0.2123
 6936TIP3   OH242442   2.879   4.219   7.129 -0.4292 -0.0884  0.7400
 6936TIP3    H142443   2.948   4.224   7.063 -0.9651  0.4554  0.2041
 6936TIP3    H242444   2.864   4.125   7.142  0.5931 -0.2142  1.0718
 6937TIP3   OH242445   5.697   2.213   1.279 -0.3160  0.0508  0.7568
 6937TIP3    H142446   5.614   2.217   1.231 -0.7054  1.6388  1.4925
 6937TIP3    H242447   5.764   2.204   1.210 -1.0147 -0.0891  0.0814
 6938TIP3   OH242448   5.497   4.581   6.935  0.0696  0.1016  0.2575
 6938TIP3    H142449   5.419   4.558   6.985  0.4421 -0.0877  0.7576
 6938TIP3    H242450   5.463   4.621   6.855 -0.5805 -1.6166 -0.3782
 6939TIP3   OH242451   1.513   6.710   8.554  0.7110  0.4297  0.3955
 6939TIP3    H142452   1.461   6.771   8.606  0.7685  1.5086 -0.7625
 6939TIP3    H242453   1.478   6.718   8.466  1.1910 -0.7181  0.0788
 6940TIP3   OH242454   1.517   0.646   8.556 -0.2144 -0.2810  0.0259
 6940TIP3    H142455   1.529   0.737   8.582  0.4827 -0.4319  0.2513
 6940TIP3    H242456   1.507   0.599   8.639  1.6348 -0.7110  0.0286
 6941TIP3   OH242457   2.477   2.438   7.631  0.1327 -0.3538 -0.8795
 6941TIP3    H142458   2.412   2.443   7.701  1.5058 -1.1499  0.5003
 6941TIP3    H242459   2.470   2.522   7.586  0.3830  0.8932  1.2898
 6942TIP3   OH242460   0.455   3.973   8.424  0.0769  0.0003 -0.2504
 6942TIP3    H142461   0.469   3.972   8.519  1.6315  0.1340 -0.4509
 6942TIP3    H242462   0.519   3.910   8.390 -1.2647 -0.9257 -1.1284
 6943TIP3   OH242463   5.998   5.986   0.203  0.0494 -0.1131 -0.6821
 6943TIP3    H142464   5.992   6.081   0.209 -0.1854 -0.0977 -1.1054
 6943TIP3    H242465   5.914   5.955   0.239 -0.3775 -0.1106 -1.6612
 6944TIP3   OH242466   2.534   0.135   8.633  0.1929  0.5493  0.0614
 6944TIP3    H142467   2.595   0.090   8.692 -0.0416 -0.2146 -0.2674
 6944TIP3    H242468   2.536   0.083   8.553  0.9538  1.9038 -0.8440
 6945TIP3   OH242469   3.398   0.359   1.271  0.0337 -0.2486 -0.0305
 6945TIP3    H142470   3.323   0.299   1.277  0.1439 -0.4261 -0.3818
 6945TIP3    H242471   3.455   0.319   1.205  0.3430 -0.0105  0.0922
 6946TIP3   OH242472   0.432   6.207   2.230 -0.0957 -0.5751  0.2823
 6946TIP3    H142473   0.473   6.274   2.174  0.4014 -1.8030 -0.8642
 6946TIP3    H242474   0.493   6.197   2.303 -0.8671  1.2163  1.2428
 6947TIP3   OH242475   5.849   5.531   2.033  0.1837  0.1899 -0.4441
 6947TIP3    H142476   5.900   5.465   2.081 -0.2849  0.1499 -0.0012
 6947TIP3    H242477   5.910   5.604   2.022 -0.2333  0.9503  1.8127
 6948TIP3   OH242478   6.804   0.968   7.564 -0.2557  0.0423 -0.2566
 6948TIP3    H142479   6.808   0.981   7.659  0.1380  1.8190 -0.4674
 6948TIP3    H242480   6.731   0.908   7.551  0.2841 -0.9818  1.2179
 6949TIP3   OH242481   6.192   2.470   8.245 -0.1629 -0.0310  0.1282
 6949TIP3    H142482   6.132   2.521   8.191  0.3566  1.4356  0.8791
 6949TIP3    H242483   6.198   2.519   8.327  0.0210 -1.5519  1.0651
 6950TIP3   OH242484   1.380   6.385   0.018  0.1157 -0.5287  0.4511
 6950TIP3    H142485   1.298   6.433   0.032 -0.2163 -0.1322 -2.2651
 6950TIP3    H242486   1.448   6.451   0.031 -0.0181 -0.6062  1.6920
 6951TIP3   OH242487   5.004   2.927   0.915  0.3120  0.2395 -0.4330
 6951TIP3    H142488   5.001   2.926   1.010  2.6987 -0.2011 -0.2962
 6951TIP3    H242489   5.022   3.018   0.892  3.6179 -0.1946 -0.1399
 6952TIP3   OH242490   5.258   1.872   8.491 -0.2313 -0.0474  0.1054
 6952TIP3    H142491   5.224   1.920   8.567  2.1529  1.1685  0.4898
 6952TIP3    H242492   5.187   1.875   8.427 -2.4337 -1.3703  2.3108
 6953TIP3   OH242493   1.940   0.780   7.765 -0.1497 -0.4215 -0.0894
 6953TIP3    H142494   1.855   0.787   7.722 -0.2397 -1.5273 -0.1161
 6953TIP3    H242495   1.949   0.687   7.786  2.3742 -0.9581 -2.8156
 6954TIP3   OH242496   1.789   0.230   6.484  0.7956 -0.3478 -1.0177
 6954TIP3    H142497   1.816   0.168   6.416  0.2739 -1.3770 -0.3102
 6954TIP3    H242498   1.865   0.235   6.543  0.3546 -1.3760 -0.3418
 6955TIP3   OH242499   4.849   0.312   1.582 -0.3590 -0.0205 -0.8605
 6955TIP3    H142500   4.927   0.282   1.627  0.3494  1.3091 -1.1391
 6955TIP3    H242501   4.801   0.232   1.559  0.2052 -0.7896  0.5433
 6956TIP3   OH242502   2.165   1.109   0.679  0.3706 -0.1072  0.1657
 6956TIP3    H142503   2.188   1.139   0.591  1.0544  0.3713  0.5051
 6956TIP3    H242504   2.192   1.179   0.737 -2.5015  0.7856  0.5781
 6957TIP3   OH242505   6.219   0.083   1.692 -0.5272 -0.2700  0.3618
 6957TIP3    H142506   6.166   0.162   1.681 -1.0143 -0.3433  1.9431
 6957TIP3    H242507   6.155   0.013   1.700 -0.1972 -0.4458  1.6654
 6958TIP3   OH242508   5.395   4.674   1.823  0.3413  0.1785  0.7386
 6958TIP3    H142509   5.331   4.646   1.888 -0.0117  0.2354  0.4245
 6958TIP3    H242510   5.458   4.726   1.872  0.0086  0.3270  1.0170
 6959TIP3   OH242511   4.202   3.800   1.405  0.2568 -0.0258 -0.0807
 6959TIP3    H142512   4.284   3.849   1.392  0.3456 -0.4114 -1.1515
 6959TIP3    H242513   4.214   3.755   1.488  0.6437  0.8565  0.3562
 6960TIP3   OH242514   2.670   3.736   8.670  0.6004  0.2564  0.1003
 6960TIP3    H142515   2.648   3.776   8.755  0.1216  0.2506 -0.0197
 6960TIP3    H242516   2.643   3.801   8.606  1.2394  0.3878 -0.0410
 6961TIP3   OH242517   0.847   2.923   0.646 -0.1784  0.0045  0.1485
 6961TIP3    H142518   0.900   2.873   0.708  1.1266 -0.5733 -1.3697
 6961TIP3    H242519   0.786   2.859   0.609 -0.2752  0.1236  0.0996
 6962TIP3   OH242520   0.696   1.217   7.743  0.4276  0.3311 -0.6130
 6962TIP3    H142521   0.762   1.286   7.747  0.9833 -0.2461  1.2571
 6962TIP3    H242522   0.738   1.141   7.784 -1.0695 -0.3331 -0.2425
 6963TIP3   OH242523   4.013   3.910   1.133  0.4160 -0.3197 -0.0455
 6963TIP3    H142524   3.945   3.894   1.198 -1.5533 -1.1319 -2.1558
 6963TIP3    H242525   3.988   3.993   1.092  2.1794  0.6882  0.8229
 6964TIP3   OH242526   2.481   6.719   0.018  0.3150  0.5141 -0.0540
 6964TIP3    H142527   2.392   6.701   0.048  0.3127  0.0212 -0.3432
 6964TIP3    H242528   2.533   6.647   0.054  0.4414  0.3278 -0.6124
 6965TIP3   OH242529   4.634   5.751   0.837  0.3289 -0.2969  0.1238
 6965TIP3    H142530   4.720   5.779   0.869  1.0051 -0.0370 -1.7528
 6965TIP3    H242531   4.599   5.829   0.794  0.5346 -1.1925 -1.7828
 6966TIP3   OH242532   5.157   1.765   7.086 -0.5270  0.2559 -0.1805
 6966TIP3    H142533   5.071   1.723   7.082 -0.4951  0.1446  0.2586
 6966TIP3    H242534   5.218   1.696   7.062 -0.4449 -0.0509  0.8944
 6967TIP3   OH242535   6.244   6.556   0.743 -0.0650 -0.4306 -0.4152
 6967TIP3    H142536   6.331   6.592   0.764  0.1065 -0.0851 -1.6473
 6967TIP3    H242537   6.183   6.622   0.775  0.0925 -0.7782  0.6651
 6968TIP3   OH242538   1.185   5.583   7.805  0.5602  0.1626  0.2035
 6968TIP3    H142539   1.193   5.488   7.815 -2.5523 -0.2391 -0.0754
 6968TIP3    H242540   1.208   5.600   7.714 -0.0559 -0.5492 -0.1010
 6969TIP3   OH242541   1.174   0.788   8.287  0.6092  0.6854 -0.3620
 6969TIP3    H142542   1.183   0.799   8.192  0.3823  1.1711 -0.3303
 6969TIP3    H242543   1.253   0.742   8.313  0.3114 -0.1642 -0.8982
 6970TIP3   OH242544   4.877   4.309   1.919  0.1725 -0.4040 -0.1417
 6970TIP3    H142545   4.827   4.387   1.943  1.7313  0.5399  0.1285
 6970TIP3    H242546   4.908   4.274   2.003  2.3442  0.6611 -0.4627
 6971TIP3   OH242547   6.797   0.357   8.109 -0.5468  0.0364  0.4178
 6971TIP3    H142548   6.885   0.393   8.119 -0.2880 -0.5349  0.2415
 6971TIP3    H242549   6.741   0.416   8.159 -0.2026  0.9361 -0.2234
 6972TIP3   OH242550   4.576   3.702   2.912  0.4012 -0.5874 -0.1928
 6972TIP3    H142551   4.513   3.763   2.951  0.9244  0.0294 -0.2996
 6972TIP3    H242552   4.577   3.627   2.972 -0.1747 -0.4506 -0.0093
 6973TIP3   OH242553   6.218   2.938   1.242  0.5944 -0.1179 -0.0498
 6973TIP3    H142554   6.131   2.979   1.248 -0.2610 -1.6146 -1.4542
 6973TIP3    H242555   6.267   2.996   1.185 -0.6136 -0.9613 -2.0465
 6974TIP3   OH242556   2.522   6.174   0.948  0.0081 -0.0385 -0.2314
 6974TIP3    H142557   2.483   6.119   1.016 -1.1117 -1.3515 -1.8443
 6974TIP3    H242558   2.600   6.124   0.920  0.9051  0.8689  0.5668
 6975TIP3   OH242559   5.446   3.131   1.625 -0.7791  0.2811 -0.3233
 6975TIP3    H142560   5.498   3.211   1.623 -0.5038  0.1062 -0.2884
 6975TIP3    H242561   5.494   3.073   1.684 -1.0119  0.1144 -0.2960
 6976TIP3   OH242562   2.914   0.787   1.140  0.1237  0.3020 -0.0651
 6976TIP3    H142563   2.997   0.792   1.188 -0.9017 -0.8456  1.9756
 6976TIP3    H242564   2.908   0.870   1.093  1.5655  1.1892  1.2159
 6977TIP3   OH242565   6.060   1.398   0.562  1.1498  0.1480  0.4786
 6977TIP3    H142566   6.017   1.463   0.618 -2.5217 -0.6197 -1.1385
 6977TIP3    H242567   6.071   1.444   0.479  2.8756  0.0599  0.6348
 6978TIP3   OH242568   3.174   3.912   7.630  0.1507  0.2342  0.0327
 6978TIP3    H142569   3.247   3.867   7.587  0.8121  0.5827  0.7666
 6978TIP3    H242570   3.199   4.005   7.628 -1.6009  0.7449 -2.2617
 6979TIP3   OH242571   5.998   3.322   0.605  0.3010 -0.0472 -0.3899
 6979TIP3    H142572   5.909   3.316   0.570  0.0007  0.4512  0.2737
 6979TIP3    H242573   6.017   3.234   0.638 -0.4701  0.1708  0.6865
 6980TIP3   OH242574   1.750   3.230   1.054  0.3905 -0.4561 -0.4230
 6980TIP3    H142575   1.770   3.216   0.962 -2.6699 -1.0880 -1.1200
 6980TIP3    H242576   1.656   3.210   1.061  0.1701  1.0660  2.5215
 6981TIP3   OH242577   1.253   3.899   0.037 -0.0221 -0.6089  0.7809
 6981TIP3    H142578   1.191   3.827   0.045  1.0356 -1.7218 -0.4096
 6981TIP3    H242579   1.323   3.864  -0.020  2.4704  0.0034  3.2321
 6982TIP3   OH242580   3.227   3.925   2.030 -0.3583 -0.3080 -0.1394
 6982TIP3    H142581   3.291   3.990   2.058 -1.3858  1.0250 -0.7359
 6982TIP3    H242582   3.277   3.862   1.978  0.1181  2.3469 -3.2556
 6983TIP3   OH242583   6.284   0.208   7.533  0.3424 -0.2293  0.3275
 6983TIP3    H142584   6.229   0.278   7.499  1.1539  0.9666  1.3897
 6983TIP3    H242585   6.250   0.191   7.621  0.1446 -1.2050  0.0810
 6984TIP3   OH242586   6.033   0.712   8.405 -0.0522  0.7035  0.4824
 6984TIP3    H142587   6.041   0.807   8.414 -1.8556  0.9672 -0.2191
 6984TIP3    H242588   5.942   0.698   8.379  0.2504 -1.2079  0.2933
 6985TIP3   OH242589   4.360   0.922   1.721  0.5630 -0.0794 -1.1312
 6985TIP3    H142590   4.373   1.017   1.720  1.7687 -0.2339 -1.3598
 6985TIP3    H242591   4.366   0.898   1.813 -0.8456  0.1803 -0.9390
 6986TIP3   OH242592   3.053   5.326   2.310 -0.5612  0.5031  0.0120
 6986TIP3    H142593   3.098   5.271   2.374 -0.5085  1.2573  0.6416
 6986TIP3    H242594   3.021   5.265   2.244 -1.2140 -0.3892  1.1202
 6987TIP3   OH242595   2.030   6.276   0.920  0.4465  0.0668 -0.4821
 6987TIP3    H142596   1.990   6.273   0.833 -1.8241 -0.4223  0.5050
 6987TIP3    H242597   2.069   6.189   0.930 -2.6752 -1.3532  0.3981
 6988TIP3   OH242598   4.319   6.433   2.155 -0.0396 -0.0215  0.1467
 6988TIP3    H142599   4.252   6.364   2.157  2.0747 -2.1980  0.8583
 6988TIP3    H242600   4.293   6.493   2.225 -1.0236 -1.0554  0.7002
 6989TIP3   OH242601   3.135   0.194   1.351 -0.0711  0.1901 -0.3104
 6989TIP3    H142602   3.077   0.267   1.373 -1.3529 -0.8839 -0.0058
 6989TIP3    H242603   3.081   0.116   1.363  1.4382 -0.8558 -0.0827
 6990TIP3   OH242604   0.069   1.111   6.740  0.2290  0.2494 -0.0411
 6990TIP3    H142605   0.011   1.141   6.809  2.0066  1.0513  1.1987
 6990TIP3    H242606   0.143   1.172   6.743 -0.2268  1.2159 -3.6310
 6991TIP3   OH242607   3.580   4.764   7.544  0.4561 -0.3309 -0.3313
 6991TIP3    H142608   3.539   4.708   7.478 -1.4206  0.8165 -0.2271
 6991TIP3    H242609   3.654   4.714   7.576  0.1025 -1.8345 -1.7495
 6992TIP3   OH242610   2.237   0.652   0.868 -0.5104 -0.0073 -0.1488
 6992TIP3    H142611   2.301   0.582   0.852 -0.0550  0.1692  0.8324
 6992TIP3    H242612   2.272   0.699   0.943 -3.5239 -2.0152  2.7530
 6993TIP3   OH242613   3.114   2.814   7.355 -0.4480 -0.3600 -0.6079
 6993TIP3    H142614   3.028   2.844   7.324  0.0349 -0.0463 -1.7231
 6993TIP3    H242615   3.176   2.849   7.290  0.6115  0.0559  0.5803
 6994TIP3   OH242616   1.419   6.230   2.107 -0.3129 -0.0065 -0.3256
 6994TIP3    H142617   1.372   6.212   2.188 -0.2579  0.1352 -0.2619
 6994TIP3    H242618   1.510   6.210   2.128 -0.1371  1.0615 -0.0266
 6995TIP3   OH242619   1.528   0.267   8.223 -0.0367 -0.0845  0.2541
 6995TIP3    H142620   1.491   0.315   8.297  1.0688  0.4612  0.4750
 6995TIP3    H242621   1.522   0.175   8.248 -1.4953 -0.0403  0.1445
 6996TIP3   OH242622   6.039   1.333   1.086 -0.2198  0.2761  0.3960
 6996TIP3    H142623   6.013   1.361   0.998  0.3945  0.0634  0.1336
 6996TIP3    H242624   5.959   1.334   1.137 -0.6234  0.2088 -0.2255
 6997TIP3   OH242625   1.893   3.733   7.972  0.3481 -0.1970 -0.9148
 6997TIP3    H142626   1.853   3.741   8.059  0.2568 -0.5167 -0.9261
 6997TIP3    H242627   1.910   3.823   7.945 -0.0830 -0.0709 -0.7797
 6998TIP3   OH242628   0.222   1.365   0.150  0.4179 -0.0735  0.0778
 6998TIP3    H142629   0.235   1.407   0.235  1.2732  0.6017 -0.3798
 6998TIP3    H242630   0.276   1.286   0.153  1.5911  0.6936 -0.3591
 6999TIP3   OH242631   4.939   6.694   2.029 -0.4706 -0.1454 -0.0317
 6999TIP3    H142632   4.879   6.621   2.014  0.9449 -1.5872  0.9989
 6999TIP3    H242633   4.893   6.770   1.993 -2.1147 -1.4738 -0.9063
 7000TIP3   OH242634   3.467   0.119   8.323 -0.4315 -0.3884 -0.1187
 7000TIP3    H142635   3.420   0.195   8.288  1.8526  0.6145 -1.1722
 7000TIP3    H242636   3.452   0.050   8.258  0.1191  0.1428 -0.8248
 7001TIP3   OH242637   4.860   6.035   7.295 -0.3529 -0.4625 -0.0290
 7001TIP3    H142638   4.796   6.094   7.336  1.1908  0.3803  1.3158
 7001TIP3    H242639   4.937   6.042   7.351  0.8637 -1.5833 -1.4917
 7002TIP3   OH242640   0.669   5.716   1.817 -0.2068  0.3765 -0.0012
 7002TIP3    H142641   0.575   5.696   1.815 -0.5869  2.0368 -1.3883
 7002TIP3    H242642   0.705   5.669   1.742  0.6976 -2.6789  2.1913
 7003TIP3   OH242643   5.234   6.488   7.619 -0.4381 -0.5771 -0.4903
 7003TIP3    H142644   5.216   6.408   7.570 -0.6394 -0.5104 -0.5267
 7003TIP3    H242645   5.267   6.549   7.554 -1.8414 -0.0899 -0.7948
 7004TIP3   OH242646   2.498   3.408   7.186  0.4346 -0.1293 -0.3657
 7004TIP3    H142647   2.490   3.480   7.123  1.2732  0.4576  0.1807
 7004TIP3    H242648   2.466   3.332   7.139  0.3442  0.4429 -1.2544
 7005TIP3   OH242649   4.473   1.570   7.219 -0.0218  0.2271 -0.0322
 7005TIP3    H142650   4.396   1.627   7.215  0.6444  1.0847 -1.4759
 7005TIP3    H242651   4.527   1.597   7.144  0.6814 -1.8195 -0.3165
 7006TIP3   OH242652   2.292   3.509   0.988  0.5338 -0.3202  0.4676
 7006TIP3    H142653   2.354   3.577   0.963  1.1798 -0.9121  0.4191
 7006TIP3    H242654   2.212   3.556   1.008  1.4343  0.6260  2.0743
 7007TIP3   OH242655   5.366   4.440   0.419 -0.1531  0.5340 -0.4121
 7007TIP3    H142656   5.417   4.405   0.345 -0.0592 -1.1789  0.4108
 7007TIP3    H242657   5.329   4.521   0.386  1.6547  0.9338 -1.6411
 7008TIP3   OH242658   4.239   5.460   1.772  0.1295 -0.1045  0.4520
 7008TIP3    H142659   4.317   5.445   1.826 -0.5317  0.3466  1.5536
 7008TIP3    H242660   4.179   5.390   1.796 -0.0815 -0.0424  0.1135
 7009TIP3   OH242661   1.896   5.714   2.451 -0.0239 -0.9269  0.3586
 7009TIP3    H142662   1.866   5.623   2.447 -1.4231 -0.5060  0.8413
 7009TIP3    H242663   1.961   5.714   2.521  0.3191 -1.6386  0.0566
 7010TIP3   OH242664   1.912   3.467   1.480  0.5728  0.2287 -0.4609
 7010TIP3    H142665   1.862   3.468   1.562  1.2608  1.6184 -0.0141
 7010TIP3    H242666   1.848   3.445   1.413 -0.4563  1.0410  0.2134
 7011TIP3   OH242667   5.034   6.051   8.121  0.0001  0.1139 -0.0211
 7011TIP3    H142668   5.106   6.019   8.175 -1.1293  1.2895  2.3120
 7011TIP3    H242669   4.955   6.022   8.166 -1.0103  1.4830 -0.8232
 7012TIP3   OH242670   0.936   1.613   0.910  0.0953 -0.1025 -0.1145
 7012TIP3    H142671   0.927   1.608   1.006  1.5440  0.4272  0.0630
 7012TIP3    H242672   0.892   1.534   0.878  1.6573 -1.5428  1.1415
 7013TIP3   OH242673   6.427   2.092   6.551 -0.2882  0.0833  0.2155
 7013TIP3    H142674   6.437   2.184   6.526 -1.4775  0.7694  2.1176
 7013TIP3    H242675   6.339   2.069   6.522 -0.9690  0.3378  1.9700
 7014TIP3   OH242676   5.820   3.331   8.015 -0.3244 -0.2171 -0.5105
 7014TIP3    H142677   5.874   3.394   7.967  0.5669 -0.5047  0.0807
 7014TIP3    H242678   5.751   3.306   7.953  0.4885 -0.1884 -1.4577
 7015TIP3   OH242679   3.674   4.455   0.077 -0.1875 -0.3514 -0.0612
 7015TIP3    H142680   3.749   4.504   0.111 -0.1986  0.5044 -1.2326
 7015TIP3    H242681   3.639   4.509   0.006 -1.1298 -1.3498 -0.3935
 7016TIP3   OH242682   1.749   3.440   0.186 -0.2154  0.1669 -0.3276
 7016TIP3    H142683   1.781   3.481   0.266  1.5317  0.3067 -1.0443
 7016TIP3    H242684   1.798   3.358   0.179 -0.6213 -0.0290 -1.0470
 7017TIP3   OH242685   4.872   4.931   0.939  0.2505  0.1580  0.7143
 7017TIP3    H142686   4.939   4.999   0.941 -0.5650  0.9519  1.7666
 7017TIP3    H242687   4.871   4.895   1.028 -1.3430  0.7902  0.9752
 7018TIP3   OH242688   0.324   0.242   0.288 -0.0436  0.0104  0.3237
 7018TIP3    H142689   0.255   0.176   0.281  0.5846 -0.8260  1.7055
 7018TIP3    H242690   0.394   0.209   0.231 -0.6042  0.6725 -0.7860
 7019TIP3   OH242691   5.091   0.294   6.977 -0.8844 -0.1321  0.6572
 7019TIP3    H142692   5.154   0.273   6.908 -1.0247 -0.8816  0.7426
 7019TIP3    H242693   5.009   0.253   6.947 -0.9646 -0.3979  1.2285
 7020TIP3   OH242694   5.589   3.558   8.685 -0.1505 -0.1062 -0.2843
 7020TIP3    H142695   5.607   3.465   8.675 -0.7578 -0.2532 -0.0202
 7020TIP3    H242696   5.504   3.562   8.729 -0.0872  0.5693 -0.2123
 7021TIP3   OH242697   4.178   5.013   8.514  0.3968 -0.2845 -0.0467
 7021TIP3    H142698   4.158   5.033   8.422  0.1043  1.5711  0.3693
 7021TIP3    H242699   4.108   5.056   8.563  0.9596 -0.6185  1.0823
 7022TIP3   OH242700   5.894   6.017   1.310 -0.3286 -0.5243  0.3804
 7022TIP3    H142701   5.881   5.962   1.232  0.5131  1.2358 -1.0984
 7022TIP3    H242702   5.875   5.960   1.384 -1.0165 -2.3266 -1.1135
 7023TIP3   OH242703   2.755   0.518   0.908 -0.5959 -0.0728 -0.2663
 7023TIP3    H142704   2.799   0.488   0.987 -0.3736 -2.7495 -1.3033
 7023TIP3    H242705   2.717   0.439   0.870 -0.4488  1.0546 -2.9944
 7024TIP3   OH242706   6.365   4.897   0.510 -0.0359  0.2224 -0.2881
 7024TIP3    H142707   6.278   4.913   0.547  0.3185 -0.7629  1.0787
 7024TIP3    H242708   6.354   4.908   0.416 -1.8083 -0.6161 -0.2191
 7025TIP3   OH242709   5.788   1.373   1.164 -0.1985  0.4595  0.1085
 7025TIP3    H142710   5.713   1.369   1.223  0.3348  1.9523  0.9354
 7025TIP3    H242711   5.750   1.381   1.077 -1.0086  1.4178  0.5325
 7026TIP3   OH242712   1.391   1.396   7.758  0.0838  0.0857 -0.2063
 7026TIP3    H142713   1.476   1.357   7.740  0.1180  0.8327 -1.8507
 7026TIP3    H242714   1.411   1.481   7.797  0.2493  1.4412 -2.9944
 7027TIP3   OH242715   0.640   6.832   7.488  0.0687 -0.2156  0.1483
 7027TIP3    H142716   0.690   6.811   7.568 -0.4019  1.5711  0.9474
 7027TIP3    H242717   0.597   6.749   7.465 -1.3998 -0.3219  2.9196
 7028TIP3   OH242718   3.022   4.276   2.946 -0.6407 -0.2678 -0.2560
 7028TIP3    H142719   3.043   4.268   3.040  1.1187 -3.8732 -0.7674
 7028TIP3    H242720   2.970   4.198   2.927  0.7075 -0.6694 -2.6119
 7029TIP3   OH242721   1.186   3.973   1.459  0.7160 -0.8433  0.6764
 7029TIP3    H142722   1.121   4.023   1.410  2.8315  0.8394 -0.5984
 7029TIP3    H242723   1.159   3.882   1.448 -0.4202 -0.3234 -1.3155
 7030TIP3   OH242724   5.440   5.407   0.189 -0.0432 -0.6832 -0.1473
 7030TIP3    H142725   5.377   5.463   0.235  0.0770 -1.1353  0.5907
 7030TIP3    H242726   5.396   5.381   0.108 -0.2176  0.2283 -0.3537
 7031TIP3   OH242727   3.450   3.968   0.803 -0.8219 -0.4846  0.9981
 7031TIP3    H142728   3.535   3.962   0.847  0.6593  1.9577 -1.2737
 7031TIP3    H242729   3.461   3.914   0.725 -1.8169 -1.0878  1.2643
 7032TIP3   OH242730   6.400   1.613   0.597 -1.0832 -0.4894  0.2268
 7032TIP3    H142731   6.357   1.609   0.512  0.4651 -2.7264 -0.5357
 7032TIP3    H242732   6.493   1.608   0.576 -0.6040  0.2815  2.0191
 7033TIP3   OH242733   4.469   6.262   7.558  0.2321 -0.3462 -0.1180
 7033TIP3    H142734   4.398   6.275   7.496 -0.1571 -0.2688  0.3346
 7033TIP3    H242735   4.432   6.205   7.625  0.7053 -0.5860 -0.0530
 7034TIP3   OH242736   0.739   1.732   0.253 -0.3706 -0.2721  0.0748
 7034TIP3    H142737   0.834   1.722   0.248 -0.2111  0.7305  0.7925
 7034TIP3    H242738   0.704   1.657   0.204  0.8016 -0.0468 -1.1588
 7035TIP3   OH242739   1.431   2.762   7.747  0.6391 -0.3066 -0.0384
 7035TIP3    H142740   1.357   2.803   7.703  0.7350 -0.1757 -0.0789
 7035TIP3    H242741   1.505   2.776   7.688  0.4286 -1.6587 -0.6565
 7036TIP3   OH242742   1.456   5.977   7.716 -0.1296  0.1863  0.2027
 7036TIP3    H142743   1.462   5.919   7.640  1.4903 -0.7423  0.9570
 7036TIP3    H242744   1.523   6.043   7.700 -0.3163  0.4353  0.4617
 7037TIP3   OH242745   3.827   6.841   0.905 -0.3296 -0.0299 -0.4077
 7037TIP3    H142746   3.914   6.803   0.891 -0.4448  0.1487 -1.7225
 7037TIP3    H242747   3.826   6.865   0.998  0.3152 -1.7777  0.0884
 7038TIP3   OH242748   2.925   0.626   8.287 -1.0524 -0.5126 -0.1188
 7038TIP3    H142749   2.998   0.611   8.347 -0.9316 -0.6373 -0.2964
 7038TIP3    H242750   2.875   0.696   8.328 -1.2475 -0.9338  0.3828
 7039TIP3   OH242751   4.389   4.743   1.016  0.2048 -0.0219  0.0589
 7039TIP3    H142752   4.304   4.718   1.052 -0.8292  2.8247 -0.1335
 7039TIP3    H242753   4.441   4.769   1.092 -0.7484  2.5677 -0.0783
 7040TIP3   OH242754   4.755   4.911   6.926  0.6538 -0.3791  0.1486
 7040TIP3    H142755   4.694   4.875   6.989  0.9893  1.6382  1.7339
 7040TIP3    H242756   4.710   4.988   6.889  1.6384  0.2784  0.2628
 7041TIP3   OH242757   6.438   5.966   7.947  0.6502 -0.4236  0.1532
 7041TIP3    H142758   6.526   5.967   7.985  0.4193  0.3834  0.7024
 7041TIP3    H242759   6.447   6.015   7.865  1.1781 -2.2856 -0.9555
 7042TIP3   OH242760   3.002   5.640   6.980 -0.3679  0.7085 -0.0058
 7042TIP3    H142761   2.991   5.600   7.066  0.3011  0.4038 -0.0523
 7042TIP3    H242762   3.031   5.568   6.924  1.6966  1.4054  0.0963
 7043TIP3   OH242763   6.851   0.891   8.356  0.3893 -0.1993  0.1392
 7043TIP3    H142764   6.790   0.959   8.385 -3.0226 -2.6365 -0.7335
 7043TIP3    H242765   6.868   0.839   8.434 -1.6391 -1.5557 -0.2385
 7044TIP3   OH242766   6.724   0.200   2.167  0.1102  0.2995 -0.1133
 7044TIP3    H142767   6.714   0.294   2.184 -0.5557  0.0703  0.8846
 7044TIP3    H242768   6.813   0.180   2.197  0.0357  0.4987  0.2516
 7045TIP3   OH242769   1.114   6.313   0.470 -0.0649 -0.1227 -0.0157
 7045TIP3    H142770   1.081   6.392   0.511 -0.3834  0.9490 -2.2163
 7045TIP3    H242771   1.169   6.272   0.538  0.0784  1.9330  1.1779
 7046TIP3   OH242772   1.531   3.043   8.297  0.6235 -0.0884  0.3977
 7046TIP3    H142773   1.579   3.023   8.217  0.7215 -0.4424  0.5443
 7046TIP3    H242774   1.474   2.968   8.312 -1.8008  1.3526 -1.0940
 7047TIP3   OH242775   2.116   5.061   7.478 -0.0227 -0.3294  0.1362
 7047TIP3    H142776   2.053   5.106   7.534 -0.9474  1.2446 -2.0350
 7047TIP3    H242777   2.064   4.999   7.428  0.4545 -0.2723 -0.4440
 7048TIP3   OH242778   0.889   1.290   8.330 -0.1247  0.7004 -0.3993
 7048TIP3    H142779   0.927   1.223   8.387 -1.7784  0.9864  1.1261
 7048TIP3    H242780   0.963   1.345   8.306  1.2292 -1.4046 -1.4060
 7049TIP3   OH242781   3.428   5.210   8.711  0.4513 -0.5733  0.0613
 7049TIP3    H142782   3.444   5.261   8.790 -1.4575  0.2405 -0.0196
 7049TIP3    H242783   3.339   5.233   8.685  0.2049 -2.5539 -1.0501
 7050TIP3   OH242784   1.812   4.672   8.714  1.4058 -0.2698 -0.4132
 7050TIP3    H142785   1.811   4.593   8.659 -1.2425 -1.5761  1.2506
 7050TIP3    H242786   1.736   4.722   8.685  1.3281  0.1586  0.4779
 7051TIP3   OH242787   2.808   5.647   2.094  0.5315 -0.8286  0.8809
 7051TIP3    H142788   2.872   5.669   2.162  0.7420  3.2768 -0.3950
 7051TIP3    H242789   2.859   5.600   2.027  1.3652 -0.7744  1.4711
 7052TIP3   OH242790   5.994   1.267   7.634  0.6049 -0.5647 -0.0146
 7052TIP3    H142791   5.938   1.275   7.556 -0.1593  0.5456  0.6283
 7052TIP3    H242792   6.080   1.296   7.604  0.4069 -0.5041 -0.5437
 7053TIP3   OH242793   1.112   3.168   1.543  0.1191  0.2708 -0.4116
 7053TIP3    H142794   1.104   3.254   1.584  0.9478  0.1116  0.1108
 7053TIP3    H242795   1.068   3.108   1.604 -0.8664  0.3659 -0.9962
 7054TIP3   OH242796   4.821   1.763   2.118 -0.2160  0.0738 -0.0471
 7054TIP3    H142797   4.831   1.697   2.186 -0.2414  0.0794 -0.0378
 7054TIP3    H242798   4.854   1.721   2.039  0.0809  0.1697  0.0247
 7055TIP3   OH242799   0.017   4.906   0.251 -0.7178 -0.7333 -0.4327
 7055TIP3    H142800   0.068   4.904   0.332  0.0490 -2.3739 -0.9144
 7055TIP3    H242801   0.083   4.908   0.181 -1.2448 -2.7832 -1.0632
 7056TIP3   OH242802   4.602   2.521   1.852 -0.1503 -0.2598 -0.3411
 7056TIP3    H142803   4.691   2.484   1.847  0.2981  0.4941  1.4574
 7056TIP3    H242804   4.592   2.568   1.769  1.3674  0.1339 -0.3376
 7057TIP3   OH242805   4.813   5.123   1.582 -0.2651  0.3298 -0.2607
 7057TIP3    H142806   4.737   5.180   1.569 -0.4659 -0.1011 -1.0764
 7057TIP3    H242807   4.778   5.035   1.575  0.5042  0.1214 -2.0315
 7058TIP3   OH242808   6.285   1.900   8.259  0.2846  0.2798  0.3937
 7058TIP3    H142809   6.203   1.864   8.291  0.2167  0.1730  0.0948
 7058TIP3    H242810   6.352   1.838   8.287 -0.0464 -1.3249 -2.0821
 7059TIP3   OH242811   5.241   0.105   0.662  0.2770  0.1119  0.2438
 7059TIP3    H142812   5.178   0.147   0.604  0.4652  1.6383  1.0768
 7059TIP3    H242813   5.259   0.171   0.730  1.3237 -0.9842  1.0883
 7060TIP3   OH242814   3.271   3.436   8.294  0.0761 -0.4502  0.3939
 7060TIP3    H142815   3.329   3.441   8.371 -1.0146 -2.9312  1.4729
 7060TIP3    H242816   3.230   3.350   8.300 -0.2062 -0.6619 -2.9330
 7061TIP3   OH242817   4.408   2.304   8.721  0.1697  0.4457  0.1622
 7061TIP3    H142818   4.404   2.390   8.679 -0.3766  0.2582 -0.1855
 7061TIP3    H242819   4.345   2.251   8.672 -1.9092  0.7204  2.3773
 7062TIP3   OH242820   5.981   3.127   8.522  0.3896 -0.3536 -0.0307
 7062TIP3    H142821   5.991   3.058   8.588  0.0071  0.2084  0.6341
 7062TIP3    H242822   5.904   3.101   8.472  0.0433 -0.2473  0.4370
 7063TIP3   OH242823   2.378   2.802   8.461  0.3244 -0.4874  0.6789
 7063TIP3    H142824   2.365   2.888   8.501 -0.0227 -0.2377  0.0498
 7063TIP3    H242825   2.290   2.776   8.432  0.6042 -0.5157 -0.1844
 7064TIP3   OH242826   1.965   1.172   8.177 -0.1072 -0.1584  0.5975
 7064TIP3    H142827   1.900   1.216   8.123 -0.9503  0.0209  1.7144
 7064TIP3    H242828   1.967   1.082   8.144 -0.6016 -0.0523  0.2785
 7065TIP3   OH242829   3.933   0.648   1.844  0.1480 -0.1441 -0.2351
 7065TIP3    H142830   3.918   0.617   1.755 -1.4261  1.1063 -0.4494
 7065TIP3    H242831   3.895   0.579   1.900  0.1542 -0.4127 -0.5581
 7066TIP3   OH242832   4.312   1.815   0.904 -0.0179 -0.3678 -0.5016
 7066TIP3    H142833   4.381   1.863   0.860 -0.2067  0.3270 -0.0531
 7066TIP3    H242834   4.292   1.742   0.845  0.6222 -0.1905 -0.9460
 7067TIP3   OH242835   4.689   5.994   7.698 -0.4387 -0.1424 -0.0441
 7067TIP3    H142836   4.668   6.076   7.654  0.2981 -0.3549 -0.8188
 7067TIP3    H242837   4.699   6.018   7.790 -2.7824  0.1754  0.1753
 7068TIP3   OH242838   4.456   5.579   1.431  0.0210  0.2608  0.1469
 7068TIP3    H142839   4.489   5.513   1.370 -0.8152  1.7187 -2.0169
 7068TIP3    H242840   4.524   5.647   1.431 -0.0701  0.3496  0.7010
 7069TIP3   OH242841   5.491   0.732   8.543 -0.9890 -0.3236  0.2257
 7069TIP3    H142842   5.555   0.796   8.575  0.6328 -1.5130 -0.5262
 7069TIP3    H242843   5.491   0.663   8.609 -0.3607 -1.0248 -0.4803
 7070TIP3   OH242844   5.069   6.011   0.667 -0.1992  0.5038 -0.6917
 7070TIP3    H142845   5.054   5.965   0.584 -2.3246 -0.9565  0.4208
 7070TIP3    H242846   5.056   6.103   0.646  0.3474  0.2741 -2.1857
 7071TIP3   OH242847   2.702   2.244   2.612 -0.1105  0.2970  0.2766
 7071TIP3    H142848   2.654   2.176   2.566  2.3427 -1.4184  0.0681
 7071TIP3    H242849   2.732   2.203   2.693 -0.0766  1.7141  1.0284
 7072TIP3   OH242850   1.767   4.101   0.975  0.2129  0.3435  0.1071
 7072TIP3    H142851   1.810   4.162   0.915  1.7908 -0.2172  0.5907
 7072TIP3    H242852   1.793   4.130   1.062  0.3316 -0.5298  0.3782
 7073TIP3   OH242853   2.846   2.895   8.544  0.1262 -0.3810  0.3486
 7073TIP3    H142854   2.884   2.980   8.563 -1.6896  0.3610  0.8315
 7073TIP3    H242855   2.870   2.878   8.452  1.2913  0.1781  0.5225
 7074TIP3   OH242856   5.703   1.683   7.424  0.0263 -0.1929 -0.4842
 7074TIP3    H142857   5.676   1.620   7.491 -0.0196 -1.2332 -1.4419
 7074TIP3    H242858   5.797   1.694   7.438  0.4241 -1.9426 -1.4353
 7075TIP3   OH242859   5.406   3.912   0.800  0.1097  0.3544  0.4794
 7075TIP3    H142860   5.415   3.897   0.894  1.2148  2.0890  0.6788
 7075TIP3    H242861   5.429   3.828   0.760  2.1161  0.2713  1.6731
 7076TIP3   OH242862   3.710   4.850   8.011 -0.7590  0.5171  0.0638
 7076TIP3    H142863   3.733   4.761   7.983 -0.8786  0.4124  0.2984
 7076TIP3    H242864   3.633   4.839   8.067 -0.0681  0.6493  1.0512
 7077TIP3   OH242865   1.757   6.805   2.430  0.2304  0.5520 -0.8719
 7077TIP3    H142866   1.666   6.792   2.459  0.6366 -0.1051  0.1493
 7077TIP3    H242867   1.752   6.881   2.372 -1.0296  0.3083 -1.1178
 7078TIP3   OH242868   2.191   4.682   0.241  0.2975  0.2721  0.3429
 7078TIP3    H142869   2.103   4.680   0.278 -0.0409  0.3299 -0.4387
 7078TIP3    H242870   2.180   4.653   0.151  1.0018  0.7925  0.0798
 7079TIP3   OH242871   1.981   3.907   6.893  0.1068  0.3730 -0.2477
 7079TIP3    H142872   2.031   3.864   6.824  1.6051  2.2134 -0.3871
 7079TIP3    H242873   1.907   3.947   6.847  0.2591  0.3285 -0.5344
 7080TIP3   OH242874   2.602   6.336   1.728  0.0012  0.4462  0.2915
 7080TIP3    H142875   2.583   6.247   1.697  1.2223 -0.2495  1.3960
 7080TIP3    H242876   2.647   6.378   1.655  2.1586 -0.9135  0.7263
 7081TIP3   OH242877   0.231   4.719   1.793 -0.3566 -0.0794 -0.2708
 7081TIP3    H142878   0.160   4.710   1.856  0.7563  0.9244  1.2026
 7081TIP3    H242879   0.309   4.694   1.841  0.4984  0.4392 -1.3447
 7082TIP3   OH242880   3.901   6.648   8.002 -0.1376  0.4969  0.4416
 7082TIP3    H142881   3.895   6.662   7.908  1.0384  1.0302  0.4316
 7082TIP3    H242882   3.934   6.731   8.037  1.9406 -0.4995  1.0046
 7083TIP3   OH242883   3.202   1.115   1.093 -0.4828  0.2552  0.3004
 7083TIP3    H142884   3.189   1.042   1.153 -0.0972  0.4349  0.6064
 7083TIP3    H242885   3.193   1.076   1.006  2.2235 -0.7047  0.3645
 7084TIP3   OH242886   5.690   5.026   8.474 -0.0255  0.4307  0.0074
 7084TIP3    H142887   5.623   5.058   8.534  0.1615  0.2929  0.2946
 7084TIP3    H242888   5.651   4.947   8.435  0.5205 -0.4951  1.2704
 7085TIP3   OH242889   6.685   4.570   7.207 -0.0442 -0.2063 -0.0004
 7085TIP3    H142890   6.679   4.497   7.145 -3.1218  0.7932 -1.0488
 7085TIP3    H242891   6.676   4.648   7.153 -0.3433  0.8039  1.4540
 7086TIP3   OH242892   5.734   3.780   3.072 -0.6041 -0.2863 -0.2781
 7086TIP3    H142893   5.759   3.866   3.036 -0.0091  0.4699  1.7898
 7086TIP3    H242894   5.793   3.718   3.028  2.6329  1.0249  1.8458
 7087TIP3   OH242895   3.040   4.032   1.124  0.3760 -0.4246  0.1500
 7087TIP3    H142896   3.098   4.065   1.192  2.0979 -0.3123 -1.2940
 7087TIP3    H242897   3.098   4.016   1.049 -1.1115 -2.5094 -0.6431
 7088TIP3   OH242898   5.061   4.270   8.725  0.0362 -0.4003  0.4116
 7088TIP3    H142899   5.015   4.351   8.703  1.5341  0.4139  0.1541
 7088TIP3    H242900   5.092   4.282   8.815  2.3359  0.3929 -0.3983
 7089TIP3   OH242901   5.876   1.906   8.155  0.3250 -0.1432 -0.2126
 7089TIP3    H142902   5.952   1.862   8.194  0.4992  1.2872  1.1870
 7089TIP3    H242903   5.903   1.928   8.066  1.5310  0.2542  0.2332
 7090TIP3   OH242904   2.474   2.285   7.414  0.0934  0.1493 -0.3254
 7090TIP3    H142905   2.384   2.293   7.382  0.4135 -0.5298 -1.4349
 7090TIP3    H242906   2.471   2.321   7.503 -0.8752  1.8466 -1.0125
 7091TIP3   OH242907   2.276   1.580   0.858 -0.2091  0.0898  0.3328
 7091TIP3    H142908   2.331   1.516   0.812  0.5635  0.8233  0.1907
 7091TIP3    H242909   2.188   1.564   0.826 -0.1920 -1.4847  0.9696
 7092TIP3   OH242910   4.484   3.146   0.686 -0.3816  0.2773 -0.2452
 7092TIP3    H142911   4.410   3.174   0.632 -1.0414  0.3563  0.6822
 7092TIP3    H242912   4.455   3.063   0.724  0.3007 -0.0570 -0.4436
 7093TIP3   OH242913   4.107   5.536   7.161 -0.1872 -0.6647  0.2738
 7093TIP3    H142914   4.153   5.616   7.135 -0.7986 -0.1838  0.6204
 7093TIP3    H242915   4.115   5.478   7.085  1.1899 -0.7031  0.4229
 7094TIP3   OH242916   2.646   0.558   7.226 -0.3196  0.0821  0.2033
 7094TIP3    H142917   2.608   0.631   7.178  0.1023  0.2267  0.0848
 7094TIP3    H242918   2.605   0.480   7.187  0.4895  0.1526 -0.8548
 7095TIP3   OH242919   1.181   1.827   1.693  0.2374 -0.0271  0.1150
 7095TIP3    H142920   1.087   1.811   1.694  0.4403 -1.4134 -0.2701
 7095TIP3    H242921   1.191   1.919   1.719 -1.1333 -0.2238  1.3998
 7096TIP3   OH242922   5.066   1.036   7.876 -0.4094  0.3264 -0.0970
 7096TIP3    H142923   5.044   1.069   7.789  0.3675 -0.5397 -0.6449
 7096TIP3    H242924   4.986   1.046   7.927 -0.7587  1.2030 -0.7991
 7097TIP3   OH242925   1.643   5.982   2.122 -0.1146  0.2412 -0.0014
 7097TIP3    H142926   1.691   6.042   2.179 -2.0543 -1.0177  3.2284
 7097TIP3    H242927   1.652   5.896   2.165 -2.1390 -0.6774 -1.2868
 7098TIP3   OH242928   6.452   1.964   2.183  0.6553 -0.1210  0.2937
 7098TIP3    H142929   6.523   1.910   2.149  1.2607  0.6547  0.3186
 7098TIP3    H242930   6.407   1.907   2.245  0.3445 -1.1157 -0.7912
 7099TIP3   OH242931   2.135   5.115   2.002 -0.0843 -0.6460 -0.0002
 7099TIP3    H142932   2.200   5.170   2.045  0.5368  0.5153 -2.2955
 7099TIP3    H242933   2.184   5.039   1.971 -0.6889 -1.9156  1.9562
 7100TIP3   OH242934   1.747   5.617   1.146  0.0392  0.0569  0.1039
 7100TIP3    H142935   1.728   5.697   1.098  1.9412  0.6665  0.2640
 7100TIP3    H242936   1.663   5.572   1.152 -1.4136  2.6721  1.1917
 7101TIP3   OH242937   2.730   0.640   2.950  0.3198  0.1604 -0.0553
 7101TIP3    H142938   2.725   0.577   2.878 -1.5246 -1.1829  1.1436
 7101TIP3    H242939   2.688   0.719   2.915  2.8585  0.9350 -1.6478
 7102TIP3   OH242940   4.685   4.907   8.477 -0.1249  0.5808  0.0797
 7102TIP3    H142941   4.605   4.904   8.530  0.7183  0.7991  1.4097
 7102TIP3    H242942   4.691   4.997   8.446  0.9352  1.2940  2.1701
 7103TIP3   OH242943   0.468   1.694   7.849 -0.4945  0.0201  0.8166
 7103TIP3    H142944   0.499   1.698   7.758 -1.5033 -0.9401  0.4057
 7103TIP3    H242945   0.548   1.693   7.902  0.0995  1.2814 -0.0182
 7104TIP3   OH242946   0.137   1.547   1.482 -0.3200 -0.0605 -0.3396
 7104TIP3    H142947   0.114   1.526   1.573 -0.6197  0.3481 -0.3190
 7104TIP3    H242948   0.165   1.639   1.486  0.3528 -0.2525 -0.5381
 7105TIP3   OH242949   3.977   3.537   1.107  0.4976  0.1553 -0.4170
 7105TIP3    H142950   4.004   3.520   1.017  0.9521 -1.6252  0.0287
 7105TIP3    H242951   3.982   3.632   1.116 -1.6004  0.6040 -2.9014
 7106TIP3   OH242952   4.224   5.535   8.253  0.3570  0.0010  0.1164
 7106TIP3    H142953   4.307   5.560   8.211  0.6998  0.8410  1.2167
 7106TIP3    H242954   4.246   5.459   8.307 -0.0802 -1.0703 -1.1628
 7107TIP3   OH242955   5.496   4.923   1.624  0.0388  0.3684  0.3232
 7107TIP3    H142956   5.417   4.975   1.637  0.9865  1.5187  1.8928
 7107TIP3    H242957   5.566   4.987   1.611  0.8501 -0.5874 -0.1902
 7108TIP3   OH242958   1.755   1.675   0.875  0.2487 -0.5341  0.2839
 7108TIP3    H142959   1.722   1.658   0.963 -1.0753  0.9347  0.1136
 7108TIP3    H242960   1.684   1.648   0.817 -0.4501  1.8796 -0.1269
 7109TIP3   OH242961   6.453   6.290   8.650  1.0060 -0.5413  0.0630
 7109TIP3    H142962   6.360   6.289   8.628  1.4613  0.0683 -2.0414
 7109TIP3    H242963   6.467   6.373   8.695  0.8555  0.2444 -1.2905
 7110TIP3   OH242964   3.443   6.680   1.314 -0.3325 -0.0562  0.3122
 7110TIP3    H142965   3.385   6.727   1.254 -1.2162 -1.8927 -0.3506
 7110TIP3    H242966   3.396   6.680   1.397  1.0538  2.8016  1.1887
 7111TIP3   OH242967   3.505   0.652   2.382  0.1246 -0.5345  0.1404
 7111TIP3    H142968   3.416   0.684   2.395  0.2168 -0.0287 -0.4258
 7111TIP3    H242969   3.500   0.558   2.399 -0.6521 -0.6169 -0.5147
 7112TIP3   OH242970   5.429   6.412   7.079  0.1034 -0.5775 -0.0525
 7112TIP3    H142971   5.372   6.452   7.014  0.9727  0.6750 -0.0698
 7112TIP3    H242972   5.449   6.482   7.141  0.4329 -1.3804  0.7749
 7113TIP3   OH242973   5.858   6.826   7.479  0.6204  1.1046  0.3033
 7113TIP3    H142974   5.924   6.853   7.543 -0.8306  1.2542  1.8380
 7113TIP3    H242975   5.820   6.747   7.516  0.2392  0.7702 -0.7699
 7114TIP3   OH242976   3.700   0.830   0.022 -0.3811 -0.5500  0.3527
 7114TIP3    H142977   3.679   0.808   0.113 -0.8725  0.8061  0.5898
 7114TIP3    H242978   3.791   0.859   0.025 -0.9707  1.4201  0.8153
 7115TIP3   OH242979   1.386   5.079   7.164  0.1186  0.2823 -0.5243
 7115TIP3    H142980   1.299   5.038   7.172  1.2565 -2.0788  0.8177
 7115TIP3    H242981   1.420   5.045   7.081  0.0250  0.6901 -0.7318
 7116TIP3   OH242982   3.952   6.420   7.682 -0.2727 -0.5941  0.3643
 7116TIP3    H142983   3.881   6.367   7.647 -0.2934  0.4114 -1.2328
 7116TIP3    H242984   3.921   6.510   7.674  0.8403 -0.1808  0.4239
 7117TIP3   OH242985   4.887   1.068   0.378 -0.3663 -0.6316  0.0346
 7117TIP3    H142986   4.967   1.019   0.399  1.0574 -0.6042 -4.2626
 7117TIP3    H242987   4.918   1.145   0.330 -2.9053  0.2351 -0.3694
 7118TIP3   OH242988   0.072   6.027   1.086  0.0005  0.7008 -0.1071
 7118TIP3    H142989   0.055   6.109   1.039 -0.2541  1.2558  0.9261
 7118TIP3    H242990   0.167   6.026   1.099 -0.1778  1.8486  1.6205
 7119TIP3   OH242991   2.536   6.305   8.543  0.2230  0.3160 -0.0562
 7119TIP3    H142992   2.535   6.390   8.499  1.5904  0.9391  1.0394
 7119TIP3    H242993   2.628   6.289   8.563  0.1261 -1.9375 -1.1460
 7120TIP3   OH242994   3.647   2.380   7.699  0.3108 -0.9587 -0.6724
 7120TIP3    H142995   3.635   2.324   7.622  0.0846  1.5149 -2.5753
 7120TIP3    H242996   3.706   2.449   7.669  2.4098 -1.3152  2.2409
 7121TIP3   OH242997   4.485   0.397   0.374 -0.2111 -0.0438  0.0482
 7121TIP3    H142998   4.407   0.347   0.347 -0.8946  1.5648 -1.0961
 7121TIP3    H242999   4.476   0.406   0.469  0.1177 -2.3270  0.3667
 7122TIP3   OH243000   5.290   1.815   0.540 -0.3923  0.0362  0.1670
 7122TIP3    H143001   5.305   1.861   0.623  0.6430 -0.8441  0.5006
 7122TIP3    H243002   5.236   1.740   0.564 -2.1138  1.0565 -0.3827
 7123TIP3   OH243003   0.330   5.268   6.747 -0.0945  0.5330  0.5631
 7123TIP3    H143004   0.280   5.240   6.823  0.6865 -0.5591  0.7058
 7123TIP3    H243005   0.302   5.208   6.677 -0.0126  0.8204  0.2830
 7124TIP3   OH243006   5.124   3.549   0.543 -0.1063 -0.1885  0.3251
 7124TIP3    H143007   5.116   3.606   0.620 -0.1356  2.2355 -1.3806
 7124TIP3    H243008   5.035   3.545   0.507  0.3853  0.9750 -1.0877
 7125TIP3   OH243009   1.418   5.621   2.412 -0.0642  0.1479  0.0527
 7125TIP3    H143010   1.462   5.575   2.483 -0.0428 -1.3682 -0.9129
 7125TIP3    H243011   1.372   5.553   2.363  0.8960  0.9631 -2.1197
 7126TIP3   OH243012   5.644   6.054   5.936  0.5332  0.0695 -0.1987
 7126TIP3    H143013   5.718   6.112   5.915  1.1593 -0.9505 -0.8872
 7126TIP3    H243014   5.670   6.010   6.017  1.5303 -1.6274 -1.3818
 7127TIP3   OH243015   6.135   1.864   0.286 -0.1412 -0.3494  0.4293
 7127TIP3    H143016   6.070   1.821   0.342 -3.8799  4.6966  0.6114
 7127TIP3    H243017   6.111   1.839   0.197 -0.4774 -0.7576  0.6326
 7128TIP3   OH243018   3.863   3.352   2.488 -0.1644  0.7452  0.3657
 7128TIP3    H143019   3.845   3.299   2.565 -1.5965  0.2719 -0.2618
 7128TIP3    H243020   3.917   3.296   2.432 -0.6921  0.3697  0.2222
 7129TIP3   OH243021   6.675   6.499   8.303 -0.2744 -0.5407 -0.2127
 7129TIP3    H143022   6.684   6.576   8.361  3.2517 -1.1508  0.2780
 7129TIP3    H243023   6.686   6.534   8.215 -0.1123 -0.3073 -0.1008
 7130TIP3   OH243024   2.012   1.548   0.785 -0.1850 -0.4632  0.3870
 7130TIP3    H143025   1.930   1.598   0.783 -0.0524 -0.2585  0.0582
 7130TIP3    H243026   1.991   1.469   0.834 -0.7370 -0.6920 -0.2113
 7131TIP3   OH243027   3.827   2.095   2.739 -0.1882 -0.2769  0.5373
 7131TIP3    H143028   3.883   2.027   2.777 -0.4963 -0.8280  0.0144
 7131TIP3    H243029   3.763   2.115   2.808  0.4396  0.1305  1.0219
 7132TIP3   OH243030   4.066   3.717   0.421 -0.2794 -0.1465 -0.1808
 7132TIP3    H143031   4.155   3.742   0.443 -0.1361  1.0442 -1.8833
 7132TIP3    H243032   4.074   3.675   0.335 -1.2238 -1.1680  0.2066
 7133TIP3   OH243033   3.192   3.658   7.831 -0.2017  0.2650  0.1375
 7133TIP3    H143034   3.214   3.666   7.738 -2.6370 -1.0951 -0.6594
 7133TIP3    H243035   3.194   3.748   7.864 -0.2341  0.8899 -1.4723
 7134TIP3   OH243036   0.424   3.607   7.905 -0.8477 -0.1089 -0.1676
 7134TIP3    H143037   0.451   3.535   7.848 -2.4327 -0.3280 -0.7007
 7134TIP3    H243038   0.502   3.629   7.956  0.2206 -0.8402 -1.4421
 7135TIP3   OH243039   4.695   3.094   2.255 -0.2309 -0.1253 -0.0586
 7135TIP3    H143040   4.750   3.042   2.314  0.6307  0.9796  0.1454
 7135TIP3    H243041   4.698   3.047   2.172 -0.2848 -0.9322  0.3865
 7136TIP3   OH243042   3.437   6.010   2.723 -0.0612  0.3698 -0.1202
 7136TIP3    H143043   3.359   6.006   2.667 -1.0298 -0.4161  1.2020
 7136TIP3    H243044   3.432   5.930   2.775  2.0520 -0.0463 -0.4890
 7137TIP3   OH243045   1.786   5.008   8.335  0.2320  0.2626 -0.0707
 7137TIP3    H143046   1.833   5.059   8.401  0.0568  0.9294 -0.4508
 7137TIP3    H243047   1.694   5.013   8.362  0.3304 -0.8353  0.5364
 7138TIP3   OH243048   3.449   3.494   0.885  0.2871 -0.9831 -0.3661
 7138TIP3    H143049   3.493   3.578   0.897 -1.8400 -0.0670  1.8965
 7138TIP3    H243050   3.403   3.502   0.802 -0.0070  0.1826 -0.1046
 7139TIP3   OH243051   1.123   3.300   0.450 -0.2290  0.9674 -1.5300
 7139TIP3    H143052   1.133   3.386   0.409  0.2724  1.3710 -0.5889
 7139TIP3    H243053   1.213   3.273   0.470 -0.4377  0.5589 -1.1391
 7140TIP3   OH243054   4.887   0.855   1.962 -0.4872 -0.0852 -0.0355
 7140TIP3    H143055   4.829   0.906   2.019 -0.8824 -1.7778  1.1536
 7140TIP3    H243056   4.838   0.776   1.942  1.2832 -1.4865  0.8287
 7141TIP3   OH243057   3.949   5.637   1.819  0.6220 -0.0419  0.1727
 7141TIP3    H143058   3.912   5.551   1.801  1.0103 -0.0722 -0.5175
 7141TIP3    H243059   3.913   5.694   1.751 -0.2827  0.5349  1.1125
 7142TIP3   OH243060   6.532   3.219   0.224 -1.1204 -0.9030  0.1657
 7142TIP3    H143061   6.497   3.185   0.306 -2.1082  0.4331  0.3327
 7142TIP3    H243062   6.455   3.242   0.172 -0.5063 -1.6475 -1.1123
 7143TIP3   OH243063   5.402   2.594   0.630 -0.6491 -0.4051  0.5324
 7143TIP3    H143064   5.317   2.584   0.672 -1.7337  0.3141 -1.3650
 7143TIP3    H243065   5.397   2.538   0.552  1.1851 -1.4864  1.1190
 7144TIP3   OH243066   1.322   5.870   2.643 -0.5938 -0.2826 -0.1763
 7144TIP3    H143067   1.415   5.877   2.662 -0.9170 -0.6468  1.6584
 7144TIP3    H243068   1.319   5.852   2.549  1.2007 -0.8140 -0.1746
 7145TIP3   OH243069   0.956   3.596   7.276  0.6268 -0.4273  0.0925
 7145TIP3    H143070   0.910   3.633   7.351 -0.1719 -1.3558  0.0759
 7145TIP3    H243071   0.889   3.546   7.229  0.8976  0.7328 -1.6676
 7146TIP3   OH243072   1.978   4.495   1.394 -0.2310 -0.2827 -0.6583
 7146TIP3    H143073   2.031   4.530   1.466  0.1790 -0.2319 -0.9770
 7146TIP3    H243074   1.912   4.561   1.377  0.5119  0.3308 -1.2307
 7147TIP3   OH243075   2.156   6.491   7.834 -0.0319 -0.4837 -0.1047
 7147TIP3    H143076   2.239   6.535   7.851 -1.1198  1.6374  0.0866
 7147TIP3    H243077   2.137   6.512   7.742 -0.8585 -0.0175  0.1621
 7148TIP3   OH243078   6.253   0.256   0.882  0.2685 -0.0954 -0.0686
 7148TIP3    H143079   6.297   0.207   0.951 -0.4670 -1.2214 -0.3662
 7148TIP3    H243080   6.323   0.305   0.839  0.7689  0.4385  1.3121
 7149TIP3   OH243081   3.914   0.704   0.263 -0.4219  0.4063  0.4116
 7149TIP3    H143082   3.959   0.666   0.338 -0.4919  1.5078  1.0285
 7149TIP3    H243083   3.826   0.667   0.267 -0.0392 -0.5807  0.0734
 7150TIP3   OH243084   2.338   5.486   8.681 -0.2657 -0.1140 -0.0420
 7150TIP3    H143085   2.324   5.409   8.626 -0.4227 -1.6174  1.9802
 7150TIP3    H243086   2.289   5.556   8.638  0.8705 -0.7830 -2.5923
 7151TIP3   OH243087   1.282   6.625   8.132  0.1645  0.3544 -0.4572
 7151TIP3    H143088   1.332   6.632   8.050 -1.7104 -0.1232 -1.7235
 7151TIP3    H243089   1.226   6.702   8.132 -0.8679 -0.3745 -0.3815
 7152TIP3   OH243090   6.694   1.281   2.440 -0.3145  0.1297  0.4693
 7152TIP3    H143091   6.742   1.347   2.491 -1.2719  0.5661  0.8305
 7152TIP3    H243092   6.751   1.204   2.441  2.0432  1.6756 -2.1110
 7153TIP3   OH243093   1.812   2.419   2.436  0.4218 -0.2030 -0.1183
 7153TIP3    H143094   1.862   2.497   2.416  0.6587 -0.6339 -1.2971
 7153TIP3    H243095   1.874   2.360   2.478  0.3860  0.0249  0.2554
 7154TIP3   OH243096   5.591   6.228   0.191  0.2441  0.0224 -0.2233
 7154TIP3    H143097   5.672   6.225   0.140  0.5120  2.1849  0.0076
 7154TIP3    H243098   5.567   6.136   0.203  1.8053 -0.6124 -1.6413
 7155TIP3   OH243099   4.241   1.410   1.216  0.1408  0.4686 -0.2640
 7155TIP3    H143100   4.158   1.398   1.171 -1.5440  1.6401  2.3158
 7155TIP3    H243101   4.270   1.498   1.192 -0.1652  0.6429 -0.0071
 7156TIP3   OH243102   6.044   6.053   0.710 -0.0719 -0.4715  0.0411
 7156TIP3    H143103   6.090   5.977   0.743  0.7317  0.0824  0.2263
 7156TIP3    H243104   6.050   6.118   0.780 -2.0037 -0.7023  0.4774
 7157TIP3   OH243105   6.867   1.333   2.084  0.2548 -0.3905  0.0845
 7157TIP3    H143106   6.865   1.301   2.174  0.8526 -0.6778  0.0053
 7157TIP3    H243107   6.884   1.427   2.092  2.0488 -0.6948  0.2440
 7158TIP3   OH243108   5.358   5.674   2.442  0.6716  0.5002  0.2030
 7158TIP3    H143109   5.314   5.717   2.515  0.5676 -0.9852  1.0617
 7158TIP3    H243110   5.286   5.640   2.388  0.7054 -1.1494  1.1311
 7159TIP3   OH243111   5.514   1.820   8.453  0.3015  0.5226  0.0582
 7159TIP3    H143112   5.554   1.879   8.517 -1.0186  0.2050  1.2497
 7159TIP3    H243113   5.420   1.833   8.465 -0.2452 -3.8182  2.4676
 7160TIP3   OH243114   0.349   4.538   0.920 -0.3854 -0.5031 -0.2309
 7160TIP3    H143115   0.345   4.631   0.898  1.1188 -0.3737 -0.0740
 7160TIP3    H243116   0.273   4.523   0.976 -0.3210  0.7819  0.2395
 7161TIP3   OH243117   0.347   1.241   0.854 -0.0572  0.0633 -0.2801
 7161TIP3    H143118   0.298   1.228   0.935  1.9279  2.2427  1.4238
 7161TIP3    H243119   0.415   1.174   0.856  0.9270  1.0415  0.7265
 7162TIP3   OH243120   2.787   1.943   8.701 -0.0841  0.5537  0.3626
 7162TIP3    H143121   2.724   1.905   8.762 -0.6353  0.2734 -0.3655
 7162TIP3    H243122   2.841   1.869   8.672 -0.6982  0.4326 -0.5126
 7163TIP3   OH243123   3.222   6.367   8.468 -0.5683  0.0587  0.2368
 7163TIP3    H143124   3.268   6.283   8.464 -2.4013 -1.0474  1.0982
 7163TIP3    H243125   3.261   6.419   8.398  1.7849 -0.8721  0.7561
 7164TIP3   OH243126   0.449   4.791   0.556  0.1733 -0.4382  0.1533
 7164TIP3    H143127   0.391   4.795   0.633  0.1145 -1.1217  0.1454
 7164TIP3    H243128   0.480   4.881   0.546  0.7239 -0.4634  1.3918
 7165TIP3   OH243129   2.841   0.421   2.031  0.0756 -0.2814 -0.0231
 7165TIP3    H143130   2.830   0.351   2.095 -0.2374 -0.5302 -0.3392
 7165TIP3    H243131   2.885   0.491   2.079 -2.7230  0.7034  1.3041
 7166TIP3   OH243132   3.522   3.142   1.278  0.6235  0.2412 -0.2078
 7166TIP3    H143133   3.562   3.214   1.327 -0.7430  0.1095  1.2097
 7166TIP3    H243134   3.503   3.076   1.344 -2.6418  0.6555 -0.5658
 7167TIP3   OH243135   0.482   0.464   1.812 -0.2690  0.1569  0.2179
 7167TIP3    H143136   0.482   0.559   1.809  2.1148  0.2008  0.0205
 7167TIP3    H243137   0.406   0.439   1.759 -1.5588  1.9201  1.1396
 7168TIP3   OH243138   5.692   2.899   1.283 -0.5998 -0.9478  0.1208
 7168TIP3    H143139   5.776   2.881   1.324  0.4420 -2.0146 -2.3050
 7168TIP3    H243140   5.703   2.984   1.241 -0.6604 -1.1546 -0.3238
 7169TIP3   OH243141   3.417   4.088   2.133 -0.0466 -0.7400 -0.3319
 7169TIP3    H143142   3.464   4.160   2.090 -0.2621  0.2718  1.0523
 7169TIP3    H243143   3.341   4.130   2.174  0.6319 -1.4425  1.8059
 7170TIP3   OH243144   4.117   4.711   0.792  0.1616 -0.4174  0.8742
 7170TIP3    H143145   4.152   4.786   0.839 -0.2490  1.5420 -1.7323
 7170TIP3    H243146   4.141   4.635   0.846  2.1540  1.3994  2.7149
 7171TIP3   OH243147   6.512   2.184   0.946 -0.0472  0.5305  0.1670
 7171TIP3    H143148   6.560   2.111   0.984  0.2299  0.3498 -0.5181
 7171TIP3    H243149   6.431   2.146   0.912  1.1553  0.0254 -2.4095
 7172TIP3   OH243150   1.014   0.881   1.111  0.5209 -0.3176 -0.2749
 7172TIP3    H143151   1.105   0.856   1.099  0.3206 -1.0917 -0.2615
 7172TIP3    H243152   0.984   0.826   1.184  0.3774  0.7993  0.5358
 7173TIP3   OH243153   0.064   3.587   7.459 -0.3132 -0.5156  0.0367
 7173TIP3    H143154   0.003   3.643   7.507 -1.1785 -1.4181  0.0080
 7173TIP3    H243155   0.063   3.621   7.370  0.0496  0.1355  0.2725
 7174TIP3   OH243156   1.043   1.627   2.015 -0.3408  0.2863  0.1669
 7174TIP3    H143157   1.135   1.647   1.996 -0.4559  2.3719  1.5671
 7174TIP3    H243158   1.043   1.600   2.107 -0.9885 -0.9778 -0.1824
 7175TIP3   OH243159   4.525   2.296   8.249  0.0277  0.2606 -0.5191
 7175TIP3    H143160   4.501   2.381   8.213 -0.9866 -0.1083 -0.7762
 7175TIP3    H243161   4.609   2.310   8.292  0.2843  1.1830 -1.2963
 7176TIP3   OH243162   3.796   1.469   1.521 -0.6614  0.2157 -0.2891
 7176TIP3    H143163   3.884   1.452   1.556 -0.7507 -0.8831 -0.5503
 7176TIP3    H243164   3.738   1.456   1.596 -0.5593  1.8483  0.1166
 7177LIG     O143165   4.790   5.815   6.373 -0.0895 -0.0933  0.2467
 7177LIG     O243166   5.136   6.113   6.361 -0.1527  0.0829 -0.3530
 7177LIG     N143167   5.043   6.050   6.157  0.2185  0.2741 -0.0517
 7177LIG     N243168   4.774   5.834   6.085  0.0614 -0.4037 -0.1384
 7177LIG     N343169   4.969   5.956   6.370 -0.5955 -0.9535  0.1391
 7177LIG     N443170   4.921   5.966   5.966  0.2608  0.2048 -0.5397
 7177LIG     C143171   4.865   5.886   6.175  0.3255  0.0690 -0.7655
 7177LIG     C243172   4.958   5.962   6.097  0.2471  0.5415  0.2753
 7177LIG     C343173   4.871   5.881   6.309 -0.1795 -0.1210  0.6663
 7177LIG     C443174   5.056   6.045   6.303 -0.6298 -0.3090 -0.2400
 7177LIG     C543175   4.816   5.884   5.964  0.0787 -0.1893 -0.3015
 7177LIG     C643176   5.140   6.140   6.087  0.0796 -0.2220  0.6740
 7177LIG     C743177   4.661   5.745   6.102 -0.6690  0.4386  0.5152
 7177LIG     C843178   4.975   5.949   6.520 -0.3021 -0.4876 -0.3512
 7177LIG     H143179   4.750   5.856   5.882  0.4162 -3.3095  0.3518
 7177LIG     H243180   5.109   6.246   6.104 -2.3069 -0.5014 -1.3467
 7177LIG     H343181   5.133   6.118   5.978 -0.2259  0.3211  0.5788
 7177LIG     H443182   5.246   6.136   6.120 -0.1367  2.3763  1.9497
 7177LIG     H543183   4.684   5.658   6.166  0.5926  0.6725  0.4064
 7177LIG     H643184   4.624   5.713   6.002  0.8323  2.8984 -0.9215
 7177LIG     H743185   4.568   5.793   6.141  0.1287  2.3261  0.2361
 7177LIG     H843186   4.881   5.984   6.567 -0.6662 -1.0262 -0.6721
 7177LIG     H943187   5.058   6.008   6.566 -1.2498  1.2483 -0.7720
 7177LIG    H1043188   4.984   5.844   6.555  0.3903  0.0232  1.0678
   6.87167   6.87167   8.72707
