Title
43188
    1CHL1    C3    1   1.958   5.660   6.020  0.7870 -1.0895 -0.0700
    1CHL1    H3    2   1.969   5.549   6.020  2.0456 -0.9897 -0.5041
    1CHL1    O3    3   1.887   5.713   6.135 -0.5663  0.1938  0.1796
    1CHL1   H3'    4   1.808   5.659   6.142 -1.6779  1.8779  1.5224
    1CHL1    C4    5   2.109   5.713   6.020 -0.5741 -0.1828 -0.3350
    1CHL1   H4A    6   2.121   5.818   6.054  4.8498  0.0378 -1.9804
    1CHL1   H4B    7   2.157   5.656   6.103 -1.6447  2.4841  2.2859
    1CHL1    C5    8   2.186   5.709   5.889  0.4779 -0.1256  0.5725
    1CHL1    C6    9   2.306   5.653   5.874  0.3693  0.2905 -0.2195
    1CHL1    H6   10   2.342   5.588   5.954 -0.7752 -0.8345 -0.5974
    1CHL1    C7   11   2.391   5.674   5.753  0.2506  0.2462 -0.4587
    1CHL1   H7A   12   2.493   5.711   5.776  0.3121  0.7411 -1.4927
    1CHL1   H7B   13   2.412   5.579   5.698 -0.6083  0.1139 -0.5736
    1CHL1    C8   14   2.323   5.769   5.644  0.3340 -0.1679 -0.1956
    1CHL1    H8   15   2.341   5.875   5.670  0.8528 -0.1172 -0.7247
    1CHL1   C14   16   2.379   5.745   5.497 -0.5853  0.5322 -1.0596
    1CHL1   H14   17   2.351   5.642   5.468  2.8225 -0.9378  0.3409
    1CHL1   C15   18   2.529   5.728   5.488 -0.2898 -0.0407 -0.0206
    1CHL1  H15A   19   2.567   5.811   5.552  0.4118  1.4462 -2.2695
    1CHL1  H15B   20   2.574   5.635   5.528  0.2343  0.1613 -0.1302
    1CHL1   C16   21   2.550   5.746   5.340  0.9785 -0.7613  0.2902
    1CHL1  H16A   22   2.627   5.825   5.328  2.8871 -2.6541 -0.4722
    1CHL1  H16B   23   2.574   5.647   5.297 -1.8767 -0.7003 -1.7583
    1CHL1   C17   24   2.415   5.784   5.271  0.6044 -0.5126 -0.0958
    1CHL1   H17   25   2.371   5.685   5.245  0.7970 -0.1927 -1.7249
    1CHL1   C13   26   2.325   5.837   5.386  0.2950 -0.1511 -0.1396
    1CHL1   C18   27   2.355   5.980   5.422  0.5946 -0.2807 -0.2350
    1CHL1  H18A   28   2.310   6.041   5.341 -1.6501 -1.8698 -0.2768
    1CHL1  H18B   29   2.311   6.012   5.519  0.5932 -0.7801 -0.0663
    1CHL1  H18C   30   2.464   5.985   5.439  0.2266 -0.9674  2.9690
    1CHL1   C12   31   2.173   5.809   5.369 -0.1226 -0.1188  0.1571
    1CHL1  H12A   32   2.135   5.895   5.310  0.0686 -0.1224  0.0287
    1CHL1  H12B   33   2.154   5.712   5.318 -0.4839  0.6906 -1.2974
    1CHL1   C11   34   2.102   5.822   5.505  0.2944 -0.3920 -0.9443
    1CHL1  H11A   35   2.106   5.928   5.537  0.6547 -0.6695 -0.0359
    1CHL1  H11B   36   1.998   5.785   5.501 -0.0534  0.0703  1.7374
    1CHL1    C9   37   2.165   5.747   5.627 -0.6390 -0.2297  0.4720
    1CHL1    H9   38   2.164   5.639   5.602  0.7340 -0.5271  1.5676
    1CHL1   C10   39   2.103   5.769   5.768 -0.1929  0.1272  0.3221
    1CHL1   C19   40   2.087   5.920   5.787  0.6967 -0.4086  0.6730
    1CHL1  H19A   41   2.188   5.966   5.771  0.0862  0.2196 -1.9066
    1CHL1  H19B   42   2.023   5.967   5.709  2.1953 -1.1494 -1.1009
    1CHL1  H19C   43   2.042   5.948   5.884 -0.4998 -1.7267  0.5204
    1CHL1    C1   44   1.960   5.701   5.761  0.8246 -0.1786 -0.4222
    1CHL1   H1A   45   1.892   5.754   5.691  0.6837 -0.4924 -0.5257
    1CHL1   H1B   46   1.956   5.595   5.728  1.7430  0.0563 -1.3051
    1CHL1    C2   47   1.878   5.703   5.894 -0.3240 -0.1638  0.6286
    1CHL1   H2A   48   1.783   5.646   5.887 -0.6505  0.3974  0.4267
    1CHL1   H2B   49   1.849   5.809   5.909  2.2069  0.8241 -0.8940
    1CHL1   C20   50   2.434   5.870   5.145 -0.0976  0.0145 -0.0240
    1CHL1   H20   51   2.473   5.967   5.182 -2.0484  0.2594  1.6051
    1CHL1   C21   52   2.301   5.910   5.071 -0.4838  0.3679 -0.1111
    1CHL1  H21A   53   2.244   5.817   5.050  0.2729  0.0438 -0.7746
    1CHL1  H21B   54   2.330   5.964   4.978  0.5386  0.9932  0.5491
    1CHL1  H21C   55   2.240   5.984   5.127 -1.0436 -0.7187  0.7434
    1CHL1   C22   56   2.529   5.805   5.049 -0.4295  0.6730 -0.2947
    1CHL1  H22A   57   2.527   5.868   4.958 -1.3363  0.1163 -0.6762
    1CHL1  H22B   58   2.630   5.790   5.092 -0.6243 -0.7090 -0.2718
    1CHL1   C23   59   2.487   5.663   5.002 -0.1077  0.3724 -0.0297
    1CHL1  H23A   60   2.486   5.591   5.086 -0.3506 -0.1863 -0.5017
    1CHL1  H23B   61   2.385   5.666   4.957  0.1396  0.0497 -0.6210
    1CHL1   C24   62   2.591   5.615   4.892  0.2684  0.4053  0.0724
    1CHL1  H24A   63   2.581   5.696   4.816 -0.7337 -0.1696 -0.4296
    1CHL1  H24B   64   2.688   5.625   4.945  0.7395  1.0761 -0.8728
    1CHL1   C25   65   2.563   5.476   4.823 -0.2316 -0.4252  0.4231
    1CHL1   H25   66   2.581   5.383   4.882  1.5498 -1.3387 -1.4463
    1CHL1   C26   67   2.420   5.465   4.768 -0.1665 -0.4674  0.0647
    1CHL1  H26A   68   2.416   5.377   4.700  3.5476 -0.5187 -0.3014
    1CHL1  H26B   69   2.332   5.462   4.835 -1.3688 -0.1000 -1.4403
    1CHL1  H26C   70   2.404   5.555   4.704  1.3687 -1.9995 -2.6259
    1CHL1   C27   71   2.667   5.464   4.707 -0.3662  0.3623 -0.5597
    1CHL1  H27A   72   2.636   5.389   4.630 -1.2770  0.3483 -0.1960
    1CHL1  H27B   73   2.691   5.563   4.662  0.9965 -0.1871 -1.0829
    1CHL1  H27C   74   2.760   5.419   4.747 -0.5800 -0.4884 -0.9942
    2CHL1    C3   75   0.298   5.152   5.906  0.1227 -0.7157 -0.4670
    2CHL1    H3   76   0.215   5.086   5.872  0.3566 -1.3194  0.1023
    2CHL1    O3   77   0.317   5.134   6.045  0.3144  0.1626  0.3357
    2CHL1   H3'   78   0.359   5.214   6.077  3.5931 -0.2133 -2.4168
    2CHL1    C4   79   0.426   5.111   5.835 -0.7530 -0.2993  0.5715
    2CHL1   H4A   80   0.510   5.171   5.875  1.4360 -0.6244 -3.0511
    2CHL1   H4B   81   0.449   5.005   5.861  0.1629  0.1089  1.5066
    2CHL1    C5   82   0.418   5.130   5.688 -0.1173  0.1416 -1.1301
    2CHL1    C6   83   0.424   5.022   5.609 -0.0496 -0.2675  0.3847
    2CHL1    H6   84   0.442   4.919   5.645 -1.9704 -1.1500 -0.9792
    2CHL1    C7   85   0.419   5.049   5.459  0.1972 -0.5410 -0.2079
    2CHL1   H7A   86   0.471   4.973   5.397  0.7428 -0.9419  0.7066
    2CHL1   H7B   87   0.316   5.046   5.418  0.6622  2.1488 -1.8261
    2CHL1    C8   88   0.464   5.191   5.416 -0.2382 -0.4374 -0.0267
    2CHL1    H8   89   0.572   5.205   5.439 -0.1872 -1.1590  0.1854
    2CHL1   C14   90   0.447   5.207   5.267 -0.0259 -0.7605  1.0013
    2CHL1   H14   91   0.337   5.197   5.254 -0.0003  0.2357 -0.1524
    2CHL1   C15   92   0.519   5.126   5.157 -0.0823 -0.4020 -0.1628
    2CHL1  H15A   93   0.626   5.101   5.176 -0.1105  0.1181  0.7302
    2CHL1  H15B   94   0.474   5.025   5.140 -0.7932 -0.3920  1.4780
    2CHL1   C16   95   0.501   5.214   5.023  0.7690  0.1000 -0.2439
    2CHL1  H16A   96   0.600   5.227   4.974  1.2699  4.6452  1.4775
    2CHL1  H16B   97   0.419   5.158   4.972 -0.6227  1.5901  0.2597
    2CHL1   C17   98   0.443   5.345   5.072  0.6345  0.4034 -0.0326
    2CHL1   H17   99   0.333   5.337   5.062  0.8044 -2.2857 -0.5609
    2CHL1   C13  100   0.460   5.357   5.224 -0.6015  0.3926 -0.0297
    2CHL1   C18  101   0.606   5.416   5.248  0.2100  0.4240 -0.1724
    2CHL1  H18A  102   0.640   5.396   5.352 -0.2749  0.5522  0.0156
    2CHL1  H18B  103   0.674   5.354   5.186  0.7461  0.3322  0.4993
    2CHL1  H18C  104   0.613   5.522   5.216 -3.0236  1.5897  2.3574
    2CHL1   C12  105   0.358   5.448   5.289  0.7660  0.1537  0.1498
    2CHL1  H12A  106   0.362   5.552   5.252 -0.9910 -0.5034 -2.1327
    2CHL1  H12B  107   0.262   5.410   5.249  0.7067  1.9530 -1.5087
    2CHL1   C11  108   0.372   5.442   5.444  0.2398 -0.1316  0.1911
    2CHL1  H11A  109   0.459   5.503   5.475 -0.1057  0.1198  0.6728
    2CHL1  H11B  110   0.284   5.485   5.496  0.1221 -1.9562  1.6006
    2CHL1    C9  111   0.375   5.294   5.495  0.1971 -0.0796  0.1001
    2CHL1    H9  112   0.271   5.258   5.482  0.2252 -0.3711  0.6583
    2CHL1   C10  113   0.398   5.278   5.648  0.6334 -0.6339 -0.2819
    2CHL1   C19  114   0.523   5.362   5.683 -0.5704  0.1733  0.0841
    2CHL1  H19A  115   0.617   5.324   5.638 -1.2395  1.0353 -2.1714
    2CHL1  H19B  116   0.512   5.471   5.662 -0.0743  0.3944  0.8898
    2CHL1  H19C  117   0.544   5.351   5.792 -2.2757  0.9544  0.5297
    2CHL1    C1  118   0.284   5.350   5.729  0.3576  0.3098  0.1251
    2CHL1   H1A  119   0.289   5.459   5.707  1.4880 -0.0509 -1.6920
    2CHL1   H1B  120   0.189   5.305   5.693  0.7749 -1.1705  0.8181
    2CHL1    C2  121   0.283   5.310   5.879  0.6496 -0.5473 -0.4669
    2CHL1   H2A  122   0.190   5.341   5.932  1.5444 -0.3467  1.0321
    2CHL1   H2B  123   0.373   5.355   5.925  0.6926  0.3072 -1.3461
    2CHL1   C20  124   0.470   5.471   4.983 -0.4885 -0.3254 -0.6068
    2CHL1   H20  125   0.458   5.561   5.047 -1.7882 -0.0608 -1.2037
    2CHL1   C21  126   0.349   5.481   4.883 -0.6993  0.5741 -0.0522
    2CHL1  H21A  127   0.347   5.399   4.808 -2.5267 -0.5359  1.1130
    2CHL1  H21B  128   0.347   5.584   4.842  1.2287  0.7409  0.1520
    2CHL1  H21C  129   0.258   5.463   4.945 -1.0537  0.1957 -0.6723
    2CHL1   C22  130   0.609   5.477   4.914  0.6135  0.0666  0.1207
    2CHL1  H22A  131   0.676   5.417   4.980 -0.2799  0.8119  1.7526
    2CHL1  H22B  132   0.616   5.430   4.814  2.4403  0.8408 -0.1570
    2CHL1   C23  133   0.668   5.619   4.891  0.0668  0.4508  0.2751
    2CHL1  H23A  134   0.589   5.675   4.837  2.3902  1.1772 -2.5989
    2CHL1  H23B  135   0.691   5.656   4.994  1.4688 -2.0783  0.9435
    2CHL1   C24  136   0.791   5.630   4.805 -0.5737  0.0765 -0.0517
    2CHL1  H24A  137   0.877   5.570   4.841  0.4830  2.2354  1.2030
    2CHL1  H24B  138   0.768   5.608   4.698  1.6103 -0.6165 -0.4232
    2CHL1   C25  139   0.843   5.778   4.803  0.4065 -0.5198  1.0391
    2CHL1   H25  140   0.762   5.840   4.758  2.9030  1.1890 -1.4762
    2CHL1   C26  141   0.868   5.844   4.938  0.0725  0.3131 -0.0387
    2CHL1  H26A  142   0.776   5.864   4.999  1.2462 -0.7714  2.2348
    2CHL1  H26B  143   0.937   5.783   5.000 -0.6370  0.9326  1.4352
    2CHL1  H26C  144   0.904   5.948   4.927  1.2298 -0.1902 -1.2220
    2CHL1   C27  145   0.969   5.788   4.714 -0.4062  0.6328 -0.6081
    2CHL1  H27A  146   0.960   5.762   4.607  1.8041 -0.5508 -0.5833
    2CHL1  H27B  147   1.013   5.890   4.716 -0.3069  0.5890 -0.5268
    2CHL1  H27C  148   1.047   5.717   4.751 -2.0514 -1.6758 -1.3537
    3CHL1    C3  149   0.100   4.801   5.773  0.0262 -0.5704  0.2594
    3CHL1    H3  150   0.190   4.864   5.757 -0.6580 -0.0513 -1.8519
    3CHL1    O3  151   0.055   4.788   5.904  0.6097 -0.0727 -0.1060
    3CHL1   H3'  152   0.128   4.768   5.962 -1.8587  0.6720  3.5839
    3CHL1    C4  153  -0.008   4.881   5.697  1.1226 -1.0956  0.8121
    3CHL1   H4A  154  -0.107   4.837   5.720 -0.5846  2.9147  1.9607
    3CHL1   H4B  155  -0.015   4.981   5.745  0.0289 -1.2382  0.9684
    3CHL1    C5  156   0.020   4.899   5.548  0.6730 -0.3390 -0.1415
    3CHL1    C6  157   0.015   5.018   5.478 -0.0447 -0.0898 -0.0273
    3CHL1    H6  158  -0.010   5.112   5.531 -1.0858 -0.0365 -0.5836
    3CHL1    C7  159   0.023   5.024   5.322  0.5434 -0.0995  0.2736
    3CHL1   H7A  160  -0.067   5.075   5.282  0.5975  1.0797  1.5869
    3CHL1   H7B  161   0.111   5.087   5.299 -0.8329  1.9031  0.2775
    3CHL1    C8  162   0.048   4.890   5.254 -0.7572 -0.3730 -0.6878
    3CHL1    H8  163  -0.055   4.863   5.222 -1.1337  0.7143 -0.4347
    3CHL1   C14  164   0.129   4.913   5.122 -0.6749 -0.4170  0.4949
    3CHL1   H14  165   0.225   4.959   5.154 -0.5727  0.0090 -0.4121
    3CHL1   C15  166   0.069   5.027   5.028 -0.8859 -0.4744 -0.0433
    3CHL1  H15A  167  -0.042   5.016   5.025 -0.7393 -2.2415 -0.2186
    3CHL1  H15B  168   0.087   5.133   5.056  0.0201 -1.0587  1.7356
    3CHL1   C16  169   0.136   4.995   4.890 -0.6768  0.0662  0.2188
    3CHL1  H16A  170   0.044   4.989   4.829 -1.3556  1.6788  1.0231
    3CHL1  H16B  171   0.201   5.078   4.854 -0.3792 -0.2478  0.0271
    3CHL1   C17  172   0.217   4.857   4.907  0.1473 -0.8536 -0.8494
    3CHL1   H17  173   0.320   4.880   4.939 -0.4246 -1.0485  1.3163
    3CHL1   C13  174   0.150   4.791   5.031 -0.4116  0.1119 -0.3453
    3CHL1   C18  175   0.016   4.725   4.986 -0.1655 -0.4302  0.3610
    3CHL1  H18A  176  -0.043   4.711   5.079 -1.7683  1.2152 -0.3607
    3CHL1  H18B  177  -0.040   4.796   4.922  0.7127  0.3736  0.4659
    3CHL1  H18C  178   0.024   4.629   4.931  0.8665 -1.0434  1.5283
    3CHL1   C12  179   0.231   4.689   5.120 -0.4749 -0.1008 -0.1900
    3CHL1  H12A  180   0.242   4.589   5.074 -1.9289 -0.5271  0.3303
    3CHL1  H12B  181   0.331   4.733   5.140 -1.7055  1.8774  2.2399
    3CHL1   C11  182   0.165   4.658   5.262 -0.0564 -0.3018 -0.1381
    3CHL1  H11A  183   0.072   4.603   5.236 -0.6926 -0.6197  2.4887
    3CHL1  H11B  184   0.235   4.595   5.322 -1.4003  1.1412  3.2222
    3CHL1    C9  185   0.122   4.788   5.335  0.0161  0.4454 -0.6386
    3CHL1    H9  186   0.221   4.836   5.351 -0.6522  1.4223  0.8200
    3CHL1   C10  187   0.056   4.767   5.473 -1.0041 -0.3297  0.3488
    3CHL1   C19  188  -0.079   4.689   5.457  0.6588  0.1872  0.2584
    3CHL1  H19A  189  -0.049   4.588   5.421 -1.0221 -0.0746 -0.4801
    3CHL1  H19B  190  -0.138   4.672   5.550 -0.7171 -2.4723 -0.9832
    3CHL1  H19C  191  -0.141   4.743   5.383  2.4105  1.9308 -0.0301
    3CHL1    C1  192   0.159   4.683   5.559  0.3586  0.0847  0.4014
    3CHL1   H1A  193   0.166   4.582   5.512 -1.2894 -0.0139  0.2897
    3CHL1   H1B  194   0.252   4.744   5.558  0.3035  0.1666  0.0961
    3CHL1    C2  195   0.129   4.664   5.711 -0.0210 -0.0694  0.6801
    3CHL1   H2A  196   0.212   4.618   5.768  1.0168  0.9429  0.0250
    3CHL1   H2B  197   0.042   4.594   5.718 -0.7535  0.5597 -1.3075
    3CHL1   C20  198   0.230   4.774   4.784 -0.2731 -0.4878  0.3943
    3CHL1   H20  199   0.135   4.726   4.752  0.0122  0.6862 -2.4676
    3CHL1   C21  200   0.329   4.659   4.808 -0.7782  0.5184  0.4308
    3CHL1  H21A  201   0.337   4.593   4.719 -2.2370  1.9635 -0.8549
    3CHL1  H21B  202   0.304   4.592   4.892  0.0610  1.1947  1.2462
    3CHL1  H21C  203   0.428   4.697   4.842  0.4872 -3.4184  1.6968
    3CHL1   C22  204   0.278   4.860   4.665 -0.4345 -0.4377  0.3978
    3CHL1  H22A  205   0.269   4.802   4.570 -0.5881 -0.1621  0.2424
    3CHL1  H22B  206   0.211   4.948   4.651  0.4388  0.2865  0.6544
    3CHL1   C23  207   0.430   4.893   4.665 -0.7456  0.0493 -0.2935
    3CHL1  H23A  208   0.452   4.926   4.769 -1.9511 -0.3237  0.0934
    3CHL1  H23B  209   0.495   4.804   4.649  0.7754  0.3895  3.0836
    3CHL1   C24  210   0.460   5.013   4.569 -0.0003 -0.0171 -0.1503
    3CHL1  H24A  211   0.415   4.994   4.469  0.8337  0.3557 -0.6047
    3CHL1  H24B  212   0.421   5.105   4.617  0.9331 -0.7992  2.2629
    3CHL1   C25  213   0.608   5.050   4.553 -0.2140 -0.2293 -0.9501
    3CHL1   H25  214   0.625   5.135   4.484 -2.4476 -0.3520 -1.7242
    3CHL1   C26  215   0.677   5.085   4.689 -0.3774 -0.5916 -0.3994
    3CHL1  H26A  216   0.777   5.127   4.664 -2.1887  3.2471 -1.9991
    3CHL1  H26B  217   0.623   5.162   4.749 -0.5848 -1.6253  0.7850
    3CHL1  H26C  218   0.686   4.998   4.758  3.0695 -0.9190 -1.1069
    3CHL1   C27  219   0.684   4.923   4.494 -0.3947  0.7807 -0.1801
    3CHL1  H27A  220   0.688   4.839   4.567 -2.2981  0.2886 -0.5976
    3CHL1  H27B  221   0.621   4.890   4.409 -2.6257  0.9206  1.3202
    3CHL1  H27C  222   0.788   4.943   4.459  0.7588  2.5171  3.6395
    4CHL1    C3  223   0.696   4.728   5.630  0.4677 -0.1447  0.4352
    4CHL1    H3  224   0.713   4.837   5.618 -0.7071  0.1304  1.0660
    4CHL1    O3  225   0.628   4.706   5.753 -0.1430  0.2576  0.8526
    4CHL1   H3'  226   0.675   4.761   5.816  2.2280  0.9173 -1.3539
    4CHL1    C4  227   0.606   4.669   5.514 -0.3432  0.4245 -0.1075
    4CHL1   H4A  228   0.572   4.569   5.548  1.0843  0.2004  0.7513
    4CHL1   H4B  229   0.515   4.732   5.517 -1.0745 -0.3646 -3.0275
    4CHL1    C5  230   0.672   4.679   5.377 -0.3695  0.4107 -0.0474
    4CHL1    C6  231   0.620   4.757   5.286  0.1117 -1.0967  0.5417
    4CHL1    H6  232   0.527   4.810   5.309 -0.6769 -3.0983  2.2175
    4CHL1    C7  233   0.667   4.769   5.144 -0.2582  0.4313 -0.5293
    4CHL1   H7A  234   0.570   4.765   5.089  0.4495 -1.0846 -1.7429
    4CHL1   H7B  235   0.725   4.863   5.143 -0.5183  0.6328  0.9989
    4CHL1    C8  236   0.768   4.653   5.111  0.6143  0.4159  0.2949
    4CHL1    H8  237   0.708   4.562   5.089 -2.0038  2.0537  0.2101
    4CHL1   C14  238   0.848   4.683   4.981  0.3181  0.6436  0.5895
    4CHL1   H14  239   0.909   4.773   5.003  1.1290  0.0393  0.8685
    4CHL1   C15  240   0.763   4.722   4.855 -0.5653 -0.1194 -0.4083
    4CHL1  H15A  241   0.688   4.642   4.842 -1.5155  0.9710 -1.9529
    4CHL1  H15B  242   0.714   4.821   4.863  0.6669  0.3881  1.4873
    4CHL1   C16  243   0.868   4.705   4.734 -0.0132 -0.2699  0.4477
    4CHL1  H16A  244   0.832   4.640   4.651  2.4846 -1.1775 -0.0017
    4CHL1  H16B  245   0.893   4.804   4.691  0.0345  0.0426  1.1783
    4CHL1   C17  246   0.993   4.640   4.804 -0.0950  0.1869 -0.0300
    4CHL1   H17  247   1.052   4.729   4.835  2.6418 -1.2931 -0.7632
    4CHL1   C13  248   0.944   4.570   4.934 -0.1134 -0.6374 -0.1727
    4CHL1   C18  249   0.862   4.444   4.893 -0.6783 -0.0109  0.1159
    4CHL1  H18A  250   0.798   4.401   4.973  0.3315 -1.6097  0.1158
    4CHL1  H18B  251   0.809   4.453   4.796 -0.5444  1.9478  0.1847
    4CHL1  H18C  252   0.944   4.371   4.874  0.5812  1.4912 -0.3858
    4CHL1   C12  253   1.045   4.551   5.048  0.4909 -0.9633  0.6267
    4CHL1  H12A  254   1.107   4.463   5.020 -0.0531 -1.2679  0.3604
    4CHL1  H12B  255   1.101   4.646   5.064 -0.2839 -0.5713  1.1050
    4CHL1   C11  256   0.981   4.524   5.187 -0.9484 -0.3131  0.7454
    4CHL1  H11A  257   0.933   4.425   5.175 -0.9948 -0.4118  1.6712
    4CHL1  H11B  258   1.063   4.527   5.262  2.3999  0.5660 -2.5899
    4CHL1    C9  259   0.870   4.625   5.221  0.0327  0.1134 -0.4769
    4CHL1    H9  260   0.928   4.720   5.229  0.4482  0.1537 -3.0318
    4CHL1   C10  261   0.795   4.593   5.355 -0.4367  0.1124 -0.5150
    4CHL1   C19  262   0.777   4.440   5.360  0.2549 -0.3025 -0.4506
    4CHL1  H19A  263   0.718   4.392   5.279 -0.8130  0.0569  0.0990
    4CHL1  H19B  264   0.872   4.383   5.353  0.3410 -0.3021  0.4834
    4CHL1  H19C  265   0.742   4.416   5.463 -2.6425  3.1588 -0.4492
    4CHL1    C1  266   0.885   4.639   5.479 -0.1519 -0.5976  0.0216
    4CHL1   H1A  267   0.961   4.559   5.487 -0.3802 -0.8859 -0.5726
    4CHL1   H1B  268   0.917   4.743   5.457  0.0440 -0.6762 -0.0579
    4CHL1    C2  269   0.817   4.637   5.623 -0.0316 -0.3633  0.6597
    4CHL1   H2A  270   0.888   4.677   5.698  0.9160 -3.1673  1.3946
    4CHL1   H2B  271   0.785   4.534   5.649  0.2769 -0.6695 -0.1515
    4CHL1   C20  272   1.074   4.552   4.712 -0.1380 -1.4601 -0.1281
    4CHL1   H20  273   1.134   4.475   4.764 -0.8193 -3.0253 -1.5808
    4CHL1   C21  274   1.180   4.647   4.666 -0.4273 -0.6944  0.2186
    4CHL1  H21A  275   1.144   4.747   4.633 -0.5557 -1.6716 -2.9633
    4CHL1  H21B  276   1.248   4.608   4.587 -0.3616 -0.2420  0.0435
    4CHL1  H21C  277   1.251   4.663   4.750  1.7616  0.3308 -1.7182
    4CHL1   C22  278   1.015   4.482   4.589 -0.0006  0.0962  0.2238
    4CHL1  H22A  279   0.922   4.434   4.626  0.1563  1.5430  2.7865
    4CHL1  H22B  280   0.994   4.558   4.511 -0.5628 -2.7724 -2.6093
    4CHL1   C23  281   1.115   4.370   4.536 -0.1800  0.5187 -0.1910
    4CHL1  H23A  282   1.213   4.405   4.496 -1.5606  2.1301 -2.4533
    4CHL1  H23B  283   1.140   4.307   4.623 -0.0916  2.9865  1.6861
    4CHL1   C24  284   1.058   4.286   4.419 -1.1895  0.8551  0.3763
    4CHL1  H24A  285   0.952   4.253   4.430 -0.8327 -0.4338  0.1684
    4CHL1  H24B  286   1.043   4.359   4.338  0.7613 -2.1888 -3.0229
    4CHL1   C25  287   1.129   4.160   4.375  0.1440 -0.5295 -0.8579
    4CHL1   H25  288   1.174   4.116   4.466 -0.7895  3.3802  1.7764
    4CHL1   C26  289   1.041   4.062   4.304  0.4484  0.5148  0.1741
    4CHL1  H26A  290   0.971   4.110   4.232  1.5416  0.5637 -0.8893
    4CHL1  H26B  291   1.104   4.002   4.235 -0.9581  0.2123 -0.9125
    4CHL1  H26C  292   0.995   3.995   4.380  1.4210  0.8771  1.1021
    4CHL1   C27  293   1.244   4.192   4.274  0.6327  0.0066 -0.7166
    4CHL1  H27A  294   1.296   4.100   4.241  0.0302 -1.0864  1.2296
    4CHL1  H27B  295   1.202   4.233   4.179 -0.0967 -1.6548 -1.1522
    4CHL1  H27C  296   1.322   4.253   4.325  0.5479 -0.1256 -0.4278
    5CHL1    C3  297   0.223   0.313   5.774  0.0956 -0.1683 -0.5221
    5CHL1    H3  298   0.305   0.386   5.788  1.0470 -1.2739 -0.2524
    5CHL1    O3  299   0.154   0.302   5.898 -0.0108 -0.1129 -0.2938
    5CHL1   H3'  300   0.070   0.269   5.868  0.1825 -0.0033 -0.9799
    5CHL1    C4  301   0.121   0.367   5.675 -0.2019  0.3834  0.3008
    5CHL1   H4A  302   0.041   0.291   5.657 -0.9775  1.8772 -3.3617
    5CHL1   H4B  303   0.074   0.462   5.707  1.3332  1.7489 -1.3092
    5CHL1    C5  304   0.185   0.383   5.537 -0.0409  0.7616 -0.5039
    5CHL1    C6  305   0.187   0.501   5.475  0.3473  0.2056  0.1164
    5CHL1    H6  306   0.133   0.583   5.524 -1.1524 -0.2498 -0.6958
    5CHL1    C7  307   0.242   0.514   5.336 -0.4436  0.2193 -0.0526
    5CHL1   H7A  308   0.185   0.588   5.275 -0.6429 -0.7884 -1.1356
    5CHL1   H7B  309   0.342   0.558   5.351 -0.3117 -0.2243  0.3783
    5CHL1    C8  310   0.263   0.377   5.264 -0.8088 -0.2636  0.2855
    5CHL1    H8  311   0.163   0.332   5.250 -1.2189  0.6984  0.0518
    5CHL1   C14  312   0.344   0.395   5.135 -0.0206  0.1710 -0.2366
    5CHL1   H14  313   0.438   0.448   5.159 -0.1196 -0.7444  2.4511
    5CHL1   C15  314   0.269   0.473   5.031 -0.3337 -0.0289  0.1033
    5CHL1  H15A  315   0.164   0.439   5.016 -1.8213  3.3719  1.6032
    5CHL1  H15B  316   0.278   0.577   5.067 -2.3278 -0.1551  1.1225
    5CHL1   C16  317   0.362   0.459   4.907  0.1120  0.4138 -0.4805
    5CHL1  H16A  318   0.302   0.451   4.814  0.1184 -0.4515 -0.4107
    5CHL1  H16B  319   0.438   0.540   4.897 -1.0041  1.5835  0.1567
    5CHL1   C17  320   0.442   0.323   4.930 -0.4685  0.4689 -0.9577
    5CHL1   H17  321   0.548   0.333   4.962 -1.0932 -1.4158  2.1887
    5CHL1   C13  322   0.376   0.266   5.058  0.0086  0.3413 -0.0716
    5CHL1   C18  323   0.257   0.177   5.012  0.3054  0.1487 -0.3213
    5CHL1  H18A  324   0.291   0.083   4.963 -0.3426  0.5296 -1.5702
    5CHL1  H18B  325   0.190   0.154   5.097  1.3436  1.0131  0.7543
    5CHL1  H18C  326   0.204   0.231   4.930  0.9905 -0.4416 -1.1676
    5CHL1   C12  327   0.468   0.174   5.147 -0.0010  0.2489 -0.0195
    5CHL1  H12A  328   0.497   0.078   5.098  0.3829  1.1517 -1.6240
    5CHL1  H12B  329   0.563   0.229   5.165  0.5409 -0.5131 -0.4419
    5CHL1   C11  330   0.391   0.148   5.282  0.0579  0.1208 -0.3173
    5CHL1  H11A  331   0.307   0.079   5.258  0.8311 -0.0624 -2.8383
    5CHL1  H11B  332   0.464   0.090   5.344 -1.4307 -1.2374  0.2333
    5CHL1    C9  333   0.339   0.276   5.361  0.0911  0.5955  0.2971
    5CHL1    H9  334   0.429   0.332   5.394  1.8913 -2.5540  1.1331
    5CHL1   C10  335   0.255   0.257   5.490 -0.2080  0.3448 -0.1363
    5CHL1   C19  336   0.159   0.132   5.467  0.1722  0.5693  0.5253
    5CHL1  H19A  337   0.114   0.137   5.365 -0.3161  0.9008  0.7505
    5CHL1  H19B  338   0.223   0.042   5.474  0.1070  0.3107 -1.5039
    5CHL1  H19C  339   0.076   0.131   5.541 -0.9555 -2.7200 -0.5911
    5CHL1    C1  340   0.352   0.212   5.602 -0.4598  0.5889 -0.2803
    5CHL1   H1A  341   0.416   0.125   5.572  1.0002 -0.0565  3.9728
    5CHL1   H1B  342   0.421   0.298   5.616 -0.8193  1.2483 -2.2196
    5CHL1    C2  343   0.286   0.181   5.740  0.7449 -0.1049  0.2304
    5CHL1   H2A  344   0.366   0.159   5.815  0.0038 -2.3879  0.4219
    5CHL1   H2B  345   0.215   0.097   5.729  0.6133  0.1999 -1.3759
    5CHL1   C20  346   0.447   0.239   4.807  0.1786 -0.1651 -0.2119
    5CHL1   H20  347   0.350   0.230   4.753  0.0394  2.0677 -0.4349
    5CHL1   C21  348   0.517   0.103   4.828 -0.7482 -0.0843  0.2304
    5CHL1  H21A  349   0.534   0.046   4.734  2.5641  0.0045  0.6619
    5CHL1  H21B  350   0.460   0.034   4.893 -1.4410  1.1780  0.9949
    5CHL1  H21C  351   0.618   0.122   4.870 -0.4204 -1.3509  0.0690
    5CHL1   C22  352   0.522   0.314   4.690  0.2877 -0.4539 -0.5885
    5CHL1  H22A  353   0.517   0.236   4.611 -0.8290 -1.1068  0.0963
    5CHL1  H22B  354   0.471   0.399   4.640  0.8282 -0.0225 -0.4099
    5CHL1   C23  355   0.662   0.342   4.708 -1.0905  0.4644  0.6436
    5CHL1  H23A  356   0.679   0.431   4.773 -0.9749 -0.2677  1.6416
    5CHL1  H23B  357   0.724   0.257   4.745 -0.6473  0.0711 -0.9178
    5CHL1   C24  358   0.729   0.392   4.574  0.0827  0.0337  0.0977
    5CHL1  H24A  359   0.655   0.448   4.514  1.6632 -0.2935 -2.3058
    5CHL1  H24B  360   0.819   0.453   4.599  1.7834 -1.2346 -2.3927
    5CHL1   C25  361   0.771   0.280   4.475  1.0811 -0.1268  0.1638
    5CHL1   H25  362   0.684   0.211   4.467  2.3297 -1.5744 -1.9860
    5CHL1   C26  363   0.800   0.332   4.332  0.3895  0.0111 -0.0729
    5CHL1  H26A  364   0.870   0.417   4.338  0.9720 -0.2441 -2.4014
    5CHL1  H26B  365   0.843   0.254   4.266  0.3536  0.1141 -0.2177
    5CHL1  H26C  366   0.701   0.362   4.292  1.0716  1.6809 -0.5969
    5CHL1   C27  367   0.890   0.211   4.526 -0.3141  0.1410  0.4930
    5CHL1  H27A  368   0.871   0.187   4.633 -1.6532 -0.9628  0.0417
    5CHL1  H27B  369   0.924   0.129   4.458  3.7365  1.1923  0.9966
    5CHL1  H27C  370   0.982   0.272   4.515  0.1977 -0.7294 -0.2834
    6CHL1    C3  371   6.618   4.348   5.511 -0.8116 -0.1242  0.9088
    6CHL1    H3  372   6.711   4.408   5.495 -1.5540  0.7132 -0.5899
    6CHL1    O3  373   6.617   4.324   5.645  0.2004  0.0038 -0.2648
    6CHL1   H3'  374   6.542   4.265   5.656  0.0936  0.2085  0.1336
    6CHL1    C4  375   6.495   4.431   5.468 -0.3660  0.3972 -0.2679
    6CHL1   H4A  376   6.406   4.379   5.507  0.7757 -1.4535 -0.0140
    6CHL1   H4B  377   6.500   4.533   5.513 -0.2022  1.3713 -2.3884
    6CHL1    C5  378   6.483   4.445   5.316  0.0686  0.1580 -0.1390
    6CHL1    C6  379   6.477   4.574   5.267 -0.4749  0.8885  0.6616
    6CHL1    H6  380   6.472   4.664   5.330  1.2237  0.3750  1.5844
    6CHL1    C7  381   6.448   4.593   5.123  0.0813  0.2051  0.3243
    6CHL1   H7A  382   6.378   4.675   5.096  0.6738  0.3080 -1.0189
    6CHL1   H7B  383   6.544   4.625   5.076 -0.0001 -0.4287 -0.2950
    6CHL1    C8  384   6.411   4.458   5.043  0.3610  0.5510  0.8576
    6CHL1    H8  385   6.304   4.437   5.064  0.5215  0.4907  1.6422
    6CHL1   C14  386   6.439   4.484   4.896 -0.2547 -0.3506  1.1676
    6CHL1   H14  387   6.545   4.515   4.890 -0.2824 -0.4729 -0.2798
    6CHL1   C15  388   6.369   4.603   4.826  0.2664  0.0224 -0.4246
    6CHL1  H15A  389   6.261   4.595   4.850  0.2441 -2.7088 -1.0400
    6CHL1  H15B  390   6.410   4.701   4.857 -1.2799  0.7444 -0.5899
    6CHL1   C16  391   6.352   4.563   4.678  0.5400  0.5670  0.6752
    6CHL1  H16A  392   6.243   4.558   4.655  0.4901 -0.9131  1.1655
    6CHL1  H16B  393   6.399   4.636   4.609  2.1134 -0.9440  0.0797
    6CHL1   C17  394   6.414   4.418   4.669  0.7284 -0.3027 -1.0134
    6CHL1   H17  395   6.523   4.435   4.656  0.6256  0.6266 -0.6892
    6CHL1   C13  396   6.411   4.360   4.809 -0.0469 -0.0993  0.2746
    6CHL1   C18  397   6.270   4.310   4.837  0.0129 -0.4308 -0.5080
    6CHL1  H18A  398   6.191   4.382   4.810  0.8235 -0.1238 -2.1971
    6CHL1  H18B  399   6.253   4.210   4.791  0.8150 -1.7303  1.7998
    6CHL1  H18C  400   6.249   4.294   4.945 -0.4181 -0.6709 -0.6254
    6CHL1   C12  401   6.512   4.256   4.844  0.1009 -0.5209  0.3736
    6CHL1  H12A  402   6.487   4.167   4.783  0.6758 -0.8172  0.5625
    6CHL1  H12B  403   6.615   4.291   4.824 -0.6261  0.5988 -1.7140
    6CHL1   C11  404   6.499   4.217   4.994  0.7852 -0.1621 -0.6887
    6CHL1  H11A  405   6.403   4.161   5.000  1.1172 -0.7238 -0.5146
    6CHL1  H11B  406   6.583   4.148   5.017  1.8013  0.9157 -1.0323
    6CHL1    C9  407   6.501   4.345   5.081  0.6482  1.0898 -0.5812
    6CHL1    H9  408   6.604   4.385   5.069  1.6331 -0.6690  1.3857
    6CHL1   C10  409   6.482   4.314   5.236 -0.1369 -0.1535  0.2735
    6CHL1   C19  410   6.351   4.236   5.266  0.2555 -0.1274 -0.1050
    6CHL1  H19A  411   6.341   4.210   5.373 -0.8982  1.1376  0.1243
    6CHL1  H19B  412   6.257   4.287   5.235  0.9174  0.6199 -0.9493
    6CHL1  H19C  413   6.354   4.139   5.213 -3.8421  0.1760 -1.1884
    6CHL1    C1  414   6.606   4.233   5.287 -0.4603  0.2033 -0.6233
    6CHL1   H1A  415   6.607   4.132   5.239 -1.4622 -1.2033  2.1143
    6CHL1   H1B  416   6.692   4.289   5.245 -0.4127 -0.1858 -1.0541
    6CHL1    C2  417   6.626   4.215   5.439  0.5120  0.1720 -0.5847
    6CHL1   H2A  418   6.723   4.163   5.458  0.4814 -0.2350 -1.4899
    6CHL1   H2B  419   6.542   4.151   5.472 -0.3816 -0.1099 -3.1663
    6CHL1   C20  420   6.382   4.326   4.550 -0.0454  0.0486  0.0796
    6CHL1   H20  421   6.364   4.221   4.581  2.0496  0.0724  1.5956
    6CHL1   C21  422   6.510   4.309   4.463  0.1933 -0.0670 -0.2768
    6CHL1  H21A  423   6.594   4.259   4.515  0.4563  0.9509  0.2860
    6CHL1  H21B  424   6.550   4.410   4.441 -0.7715  0.4282  0.2040
    6CHL1  H21C  425   6.487   4.256   4.367 -2.1968 -1.6110  1.0396
    6CHL1   C22  426   6.274   4.377   4.456 -0.0022 -0.1423 -0.3626
    6CHL1  H22A  427   6.183   4.395   4.516  0.8121  2.5571  0.2245
    6CHL1  H22B  428   6.321   4.465   4.407 -0.5158 -0.4051 -1.3628
    6CHL1   C23  429   6.230   4.286   4.342  0.3855  0.3841 -0.3174
    6CHL1  H23A  430   6.314   4.231   4.295  2.6976  1.4619  2.2562
    6CHL1  H23B  431   6.171   4.208   4.395  1.0504 -1.0953 -1.6669
    6CHL1   C24  432   6.137   4.355   4.242  0.0783  0.6266  0.4120
    6CHL1  H24A  433   6.056   4.394   4.306  0.4688 -0.6756  1.7461
    6CHL1  H24B  434   6.187   4.442   4.194 -0.0388  0.9581  0.8883
    6CHL1   C25  435   6.079   4.253   4.135  0.2364 -0.9076 -0.1308
    6CHL1   H25  436   6.018   4.173   4.182 -2.6159  0.4290 -1.3257
    6CHL1   C26  437   5.981   4.328   4.048 -0.1178 -0.0845 -0.2029
    6CHL1  H26A  438   5.931   4.274   3.965 -0.7180  2.1011 -1.3695
    6CHL1  H26B  439   5.903   4.377   4.111 -0.1014  1.7457 -1.5064
    6CHL1  H26C  440   6.034   4.418   4.010 -2.4374  1.5431  0.2083
    6CHL1   C27  441   6.194   4.190   4.046  0.6999 -0.1977  0.3620
    6CHL1  H27A  442   6.258   4.132   4.115 -1.4521 -0.3768  2.3378
    6CHL1  H27B  443   6.160   4.125   3.962  2.5735 -0.8578  0.0610
    6CHL1  H27C  444   6.256   4.269   3.999  3.6902 -1.3784  2.0614
    7CHL1    C3  445   0.900   2.364   5.822  0.4999  0.0490 -0.4073
    7CHL1    H3  446   0.798   2.342   5.783 -0.3295  1.4637  0.8689
    7CHL1    O3  447   0.906   2.338   5.958 -0.1759 -0.3029 -0.2620
    7CHL1   H3'  448   0.899   2.417   6.012 -1.5185 -0.3706 -0.2934
    7CHL1    C4  449   0.994   2.253   5.756  0.2861  0.8783  0.4956
    7CHL1   H4A  450   1.090   2.252   5.813  1.8907 -0.3114 -2.0574
    7CHL1   H4B  451   0.947   2.155   5.780  1.1219  0.4766  0.5564
    7CHL1    C5  452   1.001   2.288   5.601  0.2393  0.0412 -0.3865
    7CHL1    C6  453   0.967   2.188   5.509 -0.0924 -0.3446 -0.0123
    7CHL1    H6  454   0.938   2.088   5.545 -2.1326  0.9773  2.2967
    7CHL1    C7  455   0.987   2.213   5.358 -0.1729  0.1601 -0.1594
    7CHL1   H7A  456   1.054   2.132   5.323 -0.5814  0.0671 -0.7279
    7CHL1   H7B  457   0.886   2.212   5.311 -0.5239 -1.8150  0.5356
    7CHL1    C8  458   1.061   2.343   5.333  0.0331 -0.0318 -0.4006
    7CHL1    H8  459   1.167   2.325   5.361  0.2377  2.1347  0.4172
    7CHL1   C14  460   1.040   2.385   5.183  0.3958  0.6190 -0.6133
    7CHL1   H14  461   0.929   2.391   5.180  0.2531  0.4979  2.1930
    7CHL1   C15  462   1.066   2.268   5.081 -0.5079 -0.3926 -0.9215
    7CHL1  H15A  463   1.166   2.220   5.091  0.0762  1.2032  1.7429
    7CHL1  H15B  464   0.984   2.195   5.091  1.4720 -2.6360 -0.0915
    7CHL1   C16  465   1.062   2.349   4.950  0.0301 -0.0536 -0.1762
    7CHL1  H16A  466   1.159   2.336   4.898 -0.1047 -1.1261 -0.1732
    7CHL1  H16B  467   0.981   2.311   4.884  1.4098  0.3409 -2.1762
    7CHL1   C17  468   1.047   2.503   4.987 -0.0105 -0.1563 -0.4230
    7CHL1   H17  469   0.939   2.526   4.998 -0.3704  0.2004 -3.5747
    7CHL1   C13  470   1.102   2.514   5.138 -0.4303  0.3035 -0.2907
    7CHL1   C18  471   1.256   2.490   5.139  0.9082  0.1760  0.1308
    7CHL1  H18A  472   1.300   2.582   5.095  0.2968 -0.2473 -1.4609
    7CHL1  H18B  473   1.293   2.479   5.243  0.6023  1.6275  0.4114
    7CHL1  H18C  474   1.288   2.411   5.067  0.0695  1.6820 -2.0009
    7CHL1   C12  475   1.048   2.625   5.229 -0.2730  0.0049  0.2126
    7CHL1  H12A  476   1.075   2.727   5.194  3.5303 -1.6449 -2.2687
    7CHL1  H12B  477   0.939   2.614   5.213 -0.1469 -1.7364  0.4310
    7CHL1   C11  478   1.077   2.600   5.377 -0.2344 -0.1291 -0.1955
    7CHL1  H11A  479   1.187   2.604   5.393 -0.5428  0.8524  2.1741
    7CHL1  H11B  480   1.033   2.679   5.441  0.2652  0.6121 -0.7524
    7CHL1    C9  481   1.017   2.463   5.420  0.0500 -0.1344 -0.0329
    7CHL1    H9  482   0.908   2.465   5.398  0.1725 -0.4760 -0.7302
    7CHL1   C10  483   1.038   2.431   5.569 -0.5017 -0.1074  0.8684
    7CHL1   C19  484   1.194   2.441   5.594  0.6831  0.2111 -0.1071
    7CHL1  H19A  485   1.206   2.412   5.701  0.5970  0.0935 -0.1284
    7CHL1  H19B  486   1.260   2.374   5.535 -1.8478 -4.0622  1.4545
    7CHL1  H19C  487   1.229   2.546   5.581  1.2777  0.1328  0.7653
    7CHL1    C1  488   0.940   2.532   5.648 -0.2141 -0.2580 -0.5685
    7CHL1   H1A  489   0.965   2.639   5.635 -3.0484  0.6858  0.9302
    7CHL1   H1B  490   0.842   2.499   5.607  0.6281 -0.3210 -2.6774
    7CHL1    C2  491   0.940   2.510   5.799 -0.7544  0.1594 -0.2858
    7CHL1   H2A  492   0.862   2.564   5.857  0.2617 -0.0816  1.3387
    7CHL1   H2B  493   1.042   2.522   5.840 -0.0305 -0.7656 -1.7270
    7CHL1   C20  494   1.114   2.596   4.885 -0.1665  0.3782 -0.4996
    7CHL1   H20  495   1.224   2.576   4.884 -0.2488 -0.0477 -0.7907
    7CHL1   C21  496   1.086   2.737   4.926 -0.6589  0.1924 -0.0224
    7CHL1  H21A  497   1.106   2.800   4.836 -0.1750  1.3956  0.9084
    7CHL1  H21B  498   1.161   2.762   5.003  0.3718 -0.1653 -0.8839
    7CHL1  H21C  499   0.982   2.749   4.962 -1.4932 -2.0605 -1.4749
    7CHL1   C22  500   1.055   2.575   4.742 -0.9282  0.2637 -0.6703
    7CHL1  H22A  501   1.118   2.623   4.664  0.0562  1.6429  0.8867
    7CHL1  H22B  502   1.058   2.465   4.727 -1.3832  0.0083  0.9429
    7CHL1   C23  503   0.908   2.613   4.719  0.2820  0.1125  0.1687
    7CHL1  H23A  504   0.851   2.576   4.807  2.7959  0.5215  2.0808
    7CHL1  H23B  505   0.906   2.724   4.715 -0.4046  0.1304  0.7028
    7CHL1   C24  506   0.845   2.569   4.592 -0.1447  0.1432  0.0954
    7CHL1  H24A  507   0.749   2.622   4.574  1.2011  3.3224  1.5185
    7CHL1  H24B  508   0.912   2.600   4.509  0.9680 -0.4638  0.7442
    7CHL1   C25  509   0.826   2.416   4.575 -0.9590  0.1193  0.6578
    7CHL1   H25  510   0.917   2.364   4.611  0.0779  0.6854 -1.0144
    7CHL1   C26  511   0.712   2.365   4.661  0.4523  0.1188 -0.4178
    7CHL1  H26A  512   0.621   2.427   4.643  2.2276  2.6536 -1.2466
    7CHL1  H26B  513   0.676   2.264   4.632 -3.7475  1.1348  0.4925
    7CHL1  H26C  514   0.726   2.355   4.771 -0.9988 -4.5489 -0.4460
    7CHL1   C27  515   0.803   2.367   4.432 -0.3534  0.3275  0.0277
    7CHL1  H27A  516   0.704   2.401   4.395 -0.8684  0.0424  1.1036
    7CHL1  H27B  517   0.885   2.401   4.365 -1.7904  0.0709 -1.9442
    7CHL1  H27C  518   0.798   2.256   4.439 -1.0888  0.3451 -0.1449
    8CHL1    C3  519   5.153   5.566   5.962  0.2921 -0.3720  0.7349
    8CHL1    H3  520   5.156   5.456   5.942  1.3211 -0.7007  2.5472
    8CHL1    O3  521   5.203   5.588   6.095 -0.2652  0.3694 -0.3339
    8CHL1   H3'  522   5.218   5.682   6.097  1.2773  0.2340  3.5972
    8CHL1    C4  523   5.236   5.643   5.857  0.0887 -0.0457  1.2748
    8CHL1   H4A  524   5.250   5.749   5.889 -1.3681  0.3039  0.8483
    8CHL1   H4B  525   5.339   5.603   5.862  0.5574  0.7619 -0.7136
    8CHL1    C5  526   5.180   5.643   5.718  0.4469 -0.0027  0.4363
    8CHL1    C6  527   5.250   5.593   5.611 -0.3537  0.2823 -0.1818
    8CHL1    H6  528   5.352   5.555   5.625  0.7373  2.4155 -1.6644
    8CHL1    C7  529   5.214   5.594   5.471  0.2901  0.0580 -1.3734
    8CHL1   H7A  530   5.292   5.638   5.404 -0.8225  0.1082 -2.6755
    8CHL1   H7B  531   5.204   5.487   5.441  0.0891 -0.1859 -0.4465
    8CHL1    C8  532   5.078   5.673   5.456 -0.8024  0.1340 -0.2076
    8CHL1    H8  533   5.111   5.778   5.468  1.4575 -0.6665  1.1136
    8CHL1   C14  534   5.025   5.650   5.318 -0.6346  0.3029  0.2328
    8CHL1   H14  535   5.001   5.542   5.311 -1.3075  0.5198 -1.3410
    8CHL1   C15  536   5.110   5.675   5.193  0.4194  0.3259 -0.1452
    8CHL1  H15A  537   5.160   5.774   5.202 -1.1348  1.1475 -0.2159
    8CHL1  H15B  538   5.175   5.591   5.161  1.4143  0.7894  0.6077
    8CHL1   C16  539   5.009   5.698   5.080 -0.2906 -0.1331  0.3274
    8CHL1  H16A  540   5.028   5.801   5.042 -0.7843  0.0209  0.4915
    8CHL1  H16B  541   5.030   5.623   5.001 -0.0300  1.0242 -0.7391
    8CHL1   C17  542   4.866   5.675   5.139 -0.4625  0.0942  0.6425
    8CHL1   H17  543   4.857   5.565   5.140 -1.9543  0.1937  0.3431
    8CHL1   C13  544   4.891   5.715   5.288  0.1003 -0.4591  0.6166
    8CHL1   C18  545   4.892   5.865   5.293 -0.4834 -0.1379  0.5521
    8CHL1  H18A  546   4.920   5.894   5.396 -0.3149 -0.9595  0.7430
    8CHL1  H18B  547   4.958   5.912   5.216 -0.3428 -1.6813 -0.3077
    8CHL1  H18C  548   4.790   5.906   5.277 -0.3538 -0.3331 -0.9433
    8CHL1   C12  549   4.786   5.653   5.385 -0.3241  0.4577  0.3397
    8CHL1  H12A  550   4.690   5.702   5.360 -1.1758 -0.8296  1.0405
    8CHL1  H12B  551   4.772   5.545   5.365 -0.9131  0.6294 -0.2160
    8CHL1   C11  552   4.826   5.692   5.527  0.4697  0.0680 -0.4164
    8CHL1  H11A  553   4.821   5.802   5.535  0.3634  0.0766 -0.6024
    8CHL1  H11B  554   4.752   5.647   5.597 -0.8751  2.9138  0.1396
    8CHL1    C9  555   4.966   5.641   5.559 -0.7274 -0.4368 -0.3698
    8CHL1    H9  556   4.956   5.531   5.557 -2.9225 -0.2598 -1.0502
    8CHL1   C10  557   5.026   5.683   5.704  0.4727 -0.4488  0.2829
    8CHL1   C19  558   5.016   5.838   5.725 -0.7576  0.4778  0.2689
    8CHL1  H19A  559   5.083   5.882   5.647 -0.0461 -1.7927 -0.4712
    8CHL1  H19B  560   4.912   5.875   5.715 -1.3348 -0.4677  2.3399
    8CHL1  H19C  561   5.031   5.875   5.828 -3.2155  4.8509 -0.6980
    8CHL1    C1  562   4.941   5.616   5.812  0.3354  0.0878  0.3835
    8CHL1   H1A  563   4.841   5.662   5.826  0.3715  0.1193  0.5348
    8CHL1   H1B  564   4.932   5.509   5.785  2.2553  0.4221 -1.8982
    8CHL1    C2  565   5.003   5.617   5.955  0.4529 -0.0954 -0.6862
    8CHL1   H2A  566   4.950   5.547   6.024  0.3830  0.5941 -0.0249
    8CHL1   H2B  567   4.985   5.720   5.992 -0.4042  0.3204 -2.1956
    8CHL1   C20  568   4.742   5.733   5.059  0.3497  0.1200 -0.5215
    8CHL1   H20  569   4.658   5.747   5.130 -0.6903 -0.2776 -1.6466
    8CHL1   C21  570   4.702   5.646   4.949 -0.4618  0.2463 -0.5373
    8CHL1  H21A  571   4.790   5.620   4.887  0.4060 -0.5307  0.9683
    8CHL1  H21B  572   4.626   5.692   4.883 -0.4465 -0.3569 -0.9902
    8CHL1  H21C  573   4.654   5.561   5.002  0.2017  1.0986  1.4979
    8CHL1   C22  574   4.774   5.869   4.989 -0.0188  0.0650  0.0718
    8CHL1  H22A  575   4.810   5.954   5.051  1.6605  0.7692 -1.7343
    8CHL1  H22B  576   4.853   5.848   4.914 -0.9573  0.5326 -1.0916
    8CHL1   C23  577   4.660   5.940   4.911 -0.3086  0.2676 -0.7457
    8CHL1  H23A  578   4.575   5.873   4.886  1.2429 -3.0328  2.0064
    8CHL1  H23B  579   4.604   6.008   4.978  1.0136  0.4272  0.2465
    8CHL1   C24  580   4.704   6.021   4.792 -0.6971  0.0032  0.0672
    8CHL1  H24A  581   4.781   6.090   4.832 -1.4954  0.4785  0.8217
    8CHL1  H24B  582   4.760   5.956   4.722  0.5188  0.3881  0.6653
    8CHL1   C25  583   4.593   6.090   4.705  0.5388  0.0068  0.1426
    8CHL1   H25  584   4.521   6.145   4.770  0.6319  1.9201 -1.2742
    8CHL1   C26  585   4.652   6.210   4.628 -0.4333  0.2100 -0.3895
    8CHL1  H26A  586   4.726   6.199   4.546  1.4140 -1.4357  1.3770
    8CHL1  H26B  587   4.568   6.268   4.585  1.1451  2.2606 -0.8747
    8CHL1  H26C  588   4.709   6.282   4.692  1.2815  1.4575 -3.1445
    8CHL1   C27  589   4.532   6.005   4.605 -0.3998 -0.2484 -0.2427
    8CHL1  H27A  590   4.600   5.984   4.519 -1.1481 -1.5951 -0.5335
    8CHL1  H27B  591   4.518   5.905   4.651  1.4165 -0.3394  0.1910
    8CHL1  H27C  592   4.436   6.036   4.559 -0.3084 -1.8174 -1.6273
    9CHL1    C3  593   0.987   5.139   5.775 -0.2050  0.1116 -0.3947
    9CHL1    H3  594   1.089   5.182   5.782 -0.4610  0.4311  2.6751
    9CHL1    O3  595   0.954   5.119   5.907  0.1490 -0.4691  0.4483
    9CHL1   H3'  596   1.017   5.052   5.935  1.7795 -0.3412 -2.4411
    9CHL1    C4  597   0.891   5.231   5.699 -0.2157 -0.1931  0.6253
    9CHL1   H4A  598   0.790   5.187   5.706  0.6724 -2.3521  0.5142
    9CHL1   H4B  599   0.890   5.322   5.762  1.6317  0.1312  0.2632
    9CHL1    C5  600   0.939   5.256   5.555 -0.0752  0.4697  0.8343
    9CHL1    C6  601   0.963   5.376   5.493  0.4534 -0.1141  0.1915
    9CHL1    H6  602   0.952   5.470   5.550 -1.3324  0.4472 -0.9861
    9CHL1    C7  603   1.003   5.392   5.351 -0.4444 -0.8484  0.1984
    9CHL1   H7A  604   0.927   5.460   5.306  1.6831  2.2692  0.9250
    9CHL1   H7B  605   1.107   5.433   5.343  0.3787 -2.4014  2.1535
    9CHL1    C8  606   0.994   5.260   5.262 -1.0239 -1.0732  0.4585
    9CHL1    H8  607   0.888   5.268   5.228 -0.5951 -0.4433 -0.7855
    9CHL1   C14  608   1.082   5.277   5.138  0.4001  0.6501  0.1698
    9CHL1   H14  609   1.189   5.275   5.167  0.4685 -2.1105  0.0279
    9CHL1   C15  610   1.057   5.403   5.051 -0.6666 -0.8485  0.2226
    9CHL1  H15A  611   0.947   5.406   5.034 -0.9884 -2.0857  1.8398
    9CHL1  H15B  612   1.093   5.495   5.103 -1.9058 -1.0685  1.5620
    9CHL1   C16  613   1.140   5.365   4.929 -0.0943 -0.7011  0.3492
    9CHL1  H16A  614   1.088   5.398   4.837  1.5058  0.7497 -0.0964
    9CHL1  H16B  615   1.240   5.414   4.935 -0.2131 -0.2767 -0.7761
    9CHL1   C17  616   1.159   5.210   4.928 -0.6150 -0.6622 -0.3938
    9CHL1   H17  617   1.266   5.201   4.954 -1.0081 -1.0808  1.1555
    9CHL1   C13  618   1.070   5.162   5.040 -0.4992  0.2760 -0.6405
    9CHL1   C18  619   0.921   5.139   4.989  0.5028  0.1639  0.5121
    9CHL1  H18A  620   0.855   5.106   5.072  1.5349  0.2713  1.3893
    9CHL1  H18B  621   0.878   5.222   4.929 -2.7582 -1.5430  0.2279
    9CHL1  H18C  622   0.921   5.054   4.917  0.4000  0.4553  0.1652
    9CHL1   C12  623   1.124   5.034   5.113  0.3445  0.1198 -0.4768
    9CHL1  H12A  624   1.085   4.943   5.063 -1.9984 -0.8509  2.7863
    9CHL1  H12B  625   1.234   5.034   5.133  0.1494 -2.9419  1.1989
    9CHL1   C11  626   1.058   5.012   5.251  0.4944 -0.2361  0.4434
    9CHL1  H11A  627   0.953   4.981   5.232  0.7027 -0.1856 -0.8994
    9CHL1  H11B  628   1.114   4.934   5.307  2.1322  2.4034  2.7354
    9CHL1    C9  629   1.043   5.136   5.339  0.3604 -0.2732  0.3682
    9CHL1    H9  630   1.150   5.157   5.357  0.8108 -0.5633 -1.7747
    9CHL1   C10  631   0.964   5.118   5.478  0.0412 -0.4772  0.8657
    9CHL1   C19  632   0.822   5.075   5.436  0.3203  0.2699 -0.6688
    9CHL1  H19A  633   0.775   5.136   5.356 -1.3873  0.2040  0.2450
    9CHL1  H19B  634   0.833   4.971   5.397 -1.0755 -0.6574  1.2486
    9CHL1  H19C  635   0.757   5.056   5.524  0.9489 -2.2689 -0.6715
    9CHL1    C1  636   1.036   5.019   5.563 -0.3547 -0.4292  0.1117
    9CHL1   H1A  637   1.041   4.918   5.518 -0.2510 -0.5273  0.3432
    9CHL1   H1B  638   1.140   5.054   5.578 -0.7252  1.2229 -0.8111
    9CHL1    C2  639   0.985   5.003   5.703  0.0883 -0.1429  0.0332
    9CHL1   H2A  640   1.044   4.931   5.763 -3.4727 -1.8070  1.8482
    9CHL1   H2B  641   0.878   4.974   5.691 -0.2717  0.7231  1.0003
    9CHL1   C20  642   1.134   5.151   4.782 -0.7595 -0.3048  0.0283
    9CHL1   H20  643   1.026   5.159   4.758 -0.1839  1.3001 -2.3411
    9CHL1   C21  644   1.185   5.006   4.789  0.0900  0.1206 -0.5182
    9CHL1  H21A  645   1.133   4.965   4.699  0.2632 -0.0504 -0.5417
    9CHL1  H21B  646   1.142   4.951   4.875  2.3076 -0.2312  0.4261
    9CHL1  H21C  647   1.295   4.999   4.773 -0.0205  0.7903 -1.7676
    9CHL1   C22  648   1.203   5.224   4.664 -0.3112  0.1166  0.4460
    9CHL1  H22A  649   1.197   5.335   4.652  0.4285  0.0622 -0.6236
    9CHL1  H22B  650   1.312   5.201   4.662  0.2938  2.4472 -2.6467
    9CHL1   C23  651   1.148   5.166   4.533  0.2141 -0.3977  0.6374
    9CHL1  H23A  652   1.164   5.056   4.526  5.1334  0.2272 -2.1945
    9CHL1  H23B  653   1.039   5.187   4.531  0.4824  1.0054  0.0275
    9CHL1   C24  654   1.219   5.225   4.416 -0.0695  0.5813 -0.6551
    9CHL1  H24A  655   1.195   5.333   4.418  0.4096  0.6819  1.7222
    9CHL1  H24B  656   1.327   5.215   4.441 -0.0895  2.5096  0.4129
    9CHL1   C25  657   1.167   5.185   4.277  0.1566  0.6280 -0.1735
    9CHL1   H25  658   1.204   5.082   4.260  2.4960  1.7507 -2.6380
    9CHL1   C26  659   1.016   5.204   4.250 -0.1663  0.8451  0.4235
    9CHL1  H26A  660   0.986   5.168   4.149 -0.4690  1.0433  0.4407
    9CHL1  H26B  661   0.943   5.161   4.322 -1.3192 -0.4135 -1.4155
    9CHL1  H26C  662   0.992   5.311   4.231 -0.1071  0.5082 -1.8603
    9CHL1   C27  663   1.255   5.271   4.170  0.2795  0.4228  0.2222
    9CHL1  H27A  664   1.266   5.374   4.210  2.3410  0.5681 -0.6103
    9CHL1  H27B  665   1.351   5.219   4.148 -0.0293 -0.3350  0.6327
    9CHL1  H27C  666   1.203   5.270   4.072 -0.9294 -1.6320  0.8325
   10CHL1    C3  667   1.898   1.753   5.899  0.7693 -0.1639  0.1387
   10CHL1    H3  668   1.972   1.670   5.893  0.0202 -0.9198  1.0636
   10CHL1    O3  669   1.849   1.752   6.038  0.0837 -0.3696 -0.1114
   10CHL1   H3'  670   1.795   1.672   6.039 -0.2645 -0.1566  1.7901
   10CHL1    C4  671   1.961   1.887   5.866  0.1412  0.1433  0.0080
   10CHL1   H4A  672   1.897   1.968   5.908 -2.5334 -1.8335 -0.0767
   10CHL1   H4B  673   2.059   1.901   5.917  0.3210 -1.2038  0.0664
   10CHL1    C5  674   1.981   1.918   5.718  0.1043 -0.0660 -0.1259
   10CHL1    C6  675   2.097   1.956   5.674  0.2226 -0.2898 -0.3530
   10CHL1    H6  676   2.187   1.971   5.735  0.3229 -0.9681 -0.3252
   10CHL1    C7  677   2.125   1.990   5.527  1.3390  0.0784 -0.7211
   10CHL1   H7A  678   2.182   2.085   5.517  1.7360 -0.1827 -0.9828
   10CHL1   H7B  679   2.194   1.915   5.483  1.4933  0.2143 -0.7142
   10CHL1    C8  680   2.000   1.994   5.437 -0.1279  0.4245  0.0564
   10CHL1    H8  681   1.948   2.091   5.456  0.0684  0.6430 -0.4967
   10CHL1   C14  682   2.042   1.991   5.293 -0.7210 -0.0958 -0.4645
   10CHL1   H14  683   2.086   1.889   5.288 -2.2619 -0.8675  0.9181
   10CHL1   C15  684   2.150   2.089   5.240 -0.1773 -0.1305 -0.2216
   10CHL1  H15A  685   2.134   2.188   5.289 -0.0700 -0.2165 -0.0091
   10CHL1  H15B  686   2.246   2.058   5.287  0.5495  2.4676  0.1761
   10CHL1   C16  687   2.137   2.080   5.087 -0.2135 -0.4438  0.7319
   10CHL1  H16A  688   2.122   2.178   5.036 -0.0973 -2.1112 -2.8213
   10CHL1  H16B  689   2.222   2.035   5.032  0.8159  0.2958  1.6747
   10CHL1   C17  690   2.006   1.987   5.058 -0.1042  0.5956 -0.4075
   10CHL1   H17  691   2.062   1.892   5.047  1.6250  1.5389 -0.0728
   10CHL1   C13  692   1.922   1.992   5.193 -0.0844  0.0815 -0.1620
   10CHL1   C18  693   1.840   2.124   5.206 -0.2812 -0.7062  0.0580
   10CHL1  H18A  694   1.755   2.125   5.133 -1.0296 -0.1387  0.9139
   10CHL1  H18B  695   1.800   2.151   5.306  1.4233 -1.0613  0.8549
   10CHL1  H18C  696   1.912   2.206   5.188  0.8565 -2.1636 -2.6630
   10CHL1   C12  697   1.836   1.868   5.220  0.6483 -0.1965  0.3152
   10CHL1  H12A  698   1.756   1.859   5.143  1.8742  1.0246 -1.1723
   10CHL1  H12B  699   1.889   1.771   5.209  1.3336  0.1684  0.3576
   10CHL1   C11  700   1.789   1.869   5.371 -0.0456  0.8325 -0.1106
   10CHL1  H11A  701   1.722   1.957   5.387  0.2036  0.9140  0.4849
   10CHL1  H11B  702   1.732   1.779   5.401  2.8806 -1.0958 -0.0054
   10CHL1    C9  703   1.903   1.879   5.478 -0.6625  0.3110  0.3553
   10CHL1    H9  704   1.953   1.780   5.473  0.5896  0.8965  0.8999
   10CHL1   C10  705   1.862   1.879   5.627 -0.1464 -0.8780  0.4854
   10CHL1   C19  706   1.763   1.992   5.655 -0.3295  0.7862 -0.4690
   10CHL1  H19A  707   1.796   2.093   5.621 -0.5101  0.8273 -0.5218
   10CHL1  H19B  708   1.679   1.956   5.592 -0.9954  1.5009 -0.0143
   10CHL1  H19C  709   1.730   2.001   5.760  0.3028  1.3505 -0.3075
   10CHL1    C1  710   1.806   1.743   5.671 -0.3282 -0.2672  0.1253
   10CHL1   H1A  711   1.710   1.729   5.616 -0.0545 -2.9691  0.1972
   10CHL1   H1B  712   1.868   1.655   5.642 -0.4134 -1.0776  2.1938
   10CHL1    C2  713   1.779   1.730   5.817  0.1129  0.5284 -0.0986
   10CHL1   H2A  714   1.729   1.635   5.843  1.8418 -0.0758  1.1864
   10CHL1   H2B  715   1.712   1.812   5.850 -2.1321 -1.4064  0.3821
   10CHL1   C20  716   1.923   2.020   4.936  0.1097  0.3687  0.3716
   10CHL1   H20  717   1.819   2.053   4.954  0.3394 -0.0248  2.8037
   10CHL1   C21  718   1.912   1.885   4.867  0.1626  0.6990 -0.1818
   10CHL1  H21A  719   2.008   1.860   4.817 -0.9318 -0.2274 -1.9299
   10CHL1  H21B  720   1.836   1.878   4.786  0.6429 -0.8429 -0.5446
   10CHL1  H21C  721   1.883   1.802   4.935 -1.0224  1.2628  0.0104
   10CHL1   C22  722   1.993   2.122   4.841 -0.0062  0.3186 -0.1570
   10CHL1  H22A  723   1.987   2.221   4.891 -3.1465  1.4120 -2.4379
   10CHL1  H22B  724   2.097   2.090   4.819 -0.7072 -1.5841 -0.9350
   10CHL1   C23  725   1.913   2.144   4.713  0.1077  0.0224 -0.5432
   10CHL1  H23A  726   1.807   2.113   4.728 -0.5696  2.9209  1.4249
   10CHL1  H23B  727   1.911   2.252   4.690 -1.2659  0.0853 -0.2437
   10CHL1   C24  728   1.969   2.084   4.588 -0.4163 -0.2352  0.0382
   10CHL1  H24A  729   2.075   2.116   4.580 -1.0398  1.6695 -1.6244
   10CHL1  H24B  730   1.973   1.974   4.601  1.9243 -0.1485  0.4007
   10CHL1   C25  731   1.899   2.133   4.457  0.6782 -0.3971  0.1163
   10CHL1   H25  732   1.923   2.241   4.466  1.4434 -0.6741  1.7762
   10CHL1   C26  733   1.967   2.060   4.338 -0.0705  0.4336  0.2896
   10CHL1  H26A  734   1.950   2.101   4.236  1.0604 -3.0509 -1.4452
   10CHL1  H26B  735   2.076   2.055   4.360 -0.1561  0.3055  0.7034
   10CHL1  H26C  736   1.940   1.952   4.339  1.5130  0.0059  1.3510
   10CHL1   C27  737   1.755   2.113   4.455  0.2225 -0.0478  0.0425
   10CHL1  H27A  738   1.719   2.153   4.552 -1.0518  0.4621 -0.6146
   10CHL1  H27B  739   1.718   2.170   4.367  0.0733 -0.9063 -0.4555
   10CHL1  H27C  740   1.725   2.007   4.447  0.7376 -0.2668  0.9263
   11CHL1    C3  741   5.250   4.699   5.915 -0.1371 -0.1227 -0.2644
   11CHL1    H3  742   5.163   4.760   5.948  0.8821 -0.2083  2.9110
   11CHL1    O3  743   5.326   4.668   6.034 -0.0067  0.4273  0.1168
   11CHL1   H3'  744   5.308   4.575   6.052 -0.5638 -0.2650 -3.3033
   11CHL1    C4  745   5.210   4.569   5.847 -0.4669  0.0355  0.1267
   11CHL1   H4A  746   5.304   4.511   5.839  0.7661  1.9966 -0.2452
   11CHL1   H4B  747   5.141   4.512   5.913 -1.6453  0.3727 -0.7729
   11CHL1    C5  748   5.156   4.596   5.710 -0.2307  0.4537  0.1331
   11CHL1    C6  749   5.029   4.548   5.685 -0.1569  0.5055 -0.1745
   11CHL1    H6  750   4.979   4.497   5.769 -0.2314  2.6993  1.1851
   11CHL1    C7  751   4.953   4.556   5.558 -0.6238 -0.2700  0.0191
   11CHL1   H7A  752   4.909   4.456   5.540 -0.6982 -0.5405  1.6049
   11CHL1   H7B  753   4.861   4.617   5.567 -1.4099 -1.5874  1.2151
   11CHL1    C8  754   5.049   4.603   5.446  0.5035 -0.4374 -0.2620
   11CHL1    H8  755   5.105   4.517   5.403  3.0336  0.1691  1.5609
   11CHL1   C14  756   4.962   4.646   5.332 -0.0280 -0.2021  0.8455
   11CHL1   H14  757   4.897   4.734   5.353 -0.0411  0.2845 -1.1072
   11CHL1   C15  758   4.867   4.546   5.267 -0.7045 -0.2779  0.3507
   11CHL1  H15A  759   4.923   4.451   5.253 -0.5045 -0.1889  0.5469
   11CHL1  H15B  760   4.772   4.527   5.323 -1.8992 -0.7978 -1.7308
   11CHL1   C16  761   4.834   4.604   5.129  0.7036  0.5845 -0.1552
   11CHL1  H16A  762   4.863   4.532   5.049 -2.9971 -0.7968 -0.4454
   11CHL1  H16B  763   4.730   4.637   5.110  0.3287 -1.5150 -2.3081
   11CHL1   C17  764   4.930   4.730   5.109 -0.0533 -0.2889  0.3490
   11CHL1   H17  765   4.862   4.810   5.146 -1.1594 -1.6775  1.4778
   11CHL1   C13  766   5.045   4.704   5.206 -0.0192  0.3760 -1.3215
   11CHL1   C18  767   5.138   4.600   5.146 -0.3717  0.6836 -0.5443
   11CHL1  H18A  768   5.183   4.641   5.053  1.2102  1.6611  0.5983
   11CHL1  H18B  769   5.220   4.565   5.212 -1.3965 -0.0481  0.3680
   11CHL1  H18C  770   5.086   4.508   5.111  2.3939 -1.3230  0.1966
   11CHL1   C12  771   5.114   4.838   5.260  0.3124 -0.3603 -0.2223
   11CHL1  H12A  772   5.172   4.890   5.181  0.4695  0.8133  0.6568
   11CHL1  H12B  773   5.040   4.912   5.297  0.0834  0.5758 -2.4196
   11CHL1   C11  774   5.213   4.794   5.372 -0.2481 -0.2310  0.0168
   11CHL1  H11A  775   5.293   4.730   5.329  1.3592  1.2249  0.7121
   11CHL1  H11B  776   5.257   4.889   5.411 -2.1890  0.7676 -0.1014
   11CHL1    C9  777   5.142   4.716   5.490 -0.0975 -0.4257 -1.2149
   11CHL1    H9  778   5.071   4.792   5.530  1.2862  0.2499  0.0835
   11CHL1   C10  779   5.239   4.675   5.606  0.0133  0.4267  0.2196
   11CHL1   C19  780   5.353   4.588   5.549  0.6993 -0.7618 -0.2981
   11CHL1  H19A  781   5.412   4.648   5.476 -1.1033  1.7813  0.1976
   11CHL1  H19B  782   5.417   4.565   5.638 -0.7507  0.5075  1.1462
   11CHL1  H19C  783   5.311   4.498   5.501 -2.5684  0.8012 -0.6052
   11CHL1    C1  784   5.301   4.799   5.681 -0.7499  0.2480 -0.2157
   11CHL1   H1A  785   5.391   4.835   5.627  0.0748 -0.4157  0.6965
   11CHL1   H1B  786   5.218   4.873   5.678 -0.0304  1.0651 -0.1837
   11CHL1    C2  787   5.347   4.774   5.828  0.2537  0.1844 -0.2949
   11CHL1   H2A  788   5.370   4.870   5.878 -0.9552  1.6695 -2.4121
   11CHL1   H2B  789   5.435   4.709   5.809 -0.9663 -1.6141 -0.0325
   11CHL1   C20  790   4.950   4.751   4.957 -0.6272  0.0377  0.2247
   11CHL1   H20  791   5.001   4.664   4.911  0.4213  0.1531  1.1292
   11CHL1   C21  792   5.038   4.871   4.933  0.2594  0.4146  0.5167
   11CHL1  H21A  793   5.007   4.950   5.005  0.3284 -0.9746  2.1556
   11CHL1  H21B  794   5.037   4.916   4.832 -2.0642  0.3112  0.4171
   11CHL1  H21C  795   5.142   4.860   4.968  0.2041  1.4173  1.0260
   11CHL1   C22  796   4.811   4.776   4.887  0.1468  0.5221  1.1737
   11CHL1  H22A  797   4.752   4.682   4.888  0.6470  0.0689 -2.1451
   11CHL1  H22B  798   4.750   4.855   4.936  0.6481  2.1075 -0.6397
   11CHL1   C23  799   4.808   4.811   4.735  0.1834 -0.6159 -0.8848
   11CHL1  H23A  800   4.858   4.908   4.719 -1.0429  0.2030  0.0397
   11CHL1  H23B  801   4.868   4.732   4.685  1.2933  2.0783 -4.1222
   11CHL1   C24  802   4.667   4.815   4.663 -0.2020 -0.8944 -0.2649
   11CHL1  H24A  803   4.610   4.721   4.683  0.2516 -0.9194  0.9714
   11CHL1  H24B  804   4.608   4.897   4.707  0.3751  0.7681 -2.4236
   11CHL1   C25  805   4.678   4.846   4.511  0.4150 -0.5131 -0.0500
   11CHL1   H25  806   4.748   4.932   4.500 -1.3930  1.7382  3.8580
   11CHL1   C26  807   4.721   4.721   4.434  0.3494  0.3689  0.5405
   11CHL1  H26A  808   4.831   4.704   4.441  0.2973 -0.8600 -1.1198
   11CHL1  H26B  809   4.673   4.627   4.468 -1.3957  0.9490 -0.2392
   11CHL1  H26C  810   4.697   4.745   4.328  1.8373  0.6512  0.2404
   11CHL1   C27  811   4.541   4.897   4.464  0.8038 -1.2301  0.1192
   11CHL1  H27A  812   4.473   4.817   4.499  0.0861 -0.0855  1.4232
   11CHL1  H27B  813   4.519   4.992   4.519  0.1800 -0.0594 -2.0473
   11CHL1  H27C  814   4.540   4.908   4.354 -2.0083  2.6460  0.2943
   12CHL1    C3  815   5.315   3.318   6.410  0.1357  0.4493 -0.0983
   12CHL1    H3  816   5.257   3.223   6.411 -0.8143  1.0103  0.1846
   12CHL1    O3  817   5.348   3.341   6.550  0.3090  0.1293  0.2644
   12CHL1   H3'  818   5.434   3.300   6.562  1.3997  2.3934  0.6894
   12CHL1    C4  819   5.443   3.309   6.336 -0.3169 -0.1570  0.3193
   12CHL1   H4A  820   5.512   3.391   6.365 -0.2653  0.4493 -1.3831
   12CHL1   H4B  821   5.495   3.219   6.374  1.4918  1.2572  1.3394
   12CHL1    C5  822   5.414   3.316   6.182  0.0207  0.2138 -0.4665
   12CHL1    C6  823   5.454   3.226   6.091  0.4486 -0.2417 -0.3578
   12CHL1    H6  824   5.497   3.127   6.114 -2.0732 -2.5259 -4.2566
   12CHL1    C7  825   5.434   3.236   5.949 -0.2688  0.4470  0.0767
   12CHL1   H7A  826   5.527   3.208   5.894 -0.5026 -1.3406  0.5045
   12CHL1   H7B  827   5.350   3.170   5.920 -0.5679 -0.5716  2.9160
   12CHL1    C8  828   5.404   3.381   5.904  0.5146  0.7513 -0.0729
   12CHL1    H8  829   5.492   3.447   5.917  0.8821  0.4172 -0.8473
   12CHL1   C14  830   5.357   3.382   5.760  0.5667 -0.0584 -0.2562
   12CHL1   H14  831   5.262   3.325   5.770  0.3270  0.5946  1.4217
   12CHL1   C15  832   5.438   3.310   5.650  0.5075  0.2899 -1.2660
   12CHL1  H15A  833   5.547   3.322   5.669  0.2439 -0.0980  0.6797
   12CHL1  H15B  834   5.423   3.200   5.659  1.2514  0.2388 -0.4485
   12CHL1   C16  835   5.389   3.367   5.515  0.0310 -0.1968  0.2577
   12CHL1  H16A  836   5.472   3.417   5.460 -1.3036  2.3565  0.3999
   12CHL1  H16B  837   5.349   3.286   5.451  1.6881 -1.5721  0.8521
   12CHL1   C17  838   5.283   3.476   5.549  0.2784  0.4132  0.2394
   12CHL1   H17  839   5.187   3.421   5.541 -0.5478  1.9278 -0.6576
   12CHL1   C13  840   5.317   3.515   5.695 -0.1202  0.3934  0.3256
   12CHL1   C18  841   5.450   3.593   5.687 -0.5397  0.1827  0.2321
   12CHL1  H18A  842   5.534   3.540   5.638 -1.3495  1.3554 -2.6595
   12CHL1  H18B  843   5.449   3.696   5.647  0.3913 -0.1247 -0.6104
   12CHL1  H18C  844   5.482   3.610   5.792  0.8975  2.4160 -0.4934
   12CHL1   C12  845   5.204   3.576   5.783 -0.0082  0.1890  0.3440
   12CHL1  H12A  846   5.192   3.682   5.752  0.0900 -0.1379 -0.8769
   12CHL1  H12B  847   5.104   3.530   5.767 -1.3130  2.0700  2.4578
   12CHL1   C11  848   5.243   3.566   5.936  0.4746 -0.5200 -0.2441
   12CHL1  H11A  849   5.305   3.655   5.960 -0.0710 -0.3068  0.4170
   12CHL1  H11B  850   5.147   3.586   5.987  0.6322 -0.5907  0.0920
   12CHL1    C9  851   5.293   3.433   5.987 -0.0165 -0.6356 -0.4243
   12CHL1    H9  852   5.203   3.371   5.968 -0.9327  0.1870  1.0222
   12CHL1   C10  853   5.339   3.440   6.140  0.6287  0.3621 -0.0388
   12CHL1   C19  854   5.422   3.565   6.179  0.7287  0.6763 -0.1564
   12CHL1  H19A  855   5.471   3.560   6.278  1.0035 -1.3812 -0.3691
   12CHL1  H19B  856   5.507   3.575   6.109 -1.4327  1.9115 -2.7993
   12CHL1  H19C  857   5.363   3.660   6.180 -0.0423  0.2122 -0.5006
   12CHL1    C1  858   5.205   3.449   6.216  0.1460  0.3807 -0.5323
   12CHL1   H1A  859   5.171   3.551   6.186  1.3827  0.5943 -1.2414
   12CHL1   H1B  860   5.140   3.368   6.175  1.9817  0.3145 -3.6228
   12CHL1    C2  861   5.226   3.438   6.367 -0.2103  0.1116 -0.4599
   12CHL1   H2A  862   5.129   3.432   6.420 -0.4205 -0.9589 -0.9333
   12CHL1   H2B  863   5.281   3.525   6.408 -0.1030 -0.6172  0.9936
   12CHL1   C20  864   5.270   3.586   5.440  0.3742 -0.4181  0.1347
   12CHL1   H20  865   5.363   3.646   5.450  1.2365 -1.2896 -2.0394
   12CHL1   C21  866   5.149   3.676   5.471 -0.5438  0.2712 -0.2395
   12CHL1  H21A  867   5.061   3.618   5.507 -0.1364 -1.0974 -1.3214
   12CHL1  H21B  868   5.108   3.735   5.386 -1.7855 -1.0103 -0.5793
   12CHL1  H21C  869   5.183   3.751   5.545  0.9678  0.8222 -1.4406
   12CHL1   C22  870   5.279   3.542   5.294 -0.2120 -0.0533  0.1900
   12CHL1  H22A  871   5.297   3.635   5.235  4.8301  0.3717  1.8963
   12CHL1  H22B  872   5.373   3.484   5.287 -0.0282  0.2134  0.4271
   12CHL1   C23  873   5.164   3.463   5.244  0.1630  0.5877  0.5482
   12CHL1  H23A  874   5.164   3.370   5.305  1.3520  1.7935  2.5159
   12CHL1  H23B  875   5.071   3.520   5.267  0.4227  0.2278  2.7356
   12CHL1   C24  876   5.171   3.439   5.092  0.1153 -0.1505 -0.3490
   12CHL1  H24A  877   5.113   3.514   5.033  0.6407  1.2169  0.7999
   12CHL1  H24B  878   5.280   3.450   5.071  0.3267 -0.6760  0.4251
   12CHL1   C25  879   5.128   3.301   5.046 -0.2043 -0.4434 -0.1370
   12CHL1   H25  880   5.142   3.296   4.936  0.9001  0.7486 -0.0669
   12CHL1   C26  881   5.220   3.186   5.093 -0.6717  0.1949  0.7224
   12CHL1  H26A  882   5.175   3.098   5.043 -0.2968  1.0312 -1.1706
   12CHL1  H26B  883   5.326   3.202   5.062 -0.8275  0.2260  0.2023
   12CHL1  H26C  884   5.203   3.174   5.202 -1.6984 -1.2876  0.4126
   12CHL1   C27  885   4.982   3.268   5.076  0.6790 -0.8355  0.1040
   12CHL1  H27A  886   4.968   3.285   5.185 -1.0736 -0.7694 -0.1047
   12CHL1  H27B  887   4.912   3.336   5.024  0.8716  0.3063  1.2660
   12CHL1  H27C  888   4.971   3.158   5.063 -1.6220 -1.0196  2.5787
   13CHL1    C3  889   6.100   2.734   6.101 -0.2285 -0.9299 -0.3570
   13CHL1    H3  890   6.074   2.630   6.071 -0.1130 -1.3891  1.0482
   13CHL1    O3  891   6.113   2.738   6.241 -0.2661  0.6865 -0.4499
   13CHL1   H3'  892   6.125   2.832   6.255  0.2432  0.6063 -0.3210
   13CHL1    C4  893   6.232   2.782   6.037  0.1390  0.5387  0.6520
   13CHL1   H4A  894   6.253   2.891   6.050 -1.8478  1.4860 -2.8547
   13CHL1   H4B  895   6.321   2.731   6.079 -0.0223 -1.0532 -0.8288
   13CHL1    C5  896   6.214   2.749   5.881 -0.3465 -0.7882 -0.4326
   13CHL1    C6  897   6.283   2.655   5.819 -0.6215 -0.5747  0.2275
   13CHL1    H6  898   6.373   2.610   5.864 -0.8804 -2.6991 -1.2334
   13CHL1    C7  899   6.256   2.631   5.672 -0.3619 -0.6249 -0.0117
   13CHL1   H7A  900   6.363   2.633   5.640 -0.5286 -0.4203 -0.5573
   13CHL1   H7B  901   6.208   2.534   5.648 -1.6070 -0.6671  2.3495
   13CHL1    C8  902   6.187   2.742   5.599 -0.2073 -0.0745 -0.4143
   13CHL1    H8  903   6.258   2.828   5.594 -0.4855  0.3237  1.5324
   13CHL1   C14  904   6.154   2.694   5.458  0.5893  0.0629  0.3940
   13CHL1   H14  905   6.093   2.603   5.476  0.8546 -0.7238 -2.2958
   13CHL1   C15  906   6.269   2.647   5.364 -0.0076 -0.3368  0.3011
   13CHL1  H15A  907   6.359   2.713   5.367 -0.6837  0.7300 -1.1962
   13CHL1  H15B  908   6.292   2.539   5.375 -0.5055 -0.9976 -3.5801
   13CHL1   C16  909   6.211   2.666   5.220  0.0743 -0.0010  0.2166
   13CHL1  H16A  910   6.274   2.719   5.146  0.3424 -1.5790 -0.7481
   13CHL1  H16B  911   6.201   2.560   5.186 -0.1553 -0.1524  0.7453
   13CHL1   C17  912   6.069   2.721   5.247  0.3530 -0.5584  0.6591
   13CHL1   H17  913   6.000   2.634   5.252 -0.6913  0.1946 -0.1655
   13CHL1   C13  914   6.066   2.790   5.377  0.1684  0.6383  0.2108
   13CHL1   C18  915   6.139   2.924   5.353 -0.4299 -0.0835 -0.2537
   13CHL1  H18A  916   6.079   2.996   5.294 -0.7666  1.2855  1.6704
   13CHL1  H18B  917   6.168   2.973   5.448  0.5887 -2.0968  0.5407
   13CHL1  H18C  918   6.236   2.901   5.303 -0.7277 -3.6191  0.5066
   13CHL1   C12  919   5.931   2.813   5.449  0.0151 -0.9081 -0.0446
   13CHL1  H12A  920   5.866   2.890   5.401 -0.5106 -1.1542  0.2626
   13CHL1  H12B  921   5.873   2.719   5.456 -3.0740  0.8864  0.5528
   13CHL1   C11  922   5.954   2.872   5.591  0.1312 -0.0382  0.1627
   13CHL1  H11A  923   6.003   2.972   5.579  0.2964  0.1227  1.9382
   13CHL1  H11B  924   5.859   2.877   5.648  0.5880 -2.1283  1.1821
   13CHL1    C9  925   6.058   2.782   5.675  0.5664  0.0239  0.3058
   13CHL1    H9  926   6.012   2.683   5.697  1.0815 -0.1269  0.7370
   13CHL1   C10  927   6.088   2.828   5.815 -0.6193  0.4750 -0.5530
   13CHL1   C19  928   6.115   2.972   5.832  0.2058 -0.4279 -0.0699
   13CHL1  H19A  929   6.131   2.994   5.939  1.5289 -2.0520  0.1028
   13CHL1  H19B  930   6.210   2.998   5.780  2.1020 -2.1572  2.3133
   13CHL1  H19C  931   6.033   3.035   5.791  0.0585  1.4333  2.8505
   13CHL1    C1  932   5.965   2.818   5.904 -0.1112  0.8155  0.2552
   13CHL1   H1A  933   5.895   2.902   5.884 -2.7645 -1.3116  0.0460
   13CHL1   H1B  934   5.914   2.720   5.892  0.4679  0.4690  0.5584
   13CHL1    C2  935   5.991   2.830   6.058 -0.1624 -0.2028 -0.6732
   13CHL1   H2A  936   5.902   2.797   6.116  0.5323 -2.6115 -0.8442
   13CHL1   H2B  937   6.014   2.933   6.092 -0.9968  0.2088 -1.2996
   13CHL1   C20  938   6.021   2.798   5.114  0.4704  0.6762 -1.0409
   13CHL1   H20  939   6.084   2.889   5.106  0.4134  0.7443 -0.7578
   13CHL1   C21  940   5.870   2.830   5.127  0.0661  0.0144 -0.2612
   13CHL1  H21A  941   5.819   2.743   5.174 -0.9162  1.2873  1.1167
   13CHL1  H21B  942   5.809   2.836   5.035 -0.5548 -0.1007  0.1399
   13CHL1  H21C  943   5.841   2.901   5.207 -2.1401 -0.3287 -0.7033
   13CHL1   C22  944   6.043   2.708   4.988  0.1044  0.5484 -0.2103
   13CHL1  H22A  945   6.143   2.660   4.996 -0.5465 -0.7171  0.7441
   13CHL1  H22B  946   5.971   2.623   4.981  2.0936 -1.1380 -1.6222
   13CHL1   C23  947   6.021   2.786   4.859  0.4014  0.1389 -0.0946
   13CHL1  H23A  948   5.912   2.794   4.836 -0.3060 -1.5798  2.2107
   13CHL1  H23B  949   6.061   2.888   4.872  0.3976  0.2422 -0.8386
   13CHL1   C24  950   6.083   2.711   4.739  0.0368 -0.8410  0.1975
   13CHL1  H24A  951   6.194   2.703   4.738  0.1017 -0.0948 -1.1924
   13CHL1  H24B  952   6.040   2.609   4.750  0.9839 -1.1878  0.8143
   13CHL1   C25  953   6.055   2.771   4.602 -0.3939 -0.1045  0.4536
   13CHL1   H25  954   5.946   2.791   4.601 -0.1885  1.2571 -2.0688
   13CHL1   C26  955   6.125   2.910   4.591 -0.8054 -0.2165 -0.1772
   13CHL1  H26A  956   6.088   2.979   4.670  0.0843  0.4042 -0.2833
   13CHL1  H26B  957   6.236   2.915   4.594 -0.8261  0.0725  0.3158
   13CHL1  H26C  958   6.096   2.965   4.499  0.0518  0.5018 -0.0375
   13CHL1   C27  959   6.112   2.669   4.494 -0.9768  0.0902  0.0197
   13CHL1  H27A  960   6.223   2.661   4.498 -0.8865  0.0107 -1.7362
   13CHL1  H27B  961   6.082   2.566   4.524  0.5664  0.0596  1.5837
   13CHL1  H27C  962   6.083   2.688   4.388 -1.1773  0.5567  0.1558
   14CHL1    C3  963   4.737   0.421   6.288 -0.4992  0.9916  0.0208
   14CHL1    H3  964   4.729   0.529   6.265  0.6586  0.7887 -1.4853
   14CHL1    O3  965   4.689   0.390   6.420  0.1064 -0.2562  0.3995
   14CHL1   H3'  966   4.771   0.377   6.467  0.1065 -5.1709 -0.5104
   14CHL1    C4  967   4.645   0.351   6.184  0.1103 -0.1090  0.0866
   14CHL1   H4A  968   4.641   0.243   6.210 -0.2015  0.1120  0.9980
   14CHL1   H4B  969   4.544   0.395   6.197 -1.0919 -2.3353 -1.2670
   14CHL1    C5  970   4.706   0.375   6.048  0.4292 -0.6960 -0.4460
   14CHL1    C6  971   4.634   0.424   5.945 -0.2946  0.1557 -0.3955
   14CHL1    H6  972   4.536   0.464   5.973 -0.5262  0.3389 -1.4252
   14CHL1    C7  973   4.685   0.436   5.803  0.2870  0.1444 -0.0609
   14CHL1   H7A  974   4.607   0.389   5.740 -0.4218  1.3909 -0.1441
   14CHL1   H7B  975   4.705   0.540   5.768  1.6089 -0.0973 -0.0717
   14CHL1    C8  976   4.810   0.352   5.771 -1.0861  0.0699  0.3742
   14CHL1    H8  977   4.778   0.246   5.768  0.2790 -0.3643 -1.8062
   14CHL1   C14  978   4.880   0.387   5.639  0.2803 -0.4663 -1.0170
   14CHL1   H14  979   4.914   0.493   5.644  0.8896 -0.6609 -0.9844
   14CHL1   C15  980   4.797   0.374   5.508  0.6399 -0.6568 -0.7714
   14CHL1  H15A  981   4.725   0.289   5.515  1.3446 -1.2333 -0.4310
   14CHL1  H15B  982   4.732   0.460   5.482 -0.0980 -0.9848 -0.0671
   14CHL1   C16  983   4.898   0.342   5.399  0.0534  0.0741  1.2032
   14CHL1  H16A  984   4.874   0.243   5.355  1.2949  0.4734 -0.4473
   14CHL1  H16B  985   4.901   0.417   5.318  1.4046 -0.0702  1.0996
   14CHL1   C17  986   5.034   0.324   5.465 -0.4852  0.5809  0.1109
   14CHL1   H17  987   5.083   0.423   5.462 -0.6371  0.6433 -0.4884
   14CHL1   C13  988   5.003   0.298   5.609 -0.5575 -0.1123  0.4696
   14CHL1   C18  989   4.980   0.145   5.620 -0.2655  0.7001 -0.5092
   14CHL1  H18A  990   4.944   0.126   5.723  0.5103  1.1698 -0.1438
   14CHL1  H18B  991   4.902   0.108   5.549 -0.8784 -1.2224  1.0746
   14CHL1  H18C  992   5.073   0.087   5.600  0.2348  0.9215  1.0579
   14CHL1   C12  993   5.104   0.339   5.718 -0.0927 -0.6424 -0.5577
   14CHL1  H12A  994   5.206   0.296   5.711  0.1472 -0.1944  0.0823
   14CHL1  H12B  995   5.125   0.447   5.705  0.1015 -0.6038  0.0661
   14CHL1   C11  996   5.058   0.324   5.860  0.2702  0.1528 -0.4987
   14CHL1  H11A  997   5.073   0.215   5.875 -0.0447  0.1419 -0.2572
   14CHL1  H11B  998   5.124   0.374   5.934 -0.3112  1.7702 -1.0475
   14CHL1    C9  999   4.916   0.372   5.883 -0.8662 -0.4042 -0.3358
   14CHL1    H9 1000   4.935   0.481   5.888  1.1370 -0.7931  2.9088
   14CHL1   C10 1001   4.860   0.339   6.029  0.0181 -0.1115  0.7839
   14CHL1   C19 1002   4.863   0.185   6.050 -0.0508  0.3885 -0.1364
   14CHL1  H19A 1003   4.804   0.160   6.141  1.5885  1.1997  1.2098
   14CHL1  H19B 1004   4.823   0.134   5.960  0.2770  1.4448 -0.8966
   14CHL1  H19C 1005   4.963   0.143   6.074 -0.2966  1.1848  2.6515
   14CHL1    C1 1006   4.943   0.407   6.136  0.1179 -0.2669  0.0801
   14CHL1   H1A 1007   5.046   0.367   6.140  0.2902  0.0143 -1.0747
   14CHL1   H1B 1008   4.953   0.517   6.122  0.4999 -0.0227  2.1001
   14CHL1    C2 1009   4.888   0.381   6.278  0.2366  0.0640 -0.4247
   14CHL1   H2A 1010   4.941   0.445   6.352 -0.8070  1.4225 -0.8141
   14CHL1   H2B 1011   4.900   0.275   6.312 -2.7828  0.0332  0.8537
   14CHL1   C20 1012   5.122   0.228   5.380 -0.5658 -0.0348  0.4576
   14CHL1   H20 1013   5.086   0.123   5.381 -1.3941  0.2498  0.7500
   14CHL1   C21 1014   5.256   0.230   5.442  0.4354  0.0789  0.4474
   14CHL1  H21A 1015   5.332   0.179   5.378  0.1068 -1.4361  1.2075
   14CHL1  H21B 1016   5.250   0.168   5.534  1.7332 -2.0493 -0.8223
   14CHL1  H21C 1017   5.285   0.332   5.476 -2.1868  0.9141  0.3520
   14CHL1   C22 1018   5.123   0.258   5.230  0.6367 -0.3646  0.2387
   14CHL1  H22A 1019   5.021   0.247   5.185  0.5188 -1.0601  0.6707
   14CHL1  H22B 1020   5.143   0.367   5.215  2.2566 -0.4358  1.6701
   14CHL1   C23 1021   5.221   0.176   5.149  0.2432  0.1727 -0.3971
   14CHL1  H23A 1022   5.326   0.196   5.180 -0.2797  0.0997  1.5216
   14CHL1  H23B 1023   5.199   0.068   5.163 -1.6444  0.3494 -1.5761
   14CHL1   C24 1024   5.209   0.189   4.994  0.7739 -0.8146 -0.7555
   14CHL1  H24A 1025   5.107   0.176   4.953  0.5246 -1.4919  0.0609
   14CHL1  H24B 1026   5.230   0.298   4.985 -0.7411  0.0506  3.5333
   14CHL1   C25 1027   5.296   0.093   4.915  0.8299  0.3696 -0.0801
   14CHL1   H25 1028   5.261  -0.009   4.943 -0.1962  0.3219 -1.4658
   14CHL1   C26 1029   5.258   0.107   4.768  0.8109 -0.0224 -0.6572
   14CHL1  H26A 1030   5.290   0.019   4.708  1.2841 -0.8593  0.7547
   14CHL1  H26B 1031   5.149   0.110   4.748  0.6337  0.2926  0.2849
   14CHL1  H26C 1032   5.291   0.208   4.734  0.7740 -0.0524 -0.7814
   14CHL1   C27 1033   5.445   0.112   4.942  0.3922 -0.4765  0.1100
   14CHL1  H27A 1034   5.475   0.209   4.896  0.3087  0.1095  1.2387
   14CHL1  H27B 1035   5.469   0.131   5.049 -0.5137 -1.1634  0.4481
   14CHL1  H27C 1036   5.505   0.027   4.904  0.2257 -0.2228 -0.7294
   15CHL1    C3 1037   4.166   6.032   6.352  0.7975 -0.2276 -0.4360
   15CHL1    H3 1038   4.135   6.138   6.362 -3.0998 -1.2641  0.1659
   15CHL1    O3 1039   4.207   5.982   6.476  0.4936 -0.2631 -0.3637
   15CHL1   H3' 1040   4.126   5.972   6.528  1.3191 -0.9896  0.8606
   15CHL1    C4 1041   4.035   5.959   6.317 -0.5926 -0.3390  0.4374
   15CHL1   H4A 1042   4.052   5.850   6.312 -1.6021 -0.4710 -0.2410
   15CHL1   H4B 1043   3.966   5.972   6.402  1.8159 -0.0379  2.4593
   15CHL1    C5 1044   3.984   6.010   6.185 -0.2029 -0.5612 -0.7832
   15CHL1    C6 1045   3.859   6.064   6.171 -0.7583 -0.3599 -0.5020
   15CHL1    H6 1046   3.799   6.070   6.264 -1.3673  1.5473 -0.9755
   15CHL1    C7 1047   3.808   6.116   6.043 -0.2375 -0.6812  0.3937
   15CHL1   H7A 1048   3.708   6.075   6.019 -0.8419  1.9551 -2.2086
   15CHL1   H7B 1049   3.805   6.227   6.047 -0.7530 -0.6075 -1.2645
   15CHL1    C8 1050   3.884   6.082   5.911 -0.0742  0.0928 -0.3861
   15CHL1    H8 1051   3.861   5.977   5.884 -2.1178  0.8573 -1.9131
   15CHL1   C14 1052   3.840   6.178   5.800  0.3712  0.8962  0.1885
   15CHL1   H14 1053   3.859   6.283   5.833  0.8521  0.2799  1.9930
   15CHL1   C15 1054   3.690   6.180   5.756 -0.4934  0.6269 -0.6527
   15CHL1  H15A 1055   3.646   6.079   5.736  0.4601  0.7659 -4.0845
   15CHL1  H15B 1056   3.624   6.239   5.824  2.8184  2.1536  1.5020
   15CHL1   C16 1057   3.698   6.248   5.629 -0.2027 -0.0946  0.4872
   15CHL1  H16A 1058   3.624   6.216   5.552  0.7359  0.3918 -0.6494
   15CHL1  H16B 1059   3.662   6.353   5.641 -2.0850 -0.7854  1.2753
   15CHL1   C17 1060   3.850   6.242   5.579  0.1546  0.0785  0.0687
   15CHL1   H17 1061   3.887   6.346   5.595 -1.7095  0.8337 -0.2969
   15CHL1   C13 1062   3.922   6.154   5.677 -0.2535 -0.0774 -0.4060
   15CHL1   C18 1063   3.897   6.013   5.620 -0.2945  0.7042  0.3012
   15CHL1  H18A 1064   3.914   5.930   5.693 -2.6379 -1.0455 -0.9872
   15CHL1  H18B 1065   3.799   5.986   5.577  0.8864  0.0872 -2.1819
   15CHL1  H18C 1066   3.968   5.985   5.539 -1.1774 -0.6051 -0.0515
   15CHL1   C12 1067   4.070   6.177   5.702  0.2345  0.0324  1.2622
   15CHL1  H12A 1068   4.131   6.159   5.612  0.8095 -0.3153  1.7151
   15CHL1  H12B 1069   4.086   6.284   5.727  2.4656 -0.0781  0.4778
   15CHL1   C11 1070   4.121   6.081   5.814 -0.7631  0.1655  0.0925
   15CHL1  H11A 1071   4.122   5.977   5.777  2.4582 -1.2050  3.3813
   15CHL1  H11B 1072   4.228   6.102   5.834 -0.7735 -0.5018  0.9075
   15CHL1    C9 1073   4.029   6.090   5.939 -0.4432  0.3864 -0.1202
   15CHL1    H9 1074   4.051   6.196   5.967 -0.5502  0.2862  0.3402
   15CHL1   C10 1075   4.084   6.009   6.070  0.4438 -0.6222 -0.0131
   15CHL1   C19 1076   4.102   5.858   6.033 -0.6857  0.2538  0.5179
   15CHL1  H19A 1077   4.159   5.846   5.938 -1.9504 -0.6442 -0.1452
   15CHL1  H19B 1078   4.157   5.807   6.114  0.9695 -0.4238 -0.9580
   15CHL1  H19C 1079   4.001   5.817   6.017 -0.4329 -0.1899  0.0369
   15CHL1    C1 1080   4.218   6.076   6.116  0.1900  0.0802  0.4396
   15CHL1   H1A 1081   4.286   6.070   6.029 -1.2591 -1.0267 -0.6586
   15CHL1   H1B 1082   4.202   6.185   6.132  0.7218  0.2889 -0.3911
   15CHL1    C2 1083   4.273   6.015   6.245 -0.3801  0.1458  0.0034
   15CHL1   H2A 1084   4.369   6.068   6.264  0.9208 -1.9051 -0.5414
   15CHL1   H2B 1085   4.300   5.909   6.227 -0.7712 -0.2149  1.4442
   15CHL1   C20 1086   3.863   6.216   5.425  0.3123 -0.2680 -0.8745
   15CHL1   H20 1087   3.827   6.113   5.405 -2.3374  0.4514 -0.2236
   15CHL1   C21 1088   4.004   6.231   5.382 -0.7370 -0.1435  0.5940
   15CHL1  H21A 1089   4.025   6.211   5.275 -4.0612  1.6226 -0.5270
   15CHL1  H21B 1090   4.070   6.150   5.420  0.1864 -0.1185 -0.8560
   15CHL1  H21C 1091   4.049   6.326   5.420 -1.0440  0.3785 -0.3124
   15CHL1   C22 1092   3.783   6.320   5.347  0.8348 -0.2294  0.2554
   15CHL1  H22A 1093   3.677   6.295   5.372 -0.1581  0.4998 -2.8467
   15CHL1  H22B 1094   3.810   6.424   5.373 -2.2425  1.1000 -1.2789
   15CHL1   C23 1095   3.799   6.315   5.194 -0.8450 -0.8003 -0.2048
   15CHL1  H23A 1096   3.898   6.360   5.173  0.8094 -2.7043  2.8297
   15CHL1  H23B 1097   3.780   6.216   5.147 -2.3058 -0.3149 -0.6971
   15CHL1   C24 1098   3.699   6.416   5.126  0.0809  0.8422 -1.1157
   15CHL1  H24A 1099   3.596   6.390   5.159  1.2803 -0.4554  2.0535
   15CHL1  H24B 1100   3.726   6.513   5.172  1.0903  1.0228 -2.0401
   15CHL1   C25 1101   3.714   6.424   4.976 -0.4471 -0.6601  0.4192
   15CHL1   H25 1102   3.727   6.320   4.941 -1.3367 -1.3855  2.0953
   15CHL1   C26 1103   3.593   6.477   4.900  0.8255  0.0488  0.0312
   15CHL1  H26A 1104   3.559   6.564   4.959 -0.3994 -0.0554 -0.4969
   15CHL1  H26B 1105   3.608   6.500   4.792  1.1127 -0.5856 -0.0663
   15CHL1  H26C 1106   3.505   6.411   4.915 -0.5627  1.9693  0.7361
   15CHL1   C27 1107   3.842   6.505   4.951  0.8796  0.1279  0.7789
   15CHL1  H27A 1108   3.863   6.499   4.842  2.3944 -1.8087  1.1231
   15CHL1  H27B 1109   3.825   6.607   4.992  0.4252  0.3644  0.0259
   15CHL1  H27C 1110   3.923   6.449   5.002  0.2668 -1.3612  0.1531
   16CHL1    C3 1111   1.810   4.859   6.170 -0.2817  0.3431 -0.6349
   16CHL1    H3 1112   1.704   4.857   6.136 -0.7741 -0.6102  0.8675
   16CHL1    O3 1113   1.809   4.866   6.311 -0.1883  0.1434  0.3905
   16CHL1   H3' 1114   1.896   4.899   6.336  0.1612  1.6702 -2.3988
   16CHL1    C4 1115   1.876   4.723   6.130  0.6943 -0.8563 -0.0555
   16CHL1   H4A 1116   1.979   4.715   6.172  0.4838 -0.6645  0.5061
   16CHL1   H4B 1117   1.813   4.647   6.182 -2.1784  0.3543 -1.5533
   16CHL1    C5 1118   1.881   4.708   5.981  0.1683 -0.8760 -0.5028
   16CHL1    C6 1119   1.825   4.606   5.923  0.4878 -0.7775 -0.6266
   16CHL1    H6 1120   1.787   4.528   5.990  1.0300  1.2834  2.2357
   16CHL1    C7 1121   1.821   4.592   5.772 -0.6452 -0.2054 -0.2361
   16CHL1   H7A 1122   1.840   4.486   5.746  1.2659  0.1948 -0.6868
   16CHL1   H7B 1123   1.721   4.625   5.738 -1.3653 -1.0560  0.9912
   16CHL1    C8 1124   1.922   4.676   5.692  0.1279 -0.6495 -0.3033
   16CHL1    H8 1125   2.027   4.641   5.703  0.2215  0.0394  1.2075
   16CHL1   C14 1126   1.884   4.673   5.548 -0.4869 -0.2771  0.2914
   16CHL1   H14 1127   1.775   4.694   5.555  0.0060  2.0458  3.5508
   16CHL1   C15 1128   1.887   4.535   5.471  0.1313  0.2091 -0.2674
   16CHL1  H15A 1129   1.974   4.476   5.506  1.1763  2.3312  0.9423
   16CHL1  H15B 1130   1.786   4.490   5.480 -0.1096  0.5393 -1.2149
   16CHL1   C16 1131   1.897   4.585   5.319  0.0137 -0.8602  0.1650
   16CHL1  H16A 1132   1.995   4.563   5.273 -1.1801 -0.4614 -2.7886
   16CHL1  H16B 1133   1.803   4.553   5.269 -1.1593  2.6450 -0.1962
   16CHL1   C17 1134   1.894   4.744   5.322 -0.4984 -0.0055 -0.1864
   16CHL1   H17 1135   1.784   4.759   5.327 -0.4388  0.0415  1.7040
   16CHL1   C13 1136   1.957   4.780   5.461  0.0848  0.5020 -0.3592
   16CHL1   C18 1137   2.109   4.753   5.457  0.2177 -0.0220 -0.0930
   16CHL1  H18A 1138   2.125   4.653   5.412  0.6562 -0.6481  1.3914
   16CHL1  H18B 1139   2.162   4.830   5.397  0.3831  0.6659  0.8929
   16CHL1  H18C 1140   2.148   4.761   5.561 -0.0004  0.9331 -0.0722
   16CHL1   C12 1141   1.928   4.920   5.518  0.2626 -0.0945 -0.2164
   16CHL1  H12A 1142   1.980   5.001   5.464 -0.0726 -0.4350 -1.0694
   16CHL1  H12B 1143   1.820   4.944   5.517  0.7114  2.1710  0.6157
   16CHL1   C11 1144   1.975   4.928   5.663 -0.0631  0.0848  0.3217
   16CHL1  H11A 1145   2.086   4.936   5.666 -0.1240  0.8965  0.5003
   16CHL1  H11B 1146   1.957   5.030   5.702  0.1233 -0.2490  1.3034
   16CHL1    C9 1147   1.912   4.820   5.746  0.6630  0.5595 -0.0323
   16CHL1    H9 1148   1.802   4.835   5.739  0.2215 -1.2298  2.0439
   16CHL1   C10 1149   1.941   4.826   5.896 -0.4309 -0.4593  0.3718
   16CHL1   C19 1150   2.094   4.829   5.916 -0.5269  0.0176  0.0396
   16CHL1  H19A 1151   2.121   4.835   6.023  0.8483 -0.6431 -0.2497
   16CHL1  H19B 1152   2.146   4.735   5.887  0.1414  0.2587  0.4365
   16CHL1  H19C 1153   2.132   4.915   5.857 -2.5912  0.6693 -0.4329
   16CHL1    C1 1154   1.877   4.954   5.955 -0.2792  0.6315 -0.1353
   16CHL1   H1A 1155   1.924   5.043   5.907  0.7587 -1.0592 -2.4468
   16CHL1   H1B 1156   1.768   4.961   5.935 -0.1954 -1.0394 -1.4015
   16CHL1    C2 1157   1.887   4.973   6.106  0.6651 -0.1332  0.3087
   16CHL1   H2A 1158   1.834   5.068   6.129  2.3306  1.0290 -0.4520
   16CHL1   H2B 1159   1.990   4.982   6.147 -0.0577  3.8714  1.7761
   16CHL1   C20 1160   1.956   4.808   5.199 -0.1094  1.0821  0.2807
   16CHL1   H20 1161   2.066   4.793   5.205 -0.4842 -2.0637  0.6505
   16CHL1   C21 1162   1.925   4.955   5.202  0.2683  0.2164 -0.2515
   16CHL1  H21A 1163   1.928   5.003   5.102 -2.9213  0.1310 -0.5005
   16CHL1  H21B 1164   2.003   5.012   5.256  1.5418  1.2795 -3.0336
   16CHL1  H21C 1165   1.824   4.981   5.242 -0.7029 -0.9434 -1.8455
   16CHL1   C22 1166   1.902   4.746   5.067  0.5546 -0.5636  0.2960
   16CHL1  H22A 1167   1.889   4.637   5.080  4.9925 -1.3781 -0.5931
   16CHL1  H22B 1168   1.800   4.782   5.041  0.0275 -3.1900 -1.7251
   16CHL1   C23 1169   1.980   4.770   4.944 -0.3565  0.1348  0.5882
   16CHL1  H23A 1170   2.002   4.878   4.939 -1.5962  0.3856  0.3281
   16CHL1  H23B 1171   2.080   4.721   4.938  0.9472  2.8265 -1.4818
   16CHL1   C24 1172   1.912   4.723   4.816 -0.1792  0.2627 -0.3767
   16CHL1  H24A 1173   1.872   4.621   4.833  1.0843  0.3310  4.5254
   16CHL1  H24B 1174   1.825   4.787   4.791  0.5152  2.4827  2.4096
   16CHL1   C25 1175   2.012   4.734   4.688  0.3992  0.4641 -0.4628
   16CHL1   H25 1176   2.081   4.817   4.716  1.4191 -0.4409 -0.1966
   16CHL1   C26 1177   2.100   4.608   4.672  0.1240  0.7075 -0.2790
   16CHL1  H26A 1178   2.047   4.511   4.657  1.1814  0.1986 -0.8676
   16CHL1  H26B 1179   2.171   4.625   4.588  1.4054 -1.6618  0.2349
   16CHL1  H26C 1180   2.162   4.603   4.764 -0.8318  1.1243  0.3982
   16CHL1   C27 1181   1.928   4.764   4.564  0.7448 -0.0518 -0.0675
   16CHL1  H27A 1182   1.874   4.860   4.577 -0.0023 -0.7867  3.0909
   16CHL1  H27B 1183   1.991   4.774   4.473 -1.8749  0.3989 -1.9406
   16CHL1  H27C 1184   1.849   4.687   4.547  1.5066 -1.1146  1.0111
   17CHL1    C3 1185   5.836   1.764   5.744 -0.1868 -0.1352  0.1367
   17CHL1    H3 1186   5.899   1.672   5.741  0.6487  0.3988  0.7191
   17CHL1    O3 1187   5.792   1.798   5.878 -0.2700  0.3680  0.0495
   17CHL1   H3' 1188   5.847   1.746   5.937 -0.3625  1.2628  0.9453
   17CHL1    C4 1189   5.910   1.878   5.679  0.0249 -0.1910  1.0718
   17CHL1   H4A 1190   5.859   1.976   5.696  1.1376  0.6825 -0.3617
   17CHL1   H4B 1191   6.005   1.887   5.736  0.3115  0.2992  0.5318
   17CHL1    C5 1192   5.934   1.845   5.529  0.0884  0.0181  0.2691
   17CHL1    C6 1193   6.058   1.851   5.474  0.7300 -0.7663  0.2374
   17CHL1    H6 1194   6.140   1.890   5.535  0.9231  0.7663 -0.9352
   17CHL1    C7 1195   6.093   1.802   5.340  1.0850 -0.1849  0.6482
   17CHL1   H7A 1196   6.175   1.863   5.296  0.8358 -1.2201 -1.3689
   17CHL1   H7B 1197   6.145   1.704   5.347  0.9984 -0.3018 -0.1843
   17CHL1    C8 1198   5.966   1.791   5.247 -0.4016 -0.3807  0.0193
   17CHL1    H8 1199   5.941   1.896   5.222  0.8713 -0.1554 -0.3680
   17CHL1   C14 1200   5.997   1.705   5.123 -0.3855  0.4019 -0.1549
   17CHL1   H14 1201   6.024   1.606   5.166 -0.9248  0.2530 -0.1591
   17CHL1   C15 1202   6.124   1.729   5.036  0.3913 -0.7536 -0.2485
   17CHL1  H15A 1203   6.141   1.838   5.031 -1.0017 -0.5862 -2.0870
   17CHL1  H15B 1204   6.212   1.675   5.078 -0.8757 -1.6562  1.3912
   17CHL1   C16 1205   6.092   1.663   4.903  0.3321 -0.4742 -0.0687
   17CHL1  H16A 1206   6.115   1.741   4.827  1.5962 -0.3136  0.4510
   17CHL1  H16B 1207   6.169   1.584   4.888  0.3303 -0.0348 -3.0701
   17CHL1   C17 1208   5.960   1.598   4.906 -0.0827 -0.3365  0.7738
   17CHL1   H17 1209   5.979   1.493   4.937 -0.0114  0.0029  1.9357
   17CHL1   C13 1210   5.887   1.676   5.021  0.7487 -0.1791 -0.4256
   17CHL1   C18 1211   5.830   1.811   4.963 -0.2861 -0.2038  0.0131
   17CHL1  H18A 1212   5.898   1.880   4.909  1.7821 -1.8412  0.4134
   17CHL1  H18B 1213   5.744   1.792   4.896 -1.4792 -1.4906  1.8035
   17CHL1  H18C 1214   5.781   1.879   5.036 -1.3816 -0.5864 -0.3555
   17CHL1   C12 1215   5.774   1.601   5.101 -0.5983  0.2029 -0.2291
   17CHL1  H12A 1216   5.689   1.592   5.030 -1.1396 -3.6365  0.6946
   17CHL1  H12B 1217   5.810   1.500   5.131 -0.9675  0.1006 -0.1199
   17CHL1   C11 1218   5.728   1.681   5.229 -0.4846  0.9847 -0.0325
   17CHL1  H11A 1219   5.673   1.771   5.195 -0.0762  1.3683  0.3123
   17CHL1  H11B 1220   5.667   1.604   5.282  0.6940  0.2027  0.2211
   17CHL1    C9 1221   5.852   1.724   5.324  0.3576 -0.4295  0.3669
   17CHL1    H9 1222   5.891   1.626   5.358 -3.0849 -1.8538  0.6989
   17CHL1   C10 1223   5.814   1.802   5.454  0.7726  0.8877  1.3050
   17CHL1   C19 1224   5.734   1.927   5.406 -0.1836 -0.5630  0.1925
   17CHL1  H19A 1225   5.639   1.891   5.360  0.7455 -2.2596 -0.4784
   17CHL1  H19B 1226   5.719   1.993   5.494  1.5809 -0.7395  0.6625
   17CHL1  H19C 1227   5.793   1.983   5.330  0.6140 -1.3669  0.2101
   17CHL1    C1 1228   5.724   1.708   5.533  0.2642  0.4061  0.3637
   17CHL1   H1A 1229   5.637   1.677   5.471  1.0374 -0.4451 -0.3257
   17CHL1   H1B 1230   5.774   1.610   5.552 -0.0778  0.2433  0.4428
   17CHL1    C2 1231   5.696   1.741   5.678 -0.2705  0.3051  0.3670
   17CHL1   H2A 1232   5.652   1.653   5.729  0.6859 -0.5308 -0.2052
   17CHL1   H2B 1233   5.632   1.830   5.692 -0.7851  0.0962 -0.5282
   17CHL1   C20 1234   5.897   1.600   4.766 -0.1020 -0.4572  0.2630
   17CHL1   H20 1235   5.883   1.705   4.733  0.7518  0.2539  2.0579
   17CHL1   C21 1236   5.763   1.533   4.769 -0.7658 -0.7238 -0.6840
   17CHL1  H21A 1237   5.770   1.438   4.826 -0.2703  0.1672  0.8010
   17CHL1  H21B 1238   5.744   1.503   4.663 -1.7982  0.0293 -0.7272
   17CHL1  H21C 1239   5.677   1.595   4.802 -1.0744 -0.0493 -2.5782
   17CHL1   C22 1240   5.983   1.542   4.648 -0.1283  0.8301 -0.4794
   17CHL1  H22A 1241   5.933   1.551   4.549  0.9851  1.3134 -1.0161
   17CHL1  H22B 1242   6.066   1.615   4.640 -2.0611  3.3009  0.4954
   17CHL1   C23 1243   6.032   1.398   4.655  0.0292  0.1371 -0.7305
   17CHL1  H23A 1244   6.098   1.382   4.742 -0.1058  0.4177 -0.5747
   17CHL1  H23B 1245   5.946   1.328   4.659 -0.3445  0.6535  1.2508
   17CHL1   C24 1246   6.129   1.370   4.538 -0.7321  0.4027  0.3775
   17CHL1  H24A 1247   6.076   1.405   4.448  1.3425  4.2845  0.4700
   17CHL1  H24B 1248   6.222   1.429   4.554 -0.5905  0.3428 -0.2153
   17CHL1   C25 1249   6.175   1.214   4.528 -0.2375 -0.0510 -0.2515
   17CHL1   H25 1250   6.088   1.147   4.544 -0.4687  0.7445  2.2347
   17CHL1   C26 1251   6.229   1.198   4.388  0.0946 -0.0434 -0.2190
   17CHL1  H26A 1252   6.323   1.254   4.374 -0.2923  0.2228 -2.0594
   17CHL1  H26B 1253   6.246   1.090   4.366  1.4111  0.3049 -0.9563
   17CHL1  H26C 1254   6.163   1.241   4.310  1.8005  1.1219 -1.0768
   17CHL1   C27 1255   6.269   1.168   4.638  1.0002 -0.2647 -0.2511
   17CHL1  H27A 1256   6.231   1.163   4.742 -0.6635 -1.0335 -0.8670
   17CHL1  H27B 1257   6.294   1.060   4.629 -1.6945 -0.9462 -0.3589
   17CHL1  H27C 1258   6.368   1.215   4.618  0.5074  0.0492 -2.1617
   18CHL1    C3 1259   5.784   5.583   6.276  0.0367 -0.0328  0.2283
   18CHL1    H3 1260   5.879   5.528   6.255  1.8500  2.9028  0.2439
   18CHL1    O3 1261   5.766   5.575   6.418 -0.2266 -0.1803  0.1987
   18CHL1   H3' 1262   5.699   5.641   6.439 -1.3031 -1.7791  2.0887
   18CHL1    C4 1263   5.784   5.729   6.237 -0.0158 -0.0178  0.2113
   18CHL1   H4A 1264   5.686   5.778   6.255 -0.9840 -1.6029 -0.4575
   18CHL1   H4B 1265   5.854   5.791   6.296 -0.7963  1.3519 -0.2413
   18CHL1    C5 1266   5.818   5.746   6.086 -0.6131  0.6616 -0.6133
   18CHL1    C6 1267   5.941   5.795   6.044  0.7518  0.2828 -0.3050
   18CHL1    H6 1268   6.009   5.822   6.126  1.4501  1.1609 -1.1555
   18CHL1    C7 1269   5.975   5.805   5.901 -0.0608 -0.1288 -0.8207
   18CHL1   H7A 1270   6.015   5.909   5.892 -1.6513  0.7018  0.9767
   18CHL1   H7B 1271   6.053   5.729   5.879 -0.3522 -0.4469 -0.7453
   18CHL1    C8 1272   5.857   5.788   5.811  0.0833 -0.6917  0.2513
   18CHL1    H8 1273   5.801   5.884   5.809 -0.9534 -1.2805 -1.8042
   18CHL1   C14 1274   5.905   5.768   5.667 -0.1905  0.4077  0.0874
   18CHL1   H14 1275   5.964   5.675   5.659  0.7352  0.9584  0.3190
   18CHL1   C15 1276   6.000   5.875   5.605 -0.8481  0.1685  0.3680
   18CHL1  H15A 1277   5.975   5.976   5.644 -2.1433  0.2506 -0.6384
   18CHL1  H15B 1278   6.106   5.846   5.626 -0.5508 -1.0414 -2.3689
   18CHL1   C16 1279   5.973   5.866   5.451 -0.6632  0.1457 -0.5453
   18CHL1  H16A 1280   5.931   5.961   5.410 -0.6276  0.5739  0.3857
   18CHL1  H16B 1281   6.055   5.830   5.386 -0.5857  0.6735 -0.7516
   18CHL1   C17 1282   5.873   5.744   5.437  0.0989  0.0095 -0.5815
   18CHL1   H17 1283   5.934   5.651   5.444 -0.4867 -0.3467 -0.0615
   18CHL1   C13 1284   5.792   5.746   5.566 -0.0320  0.5112 -0.0622
   18CHL1   C18 1285   5.688   5.855   5.563  0.0165  0.0791  0.5957
   18CHL1  H18A 1286   5.734   5.955   5.552  0.5080 -0.3624 -1.8815
   18CHL1  H18B 1287   5.617   5.831   5.481  0.5892 -2.3840  0.7310
   18CHL1  H18C 1288   5.626   5.856   5.655 -1.0278 -2.2291 -0.0206
   18CHL1   C12 1289   5.735   5.605   5.608  0.8753 -0.1090 -0.1216
   18CHL1  H12A 1290   5.657   5.575   5.535 -1.3502  3.2632  0.6002
   18CHL1  H12B 1291   5.813   5.526   5.606 -0.7425 -1.8262  0.9136
   18CHL1   C11 1292   5.673   5.609   5.746  0.4631 -0.1209 -0.6714
   18CHL1  H11A 1293   5.581   5.671   5.745 -0.1902 -1.0586 -0.0051
   18CHL1  H11B 1294   5.640   5.506   5.771  1.3696 -0.6215 -1.4646
   18CHL1    C9 1295   5.773   5.666   5.849  0.1174  0.1470  0.2597
   18CHL1    H9 1296   5.852   5.588   5.852 -0.0612 -0.1105 -1.3276
   18CHL1   C10 1297   5.720   5.675   5.996  0.3738  0.2484  0.0486
   18CHL1   C19 1298   5.591   5.758   5.986 -0.8328 -0.8504  0.0470
   18CHL1  H19A 1299   5.510   5.698   5.939 -1.9215 -1.1206  2.1216
   18CHL1  H19B 1300   5.552   5.793   6.084  0.3132 -0.6846  0.4542
   18CHL1  H19C 1301   5.619   5.850   5.931 -0.1635 -0.3958  1.1201
   18CHL1    C1 1302   5.689   5.530   6.046 -0.2075 -0.2634 -0.6019
   18CHL1   H1A 1303   5.615   5.476   5.984  1.1305 -0.8407 -1.7497
   18CHL1   H1B 1304   5.772   5.458   6.031 -0.0986 -0.6791  1.6567
   18CHL1    C2 1305   5.666   5.506   6.202  0.2972 -0.5861  0.5026
   18CHL1   H2A 1306   5.662   5.398   6.224 -1.3069 -1.3999 -3.1022
   18CHL1   H2B 1307   5.571   5.559   6.228 -0.5396 -0.2367 -2.8008
   18CHL1   C20 1308   5.805   5.756   5.299 -0.6739  0.1805 -0.0264
   18CHL1   H20 1309   5.768   5.860   5.285 -0.3105  0.2780 -0.2601
   18CHL1   C21 1310   5.685   5.651   5.276 -0.2613 -0.1693 -0.0116
   18CHL1  H21A 1311   5.653   5.651   5.169  1.8898  0.7135 -0.7100
   18CHL1  H21B 1312   5.599   5.670   5.343  0.5142 -0.2853  1.0351
   18CHL1  H21C 1313   5.718   5.551   5.311  0.8519 -0.0503 -0.6671
   18CHL1   C22 1314   5.909   5.733   5.182  0.1077 -0.1005  0.3529
   18CHL1  H22A 1315   5.997   5.801   5.191 -0.2266  0.2362  1.1312
   18CHL1  H22B 1316   5.934   5.625   5.185  2.0627  0.2630 -0.8347
   18CHL1   C23 1317   5.858   5.764   5.039 -0.6241  0.3173  0.8338
   18CHL1  H23A 1318   5.789   5.679   5.019  0.6322 -0.0760 -2.5193
   18CHL1  H23B 1319   5.796   5.857   5.034  1.5104  1.7910  0.2554
   18CHL1   C24 1320   5.979   5.773   4.950 -0.2348  0.2449 -0.1963
   18CHL1  H24A 1321   6.021   5.873   4.975 -2.0454  1.7799 -2.7355
   18CHL1  H24B 1322   6.046   5.685   4.959  2.8467  2.2292 -2.0408
   18CHL1   C25 1323   5.947   5.795   4.798 -0.0971 -0.7489  0.4299
   18CHL1   H25 1324   5.892   5.891   4.783 -1.3673 -1.5317 -0.0832
   18CHL1   C26 1325   6.082   5.814   4.719 -0.4638  0.1483  0.3036
   18CHL1  H26A 1326   6.135   5.899   4.768 -0.4135  1.4083 -1.8067
   18CHL1  H26B 1327   6.146   5.724   4.721  3.1386  2.5227  0.7268
   18CHL1  H26C 1328   6.057   5.849   4.617  1.2948 -0.1054 -0.2357
   18CHL1   C27 1329   5.848   5.690   4.738 -0.1224 -0.6129  0.0719
   18CHL1  H27A 1330   5.800   5.744   4.653  1.2680 -0.3891 -0.5919
   18CHL1  H27B 1331   5.903   5.600   4.704  1.2082  0.4539 -0.7086
   18CHL1  H27C 1332   5.773   5.661   4.815  0.2769  0.2083  0.7926
   19CHL1    C3 1333   5.400   1.738   5.987  0.6390  0.4549 -0.2194
   19CHL1    H3 1334   5.507   1.733   5.960  0.8080 -1.5520  0.6327
   19CHL1    O3 1335   5.384   1.740   6.125 -0.7201  0.0777 -0.2218
   19CHL1   H3' 1336   5.292   1.741   6.152 -1.3752  0.8268 -2.3155
   19CHL1    C4 1337   5.333   1.861   5.921 -0.0330 -0.4580 -0.3233
   19CHL1   H4A 1338   5.230   1.865   5.963  0.2742 -1.5382  0.5813
   19CHL1   H4B 1339   5.386   1.952   5.957  0.6864 -0.7659 -0.6017
   19CHL1    C5 1340   5.320   1.858   5.774 -0.4982  0.6482 -0.1385
   19CHL1    C6 1341   5.370   1.963   5.707  0.0631  0.5500  0.5838
   19CHL1    H6 1342   5.408   2.053   5.758  0.6144  0.2699  0.6689
   19CHL1    C7 1343   5.373   1.986   5.555 -0.2071 -0.3373  0.1663
   19CHL1   H7A 1344   5.316   2.077   5.529  2.7303  1.0935 -1.9016
   19CHL1   H7B 1345   5.477   2.000   5.518 -0.2798 -0.7286 -0.1959
   19CHL1    C8 1346   5.294   1.863   5.490 -0.2497 -0.2429 -0.3080
   19CHL1    H8 1347   5.186   1.873   5.512 -0.2556 -0.8438 -0.0477
   19CHL1   C14 1348   5.319   1.854   5.340 -0.1777  0.2463 -0.2081
   19CHL1   H14 1349   5.428   1.835   5.335 -0.5241 -2.1440  0.0748
   19CHL1   C15 1350   5.286   1.980   5.254  0.1527 -0.9174 -0.1508
   19CHL1  H15A 1351   5.193   2.021   5.298  0.0887  0.1114 -1.1816
   19CHL1  H15B 1352   5.358   2.063   5.265 -0.5846 -0.3116  0.1626
   19CHL1   C16 1353   5.262   1.924   5.116 -0.4354 -0.2131  1.2246
   19CHL1  H16A 1354   5.155   1.944   5.092  0.2806  2.0747 -0.4205
   19CHL1  H16B 1355   5.320   1.979   5.039 -1.8845 -0.0507  0.2033
   19CHL1   C17 1356   5.293   1.767   5.123 -0.1454 -0.0726  0.5277
   19CHL1   H17 1357   5.404   1.770   5.118 -0.1941  2.7936 -0.2577
   19CHL1   C13 1358   5.257   1.733   5.269  0.9242 -0.7212  0.4257
   19CHL1   C18 1359   5.099   1.741   5.291  0.5613 -0.0287 -0.0075
   19CHL1  H18A 1360   5.064   1.817   5.218 -1.5440 -0.6408  0.3229
   19CHL1  H18B 1361   5.053   1.643   5.271  1.2160 -0.3628  0.0933
   19CHL1  H18C 1362   5.070   1.773   5.393 -0.6449  3.4399 -1.2651
   19CHL1   C12 1363   5.309   1.608   5.333 -0.4394 -1.2482 -0.3524
   19CHL1  H12A 1364   5.251   1.522   5.295 -0.9826 -0.1765 -2.0566
   19CHL1  H12B 1365   5.416   1.607   5.304 -0.7973  1.3910 -2.1548
   19CHL1   C11 1366   5.284   1.604   5.483 -0.1128 -0.1715  0.0600
   19CHL1  H11A 1367   5.182   1.574   5.515  0.2638  1.7756  3.6028
   19CHL1  H11B 1368   5.342   1.523   5.532  1.2543  1.6647  1.6434
   19CHL1    C9 1369   5.327   1.730   5.565  0.1444 -0.5273 -0.0630
   19CHL1    H9 1370   5.438   1.724   5.562  0.0540 -2.4494 -1.9297
   19CHL1   C10 1371   5.273   1.727   5.709 -0.0183 -0.4279  0.3190
   19CHL1   C19 1372   5.111   1.722   5.715  0.1853  1.4257 -0.0555
   19CHL1  H19A 1373   5.085   1.730   5.823  2.6232 -0.6670  0.8074
   19CHL1  H19B 1374   5.058   1.802   5.658  1.0105  1.0404 -1.4126
   19CHL1  H19C 1375   5.082   1.621   5.680  1.3545  1.4679 -1.2458
   19CHL1    C1 1376   5.328   1.596   5.784 -0.0655  0.2427 -0.6555
   19CHL1   H1A 1377   5.263   1.509   5.764  0.5668 -0.7021  1.1369
   19CHL1   H1B 1378   5.433   1.575   5.752  0.8122  1.1108  1.4164
   19CHL1    C2 1379   5.327   1.605   5.942 -0.0400 -0.0838  0.6292
   19CHL1   H2A 1380   5.368   1.511   5.984  1.4183  0.8265  1.3153
   19CHL1   H2B 1381   5.225   1.614   5.984 -0.4511  2.2330 -0.6397
   19CHL1   C20 1382   5.225   1.693   5.002  0.1213 -0.0353 -1.0307
   19CHL1   H20 1383   5.115   1.703   5.009  0.2005  0.3486 -0.2378
   19CHL1   C21 1384   5.257   1.545   5.017  0.3654  0.0319 -0.3353
   19CHL1  H21A 1385   5.204   1.488   5.096 -0.9699 -0.0902 -1.2936
   19CHL1  H21B 1386   5.367   1.544   5.031  0.5617  1.8220 -1.3986
   19CHL1  H21C 1387   5.239   1.489   4.923  2.1672 -1.0507 -0.0781
   19CHL1   C22 1388   5.262   1.755   4.860 -0.3056  0.3371  0.2812
   19CHL1  H22A 1389   5.237   1.670   4.793  0.3238 -0.6313  1.2514
   19CHL1  H22B 1390   5.215   1.849   4.825 -0.9313 -0.2375 -0.4652
   19CHL1   C23 1391   5.410   1.787   4.834  0.5604  0.2500 -0.4575
   19CHL1  H23A 1392   5.432   1.881   4.889  1.9779 -0.6119  0.5281
   19CHL1  H23B 1393   5.488   1.717   4.872  0.0764 -0.1747 -0.2240
   19CHL1   C24 1394   5.442   1.813   4.687  0.1041 -0.2866 -0.2690
   19CHL1  H24A 1395   5.415   1.714   4.645 -3.0078 -0.1331  1.0842
   19CHL1  H24B 1396   5.380   1.889   4.633  1.2457 -0.7097 -2.2978
   19CHL1   C25 1397   5.589   1.852   4.658  0.1709 -0.1189  0.2967
   19CHL1   H25 1398   5.660   1.785   4.711  0.3625 -0.7454 -0.7289
   19CHL1   C26 1399   5.631   1.836   4.519 -0.8978  0.0453  1.0749
   19CHL1  H26A 1400   5.739   1.856   4.505 -0.7460 -1.7378 -0.7247
   19CHL1  H26B 1401   5.621   1.729   4.491 -0.2259  0.1742  0.3128
   19CHL1  H26C 1402   5.588   1.910   4.448 -2.0521  1.0635  2.7705
   19CHL1   C27 1403   5.615   1.997   4.690  0.4667  0.1957 -0.1332
   19CHL1  H27A 1404   5.560   2.027   4.782 -2.2895 -0.6023 -1.4351
   19CHL1  H27B 1405   5.724   2.008   4.710  0.7072 -0.1789 -1.1751
   19CHL1  H27C 1406   5.599   2.073   4.611 -2.9371  0.6954  0.8905
   20CHL1    C3 1407   4.300   5.051   6.201  0.5577  0.1783 -0.8752
   20CHL1    H3 1408   4.338   4.948   6.219 -2.1504 -1.0399 -1.7257
   20CHL1    O3 1409   4.305   5.127   6.326 -0.3717  0.2572  0.1445
   20CHL1   H3' 1410   4.397   5.113   6.346 -0.2368  0.1348 -0.5270
   20CHL1    C4 1411   4.387   5.127   6.095  0.1864  0.2103 -0.1015
   20CHL1   H4A 1412   4.340   5.224   6.068  0.5875  0.8375  1.3259
   20CHL1   H4B 1413   4.484   5.163   6.136  0.1525 -2.0350  2.2589
   20CHL1    C5 1414   4.398   5.044   5.969 -0.3002 -0.6811 -0.6103
   20CHL1    C6 1415   4.521   5.006   5.917 -0.8792  0.6134 -0.3467
   20CHL1    H6 1416   4.621   5.041   5.949  0.1773 -1.2108 -1.5261
   20CHL1    C7 1417   4.545   4.915   5.800  0.0428 -0.2865 -0.0750
   20CHL1   H7A 1418   4.618   4.961   5.730  0.4215  1.6947  1.5470
   20CHL1   H7B 1419   4.588   4.818   5.834  1.3758  0.0526 -0.7504
   20CHL1    C8 1420   4.408   4.892   5.718  0.1212  0.5217 -0.5068
   20CHL1    H8 1421   4.395   4.984   5.657  1.4855 -0.1627 -1.9124
   20CHL1   C14 1422   4.421   4.772   5.622  0.0131 -0.1578  0.1462
   20CHL1   H14 1423   4.421   4.676   5.679  0.1521 -1.1549 -1.4562
   20CHL1   C15 1424   4.543   4.762   5.532  0.6360  0.4530  0.9135
   20CHL1  H15A 1425   4.550   4.858   5.478 -2.6723  0.4444  0.2465
   20CHL1  H15B 1426   4.642   4.730   5.570  1.3882 -1.6230 -2.3927
   20CHL1   C16 1427   4.500   4.656   5.429 -0.0027 -0.2615 -0.4718
   20CHL1  H16A 1428   4.537   4.697   5.333  4.2735  0.2756  1.1738
   20CHL1  H16B 1429   4.546   4.558   5.454 -0.1776 -0.2425 -0.0659
   20CHL1   C17 1430   4.344   4.640   5.433 -1.2086 -0.7456 -1.0663
   20CHL1   H17 1431   4.320   4.549   5.492  0.4560  0.3806  1.5253
   20CHL1   C13 1432   4.297   4.756   5.534  0.0056  0.4171  0.6683
   20CHL1   C18 1433   4.281   4.883   5.444  0.0368 -0.4625  1.1847
   20CHL1  H18A 1434   4.261   4.973   5.507 -0.0525  0.1515  0.3009
   20CHL1  H18B 1435   4.359   4.890   5.366 -1.2373 -1.8324 -0.2804
   20CHL1  H18C 1436   4.187   4.874   5.385  1.4002 -0.1280 -1.1845
   20CHL1   C12 1437   4.178   4.722   5.636 -0.0850  0.3982  0.0669
   20CHL1  H12A 1438   4.085   4.693   5.583 -0.9746  1.0445  1.2431
   20CHL1  H12B 1439   4.206   4.636   5.701 -1.4259  0.2980  0.5241
   20CHL1   C11 1440   4.157   4.840   5.726  0.4491 -0.1329 -0.3374
   20CHL1  H11A 1441   4.118   4.929   5.674 -0.4752 -0.9444 -1.0540
   20CHL1  H11B 1442   4.078   4.806   5.796  0.7364 -1.9281 -0.8409
   20CHL1    C9 1443   4.289   4.877   5.808  0.1705 -0.5376 -0.3417
   20CHL1    H9 1444   4.304   4.788   5.872 -0.9868 -0.7378 -0.3191
   20CHL1   C10 1445   4.267   5.002   5.901 -0.0758 -0.4138  0.1682
   20CHL1   C19 1446   4.206   5.127   5.826 -0.5291  0.3036 -0.2956
   20CHL1  H19A 1447   4.099   5.111   5.803 -0.1454 -2.1753 -0.5701
   20CHL1  H19B 1448   4.201   5.205   5.905 -0.8473  0.6388 -0.6421
   20CHL1  H19C 1449   4.267   5.158   5.738 -1.0319  0.6628 -0.5208
   20CHL1    C1 1450   4.157   4.959   6.010  0.8567 -0.6729  0.4118
   20CHL1   H1A 1451   4.055   4.970   5.968  1.2696 -0.6989 -0.6141
   20CHL1   H1B 1452   4.178   4.854   6.041  0.8833 -0.8578 -0.2153
   20CHL1    C2 1453   4.155   5.028   6.151 -0.5296 -0.4882  0.4805
   20CHL1   H2A 1454   4.109   4.965   6.230 -0.8770  0.3425  0.9418
   20CHL1   H2B 1455   4.110   5.129   6.154  2.5314  1.0516 -1.1584
   20CHL1   C20 1456   4.281   4.631   5.296  0.2293  0.3655  0.1362
   20CHL1   H20 1457   4.295   4.727   5.241 -0.3263 -0.2687 -1.1430
   20CHL1   C21 1458   4.132   4.604   5.319 -0.7886  0.5984  0.7011
   20CHL1  H21A 1459   4.075   4.688   5.365 -3.2098  1.4053 -3.3104
   20CHL1  H21B 1460   4.119   4.524   5.395 -1.5515  1.2390  1.2707
   20CHL1  H21C 1461   4.075   4.572   5.229  1.0648 -1.1991  0.0911
   20CHL1   C22 1462   4.337   4.512   5.203  0.5230 -0.4875 -0.2858
   20CHL1  H22A 1463   4.446   4.532   5.205  0.2816  1.4039  3.2981
   20CHL1  H22B 1464   4.323   4.413   5.250  1.7164 -0.6427 -0.2190
   20CHL1   C23 1465   4.274   4.504   5.059  0.2380  0.0965 -0.2354
   20CHL1  H23A 1466   4.166   4.478   5.068  0.4465 -0.9056 -0.5348
   20CHL1  H23B 1467   4.280   4.611   5.028  0.9560 -0.4137 -1.9801
   20CHL1   C24 1468   4.334   4.417   4.951  0.6066  0.7011  0.3638
   20CHL1  H24A 1469   4.445   4.416   4.960  0.8598 -3.8740 -0.9512
   20CHL1  H24B 1470   4.300   4.314   4.976 -1.3413  0.9515 -1.0534
   20CHL1   C25 1471   4.285   4.438   4.804  0.6742  0.4406 -0.1158
   20CHL1   H25 1472   4.174   4.435   4.805  0.6709 -1.1996  2.2422
   20CHL1   C26 1473   4.342   4.566   4.739 -0.3516  0.5493  0.3039
   20CHL1  H26A 1474   4.305   4.571   4.634  0.9575 -1.6100 -0.3271
   20CHL1  H26B 1475   4.330   4.659   4.799  2.8091 -0.3689  2.6312
   20CHL1  H26C 1476   4.450   4.544   4.725 -0.8157 -1.4383 -0.4873
   20CHL1   C27 1477   4.321   4.311   4.716  0.4510 -0.1707 -0.7491
   20CHL1  H27A 1478   4.432   4.307   4.717  0.4358 -0.6325  0.0418
   20CHL1  H27B 1479   4.285   4.215   4.759  1.8192 -0.4176 -0.1131
   20CHL1  H27C 1480   4.281   4.335   4.615  1.4147  0.0109 -1.0948
   21CHL1    C3 1481   4.741   3.887   6.325  0.1457  0.3244  0.5142
   21CHL1    H3 1482   4.788   3.788   6.304  0.3587  0.7224 -1.0323
   21CHL1    O3 1483   4.799   3.942   6.446  0.1547  0.6175 -0.2945
   21CHL1   H3' 1484   4.830   4.031   6.430 -0.4028  1.1878  1.5858
   21CHL1    C4 1485   4.765   3.975   6.205  0.1181  0.4481  0.0579
   21CHL1   H4A 1486   4.721   4.076   6.218  0.2330  0.3999  0.8447
   21CHL1   H4B 1487   4.875   3.983   6.189  0.1017 -0.6758 -0.6651
   21CHL1    C5 1488   4.701   3.923   6.079 -0.2645 -0.4396 -0.0838
   21CHL1    C6 1489   4.780   3.884   5.971 -0.4363  0.0866 -0.0834
   21CHL1    H6 1490   4.890   3.888   5.979 -0.3637 -1.8217  0.2581
   21CHL1    C7 1491   4.725   3.836   5.843 -0.2266 -0.0083 -0.2952
   21CHL1   H7A 1492   4.772   3.898   5.764 -2.6569  3.9558  1.1078
   21CHL1   H7B 1493   4.737   3.727   5.825 -1.5356 -0.3483  0.7529
   21CHL1    C8 1494   4.570   3.856   5.834 -0.3104  0.4153  0.1163
   21CHL1    H8 1495   4.552   3.963   5.808  2.1370  0.7623 -0.4103
   21CHL1   C14 1496   4.518   3.767   5.721 -0.0378 -0.0469 -0.3133
   21CHL1   H14 1497   4.548   3.663   5.749  2.0436  0.6961  0.4078
   21CHL1   C15 1498   4.575   3.783   5.577 -0.0501  0.5674 -0.4364
   21CHL1  H15A 1499   4.556   3.885   5.538 -0.4170 -0.1370 -2.1620
   21CHL1  H15B 1500   4.681   3.752   5.575  0.0208  0.0375  3.3934
   21CHL1   C16 1501   4.474   3.708   5.494  0.0158  0.5225  0.4525
   21CHL1  H16A 1502   4.454   3.757   5.396  2.8123 -2.3106 -1.7494
   21CHL1  H16B 1503   4.509   3.604   5.474 -2.5839 -0.6927  1.7614
   21CHL1   C17 1504   4.346   3.684   5.585 -0.1844 -1.0997  0.1591
   21CHL1   H17 1505   4.367   3.584   5.628  2.9241 -1.5458 -2.0870
   21CHL1   C13 1506   4.368   3.772   5.710  0.5312 -0.1870 -0.8722
   21CHL1   C18 1507   4.312   3.914   5.702 -0.0656 -0.4158  0.1499
   21CHL1  H18A 1508   4.344   3.965   5.609 -0.0532  0.4624  0.6248
   21CHL1  H18B 1509   4.202   3.916   5.685 -0.0199 -0.4903 -0.1646
   21CHL1  H18C 1510   4.328   3.983   5.788 -2.1299  0.4277 -0.0791
   21CHL1   C12 1511   4.317   3.709   5.840  0.2282 -0.5602  0.0785
   21CHL1  H12A 1512   4.206   3.706   5.844 -0.0090  3.2302  0.3405
   21CHL1  H12B 1513   4.360   3.607   5.853  0.6528 -0.3527  0.3163
   21CHL1   C11 1514   4.361   3.791   5.968  0.8577 -0.0953 -0.7832
   21CHL1  H11A 1515   4.307   3.887   5.958 -1.4509 -1.1141  1.0639
   21CHL1  H11B 1516   4.317   3.737   6.054 -0.5769 -0.6139 -1.7919
   21CHL1    C9 1517   4.509   3.814   5.974 -0.2024  0.6146  0.1293
   21CHL1    H9 1518   4.551   3.714   6.001 -2.2807 -0.1591  0.6736
   21CHL1   C10 1519   4.551   3.903   6.095 -0.1431  0.1907  0.1880
   21CHL1   C19 1520   4.483   4.045   6.097  0.1467 -0.0199 -0.0987
   21CHL1  H19A 1521   4.374   4.037   6.119 -0.0701 -1.1825 -1.4257
   21CHL1  H19B 1522   4.523   4.110   6.177  1.7111 -0.9162 -0.1136
   21CHL1  H19C 1523   4.487   4.089   5.995 -1.2958  0.7211  0.1445
   21CHL1    C1 1524   4.514   3.827   6.223  0.4632  0.3272  0.0579
   21CHL1   H1A 1525   4.404   3.819   6.237  0.1993 -0.6654 -2.1056
   21CHL1   H1B 1526   4.540   3.721   6.203 -1.3861 -0.2227  0.3065
   21CHL1    C2 1527   4.588   3.875   6.343 -0.0589  1.0950 -0.0273
   21CHL1   H2A 1528   4.579   3.799   6.422 -0.6646  0.8967 -0.2810
   21CHL1   H2B 1529   4.557   3.972   6.387  1.2166  1.2668  0.5346
   21CHL1   C20 1530   4.206   3.689   5.525  0.1016 -0.0157 -0.8777
   21CHL1   H20 1531   4.125   3.699   5.600 -0.9777 -1.6338 -1.7793
   21CHL1   C21 1532   4.179   3.551   5.479  1.0798  0.5267  0.0912
   21CHL1  H21A 1533   4.262   3.521   5.411 -0.6689 -0.0354 -1.8929
   21CHL1  H21B 1534   4.084   3.531   5.424 -0.0693  1.2538  1.7532
   21CHL1  H21C 1535   4.193   3.491   5.571 -2.1028  1.3289  1.2300
   21CHL1   C22 1536   4.188   3.792   5.413  0.3653  0.3786  0.6128
   21CHL1  H22A 1537   4.254   3.880   5.406 -1.2297  1.4854 -1.5006
   21CHL1  H22B 1538   4.199   3.746   5.313  1.4403  1.2362  0.3250
   21CHL1   C23 1539   4.038   3.838   5.411  0.0633  0.4316  0.0022
   21CHL1  H23A 1540   3.960   3.759   5.411  0.0294  0.4486  1.0108
   21CHL1  H23B 1541   4.022   3.905   5.499  1.3701  0.6650  0.0904
   21CHL1   C24 1542   4.000   3.926   5.290  0.3423 -0.1791  0.1833
   21CHL1  H24A 1543   4.069   4.011   5.277  1.4293 -1.0159  0.3652
   21CHL1  H24B 1544   4.011   3.862   5.199 -1.8154 -0.5061  0.0844
   21CHL1   C25 1545   3.852   3.983   5.284 -0.6880 -0.1058  0.0388
   21CHL1   H25 1546   3.779   3.899   5.293  2.0462 -2.7024 -0.2203
   21CHL1   C26 1547   3.845   4.098   5.388 -0.3273 -0.3158  0.3824
   21CHL1  H26A 1548   3.916   4.178   5.358 -0.8996  1.1966  2.7844
   21CHL1  H26B 1549   3.745   4.146   5.392  0.0587  0.5206  0.3917
   21CHL1  H26C 1550   3.887   4.069   5.487  0.7944 -1.3550 -0.3657
   21CHL1   C27 1551   3.819   4.040   5.146  0.1119  0.2610 -0.6069
   21CHL1  H27A 1552   3.716   4.079   5.139  0.1525  0.8529  1.4563
   21CHL1  H27B 1553   3.890   4.121   5.122  1.5009 -1.1004 -1.2993
   21CHL1  H27C 1554   3.838   3.969   5.062  0.7637 -0.7948  0.3907
   22CHL1    C3 1555   5.642   1.295   6.195  0.5745 -0.1545  0.4672
   22CHL1    H3 1556   5.533   1.316   6.201  0.6794  1.4130 -1.7387
   22CHL1    O3 1557   5.697   1.308   6.320 -0.0123  0.7247  0.0420
   22CHL1   H3' 1558   5.786   1.275   6.306 -0.4248 -0.0950 -0.7206
   22CHL1    C4 1559   5.665   1.156   6.137  0.6397  0.3898 -0.1572
   22CHL1   H4A 1560   5.773   1.145   6.157  0.1484  0.0237  2.8739
   22CHL1   H4B 1561   5.627   1.076   6.204  0.6831  1.6559  1.4479
   22CHL1    C5 1562   5.627   1.134   5.992 -0.0736  0.1786  0.4606
   22CHL1    C6 1563   5.548   1.032   5.953 -0.1782 -0.1793 -0.2153
   22CHL1    H6 1564   5.518   0.951   6.022  0.6040 -0.1300  0.2004
   22CHL1    C7 1565   5.513   1.010   5.811 -0.3501  0.1775  0.7301
   22CHL1   H7A 1566   5.533   0.902   5.795 -0.8707 -0.2478  2.6729
   22CHL1   H7B 1567   5.405   1.027   5.793 -0.2168 -0.6457 -1.0410
   22CHL1    C8 1568   5.596   1.086   5.696 -0.5982  0.2690 -1.0503
   22CHL1    H8 1569   5.696   1.039   5.689 -1.4068 -1.5912 -0.6386
   22CHL1   C14 1570   5.523   1.098   5.567  0.7194 -0.1799 -0.0600
   22CHL1   H14 1571   5.430   1.156   5.582  0.8318 -0.6160  2.8845
   22CHL1   C15 1572   5.467   0.966   5.519  0.0887 -0.5301 -0.4131
   22CHL1  H15A 1573   5.549   0.897   5.548  1.1393  0.5041 -0.8149
   22CHL1  H15B 1574   5.374   0.938   5.573  0.8799 -0.4074  1.0730
   22CHL1   C16 1575   5.447   0.989   5.363 -0.1218 -0.3320  0.4660
   22CHL1  H16A 1576   5.508   0.922   5.299 -1.4813 -0.8897 -0.2960
   22CHL1  H16B 1577   5.339   0.989   5.335 -0.3615 -1.5494  1.2771
   22CHL1   C17 1578   5.490   1.137   5.335  0.2624 -0.4108 -0.2198
   22CHL1   H17 1579   5.399   1.199   5.348 -0.0034 -1.0722  1.2407
   22CHL1   C13 1580   5.582   1.172   5.450 -0.2720 -0.1440 -0.1897
   22CHL1   C18 1581   5.717   1.120   5.411 -0.9555 -0.0839 -0.1558
   22CHL1  H18A 1582   5.710   1.010   5.392 -3.1277 -0.0179  0.0609
   22CHL1  H18B 1583   5.756   1.167   5.318 -0.3760 -1.9390 -0.9022
   22CHL1  H18C 1584   5.794   1.142   5.488  0.8667  0.9333 -2.1592
   22CHL1   C12 1585   5.602   1.319   5.495  0.6061  0.5169  0.4530
   22CHL1  H12A 1586   5.664   1.373   5.420 -1.0554  1.2307 -0.4623
   22CHL1  H12B 1587   5.504   1.370   5.502  0.5998  0.5455  0.1883
   22CHL1   C11 1588   5.672   1.329   5.633  1.0448 -0.3777 -0.0610
   22CHL1  H11A 1589   5.778   1.300   5.622  1.0856 -0.1712 -0.2206
   22CHL1  H11B 1590   5.671   1.435   5.667  0.3225 -0.9351  1.7658
   22CHL1    C9 1591   5.617   1.233   5.745 -0.0935  0.2396  0.1188
   22CHL1    H9 1592   5.514   1.272   5.758 -0.4437 -0.3278 -0.8947
   22CHL1   C10 1593   5.682   1.241   5.896  0.2114 -0.4789  0.0350
   22CHL1   C19 1594   5.834   1.234   5.875  0.6312  0.3671  0.7199
   22CHL1  H19A 1595   5.854   1.138   5.822 -0.0629  0.6715 -0.1001
   22CHL1  H19B 1596   5.867   1.305   5.797 -0.9873 -0.4612 -0.7779
   22CHL1  H19C 1597   5.902   1.246   5.962  2.6414 -3.0903 -0.1693
   22CHL1    C1 1598   5.646   1.375   5.954 -0.4918 -0.2793 -0.0015
   22CHL1   H1A 1599   5.673   1.450   5.877  0.2909 -0.9857 -0.4340
   22CHL1   H1B 1600   5.535   1.373   5.960 -0.5845 -1.3179 -1.4710
   22CHL1    C2 1601   5.697   1.402   6.097  0.5512 -0.8507 -0.4694
   22CHL1   H2A 1602   5.662   1.502   6.129  0.5962 -0.3175 -2.0127
   22CHL1   H2B 1603   5.807   1.416   6.095  0.6812 -1.6058  0.4771
   22CHL1   C20 1604   5.535   1.160   5.188  0.0052  0.1873  0.5336
   22CHL1   H20 1605   5.621   1.097   5.156 -1.2562 -0.5488 -1.6932
   22CHL1   C21 1606   5.557   1.306   5.152 -0.1440 -0.4694  0.1089
   22CHL1  H21A 1607   5.569   1.321   5.042  0.3811  0.4034  0.2728
   22CHL1  H21B 1608   5.646   1.346   5.205 -0.7088  2.1859 -0.7522
   22CHL1  H21C 1609   5.465   1.357   5.190 -1.2433 -2.8645  0.8140
   22CHL1   C22 1610   5.429   1.104   5.083  0.4390  0.2274 -0.6668
   22CHL1  H22A 1611   5.479   1.104   4.984  0.9035 -2.2401 -0.4838
   22CHL1  H22B 1612   5.421   0.994   5.097 -2.8532  0.5957  1.5498
   22CHL1   C23 1613   5.283   1.163   5.091 -0.2514 -0.1011  0.0482
   22CHL1  H23A 1614   5.228   1.105   5.168  0.9805 -2.2336 -0.6005
   22CHL1  H23B 1615   5.276   1.271   5.118  0.2952 -0.5984  2.4137
   22CHL1   C24 1616   5.219   1.130   4.950  0.0072 -0.1835 -0.7459
   22CHL1  H24A 1617   5.246   1.211   4.879 -1.0976  0.7264 -0.1616
   22CHL1  H24B 1618   5.258   1.032   4.915 -0.0187  0.0951 -1.5827
   22CHL1   C25 1619   5.068   1.144   4.951 -0.3263  0.1448 -0.0761
   22CHL1   H25 1620   5.037   1.063   5.020 -3.3458  1.5520  0.3409
   22CHL1   C26 1621   5.020   1.280   5.010 -0.4149  0.0459 -0.4566
   22CHL1  H26A 1622   5.051   1.295   5.115 -1.9078  1.0992 -0.1359
   22CHL1  H26B 1623   5.036   1.359   4.934  2.0207  0.3003  0.2296
   22CHL1  H26C 1624   4.910   1.267   5.011 -0.2792 -1.1755 -0.0110
   22CHL1   C27 1625   5.011   1.115   4.816  1.1121  0.4560 -0.7417
   22CHL1  H27A 1626   5.045   1.174   4.729 -0.1323 -1.9462 -3.0042
   22CHL1  H27B 1627   5.018   1.006   4.795  0.3987 -0.1531  1.7860
   22CHL1  H27C 1628   4.902   1.115   4.838  1.5584 -0.1366  1.8365
   23CHL1    C3 1629   3.165   5.341   6.348  0.1611  0.9660 -0.8161
   23CHL1    H3 1630   3.115   5.244   6.366  1.0943 -0.3094 -4.2941
   23CHL1    O3 1631   3.170   5.423   6.457 -0.6989  0.6744 -0.2664
   23CHL1   H3' 1632   3.260   5.398   6.480 -0.8616 -2.8109 -2.6379
   23CHL1    C4 1633   3.304   5.307   6.287  0.1383  0.1196  0.3059
   23CHL1   H4A 1634   3.352   5.406   6.274 -0.6718  0.3916 -0.7542
   23CHL1   H4B 1635   3.366   5.252   6.361  0.7134  1.7510  1.0893
   23CHL1    C5 1636   3.289   5.235   6.153 -0.5644 -0.1170  0.2502
   23CHL1    C6 1637   3.338   5.111   6.131  0.3602  0.5986  0.4633
   23CHL1    H6 1638   3.398   5.060   6.208 -1.2189 -3.3650 -0.6882
   23CHL1    C7 1639   3.327   5.029   6.008  0.0227 -0.2481  0.5362
   23CHL1   H7A 1640   3.418   4.967   5.995  0.8023  0.9413  0.1440
   23CHL1   H7B 1641   3.240   4.960   6.007 -0.0175 -0.2921 -2.6961
   23CHL1    C8 1642   3.326   5.128   5.888  1.0026 -0.1748  0.0026
   23CHL1    H8 1643   3.411   5.200   5.887 -1.5376  3.1429  1.5370
   23CHL1   C14 1644   3.322   5.056   5.755  0.4084 -0.0252 -0.0823
   23CHL1   H14 1645   3.242   4.980   5.764 -1.6291  2.0741  0.7324
   23CHL1   C15 1646   3.439   4.964   5.718 -0.0261  0.4903  0.2692
   23CHL1  H15A 1647   3.537   5.012   5.734  0.6568 -0.7088 -0.2030
   23CHL1  H15B 1648   3.431   4.871   5.777  0.5018  0.2073 -0.0992
   23CHL1   C16 1649   3.416   4.924   5.572  0.2205 -0.2763 -0.0576
   23CHL1  H16A 1650   3.506   4.945   5.509  0.1644 -0.3566 -0.1655
   23CHL1  H16B 1651   3.381   4.819   5.566 -1.7046  0.2201  1.5426
   23CHL1   C17 1652   3.297   5.016   5.520  0.1403  0.8949 -0.0275
   23CHL1   H17 1653   3.201   4.962   5.534  0.2232  0.1213 -2.1338
   23CHL1   C13 1654   3.291   5.131   5.627  0.1200 -0.9609 -0.3099
   23CHL1   C18 1655   3.393   5.244   5.604 -0.0323 -0.1956 -0.3771
   23CHL1  H18A 1656   3.491   5.205   5.570  0.6037 -0.0797  1.2609
   23CHL1  H18B 1657   3.360   5.307   5.518  1.6181  0.0881 -0.8461
   23CHL1  H18C 1658   3.412   5.317   5.685  0.7148 -1.4315  0.5904
   23CHL1   C12 1659   3.151   5.190   5.658  0.2619 -0.3154  1.1465
   23CHL1  H12A 1660   3.103   5.234   5.568 -1.7035 -2.2511  1.1471
   23CHL1  H12B 1661   3.084   5.107   5.689 -0.2660 -0.0154  0.8253
   23CHL1   C11 1662   3.157   5.288   5.779  0.0668  0.4283 -0.6076
   23CHL1  H11A 1663   3.224   5.369   5.743  0.3950  0.8032  0.7852
   23CHL1  H11B 1664   3.057   5.328   5.806  0.1153 -2.3869  5.7509
   23CHL1    C9 1665   3.194   5.215   5.910 -0.1976  0.7117  0.5117
   23CHL1    H9 1666   3.113   5.141   5.928 -0.8914  1.5377  0.8213
   23CHL1   C10 1667   3.201   5.308   6.039 -0.4102  0.0006 -0.3970
   23CHL1   C19 1668   3.273   5.431   5.994  0.2621 -0.2601  0.0870
   23CHL1  H19A 1669   3.360   5.405   5.930  0.5402 -0.9706  0.7220
   23CHL1  H19B 1670   3.198   5.484   5.933  1.3782  1.6471  0.3099
   23CHL1  H19C 1671   3.309   5.501   6.072  0.7835 -0.7979  0.3430
   23CHL1    C1 1672   3.065   5.335   6.110  0.1092 -0.4129  0.1624
   23CHL1   H1A 1673   2.982   5.377   6.051  0.4959 -0.4166 -0.3979
   23CHL1   H1B 1674   3.026   5.233   6.131 -2.6978  0.2936 -1.2349
   23CHL1    C2 1675   3.071   5.410   6.242 -0.3735 -0.0017 -0.8644
   23CHL1   H2A 1676   2.966   5.410   6.276  0.1089  0.3948  0.6972
   23CHL1   H2B 1677   3.106   5.515   6.231  0.8832 -0.2729  0.2066
   23CHL1   C20 1678   3.307   5.047   5.373  0.8190  0.5289  0.2732
   23CHL1   H20 1679   3.395   5.114   5.362  0.9300  0.2396 -0.7561
   23CHL1   C21 1680   3.192   5.139   5.327  0.6141 -0.3992 -0.1553
   23CHL1  H21A 1681   3.093   5.099   5.359 -0.1656 -1.8390 -3.8683
   23CHL1  H21B 1682   3.189   5.156   5.217 -0.9399  0.9117  0.0527
   23CHL1  H21C 1683   3.210   5.240   5.368  0.5871 -1.3233  2.2893
   23CHL1   C22 1684   3.326   4.919   5.278 -0.5459 -0.7664 -0.2257
   23CHL1  H22A 1685   3.422   4.869   5.304  0.6535  1.7766  0.5460
   23CHL1  H22B 1686   3.240   4.851   5.295 -1.2492 -0.1781 -1.3213
   23CHL1   C23 1687   3.348   4.952   5.133 -0.0944  0.1891  0.6874
   23CHL1  H23A 1688   3.257   5.003   5.094  1.2303  0.8575 -1.6733
   23CHL1  H23B 1689   3.430   5.025   5.120 -0.7519  0.8962  0.4167
   23CHL1   C24 1690   3.374   4.826   5.048  0.2704  0.3404 -0.1644
   23CHL1  H24A 1691   3.454   4.766   5.096  0.8581  0.2605 -1.2289
   23CHL1  H24B 1692   3.286   4.759   5.055  0.9447 -0.7957 -1.9333
   23CHL1   C25 1693   3.420   4.845   4.904  0.3678 -0.5519 -0.5413
   23CHL1   H25 1694   3.518   4.896   4.910 -0.2018  0.4016  1.5551
   23CHL1   C26 1695   3.429   4.712   4.824 -0.0754  0.8033  0.2853
   23CHL1  H26A 1696   3.433   4.735   4.715 -1.8817 -3.7919 -0.9835
   23CHL1  H26B 1697   3.525   4.670   4.861  0.5561  0.7219 -1.3632
   23CHL1  H26C 1698   3.339   4.651   4.846  1.0061 -0.5211  1.2313
   23CHL1   C27 1699   3.327   4.939   4.832  0.3111 -0.0449  0.2660
   23CHL1  H27A 1700   3.309   5.036   4.881  0.8110 -0.0041  0.3687
   23CHL1  H27B 1701   3.359   4.975   4.732  0.8398 -1.2071  0.0014
   23CHL1  H27C 1702   3.225   4.896   4.817 -0.0273  1.2687 -1.6366
   24CHL1    C3 1703   3.130   2.583   6.090  0.5909  1.0015  0.2355
   24CHL1    H3 1704   3.107   2.475   6.081 -0.4950  1.3752 -2.2342
   24CHL1    O3 1705   3.139   2.628   6.224  0.1194 -0.1315  0.2176
   24CHL1   H3' 1706   3.102   2.556   6.275 -0.4461  0.9187  1.3540
   24CHL1    C4 1707   3.260   2.623   6.017  0.3834  0.3734 -0.5250
   24CHL1   H4A 1708   3.267   2.734   6.010 -0.0562  0.3594 -1.3071
   24CHL1   H4B 1709   3.354   2.597   6.069  0.6773  1.1571 -0.6498
   24CHL1    C5 1710   3.256   2.578   5.870 -0.5695 -0.0465  0.8491
   24CHL1    C6 1711   3.347   2.490   5.810  0.9730 -0.6337 -0.6400
   24CHL1    H6 1712   3.433   2.459   5.871  0.6849  0.2366  0.2389
   24CHL1    C7 1713   3.350   2.449   5.662  0.0782 -0.0439  0.4053
   24CHL1   H7A 1714   3.451   2.460   5.619 -0.5381  0.0855 -1.0628
   24CHL1   H7B 1715   3.337   2.339   5.667 -2.9735  0.2412  0.9383
   24CHL1    C8 1716   3.238   2.512   5.567  0.6937 -0.6081  0.2531
   24CHL1    H8 1717   3.276   2.612   5.536  2.2213 -1.0409  0.6534
   24CHL1   C14 1718   3.207   2.425   5.445 -0.2623  0.1171  0.2674
   24CHL1   H14 1719   3.161   2.333   5.487 -0.3037 -0.8240 -1.6773
   24CHL1   C15 1720   3.326   2.397   5.349 -0.6640 -0.2327  0.2181
   24CHL1  H15A 1721   3.385   2.491   5.335  1.1444 -1.6400 -2.3904
   24CHL1  H15B 1722   3.402   2.329   5.392 -0.2967 -1.2904 -1.9780
   24CHL1   C16 1723   3.271   2.346   5.216  0.8961 -0.9001  0.3283
   24CHL1  H16A 1724   3.318   2.415   5.142 -1.0731 -0.1018 -0.2743
   24CHL1  H16B 1725   3.300   2.242   5.193  1.3135 -0.6867 -0.1220
   24CHL1   C17 1726   3.120   2.372   5.235  0.9245 -0.6175  0.1257
   24CHL1   H17 1727   3.081   2.276   5.275  0.4598 -2.0393 -3.4107
   24CHL1   C13 1728   3.109   2.486   5.344 -0.1367  0.3935 -0.2414
   24CHL1   C18 1729   3.146   2.623   5.285 -0.1522 -0.3808  0.5121
   24CHL1  H18A 1730   3.144   2.698   5.367  1.1205  0.4141 -0.1525
   24CHL1  H18B 1731   3.246   2.633   5.238  0.9513 -0.1548  2.7797
   24CHL1  H18C 1732   3.071   2.648   5.207 -0.5631 -2.2663  0.2357
   24CHL1   C12 1733   2.977   2.494   5.426  0.5453  0.0568  0.0885
   24CHL1  H12A 1734   2.901   2.555   5.372 -1.5940 -0.2768  2.5165
   24CHL1  H12B 1735   2.926   2.395   5.424  0.3577  0.1597 -0.5428
   24CHL1   C11 1736   2.984   2.566   5.560  0.0392  0.6100 -0.3385
   24CHL1  H11A 1737   2.999   2.674   5.541  0.2149  0.4068 -1.4155
   24CHL1  H11B 1738   2.886   2.560   5.613  0.5787  1.3908  0.7858
   24CHL1    C9 1739   3.105   2.517   5.651  0.8196 -0.3848 -0.5682
   24CHL1    H9 1740   3.084   2.412   5.682 -2.7038  0.5601  0.6178
   24CHL1   C10 1741   3.128   2.605   5.783 -0.6254 -0.4571 -0.3462
   24CHL1   C19 1742   3.125   2.763   5.748 -0.3619 -0.4306  0.6272
   24CHL1  H19A 1743   3.210   2.795   5.685  0.9731  1.0497  3.0353
   24CHL1  H19B 1744   3.027   2.792   5.706  0.7088  0.2678 -1.4972
   24CHL1  H19C 1745   3.142   2.826   5.838 -1.3071 -1.3718  1.4994
   24CHL1    C1 1746   3.005   2.576   5.872  0.1823 -0.1646 -0.2348
   24CHL1   H1A 1747   2.910   2.614   5.829 -1.0560 -2.0498  0.6953
   24CHL1   H1B 1748   2.995   2.466   5.887 -1.5001 -0.1929 -1.2921
   24CHL1    C2 1749   3.011   2.643   6.017 -0.5417  0.0381  0.3385
   24CHL1   H2A 1750   2.913   2.624   6.067 -1.9421  2.3603 -1.3619
   24CHL1   H2B 1751   3.027   2.752   6.015 -0.9001  0.1183  1.1710
   24CHL1   C20 1752   3.047   2.389   5.099  0.0531 -0.3791 -0.2911
   24CHL1   H20 1753   3.080   2.486   5.056  0.5981 -0.0755  0.7815
   24CHL1   C21 1754   2.893   2.385   5.117 -0.5139 -0.0954 -0.2214
   24CHL1  H21A 1755   2.869   2.445   5.208 -0.1774  1.3053 -1.0352
   24CHL1  H21B 1756   2.865   2.279   5.140  0.8223 -0.5937 -0.7776
   24CHL1  H21C 1757   2.852   2.427   5.023  2.5835  0.8860 -1.2516
   24CHL1   C22 1758   3.089   2.277   5.001  0.2775  0.2245 -0.9013
   24CHL1  H22A 1759   3.197   2.291   4.983 -0.0752  0.6443 -2.9756
   24CHL1  H22B 1760   3.071   2.176   5.044  1.0646  0.2653 -0.4580
   24CHL1   C23 1761   3.032   2.295   4.863  0.4128  0.3621  1.3554
   24CHL1  H23A 1762   2.921   2.291   4.872  0.3172 -1.5571 -0.0337
   24CHL1  H23B 1763   3.053   2.397   4.822 -1.0741  0.7273  1.4498
   24CHL1   C24 1764   3.080   2.186   4.758  0.1272  0.0759 -0.0846
   24CHL1  H24A 1765   3.187   2.203   4.732  0.5338 -1.9520  0.1240
   24CHL1  H24B 1766   3.085   2.091   4.815  0.3196 -1.2244 -2.1630
   24CHL1   C25 1767   2.998   2.173   4.627  0.5216 -0.2844 -0.0636
   24CHL1   H25 1768   2.889   2.192   4.642  0.3924 -1.3089  0.3763
   24CHL1   C26 1769   3.054   2.260   4.509 -0.1813  0.2860 -0.1294
   24CHL1  H26A 1770   2.984   2.249   4.423 -0.2723 -0.6287  0.0551
   24CHL1  H26B 1771   3.054   2.368   4.537  0.3523 -0.4732  3.2171
   24CHL1  H26C 1772   3.159   2.229   4.491 -0.2059 -0.0868  0.3515
   24CHL1   C27 1773   3.002   2.031   4.584  0.0883  0.0433  0.0084
   24CHL1  H27A 1774   3.109   2.002   4.582 -0.5872 -3.1115  1.9775
   24CHL1  H27B 1775   2.939   1.956   4.637 -1.0902  0.0492 -1.3211
   24CHL1  H27C 1776   2.970   2.025   4.477 -0.1585  0.0867  0.0782
   25CHL1    C3 1777   1.359   1.949   5.781  0.7701 -0.3215  0.1848
   25CHL1    H3 1778   1.465   1.966   5.809  0.5772 -0.4360  1.0182
   25CHL1    O3 1779   1.290   1.969   5.902 -0.3697 -0.6487 -0.4164
   25CHL1   H3' 1780   1.314   2.057   5.933  0.1391 -0.1084 -2.2380
   25CHL1    C4 1781   1.297   2.050   5.681  0.5324 -0.1769 -0.0207
   25CHL1   H4A 1782   1.187   2.048   5.691  0.5830  1.8887  1.8401
   25CHL1   H4B 1783   1.324   2.149   5.726 -0.1264  0.3781 -0.8187
   25CHL1    C5 1784   1.331   2.029   5.539 -0.0796  0.1587 -0.0253
   25CHL1    C6 1785   1.384   2.123   5.460  0.3947  0.5813 -0.3621
   25CHL1    H6 1786   1.397   2.229   5.487 -2.4666  1.4686 -2.0008
   25CHL1    C7 1787   1.417   2.102   5.316  0.0552  0.3986  0.1453
   25CHL1   H7A 1788   1.383   2.188   5.254  0.7600 -0.1295 -1.0030
   25CHL1   H7B 1789   1.528   2.094   5.316 -0.0200 -1.0685  0.9546
   25CHL1    C8 1790   1.373   1.972   5.251 -0.2824  0.5659  0.2635
   25CHL1    H8 1791   1.268   1.993   5.224  0.2490  0.9451 -1.6665
   25CHL1   C14 1792   1.450   1.932   5.123 -0.3537 -0.1609 -0.5662
   25CHL1   H14 1793   1.555   1.918   5.157  0.2514  1.6323 -1.5783
   25CHL1   C15 1794   1.476   2.038   5.020 -0.6154  0.1722 -0.3640
   25CHL1  H15A 1795   1.386   2.100   5.003 -1.6730 -0.3567  2.7559
   25CHL1  H15B 1796   1.558   2.107   5.050  0.3238 -0.2909 -1.7242
   25CHL1   C16 1797   1.507   1.965   4.892  0.0609 -0.3387  0.0651
   25CHL1  H16A 1798   1.423   1.981   4.820  0.3781  1.3502  0.0246
   25CHL1  H16B 1799   1.598   2.002   4.840 -1.3011  0.7044 -1.7086
   25CHL1   C17 1800   1.505   1.810   4.927 -0.1315 -0.0690 -0.2277
   25CHL1   H17 1801   1.606   1.774   4.955  0.1715  1.4385  0.7545
   25CHL1   C13 1802   1.403   1.812   5.052  0.2141 -0.1814  0.4930
   25CHL1   C18 1803   1.259   1.820   4.994  0.1342 -0.4943  0.1155
   25CHL1  H18A 1804   1.180   1.859   5.062 -1.6117  0.7778 -2.4953
   25CHL1  H18B 1805   1.266   1.898   4.916 -1.5727 -0.0231  0.3880
   25CHL1  H18C 1806   1.227   1.728   4.940  0.0385 -0.5586  0.2797
   25CHL1   C12 1807   1.427   1.696   5.152  0.2084  0.3820 -0.1623
   25CHL1  H12A 1808   1.391   1.605   5.100  0.7235  0.1578 -0.1289
   25CHL1  H12B 1809   1.533   1.687   5.183 -0.3945 -0.8316  1.7765
   25CHL1   C11 1810   1.344   1.721   5.282 -0.1112 -0.5022  0.1161
   25CHL1  H11A 1811   1.235   1.735   5.263 -0.2210 -1.5644 -0.1421
   25CHL1  H11B 1812   1.338   1.629   5.345 -1.9525  0.3046  1.2100
   25CHL1    C9 1813   1.384   1.851   5.352  0.4314  0.1251  0.7117
   25CHL1    H9 1814   1.492   1.836   5.375  0.4172 -1.9912 -0.3103
   25CHL1   C10 1815   1.317   1.878   5.493 -0.1552 -0.6972  0.2757
   25CHL1   C19 1816   1.165   1.845   5.483 -0.2470  0.3720 -0.5060
   25CHL1  H19A 1817   1.119   1.869   5.582  1.1436 -2.2572  0.8696
   25CHL1  H19B 1818   1.111   1.901   5.403 -0.1482  0.6522 -0.3780
   25CHL1  H19C 1819   1.147   1.736   5.473 -3.4643  0.5019  2.0090
   25CHL1    C1 1820   1.382   1.779   5.594  0.5682 -0.7668 -0.1800
   25CHL1   H1A 1821   1.350   1.678   5.559 -1.9346  1.0433 -3.8204
   25CHL1   H1B 1822   1.493   1.779   5.595  0.6356 -1.7955 -2.0570
   25CHL1    C2 1823   1.332   1.803   5.742 -0.3570  0.1326 -0.1073
   25CHL1   H2A 1824   1.386   1.737   5.813  1.6180 -2.8370 -4.0080
   25CHL1   H2B 1825   1.224   1.785   5.760 -0.4511  0.9983  0.2620
   25CHL1   C20 1826   1.470   1.723   4.805  0.3460 -0.3011  1.5063
   25CHL1   H20 1827   1.374   1.744   4.754  2.6317 -1.0654 -3.7101
   25CHL1   C21 1828   1.469   1.573   4.840  0.2987  0.2827 -0.2962
   25CHL1  H21A 1829   1.460   1.516   4.745  0.6326  1.1619 -0.8681
   25CHL1  H21B 1830   1.377   1.553   4.899  0.8450 -0.5666  0.2879
   25CHL1  H21C 1831   1.551   1.537   4.907  0.1325 -1.1149 -0.8015
   25CHL1   C22 1832   1.568   1.747   4.685 -0.0285 -0.1368 -0.4370
   25CHL1  H22A 1833   1.580   1.855   4.661 -0.7584  0.3507  1.2612
   25CHL1  H22B 1834   1.668   1.710   4.717 -1.1774 -2.8069  0.3507
   25CHL1   C23 1835   1.525   1.676   4.562  0.2187  0.0410 -0.9211
   25CHL1  H23A 1836   1.553   1.570   4.573  0.6770  0.2477  0.0654
   25CHL1  H23B 1837   1.414   1.681   4.558  0.1015  0.7543  1.5624
   25CHL1   C24 1838   1.582   1.744   4.441 -0.1166  0.2635  0.2178
   25CHL1  H24A 1839   1.525   1.839   4.443 -2.6306 -1.1789  0.5181
   25CHL1  H24B 1840   1.689   1.766   4.464 -0.1736  1.6369 -0.6995
   25CHL1   C25 1841   1.578   1.681   4.296  0.0687 -0.3180  0.1393
   25CHL1   H25 1842   1.488   1.615   4.294  0.9146 -1.4997 -2.2203
   25CHL1   C26 1843   1.558   1.799   4.191  0.4591 -1.5840 -0.4803
   25CHL1  H26A 1844   1.558   1.763   4.086 -0.0335 -0.7900 -0.7558
   25CHL1  H26B 1845   1.460   1.846   4.215  0.2179 -1.8359 -0.9584
   25CHL1  H26C 1846   1.641   1.873   4.197 -1.3107  0.6195 -1.7986
   25CHL1   C27 1847   1.698   1.593   4.270 -0.5270 -0.4782  0.1589
   25CHL1  H27A 1848   1.731   1.525   4.351  0.9262 -0.9397 -0.7717
   25CHL1  H27B 1849   1.674   1.535   4.178 -2.2208  3.1630 -1.9042
   25CHL1  H27C 1850   1.789   1.651   4.241  0.4759 -1.5779  0.9872
   26CHL1    C3 1851   5.689   2.407   5.975 -0.3426 -1.4165 -0.2519
   26CHL1    H3 1852   5.645   2.506   5.997  0.8981 -0.7410 -0.6911
   26CHL1    O3 1853   5.731   2.343   6.097  0.0369  0.4050  0.1825
   26CHL1   H3' 1854   5.763   2.255   6.074  2.0372 -0.0028  3.7258
   26CHL1    C4 1855   5.584   2.319   5.907  0.0461 -0.2621 -0.1199
   26CHL1   H4A 1856   5.622   2.214   5.903 -2.1045 -1.0757 -3.4978
   26CHL1   H4B 1857   5.501   2.313   5.981  1.2902 -0.0564  1.3381
   26CHL1    C5 1858   5.545   2.365   5.764 -0.7090  0.0762 -0.1835
   26CHL1    C6 1859   5.419   2.380   5.715 -0.0431  0.5325  0.0782
   26CHL1    H6 1860   5.338   2.352   5.785 -0.9428  0.6593 -0.8861
   26CHL1    C7 1861   5.396   2.404   5.572 -0.1886 -0.1836 -0.1505
   26CHL1   H7A 1862   5.302   2.349   5.550  0.7472 -1.5160 -0.9118
   26CHL1   H7B 1863   5.357   2.508   5.570 -1.0600 -0.5094 -0.5373
   26CHL1    C8 1864   5.506   2.386   5.475  0.3014  0.0448  0.5918
   26CHL1    H8 1865   5.521   2.278   5.457  0.7680  0.4199 -1.5572
   26CHL1   C14 1866   5.479   2.463   5.353  0.6254 -0.4610  0.4788
   26CHL1   H14 1867   5.476   2.572   5.374 -0.9859  0.0700 -2.0714
   26CHL1   C15 1868   5.341   2.426   5.287  0.0630 -0.0373  0.7322
   26CHL1  H15A 1869   5.334   2.316   5.276  1.5694 -0.6053  4.0919
   26CHL1  H15B 1870   5.248   2.455   5.341 -3.1770 -0.8753 -3.7898
   26CHL1   C16 1871   5.351   2.500   5.153  0.0592 -0.7968 -0.1757
   26CHL1  H16A 1872   5.286   2.459   5.072 -0.9053 -0.6995  0.5342
   26CHL1  H16B 1873   5.309   2.598   5.184  2.4918 -0.6812  3.2203
   26CHL1   C17 1874   5.505   2.522   5.129 -0.4110  0.5563  0.0606
   26CHL1   H17 1875   5.527   2.629   5.148  1.0532  0.1572  0.7798
   26CHL1   C13 1876   5.579   2.446   5.241  0.4932  0.3515  0.2095
   26CHL1   C18 1877   5.603   2.299   5.199  0.1421 -0.0351 -0.1148
   26CHL1  H18A 1878   5.514   2.243   5.162  0.1333 -0.8838  1.1376
   26CHL1  H18B 1879   5.679   2.293   5.118 -0.7036 -0.2224 -0.9132
   26CHL1  H18C 1880   5.643   2.252   5.291  1.3976  1.0735 -0.0596
   26CHL1   C12 1881   5.706   2.519   5.297 -0.0650 -0.2067  0.3218
   26CHL1  H12A 1882   5.796   2.514   5.231  0.8354  2.4383  1.2290
   26CHL1  H12B 1883   5.675   2.623   5.320  2.5171  0.4478  1.1694
   26CHL1   C11 1884   5.755   2.448   5.428  0.7787 -0.1789  0.1269
   26CHL1  H11A 1885   5.805   2.353   5.401 -0.7778 -0.8319 -0.5418
   26CHL1  H11B 1886   5.841   2.504   5.471 -0.8190  1.9402  0.7279
   26CHL1    C9 1887   5.642   2.444   5.539 -0.2691 -0.1651 -0.3016
   26CHL1    H9 1888   5.620   2.549   5.567 -2.9527 -1.4734  3.2183
   26CHL1   C10 1889   5.676   2.383   5.686  0.1276 -0.1093  0.5721
   26CHL1   C19 1890   5.741   2.247   5.657 -0.3920  0.4410  0.4111
   26CHL1  H19A 1891   5.842   2.260   5.611 -1.0170  0.0926 -1.1099
   26CHL1  H19B 1892   5.747   2.176   5.742  1.0884  0.4946  0.3780
   26CHL1  H19C 1893   5.691   2.190   5.576  2.5301 -2.2638  0.2661
   26CHL1    C1 1894   5.780   2.477   5.746  0.4041  0.7197  0.1758
   26CHL1   H1A 1895   5.870   2.481   5.681 -0.7027 -0.5841 -1.5330
   26CHL1   H1B 1896   5.744   2.582   5.743  0.3436  0.6673 -1.5956
   26CHL1    C2 1897   5.813   2.429   5.890  0.1224 -0.7249  0.8182
   26CHL1   H2A 1898   5.890   2.486   5.947 -0.3830 -0.2428  1.0312
   26CHL1   H2B 1899   5.845   2.323   5.885  0.0107 -0.7013 -1.9073
   26CHL1   C20 1900   5.551   2.510   4.980  0.0621  0.1033  0.1674
   26CHL1   H20 1901   5.532   2.404   4.954  0.7272 -0.0078  0.1202
   26CHL1   C21 1902   5.704   2.535   4.965  0.4382 -0.4793  0.2476
   26CHL1  H21A 1903   5.745   2.555   4.864 -0.0013  1.9019  0.4824
   26CHL1  H21B 1904   5.755   2.443   5.000  0.7956 -0.4855 -0.2830
   26CHL1  H21C 1905   5.738   2.618   5.030 -2.4760 -0.8796  2.5013
   26CHL1   C22 1906   5.465   2.590   4.870 -0.1379  0.1014 -0.9111
   26CHL1  H22A 1907   5.496   2.586   4.764  2.0840 -1.3579 -0.2630
   26CHL1  H22B 1908   5.364   2.543   4.880 -1.1702  2.0048 -1.8416
   26CHL1   C23 1909   5.459   2.742   4.886 -0.2256  0.2683 -0.1542
   26CHL1  H23A 1910   5.417   2.768   4.985  2.1813  1.7167  0.5761
   26CHL1  H23B 1911   5.564   2.778   4.890 -0.2998  0.7147 -1.5338
   26CHL1   C24 1912   5.382   2.804   4.768  0.4384 -0.6183  0.7016
   26CHL1  H24A 1913   5.440   2.780   4.676 -1.9364  0.5351 -1.1924
   26CHL1  H24B 1914   5.282   2.757   4.763  0.2129 -0.3610  2.3592
   26CHL1   C25 1915   5.362   2.958   4.776 -0.0705 -0.6508 -0.2370
   26CHL1   H25 1916   5.364   2.988   4.882 -1.0389  0.1565 -0.4373
   26CHL1   C26 1917   5.477   3.040   4.724 -0.1512 -0.4666  0.1446
   26CHL1  H26A 1918   5.573   3.014   4.774  1.8691  3.4746 -1.2374
   26CHL1  H26B 1919   5.482   3.025   4.614 -0.4129  1.2496 -0.1198
   26CHL1  H26C 1920   5.456   3.146   4.746  2.2846  0.0609  0.2011
   26CHL1   C27 1921   5.232   3.010   4.720 -0.1497 -0.1623  0.0555
   26CHL1  H27A 1922   5.140   2.982   4.774  0.1737 -1.6885 -0.1397
   26CHL1  H27B 1923   5.236   3.121   4.719 -0.9034 -0.0816  2.2137
   26CHL1  H27C 1924   5.221   2.965   4.618 -0.4033 -0.2482  0.1199
   27CHL1    C3 1925   4.178   1.915   6.277 -0.1882 -0.3973  0.1732
   27CHL1    H3 1926   4.123   2.007   6.306  0.0697 -0.1126 -0.2226
   27CHL1    O3 1927   4.206   1.854   6.401 -0.4250  0.0661 -0.4342
   27CHL1   H3' 1928   4.270   1.791   6.368  1.2486  2.2607 -1.6758
   27CHL1    C4 1929   4.098   1.817   6.200  0.7527  0.4820 -0.3221
   27CHL1   H4A 1930   4.156   1.722   6.193  1.9611  1.1769 -0.0127
   27CHL1   H4B 1931   4.000   1.800   6.250  1.3038 -1.4964  0.1899
   27CHL1    C5 1932   4.090   1.853   6.053 -0.0282 -0.4730 -0.3642
   27CHL1    C6 1933   3.973   1.862   5.995 -0.4659  0.1197  0.5020
   27CHL1    H6 1934   3.879   1.832   6.042 -0.5478  1.6290  1.3835
   27CHL1    C7 1935   3.953   1.905   5.850  1.2100 -0.0007 -0.1164
   27CHL1   H7A 1936   3.891   1.832   5.794 -0.0501  0.7742  0.2226
   27CHL1   H7B 1937   3.893   1.999   5.845  2.4743  0.7615 -2.0562
   27CHL1    C8 1938   4.084   1.913   5.768  0.1700 -0.2476 -0.3432
   27CHL1    H8 1939   4.107   1.808   5.739  2.6470  0.4446 -1.1704
   27CHL1   C14 1940   4.052   1.990   5.641  0.1809  0.3828 -0.3651
   27CHL1   H14 1941   4.036   2.097   5.665 -1.1360  0.2494 -0.5898
   27CHL1   C15 1942   3.930   1.942   5.555  0.2953 -0.4666  0.0683
   27CHL1  H15A 1943   3.943   1.831   5.553  3.3342 -0.2034 -0.7789
   27CHL1  H15B 1944   3.841   1.968   5.616 -0.2808 -0.9320 -0.5678
   27CHL1   C16 1945   3.952   2.000   5.423 -0.0001  1.2720  0.5999
   27CHL1  H16A 1946   3.948   1.911   5.357  0.8646  1.1252  0.7239
   27CHL1  H16B 1947   3.875   2.067   5.378  0.7657 -0.3353 -3.5778
   27CHL1   C17 1948   4.097   2.065   5.427  0.3423  0.1087 -0.1305
   27CHL1   H17 1949   4.082   2.170   5.459 -0.6592 -1.3154  4.9917
   27CHL1   C13 1950   4.172   1.987   5.540  0.3700  0.9086  0.1999
   27CHL1   C18 1951   4.213   1.848   5.482 -0.3931  0.4973 -0.1544
   27CHL1  H18A 1952   4.303   1.866   5.420 -1.0415 -1.5587 -1.8031
   27CHL1  H18B 1953   4.222   1.782   5.571 -0.9456  0.6839  0.0442
   27CHL1  H18C 1954   4.136   1.807   5.413  0.0870  0.7945 -0.8718
   27CHL1   C12 1955   4.288   2.057   5.611  0.9358  0.3241 -0.0641
   27CHL1  H12A 1956   4.374   2.074   5.544  1.0581  0.3464  0.0977
   27CHL1  H12B 1957   4.262   2.158   5.649  3.8754  1.0725  0.1689
   27CHL1   C11 1958   4.326   1.987   5.748 -0.1522  0.0395 -0.0603
   27CHL1  H11A 1959   4.368   1.886   5.728  0.9373  0.3694  0.4489
   27CHL1  H11B 1960   4.404   2.045   5.803 -0.0402  0.2645 -0.4534
   27CHL1    C9 1961   4.204   1.970   5.843  0.4463 -0.2024  0.4314
   27CHL1    H9 1962   4.169   2.073   5.865  0.7752 -0.3947  1.9657
   27CHL1   C10 1963   4.222   1.900   5.979 -0.2633 -0.6925  0.1838
   27CHL1   C19 1964   4.313   1.778   5.955 -0.6666  0.1427  0.3271
   27CHL1  H19A 1965   4.279   1.712   5.873 -0.0859 -2.0600  1.7917
   27CHL1  H19B 1966   4.419   1.808   5.939 -0.7851  1.4354  1.6573
   27CHL1  H19C 1967   4.302   1.718   6.047 -2.8262  0.2750  0.2208
   27CHL1    C1 1968   4.293   1.999   6.071 -0.1161  0.3824 -0.0372
   27CHL1   H1A 1969   4.396   2.004   6.029  1.3271  0.8628  3.3105
   27CHL1   H1B 1970   4.237   2.095   6.076 -2.7732 -1.1521  3.1627
   27CHL1    C2 1971   4.314   1.951   6.216 -0.1136  0.2685  0.7679
   27CHL1   H2A 1972   4.368   2.025   6.278  0.1105 -1.0512  2.2079
   27CHL1   H2B 1973   4.374   1.858   6.213  0.3358  0.3951  3.5707
   27CHL1   C20 1974   4.159   2.072   5.289 -0.0408 -0.2723 -0.2428
   27CHL1   H20 1975   4.166   1.967   5.254 -1.5723 -0.1587 -0.9675
   27CHL1   C21 1976   4.302   2.124   5.293  0.1968  0.2305  0.5750
   27CHL1  H21A 1977   4.299   2.197   5.376  1.0624  0.5309  0.3537
   27CHL1  H21B 1978   4.335   2.175   5.200  1.6244 -1.8089 -0.1105
   27CHL1  H21C 1979   4.380   2.046   5.307  1.8837  1.8110  0.3949
   27CHL1   C22 1980   4.075   2.142   5.182  0.2556  0.8228  0.4494
   27CHL1  H22A 1981   3.968   2.114   5.187 -0.2403  2.5204 -0.0325
   27CHL1  H22B 1982   4.080   2.250   5.209 -0.6428  0.5767  1.6723
   27CHL1   C23 1983   4.129   2.126   5.038  0.1068  0.1861  0.2109
   27CHL1  H23A 1984   4.067   2.187   4.969  1.3173  0.1945 -0.9149
   27CHL1  H23B 1985   4.225   2.181   5.032 -0.6278  1.5057  0.1265
   27CHL1   C24 1986   4.128   1.979   4.982 -0.7787 -0.0094  0.6502
   27CHL1  H24A 1987   4.159   1.976   4.875 -0.3495 -1.0286  0.7943
   27CHL1  H24B 1988   4.209   1.917   5.026 -1.0365  0.2541  1.5085
   27CHL1   C25 1989   3.999   1.901   4.993  0.9314  0.7604  0.1914
   27CHL1   H25 1990   3.976   1.891   5.101 -2.2439 -2.9054 -0.6051
   27CHL1   C26 1991   3.870   1.955   4.920  0.0315  0.4525 -0.2494
   27CHL1  H26A 1992   3.844   2.060   4.943 -1.2477 -0.1418  1.1494
   27CHL1  H26B 1993   3.872   1.950   4.809  1.6342  0.6193 -0.2525
   27CHL1  H26C 1994   3.784   1.887   4.940  0.3252 -1.5892 -4.5833
   27CHL1   C27 1995   4.006   1.755   4.943  0.0011 -0.0431 -0.0941
   27CHL1  H27A 1996   3.919   1.696   4.979 -1.9208  2.4163 -0.4332
   27CHL1  H27B 1997   4.007   1.750   4.832 -0.6407 -0.8938 -0.0729
   27CHL1  H27C 1998   4.091   1.704   4.994  1.2586  1.7632 -0.3083
   28CHL1    C3 1999   4.875   1.952   6.147  1.0069  0.1199 -0.0838
   28CHL1    H3 2000   4.938   1.876   6.096 -0.4890  0.0510 -1.9540
   28CHL1    O3 2001   4.875   1.949   6.288  0.0373 -0.1703 -0.0298
   28CHL1   H3' 2002   4.808   2.010   6.320  1.4538  1.2468  0.3671
   28CHL1    C4 2003   4.954   2.077   6.097  0.1899 -0.2995  0.0391
   28CHL1   H4A 2004   4.916   2.164   6.155  1.2177  0.1934 -0.0199
   28CHL1   H4B 2005   5.056   2.062   6.137 -0.1114  0.0429  0.9660
   28CHL1    C5 2006   4.954   2.092   5.945  0.0521  0.0174  0.6740
   28CHL1    C6 2007   5.065   2.094   5.871 -0.1484 -0.2862 -0.3891
   28CHL1    H6 2008   5.161   2.090   5.924 -2.0398  1.8488  3.7279
   28CHL1    C7 2009   5.060   2.132   5.724  0.0770  1.0028 -0.3048
   28CHL1   H7A 2010   5.131   2.216   5.711 -1.0466  1.7697 -1.8506
   28CHL1   H7B 2011   5.072   2.048   5.652 -1.3942  1.2532 -0.8815
   28CHL1    C8 2012   4.926   2.183   5.668 -0.3547 -0.0426 -0.4208
   28CHL1    H8 2013   4.908   2.291   5.688  1.1653  0.7077 -2.6687
   28CHL1   C14 2014   4.934   2.182   5.519  0.3752 -0.3032  0.4648
   28CHL1   H14 2015   4.936   2.075   5.489 -2.0473 -0.6328  1.2703
   28CHL1   C15 2016   5.046   2.249   5.445  0.0428  0.8335 -0.6998
   28CHL1  H15A 2017   5.052   2.352   5.488 -2.5031  0.7835 -0.0569
   28CHL1  H15B 2018   5.145   2.198   5.443 -1.4154 -2.1918 -0.9128
   28CHL1   C16 2019   4.995   2.263   5.302  0.0493  0.8519  0.2472
   28CHL1  H16A 2020   5.019   2.366   5.269  3.0331  0.7490  1.7319
   28CHL1  H16B 2021   5.048   2.190   5.236 -0.2854  0.5326  0.3283
   28CHL1   C17 2022   4.843   2.228   5.296  0.4134  0.2239 -0.0497
   28CHL1   H17 2023   4.821   2.123   5.268 -4.2096  0.1781  2.6260
   28CHL1   C13 2024   4.805   2.245   5.450  0.2543 -0.1034  0.4657
   28CHL1   C18 2025   4.785   2.401   5.487  0.2017 -0.0897  0.1615
   28CHL1  H18A 2026   4.859   2.465   5.435 -0.1338 -0.6297 -0.9992
   28CHL1  H18B 2027   4.683   2.434   5.455  0.6240  0.3693 -0.7455
   28CHL1  H18C 2028   4.783   2.424   5.596  1.0798  0.4240  0.0769
   28CHL1   C12 2029   4.680   2.166   5.500  0.1266 -0.5329  0.0580
   28CHL1  H12A 2030   4.597   2.222   5.452 -0.1443 -1.0155 -0.0484
   28CHL1  H12B 2031   4.680   2.063   5.458  0.2302 -0.0000 -1.3188
   28CHL1   C11 2032   4.675   2.157   5.655 -0.1715  0.2015 -0.3951
   28CHL1  H11A 2033   4.643   2.255   5.696  2.1067  0.2487  1.5167
   28CHL1  H11B 2034   4.597   2.083   5.684  1.3272 -0.8633  1.1272
   28CHL1    C9 2035   4.809   2.112   5.725 -0.5911  0.1426  0.4549
   28CHL1    H9 2036   4.823   2.006   5.694 -2.4400 -0.4750  1.5224
   28CHL1   C10 2037   4.811   2.099   5.882 -0.2518 -0.4304 -0.1549
   28CHL1   C19 2038   4.736   2.217   5.930  0.2334  0.2801 -0.2291
   28CHL1  H19A 2039   4.761   2.311   5.876 -1.8787  1.3684  0.5858
   28CHL1  H19B 2040   4.627   2.211   5.912  0.2200 -2.1337  0.3572
   28CHL1  H19C 2041   4.762   2.240   6.036  1.9566  0.8578 -0.7424
   28CHL1    C1 2042   4.752   1.965   5.931  1.0208  0.8867  0.6521
   28CHL1   H1A 2043   4.646   1.950   5.902  1.2340 -0.8746  0.6789
   28CHL1   H1B 2044   4.811   1.879   5.892 -0.3925  0.2531 -0.1491
   28CHL1    C2 2045   4.731   1.957   6.087  0.5479 -0.0961 -0.3777
   28CHL1   H2A 2046   4.674   1.865   6.111 -1.0306  1.5744  2.9077
   28CHL1   H2B 2047   4.680   2.046   6.130 -2.7887 -1.6186 -0.9186
   28CHL1   C20 2048   4.767   2.315   5.197 -0.6155  0.3476 -0.4259
   28CHL1   H20 2049   4.747   2.417   5.237 -1.0226  0.1974 -0.2387
   28CHL1   C21 2050   4.627   2.253   5.174  0.4827  1.2810 -0.8565
   28CHL1  H21A 2051   4.561   2.307   5.246 -0.7104 -0.7732 -0.3375
   28CHL1  H21B 2052   4.629   2.143   5.188  0.4106  1.4288  0.4042
   28CHL1  H21C 2053   4.586   2.283   5.075  0.0818  0.0992 -1.0667
   28CHL1   C22 2054   4.842   2.351   5.053  0.0970  1.0906 -0.3910
   28CHL1  H22A 2055   4.772   2.423   5.005  0.8288  1.5641 -0.7646
   28CHL1  H22B 2056   4.928   2.417   5.076 -1.2426  2.6107  0.4807
   28CHL1   C23 2057   4.882   2.224   4.975 -0.0074  0.0287 -0.7480
   28CHL1  H23A 2058   4.940   2.161   5.046  2.9047  0.2297 -2.7759
   28CHL1  H23B 2059   4.788   2.184   4.931 -0.0725  1.1605 -1.6727
   28CHL1   C24 2060   4.960   2.266   4.854 -0.3419  0.4662 -0.3569
   28CHL1  H24A 2061   4.975   2.176   4.791  0.1143  0.3919 -0.1471
   28CHL1  H24B 2062   4.902   2.346   4.805 -0.9689  1.0927  1.3117
   28CHL1   C25 2063   5.110   2.315   4.874  0.4052  0.5180 -0.0235
   28CHL1   H25 2064   5.102   2.394   4.952 -1.6353 -0.5900  0.9466
   28CHL1   C26 2065   5.208   2.215   4.921 -0.7954  0.5794 -0.2312
   28CHL1  H26A 2066   5.220   2.134   4.846 -1.4561  0.6912 -0.4597
   28CHL1  H26B 2067   5.307   2.260   4.944 -0.5110 -0.1580  0.0460
   28CHL1  H26C 2068   5.183   2.168   5.019 -1.3484 -0.5523 -0.8945
   28CHL1   C27 2069   5.148   2.373   4.741  0.4160 -0.3248 -0.2024
   28CHL1  H27A 2070   5.102   2.303   4.667 -2.5016 -0.0869  1.2604
   28CHL1  H27B 2071   5.105   2.473   4.719  0.1334 -0.0794  1.4035
   28CHL1  H27C 2072   5.258   2.376   4.727  0.8670 -2.2178  2.2407
   29CHL1    C3 2073   3.703   4.465   3.006 -0.1783 -0.5592  0.1678
   29CHL1    H3 2074   3.717   4.575   3.012 -1.8620 -0.3510  0.8462
   29CHL1    O3 2075   3.669   4.446   2.871  0.3189 -0.1127 -0.1786
   29CHL1   H3' 2076   3.698   4.358   2.845  0.3208  0.3136 -1.7160
   29CHL1    C4 2077   3.843   4.405   3.041  0.7556 -0.3974 -1.2463
   29CHL1   H4A 2078   3.839   4.303   2.997  2.3940 -0.1702 -2.0047
   29CHL1   H4B 2079   3.911   4.460   2.972 -1.1098  1.2090 -1.9125
   29CHL1    C5 2080   3.885   4.410   3.182 -0.0859 -0.5604 -0.1777
   29CHL1    C6 2081   3.995   4.470   3.232  0.4004 -0.2360  0.2134
   29CHL1    H6 2082   4.072   4.504   3.161  0.9281 -1.7035  0.0605
   29CHL1    C7 2083   4.025   4.473   3.379 -0.1415  0.2049 -0.3383
   29CHL1   H7A 2084   4.133   4.466   3.400 -0.1946  1.3712  0.4528
   29CHL1   H7B 2085   3.999   4.566   3.435  0.2749  0.1518 -0.0552
   29CHL1    C8 2086   3.948   4.363   3.470 -0.5142  0.1354  0.0982
   29CHL1    H8 2087   3.980   4.259   3.445 -0.4441  0.1382  0.1757
   29CHL1   C14 2088   3.982   4.375   3.618  0.9842 -0.0488 -0.6959
   29CHL1   H14 2089   3.961   4.480   3.648  0.2482  0.1995 -2.0204
   29CHL1   C15 2090   4.119   4.342   3.673 -0.0970  0.3867  0.7830
   29CHL1  H15A 2091   4.148   4.245   3.629  1.0456  0.4112  1.4472
   29CHL1  H15B 2092   4.208   4.404   3.647  1.1286 -2.0488 -1.2009
   29CHL1   C16 2093   4.097   4.327   3.825 -0.5809  0.2093  0.1901
   29CHL1  H16A 2094   4.135   4.227   3.854  2.4415  1.0635 -0.4582
   29CHL1  H16B 2095   4.146   4.400   3.893 -0.4525 -0.3274  0.6820
   29CHL1   C17 2096   3.942   4.341   3.846  0.6856 -0.2594 -0.3900
   29CHL1   H17 2097   3.929   4.451   3.862 -1.0977 -0.6319  1.0493
   29CHL1   C13 2098   3.883   4.305   3.711  0.8265  0.1113  0.1457
   29CHL1   C18 2099   3.889   4.146   3.689  0.3743 -0.8520 -0.6290
   29CHL1  H18A 2100   3.888   4.107   3.585 -0.4415 -1.9753 -0.2242
   29CHL1  H18B 2101   3.979   4.102   3.736  0.9054 -1.1206 -1.8467
   29CHL1  H18C 2102   3.798   4.093   3.724  0.8737 -0.5523  1.1804
   29CHL1   C12 2103   3.743   4.364   3.686 -0.2651 -0.2961  0.5310
   29CHL1  H12A 2104   3.667   4.322   3.755 -1.5906 -0.9140 -1.2198
   29CHL1  H12B 2105   3.757   4.474   3.694  0.8369 -0.1769 -1.9544
   29CHL1   C11 2106   3.695   4.340   3.542 -0.2496 -0.4672 -0.4953
   29CHL1  H11A 2107   3.664   4.235   3.523 -2.6141  0.3883 -1.8052
   29CHL1  H11B 2108   3.599   4.394   3.529  1.3473  2.3018 -1.4516
   29CHL1    C9 2109   3.801   4.387   3.436 -0.8159  0.0415 -0.0860
   29CHL1    H9 2110   3.796   4.496   3.456  0.0339  0.1095 -0.2136
   29CHL1   C10 2111   3.768   4.357   3.283 -0.3767 -0.1883  0.2377
   29CHL1   C19 2112   3.768   4.205   3.267  0.2535 -0.2154  0.4987
   29CHL1  H19A 2113   3.746   4.175   3.163 -2.8689 -1.2277  1.3475
   29CHL1  H19B 2114   3.870   4.166   3.288 -0.4048 -2.2248  0.1070
   29CHL1  H19C 2115   3.686   4.158   3.325 -0.6476  1.0058  0.2701
   29CHL1    C1 2116   3.630   4.417   3.245 -0.2085  0.6063 -0.3400
   29CHL1   H1A 2117   3.550   4.370   3.306  1.9240 -1.1657  1.2457
   29CHL1   H1B 2118   3.639   4.525   3.268  1.1193  0.1538  1.5264
   29CHL1    C2 2119   3.592   4.408   3.094 -0.0056 -0.2247 -0.1227
   29CHL1   H2A 2120   3.501   4.468   3.071  0.5362  0.2094 -1.2280
   29CHL1   H2B 2121   3.561   4.306   3.063 -1.0422  0.8755 -3.0492
   29CHL1   C20 2122   3.877   4.284   3.971 -0.2826  0.0783 -0.1528
   29CHL1   H20 2123   3.848   4.179   3.949 -1.2117  0.6349 -1.7475
   29CHL1   C21 2124   3.748   4.367   4.020 -0.7491 -0.0800 -0.3184
   29CHL1  H21A 2125   3.774   4.472   4.046  1.5947 -0.9022  1.0369
   29CHL1  H21B 2126   3.695   4.321   4.106 -2.4190 -0.2926 -1.4171
   29CHL1  H21C 2127   3.667   4.369   3.944 -1.1656 -0.3508  0.1134
   29CHL1   C22 2128   3.983   4.270   4.083  0.0776  0.1068 -1.3117
   29CHL1  H22A 2129   3.942   4.227   4.177  0.6901  1.7975 -0.2239
   29CHL1  H22B 2130   4.070   4.211   4.048  0.0188 -1.9889  1.7256
   29CHL1   C23 2131   4.035   4.405   4.140  0.0576  0.6337 -0.1078
   29CHL1  H23A 2132   4.041   4.466   4.047  0.9240 -1.1235 -1.2507
   29CHL1  H23B 2133   3.957   4.451   4.204 -1.3699  0.1800 -1.4576
   29CHL1   C24 2134   4.171   4.382   4.202 -0.6906  0.7954  0.5589
   29CHL1  H24A 2135   4.166   4.300   4.276  3.1483  1.3440  1.6417
   29CHL1  H24B 2136   4.246   4.350   4.127  0.0642  0.8605  1.2654
   29CHL1   C25 2137   4.232   4.503   4.279  0.5980  0.3466 -0.2845
   29CHL1   H25 2138   4.154   4.533   4.352  0.1728  0.3475 -0.7289
   29CHL1   C26 2139   4.360   4.474   4.354 -0.0695 -0.2775 -0.2982
   29CHL1  H26A 2140   4.340   4.392   4.426 -1.9767  0.8188  0.4849
   29CHL1  H26B 2141   4.441   4.435   4.289  1.0090 -1.6596  1.7736
   29CHL1  H26C 2142   4.396   4.565   4.406  1.7206 -1.0567 -0.0764
   29CHL1   C27 2143   4.256   4.611   4.175 -0.4382  0.2331 -0.1135
   29CHL1  H27A 2144   4.336   4.577   4.105  1.2346  1.1195  1.2688
   29CHL1  H27B 2145   4.165   4.642   4.119 -1.2173  0.1272  1.0680
   29CHL1  H27C 2146   4.304   4.700   4.222  1.0969 -0.2642 -0.6736
   30CHL1    C3 2147   5.597   5.239   2.758  0.1547 -0.0355 -0.1305
   30CHL1    H3 2148   5.648   5.337   2.759 -0.7037  0.4393  1.2462
   30CHL1    O3 2149   5.592   5.171   2.632 -0.7322  0.1602  0.3464
   30CHL1   H3' 2150   5.537   5.096   2.653 -0.6283  0.0414  0.1921
   30CHL1    C4 2151   5.670   5.158   2.865 -0.3703 -0.4884 -0.5801
   30CHL1   H4A 2152   5.628   5.056   2.876 -0.6716 -0.2817  0.3109
   30CHL1   H4B 2153   5.774   5.138   2.831  0.3102 -0.5978  1.4191
   30CHL1    C5 2154   5.683   5.238   2.998  0.0295  0.3960  0.1642
   30CHL1    C6 2155   5.799   5.278   3.052  0.6580 -0.1039 -0.7567
   30CHL1    H6 2156   5.897   5.257   3.006 -0.7086  0.7648 -4.4851
   30CHL1    C7 2157   5.813   5.349   3.180 -0.4357  0.0638 -0.2975
   30CHL1   H7A 2158   5.889   5.307   3.249  1.3954 -0.0695 -2.3083
   30CHL1   H7B 2159   5.826   5.457   3.161  0.1729  0.7258  3.2405
   30CHL1    C8 2160   5.680   5.353   3.254 -1.2107 -0.2810  0.0039
   30CHL1    H8 2161   5.666   5.253   3.299 -1.1067 -0.2745  0.0499
   30CHL1   C14 2162   5.689   5.454   3.368 -0.3979  0.5250  0.3769
   30CHL1   H14 2163   5.690   5.551   3.312  0.8082  0.2917 -0.0216
   30CHL1   C15 2164   5.808   5.453   3.465  0.2965 -0.1912  0.9866
   30CHL1  H15A 2165   5.806   5.350   3.506 -1.5815 -0.2949  0.6840
   30CHL1  H15B 2166   5.905   5.473   3.413 -1.0992 -0.0190 -1.7086
   30CHL1   C16 2167   5.763   5.551   3.583  1.0005 -0.0724  0.0929
   30CHL1  H16A 2168   5.781   5.500   3.680 -1.5978 -0.9225  0.2040
   30CHL1  H16B 2169   5.829   5.640   3.583  1.0915 -0.1357 -0.7995
   30CHL1   C17 2170   5.615   5.583   3.555  0.1711  0.5418  0.4628
   30CHL1   H17 2171   5.607   5.674   3.492 -1.0083  0.4077  0.4032
   30CHL1   C13 2172   5.570   5.470   3.455  0.2672  0.6120  0.3070
   30CHL1   C18 2173   5.535   5.342   3.539  0.1947 -0.6415  0.2039
   30CHL1  H18A 2174   5.615   5.317   3.612 -1.1335 -1.7006  1.3534
   30CHL1  H18B 2175   5.440   5.362   3.593 -0.0297 -3.7606  1.1496
   30CHL1  H18C 2176   5.513   5.256   3.473 -2.9658 -0.5420  0.9410
   30CHL1   C12 2177   5.454   5.509   3.361  0.1107 -0.3223 -0.0381
   30CHL1  H12A 2178   5.362   5.522   3.421  0.5964 -2.4578  1.2852
   30CHL1  H12B 2179   5.482   5.605   3.313 -0.5490 -0.6811 -1.1803
   30CHL1   C11 2180   5.430   5.405   3.244 -0.1602  0.1473  0.0262
   30CHL1  H11A 2181   5.384   5.314   3.286  0.6646 -0.0355  0.5557
   30CHL1  H11B 2182   5.359   5.456   3.175 -0.8434 -0.5588  0.1999
   30CHL1    C9 2183   5.559   5.374   3.167  0.4001  0.3138  0.1217
   30CHL1    H9 2184   5.576   5.475   3.124  0.6958  0.4017  0.4425
   30CHL1   C10 2185   5.547   5.274   3.049 -0.0471 -0.2909 -0.6172
   30CHL1   C19 2186   5.494   5.142   3.102  0.9248 -0.4340  0.1927
   30CHL1  H19A 2187   5.395   5.165   3.147  1.5600  0.2847  1.2800
   30CHL1  H19B 2188   5.478   5.076   3.014  1.2433  0.2896 -0.4232
   30CHL1  H19C 2189   5.557   5.095   3.180 -0.4958 -3.4042 -0.2940
   30CHL1    C1 2190   5.457   5.335   2.946  0.4452 -0.0936  0.2965
   30CHL1   H1A 2191   5.355   5.346   2.987 -1.4273 -4.1954 -2.5170
   30CHL1   H1B 2192   5.500   5.433   2.916 -0.6823  0.5159  0.6522
   30CHL1    C2 2193   5.450   5.259   2.810 -0.4370  0.4192 -0.7508
   30CHL1   H2A 2194   5.390   5.318   2.738  0.0619  0.3360 -1.2366
   30CHL1   H2B 2195   5.404   5.159   2.822  0.9531 -0.3765 -1.6936
   30CHL1   C20 2196   5.523   5.601   3.679 -0.7681  0.9577  0.7905
   30CHL1   H20 2197   5.418   5.586   3.647  0.0106  0.4200 -1.7986
   30CHL1   C21 2198   5.537   5.750   3.714  0.5639  0.7884  0.5253
   30CHL1  H21A 2199   5.638   5.773   3.753  0.7594 -0.8795  1.0546
   30CHL1  H21B 2200   5.467   5.796   3.788 -0.8089  1.8853 -1.3547
   30CHL1  H21C 2201   5.515   5.813   3.625 -1.2609 -0.1527  0.2581
   30CHL1   C22 2202   5.543   5.513   3.808  0.6308  0.0073  0.2245
   30CHL1  H22A 2203   5.536   5.405   3.785 -0.1853  0.2248 -0.6172
   30CHL1  H22B 2204   5.643   5.531   3.853  0.5749 -0.3879  0.5164
   30CHL1   C23 2205   5.431   5.529   3.912 -0.1943  0.5415  0.1624
   30CHL1  H23A 2206   5.447   5.633   3.948  0.0484  1.3504 -2.1286
   30CHL1  H23B 2207   5.326   5.521   3.874  0.4949 -0.6283 -1.6115
   30CHL1   C24 2208   5.443   5.435   4.028  0.3079  0.2836  0.0739
   30CHL1  H24A 2209   5.440   5.336   3.978 -1.4846  0.0152  0.6060
   30CHL1  H24B 2210   5.540   5.456   4.078 -0.5839  0.6424  1.7312
   30CHL1   C25 2211   5.326   5.452   4.135  0.3712 -0.4133  0.1024
   30CHL1   H25 2212   5.231   5.450   4.078  0.4881  0.4489 -0.1314
   30CHL1   C26 2213   5.322   5.317   4.217 -0.2404 -0.3262  0.5835
   30CHL1  H26A 2214   5.258   5.314   4.308  1.1065 -2.5188  1.5488
   30CHL1  H26B 2215   5.299   5.229   4.154 -2.0136 -0.4710  1.3687
   30CHL1  H26C 2216   5.424   5.306   4.260 -0.9164 -0.4781  2.2309
   30CHL1   C27 2217   5.332   5.586   4.220 -0.0984  0.2799  0.4774
   30CHL1  H27A 2218   5.429   5.593   4.274 -0.4092 -0.3887  1.1452
   30CHL1  H27B 2219   5.322   5.674   4.154  0.5124  0.1381  0.1907
   30CHL1  H27C 2220   5.255   5.578   4.300  0.2658 -1.1457  0.7112
   31CHL1    C3 2221   0.144   6.154   2.788  0.5301  0.1954 -0.5516
   31CHL1    H3 2222   0.240   6.115   2.749  1.4121  0.2273  1.4610
   31CHL1    O3 2223   0.076   6.208   2.681  0.3393 -0.1824 -0.3295
   31CHL1   H3' 2224  -0.013   6.232   2.710  0.5023  0.4758 -0.3456
   31CHL1    C4 2225   0.069   6.039   2.849 -0.1963 -0.4877 -0.2951
   31CHL1   H4A 2226  -0.034   6.070   2.875  0.3429  0.5955  0.6256
   31CHL1   H4B 2227   0.052   5.961   2.772  0.1697 -0.9534  0.0844
   31CHL1    C5 2228   0.137   5.986   2.977  0.7334  0.1299 -0.0905
   31CHL1    C6 2229   0.189   5.857   2.985 -0.0673 -0.5928  0.0486
   31CHL1    H6 2230   0.175   5.781   2.907  0.7782 -2.1604  1.3703
   31CHL1    C7 2231   0.256   5.806   3.110 -0.3784  0.8974 -0.0281
   31CHL1   H7A 2232   0.209   5.710   3.141  0.2301  0.3369 -0.8152
   31CHL1   H7B 2233   0.366   5.794   3.109 -0.5546 -0.9882 -0.9686
   31CHL1    C8 2234   0.243   5.897   3.233  0.0703 -0.4803  0.1774
   31CHL1    H8 2235   0.140   5.893   3.276 -0.7361 -0.0486 -1.6500
   31CHL1   C14 2236   0.349   5.858   3.343  0.2316 -0.0006 -0.2533
   31CHL1   H14 2237   0.448   5.860   3.293 -0.2114 -1.3662 -1.2684
   31CHL1   C15 2238   0.344   5.711   3.399 -0.6276 -0.0477  0.1221
   31CHL1  H15A 2239   0.236   5.689   3.413 -0.6965 -0.7391 -1.3446
   31CHL1  H15B 2240   0.392   5.636   3.333 -0.7452  0.9771 -1.1629
   31CHL1   C16 2241   0.425   5.719   3.533  0.2611  0.4806 -0.1794
   31CHL1  H16A 2242   0.372   5.660   3.611 -0.1622  0.1742 -0.6914
   31CHL1  H16B 2243   0.524   5.670   3.530  0.0965  0.1917 -1.3580
   31CHL1   C17 2244   0.457   5.865   3.556  0.2468 -0.1908 -0.4941
   31CHL1   H17 2245   0.555   5.894   3.514  0.3696  0.5609  0.2906
   31CHL1   C13 2246   0.361   5.947   3.471  0.4453  0.3002 -0.5039
   31CHL1   C18 2247   0.225   5.952   3.556 -1.0269 -0.8428  0.6385
   31CHL1  H18A 2248   0.146   5.993   3.489  1.4194 -1.3734 -2.8991
   31CHL1  H18B 2249   0.209   5.860   3.615  0.5775 -0.5724  1.5542
   31CHL1  H18C 2250   0.243   6.024   3.639  2.1207 -0.9532  0.1943
   31CHL1   C12 2251   0.396   6.085   3.411 -0.3802 -1.1512 -0.3204
   31CHL1  H12A 2252   0.413   6.160   3.492 -3.1300  0.1566 -0.8620
   31CHL1  H12B 2253   0.494   6.074   3.360  0.5036 -0.6688  1.2017
   31CHL1   C11 2254   0.289   6.138   3.309  0.1295  0.2780 -0.1929
   31CHL1  H11A 2255   0.190   6.149   3.360  1.4034  1.8643  2.1319
   31CHL1  H11B 2256   0.324   6.235   3.269  0.1994 -0.4689 -2.0466
   31CHL1    C9 2257   0.276   6.041   3.190 -0.1641 -0.2122 -0.7341
   31CHL1    H9 2258   0.375   6.031   3.142 -0.4925 -3.0768 -0.9708
   31CHL1   C10 2259   0.181   6.094   3.080  0.2780  0.4750 -0.4638
   31CHL1   C19 2260   0.045   6.133   3.147 -0.1489  0.1040  0.0250
   31CHL1  H19A 2261   0.062   6.223   3.210  0.1074 -0.9768  1.5661
   31CHL1  H19B 2262  -0.031   6.154   3.068  0.3099  0.5297 -0.3091
   31CHL1  H19C 2263  -0.007   6.049   3.198  0.2528 -0.3155 -0.2441
   31CHL1    C1 2264   0.252   6.212   3.003  0.6461 -0.0378 -0.1201
   31CHL1   H1A 2265   0.272   6.302   3.064  1.7086  0.0585 -0.5823
   31CHL1   H1B 2266   0.351   6.179   2.964  1.6031  0.3436  1.8954
   31CHL1    C2 2267   0.176   6.269   2.883  0.4000  0.3122 -1.0905
   31CHL1   H2A 2268   0.236   6.345   2.828  0.5295  1.2348  0.2808
   31CHL1   H2B 2269   0.088   6.323   2.922  1.7814  1.9984 -0.1697
   31CHL1   C20 2270   0.467   5.890   3.712 -0.4787 -1.1232 -0.4348
   31CHL1   H20 2271   0.369   5.872   3.761 -1.5216 -2.5176 -2.8448
   31CHL1   C21 2272   0.500   6.040   3.747 -0.0830  0.6400 -0.0717
   31CHL1  H21A 2273   0.604   6.074   3.733  0.7408 -2.1170 -1.4425
   31CHL1  H21B 2274   0.465   6.063   3.850  0.3100  0.6487  0.0592
   31CHL1  H21C 2275   0.439   6.113   3.689 -0.4676  0.5325  0.1951
   31CHL1   C22 2276   0.572   5.804   3.779  0.2323  0.6463 -0.1888
   31CHL1  H22A 2277   0.519   5.707   3.798 -0.4295  1.1852  0.8019
   31CHL1  H22B 2278   0.658   5.784   3.713  1.4492 -1.2102  1.8080
   31CHL1   C23 2279   0.626   5.863   3.910  0.3636 -0.1457  0.7053
   31CHL1  H23A 2280   0.700   5.941   3.883  1.3225 -1.5931 -1.0693
   31CHL1  H23B 2281   0.545   5.903   3.975  0.7225  3.2324 -0.7360
   31CHL1   C24 2282   0.698   5.753   3.990 -0.5648  0.0050 -0.5468
   31CHL1  H24A 2283   0.648   5.654   3.979  1.0269 -0.8140 -0.6320
   31CHL1  H24B 2284   0.802   5.744   3.953  1.1191  1.3806  3.2775
   31CHL1   C25 2285   0.712   5.795   4.138  0.4937  0.1951  0.1552
   31CHL1   H25 2286   0.610   5.805   4.180  0.8283  0.6602  0.8831
   31CHL1   C26 2287   0.782   5.691   4.221  0.1986  0.0391 -1.0758
   31CHL1  H26A 2288   0.892   5.682   4.205  0.2603 -0.6360 -0.3376
   31CHL1  H26B 2289   0.770   5.709   4.330  0.1227 -0.0896 -1.0625
   31CHL1  H26C 2290   0.728   5.595   4.203 -1.3832  0.8669 -0.8852
   31CHL1   C27 2291   0.772   5.932   4.156  0.0029  0.0788 -0.1058
   31CHL1  H27A 2292   0.715   6.008   4.098  1.4803  0.8437 -0.6309
   31CHL1  H27B 2293   0.777   5.952   4.265 -1.8949 -0.9217  0.1954
   31CHL1  H27C 2294   0.877   5.936   4.119 -0.1671  0.2583 -0.5720
   32CHL1    C3 2295   3.692   2.153   2.574  0.2606  0.0007 -0.3239
   32CHL1    H3 2296   3.610   2.083   2.544  0.8525 -0.3103 -1.2648
   32CHL1    O3 2297   3.738   2.217   2.461 -0.1945 -0.6800 -0.1216
   32CHL1   H3' 2298   3.830   2.225   2.488 -0.3661 -1.8063  0.8620
   32CHL1    C4 2299   3.643   2.263   2.674  0.3775  0.4405 -0.2593
   32CHL1   H4A 2300   3.719   2.343   2.661  0.3542  0.5563  0.3231
   32CHL1   H4B 2301   3.552   2.319   2.644  0.1018  0.3508  0.4010
   32CHL1    C5 2302   3.633   2.207   2.814  1.2519  0.1382 -0.4559
   32CHL1    C6 2303   3.523   2.237   2.886 -0.5293 -0.3893 -0.1383
   32CHL1    H6 2304   3.443   2.300   2.845  0.6886  1.8814  0.8237
   32CHL1    C7 2305   3.509   2.203   3.033 -0.5971  0.1763  0.7754
   32CHL1   H7A 2306   3.471   2.292   3.088  0.8463  0.2137  1.7888
   32CHL1   H7B 2307   3.449   2.110   3.044  0.9619 -0.8701  0.7825
   32CHL1    C8 2308   3.648   2.168   3.102 -0.6232 -0.5270 -0.2632
   32CHL1    H8 2309   3.700   2.266   3.113 -1.9499  0.3694 -1.5767
   32CHL1   C14 2310   3.628   2.100   3.233  0.7205 -0.2664  0.0811
   32CHL1   H14 2311   3.582   2.001   3.212  0.8053 -0.0829 -1.0115
   32CHL1   C15 2312   3.538   2.160   3.339  0.0722 -0.3894 -0.7085
   32CHL1  H15A 2313   3.556   2.268   3.358 -0.9755 -0.7247  2.7672
   32CHL1  H15B 2314   3.435   2.132   3.307 -0.1487  0.6374 -0.9243
   32CHL1   C16 2315   3.575   2.080   3.470 -0.2530 -0.3312 -0.1065
   32CHL1  H16A 2316   3.584   2.148   3.557 -1.3338  1.6148 -1.4270
   32CHL1  H16B 2317   3.497   2.015   3.515  0.7449  0.6876  3.3577
   32CHL1   C17 2318   3.704   2.009   3.428 -0.1360 -0.3320  0.3634
   32CHL1   H17 2319   3.659   1.912   3.396 -2.9387  1.5605 -1.9574
   32CHL1   C13 2320   3.758   2.071   3.308 -0.5009 -0.0958 -0.3682
   32CHL1   C18 2321   3.829   2.204   3.345  0.3236  0.4198  0.5198
   32CHL1  H18A 2322   3.878   2.236   3.251 -2.7095 -0.6085 -1.5662
   32CHL1  H18B 2323   3.755   2.282   3.374  1.2208  0.6630  2.3434
   32CHL1  H18C 2324   3.905   2.188   3.425 -1.4235  0.4121  2.2726
   32CHL1   C12 2325   3.849   1.978   3.217  0.0556 -0.3909  0.0696
   32CHL1  H12A 2326   3.950   1.964   3.260  0.4482 -0.2528 -0.7891
   32CHL1  H12B 2327   3.794   1.884   3.196  2.2861 -1.9819  1.0177
   32CHL1   C11 2328   3.868   2.038   3.079 -1.2553  0.6858  0.2436
   32CHL1  H11A 2329   3.938   2.124   3.089  0.5889 -0.8970  1.5811
   32CHL1  H11B 2330   3.922   1.964   3.016 -1.4836  0.9711 -0.3046
   32CHL1    C9 2331   3.738   2.080   3.015  0.6245  0.2768  0.3377
   32CHL1    H9 2332   3.668   1.996   2.996 -0.9141  1.1430  1.9419
   32CHL1   C10 2333   3.756   2.130   2.868  0.1281  0.1066 -0.2312
   32CHL1   C19 2334   3.881   2.220   2.863  0.7217  0.2475 -0.1305
   32CHL1  H19A 2335   3.871   2.299   2.940  1.6574  1.5746 -1.3333
   32CHL1  H19B 2336   3.978   2.169   2.883 -0.8089 -2.3481  1.3807
   32CHL1  H19C 2337   3.880   2.275   2.767 -0.3444  0.9685  0.2796
   32CHL1    C1 2338   3.772   2.015   2.774 -0.1488  0.7596  0.1320
   32CHL1   H1A 2339   3.854   1.951   2.813 -0.0668  1.3678  0.9910
   32CHL1   H1B 2340   3.675   1.960   2.774  0.6060 -0.6485 -0.6748
   32CHL1    C2 2341   3.799   2.056   2.627 -0.0245 -0.0496  0.2991
   32CHL1   H2A 2342   3.807   1.969   2.558  0.6568  0.0258  0.2829
   32CHL1   H2B 2343   3.902   2.097   2.636  0.7484 -1.2260 -2.2987
   32CHL1   C20 2344   3.791   1.991   3.552  0.0475  0.5497 -0.9705
   32CHL1   H20 2345   3.810   2.096   3.583 -0.9657  0.9812 -1.7481
   32CHL1   C21 2346   3.930   1.927   3.527 -0.1271 -0.1119 -0.2969
   32CHL1  H21A 2347   3.993   2.003   3.476 -1.2516 -1.3177 -3.7551
   32CHL1  H21B 2348   3.923   1.839   3.460  2.1049  0.7675 -1.8393
   32CHL1  H21C 2349   3.986   1.893   3.616 -0.1943  2.1800  0.7020
   32CHL1   C22 2350   3.724   1.910   3.663  0.5256  0.3263  0.1708
   32CHL1  H22A 2351   3.634   1.969   3.692  0.9614  0.8558  0.4507
   32CHL1  H22B 2352   3.673   1.822   3.619  0.3779  1.6313 -2.4640
   32CHL1   C23 2353   3.793   1.883   3.795 -0.3249 -0.2714 -0.2677
   32CHL1  H23A 2354   3.863   1.797   3.788  4.0837  3.0460 -1.8154
   32CHL1  H23B 2355   3.862   1.966   3.819  3.2505 -2.8549 -0.8367
   32CHL1   C24 2356   3.695   1.858   3.909  0.2828  0.3721 -0.6860
   32CHL1  H24A 2357   3.635   1.945   3.942  0.0550 -0.4129  1.0844
   32CHL1  H24B 2358   3.621   1.779   3.885  0.3638  0.1643 -0.2617
   32CHL1   C25 2359   3.772   1.811   4.041  0.3644  0.5238  1.0231
   32CHL1   H25 2360   3.847   1.741   4.001 -0.3751  0.6876 -0.7210
   32CHL1   C26 2361   3.842   1.928   4.113 -0.0074 -0.0792 -0.1811
   32CHL1  H26A 2362   3.923   1.965   4.047  0.5738 -2.0114 -0.6032
   32CHL1  H26B 2363   3.768   2.009   4.134  1.0611  0.1068  3.5095
   32CHL1  H26C 2364   3.880   1.899   4.213  1.0873  0.0093 -0.5643
   32CHL1   C27 2365   3.675   1.740   4.147  0.1871 -0.3982  0.2550
   32CHL1  H27A 2366   3.593   1.805   4.183 -0.6670 -0.7440 -0.9992
   32CHL1  H27B 2367   3.637   1.648   4.100 -0.8427  1.3616 -2.5914
   32CHL1  H27C 2368   3.741   1.722   4.234  2.1910  1.5240 -0.7572
   33CHL1    C3 2369   2.426   1.329   2.578 -0.2465  0.0743 -1.1287
   33CHL1    H3 2370   2.384   1.431   2.587 -1.6776 -0.4013 -2.0195
   33CHL1    O3 2371   2.489   1.328   2.445  0.1853  0.0661 -0.7140
   33CHL1   H3' 2372   2.547   1.252   2.445 -0.3848 -0.4693 -3.5189
   33CHL1    C4 2373   2.541   1.316   2.682  0.5818  0.0939 -0.2543
   33CHL1   H4A 2374   2.599   1.224   2.659  2.7111  1.7124 -1.8008
   33CHL1   H4B 2375   2.611   1.397   2.652  0.8971 -0.7686 -1.9395
   33CHL1    C5 2376   2.485   1.325   2.822 -0.0655  0.2588 -0.7145
   33CHL1    C6 2377   2.524   1.409   2.921 -0.0411  0.2852 -0.1840
   33CHL1    H6 2378   2.603   1.485   2.907  1.6872 -1.4526 -0.2855
   33CHL1    C7 2379   2.469   1.413   3.065 -0.2739 -0.7083 -0.0872
   33CHL1   H7A 2380   2.550   1.434   3.139  0.0421 -1.3429 -0.2463
   33CHL1   H7B 2381   2.389   1.489   3.057  0.8746  0.5719  0.1363
   33CHL1    C8 2382   2.401   1.276   3.103  0.4513 -0.2755  1.0307
   33CHL1    H8 2383   2.487   1.206   3.106  2.5706  1.6954 -3.6868
   33CHL1   C14 2384   2.328   1.291   3.235 -0.1295  0.4735  0.4900
   33CHL1   H14 2385   2.236   1.350   3.218  0.9116  2.0310 -0.0230
   33CHL1   C15 2386   2.398   1.355   3.354  0.4722 -0.1404 -0.8840
   33CHL1  H15A 2387   2.502   1.318   3.367  0.3477 -0.0255  0.6430
   33CHL1  H15B 2388   2.415   1.464   3.342  0.7673 -0.1239 -0.3422
   33CHL1   C16 2389   2.310   1.309   3.475 -0.0222 -0.2456  0.2931
   33CHL1  H16A 2390   2.383   1.257   3.541 -0.6273 -1.3190  0.1469
   33CHL1  H16B 2391   2.260   1.382   3.542  1.9198 -0.2892  1.8894
   33CHL1   C17 2392   2.199   1.224   3.409 -0.5897  0.2037 -0.4849
   33CHL1   H17 2393   2.112   1.289   3.383 -1.3722 -1.1153 -1.2879
   33CHL1   C13 2394   2.264   1.167   3.284 -0.4221 -0.2492 -0.3326
   33CHL1   C18 2395   2.367   1.058   3.320  1.0598 -0.7580  0.1533
   33CHL1  H18A 2396   2.323   0.972   3.374  0.5613 -0.1937  0.6575
   33CHL1  H18B 2397   2.414   1.034   3.222 -2.7425  0.3706 -2.1874
   33CHL1  H18C 2398   2.449   1.101   3.381  0.8028  2.7562 -1.6514
   33CHL1   C12 2399   2.162   1.123   3.180  0.6343  0.1530 -0.1662
   33CHL1  H12A 2400   2.106   1.029   3.203  1.2906 -0.8115 -2.1902
   33CHL1  H12B 2401   2.086   1.200   3.155  1.5651  1.4670  0.9584
   33CHL1   C11 2402   2.214   1.106   3.037  0.0560 -0.1696  0.6483
   33CHL1  H11A 2403   2.284   1.020   3.037  1.2938  0.8012  0.7537
   33CHL1  H11B 2404   2.135   1.082   2.963  2.5850  0.0406 -2.3333
   33CHL1    C9 2405   2.307   1.230   2.988 -0.6904 -0.4022  0.0213
   33CHL1    H9 2406   2.234   1.314   2.983  0.2245  0.5917  2.1821
   33CHL1   C10 2407   2.375   1.217   2.849 -0.1348 -0.2687  0.1133
   33CHL1   C19 2408   2.444   1.080   2.849 -0.2883  0.2421  0.1414
   33CHL1  H19A 2409   2.516   1.059   2.768 -0.4479 -1.6611  0.4624
   33CHL1  H19B 2410   2.504   1.057   2.940 -3.3784 -1.3870  1.9285
   33CHL1  H19C 2411   2.367   1.003   2.829  0.1346  0.3026 -1.9743
   33CHL1    C1 2412   2.261   1.229   2.743 -0.8493  0.2688  1.0673
   33CHL1   H1A 2413   2.179   1.155   2.754 -0.1713 -0.7863 -0.6535
   33CHL1   H1B 2414   2.210   1.328   2.747 -2.4478 -0.5235  0.8799
   33CHL1    C2 2415   2.311   1.223   2.595 -0.3430 -0.2508  0.4403
   33CHL1   H2A 2416   2.227   1.241   2.525  1.0323 -0.6784 -1.3991
   33CHL1   H2B 2417   2.354   1.124   2.566  0.7623  0.4079 -0.2424
   33CHL1   C20 2418   2.132   1.131   3.517 -1.2403  0.1231 -0.2425
   33CHL1   H20 2419   2.209   1.060   3.554  1.6883  3.5415  0.7610
   33CHL1   C21 2420   2.011   1.054   3.469  0.4280  0.1793  0.6342
   33CHL1  H21A 2421   2.052   0.970   3.410 -0.2965  1.1368 -1.3165
   33CHL1  H21B 2422   1.961   1.118   3.393  2.9296  0.4922 -0.8723
   33CHL1  H21C 2423   1.949   1.007   3.549  0.9338 -0.5126  0.6244
   33CHL1   C22 2424   2.097   1.211   3.640 -0.2076 -0.1468  0.1125
   33CHL1  H22A 2425   2.061   1.143   3.720  3.2644 -3.0207 -0.5249
   33CHL1  H22B 2426   2.194   1.237   3.688 -0.5699 -0.4173  1.0142
   33CHL1   C23 2427   1.995   1.328   3.616 -0.8043  0.2042 -0.1773
   33CHL1  H23A 2428   2.036   1.404   3.547 -0.0165  0.8731  1.0029
   33CHL1  H23B 2429   1.906   1.284   3.565  0.2599 -1.4206 -0.7021
   33CHL1   C24 2430   1.960   1.399   3.745 -0.2288 -0.5425 -0.0998
   33CHL1  H24A 2431   2.053   1.432   3.795 -1.0345  2.6390 -0.5011
   33CHL1  H24B 2432   1.899   1.488   3.716 -0.2862 -1.1274 -1.9399
   33CHL1   C25 2433   1.870   1.320   3.844 -0.4396 -0.1011  0.5624
   33CHL1   H25 2434   1.918   1.226   3.879 -1.2105 -0.5119  0.5480
   33CHL1   C26 2435   1.873   1.399   3.976 -0.0730  0.1147  0.4135
   33CHL1  H26A 2436   1.975   1.405   4.019  0.3077 -0.6546 -0.3412
   33CHL1  H26B 2437   1.837   1.503   3.964 -4.3445 -1.1477  0.6956
   33CHL1  H26C 2438   1.806   1.355   4.053  0.3723 -2.2756 -0.4619
   33CHL1   C27 2439   1.728   1.295   3.799  0.1965 -0.2989  0.4711
   33CHL1  H27A 2440   1.675   1.223   3.866 -0.1206 -1.4624 -0.9666
   33CHL1  H27B 2441   1.671   1.390   3.804 -1.7087 -1.4224  1.6808
   33CHL1  H27C 2442   1.724   1.257   3.694 -1.3177  2.6263 -0.6322
   34CHL1    C3 2443   0.814   1.621   2.776 -0.1323  0.1357 -0.6147
   34CHL1    H3 2444   0.898   1.687   2.806 -0.9260  0.2257  1.5979
   34CHL1    O3 2445   0.845   1.597   2.646  0.5074 -0.2947  0.1431
   34CHL1   H3' 2446   0.841   1.501   2.643  0.6289 -0.5103  3.4607
   34CHL1    C4 2447   0.809   1.503   2.875  0.0929 -0.3371  0.6178
   34CHL1   H4A 2448   0.721   1.444   2.840  0.4441  0.7690 -2.4509
   34CHL1   H4B 2449   0.898   1.439   2.862  1.8734  1.9512  0.8955
   34CHL1    C5 2450   0.785   1.551   3.020  0.6527  0.3795  0.3566
   34CHL1    C6 2451   0.875   1.509   3.112 -0.2705  0.2677  0.2468
   34CHL1    H6 2452   0.963   1.444   3.098  0.4276  1.4556 -1.1487
   34CHL1    C7 2453   0.877   1.560   3.255  0.4493  0.3855 -0.7654
   34CHL1   H7A 2454   0.924   1.482   3.319  0.0976 -0.2446 -1.2614
   34CHL1   H7B 2455   0.941   1.650   3.261  0.4185  0.3054  1.6980
   34CHL1    C8 2456   0.737   1.626   3.300 -0.2439  0.1069  0.7293
   34CHL1    H8 2457   0.660   1.547   3.317 -0.6321 -0.0314 -1.4113
   34CHL1   C14 2458   0.750   1.704   3.426 -0.2028 -0.5196 -0.3277
   34CHL1   H14 2459   0.825   1.782   3.404 -0.8150 -0.2778 -1.6677
   34CHL1   C15 2460   0.815   1.632   3.551  0.0618  0.7105 -0.2076
   34CHL1  H15A 2461   0.771   1.532   3.570  1.9059 -0.1335 -0.1116
   34CHL1  H15B 2462   0.924   1.622   3.532  0.2286  2.8111 -0.6498
   34CHL1   C16 2463   0.773   1.718   3.668  0.1223  0.6308  0.2923
   34CHL1  H16A 2464   0.719   1.654   3.741 -0.9920  1.3940  0.1613
   34CHL1  H16B 2465   0.863   1.763   3.714  0.4790  1.1125 -0.8403
   34CHL1   C17 2466   0.682   1.825   3.609 -0.0209 -0.3986 -0.0995
   34CHL1   H17 2467   0.744   1.910   3.573  1.3084 -1.4164 -0.3122
   34CHL1   C13 2468   0.622   1.769   3.480  0.1656  0.2710 -0.6330
   34CHL1   C18 2469   0.512   1.662   3.503  0.1118  0.1180 -0.8316
   34CHL1  H18A 2470   0.551   1.591   3.579 -2.5019 -0.6580 -0.1029
   34CHL1  H18B 2471   0.424   1.706   3.555 -1.4722 -2.3836 -1.2081
   34CHL1  H18C 2472   0.488   1.604   3.411 -3.2736 -0.6249  0.3679
   34CHL1   C12 2473   0.564   1.860   3.384 -0.9327 -0.6798  0.0235
   34CHL1  H12A 2474   0.460   1.892   3.409 -1.0673 -1.2539  0.2033
   34CHL1  H12B 2475   0.632   1.948   3.378  0.4765 -1.5688  1.9268
   34CHL1   C11 2476   0.565   1.805   3.236 -0.1093  0.0478  0.0531
   34CHL1  H11A 2477   0.476   1.740   3.228 -0.7693  0.8038  0.9996
   34CHL1  H11B 2478   0.562   1.885   3.159  0.4314  0.0924  0.0738
   34CHL1    C9 2479   0.683   1.715   3.196 -0.4755 -0.1348  0.0495
   34CHL1    H9 2480   0.763   1.790   3.176 -1.2314  0.7277  0.1627
   34CHL1   C10 2481   0.671   1.649   3.052 -0.3912  1.0959  0.2433
   34CHL1   C19 2482   0.544   1.562   3.047 -0.0609  0.1271  0.5078
   34CHL1  H19A 2483   0.529   1.513   3.145 -0.4683  2.1048  1.4822
   34CHL1  H19B 2484   0.466   1.642   3.043  1.8150  2.0028 -0.8690
   34CHL1  H19C 2485   0.536   1.493   2.960 -0.7012  0.5672  0.2001
   34CHL1    C1 2486   0.669   1.752   2.938  0.6250  0.5870 -0.2027
   34CHL1   H1A 2487   0.569   1.801   2.945  0.4128 -0.0930  2.2362
   34CHL1   H1B 2488   0.750   1.828   2.945  0.6326  0.4875  0.9762
   34CHL1    C2 2489   0.688   1.703   2.792 -0.1000 -0.0290  0.0815
   34CHL1   H2A 2490   0.711   1.795   2.735  0.7822  2.0983  3.5520
   34CHL1   H2B 2491   0.599   1.651   2.752 -0.9079  0.2367  1.4680
   34CHL1   C20 2492   0.591   1.885   3.721  0.2582  0.1516 -0.3956
   34CHL1   H20 2493   0.519   1.810   3.759 -0.5562 -0.2479 -2.5538
   34CHL1   C21 2494   0.501   1.999   3.666 -0.3584  0.1464 -0.0689
   34CHL1  H21A 2495   0.563   2.070   3.608 -2.0032  1.4522 -0.2776
   34CHL1  H21B 2496   0.454   2.047   3.755  1.6791 -1.4566  2.0139
   34CHL1  H21C 2497   0.431   1.951   3.594  1.3836 -2.3468 -0.2585
   34CHL1   C22 2498   0.678   1.953   3.836  0.0488 -0.0432  0.3285
   34CHL1  H22A 2499   0.785   1.928   3.825  0.1776  0.3201  0.7316
   34CHL1  H22B 2500   0.667   2.063   3.828 -0.2218 -0.1148 -0.2696
   34CHL1   C23 2501   0.627   1.896   3.970 -0.4269 -0.2398 -0.1087
   34CHL1  H23A 2502   0.519   1.922   3.978 -0.7454 -1.6005  0.2644
   34CHL1  H23B 2503   0.640   1.786   3.976  1.4160 -0.0015  1.1136
   34CHL1   C24 2504   0.699   1.952   4.092  0.0253 -0.2227 -0.0348
   34CHL1  H24A 2505   0.807   1.952   4.065  0.3637 -0.1684  1.2533
   34CHL1  H24B 2506   0.661   2.053   4.119  0.6378  0.1976 -0.7144
   34CHL1   C25 2507   0.690   1.863   4.217 -0.7140  0.4720 -0.9857
   34CHL1   H25 2508   0.737   1.764   4.196 -0.7692 -0.4038  2.4949
   34CHL1   C26 2509   0.755   1.905   4.345 -0.4546  0.1700 -0.1434
   34CHL1  H26A 2510   0.866   1.907   4.346 -0.4539  2.9841  0.2220
   34CHL1  H26B 2511   0.718   2.007   4.370 -0.9114  0.6287 -2.4667
   34CHL1  H26C 2512   0.732   1.829   4.423  0.6883 -0.3845 -0.3220
   34CHL1   C27 2513   0.538   1.831   4.244  0.5355 -0.0068  0.0045
   34CHL1  H27A 2514   0.498   1.935   4.237 -0.1739 -0.3105 -0.5862
   34CHL1  H27B 2515   0.488   1.773   4.164  0.0005 -0.2754  0.5294
   34CHL1  H27C 2516   0.513   1.778   4.338 -0.9230  0.5514 -0.0363
   35CHL1    C3 2517   2.234   6.606   2.997 -0.2468  0.2483  0.4881
   35CHL1    H3 2518   2.284   6.522   3.050  0.9801  1.4910  1.3332
   35CHL1    O3 2519   2.254   6.609   2.857 -0.5893  0.1810 -0.5896
   35CHL1   H3' 2520   2.200   6.681   2.825 -0.7717 -0.6783 -2.3492
   35CHL1    C4 2521   2.087   6.606   3.028  0.6495  0.2561 -1.0780
   35CHL1   H4A 2522   2.033   6.694   2.986 -1.9670 -0.6094  0.2398
   35CHL1   H4B 2523   2.040   6.517   2.980  1.7162 -0.6824 -0.4359
   35CHL1    C5 2524   2.056   6.604   3.174 -0.1760 -0.5351 -0.4915
   35CHL1    C6 2525   1.979   6.509   3.227  0.2547 -0.3395 -1.0550
   35CHL1    H6 2526   1.920   6.435   3.170 -1.1363 -0.9251  1.0060
   35CHL1    C7 2527   1.943   6.496   3.376  0.5195  0.6165  0.2230
   35CHL1   H7A 2528   1.834   6.484   3.395  0.9624 -2.8783  1.2549
   35CHL1   H7B 2529   1.993   6.406   3.419 -1.3705  0.1220  1.5071
   35CHL1    C8 2530   1.974   6.625   3.459 -0.6436 -0.6085  0.5046
   35CHL1    H8 2531   1.892   6.697   3.438 -0.7790 -1.1513 -0.9081
   35CHL1   C14 2532   1.984   6.588   3.600 -0.4720 -0.0700  0.0534
   35CHL1   H14 2533   2.067   6.515   3.604 -1.6787 -1.6380 -1.8057
   35CHL1   C15 2534   1.871   6.497   3.661  1.1291  0.1223  0.2501
   35CHL1  H15A 2535   1.776   6.521   3.609  2.3018  2.1501 -1.1120
   35CHL1  H15B 2536   1.897   6.389   3.654  0.4642 -0.2057  2.2113
   35CHL1   C16 2537   1.865   6.530   3.808 -0.0353 -0.3010  0.5330
   35CHL1  H16A 2538   1.767   6.582   3.817 -1.4583 -2.2409 -2.1245
   35CHL1  H16B 2539   1.868   6.445   3.880 -0.3399  0.7072  1.7557
   35CHL1   C17 2540   1.985   6.642   3.829 -0.5608  0.1032 -0.0799
   35CHL1   H17 2541   2.069   6.570   3.839  0.6119  1.1631 -1.6533
   35CHL1   C13 2542   2.006   6.714   3.692 -0.0450  0.1758  0.1164
   35CHL1   C18 2543   1.887   6.813   3.670 -0.2682 -0.5825 -0.9756
   35CHL1  H18A 2544   1.890   6.898   3.741 -1.6466 -0.9095 -0.4962
   35CHL1  H18B 2545   1.892   6.857   3.569  1.2285 -2.9979 -2.0603
   35CHL1  H18C 2546   1.794   6.757   3.693  0.4332 -0.6427  2.2408
   35CHL1   C12 2547   2.144   6.768   3.652  0.9062 -0.3025 -0.8687
   35CHL1  H12A 2548   2.175   6.854   3.716  0.0848  0.5567 -1.6069
   35CHL1  H12B 2549   2.219   6.692   3.683  0.8753  0.0097  0.0084
   35CHL1   C11 2550   2.155   6.803   3.501  0.0040 -0.5742 -0.3715
   35CHL1  H11A 2551   2.088   6.891   3.490 -2.6520 -2.2775  0.9694
   35CHL1  H11B 2552   2.257   6.842   3.484  0.4059 -1.0503  0.8219
   35CHL1    C9 2553   2.107   6.685   3.409 -0.0657  0.6063  0.4799
   35CHL1    H9 2554   2.193   6.617   3.426 -0.8702 -1.0392 -1.6300
   35CHL1   C10 2555   2.122   6.713   3.258  0.0852 -0.7146  0.7360
   35CHL1   C19 2556   2.040   6.842   3.236 -0.0569 -0.1829  0.5655
   35CHL1  H19A 2557   2.076   6.931   3.291 -0.7154  0.7059 -0.4089
   35CHL1  H19B 2558   2.037   6.861   3.127  0.3404 -0.8366  0.4368
   35CHL1  H19C 2559   1.934   6.826   3.268  0.4246  0.4193  2.6225
   35CHL1    C1 2560   2.272   6.734   3.209 -0.5812 -0.6397  0.2481
   35CHL1   H1A 2561   2.314   6.826   3.256 -1.9165  1.3495 -2.1910
   35CHL1   H1B 2562   2.318   6.642   3.251  1.6059 -0.2781 -1.1780
   35CHL1    C2 2563   2.295   6.733   3.054  0.4887 -0.5519 -0.3239
   35CHL1   H2A 2564   2.405   6.750   3.043  0.4526  2.7299  2.6521
   35CHL1   H2B 2565   2.237   6.814   3.006 -0.5011  0.6688  2.7394
   35CHL1   C20 2566   1.964   6.723   3.953  0.0626 -0.7355 -0.2328
   35CHL1   H20 2567   1.872   6.783   3.934  0.7750 -0.2396 -2.4882
   35CHL1   C21 2568   2.097   6.812   3.972 -0.3783  0.2420 -0.0572
   35CHL1  H21A 2569   2.082   6.901   3.907 -2.0109 -0.4038 -0.6354
   35CHL1  H21B 2570   2.186   6.747   3.959 -2.1476 -2.3145 -0.1423
   35CHL1  H21C 2571   2.091   6.861   4.071  0.2058 -0.8509  0.5356
   35CHL1   C22 2572   1.924   6.640   4.077 -0.3131  0.2229  0.7324
   35CHL1  H22A 2573   1.828   6.588   4.053  0.5528 -2.3372  2.3823
   35CHL1  H22B 2574   1.997   6.556   4.086  0.7118  0.7939 -1.5105
   35CHL1   C23 2575   1.914   6.722   4.209 -0.2230 -0.0144  0.6739
   35CHL1  H23A 2576   2.018   6.749   4.239 -0.4204 -0.2872  1.6408
   35CHL1  H23B 2577   1.851   6.809   4.181 -2.4797 -0.7560  3.0359
   35CHL1   C24 2578   1.841   6.637   4.322  0.5559 -0.2827  0.4757
   35CHL1  H24A 2579   1.735   6.632   4.291 -0.2469  1.1696  2.7645
   35CHL1  H24B 2580   1.883   6.534   4.316  1.6162  0.1529  0.1573
   35CHL1   C25 2581   1.872   6.690   4.466  0.3701  0.2395  0.0564
   35CHL1   H25 2582   1.981   6.678   4.481  0.7215 -0.3427 -2.6019
   35CHL1   C26 2583   1.829   6.841   4.471  0.0068  1.0196 -0.2240
   35CHL1  H26A 2584   1.823   6.892   4.570  0.8154  1.9007 -0.6091
   35CHL1  H26B 2585   1.918   6.899   4.439  1.3107  0.3177  1.8921
   35CHL1  H26C 2586   1.748   6.865   4.399 -0.3238 -0.8412 -0.5236
   35CHL1   C27 2587   1.805   6.593   4.562  0.3020 -0.2775 -0.6430
   35CHL1  H27A 2588   1.834   6.613   4.668  1.7102  2.4835 -1.4573
   35CHL1  H27B 2589   1.694   6.593   4.559  0.2813 -0.9181 -0.0943
   35CHL1  H27C 2590   1.849   6.491   4.559  1.8764  0.2845  1.0588
   36CHL1    C3 2591   5.832   3.424   2.826 -0.3422 -0.2917  0.1875
   36CHL1    H3 2592   5.801   3.325   2.865  2.1612 -1.9619 -1.7502
   36CHL1    O3 2593   5.827   3.413   2.686  1.0620  0.0268 -0.6381
   36CHL1   H3' 2594   5.739   3.381   2.665  0.6242 -0.3704  1.5311
   36CHL1    C4 2595   5.730   3.545   2.858 -0.3493  0.3571  0.1304
   36CHL1   H4A 2596   5.748   3.638   2.800 -0.2689  0.0674 -0.3111
   36CHL1   H4B 2597   5.627   3.515   2.830 -0.3263 -0.3265  0.7581
   36CHL1    C5 2598   5.735   3.592   2.999 -0.4939  0.2393 -0.0786
   36CHL1    C6 2599   5.621   3.602   3.064  0.0547  0.4153 -0.6641
   36CHL1    H6 2600   5.527   3.576   3.012 -0.3215  0.0178  0.2014
   36CHL1    C7 2601   5.608   3.655   3.201 -0.0536 -0.2605  0.2543
   36CHL1   H7A 2602   5.516   3.717   3.196 -0.3109 -0.5324  1.4413
   36CHL1   H7B 2603   5.586   3.575   3.274 -0.7949  0.3465  0.7052
   36CHL1    C8 2604   5.729   3.735   3.235 -0.3955 -0.6018 -0.1444
   36CHL1    H8 2605   5.730   3.827   3.173  2.4039 -0.7419 -0.4012
   36CHL1   C14 2606   5.726   3.773   3.383 -0.5046  0.3279  0.5413
   36CHL1   H14 2607   5.731   3.674   3.434 -1.8750  0.1789  0.4225
   36CHL1   C15 2608   5.603   3.814   3.453  0.3377 -0.2032  0.2354
   36CHL1  H15A 2609   5.567   3.905   3.400 -0.8479  0.1033  1.5026
   36CHL1  H15B 2610   5.519   3.741   3.460  0.3167 -0.0096  2.6432
   36CHL1   C16 2611   5.655   3.871   3.586  0.0795  0.1210 -0.8239
   36CHL1  H16A 2612   5.627   3.978   3.582  0.0018  0.1322 -0.1528
   36CHL1  H16B 2613   5.601   3.825   3.672 -0.3602 -1.0250 -1.6895
   36CHL1   C17 2614   5.802   3.858   3.594  0.1686 -0.4013  0.1595
   36CHL1   H17 2615   5.832   3.760   3.639  0.2492 -1.2531 -1.6661
   36CHL1   C13 2616   5.846   3.849   3.444 -0.2860 -0.6516 -0.2020
   36CHL1   C18 2617   5.851   3.996   3.393 -0.1868 -0.8441  0.0926
   36CHL1  H18A 2618   5.852   3.990   3.282 -1.5472 -2.1590  0.1167
   36CHL1  H18B 2619   5.761   4.053   3.428 -0.7749 -0.1085 -2.4133
   36CHL1  H18C 2620   5.950   4.045   3.409 -0.1832 -0.4413 -1.0566
   36CHL1   C12 2621   5.971   3.761   3.415  0.9653  0.4167 -0.7000
   36CHL1  H12A 2622   6.064   3.813   3.446  0.2938  2.4016 -1.7914
   36CHL1  H12B 2623   5.963   3.666   3.472 -1.0435  1.9881  1.8755
   36CHL1   C11 2624   5.987   3.739   3.264  0.4415 -0.8485  0.2660
   36CHL1  H11A 2625   6.021   3.832   3.214 -1.1935 -1.1410 -1.5285
   36CHL1  H11B 2626   6.073   3.670   3.262  1.2149  0.0213  1.9106
   36CHL1    C9 2627   5.869   3.667   3.203  0.5844  0.0629  0.3080
   36CHL1    H9 2628   5.858   3.581   3.273  0.8570  0.1951  0.5120
   36CHL1   C10 2629   5.882   3.628   3.053  0.8863 -0.4425  0.1094
   36CHL1   C19 2630   5.919   3.752   2.974 -0.4869 -0.0471 -0.0081
   36CHL1  H19A 2631   6.016   3.794   3.010  0.7066  1.0575 -3.9601
   36CHL1  H19B 2632   5.929   3.723   2.867  2.6115 -0.3959  0.2987
   36CHL1  H19C 2633   5.847   3.836   2.981  0.3196  0.6670 -0.0816
   36CHL1    C1 2634   5.974   3.513   3.027 -0.0137  0.1288 -0.3467
   36CHL1   H1A 2635   6.081   3.539   3.046 -0.9420  3.9388  0.6795
   36CHL1   H1B 2636   5.937   3.425   3.083 -1.5827  1.1634  0.3203
   36CHL1    C2 2637   5.979   3.460   2.879  0.4507 -0.2030 -0.0992
   36CHL1   H2A 2638   6.036   3.365   2.867  0.1125 -0.3239 -0.8556
   36CHL1   H2B 2639   6.019   3.543   2.817  0.9499 -1.7669 -2.0057
   36CHL1   C20 2640   5.869   3.958   3.694 -0.1040 -0.3999  0.2770
   36CHL1   H20 2641   5.822   4.054   3.665 -1.7370 -1.5065 -0.9558
   36CHL1   C21 2642   6.024   3.958   3.684  0.2276 -0.0784 -0.4453
   36CHL1  H21A 2643   6.060   4.022   3.600  0.7910  1.3215  0.8221
   36CHL1  H21B 2644   6.056   3.853   3.666  2.4977  0.3402  0.7753
   36CHL1  H21C 2645   6.071   3.996   3.777  2.7948  2.4310 -2.5950
   36CHL1   C22 2646   5.821   3.934   3.840 -0.3427 -0.5521  0.0873
   36CHL1  H22A 2647   5.861   4.021   3.896  0.0296 -1.1570  0.7871
   36CHL1  H22B 2648   5.710   3.940   3.847 -0.2481 -0.0710  1.6710
   36CHL1   C23 2649   5.852   3.799   3.904 -0.2935 -0.2091 -0.4986
   36CHL1  H23A 2650   5.761   3.737   3.889  0.0831 -0.7167 -0.7486
   36CHL1  H23B 2651   5.935   3.763   3.839 -0.1413  1.1316 -1.0717
   36CHL1   C24 2652   5.911   3.794   4.051 -0.5745 -0.9674  0.0017
   36CHL1  H24A 2653   5.950   3.694   4.078 -0.2358 -0.2621  2.3413
   36CHL1  H24B 2654   5.990   3.872   4.053  0.9514 -1.8798 -5.6098
   36CHL1   C25 2655   5.786   3.811   4.154  0.2440 -0.1201  0.5480
   36CHL1   H25 2656   5.706   3.742   4.120 -2.4534  2.6415  0.8252
   36CHL1   C26 2657   5.837   3.766   4.291  0.1544 -0.7904  0.7801
   36CHL1  H26A 2658   5.936   3.809   4.319 -0.6084 -1.3063  4.9855
   36CHL1  H26B 2659   5.769   3.804   4.370 -0.8063  0.0241 -0.4048
   36CHL1  H26C 2660   5.834   3.658   4.317  1.9421  0.1968  6.6545
   36CHL1   C27 2661   5.741   3.950   4.184 -0.0292  0.0310 -0.0525
   36CHL1  H27A 2662   5.709   4.008   4.094 -0.0783 -0.7615 -0.5600
   36CHL1  H27B 2663   5.654   3.943   4.253  1.2013 -0.9699  1.4274
   36CHL1  H27C 2664   5.825   4.004   4.232 -0.0556 -0.8744  1.0245
   37CHL1    C3 2665   1.431   1.900   2.424  0.5226  0.2311  0.1323
   37CHL1    H3 2666   1.322   1.921   2.432  0.4716  0.5280 -1.1242
   37CHL1    O3 2667   1.455   1.867   2.290  0.5328  0.7707  0.6234
   37CHL1   H3' 2668   1.550   1.857   2.274  0.0505  0.2166 -2.7204
   37CHL1    C4 2669   1.501   2.038   2.460  0.0195 -0.7933  0.1136
   37CHL1   H4A 2670   1.605   2.042   2.421  0.0690  3.5995  0.2619
   37CHL1   H4B 2671   1.453   2.114   2.395 -0.1197 -1.1715 -0.2314
   37CHL1    C5 2672   1.500   2.075   2.606 -0.1017 -0.3225  0.6917
   37CHL1    C6 2673   1.456   2.194   2.646  0.2999  0.8954  0.2619
   37CHL1    H6 2674   1.419   2.259   2.566 -1.6259 -0.7870 -0.3028
   37CHL1    C7 2675   1.467   2.244   2.790  1.0234  0.3589 -0.0116
   37CHL1   H7A 2676   1.529   2.334   2.809  0.1425  0.5393  2.4614
   37CHL1   H7B 2677   1.365   2.277   2.820  0.4549 -0.9419 -0.4040
   37CHL1    C8 2678   1.518   2.134   2.883 -0.3803 -0.2185 -0.3059
   37CHL1    H8 2679   1.629   2.138   2.872 -0.1743 -3.2099 -0.0657
   37CHL1   C14 2680   1.479   2.165   3.023 -0.3233  0.6234 -0.3581
   37CHL1   H14 2681   1.370   2.146   3.029 -0.8520  2.4445 -2.8220
   37CHL1   C15 2682   1.515   2.300   3.083  0.1199  0.3212 -0.2006
   37CHL1  H15A 2683   1.617   2.328   3.049  0.7547 -1.6723 -0.0723
   37CHL1  H15B 2684   1.449   2.382   3.047  0.0837 -0.8451 -3.1006
   37CHL1   C16 2685   1.503   2.286   3.237  0.1787  0.7707  0.3280
   37CHL1  H16A 2686   1.600   2.320   3.281  2.7373 -2.9177 -1.9528
   37CHL1  H16B 2687   1.408   2.328   3.275 -0.8903  0.5471 -1.9635
   37CHL1   C17 2688   1.487   2.131   3.262  0.1361  0.7008  0.2340
   37CHL1   H17 2689   1.380   2.103   3.254  0.1077  1.3213 -2.4370
   37CHL1   C13 2690   1.539   2.066   3.127  0.0387 -0.2269 -0.6672
   37CHL1   C18 2691   1.694   2.071   3.120 -0.0208  0.7753 -0.1051
   37CHL1  H18A 2692   1.729   2.175   3.138 -0.7463  1.0750 -0.3917
   37CHL1  H18B 2693   1.735   2.016   3.206 -0.1432 -2.4851 -1.9685
   37CHL1  H18C 2694   1.741   2.049   3.022  1.5829  1.9703  0.3467
   37CHL1   C12 2695   1.482   1.922   3.092  0.5742  0.7247  0.7756
   37CHL1  H12A 2696   1.528   1.847   3.160 -0.9508  0.2346  1.3086
   37CHL1  H12B 2697   1.372   1.914   3.103  0.4405 -0.7295 -1.0466
   37CHL1   C11 2698   1.519   1.881   2.949 -0.0734  0.4978 -0.1484
   37CHL1  H11A 2699   1.626   1.851   2.942 -0.3718 -0.7109  0.1931
   37CHL1  H11B 2700   1.456   1.796   2.914  0.0746  0.7274 -0.9892
   37CHL1    C9 2701   1.483   1.988   2.845  0.4242 -1.2097  0.6600
   37CHL1    H9 2702   1.374   1.976   2.832  0.3088 -2.0621  2.1269
   37CHL1   C10 2703   1.535   1.958   2.700 -0.4114  0.5625  1.2673
   37CHL1   C19 2704   1.687   1.950   2.698  0.2901  0.2721  0.1433
   37CHL1  H19A 2705   1.715   1.934   2.592 -0.3916  0.3550 -0.0519
   37CHL1  H19B 2706   1.734   2.043   2.736  1.1018 -0.0948  0.0831
   37CHL1  H19C 2707   1.735   1.862   2.748  1.1455  0.5872 -0.0982
   37CHL1    C1 2708   1.468   1.828   2.659  0.2619 -0.0315  0.2702
   37CHL1   H1A 2709   1.507   1.744   2.720  2.2883  2.0731  2.0139
   37CHL1   H1B 2710   1.360   1.834   2.685 -0.0669 -0.7275 -0.8360
   37CHL1    C2 2711   1.482   1.789   2.517 -0.6157 -0.2658  0.0208
   37CHL1   H2A 2712   1.419   1.702   2.486 -1.7827 -0.1849  1.9815
   37CHL1   H2B 2713   1.582   1.755   2.484 -1.8091 -2.3228 -1.7743
   37CHL1   C20 2714   1.541   2.083   3.403  0.6488  0.1461  0.3912
   37CHL1   H20 2715   1.652   2.086   3.406  0.6467 -0.5888  2.5334
   37CHL1   C21 2716   1.494   1.940   3.434  0.6054  0.1368  0.1441
   37CHL1  H21A 2717   1.538   1.862   3.367 -0.3185  0.4651 -0.8698
   37CHL1  H21B 2718   1.384   1.927   3.439  0.4997  1.2811  1.1809
   37CHL1  H21C 2719   1.531   1.907   3.533  0.8531 -1.0791 -0.3357
   37CHL1   C22 2720   1.500   2.183   3.511 -0.2393 -0.4555  0.3005
   37CHL1  H22A 2721   1.549   2.155   3.607  3.1015 -0.2162 -1.2114
   37CHL1  H22B 2722   1.548   2.282   3.502 -1.5776  0.4477  2.3318
   37CHL1   C23 2723   1.352   2.191   3.552 -0.1206  0.2528 -0.2536
   37CHL1  H23A 2724   1.302   2.237   3.464 -2.4732  1.9632  1.8472
   37CHL1  H23B 2725   1.305   2.093   3.573  0.2075  0.4148  1.3768
   37CHL1   C24 2726   1.327   2.289   3.667  0.3426  0.1657 -0.3442
   37CHL1  H24A 2727   1.364   2.246   3.762 -1.5193  1.8744  1.2538
   37CHL1  H24B 2728   1.389   2.381   3.654  2.3403 -1.4136 -3.3947
   37CHL1   C25 2729   1.178   2.326   3.677  0.3458 -0.1945 -0.2936
   37CHL1   H25 2730   1.154   2.388   3.588 -1.0014  0.4037  0.4621
   37CHL1   C26 2731   1.090   2.196   3.673  0.4342 -0.6313  0.3338
   37CHL1  H26A 2732   0.984   2.228   3.681  0.5584 -0.1267  0.0315
   37CHL1  H26B 2733   1.107   2.124   3.590 -0.7186  0.9980 -1.4124
   37CHL1  H26C 2734   1.116   2.126   3.755  1.4077 -2.3652 -1.3854
   37CHL1   C27 2735   1.153   2.394   3.806  0.4121 -1.2687  0.2369
   37CHL1  H27A 2736   1.048   2.430   3.812  0.7140 -0.0983 -0.9637
   37CHL1  H27B 2737   1.183   2.320   3.883  2.0425 -0.8735  0.0076
   37CHL1  H27C 2738   1.216   2.485   3.811  1.4756 -1.9176 -0.8448
   38CHL1    C3 2739   4.344   5.476   2.891 -0.1080  0.5394  0.1146
   38CHL1    H3 2740   4.246   5.526   2.878 -0.2728  0.1281 -0.2434
   38CHL1    O3 2741   4.353   5.388   2.782 -0.9958  0.0926 -0.2559
   38CHL1   H3' 2742   4.273   5.335   2.786 -1.5662  0.9337 -0.0830
   38CHL1    C4 2743   4.464   5.570   2.889  0.4014  0.4418 -0.1482
   38CHL1   H4A 2744   4.552   5.503   2.879  1.2808  1.6547 -0.8755
   38CHL1   H4B 2745   4.460   5.627   2.794  2.0389 -2.1767 -1.9018
   38CHL1    C5 2746   4.467   5.662   3.015 -0.8918 -0.3459  0.3924
   38CHL1    C6 2747   4.475   5.794   2.999  0.5224 -0.0251  0.4248
   38CHL1    H6 2748   4.488   5.825   2.894 -0.1327 -1.0907  0.0164
   38CHL1    C7 2749   4.488   5.895   3.107  0.5992 -0.0131  0.2135
   38CHL1   H7A 2750   4.569   5.970   3.092  0.9002 -0.0698  1.4278
   38CHL1   H7B 2751   4.395   5.949   3.136  1.1140  1.4194 -0.6869
   38CHL1    C8 2752   4.530   5.820   3.239 -0.2961  0.6123  0.0987
   38CHL1    H8 2753   4.634   5.782   3.225 -0.5062  0.1782 -0.2996
   38CHL1   C14 2754   4.541   5.913   3.363 -0.6566 -0.0419  0.3833
   38CHL1   H14 2755   4.441   5.961   3.367 -0.7682 -0.2895  0.6669
   38CHL1   C15 2756   4.614   6.049   3.355 -0.9841 -0.4082 -0.0998
   38CHL1  H15A 2757   4.715   6.039   3.310 -1.1524 -1.4875 -0.2796
   38CHL1  H15B 2758   4.560   6.124   3.294 -1.8500 -0.0201  1.1014
   38CHL1   C16 2759   4.620   6.097   3.509  0.1844 -0.0148 -0.5622
   38CHL1  H16A 2760   4.724   6.117   3.542 -0.0765 -1.7337  1.4263
   38CHL1  H16B 2761   4.567   6.193   3.524 -1.0563 -0.5112 -1.5289
   38CHL1   C17 2762   4.563   5.979   3.590  0.0200  0.1724 -0.1873
   38CHL1   H17 2763   4.456   5.997   3.611 -0.3821 -0.0204 -1.9004
   38CHL1   C13 2764   4.560   5.851   3.496  0.3033  0.3930 -0.4501
   38CHL1   C18 2765   4.702   5.790   3.494 -0.1420 -0.1985 -0.8328
   38CHL1  H18A 2766   4.718   5.751   3.597 -0.2455  0.6055 -0.5087
   38CHL1  H18B 2767   4.695   5.708   3.419 -1.7355 -0.6130 -0.2819
   38CHL1  H18C 2768   4.776   5.862   3.452  0.7038 -1.5918 -1.8361
   38CHL1   C12 2769   4.447   5.743   3.521  0.3249  0.0937  1.0824
   38CHL1  H12A 2770   4.471   5.687   3.614  3.4207 -0.7137 -0.0461
   38CHL1  H12B 2771   4.345   5.785   3.517 -0.7294 -2.3476  0.1923
   38CHL1   C11 2772   4.446   5.633   3.410 -0.4535 -0.5354  0.4405
   38CHL1  H11A 2773   4.535   5.567   3.425 -0.1652 -0.1769  0.3312
   38CHL1  H11B 2774   4.363   5.560   3.420 -0.0192 -1.2891 -1.1902
   38CHL1    C9 2775   4.436   5.700   3.262  0.1689  0.2573 -0.1957
   38CHL1    H9 2776   4.332   5.737   3.249 -0.1471  0.1054  1.6025
   38CHL1   C10 2777   4.460   5.589   3.152  0.5247 -0.1499 -0.4937
   38CHL1   C19 2778   4.591   5.518   3.172  0.2475  0.3360 -0.7735
   38CHL1  H19A 2779   4.666   5.583   3.221 -1.7246  2.3387 -0.2394
   38CHL1  H19B 2780   4.581   5.446   3.256 -2.3131 -0.3491 -1.5697
   38CHL1  H19C 2781   4.631   5.463   3.084  2.9290  0.8224  0.0449
   38CHL1    C1 2782   4.346   5.476   3.150  0.0450  0.4110 -0.2216
   38CHL1   H1A 2783   4.341   5.409   3.238 -0.0265  0.5009 -0.1563
   38CHL1   H1B 2784   4.251   5.532   3.155 -0.5552 -0.5878 -0.2083
   38CHL1    C2 2785   4.342   5.392   3.023  0.1018  0.5567 -0.5333
   38CHL1   H2A 2786   4.252   5.326   3.023  0.0891  0.5673  0.0074
   38CHL1   H2B 2787   4.433   5.329   3.012 -0.2413  0.1599 -1.1550
   38CHL1   C20 2788   4.627   5.970   3.727 -0.0229  0.2339  0.5798
   38CHL1   H20 2789   4.736   5.953   3.715 -0.0414  1.5833 -2.3107
   38CHL1   C21 2790   4.579   5.850   3.808 -0.6586 -0.8570  0.6624
   38CHL1  H21A 2791   4.593   5.870   3.916  0.7913  1.4715  0.1241
   38CHL1  H21B 2792   4.623   5.754   3.774 -1.1476 -0.5788 -0.8246
   38CHL1  H21C 2793   4.469   5.835   3.804 -0.7396 -0.3833  1.0511
   38CHL1   C22 2794   4.621   6.095   3.819 -0.4159  0.0557 -0.5072
   38CHL1  H22A 2795   4.619   6.177   3.744  0.4834 -0.3705 -1.0176
   38CHL1  H22B 2796   4.518   6.092   3.859 -0.0565  0.7032  0.5100
   38CHL1   C23 2797   4.741   6.112   3.921  0.4014  0.2180 -1.1469
   38CHL1  H23A 2798   4.760   6.015   3.971  2.1527  0.4207 -1.3614
   38CHL1  H23B 2799   4.828   6.130   3.854  1.1571  0.0604 -0.2328
   38CHL1   C24 2800   4.715   6.209   4.040 -0.2815  0.1188 -0.3015
   38CHL1  H24A 2801   4.807   6.217   4.102  0.6236  2.0790 -1.7871
   38CHL1  H24B 2802   4.693   6.309   3.997 -1.2990 -0.3260 -0.8586
   38CHL1   C25 2803   4.605   6.163   4.138  0.7152 -0.8341 -0.5239
   38CHL1   H25 2804   4.512   6.157   4.078 -0.4163  0.7215  0.9603
   38CHL1   C26 2805   4.617   6.017   4.204 -0.3587 -0.1580  0.0447
   38CHL1  H26A 2806   4.702   6.011   4.276 -2.0942  1.2870  2.3594
   38CHL1  H26B 2807   4.529   6.009   4.271  0.2762 -0.1098  0.9034
   38CHL1  H26C 2808   4.626   5.941   4.125  2.2038  1.0404 -0.9494
   38CHL1   C27 2809   4.587   6.263   4.258  0.2664 -0.6955  0.5587
   38CHL1  H27A 2810   4.486   6.235   4.295 -0.2583 -1.0325 -1.0593
   38CHL1  H27B 2811   4.658   6.240   4.341  1.4026  1.2977  0.2087
   38CHL1  H27C 2812   4.594   6.369   4.225 -3.5821 -0.4648  0.0567
   39CHL1    C3 2813   4.121   6.368   3.051  0.2870  0.0829 -0.1070
   39CHL1    H3 2814   4.221   6.415   3.047  1.1425 -1.7114 -0.4260
   39CHL1    O3 2815   4.093   6.324   2.920 -0.1182 -0.3953 -0.5320
   39CHL1   H3' 2816   4.075   6.230   2.929  1.2741 -0.6882 -0.5908
   39CHL1    C4 2817   4.130   6.244   3.146  0.7963 -0.2978 -0.2581
   39CHL1   H4A 2818   4.032   6.191   3.146 -0.6793  2.1927 -2.2601
   39CHL1   H4B 2819   4.202   6.165   3.117  0.2496 -1.8382  2.2927
   39CHL1    C5 2820   4.157   6.293   3.285 -0.3295  0.1483 -0.7678
   39CHL1    C6 2821   4.263   6.235   3.359  0.3424  0.0185  0.3578
   39CHL1    H6 2822   4.321   6.150   3.322 -0.7303 -2.0754  3.1784
   39CHL1    C7 2823   4.294   6.280   3.500 -0.1304 -0.0365  0.4020
   39CHL1   H7A 2824   4.308   6.185   3.557 -0.0533 -0.8034 -0.8620
   39CHL1   H7B 2825   4.393   6.331   3.496  0.3668 -1.0343 -0.6162
   39CHL1    C8 2826   4.183   6.370   3.562 -0.5908  0.6658 -0.1336
   39CHL1    H8 2827   4.103   6.298   3.590 -1.3529  0.7350 -2.0162
   39CHL1   C14 2828   4.251   6.451   3.676 -0.7193 -0.1877  0.1056
   39CHL1   H14 2829   4.331   6.505   3.621  0.1792 -0.9358  0.6381
   39CHL1   C15 2830   4.328   6.377   3.783 -0.3432  0.2879  0.2602
   39CHL1  H15A 2831   4.264   6.294   3.818 -1.4906  1.0735  0.0912
   39CHL1  H15B 2832   4.431   6.354   3.747  0.6492  2.2052  1.6401
   39CHL1   C16 2833   4.351   6.485   3.894 -1.1036 -0.4245 -0.3152
   39CHL1  H16A 2834   4.323   6.444   3.993 -0.0622 -0.6946 -0.1183
   39CHL1  H16B 2835   4.462   6.495   3.899 -0.7480 -3.5574  0.0403
   39CHL1   C17 2836   4.263   6.601   3.850  0.2657 -0.3203  0.2105
   39CHL1   H17 2837   4.328   6.660   3.782  0.9793 -0.9715  0.3092
   39CHL1   C13 2838   4.162   6.550   3.750 -0.1329 -0.0486 -0.2208
   39CHL1   C18 2839   4.050   6.462   3.818 -0.0422  0.3966  0.1465
   39CHL1  H18A 2840   4.100   6.389   3.885  1.2283 -0.5484 -1.7401
   39CHL1  H18B 2841   3.979   6.531   3.869  2.3598  1.9392  1.6312
   39CHL1  H18C 2842   3.996   6.399   3.745  0.6137 -1.0137  0.8352
   39CHL1   C12 2843   4.106   6.654   3.653 -0.6134 -0.3194  0.2812
   39CHL1  H12A 2844   4.034   6.723   3.702 -2.0476 -1.9567  0.5893
   39CHL1  H12B 2845   4.190   6.715   3.613  0.2302 -0.6765  1.4666
   39CHL1   C11 2846   4.046   6.586   3.524 -0.3695 -0.4225 -0.2493
   39CHL1  H11A 2847   3.953   6.539   3.563  0.9889 -2.7474  0.4170
   39CHL1  H11B 2848   4.028   6.663   3.447 -0.5368  0.2086  0.4106
   39CHL1    C9 2849   4.129   6.469   3.465  0.0573 -0.3791  0.2094
   39CHL1    H9 2850   4.222   6.511   3.421  0.9047 -2.4574 -0.1297
   39CHL1   C10 2851   4.065   6.407   3.345 -0.3804 -0.5876 -0.5172
   39CHL1   C19 2852   3.925   6.340   3.382 -0.2415 -0.3169  0.0018
   39CHL1  H19A 2853   3.843   6.399   3.428 -1.6956 -2.1727 -0.1037
   39CHL1  H19B 2854   3.884   6.285   3.294 -1.0381  1.9519 -1.1395
   39CHL1  H19C 2855   3.950   6.262   3.457 -0.8666  0.5158  1.1075
   39CHL1    C1 2856   4.055   6.519   3.236  0.5392  0.0110 -0.3710
   39CHL1   H1A 2857   3.984   6.598   3.267  1.2944 -0.0241  1.5654
   39CHL1   H1B 2858   4.155   6.566   3.228  0.2933  0.9195  1.4461
   39CHL1    C2 2859   4.012   6.468   3.098  0.5149  0.1972  0.0033
   39CHL1   H2A 2860   4.006   6.556   3.030 -1.4829  0.3349  0.2785
   39CHL1   H2B 2861   3.910   6.424   3.091  1.3713 -1.6181 -3.2019
   39CHL1   C20 2862   4.220   6.692   3.964  0.6170  0.1721 -0.3681
   39CHL1   H20 2863   4.127   6.745   3.935  0.3036 -0.1709 -0.0078
   39CHL1   C21 2864   4.337   6.789   4.000 -0.4784 -0.1983  0.8490
   39CHL1  H21A 2865   4.303   6.851   4.086 -1.9500 -0.0701  0.1966
   39CHL1  H21B 2866   4.351   6.847   3.906 -2.4180  1.9119  1.7621
   39CHL1  H21C 2867   4.428   6.735   4.035  0.6061 -0.5640 -2.2574
   39CHL1   C22 2868   4.172   6.614   4.091 -0.6140  0.2942 -0.3739
   39CHL1  H22A 2869   4.105   6.531   4.062  1.3940 -2.8958  3.2449
   39CHL1  H22B 2870   4.259   6.567   4.141 -0.5121  1.1709  0.3147
   39CHL1   C23 2871   4.089   6.701   4.189  0.3549 -0.0536  0.4728
   39CHL1  H23A 2872   4.152   6.786   4.225 -2.0806  2.2648 -0.4194
   39CHL1  H23B 2873   4.006   6.751   4.135  0.2995  0.4932  1.0512
   39CHL1   C24 2874   4.046   6.621   4.308  0.4159 -0.0280 -0.0558
   39CHL1  H24A 2875   3.975   6.546   4.268 -0.3116  1.6190 -2.0365
   39CHL1  H24B 2876   4.137   6.571   4.345 -0.5237  0.1503  2.7658
   39CHL1   C25 2877   3.960   6.694   4.421  0.1495 -0.6250  0.1777
   39CHL1   H25 2878   4.011   6.783   4.461 -0.5914 -1.2730  2.7630
   39CHL1   C26 2879   3.828   6.736   4.353  0.0984 -0.5138 -0.1940
   39CHL1  H26A 2880   3.774   6.800   4.425 -2.7225 -1.9888 -0.8650
   39CHL1  H26B 2881   3.833   6.786   4.254 -4.1600 -0.8244 -0.7420
   39CHL1  H26C 2882   3.764   6.646   4.341 -0.7672 -0.0046  0.5824
   39CHL1   C27 2883   3.947   6.616   4.550 -1.0002  0.2279  0.3339
   39CHL1  H27A 2884   3.918   6.513   4.520  2.5661 -1.2911  1.5459
   39CHL1  H27B 2885   4.044   6.617   4.604  0.3095 -1.5427 -1.8017
   39CHL1  H27C 2886   3.872   6.660   4.619  1.1510  2.6392  1.3232
   40CHL1    C3 2887   6.789   3.552   2.470  0.1709 -0.7710 -0.0913
   40CHL1    H3 2888   6.778   3.662   2.475  1.4112 -0.6029 -0.5841
   40CHL1    O3 2889   6.792   3.487   2.338  0.0139  0.2282 -0.1370
   40CHL1   H3' 2890   6.826   3.547   2.270  1.4453 -3.0989 -2.6578
   40CHL1    C4 2891   6.924   3.515   2.540  0.4038  0.3899 -0.6877
   40CHL1   H4A 2892   6.927   3.404   2.526 -2.6845  0.4716 -3.0440
   40CHL1   H4B 2893   7.010   3.560   2.486  1.7466 -1.5477 -0.2939
   40CHL1    C5 2894   6.935   3.530   2.691 -0.3154 -1.1554  0.4314
   40CHL1    C6 2895   7.042   3.596   2.745 -0.4819  0.3970  0.1191
   40CHL1    H6 2896   7.131   3.625   2.688  2.2071 -2.2478  2.6168
   40CHL1    C7 2897   7.060   3.609   2.899 -0.2323 -0.4538  0.6458
   40CHL1   H7A 2898   7.163   3.575   2.922  0.4712  0.9447 -0.2641
   40CHL1   H7B 2899   7.052   3.716   2.929 -1.2211 -0.2865 -0.1881
   40CHL1    C8 2900   6.961   3.525   2.981 -0.7376  0.2551  0.2934
   40CHL1    H8 2901   6.988   3.417   2.979 -3.0594 -0.3661  0.2858
   40CHL1   C14 2902   6.957   3.576   3.125  0.6638  0.2447 -0.1457
   40CHL1   H14 2903   6.922   3.679   3.106  0.2792 -0.0921 -1.3472
   40CHL1   C15 2904   7.086   3.593   3.218 -0.4383  0.8401  1.1846
   40CHL1  H15A 2905   7.142   3.499   3.201 -1.6496 -0.1459  2.4270
   40CHL1  H15B 2906   7.144   3.685   3.197  2.3295 -0.8215  1.0542
   40CHL1   C16 2907   7.034   3.590   3.361  0.3616 -0.3093  0.7736
   40CHL1  H16A 2908   7.071   3.503   3.420 -0.3865 -0.8754  0.4110
   40CHL1  H16B 2909   7.057   3.691   3.402  0.8944  0.5347 -1.4555
   40CHL1   C17 2910   6.876   3.577   3.351 -0.1851 -0.1812  0.2424
   40CHL1   H17 2911   6.830   3.678   3.350  2.8236  1.2919 -0.6960
   40CHL1   C13 2912   6.850   3.510   3.212  0.7173  0.5399  0.9060
   40CHL1   C18 2913   6.874   3.355   3.213 -0.0567 -0.7147 -0.8655
   40CHL1  H18A 2914   6.785   3.310   3.261  1.2756 -1.2778  1.1975
   40CHL1  H18B 2915   6.873   3.308   3.112 -1.0173 -2.5066 -0.0641
   40CHL1  H18C 2916   6.970   3.327   3.261 -0.6068  1.1747  1.5627
   40CHL1   C12 2917   6.717   3.546   3.151  0.0832  0.8548  0.1761
   40CHL1  H12A 2918   6.635   3.512   3.218  0.9500 -1.3036  0.2277
   40CHL1  H12B 2919   6.694   3.654   3.137 -2.4876  0.3129 -0.2847
   40CHL1   C11 2920   6.716   3.489   3.009  0.4119  0.1594 -0.3142
   40CHL1  H11A 2921   6.702   3.379   3.010 -0.6003  0.2762 -0.1081
   40CHL1  H11B 2922   6.615   3.519   2.973  0.0312 -0.1096  0.5048
   40CHL1    C9 2923   6.822   3.545   2.912 -0.1185 -0.0442  0.8040
   40CHL1    H9 2924   6.800   3.654   2.908 -1.0421 -0.2548 -0.0662
   40CHL1   C10 2925   6.815   3.483   2.770 -0.0453  0.7772  0.0925
   40CHL1   C19 2926   6.816   3.323   2.775 -0.5132  0.0574 -1.0732
   40CHL1  H19A 2927   6.848   3.283   2.676  0.6770 -3.0744  0.4164
   40CHL1  H19B 2928   6.894   3.295   2.850 -2.1693 -1.8210  0.0571
   40CHL1  H19C 2929   6.727   3.265   2.807  0.8471 -0.8843  1.2492
   40CHL1    C1 2930   6.679   3.535   2.706  0.0069  0.0993  0.2579
   40CHL1   H1A 2931   6.594   3.497   2.766 -1.4312  1.6387 -0.7043
   40CHL1   H1B 2932   6.690   3.645   2.704  0.3913  0.0830 -2.0096
   40CHL1    C2 2933   6.674   3.496   2.558 -0.9808  0.5024  0.4254
   40CHL1   H2A 2934   6.582   3.538   2.511  0.3755  2.3784 -0.6891
   40CHL1   H2B 2935   6.669   3.385   2.556 -1.4573  0.5133  0.7464
   40CHL1   C20 2936   6.822   3.500   3.476 -0.5784 -0.5007  0.3015
   40CHL1   H20 2937   6.871   3.400   3.470 -1.5418 -1.1091  1.9689
   40CHL1   C21 2938   6.673   3.493   3.480 -0.8072  0.1525  0.3329
   40CHL1  H21A 2939   6.628   3.593   3.496 -3.7621 -1.0242 -0.0489
   40CHL1  H21B 2940   6.639   3.424   3.561  3.2440 -1.6418  0.7552
   40CHL1  H21C 2941   6.637   3.442   3.388  0.2082 -0.6258  0.3421
   40CHL1   C22 2942   6.882   3.564   3.612  0.6775  0.5933 -1.0415
   40CHL1  H22A 2943   6.989   3.591   3.604  0.7907  1.3016  1.9508
   40CHL1  H22B 2944   6.821   3.654   3.635 -0.3098 -0.5409  1.0542
   40CHL1   C23 2945   6.875   3.461   3.722  0.0683 -0.0031  0.2526
   40CHL1  H23A 2946   6.880   3.519   3.817  0.5572  1.3561 -0.5657
   40CHL1  H23B 2947   6.779   3.405   3.720 -0.0657  0.1292  1.5807
   40CHL1   C24 2948   6.992   3.361   3.726 -0.4864 -0.7386  0.4720
   40CHL1  H24A 2949   7.012   3.322   3.624 -0.7094  2.0269 -0.7267
   40CHL1  H24B 2950   7.083   3.419   3.754 -0.1744 -0.1845 -1.5375
   40CHL1   C25 2951   6.965   3.248   3.823 -0.4506  0.4853 -0.3720
   40CHL1   H25 2952   6.868   3.202   3.793  0.3453 -1.4637 -0.0336
   40CHL1   C26 2953   7.067   3.132   3.803 -0.8534 -0.0147  0.1691
   40CHL1  H26A 2954   7.169   3.167   3.830 -0.2538 -2.0215  0.6420
   40CHL1  H26B 2955   7.053   3.045   3.871  0.9206  0.1173  0.7434
   40CHL1  H26C 2956   7.069   3.096   3.698  0.4975  0.9737 -0.1639
   40CHL1   C27 2957   6.967   3.283   3.971  0.0765  0.2967  0.3937
   40CHL1  H27A 2958   7.051   3.349   4.000  0.9967 -0.5599 -0.2740
   40CHL1  H27B 2959   6.870   3.335   3.986  0.2803  1.6949 -2.5396
   40CHL1  H27C 2960   6.973   3.188   4.028 -0.9540 -1.0551 -1.6163
   41CHL1    C3 2961   0.550   2.053   2.592 -0.4164 -0.3838 -0.0791
   41CHL1    H3 2962   0.612   1.975   2.641  1.3632 -0.3004 -2.0845
   41CHL1    O3 2963   0.583   2.070   2.454  0.3998  0.5338  0.4690
   41CHL1   H3' 2964   0.532   2.149   2.436  0.6363  0.3164 -1.3041
   41CHL1    C4 2965   0.409   2.002   2.601  0.4733  0.0581 -0.2422
   41CHL1   H4A 2966   0.335   2.050   2.533  2.1299 -0.4034 -2.4926
   41CHL1   H4B 2967   0.404   1.898   2.562  2.4079 -0.4431  0.7646
   41CHL1    C5 2968   0.363   1.994   2.748  0.5575 -0.3858  0.3655
   41CHL1    C6 2969   0.302   1.873   2.786  0.6446 -0.3184 -0.3726
   41CHL1    H6 2970   0.288   1.789   2.717  2.3591  0.5528 -1.8709
   41CHL1    C7 2971   0.253   1.865   2.923 -0.2618  0.0165 -0.2051
   41CHL1   H7A 2972   0.149   1.827   2.921 -0.6449  0.9557  0.7314
   41CHL1   H7B 2973   0.325   1.793   2.969  0.8776 -0.4556 -2.5546
   41CHL1    C8 2974   0.236   2.003   3.002 -0.1305 -0.5673 -0.5860
   41CHL1    H8 2975   0.148   2.054   2.957 -0.4783  0.1531  0.8532
   41CHL1   C14 2976   0.210   1.972   3.149 -0.7427 -0.7647 -0.3291
   41CHL1   H14 2977   0.304   1.923   3.184  0.1688 -0.3702 -2.0918
   41CHL1   C15 2978   0.086   1.889   3.180  0.3316  0.0217 -0.5883
   41CHL1  H15A 2979   0.004   1.940   3.125 -1.9483 -0.5816  2.0008
   41CHL1  H15B 2980   0.100   1.782   3.154 -0.4949 -0.4301  0.6914
   41CHL1   C16 2981   0.072   1.917   3.334 -0.3600  0.2596  0.3650
   41CHL1  H16A 2982  -0.036   1.941   3.335 -0.2272  1.0220 -0.9023
   41CHL1  H16B 2983   0.085   1.841   3.413 -0.0251  0.0761  0.1354
   41CHL1   C17 2984   0.156   2.040   3.371 -0.2414 -0.0021  0.1312
   41CHL1   H17 2985   0.247   2.000   3.420 -0.6880  1.1520  1.9964
   41CHL1   C13 2986   0.205   2.101   3.237  0.2890 -0.0245 -0.6822
   41CHL1   C18 2987   0.097   2.202   3.187 -0.2028  0.3604  0.8482
   41CHL1  H18A 2988   0.110   2.298   3.241 -1.5236  0.5782  0.8163
   41CHL1  H18B 2989   0.111   2.225   3.079 -1.1546 -1.9750  0.1480
   41CHL1  H18C 2990  -0.005   2.166   3.214 -1.0726 -0.2178 -2.7008
   41CHL1   C12 2991   0.338   2.168   3.233  0.6267 -0.0580 -0.0902
   41CHL1  H12A 2992   0.336   2.257   3.300 -1.9978 -0.3478  0.3407
   41CHL1  H12B 2993   0.418   2.104   3.275 -0.1971 -2.4238 -1.9111
   41CHL1   C11 2994   0.376   2.201   3.089 -0.3165 -0.9896  0.1046
   41CHL1  H11A 2995   0.308   2.287   3.067 -2.5199 -1.9862  2.5078
   41CHL1  H11B 2996   0.483   2.228   3.099 -0.2571 -0.7446 -1.0649
   41CHL1    C9 2997   0.366   2.086   2.991 -0.1131 -0.1816 -0.2036
   41CHL1    H9 2998   0.451   2.019   3.016 -0.2428 -0.1593  0.2971
   41CHL1   C10 2999   0.386   2.122   2.840 -0.0857 -0.3426  0.0342
   41CHL1   C19 3000   0.285   2.225   2.801  0.4542 -0.1535 -0.2339
   41CHL1  H19A 3001   0.291   2.252   2.694  0.1829 -0.2319 -0.2672
   41CHL1  H19B 3002   0.183   2.197   2.835  0.3116  1.1882  0.5436
   41CHL1  H19C 3003   0.311   2.319   2.856  3.0611  0.9980 -3.1684
   41CHL1    C1 3004   0.534   2.164   2.825 -0.3355 -0.0959  0.2537
   41CHL1   H1A 3005   0.558   2.247   2.894 -0.4283 -3.0322  4.1222
   41CHL1   H1B 3006   0.604   2.090   2.869 -0.9294 -1.4911 -1.0523
   41CHL1    C2 3007   0.570   2.188   2.676 -0.0896  0.5671  0.2449
   41CHL1   H2A 3008   0.678   2.213   2.667 -0.0179 -0.0007 -0.6778
   41CHL1   H2B 3009   0.501   2.267   2.640  0.7971  0.6014 -1.5320
   41CHL1   C20 3010   0.086   2.130   3.478 -0.0308  0.2465  0.3381
   41CHL1   H20 3011  -0.006   2.174   3.435  1.1805  0.8716 -1.7580
   41CHL1   C21 3012   0.190   2.238   3.521  0.7078  0.5317 -0.5742
   41CHL1  H21A 3013   0.159   2.282   3.618  1.2804  0.4227 -0.3390
   41CHL1  H21B 3014   0.196   2.325   3.453  2.1969  2.3284  1.7173
   41CHL1  H21C 3015   0.291   2.195   3.536  0.2058 -0.7174 -0.6072
   41CHL1   C22 3016   0.033   2.056   3.607  0.4511  0.0307 -0.3585
   41CHL1  H22A 3017  -0.033   1.972   3.576  0.7469 -0.2714 -0.1799
   41CHL1  H22B 3018   0.107   2.002   3.670  2.1453  1.2838 -1.1951
   41CHL1   C23 3019  -0.059   2.143   3.697 -0.7832  1.0843  0.3931
   41CHL1  H23A 3020   0.015   2.187   3.767  0.2997 -0.0640  0.0088
   41CHL1  H23B 3021  -0.128   2.212   3.644 -1.0368  2.1153  2.0162
   41CHL1   C24 3022  -0.147   2.044   3.775  0.0674  0.1030  0.2754
   41CHL1  H24A 3023  -0.226   2.007   3.706 -0.1744  1.2430 -0.0677
   41CHL1  H24B 3024  -0.093   1.951   3.804 -2.6015 -1.5628  0.2400
   41CHL1   C25 3025  -0.215   2.100   3.905  0.5591 -0.4918  0.0146
   41CHL1   H25 3026  -0.140   2.119   3.984 -0.6498 -0.0324  1.0773
   41CHL1   C26 3027  -0.296   2.227   3.876  0.9812 -0.3833 -0.5162
   41CHL1  H26A 3028  -0.232   2.317   3.866 -1.2876  1.0034 -5.5974
   41CHL1  H26B 3029  -0.359   2.217   3.785  0.5226  0.0747 -0.2499
   41CHL1  H26C 3030  -0.366   2.249   3.959 -0.1048  3.6561 -2.2924
   41CHL1   C27 3031  -0.314   1.990   3.954 -0.5329 -0.1622 -0.6513
   41CHL1  H27A 3032  -0.269   1.930   4.036 -0.1450  0.9337 -0.0541
   41CHL1  H27B 3033  -0.399   2.031   4.013 -0.3090 -2.0075  1.0780
   41CHL1  H27C 3034  -0.361   1.932   3.872  0.9478  0.3938 -1.9426
   42CHL1    C3 3035   0.869   4.674   2.583  0.1273  0.5789 -0.1380
   42CHL1    H3 3036   0.778   4.697   2.643 -1.6015 -1.9957 -1.5938
   42CHL1    O3 3037   0.833   4.685   2.446  0.4520 -0.0477 -0.2804
   42CHL1   H3' 3038   0.768   4.756   2.446 -1.2035 -1.4791 -0.5697
   42CHL1    C4 3039   0.983   4.781   2.601  0.0941  0.4731  0.2880
   42CHL1   H4A 3040   1.056   4.758   2.521 -2.1053 -1.7546 -1.2372
   42CHL1   H4B 3041   0.948   4.886   2.591  1.7452  1.1746  1.4168
   42CHL1    C5 3042   1.045   4.776   2.741 -0.8172  0.2459 -0.4779
   42CHL1    C6 3043   1.055   4.880   2.825 -0.4957 -0.2280 -0.0399
   42CHL1    H6 3044   1.013   4.976   2.794 -1.6782 -0.2483  1.3892
   42CHL1    C7 3045   1.134   4.876   2.949  0.0953  0.4583 -0.5041
   42CHL1   H7A 3046   1.187   4.973   2.955  1.3300 -0.2242  0.1166
   42CHL1   H7B 3047   1.063   4.880   3.034  1.9423  0.3555  1.1263
   42CHL1    C8 3048   1.223   4.751   2.968 -0.0777  0.2538 -0.0778
   42CHL1    H8 3049   1.316   4.764   2.908  0.5569 -1.4045  0.4929
   42CHL1   C14 3050   1.263   4.737   3.113 -0.4139  0.5826  0.6803
   42CHL1   H14 3051   1.175   4.718   3.178  0.8432 -1.6007  1.8739
   42CHL1   C15 3052   1.344   4.856   3.175  0.3890 -0.4565  0.2572
   42CHL1  H15A 3053   1.402   4.912   3.099 -1.7564  2.3906  0.5602
   42CHL1  H15B 3054   1.277   4.932   3.220  0.0157 -0.6981  0.1183
   42CHL1   C16 3055   1.433   4.797   3.286 -0.8398 -0.1097  0.0771
   42CHL1  H16A 3056   1.535   4.825   3.252 -1.6265  1.3138 -1.2763
   42CHL1  H16B 3057   1.411   4.842   3.385  1.1356 -0.9461  0.9443
   42CHL1   C17 3058   1.394   4.646   3.294  0.2659 -0.4546  0.1536
   42CHL1   H17 3059   1.293   4.638   3.341 -0.5483 -0.7517 -1.5258
   42CHL1   C13 3060   1.353   4.616   3.139  0.7272 -0.0744 -0.5833
   42CHL1   C18 3061   1.478   4.610   3.047  0.7216 -0.6094 -0.1733
   42CHL1  H18A 3062   1.451   4.606   2.939  0.4043 -0.8830 -0.0852
   42CHL1  H18B 3063   1.534   4.703   3.067  0.7210  0.2162 -3.4208
   42CHL1  H18C 3064   1.538   4.521   3.078 -1.4460 -1.8192  0.7445
   42CHL1   C12 3065   1.249   4.500   3.121 -0.8479 -0.3509  0.0205
   42CHL1  H12A 3066   1.280   4.398   3.150  0.8219  0.0413 -0.3049
   42CHL1  H12B 3067   1.165   4.528   3.189 -0.3946 -3.2017  1.9103
   42CHL1   C11 3068   1.207   4.497   2.968  0.8388  0.3194 -0.1880
   42CHL1  H11A 3069   1.296   4.473   2.906  1.6167  1.7083  0.3389
   42CHL1  H11B 3070   1.130   4.418   2.961 -0.1191  1.3171 -1.4604
   42CHL1    C9 3071   1.141   4.626   2.924 -0.5815 -0.4313 -0.1168
   42CHL1    H9 3072   1.046   4.634   2.981 -0.5199  1.5307 -0.2138
   42CHL1   C10 3073   1.093   4.640   2.775 -0.2839  0.0719  1.1703
   42CHL1   C19 3074   1.207   4.602   2.671  0.2630 -0.5884 -0.3924
   42CHL1  H19A 3075   1.230   4.494   2.688  1.4594 -0.3397 -0.3799
   42CHL1  H19B 3076   1.169   4.611   2.567 -2.5839 -1.7129  0.4476
   42CHL1  H19C 3077   1.288   4.673   2.698  0.5542 -1.1671  0.2728
   42CHL1    C1 3078   0.965   4.544   2.759  0.4761 -0.3216  0.0538
   42CHL1   H1A 3079   1.006   4.443   2.780  1.9431 -0.2065 -1.9486
   42CHL1   H1B 3080   0.887   4.569   2.834 -0.4455  1.4774 -1.4110
   42CHL1    C2 3081   0.908   4.528   2.616 -0.4670 -0.0564 -0.3526
   42CHL1   H2A 3082   0.826   4.453   2.605 -0.1046 -0.6255  0.6373
   42CHL1   H2B 3083   0.996   4.505   2.552  1.9190  1.0441  2.2990
   42CHL1   C20 3084   1.500   4.560   3.367  1.0660 -0.4193  0.6398
   42CHL1   H20 3085   1.600   4.585   3.325 -0.3426  0.8824 -2.3048
   42CHL1   C21 3086   1.460   4.416   3.342 -1.1071 -0.3858  0.9288
   42CHL1  H21A 3087   1.534   4.343   3.380  0.2859 -0.2051 -1.2578
   42CHL1  H21B 3088   1.463   4.394   3.233 -4.3136  0.5520  0.5664
   42CHL1  H21C 3089   1.359   4.394   3.381 -1.5807 -0.9178 -0.5344
   42CHL1   C22 3090   1.505   4.595   3.512  0.5671  0.0166 -0.2426
   42CHL1  H22A 3091   1.543   4.699   3.510  2.5100 -0.6437 -2.5741
   42CHL1  H22B 3092   1.403   4.588   3.555  0.8113  1.3565  0.6038
   42CHL1   C23 3093   1.601   4.516   3.597  0.5000  0.4280 -0.1931
   42CHL1  H23A 3094   1.577   4.407   3.603  0.4952  0.4699  0.6342
   42CHL1  H23B 3095   1.696   4.524   3.540  0.0389 -0.7621 -1.1813
   42CHL1   C24 3096   1.616   4.556   3.749 -0.0824  0.2731  0.3469
   42CHL1  H24A 3097   1.629   4.666   3.757  0.2475  0.1362  1.9325
   42CHL1  H24B 3098   1.521   4.520   3.793 -0.4753  0.9397  0.0584
   42CHL1   C25 3099   1.739   4.490   3.812 -0.6526 -0.2156 -0.1298
   42CHL1   H25 3100   1.739   4.505   3.922  0.0344  1.5833 -0.3444
   42CHL1   C26 3101   1.759   4.346   3.790  0.3628  0.0109 -0.0033
   42CHL1  H26A 3102   1.675   4.289   3.836 -0.3112  1.3548  0.4786
   42CHL1  H26B 3103   1.763   4.309   3.685 -0.3741  0.9553 -0.3874
   42CHL1  H26C 3104   1.845   4.312   3.851  0.9926 -2.3130 -2.0054
   42CHL1   C27 3105   1.868   4.559   3.759 -0.6422 -0.8703 -0.1295
   42CHL1  H27A 3106   1.959   4.526   3.814 -0.2427 -0.4307 -0.5199
   42CHL1  H27B 3107   1.887   4.531   3.653  1.0357 -0.7105  0.1048
   42CHL1  H27C 3108   1.869   4.670   3.764 -0.9077 -0.9142  1.1544
   43CHL1    C3 3109   3.038   6.320   3.015  0.0967 -0.3235  0.4367
   43CHL1    H3 3110   2.966   6.391   2.970  1.4696  1.8441  1.5211
   43CHL1    O3 3111   3.094   6.265   2.903  0.4915 -0.2075  0.0115
   43CHL1   H3' 3112   3.029   6.207   2.863 -0.0986  0.0262  0.6119
   43CHL1    C4 3113   3.136   6.417   3.089 -0.0386  0.4457 -0.3650
   43CHL1   H4A 3114   3.230   6.361   3.107  0.6684  1.4227 -0.9175
   43CHL1   H4B 3115   3.160   6.505   3.025 -0.8013 -1.4931 -3.5376
   43CHL1    C5 3116   3.086   6.455   3.228 -0.3517 -0.2731  0.1493
   43CHL1    C6 3117   3.084   6.586   3.263  0.4050  0.6035  0.3079
   43CHL1    H6 3118   3.117   6.663   3.191  1.2451  0.3888  0.4551
   43CHL1    C7 3119   3.040   6.641   3.396  0.8733  0.5354  0.1690
   43CHL1   H7A 3120   3.104   6.718   3.443  0.9250  0.6924 -0.1569
   43CHL1   H7B 3121   2.941   6.691   3.385  0.7329  0.1034 -0.6417
   43CHL1    C8 3122   3.025   6.521   3.504  0.5494 -0.2651  0.3129
   43CHL1    H8 3123   3.131   6.490   3.520  1.3805  2.0445 -0.3187
   43CHL1   C14 3124   2.962   6.559   3.635  0.6090  0.3842  0.1894
   43CHL1   H14 3125   2.867   6.606   3.601  0.7536  0.2605 -0.3973
   43CHL1   C15 3126   3.024   6.677   3.710  0.4572  0.3358 -0.9863
   43CHL1  H15A 3127   3.135   6.675   3.711  0.4800 -1.9713  0.8731
   43CHL1  H15B 3128   2.996   6.777   3.672 -3.0600  0.0362  0.4171
   43CHL1   C16 3129   2.988   6.653   3.858 -0.4371  0.1605  0.2239
   43CHL1  H16A 3130   3.085   6.632   3.908  1.1120  0.5933 -2.3742
   43CHL1  H16B 3131   2.939   6.742   3.904  0.8838  1.4615 -0.7672
   43CHL1   C17 3132   2.892   6.532   3.867  0.0071  0.4155  0.6535
   43CHL1   H17 3133   2.791   6.573   3.844 -0.5016 -2.0121 -2.1167
   43CHL1   C13 3134   2.934   6.450   3.735  0.4421 -1.0689 -0.0392
   43CHL1   C18 3135   3.066   6.384   3.763 -0.5568 -0.4811 -0.4166
   43CHL1  H18A 3136   3.039   6.305   3.836 -2.0742  1.6675  1.4640
   43CHL1  H18B 3137   3.105   6.324   3.677 -1.2454 -0.0908 -1.0059
   43CHL1  H18C 3138   3.137   6.458   3.806 -0.6931 -1.5365  1.7362
   43CHL1   C12 3139   2.841   6.356   3.672  0.0479  0.7373  0.4673
   43CHL1  H12A 3140   2.825   6.260   3.725 -0.6962 -1.3028 -3.1074
   43CHL1  H12B 3141   2.745   6.411   3.673 -0.0424  0.5747  1.5138
   43CHL1   C11 3142   2.879   6.306   3.535  0.2439 -0.7358  0.7978
   43CHL1  H11A 3143   2.943   6.217   3.552  1.5679  0.0581  0.1936
   43CHL1  H11B 3144   2.781   6.280   3.491 -0.2124  0.4025  1.1090
   43CHL1    C9 3145   2.944   6.409   3.435 -0.3654  0.2451  0.2582
   43CHL1    H9 3146   2.857   6.454   3.382 -1.6477 -1.0543  1.1825
   43CHL1   C10 3147   3.026   6.345   3.323 -0.1096  0.0931 -0.8187
   43CHL1   C19 3148   3.151   6.263   3.374  0.0163 -0.3983  0.3210
   43CHL1  H19A 3149   3.209   6.331   3.440 -0.4955  0.6162 -0.2417
   43CHL1  H19B 3150   3.122   6.172   3.430 -0.8861 -0.8222 -0.8125
   43CHL1  H19C 3151   3.221   6.231   3.293  0.9581  2.0107  0.0863
   43CHL1    C1 3152   2.931   6.253   3.244 -0.2769  0.7938 -0.3997
   43CHL1   H1A 3153   2.904   6.166   3.307 -0.5891  2.1852  1.5011
   43CHL1   H1B 3154   2.838   6.309   3.221 -0.9083  0.2644  0.7680
   43CHL1    C2 3155   2.985   6.209   3.106  0.0921 -0.8444  0.4531
   43CHL1   H2A 3156   2.906   6.144   3.061 -2.0297  0.9897  1.3455
   43CHL1   H2B 3157   3.075   6.148   3.128  1.6935  0.9111 -0.9708
   43CHL1   C20 3158   2.897   6.468   4.005  0.0435 -0.1500 -0.0234
   43CHL1   H20 3159   2.996   6.421   4.026 -0.9777 -1.8449  1.3890
   43CHL1   C21 3160   2.796   6.344   4.011 -0.2836 -0.3345 -0.0099
   43CHL1  H21A 3161   2.696   6.370   3.970 -0.7313 -0.9382  0.6681
   43CHL1  H21B 3162   2.778   6.300   4.112 -4.6413 -2.1193 -1.3457
   43CHL1  H21C 3163   2.836   6.265   3.944 -2.7035 -0.1281 -1.8620
   43CHL1   C22 3164   2.863   6.582   4.111  0.8036 -0.1018 -0.5481
   43CHL1  H22A 3165   2.942   6.658   4.129 -0.2841  0.6661  1.2955
   43CHL1  H22B 3166   2.762   6.623   4.087  0.8019 -1.5554 -3.3818
   43CHL1   C23 3167   2.837   6.528   4.252  0.2078 -0.2315 -0.6206
   43CHL1  H23A 3168   2.816   6.606   4.328 -1.4259 -2.3631  1.2361
   43CHL1  H23B 3169   2.749   6.461   4.245  0.4438 -0.8320  1.6357
   43CHL1   C24 3170   2.943   6.432   4.311 -0.0851  0.1196 -0.6235
   43CHL1  H24A 3171   2.948   6.340   4.248 -1.1160  0.4353 -1.2025
   43CHL1  H24B 3172   3.039   6.487   4.306 -1.0341  2.0697  1.3403
   43CHL1   C25 3173   2.922   6.387   4.455  0.0551 -0.0180 -0.4132
   43CHL1   H25 3174   3.015   6.332   4.478 -1.6768 -2.4742  1.2448
   43CHL1   C26 3175   2.920   6.511   4.549 -0.5021  0.3527 -0.0237
   43CHL1  H26A 3176   3.013   6.566   4.524  0.3936 -0.8976  0.4332
   43CHL1  H26B 3177   2.831   6.577   4.552 -0.8618 -0.1394  0.4054
   43CHL1  H26C 3178   2.939   6.473   4.652  1.1597  1.3974  0.0921
   43CHL1   C27 3179   2.805   6.302   4.465 -0.6222  0.4605  0.5842
   43CHL1  H27A 3180   2.717   6.363   4.435  0.6903  1.3641 -1.7166
   43CHL1  H27B 3181   2.811   6.213   4.398 -1.3380 -0.8439  2.1814
   43CHL1  H27C 3182   2.800   6.256   4.566 -0.7507 -1.3996 -0.2236
   44CHL1    C3 3183   0.703   0.583   2.967  0.2927  0.2416  0.0894
   44CHL1    H3 3184   0.632   0.512   3.015  1.4146 -1.1672 -0.2799
   44CHL1    O3 3185   0.675   0.578   2.824 -0.0854 -0.0735 -0.2312
   44CHL1   H3' 3186   0.752   0.627   2.796 -0.5568  0.0338 -1.3995
   44CHL1    C4 3187   0.699   0.725   3.012 -0.1138 -0.4485  0.4534
   44CHL1   H4A 3188   0.774   0.779   2.950  0.4191  0.4010  1.8007
   44CHL1   H4B 3189   0.605   0.774   2.982  1.6512  2.7165 -0.3842
   44CHL1    C5 3190   0.724   0.730   3.163 -0.4016  0.7763  0.4007
   44CHL1    C6 3191   0.634   0.782   3.248 -0.7245 -0.7587 -0.1802
   44CHL1    H6 3192   0.537   0.824   3.217 -1.0671 -1.7928 -0.5425
   44CHL1    C7 3193   0.678   0.805   3.395  0.2264  0.9483  0.5977
   44CHL1   H7A 3194   0.676   0.913   3.419  2.7283  1.5550 -1.4354
   44CHL1   H7B 3195   0.602   0.741   3.444 -0.4154  1.9100  0.8928
   44CHL1    C8 3196   0.822   0.765   3.433  0.1247  0.2119 -0.3639
   44CHL1    H8 3197   0.888   0.850   3.408 -0.9406  0.9928 -0.5864
   44CHL1   C14 3198   0.827   0.733   3.585  0.3295  0.5410  0.5652
   44CHL1   H14 3199   0.765   0.643   3.603  1.3576 -0.1081  0.9985
   44CHL1   C15 3200   0.776   0.836   3.688 -0.3377 -0.1947  0.6693
   44CHL1  H15A 3201   0.805   0.939   3.659 -1.5601  0.4831  1.7528
   44CHL1  H15B 3202   0.665   0.836   3.691 -0.3941  2.4924  1.1534
   44CHL1   C16 3203   0.836   0.797   3.825  0.5100  0.0776 -0.3077
   44CHL1  H16A 3204   0.876   0.894   3.863 -0.2940  0.4867 -0.4681
   44CHL1  H16B 3205   0.759   0.756   3.893  1.0898 -0.1003  0.2390
   44CHL1   C17 3206   0.939   0.684   3.792 -0.1861  0.3908  0.2392
   44CHL1   H17 3207   0.897   0.583   3.811 -0.2532  0.1672 -0.9895
   44CHL1   C13 3208   0.965   0.690   3.639 -0.1185  0.5114  0.2487
   44CHL1   C18 3209   1.066   0.802   3.616  0.4678 -0.0505 -0.0906
   44CHL1  H18A 3210   1.171   0.771   3.638  0.7278  1.0289  0.2525
   44CHL1  H18B 3211   1.069   0.843   3.513  5.3675 -0.8787 -0.5231
   44CHL1  H18C 3212   1.041   0.884   3.686  1.8913  0.6469 -0.3486
   44CHL1   C12 3213   1.000   0.561   3.558  0.3292 -0.3706 -0.6106
   44CHL1  H12A 3214   1.106   0.540   3.583  0.7262  2.5008  0.4535
   44CHL1  H12B 3215   0.928   0.485   3.597 -0.4131  0.0111 -1.2228
   44CHL1   C11 3216   1.000   0.596   3.409 -0.6675  0.4095 -0.0559
   44CHL1  H11A 3217   1.071   0.680   3.397 -1.4635  0.9761 -0.9603
   44CHL1  H11B 3218   1.046   0.517   3.346 -1.9413 -1.4782  1.2537
   44CHL1    C9 3219   0.866   0.646   3.353 -0.6561  0.1818  1.7618
   44CHL1    H9 3220   0.789   0.567   3.367  1.0698 -2.4436 -1.8851
   44CHL1   C10 3221   0.862   0.672   3.204  0.0119 -0.2593  0.0879
   44CHL1   C19 3222   0.978   0.759   3.158  0.2310 -0.2213  0.8691
   44CHL1  H19A 3223   0.986   0.760   3.047  1.1540 -2.7646  0.8408
   44CHL1  H19B 3224   0.960   0.865   3.188 -0.4128 -0.3157  0.8225
   44CHL1  H19C 3225   1.080   0.732   3.193  0.6342 -0.0964 -0.1712
   44CHL1    C1 3226   0.876   0.521   3.135 -0.2083 -0.5486  0.4715
   44CHL1   H1A 3227   0.980   0.484   3.149 -0.7131 -2.4261 -0.3491
   44CHL1   H1B 3228   0.799   0.459   3.186 -0.5650  0.4544  1.1892
   44CHL1    C2 3229   0.839   0.520   2.986  0.2712  0.2747 -0.1486
   44CHL1   H2A 3230   0.831   0.415   2.952  0.1989  1.2981 -3.6613
   44CHL1   H2B 3231   0.926   0.559   2.930  0.2801  0.9212  0.2904
   44CHL1   C20 3232   1.060   0.695   3.887 -1.1587  0.0433 -0.1791
   44CHL1   H20 3233   1.125   0.783   3.866 -1.3213 -0.3861 -2.8903
   44CHL1   C21 3234   1.152   0.579   3.849  0.2249 -0.0048 -0.3024
   44CHL1  H21A 3235   1.219   0.601   3.763  1.5412 -0.3880  0.5900
   44CHL1  H21B 3236   1.098   0.484   3.829  2.5839 -1.1884 -1.4088
   44CHL1  H21C 3237   1.220   0.564   3.935  0.1680  0.0836 -0.2415
   44CHL1   C22 3238   1.012   0.694   4.038 -0.7342 -0.2623 -0.5257
   44CHL1  H22A 3239   0.953   0.787   4.056  0.0503  0.4393 -1.4729
   44CHL1  H22B 3240   0.954   0.605   4.069 -0.0452 -0.4533  0.2696
   44CHL1   C23 3241   1.125   0.692   4.143  0.4466  0.4093  0.0955
   44CHL1  H23A 3242   1.188   0.601   4.133 -2.4004 -1.6484 -0.2077
   44CHL1  H23B 3243   1.182   0.788   4.135  1.9090 -0.3512  0.9032
   44CHL1   C24 3244   1.064   0.683   4.286  0.1290  0.1119 -0.5717
   44CHL1  H24A 3245   0.993   0.769   4.297 -0.6888 -0.8160  2.2466
   44CHL1  H24B 3246   1.001   0.592   4.298  0.7930 -0.5008 -1.6450
   44CHL1   C25 3247   1.165   0.711   4.404 -0.5769 -0.4225 -0.1745
   44CHL1   H25 3248   1.205   0.814   4.395  0.4079 -0.6266  1.4770
   44CHL1   C26 3249   1.095   0.709   4.538  0.3213 -0.1832  0.2556
   44CHL1  H26A 3250   1.012   0.636   4.540  1.2897 -1.3219  0.1332
   44CHL1  H26B 3251   1.161   0.667   4.617  0.8514 -0.7995 -0.4964
   44CHL1  H26C 3252   1.054   0.809   4.564  0.2164 -0.2306  0.2732
   44CHL1   C27 3253   1.298   0.633   4.400  0.1244 -0.3584 -0.4083
   44CHL1  H27A 3254   1.362   0.661   4.486  0.8360  1.7544 -1.5639
   44CHL1  H27B 3255   1.271   0.525   4.401  0.0388 -0.4892 -4.1020
   44CHL1  H27C 3256   1.362   0.640   4.309 -1.7465  0.5420 -1.7154
   45CHL1    C3 3257   4.442   0.973   2.943 -1.0359 -0.3451  0.3509
   45CHL1    H3 3258   4.526   0.903   2.927 -1.0338 -0.3700  0.4721
   45CHL1    O3 3259   4.412   1.033   2.815 -0.5054 -0.9114 -1.0798
   45CHL1   H3' 3260   4.363   0.963   2.771 -1.9320 -1.4513  1.2082
   45CHL1    C4 3261   4.323   0.900   3.003  0.2943  0.0334  0.1967
   45CHL1   H4A 3262   4.237   0.969   2.990  0.0256 -0.5138 -1.1508
   45CHL1   H4B 3263   4.301   0.812   2.938  0.8685 -0.5853  0.8243
   45CHL1    C5 3264   4.337   0.853   3.140  0.2419 -0.3483 -0.2442
   45CHL1    C6 3265   4.324   0.721   3.172  0.0398 -1.2017  0.3280
   45CHL1    H6 3266   4.305   0.649   3.091 -0.4016 -1.1883  0.4186
   45CHL1    C7 3267   4.330   0.671   3.314 -0.0186  0.2754  0.0848
   45CHL1   H7A 3268   4.256   0.592   3.340  2.5713 -2.4902 -0.3660
   45CHL1   H7B 3269   4.426   0.617   3.330  1.5075  3.4871  2.8970
   45CHL1    C8 3270   4.328   0.788   3.411 -0.7837  0.7578 -0.1404
   45CHL1    H8 3271   4.222   0.820   3.419 -0.7727  0.8909 -0.5063
   45CHL1   C14 3272   4.382   0.733   3.544  0.8887 -0.7008 -0.1946
   45CHL1   H14 3273   4.491   0.723   3.527  1.0301 -0.2731  0.4289
   45CHL1   C15 3274   4.343   0.595   3.595  0.5564  0.4067 -0.0023
   45CHL1  H15A 3275   4.236   0.578   3.572  0.6337  1.7265 -1.5319
   45CHL1  H15B 3276   4.412   0.518   3.555 -1.3212 -1.2991 -0.1290
   45CHL1   C16 3277   4.356   0.607   3.748 -0.3030  0.2419  0.0821
   45CHL1  H16A 3278   4.257   0.608   3.800 -1.0384  2.0188 -1.2152
   45CHL1  H16B 3279   4.428   0.530   3.781 -1.4239 -1.6064 -1.5927
   45CHL1   C17 3280   4.416   0.750   3.782  0.0763  0.3763  0.0346
   45CHL1   H17 3281   4.521   0.732   3.749 -0.1386  0.3583 -0.6528
   45CHL1   C13 3282   4.374   0.837   3.662 -0.9277  0.2471 -0.0242
   45CHL1   C18 3283   4.223   0.880   3.677 -0.0352 -0.8193 -0.4450
   45CHL1  H18A 3284   4.192   0.958   3.604  3.0652  1.1245  0.1049
   45CHL1  H18B 3285   4.157   0.791   3.682  1.7842 -2.1614  2.1809
   45CHL1  H18C 3286   4.221   0.936   3.773  2.1479  0.1125 -0.8748
   45CHL1   C12 3287   4.474   0.956   3.622  0.0022 -0.0722  0.2166
   45CHL1  H12A 3288   4.471   1.034   3.701 -0.8360  0.9428 -0.7895
   45CHL1  H12B 3289   4.576   0.916   3.604  0.2149 -0.6721  2.4962
   45CHL1   C11 3290   4.428   1.013   3.486 -0.3017 -0.4135 -0.8612
   45CHL1  H11A 3291   4.334   1.072   3.487 -0.7946 -1.0892 -3.0901
   45CHL1  H11B 3292   4.510   1.085   3.462 -0.2569 -0.1730 -0.0261
   45CHL1    C9 3293   4.415   0.907   3.374 -0.1019 -0.5060  0.8309
   45CHL1    H9 3294   4.519   0.869   3.365  0.1211  0.3593 -0.6243
   45CHL1   C10 3295   4.376   0.965   3.237  0.2866 -0.4388 -0.7145
   45CHL1   C19 3296   4.257   1.065   3.242 -0.3028 -0.0980 -0.0027
   45CHL1  H19A 3297   4.220   1.104   3.145  0.8574  0.1254 -0.3701
   45CHL1  H19B 3298   4.174   1.032   3.309  0.4491  2.1632  2.1837
   45CHL1  H19C 3299   4.288   1.160   3.289 -1.0895 -0.0381  0.4081
   45CHL1    C1 3300   4.504   1.033   3.185 -0.4950  0.0530  0.4727
   45CHL1   H1A 3301   4.535   1.120   3.248 -1.2180 -0.9766  2.3214
   45CHL1   H1B 3302   4.588   0.962   3.174 -0.3994  0.3737 -1.2104
   45CHL1    C2 3303   4.491   1.085   3.038 -0.2221 -0.4090 -0.7225
   45CHL1   H2A 3304   4.587   1.131   3.006 -0.4413  0.6084  0.0222
   45CHL1   H2B 3305   4.412   1.163   3.035  0.3043  0.1297 -0.7490
   45CHL1   C20 3306   4.415   0.798   3.926  0.0429 -0.2616 -0.3919
   45CHL1   H20 3307   4.335   0.874   3.932  2.4040  2.2491  1.2192
   45CHL1   C21 3308   4.541   0.880   3.955  0.1824 -0.2369 -0.0627
   45CHL1  H21A 3309   4.523   0.924   4.055  0.2505 -4.1899  1.9106
   45CHL1  H21B 3310   4.549   0.954   3.873 -0.9204 -0.4928 -0.4095
   45CHL1  H21C 3311   4.632   0.816   3.968  0.9523  0.9650  0.6953
   45CHL1   C22 3312   4.391   0.694   4.035 -0.0049  0.1834 -0.2838
   45CHL1  H22A 3313   4.297   0.636   4.019 -1.0216  1.2992  1.2692
   45CHL1  H22B 3314   4.472   0.619   4.027 -1.4551 -1.3726 -1.1799
   45CHL1   C23 3315   4.402   0.748   4.176 -0.4545  0.0443 -0.4915
   45CHL1  H23A 3316   4.505   0.776   4.207 -0.3208 -0.9931  0.0451
   45CHL1  H23B 3317   4.342   0.841   4.178 -0.1351  0.2450 -0.0137
   45CHL1   C24 3318   4.330   0.649   4.280 -0.0959  0.5753  0.4125
   45CHL1  H24A 3319   4.239   0.619   4.223  0.9371 -1.9648  0.0081
   45CHL1  H24B 3320   4.386   0.555   4.297  0.8719  1.4603  2.4155
   45CHL1   C25 3321   4.299   0.707   4.418  0.6465 -0.2719  0.2583
   45CHL1   H25 3322   4.222   0.786   4.406  1.6881  0.6938 -0.2369
   45CHL1   C26 3323   4.226   0.598   4.504  0.0351 -0.3030  0.4041
   45CHL1  H26A 3324   4.141   0.560   4.443 -0.2341 -1.2749  1.3442
   45CHL1  H26B 3325   4.298   0.519   4.532 -0.2008 -0.9431 -0.7065
   45CHL1  H26C 3326   4.184   0.649   4.593 -3.3017 -0.3341 -1.0037
   45CHL1   C27 3327   4.422   0.770   4.489 -0.0903 -0.4940 -0.1362
   45CHL1  H27A 3328   4.474   0.838   4.417 -1.2813  0.5611 -0.0380
   45CHL1  H27B 3329   4.381   0.841   4.564  2.2573 -1.1455  1.8782
   45CHL1  H27C 3330   4.489   0.700   4.543 -0.8023 -0.1969  1.1774
   46CHL1    C3 3331   6.552   1.015   2.854 -0.1013  0.2109  0.0701
   46CHL1    H3 3332   6.567   0.905   2.852 -2.4362 -0.2777  2.8926
   46CHL1    O3 3333   6.490   1.051   2.733  0.2655 -0.2403 -0.3931
   46CHL1   H3' 3334   6.452   1.138   2.744 -1.1447 -0.5831 -2.0955
   46CHL1    C4 3335   6.455   1.048   2.973  0.4428 -0.4584 -0.7570
   46CHL1   H4A 3336   6.420   1.153   2.968  1.4013  0.0583  1.8362
   46CHL1   H4B 3337   6.364   0.987   2.955  0.0827 -0.6025  1.3528
   46CHL1    C5 3338   6.510   1.027   3.114  0.5724 -0.5554 -0.2925
   46CHL1    C6 3339   6.449   0.946   3.196  0.3755  0.1015  0.2678
   46CHL1    H6 3340   6.355   0.893   3.172 -0.2990  1.2704  0.2399
   46CHL1    C7 3341   6.492   0.937   3.339 -0.5931 -0.3488  0.3297
   46CHL1   H7A 3342   6.402   0.937   3.405  0.6206  0.2834  2.0641
   46CHL1   H7B 3343   6.531   0.834   3.355  0.1359 -0.3455 -1.2910
   46CHL1    C8 3344   6.598   1.043   3.382  0.3609  0.3364  0.7025
   46CHL1    H8 3345   6.545   1.140   3.389  1.4017  0.9645 -0.0297
   46CHL1   C14 3346   6.662   1.010   3.517  0.9479 -0.4337 -0.1686
   46CHL1   H14 3347   6.709   0.914   3.487 -1.0014 -1.2490 -0.8130
   46CHL1   C15 3348   6.561   0.980   3.632  0.2611  0.2881 -0.3531
   46CHL1  H15A 3349   6.475   1.050   3.633  2.4144  3.1569  1.2315
   46CHL1  H15B 3350   6.543   0.872   3.616 -0.1201  0.0270  1.5947
   46CHL1   C16 3351   6.643   1.000   3.762  0.3873  0.2968  0.2507
   46CHL1  H16A 3352   6.621   1.093   3.818 -1.8239 -0.6427  1.0691
   46CHL1  H16B 3353   6.625   0.917   3.834  0.7064  0.0923  0.0938
   46CHL1   C17 3354   6.794   1.024   3.709  0.5264 -0.4250 -0.0422
   46CHL1   H17 3355   6.835   0.922   3.693  1.8052 -0.3571  2.2933
   46CHL1   C13 3356   6.775   1.094   3.572  0.0350  0.2750  0.2637
   46CHL1   C18 3357   6.733   1.234   3.592  0.1674 -0.2349 -0.1924
   46CHL1  H18A 3358   6.644   1.230   3.659  0.5166  0.4287  0.3221
   46CHL1  H18B 3359   6.805   1.306   3.637  1.0997 -0.8474 -0.6825
   46CHL1  H18C 3360   6.697   1.278   3.496 -1.3279 -0.5464  0.1906
   46CHL1   C12 3361   6.891   1.088   3.469 -0.0825 -0.6088 -0.0268
   46CHL1  H12A 3362   6.969   1.164   3.492  0.2588 -0.6924 -0.8830
   46CHL1  H12B 3363   6.944   0.990   3.476 -0.4812 -0.8885 -0.7965
   46CHL1   C11 3364   6.838   1.129   3.327 -0.6632  0.0535  0.2440
   46CHL1  H11A 3365   6.814   1.237   3.332 -2.7286 -0.3993  1.3029
   46CHL1  H11B 3366   6.920   1.115   3.253 -0.0403 -2.0065  1.2530
   46CHL1    C9 3367   6.707   1.054   3.278 -0.4927  0.0829 -0.4923
   46CHL1    H9 3368   6.740   0.950   3.258 -1.9604 -0.1170 -2.0923
   46CHL1   C10 3369   6.643   1.097   3.139  0.5364 -0.5558 -0.7691
   46CHL1   C19 3370   6.623   1.252   3.146  0.7280  1.0814 -0.7630
   46CHL1  H19A 3371   6.550   1.270   3.227  0.1755  0.3534 -1.0841
   46CHL1  H19B 3372   6.721   1.301   3.163  1.8025 -1.1352 -0.1554
   46CHL1  H19C 3373   6.571   1.287   3.054 -1.2329  0.1912 -0.0509
   46CHL1    C1 3374   6.737   1.064   3.021 -0.7106 -0.1982  0.4981
   46CHL1   H1A 3375   6.834   1.114   3.043 -1.3879 -0.0376  3.6062
   46CHL1   H1B 3376   6.762   0.955   3.022 -0.8463 -0.2368  0.0237
   46CHL1    C2 3377   6.686   1.087   2.878 -0.1929  0.8965 -0.1577
   46CHL1   H2A 3378   6.748   1.051   2.794 -0.5651 -2.1302  0.7584
   46CHL1   H2B 3379   6.660   1.195   2.878  1.6027  1.3726 -0.7640
   46CHL1   C20 3380   6.887   1.087   3.812 -0.3186  0.4335  0.2489
   46CHL1   H20 3381   6.852   1.193   3.814 -0.5201  0.5699 -3.3701
   46CHL1   C21 3382   7.034   1.090   3.754  0.8540 -0.2742 -0.1646
   46CHL1  H21A 3383   7.040   1.176   3.683 -2.7671  0.6028  0.3499
   46CHL1  H21B 3384   7.056   0.992   3.706  0.5932  0.1838 -1.2708
   46CHL1  H21C 3385   7.100   1.107   3.841 -1.8092  1.2872  1.6936
   46CHL1   C22 3386   6.883   1.029   3.958  0.3261  0.6378 -0.2960
   46CHL1  H22A 3387   6.938   1.086   4.036 -1.9017  1.4247  0.7870
   46CHL1  H22B 3388   6.775   1.024   3.980  0.7849 -2.2837  1.7727
   46CHL1   C23 3389   6.937   0.884   3.957  0.2495 -0.2312 -0.1193
   46CHL1  H23A 3390   6.858   0.826   3.905 -0.4701  1.0031 -0.4327
   46CHL1  H23B 3391   7.032   0.875   3.899  0.4237  0.4132  0.0561
   46CHL1   C24 3392   6.967   0.840   4.101 -0.4323  0.2195 -0.0216
   46CHL1  H24A 3393   7.013   0.739   4.104 -2.0918 -0.6488 -1.7595
   46CHL1  H24B 3394   7.049   0.897   4.150  0.6770  0.0496 -1.6145
   46CHL1   C25 3395   6.842   0.825   4.198  0.3855 -0.8138 -0.3209
   46CHL1   H25 3396   6.801   0.926   4.218  0.6226 -0.7138 -0.3396
   46CHL1   C26 3397   6.735   0.728   4.138 -0.0751  0.1837 -0.2802
   46CHL1  H26A 3398   6.673   0.777   4.059 -0.1417 -2.6739 -2.1473
   46CHL1  H26B 3399   6.786   0.642   4.090 -1.2660 -0.2225 -0.8765
   46CHL1  H26C 3400   6.662   0.689   4.212  1.5355 -3.9651 -0.6049
   46CHL1   C27 3401   6.884   0.767   4.324 -0.0307 -0.3038 -0.4029
   46CHL1  H27A 3402   6.918   0.661   4.318 -0.6989 -0.8939  3.3995
   46CHL1  H27B 3403   6.971   0.827   4.360 -0.5979  0.3575 -0.1187
   46CHL1  H27C 3404   6.803   0.775   4.400  0.4003  1.5154 -0.0811
   47CHL1    C3 3405   4.860   3.110   3.155  0.1639  0.7117  0.0881
   47CHL1    H3 3406   4.874   3.000   3.164  0.7822  0.8871  1.4866
   47CHL1    O3 3407   4.844   3.144   3.020  0.1789  0.5159  0.4167
   47CHL1   H3' 3408   4.766   3.094   2.993  1.4813 -1.1320 -0.4723
   47CHL1    C4 3409   4.750   3.163   3.237  0.0206 -0.0136 -0.0193
   47CHL1   H4A 3410   4.739   3.270   3.208 -1.2213 -1.0291 -3.7369
   47CHL1   H4B 3411   4.655   3.113   3.211  0.3828  0.5629 -2.7254
   47CHL1    C5 3412   4.779   3.142   3.381 -0.1470  0.1824 -0.1476
   47CHL1    C6 3413   4.687   3.079   3.461 -0.9416  0.5748 -0.1896
   47CHL1    H6 3414   4.591   3.060   3.412  0.5250  2.1684 -4.0724
   47CHL1    C7 3415   4.704   3.068   3.611 -0.3291  0.2366  0.4835
   47CHL1   H7A 3416   4.618   3.108   3.669  0.5303  1.3494  1.0376
   47CHL1   H7B 3417   4.723   2.960   3.625 -0.7705  0.1869  0.7272
   47CHL1    C8 3418   4.810   3.169   3.672 -0.1118  0.5646 -0.1234
   47CHL1    H8 3419   4.773   3.274   3.668  0.8850  0.9017 -0.6404
   47CHL1   C14 3420   4.848   3.117   3.810 -0.0740  0.1613  0.7175
   47CHL1   H14 3421   4.892   3.015   3.800 -0.0387  0.0698  1.6925
   47CHL1   C15 3422   4.737   3.106   3.918 -0.1770  0.3542  0.0851
   47CHL1  H15A 3423   4.663   3.184   3.891 -1.0751 -1.0250 -1.6813
   47CHL1  H15B 3424   4.695   3.004   3.906 -0.0063  0.3667 -0.6478
   47CHL1   C16 3425   4.817   3.115   4.048  0.7918 -0.3833 -0.3123
   47CHL1  H16A 3426   4.782   3.189   4.123  0.4550  0.3474 -1.1645
   47CHL1  H16B 3427   4.815   3.021   4.107  1.6518  0.2650  0.7977
   47CHL1   C17 3428   4.963   3.145   4.014  0.0252 -0.2450  0.1040
   47CHL1   H17 3429   5.005   3.044   3.991  0.1937 -0.3117  0.6958
   47CHL1   C13 3430   4.961   3.201   3.871 -0.4798 -0.4322  0.2488
   47CHL1   C18 3431   4.916   3.352   3.889 -0.0977  0.1588 -0.5907
   47CHL1  H18A 3432   5.000   3.414   3.925  0.7919 -0.0843 -2.1736
   47CHL1  H18B 3433   4.877   3.406   3.800 -3.1607  0.4122  0.7617
   47CHL1  H18C 3434   4.831   3.351   3.961 -1.0854 -2.9809 -1.6110
   47CHL1   C12 3435   5.096   3.187   3.791  0.6001  0.7762 -0.0153
   47CHL1  H12A 3436   5.170   3.256   3.836 -1.0607  1.0701  2.4926
   47CHL1  H12B 3437   5.129   3.081   3.797 -1.1859  0.0434 -2.0799
   47CHL1   C11 3438   5.076   3.225   3.646  0.5455 -0.5965  0.2442
   47CHL1  H11A 3439   5.077   3.336   3.641 -2.1233 -0.5434 -3.1004
   47CHL1  H11B 3440   5.166   3.195   3.588  0.2876 -2.3818  0.7222
   47CHL1    C9 3441   4.940   3.165   3.589  0.3419  0.0418  0.4603
   47CHL1    H9 3442   4.961   3.056   3.596  0.5072  0.1222  1.4921
   47CHL1   C10 3443   4.905   3.196   3.440 -0.1108  0.1294  0.3137
   47CHL1   C19 3444   4.906   3.350   3.438 -0.0949 -0.0723 -0.3339
   47CHL1  H19A 3445   4.904   3.390   3.542 -2.6226  0.2358 -0.4208
   47CHL1  H19B 3446   4.996   3.385   3.384  2.6137 -3.0386  1.8381
   47CHL1  H19C 3447   4.818   3.396   3.387  0.4923  1.0060 -0.3955
   47CHL1    C1 3448   5.020   3.143   3.351 -0.3913 -0.0414  0.0576
   47CHL1   H1A 3449   5.123   3.164   3.386  0.7183 -2.6261 -1.3862
   47CHL1   H1B 3450   5.029   3.033   3.363  2.0043  0.1753  0.7049
   47CHL1    C2 3451   4.997   3.169   3.206 -0.7365 -0.1181 -0.9958
   47CHL1   H2A 3452   5.070   3.111   3.145 -0.0354  0.3287 -0.5916
   47CHL1   H2B 3453   5.006   3.277   3.183 -3.6758  0.5685  0.5522
   47CHL1   C20 3454   5.062   3.211   4.114  0.7571 -0.4717  0.2859
   47CHL1   H20 3455   5.137   3.270   4.056 -0.6186  0.2907 -0.7848
   47CHL1   C21 3456   5.142   3.088   4.176 -0.0093  0.1436 -0.2062
   47CHL1  H21A 3457   5.203   3.124   4.262  2.2725 -2.7592 -0.4289
   47CHL1  H21B 3458   5.215   3.050   4.101  0.2253 -0.4796  0.3266
   47CHL1  H21C 3459   5.082   3.001   4.212  0.7553 -0.3086  0.0095
   47CHL1   C22 3460   4.995   3.289   4.229  0.5457 -0.5974  0.3641
   47CHL1  H22A 3461   4.914   3.354   4.188  0.1480 -0.5487  1.1950
   47CHL1  H22B 3462   4.943   3.224   4.303  0.9858  1.5371  2.6622
   47CHL1   C23 3463   5.092   3.379   4.302  0.4527 -0.7085 -1.0478
   47CHL1  H23A 3464   5.184   3.321   4.326  0.0331 -0.4613  1.3833
   47CHL1  H23B 3465   5.125   3.455   4.227 -1.4483  0.4022 -0.8214
   47CHL1   C24 3466   5.031   3.464   4.419 -0.0711  0.3574 -0.2016
   47CHL1  H24A 3467   4.950   3.537   4.397 -2.0001 -1.3243  0.9623
   47CHL1  H24B 3468   4.978   3.387   4.479  0.2987 -1.1261 -1.7000
   47CHL1   C25 3469   5.122   3.540   4.519 -0.4290 -0.0733  0.8959
   47CHL1   H25 3470   5.203   3.469   4.545  1.5598  1.3837 -0.9226
   47CHL1   C26 3471   5.197   3.660   4.457 -0.3461  0.1584 -0.0379
   47CHL1  H26A 3472   5.233   3.725   4.540 -1.3421 -0.9045  1.2557
   47CHL1  H26B 3473   5.277   3.624   4.389 -0.6980 -2.9578  1.0395
   47CHL1  H26C 3474   5.127   3.712   4.388 -0.7404  0.4280  0.5583
   47CHL1   C27 3475   5.049   3.596   4.639  0.8304 -0.2421  0.1563
   47CHL1  H27A 3476   5.109   3.643   4.721  1.7249  0.4441 -0.8613
   47CHL1  H27B 3477   4.985   3.679   4.603  0.6919 -0.5564 -0.3267
   47CHL1  H27C 3478   4.975   3.523   4.677  1.2671  0.6515  2.9526
   48CHL1    C3 3479   1.857   1.504   2.405 -0.9453 -0.1846  0.6494
   48CHL1    H3 3480   1.855   1.615   2.404 -0.8637 -0.1760 -0.6795
   48CHL1    O3 3481   1.853   1.447   2.275 -0.2048  0.0065  0.0787
   48CHL1   H3' 3482   1.882   1.360   2.302  1.8333 -0.9575 -4.3477
   48CHL1    C4 3483   1.991   1.479   2.474 -0.2770 -0.4302 -1.0253
   48CHL1   H4A 3484   2.021   1.372   2.471 -1.3300 -0.8241  1.1276
   48CHL1   H4B 3485   2.063   1.536   2.410  0.6953  0.3172  0.6780
   48CHL1    C5 3486   2.007   1.523   2.623  0.3194  0.1209  0.2662
   48CHL1    C6 3487   2.113   1.585   2.674 -0.6626 -0.0003 -0.7001
   48CHL1    H6 3488   2.207   1.603   2.620 -0.2721  1.0714  0.2868
   48CHL1    C7 3489   2.127   1.635   2.811 -0.5172 -1.1352 -0.6630
   48CHL1   H7A 3490   2.222   1.600   2.857  0.7034  1.6232 -0.8581
   48CHL1   H7B 3491   2.128   1.746   2.810 -2.4166 -1.0590 -2.7340
   48CHL1    C8 3492   2.011   1.582   2.903 -0.1317 -0.0103 -0.4456
   48CHL1    H8 3493   2.038   1.477   2.926  2.6107  0.0901 -2.5646
   48CHL1   C14 3494   2.012   1.649   3.040  0.7728  0.9564 -0.0576
   48CHL1   H14 3495   1.986   1.756   3.021 -0.9167  0.4234 -0.9321
   48CHL1   C15 3496   2.136   1.655   3.115 -0.9305 -0.0853 -0.0664
   48CHL1  H15A 3497   2.213   1.578   3.092 -0.2807  0.5967 -0.2267
   48CHL1  H15B 3498   2.197   1.744   3.087 -0.9893 -0.2195 -0.6437
   48CHL1   C16 3499   2.098   1.689   3.262 -0.0489 -0.2402  0.0059
   48CHL1  H16A 3500   2.135   1.597   3.311 -2.0607 -1.7520 -1.1617
   48CHL1  H16B 3501   2.159   1.777   3.293  2.6780 -1.9302 -0.1954
   48CHL1   C17 3502   1.944   1.691   3.267 -0.2097 -0.0364  0.6770
   48CHL1   H17 3503   1.905   1.793   3.249 -0.1833  0.1564  1.6768
   48CHL1   C13 3504   1.902   1.608   3.142 -0.2729  0.5884  0.4631
   48CHL1   C18 3505   1.924   1.452   3.176  0.4411  0.2154 -0.4340
   48CHL1  H18A 3506   1.850   1.417   3.251  1.4635 -3.6534 -1.0107
   48CHL1  H18B 3507   1.932   1.394   3.081 -0.1961 -1.0496  0.2549
   48CHL1  H18C 3508   2.019   1.427   3.229  0.4852 -0.3156 -0.7566
   48CHL1   C12 3509   1.770   1.631   3.076  0.4134  0.6605 -0.1135
   48CHL1  H12A 3510   1.686   1.588   3.134 -0.4651  2.8528  0.3601
   48CHL1  H12B 3511   1.739   1.738   3.075 -0.5481  0.3827 -1.2329
   48CHL1   C11 3512   1.758   1.570   2.936 -0.3308  0.0226  0.4522
   48CHL1  H11A 3513   1.736   1.461   2.943  0.9646 -0.1754  2.5334
   48CHL1  H11B 3514   1.664   1.606   2.891 -0.5413  0.9122  1.5614
   48CHL1    C9 3515   1.878   1.590   2.838  0.7926  0.1782 -0.2955
   48CHL1    H9 3516   1.870   1.688   2.786 -1.5523  1.2905  1.9586
   48CHL1   C10 3517   1.885   1.498   2.710  0.1515  0.7913 -0.2242
   48CHL1   C19 3518   1.889   1.346   2.746  0.3511  0.4208  1.0623
   48CHL1  H19A 3519   1.794   1.334   2.803 -0.3384  3.9343  0.8990
   48CHL1  H19B 3520   1.891   1.288   2.652  1.5699  1.0495  0.6729
   48CHL1  H19C 3521   1.969   1.315   2.817  1.7584 -0.4110 -0.8239
   48CHL1    C1 3522   1.746   1.520   2.626  0.2643 -0.6934 -0.1085
   48CHL1   H1A 3523   1.665   1.477   2.689 -0.3364 -1.3364 -1.2974
   48CHL1   H1B 3524   1.740   1.631   2.615 -0.6191 -0.7258 -0.0182
   48CHL1    C2 3525   1.741   1.447   2.495  0.1376  0.0742  0.3355
   48CHL1   H2A 3526   1.652   1.457   2.430 -0.5072 -2.0306  0.8184
   48CHL1   H2B 3527   1.767   1.339   2.498  0.2846  0.1206  0.7580
   48CHL1   C20 3528   1.892   1.647   3.403  0.1980  0.8007  0.2181
   48CHL1   H20 3529   1.930   1.543   3.412 -2.6442 -0.3791 -0.3887
   48CHL1   C21 3530   1.744   1.642   3.394 -0.2517 -0.1838  0.3822
   48CHL1  H21A 3531   1.727   1.555   3.327  1.5389 -1.3864  1.4113
   48CHL1  H21B 3532   1.698   1.737   3.358  0.9216  1.4831  2.9797
   48CHL1  H21C 3533   1.693   1.620   3.490 -3.2471  1.3562 -0.7026
   48CHL1   C22 3534   1.926   1.734   3.526  0.1502 -0.6248 -0.4180
   48CHL1  H22A 3535   1.908   1.673   3.617 -1.4841 -0.1979 -0.4360
   48CHL1  H22B 3536   2.036   1.747   3.523  0.1280  0.1965  1.1730
   48CHL1   C23 3537   1.852   1.871   3.530  0.5097  0.4844 -0.4359
   48CHL1  H23A 3538   1.884   1.921   3.436  1.8101 -0.0323 -0.2955
   48CHL1  H23B 3539   1.741   1.863   3.530  0.6481 -3.8642  0.1963
   48CHL1   C24 3540   1.894   1.952   3.655  0.0467 -0.4303  0.3279
   48CHL1  H24A 3541   2.004   1.960   3.653  0.1606 -1.3904  1.5668
   48CHL1  H24B 3542   1.856   2.056   3.647  1.2218  0.3097  3.0363
   48CHL1   C25 3543   1.838   1.898   3.787 -0.0472  0.3717 -0.1553
   48CHL1   H25 3544   1.879   1.798   3.811 -0.5530  0.2445  0.1910
   48CHL1   C26 3545   1.871   1.991   3.909  0.6926 -0.3447  0.2384
   48CHL1  H26A 3546   1.861   2.098   3.882  0.1258 -0.2890  0.6280
   48CHL1  H26B 3547   1.801   1.967   3.992  0.9770  1.0988  0.9230
   48CHL1  H26C 3548   1.973   1.975   3.949 -0.2827 -0.1265  3.0495
   48CHL1   C27 3549   1.682   1.877   3.779  0.3950  0.2508  0.4604
   48CHL1  H27A 3550   1.660   1.804   3.699 -0.0178  0.9879 -0.1146
   48CHL1  H27B 3551   1.646   1.839   3.877  2.0586 -1.4639  0.4579
   48CHL1  H27C 3552   1.629   1.975   3.773 -1.4906 -0.8005 -1.2520
   49CHL1    C3 3553   5.740   1.999   2.523 -0.2440  0.0478 -0.1983
   49CHL1    H3 3554   5.718   1.890   2.518  0.2279 -0.0742  0.2374
   49CHL1    O3 3555   5.765   2.051   2.396 -0.2442  0.0144  0.8585
   49CHL1   H3' 3556   5.847   2.101   2.395  1.6023 -2.7964  0.2331
   49CHL1    C4 3557   5.620   2.072   2.589 -0.0186  0.5791  0.6773
   49CHL1   H4A 3558   5.643   2.180   2.577  0.7037  0.2887 -0.7746
   49CHL1   H4B 3559   5.544   2.071   2.508  0.7929 -0.4168 -0.1095
   49CHL1    C5 3560   5.586   2.041   2.734 -0.2457  0.6245 -0.3339
   49CHL1    C6 3561   5.463   2.003   2.771  0.5052  0.0809 -0.1806
   49CHL1    H6 3562   5.382   1.999   2.697  0.5162  0.5377 -0.2156
   49CHL1    C7 3563   5.426   1.967   2.912 -1.0497  0.0212 -0.8019
   49CHL1   H7A 3564   5.325   1.989   2.952 -0.5623 -0.5776  0.8069
   49CHL1   H7B 3565   5.438   1.856   2.914 -0.4755  0.0822 -0.7078
   49CHL1    C8 3566   5.531   2.021   3.017 -0.5014  0.6007  0.7570
   49CHL1    H8 3567   5.513   2.130   3.016 -1.2778  0.4847  1.1462
   49CHL1   C14 3568   5.506   1.965   3.157 -0.3043 -0.7476 -0.5966
   49CHL1   H14 3569   5.520   1.855   3.145 -0.2444 -0.5786 -2.2573
   49CHL1   C15 3570   5.370   1.965   3.226  0.3095  0.2602  0.6104
   49CHL1  H15A 3571   5.316   2.062   3.222  0.1432  0.1552  0.2127
   49CHL1  H15B 3572   5.298   1.894   3.179 -1.8633  3.5112 -1.4180
   49CHL1   C16 3573   5.398   1.924   3.368  0.3857 -0.7468  0.1213
   49CHL1  H16A 3574   5.338   1.978   3.444 -0.0738 -1.0944  0.0055
   49CHL1  H16B 3575   5.381   1.815   3.374  1.3329 -1.0033 -1.3865
   49CHL1   C17 3576   5.552   1.944   3.393 -0.0147  0.4712  0.2430
   49CHL1   H17 3577   5.597   1.842   3.384  1.0209  0.9389 -0.0507
   49CHL1   C13 3578   5.600   2.013   3.264 -0.3804 -0.7844  0.1489
   49CHL1   C18 3579   5.591   2.173   3.272 -0.2025 -0.6704  0.2126
   49CHL1  H18A 3580   5.488   2.212   3.262  0.2257  0.0493 -1.7989
   49CHL1  H18B 3581   5.639   2.226   3.358 -0.9517 -0.5268  0.5564
   49CHL1  H18C 3582   5.631   2.220   3.180 -1.9546  0.0001 -0.2336
   49CHL1   C12 3583   5.745   1.965   3.229  0.6242  0.3184  0.5931
   49CHL1  H12A 3584   5.823   1.982   3.306 -0.1851  0.4434  1.4039
   49CHL1  H12B 3585   5.733   1.855   3.222  1.3043 -0.1836  4.7742
   49CHL1   C11 3586   5.779   2.012   3.082 -0.6355 -0.4193  0.0390
   49CHL1  H11A 3587   5.812   2.118   3.089  3.4493 -1.6558  4.0236
   49CHL1  H11B 3588   5.869   1.953   3.057 -1.2162 -0.5505 -1.9634
   49CHL1    C9 3589   5.669   1.993   2.972  0.3338  0.0204  0.2842
   49CHL1    H9 3590   5.665   1.883   2.954 -2.3617  0.4959 -3.3660
   49CHL1   C10 3591   5.701   2.048   2.827 -0.6600 -0.1229 -0.9469
   49CHL1   C19 3592   5.759   2.192   2.848  0.0977  0.3549 -0.9814
   49CHL1  H19A 3593   5.698   2.245   2.924 -0.3732 -1.4576 -0.0481
   49CHL1  H19B 3594   5.863   2.184   2.886 -0.6240 -1.1226  0.8174
   49CHL1  H19C 3595   5.757   2.249   2.752  1.5768 -0.6388 -1.6311
   49CHL1    C1 3596   5.818   1.967   2.763  0.2895 -0.7603 -0.1081
   49CHL1   H1A 3597   5.902   1.975   2.836  0.2698 -2.2767  0.1205
   49CHL1   H1B 3598   5.801   1.857   2.759 -1.0774 -0.6185  1.0897
   49CHL1    C2 3599   5.860   2.017   2.621  0.1420  0.0763  0.5183
   49CHL1   H2A 3600   5.950   1.963   2.585  0.5258  0.6795  0.5559
   49CHL1   H2B 3601   5.884   2.125   2.629 -1.0867  0.5235 -1.2698
   49CHL1   C20 3602   5.580   2.016   3.527  0.6075  0.0292 -0.4473
   49CHL1   H20 3603   5.535   2.117   3.528 -1.6459 -0.8093  3.6449
   49CHL1   C21 3604   5.732   2.021   3.555  0.5102  0.3102  0.5573
   49CHL1  H21A 3605   5.752   2.066   3.655 -1.8747  1.0594  0.7666
   49CHL1  H21B 3606   5.777   2.092   3.483  1.3769 -1.6643 -0.9321
   49CHL1  H21C 3607   5.783   1.923   3.546  1.7116  1.0147 -0.7025
   49CHL1   C22 3608   5.513   1.941   3.649 -0.8604 -0.0177  0.6623
   49CHL1  H22A 3609   5.402   1.934   3.643 -0.9559  0.7591  1.3168
   49CHL1  H22B 3610   5.560   1.840   3.645  2.3846  1.4194 -2.3567
   49CHL1   C23 3611   5.542   1.980   3.793  0.5309  0.2688  0.2373
   49CHL1  H23A 3612   5.651   1.960   3.804  1.1674  1.8492 -2.2438
   49CHL1  H23B 3613   5.522   2.090   3.796 -1.0432  0.0033  0.1476
   49CHL1   C24 3614   5.472   1.898   3.902  0.1752 -0.7891  0.3375
   49CHL1  H24A 3615   5.365   1.889   3.871 -0.5724  1.5190  1.9564
   49CHL1  H24B 3616   5.505   1.794   3.921  0.7356 -0.6345  0.2129
   49CHL1   C25 3617   5.473   1.965   4.042 -0.3020  0.3464  0.7149
   49CHL1   H25 3618   5.428   2.066   4.037  1.8267  1.2698 -2.1452
   49CHL1   C26 3619   5.405   1.860   4.132 -1.1787  0.3622  0.5960
   49CHL1  H26A 3620   5.450   1.759   4.117 -1.0227  0.3207  1.3112
   49CHL1  H26B 3621   5.416   1.887   4.239  0.4045  1.5487  0.1716
   49CHL1  H26C 3622   5.304   1.838   4.092 -0.4184 -2.1093 -0.1800
   49CHL1   C27 3623   5.619   1.984   4.086 -0.0237  1.1907  0.1077
   49CHL1  H27A 3624   5.621   2.027   4.188  0.6386  0.5779  0.3624
   49CHL1  H27B 3625   5.663   1.882   4.081 -2.4826 -0.2398  3.6133
   49CHL1  H27C 3626   5.681   2.046   4.017  1.5566 -0.3398  0.0625
   50CHL1    C3 3627   3.198   3.595   2.665  0.7096  0.1694 -1.0843
   50CHL1    H3 3628   3.267   3.678   2.687 -0.1780  0.8895 -0.9717
   50CHL1    O3 3629   3.171   3.575   2.527  0.0565 -0.2333  0.2861
   50CHL1   H3' 3630   3.248   3.553   2.474 -0.5188 -1.1256 -0.1893
   50CHL1    C4 3631   3.248   3.461   2.723 -0.3097 -0.5327  0.2572
   50CHL1   H4A 3632   3.185   3.372   2.704  0.5978 -0.6229 -2.7642
   50CHL1   H4B 3633   3.344   3.429   2.677 -0.9241  0.1128 -1.5765
   50CHL1    C5 3634   3.268   3.475   2.873 -0.8454  0.5435  0.9262
   50CHL1    C6 3635   3.390   3.460   2.932 -0.5745 -0.6121  0.4857
   50CHL1    H6 3636   3.473   3.437   2.864 -0.1680  0.2830  0.6724
   50CHL1    C7 3637   3.414   3.464   3.079 -0.1978  0.1152  0.5451
   50CHL1   H7A 3638   3.477   3.377   3.106  0.4480 -0.4374 -2.3553
   50CHL1   H7B 3639   3.468   3.559   3.102  0.6830  0.2172 -1.6755
   50CHL1    C8 3640   3.273   3.460   3.160 -0.6381 -0.2179  0.8060
   50CHL1    H8 3641   3.248   3.352   3.153  0.4217 -0.3689 -3.3707
   50CHL1   C14 3642   3.299   3.493   3.306 -0.4318 -0.0065 -0.4707
   50CHL1   H14 3643   3.358   3.587   3.299  1.9432 -1.4330 -1.0737
   50CHL1   C15 3644   3.401   3.404   3.387  0.1860 -0.8536 -0.1284
   50CHL1  H15A 3645   3.354   3.304   3.382  1.1112 -1.2573 -1.1727
   50CHL1  H15B 3646   3.504   3.395   3.347  0.4819 -1.8145  0.7965
   50CHL1   C16 3647   3.383   3.468   3.523  0.5063 -0.5902 -0.4733
   50CHL1  H16A 3648   3.398   3.399   3.608  2.0243  1.4187  0.9996
   50CHL1  H16B 3649   3.459   3.549   3.532 -0.9762  0.6062  2.6363
   50CHL1   C17 3650   3.248   3.546   3.531 -0.2002  0.6806 -0.1077
   50CHL1   H17 3651   3.272   3.654   3.523  2.3097  0.3360  1.6699
   50CHL1   C13 3652   3.179   3.503   3.398 -0.6068  0.2148  0.1440
   50CHL1   C18 3653   3.105   3.361   3.414  0.1598 -0.1760 -0.6406
   50CHL1  H18A 3654   3.013   3.364   3.476 -1.0686 -1.0725 -2.3434
   50CHL1  H18B 3655   3.075   3.330   3.312  0.1341  0.5353 -0.8554
   50CHL1  H18C 3656   3.169   3.283   3.461 -1.0641 -0.2608  0.9541
   50CHL1   C12 3657   3.077   3.604   3.337  0.2301 -0.2122  0.2839
   50CHL1  H12A 3658   2.984   3.611   3.397 -1.7622 -0.4317 -2.5924
   50CHL1  H12B 3659   3.118   3.707   3.336 -0.8629  0.2670  1.6612
   50CHL1   C11 3660   3.043   3.566   3.186  0.0888 -0.0492  0.4872
   50CHL1  H11A 3661   2.998   3.464   3.176  1.5057 -0.7092  0.5366
   50CHL1  H11B 3662   2.983   3.650   3.146  0.1758  0.7973  2.0676
   50CHL1    C9 3663   3.171   3.554   3.099 -0.0157  0.4731 -0.6011
   50CHL1    H9 3664   3.229   3.649   3.101  1.3155 -0.2977  1.9635
   50CHL1   C10 3665   3.139   3.517   2.952 -0.3234  0.0940  0.9597
   50CHL1   C19 3666   3.047   3.392   2.954  0.6165 -0.3968 -0.1809
   50CHL1  H19A 3667   2.940   3.402   2.984  0.0372 -1.2878 -1.8163
   50CHL1  H19B 3668   3.030   3.357   2.850  0.9209  0.8567 -0.6775
   50CHL1  H19C 3669   3.092   3.312   3.016  1.7651  0.9403  0.7631
   50CHL1    C1 3670   3.072   3.640   2.881  0.1062  0.2220 -0.5775
   50CHL1   H1A 3671   2.974   3.660   2.930  1.2328  0.9915  1.4952
   50CHL1   H1B 3672   3.136   3.728   2.902 -0.6889  0.5501  0.5558
   50CHL1    C2 3673   3.058   3.624   2.731 -0.0291  0.5292 -0.5985
   50CHL1   H2A 3674   3.013   3.714   2.684 -2.8453  1.9019  4.0963
   50CHL1   H2B 3675   2.995   3.538   2.701  1.1994 -1.1180  1.2683
   50CHL1   C20 3676   3.176   3.519   3.663 -0.2392 -0.2969 -0.2867
   50CHL1   H20 3677   3.142   3.413   3.674 -0.4057 -0.1018  1.1736
   50CHL1   C21 3678   3.052   3.613   3.669  0.2791  0.3361  0.1365
   50CHL1  H21A 3679   3.069   3.722   3.662 -0.9962  0.8557  3.2021
   50CHL1  H21B 3680   3.004   3.609   3.769 -0.9800  2.0809 -0.3523
   50CHL1  H21C 3681   2.974   3.582   3.597 -0.5796  1.6835  0.4593
   50CHL1   C22 3682   3.267   3.563   3.783  0.0971  0.5989 -0.5917
   50CHL1  H22A 3683   3.357   3.497   3.783 -0.0172  0.4341 -0.0652
   50CHL1  H22B 3684   3.308   3.666   3.781  0.3363  0.5734  1.1989
   50CHL1   C23 3685   3.199   3.545   3.922  0.7511  0.1132 -0.8960
   50CHL1  H23A 3686   3.119   3.618   3.946  0.5568 -1.0483  2.4099
   50CHL1  H23B 3687   3.157   3.443   3.934  1.9651 -0.1879  1.4221
   50CHL1   C24 3688   3.306   3.565   4.029 -0.9433  0.0592  0.7295
   50CHL1  H24A 3689   3.381   3.485   4.011 -1.0949  0.1576 -0.4296
   50CHL1  H24B 3690   3.360   3.661   4.031 -0.9427  0.0485  1.7160
   50CHL1   C25 3691   3.246   3.540   4.176  0.0010 -0.0206  0.3270
   50CHL1   H25 3692   3.164   3.465   4.178 -0.3742  0.3979  1.2559
   50CHL1   C26 3693   3.343   3.476   4.269 -0.5591  0.2335 -0.4134
   50CHL1  H26A 3694   3.348   3.368   4.245  2.3671 -0.1144  1.2745
   50CHL1  H26B 3695   3.443   3.524   4.260 -0.6981  0.9356  1.3498
   50CHL1  H26C 3696   3.303   3.479   4.372 -2.5490 -1.4892 -1.0656
   50CHL1   C27 3697   3.183   3.669   4.230 -0.7560 -0.0650  0.7351
   50CHL1  H27A 3698   3.135   3.634   4.324  1.8963 -2.1940  1.4309
   50CHL1  H27B 3699   3.260   3.748   4.240 -0.6530 -0.0574 -0.0551
   50CHL1  H27C 3700   3.110   3.710   4.156  0.7288  0.5624 -0.4212
   51CHL1    C3 3701   3.446   0.591   2.964  0.1064  0.1191  0.4454
   51CHL1    H3 3702   3.411   0.696   2.962  3.7080  1.4744 -1.3117
   51CHL1    O3 3703   3.481   0.565   2.829  0.2825 -0.1196 -0.7695
   51CHL1   H3' 3704   3.419   0.502   2.791 -0.3313 -0.2586  0.4093
   51CHL1    C4 3705   3.575   0.587   3.046 -0.2536 -0.3414  0.2742
   51CHL1   H4A 3706   3.626   0.489   3.032 -1.5363 -1.2916  1.9457
   51CHL1   H4B 3707   3.645   0.664   3.007 -1.0501  0.4088  0.2881
   51CHL1    C5 3708   3.545   0.600   3.187  0.7583  0.3613 -0.2263
   51CHL1    C6 3709   3.597   0.700   3.261 -1.0695 -0.0722 -0.0118
   51CHL1    H6 3710   3.661   0.775   3.213 -2.3719  0.0937 -1.5643
   51CHL1    C7 3711   3.566   0.713   3.410  0.5087  0.2409  0.2219
   51CHL1   H7A 3712   3.650   0.743   3.476  0.3663 -1.0038  0.9931
   51CHL1   H7B 3713   3.486   0.790   3.412 -2.3622 -2.3784 -2.3954
   51CHL1    C8 3714   3.500   0.584   3.474  0.8678  0.2117  0.1362
   51CHL1    H8 3715   3.584   0.511   3.483 -0.9737 -2.2714 -1.5699
   51CHL1   C14 3716   3.444   0.607   3.611 -0.3793 -0.9372 -0.5752
   51CHL1   H14 3717   3.358   0.673   3.589 -0.2240 -0.4467  0.2155
   51CHL1   C15 3718   3.540   0.678   3.710  0.1513  0.8738  0.3517
   51CHL1  H15A 3719   3.648   0.653   3.707 -0.4438 -1.9362 -0.4948
   51CHL1  H15B 3720   3.533   0.788   3.698  0.6300  0.9612  0.8010
   51CHL1   C16 3721   3.487   0.635   3.851  0.3195  0.1908 -0.5274
   51CHL1  H16A 3722   3.566   0.578   3.904  2.0528 -0.1227 -3.2447
   51CHL1  H16B 3723   3.462   0.721   3.917  0.2545  0.6231 -1.1057
   51CHL1   C17 3724   3.361   0.548   3.822  0.2277  0.8175  0.5169
   51CHL1   H17 3725   3.275   0.617   3.809 -1.4691 -1.1205  0.9892
   51CHL1   C13 3726   3.389   0.483   3.680  1.1059 -0.4222  0.0015
   51CHL1   C18 3727   3.500   0.375   3.692 -1.2658 -0.1420 -0.6813
   51CHL1  H18A 3728   3.605   0.404   3.712 -1.0901 -0.7531 -0.6904
   51CHL1  H18B 3729   3.472   0.289   3.757 -1.5153  0.3641 -0.1150
   51CHL1  H18C 3730   3.521   0.346   3.586 -1.0168  2.5705 -1.4416
   51CHL1   C12 3731   3.261   0.444   3.595  0.0624  0.3458 -0.0509
   51CHL1  H12A 3732   3.205   0.356   3.634 -0.5973  0.4911 -0.6438
   51CHL1  H12B 3733   3.192   0.530   3.608 -1.7055 -1.0802  0.4093
   51CHL1   C11 3734   3.298   0.416   3.446 -0.1567 -0.2232  0.6779
   51CHL1  H11A 3735   3.353   0.320   3.447  0.5239  0.0991 -1.2573
   51CHL1  H11B 3736   3.214   0.394   3.376  1.5463 -0.9534 -1.2193
   51CHL1    C9 3737   3.381   0.530   3.387  0.2437 -0.2544  0.6933
   51CHL1    H9 3738   3.314   0.614   3.359  0.1633 -1.2009 -2.2991
   51CHL1   C10 3739   3.435   0.498   3.236 -0.4477  0.2826  0.3815
   51CHL1   C19 3740   3.509   0.363   3.240 -0.0453  0.4906  0.0569
   51CHL1  H19A 3741   3.591   0.363   3.314 -0.6425  0.7321  0.7282
   51CHL1  H19B 3742   3.444   0.279   3.273 -1.6923  1.2683 -1.0500
   51CHL1  H19C 3743   3.540   0.320   3.142 -1.0301  2.3834 -1.1519
   51CHL1    C1 3744   3.311   0.488   3.146 -0.0786  0.3410  0.1086
   51CHL1   H1A 3745   3.261   0.393   3.175  0.1741  0.4555  0.9327
   51CHL1   H1B 3746   3.254   0.580   3.169  1.4625  2.2686 -3.1186
   51CHL1    C2 3747   3.346   0.487   3.005 -0.2987 -1.0082 -0.2387
   51CHL1   H2A 3748   3.255   0.513   2.948 -0.0156 -1.3615 -0.8634
   51CHL1   H2B 3749   3.377   0.384   2.974 -0.4080 -0.9973 -0.3862
   51CHL1   C20 3750   3.326   0.444   3.941 -0.4241 -0.1358 -0.2619
   51CHL1   H20 3751   3.405   0.366   3.938 -2.4805 -2.3711  0.0888
   51CHL1   C21 3752   3.197   0.370   3.912 -0.4109 -0.2620  0.3484
   51CHL1  H21A 3753   3.221   0.290   3.839 -1.5982 -0.7062  0.4243
   51CHL1  H21B 3754   3.112   0.433   3.877 -1.1075 -0.4641  1.5888
   51CHL1  H21C 3755   3.173   0.326   4.012  1.8292  0.4632  1.2687
   51CHL1   C22 3756   3.327   0.496   4.091  0.0198  0.4061 -0.5168
   51CHL1  H22A 3757   3.312   0.410   4.159 -0.1921 -0.2056 -1.3111
   51CHL1  H22B 3758   3.428   0.533   4.119  0.0699 -0.3768  0.3671
   51CHL1   C23 3759   3.232   0.616   4.124 -0.3196  0.1596 -0.3774
   51CHL1  H23A 3760   3.231   0.692   4.042  0.7779 -0.5550 -1.0938
   51CHL1  H23B 3761   3.135   0.564   4.128 -0.1004 -0.5648 -2.7428
   51CHL1   C24 3762   3.261   0.681   4.252 -0.1530 -0.5447  0.0214
   51CHL1  H24A 3763   3.250   0.598   4.325 -1.5190 -0.3389  0.0748
   51CHL1  H24B 3764   3.369   0.705   4.261 -0.2811  0.4457 -0.9169
   51CHL1   C25 3765   3.169   0.802   4.287  0.0094 -0.5514  0.7548
   51CHL1   H25 3766   3.066   0.766   4.270  0.2249 -0.4481 -0.8896
   51CHL1   C26 3767   3.200   0.829   4.438 -0.3533  0.0877 -0.1030
   51CHL1  H26A 3768   3.310   0.831   4.454 -0.2528 -1.3834 -0.4577
   51CHL1  H26B 3769   3.152   0.925   4.465 -1.8348 -0.0235 -2.1758
   51CHL1  H26C 3770   3.149   0.759   4.508 -1.0895  0.1698 -0.5532
   51CHL1   C27 3771   3.199   0.939   4.207 -0.0666 -0.0787  0.1365
   51CHL1  H27A 3772   3.184   0.935   4.097 -3.1664  1.7834  0.3692
   51CHL1  H27B 3773   3.115   1.005   4.238 -0.6433  0.6913 -2.7401
   51CHL1  H27C 3774   3.298   0.986   4.226 -0.4235  0.0107  1.9278
   52CHL1    C3 3775   5.997   4.864   2.608  0.1210  0.4231 -0.1882
   52CHL1    H3 3776   5.943   4.959   2.593 -0.1445  0.4873  1.1372
   52CHL1    O3 3777   6.030   4.808   2.480  0.0390 -0.0791 -0.2721
   52CHL1   H3' 3778   6.090   4.735   2.498  0.4304 -0.5168 -2.9263
   52CHL1    C4 3779   6.128   4.870   2.680  0.0444  0.2847  0.6605
   52CHL1   H4A 3780   6.169   4.766   2.680  0.1435  0.3113 -0.5479
   52CHL1   H4B 3781   6.201   4.923   2.616  0.4098 -2.2240 -1.1620
   52CHL1    C5 3782   6.104   4.919   2.819 -0.2694  0.8420  1.1922
   52CHL1    C6 3783   6.167   5.031   2.863  0.7215 -0.5725 -0.1659
   52CHL1    H6 3784   6.237   5.082   2.795 -0.7395  0.6824 -0.8057
   52CHL1    C7 3785   6.154   5.075   2.998  0.3618 -0.0311 -0.2192
   52CHL1   H7A 3786   6.253   5.103   3.040 -1.2150  0.1814  3.7580
   52CHL1   H7B 3787   6.086   5.163   3.003 -1.1873 -1.1851 -0.1967
   52CHL1    C8 3788   6.096   4.971   3.099 -0.0842  0.3195 -0.4252
   52CHL1    H8 3789   6.165   4.888   3.126  0.1441  0.6158 -0.0947
   52CHL1   C14 3790   6.047   5.048   3.228 -0.7134  0.3227 -0.2014
   52CHL1   H14 3791   5.973   5.119   3.186  1.4969  1.7696 -1.8514
   52CHL1   C15 3792   6.147   5.136   3.308  0.0899  0.4508  0.4275
   52CHL1  H15A 3793   6.235   5.067   3.306  0.9381  1.5237 -0.7182
   52CHL1  H15B 3794   6.148   5.240   3.270 -0.8182  0.4637  0.4114
   52CHL1   C16 3795   6.088   5.138   3.453  0.2294 -0.1777  0.2543
   52CHL1  H16A 3796   6.167   5.100   3.521 -0.3079 -0.8083  0.5355
   52CHL1  H16B 3797   6.056   5.240   3.482 -0.5562 -0.8362  1.8010
   52CHL1   C17 3798   5.961   5.050   3.454 -0.9636  0.3957  0.0531
   52CHL1   H17 3799   5.880   5.120   3.422 -0.7280  1.2585  1.2690
   52CHL1   C13 3800   5.980   4.957   3.332  0.5497  0.3308  0.8051
   52CHL1   C18 3801   6.064   4.835   3.388  0.2845  0.2084  0.2346
   52CHL1  H18A 3802   6.113   4.778   3.306 -2.2108 -1.3197 -0.3005
   52CHL1  H18B 3803   6.149   4.864   3.454  0.7629 -1.1696  0.2527
   52CHL1  H18C 3804   5.996   4.765   3.442 -1.1610 -0.0506 -1.8017
   52CHL1   C12 3805   5.850   4.917   3.266 -0.0299  0.8085  0.2629
   52CHL1  H12A 3806   5.794   4.847   3.332  0.9480 -2.6758 -2.3360
   52CHL1  H12B 3807   5.788   5.009   3.253  0.0229  1.0295  1.4340
   52CHL1   C11 3808   5.883   4.840   3.138  0.6486 -0.2048  0.2398
   52CHL1  H11A 3809   5.937   4.750   3.176  1.1399 -0.5946 -1.3092
   52CHL1  H11B 3810   5.791   4.810   3.085  0.7509  1.9500 -1.2987
   52CHL1    C9 3811   5.976   4.910   3.031  0.1536 -0.4924  0.7280
   52CHL1    H9 3812   5.917   4.997   2.995  2.6731  0.0901 -2.4275
   52CHL1   C10 3813   6.004   4.828   2.905 -0.3480  0.0223  1.1627
   52CHL1   C19 3814   6.048   4.686   2.944 -0.4110 -0.2251 -0.0360
   52CHL1  H19A 3815   6.114   4.686   3.033  1.4038 -0.2999 -1.3082
   52CHL1  H19B 3816   5.962   4.626   2.980 -0.4812  1.1043  2.1556
   52CHL1  H19C 3817   6.097   4.622   2.867 -0.2439 -1.6583  1.2158
   52CHL1    C1 3818   5.873   4.810   2.817  0.0565  0.2138 -0.3027
   52CHL1   H1A 3819   5.806   4.742   2.875 -0.3659  0.5124 -0.4346
   52CHL1   H1B 3820   5.816   4.905   2.818 -0.5581 -0.1365 -1.1450
   52CHL1    C2 3821   5.899   4.765   2.679  0.2520  0.5901 -0.3419
   52CHL1   H2A 3822   5.805   4.765   2.619  1.2889 -0.2757 -2.0360
   52CHL1   H2B 3823   5.940   4.662   2.667 -0.7128  0.1390  0.0688
   52CHL1   C20 3824   5.932   4.998   3.598  0.4341 -0.0331 -0.3001
   52CHL1   H20 3825   5.995   4.912   3.630  0.3127 -0.3871 -0.9755
   52CHL1   C21 3826   5.788   4.940   3.598 -0.0999  0.2287 -0.1701
   52CHL1  H21A 3827   5.728   5.024   3.557 -1.0078 -0.0231  0.6165
   52CHL1  H21B 3828   5.753   4.907   3.698 -2.9484 -1.5288 -1.6006
   52CHL1  H21C 3829   5.776   4.842   3.548 -0.4757 -1.3027  2.7083
   52CHL1   C22 3830   5.938   5.115   3.703 -0.4562  0.4136 -0.0224
   52CHL1  H22A 3831   6.037   5.165   3.690  0.8265 -1.1782  2.6810
   52CHL1  H22B 3832   5.846   5.174   3.683 -1.9077 -1.9643 -0.7980
   52CHL1   C23 3833   5.927   5.074   3.853 -0.1649 -0.0959 -0.0581
   52CHL1  H23A 3834   5.822   5.042   3.868 -0.2762  0.5644  0.6009
   52CHL1  H23B 3835   5.998   4.993   3.880  0.1277  0.3201  0.4311
   52CHL1   C24 3836   5.946   5.193   3.949 -0.4862 -0.3009  0.0127
   52CHL1  H24A 3837   6.041   5.243   3.922 -1.1812  0.3666 -1.3141
   52CHL1  H24B 3838   5.862   5.264   3.931  0.6171  0.1394 -4.4355
   52CHL1   C25 3839   5.950   5.144   4.089  0.6097  0.0604 -0.3639
   52CHL1   H25 3840   5.874   5.065   4.104  2.0582 -1.2521  0.4162
   52CHL1   C26 3841   6.082   5.087   4.142 -0.2587  0.1682 -0.4387
   52CHL1  H26A 3842   6.158   5.168   4.139 -2.2902  2.1621 -1.6877
   52CHL1  H26B 3843   6.069   5.073   4.251 -0.6478  0.0361 -0.5000
   52CHL1  H26C 3844   6.114   4.993   4.091  2.2204 -0.1321  1.4802
   52CHL1   C27 3845   5.910   5.270   4.174  0.4704  0.9986 -0.3011
   52CHL1  H27A 3846   5.897   5.248   4.282 -1.0179 -2.3025 -1.0048
   52CHL1  H27B 3847   5.990   5.346   4.163  1.1253  0.7750  2.3008
   52CHL1  H27C 3848   5.810   5.307   4.143 -0.1557 -0.7267 -0.4604
   53CHL1    C3 3849   4.829   1.975   3.146 -0.0291  0.3122  0.4300
   53CHL1    H3 3850   4.803   2.062   3.211 -0.7283  0.2370  0.2670
   53CHL1    O3 3851   4.816   2.009   3.009  0.1697 -0.3585  0.3982
   53CHL1   H3' 3852   4.847   1.933   2.959  2.1423  0.9757 -0.5153
   53CHL1    C4 3853   4.968   1.922   3.184  0.1843  0.0411  0.0877
   53CHL1   H4A 3854   5.008   1.831   3.134 -1.8410 -0.9252  0.1197
   53CHL1   H4B 3855   5.028   2.009   3.150 -0.0736 -0.5077 -1.8847
   53CHL1    C5 3856   4.973   1.901   3.340 -0.6540 -0.0209 -0.0929
   53CHL1    C6 3857   5.059   1.966   3.422 -0.3193  0.7089  0.6658
   53CHL1    H6 3858   5.131   2.036   3.377  0.1788  1.6874  2.8780
   53CHL1    C7 3859   5.078   1.931   3.568  0.1379  0.0032 -0.1703
   53CHL1   H7A 3860   5.185   1.919   3.595  0.8809  3.1472 -1.3494
   53CHL1   H7B 3861   5.038   2.016   3.629 -0.6728  0.6881 -1.6055
   53CHL1    C8 3862   4.996   1.811   3.621  0.0083 -1.1114  0.3277
   53CHL1    H8 3863   5.042   1.712   3.600 -0.5903 -1.6153  1.3266
   53CHL1   C14 3864   4.967   1.823   3.774  0.4049 -0.0266  0.5891
   53CHL1   H14 3865   4.909   1.915   3.797  0.3100  0.1858 -0.4831
   53CHL1   C15 3866   5.091   1.837   3.872 -0.3105  0.6104  0.1798
   53CHL1  H15A 3867   5.171   1.769   3.837 -2.1307 -0.9864 -1.1566
   53CHL1  H15B 3868   5.135   1.939   3.872  2.0339 -0.3544  0.2013
   53CHL1   C16 3869   5.043   1.797   4.007  0.7028 -0.0773  0.2177
   53CHL1  H16A 3870   5.106   1.710   4.035 -0.0390 -0.4230  0.8722
   53CHL1  H16B 3871   5.053   1.879   4.081 -0.1342  1.3248 -1.1548
   53CHL1   C17 3872   4.887   1.760   3.989  0.0478 -0.2427 -0.0223
   53CHL1   H17 3873   4.834   1.856   4.007 -0.0927 -0.6778  2.1851
   53CHL1   C13 3874   4.883   1.714   3.841  0.0249  0.1621 -0.5605
   53CHL1   C18 3875   4.945   1.569   3.821 -0.4384  0.9594  0.2406
   53CHL1  H18A 3876   5.053   1.586   3.840  0.2324 -0.1037 -2.2241
   53CHL1  H18B 3877   4.900   1.500   3.895 -1.8604 -0.1244 -1.5613
   53CHL1  H18C 3878   4.944   1.526   3.719  0.0900  1.0446  0.1949
   53CHL1   C12 3879   4.742   1.719   3.773  0.0319 -0.8473 -0.3914
   53CHL1  H12A 3880   4.676   1.636   3.806  0.3084 -0.7613  0.3941
   53CHL1  H12B 3881   4.706   1.822   3.793  0.5125 -0.4689 -1.3976
   53CHL1   C11 3882   4.753   1.707   3.620  0.3241  0.0165 -0.1760
   53CHL1  H11A 3883   4.787   1.605   3.591  1.8783 -0.3923  2.6755
   53CHL1  H11B 3884   4.654   1.712   3.570  1.2073 -0.7069 -2.1013
   53CHL1    C9 3885   4.855   1.807   3.554  0.8437 -0.0353  0.5499
   53CHL1    H9 3886   4.813   1.907   3.577  0.1361  0.4212 -2.2610
   53CHL1   C10 3887   4.867   1.807   3.399 -0.2355  0.2023  0.5610
   53CHL1   C19 3888   4.907   1.665   3.352 -0.0067  0.4227  0.2172
   53CHL1  H19A 3889   5.013   1.645   3.378  0.4099  2.3949  0.2331
   53CHL1  H19B 3890   4.844   1.599   3.416 -2.6685  1.6895 -0.9324
   53CHL1  H19C 3891   4.893   1.636   3.246  2.6012  2.2496 -0.7426
   53CHL1    C1 3892   4.731   1.853   3.344  1.1278 -1.0061 -0.3809
   53CHL1   H1A 3893   4.656   1.775   3.371  0.4672  0.4004  2.2001
   53CHL1   H1B 3894   4.691   1.946   3.391 -0.6137  0.0953 -3.7275
   53CHL1    C2 3895   4.721   1.869   3.186 -0.0104  0.3155 -1.0354
   53CHL1   H2A 3896   4.618   1.900   3.158 -0.5084  0.3387  0.7274
   53CHL1   H2B 3897   4.740   1.768   3.143  2.2110  0.5605 -0.7005
   53CHL1   C20 3898   4.835   1.668   4.097 -0.5123  0.5627  0.1042
   53CHL1   H20 3899   4.846   1.563   4.062 -1.0203  0.5734 -0.0940
   53CHL1   C21 3900   4.682   1.691   4.108 -0.2215 -0.7179  0.4628
   53CHL1  H21A 3901   4.636   1.648   4.200 -1.2797 -1.6557 -0.4751
   53CHL1  H21B 3902   4.625   1.663   4.017  1.4268 -0.2374 -0.7763
   53CHL1  H21C 3903   4.656   1.798   4.116 -1.1434 -0.9576  0.8423
   53CHL1   C22 3904   4.903   1.683   4.237 -0.0728 -0.5229 -0.5198
   53CHL1  H22A 3905   5.011   1.665   4.219  0.2604  0.4752  0.3631
   53CHL1  H22B 3906   4.891   1.790   4.264  4.1228  0.3887 -1.6654
   53CHL1   C23 3907   4.855   1.597   4.347  0.2156 -0.2678 -0.2872
   53CHL1  H23A 3908   4.747   1.620   4.353  0.8203  3.1003 -0.2484
   53CHL1  H23B 3909   4.868   1.488   4.332  2.1062  0.1512 -2.3390
   53CHL1   C24 3910   4.925   1.641   4.475  0.4411 -0.4578  0.5550
   53CHL1  H24A 3911   5.018   1.579   4.476  0.1807 -0.8731 -0.0286
   53CHL1  H24B 3912   4.952   1.749   4.477 -0.4650 -0.2307  1.9613
   53CHL1   C25 3913   4.865   1.600   4.610  0.4293 -0.4201 -0.0141
   53CHL1   H25 3914   4.762   1.642   4.621  0.4921 -0.1702 -0.3653
   53CHL1   C26 3915   4.850   1.459   4.629  0.0972 -0.5828 -0.6286
   53CHL1  H26A 3916   4.793   1.415   4.544  0.5199 -2.0254 -0.2082
   53CHL1  H26B 3917   4.950   1.409   4.628  0.5545  0.3246 -1.8308
   53CHL1  H26C 3918   4.795   1.437   4.723 -1.9164  0.1567 -1.5887
   53CHL1   C27 3919   4.949   1.673   4.717 -0.1025  0.7608  0.4901
   53CHL1  H27A 3920   5.055   1.659   4.687  0.2769  2.2153  1.0544
   53CHL1  H27B 3921   4.929   1.782   4.728 -1.3770  0.5928  0.0406
   53CHL1  H27C 3922   4.936   1.615   4.811  0.7845 -1.0211 -0.4352
   54CHL1    C3 3923   4.783   1.073   2.722 -0.3303 -0.4182  0.0455
   54CHL1    H3 3924   4.677   1.078   2.754 -0.7122 -0.2078 -1.1706
   54CHL1    O3 3925   4.793   1.071   2.583 -0.6027  0.1802  0.0686
   54CHL1   H3' 3926   4.784   1.164   2.559  0.5012  0.2127 -0.2940
   54CHL1    C4 3927   4.864   1.189   2.778  0.6457 -0.3121 -0.3867
   54CHL1   H4A 3928   4.966   1.182   2.735  0.3111  0.8394 -1.4506
   54CHL1   H4B 3929   4.819   1.282   2.736 -3.9548 -2.0125  0.2477
   54CHL1    C5 3930   4.867   1.201   2.929  0.4062  0.4514 -0.4355
   54CHL1    C6 3931   4.825   1.305   2.996  0.9476  0.1538  0.0882
   54CHL1    H6 3932   4.783   1.379   2.926 -0.3869 -2.0156 -1.5296
   54CHL1    C7 3933   4.823   1.319   3.143  0.1384  0.5760  0.5365
   54CHL1   H7A 3934   4.857   1.421   3.171 -1.4351  1.6034 -1.0792
   54CHL1   H7B 3935   4.718   1.308   3.177  0.1857 -1.6715  0.0873
   54CHL1    C8 3936   4.903   1.206   3.207  0.5947  0.2141  0.6272
   54CHL1    H8 3937   5.012   1.230   3.203  0.0432  2.9709 -0.2956
   54CHL1   C14 3938   4.863   1.184   3.353 -0.2032  0.0836  0.2079
   54CHL1   H14 3939   4.760   1.144   3.351 -0.1351 -0.0691 -1.1107
   54CHL1   C15 3940   4.851   1.315   3.444 -0.2621  0.3618 -0.3614
   54CHL1  H15A 3941   4.939   1.380   3.427  1.8398 -2.5554 -1.4783
   54CHL1  H15B 3942   4.757   1.373   3.433 -0.7996 -0.5641 -0.7783
   54CHL1   C16 3943   4.852   1.267   3.588 -0.3010  0.6342  0.3380
   54CHL1  H16A 3944   4.943   1.303   3.642 -0.9707  1.0909  1.1912
   54CHL1  H16B 3945   4.751   1.284   3.631 -2.2313  0.8219 -3.8124
   54CHL1   C17 3946   4.873   1.114   3.579 -0.3932  0.1293  0.2043
   54CHL1   H17 3947   4.774   1.063   3.582 -0.0757 -0.4729  2.4078
   54CHL1   C13 3948   4.943   1.090   3.444  0.3520 -0.2635 -0.7606
   54CHL1   C18 3949   5.097   1.136   3.453  0.6006  0.1154  0.7031
   54CHL1  H18A 3950   5.154   1.060   3.510 -0.3509 -0.9032  0.3315
   54CHL1  H18B 3951   5.135   1.114   3.351 -2.1360 -3.3328  0.2122
   54CHL1  H18C 3952   5.114   1.241   3.487  0.5370  0.5399 -0.5223
   54CHL1   C12 3953   4.935   0.951   3.380 -0.3125 -0.1125  0.2822
   54CHL1  H12A 3954   5.003   0.873   3.423 -1.6219 -1.9924 -0.8949
   54CHL1  H12B 3955   4.830   0.919   3.394  0.1808 -1.7133  0.5724
   54CHL1   C11 3956   4.959   0.946   3.222 -0.1202  0.3443 -0.2667
   54CHL1  H11A 3957   5.070   0.950   3.210  0.0629  2.6726  1.5318
   54CHL1  H11B 3958   4.929   0.846   3.184  3.1029 -0.9799  0.3026
   54CHL1    C9 3959   4.888   1.064   3.145  0.0839  0.2849 -0.4331
   54CHL1    H9 3960   4.779   1.048   3.149  0.3495 -1.8728 -0.7538
   54CHL1   C10 3961   4.925   1.067   2.996 -0.2249  0.7794  0.3001
   54CHL1   C19 3962   5.074   1.078   2.973  0.4162 -0.1610 -0.2117
   54CHL1  H19A 3963   5.098   1.064   2.865 -1.4435  2.5340 -1.0968
   54CHL1  H19B 3964   5.116   1.178   3.000 -0.1208 -0.5190  2.1206
   54CHL1  H19C 3965   5.127   1.008   3.041  1.7399  1.9932  1.1113
   54CHL1    C1 3966   4.866   0.938   2.925  0.2382 -0.3994  0.2627
   54CHL1   H1A 3967   4.912   0.849   2.973 -1.4407 -0.2842  2.1775
   54CHL1   H1B 3968   4.768   0.935   2.976  0.9672  2.0323  1.9764
   54CHL1    C2 3969   4.845   0.937   2.775  0.4715 -0.0328 -0.2677
   54CHL1   H2A 3970   4.770   0.861   2.745  0.4610  0.3506 -1.2374
   54CHL1   H2B 3971   4.950   0.922   2.742  0.2186 -0.8063 -0.7498
   54CHL1   C20 3972   4.938   1.054   3.706  0.2963 -0.7563 -0.3964
   54CHL1   H20 3973   5.044   1.086   3.714 -0.3517  1.7523 -0.9732
   54CHL1   C21 3974   4.918   0.898   3.705 -0.2384  0.3303 -0.4371
   54CHL1  H21A 3975   4.952   0.854   3.801 -1.4666 -0.3332 -0.2814
   54CHL1  H21B 3976   4.965   0.840   3.622  1.8111  1.2738  0.0166
   54CHL1  H21C 3977   4.808   0.879   3.699 -0.0720 -0.8058 -0.2206
   54CHL1   C22 3978   4.862   1.117   3.833  0.3693 -0.0622 -0.9030
   54CHL1  H22A 3979   4.864   1.228   3.823  0.7963 -0.0712 -0.9299
   54CHL1  H22B 3980   4.753   1.096   3.836  0.3035  0.3743  1.0002
   54CHL1   C23 3981   4.908   1.077   3.972  0.6505  0.3119 -0.1494
   54CHL1  H23A 3982   4.888   0.968   3.979  1.7228 -0.2011 -3.4111
   54CHL1  H23B 3983   5.011   1.111   3.998  0.6133  2.3171 -2.2586
   54CHL1   C24 3984   4.811   1.149   4.065  0.3703 -0.5482  0.5200
   54CHL1  H24A 3985   4.805   1.259   4.059 -2.5235 -0.6945 -1.5737
   54CHL1  H24B 3986   4.706   1.132   4.033 -0.3133  0.5077  2.0646
   54CHL1   C25 3987   4.824   1.113   4.212  0.1871 -0.2978  0.0965
   54CHL1   H25 3988   4.850   1.005   4.219  0.1908 -0.4833 -2.1329
   54CHL1   C26 3989   4.949   1.196   4.260  0.5908  0.4281  1.1599
   54CHL1  H26A 3990   4.926   1.304   4.249 -1.6648 -0.0819  0.3184
   54CHL1  H26B 3991   4.964   1.173   4.368  1.3983 -0.6025  0.8540
   54CHL1  H26C 3992   5.043   1.169   4.207 -0.9002 -2.4072 -0.2733
   54CHL1   C27 3993   4.691   1.136   4.288  0.4961 -0.0425  0.4300
   54CHL1  H27A 3994   4.600   1.092   4.241  0.4154 -0.4821  0.9851
   54CHL1  H27B 3995   4.701   1.106   4.394  0.3643 -0.3415  0.3598
   54CHL1  H27C 3996   4.672   1.244   4.307  1.3035 -0.2035  2.4262
   55CHL1    C3 3997   0.350   2.699   2.584 -0.3931  0.0407  0.5550
   55CHL1    H3 3998   0.313   2.594   2.591 -1.7705  0.3042 -1.7287
   55CHL1    O3 3999   0.317   2.754   2.458 -0.7308 -0.6054 -0.5107
   55CHL1   H3' 4000   0.226   2.732   2.436 -1.6779 -0.2170  2.6369
   55CHL1    C4 4001   0.284   2.791   2.687 -0.8282  0.2379  0.3469
   55CHL1   H4A 4002   0.322   2.896   2.685  0.6502 -0.2834 -0.2906
   55CHL1   H4B 4003   0.176   2.802   2.663 -0.6430  0.1350 -0.5377
   55CHL1    C5 4004   0.313   2.729   2.825 -0.0915  0.1101  0.5405
   55CHL1    C6 4005   0.220   2.700   2.909  0.0520 -0.3415 -0.2628
   55CHL1    H6 4006   0.115   2.717   2.881 -0.1263  1.4194  1.2664
   55CHL1    C7 4007   0.246   2.660   3.051 -0.3140  0.5479 -0.2310
   55CHL1   H7A 4008   0.176   2.721   3.112 -0.8390 -0.1264 -0.1457
   55CHL1   H7B 4009   0.231   2.550   3.063 -3.3016  0.8576 -0.3786
   55CHL1    C8 4010   0.394   2.681   3.106  0.9046  0.9996  0.0235
   55CHL1    H8 4011   0.406   2.790   3.127  0.8321  1.1271 -0.5618
   55CHL1   C14 4012   0.422   2.592   3.227 -0.3509 -0.0571 -0.1903
   55CHL1   H14 4013   0.408   2.494   3.178 -0.9634  0.1667 -0.4609
   55CHL1   C15 4014   0.336   2.572   3.359  0.4025 -0.0149  0.4976
   55CHL1  H15A 4015   0.314   2.677   3.388  1.7037  0.3973  0.0893
   55CHL1  H15B 4016   0.237   2.522   3.350  0.7971 -0.7888  0.3624
   55CHL1   C16 4017   0.441   2.518   3.461  0.6544 -0.0723  0.2012
   55CHL1  H16A 4018   0.445   2.591   3.545 -0.6319  0.4588 -0.1723
   55CHL1  H16B 4019   0.421   2.423   3.515  0.8752  0.1600  0.7034
   55CHL1   C17 4020   0.575   2.503   3.386 -0.1455  0.1869 -0.3804
   55CHL1   H17 4021   0.568   2.405   3.334 -2.9032  0.9878 -1.7136
   55CHL1   C13 4022   0.568   2.599   3.272  0.2488  0.6179 -0.4921
   55CHL1   C18 4023   0.622   2.747   3.305  0.9256  0.2767 -0.5031
   55CHL1  H18A 4024   0.593   2.814   3.221  1.4888  0.3216 -0.6605
   55CHL1  H18B 4025   0.568   2.791   3.392  1.0816  1.3281 -0.9234
   55CHL1  H18C 4026   0.732   2.760   3.314  0.9816  0.1930 -1.0436
   55CHL1   C12 4027   0.661   2.555   3.158 -0.1556  0.7569 -0.7242
   55CHL1  H12A 4028   0.768   2.547   3.186 -0.3099 -3.9905 -0.6328
   55CHL1  H12B 4029   0.635   2.452   3.125  0.7283  0.0899  0.5866
   55CHL1   C11 4030   0.644   2.632   3.034  0.6650 -0.1638  0.0519
   55CHL1  H11A 4031   0.696   2.729   3.052  0.1196 -0.0503  1.1516
   55CHL1  H11B 4032   0.708   2.572   2.967 -0.3185 -0.7165 -0.3980
   55CHL1    C9 4033   0.495   2.635   2.992 -0.2132 -0.5470  0.6015
   55CHL1    H9 4034   0.476   2.526   2.980  2.5837 -1.4023  2.7374
   55CHL1   C10 4035   0.465   2.706   2.854 -0.0815 -0.2418 -0.0024
   55CHL1   C19 4036   0.523   2.851   2.872  0.3414 -0.0921  0.0063
   55CHL1  H19A 4037   0.631   2.845   2.898  0.8275 -2.5737 -2.1102
   55CHL1  H19B 4038   0.515   2.904   2.775 -0.8238 -0.0725  0.1021
   55CHL1  H19C 4039   0.462   2.894   2.954  1.7463 -0.7591  1.4647
   55CHL1    C1 4040   0.535   2.634   2.739 -0.1009 -0.7719  0.4458
   55CHL1   H1A 4041   0.646   2.636   2.741 -0.0803  2.3157  1.0988
   55CHL1   H1B 4042   0.499   2.528   2.739  1.4311 -1.3254 -0.1165
   55CHL1    C2 4043   0.501   2.701   2.602 -0.0534 -0.4435  0.3834
   55CHL1   H2A 4044   0.546   2.640   2.521 -1.4709  0.3983 -1.1120
   55CHL1   H2B 4045   0.544   2.803   2.602 -2.0475  0.4603  1.2466
   55CHL1   C20 4046   0.702   2.497   3.470  0.2397  0.2904 -0.2686
   55CHL1   H20 4047   0.785   2.526   3.402 -0.0120 -0.5122 -0.9331
   55CHL1   C21 4048   0.735   2.356   3.520  0.0969  0.1089 -0.4730
   55CHL1  H21A 4049   0.704   2.274   3.452  0.1952 -0.5823  0.2970
   55CHL1  H21B 4050   0.696   2.332   3.621  1.5129  1.5390  0.4612
   55CHL1  H21C 4051   0.845   2.341   3.524  0.3268  1.7720  0.4369
   55CHL1   C22 4052   0.719   2.595   3.588 -0.4513 -0.5543  0.4777
   55CHL1  H22A 4053   0.664   2.690   3.570  1.1004 -0.1120 -2.5188
   55CHL1  H22B 4054   0.679   2.549   3.681 -1.0767 -2.1319 -0.5247
   55CHL1   C23 4055   0.869   2.622   3.613 -0.4027 -0.3449  0.2064
   55CHL1  H23A 4056   0.917   2.523   3.633  0.0659 -0.5643 -1.7356
   55CHL1  H23B 4057   0.912   2.669   3.522  1.6909 -2.9510 -0.2788
   55CHL1   C24 4058   0.891   2.712   3.733 -0.0181  0.7361  0.6458
   55CHL1  H24A 4059   0.817   2.793   3.716 -0.1621  0.3664 -0.5572
   55CHL1  H24B 4060   0.865   2.661   3.829 -4.0697 -1.9543 -1.5838
   55CHL1   C25 4061   1.032   2.768   3.743 -0.5542 -0.8243  0.3462
   55CHL1   H25 4062   1.115   2.699   3.721  1.9134  2.0455 -0.0037
   55CHL1   C26 4063   1.067   2.877   3.642 -0.0647 -0.0633 -0.2633
   55CHL1  H26A 4064   1.000   2.965   3.651 -0.9898 -0.8423  0.8022
   55CHL1  H26B 4065   1.168   2.915   3.670  0.1356 -1.0125  0.3639
   55CHL1  H26C 4066   1.077   2.827   3.544  0.0225  0.0078 -0.2906
   55CHL1   C27 4067   1.056   2.820   3.887 -0.1282 -0.2805 -0.0416
   55CHL1  H27A 4068   1.032   2.741   3.960  0.0040 -0.1922  0.0966
   55CHL1  H27B 4069   1.165   2.836   3.899  0.0669 -1.8910  0.4082
   55CHL1  H27C 4070   0.996   2.914   3.895  1.3395  0.8304 -1.4918
   56CHL1    C3 4071   3.166   2.603   2.817 -0.2195 -0.0548  0.0296
   56CHL1    H3 4072   3.156   2.706   2.859  1.5835  0.4080 -0.5852
   56CHL1    O3 4073   3.183   2.609   2.673 -0.1805 -0.3337  0.1214
   56CHL1   H3' 4074   3.105   2.651   2.637 -0.1396  0.6558  1.1359
   56CHL1    C4 4075   3.290   2.542   2.881  0.5519  0.7990 -0.2208
   56CHL1   H4A 4076   3.276   2.443   2.833 -1.3991  2.0305 -2.4425
   56CHL1   H4B 4077   3.381   2.594   2.843 -0.3879  2.0717 -0.8256
   56CHL1    C5 4078   3.285   2.537   3.028  0.3578  0.1126 -0.7519
   56CHL1    C6 4079   3.386   2.584   3.107  0.5934  0.6639  0.0194
   56CHL1    H6 4080   3.479   2.624   3.065  1.4954 -0.2927  1.0306
   56CHL1    C7 4081   3.387   2.570   3.262  1.1042  0.5702  0.4643
   56CHL1   H7A 4082   3.475   2.509   3.294 -0.0013 -0.1045  2.3610
   56CHL1   H7B 4083   3.392   2.659   3.327  1.5390  0.1960  0.9486
   56CHL1    C8 4084   3.277   2.479   3.314 -0.3248  0.7654 -0.0216
   56CHL1    H8 4085   3.299   2.372   3.296  1.6411  0.9945  0.8070
   56CHL1   C14 4086   3.269   2.502   3.468 -0.3530 -0.1808 -0.3095
   56CHL1   H14 4087   3.248   2.610   3.484 -1.9866 -0.4810 -0.2544
   56CHL1   C15 4088   3.387   2.465   3.553 -0.1134 -0.2105 -0.3765
   56CHL1  H15A 4089   3.427   2.366   3.525 -1.9117 -1.9026  2.5259
   56CHL1  H15B 4090   3.477   2.531   3.547  1.2077 -1.8495  0.4707
   56CHL1   C16 4091   3.326   2.478   3.697  0.5338  0.0786 -0.1108
   56CHL1  H16A 4092   3.339   2.390   3.763  0.2340  1.0327  1.2810
   56CHL1  H16B 4093   3.367   2.563   3.756 -1.7724 -0.2615  2.1283
   56CHL1   C17 4094   3.173   2.491   3.683  1.0522 -0.1628  0.9232
   56CHL1   H17 4095   3.148   2.599   3.672 -0.1549 -0.3788  1.4568
   56CHL1   C13 4096   3.148   2.433   3.540  0.2683  0.2668 -0.6192
   56CHL1   C18 4097   3.168   2.281   3.550  0.4317  0.2526 -0.4948
   56CHL1  H18A 4098   3.231   2.254   3.637 -0.4618 -1.3879 -0.3260
   56CHL1  H18B 4099   3.074   2.227   3.574 -0.1511  1.6445  0.5302
   56CHL1  H18C 4100   3.213   2.238   3.458  1.0238 -1.3701  0.5044
   56CHL1   C12 4101   3.013   2.477   3.464  0.9900  0.0517 -0.2017
   56CHL1  H12A 4102   2.928   2.428   3.516  2.6594 -1.6790  1.0692
   56CHL1  H12B 4103   2.995   2.586   3.476  0.7505  0.1224 -1.1118
   56CHL1   C11 4104   3.025   2.432   3.317  0.8261 -0.3002  0.3896
   56CHL1  H11A 4105   3.032   2.322   3.303 -0.4038 -0.4570  0.9536
   56CHL1  H11B 4106   2.931   2.462   3.266  0.8037  0.8716  1.0815
   56CHL1    C9 4107   3.138   2.502   3.245 -0.6001 -0.6332 -0.6007
   56CHL1    H9 4108   3.128   2.611   3.268 -1.4497 -1.0325  1.1410
   56CHL1   C10 4109   3.155   2.478   3.089  0.3089  0.4929  0.0672
   56CHL1   C19 4110   3.161   2.327   3.060  0.0666  0.2135 -0.0884
   56CHL1  H19A 4111   3.242   2.286   3.125 -0.7106 -0.1004  0.6903
   56CHL1  H19B 4112   3.066   2.286   3.100  0.5558  1.5949  2.8178
   56CHL1  H19C 4113   3.169   2.297   2.953 -2.1908  1.9748 -0.8210
   56CHL1    C1 4114   3.033   2.537   3.014 -0.2985  0.3329 -0.0129
   56CHL1   H1A 4115   2.944   2.478   3.045  0.3072 -0.5697  0.0221
   56CHL1   H1B 4116   3.021   2.645   3.040  0.1355  0.2865  0.4038
   56CHL1    C2 4117   3.037   2.531   2.863 -0.3809 -0.2560  0.2483
   56CHL1   H2A 4118   2.962   2.597   2.814  1.7550  0.1574 -2.7656
   56CHL1   H2B 4119   3.040   2.431   2.814 -0.4737 -1.0444  1.7820
   56CHL1   C20 4120   3.089   2.452   3.809 -0.3596 -0.3295  0.0412
   56CHL1   H20 4121   3.083   2.341   3.802  1.4702 -0.6193  1.9260
   56CHL1   C21 4122   2.947   2.521   3.805 -0.0828 -0.0833 -0.9450
   56CHL1  H21A 4123   2.952   2.631   3.820 -1.3416 -0.1464  0.1650
   56CHL1  H21B 4124   2.884   2.485   3.889 -0.8983  2.1829 -0.5100
   56CHL1  H21C 4125   2.897   2.490   3.711  1.5069 -1.6519 -1.3299
   56CHL1   C22 4126   3.160   2.497   3.939  0.4312 -0.2102 -0.0169
   56CHL1  H22A 4127   3.269   2.475   3.935  0.5644  0.4476 -0.2710
   56CHL1  H22B 4128   3.157   2.608   3.949 -1.0870 -0.0738 -1.5268
   56CHL1   C23 4129   3.104   2.415   4.057 -0.0562 -0.0145 -0.2196
   56CHL1  H23A 4130   2.993   2.410   4.058 -0.0888  0.6298 -0.1649
   56CHL1  H23B 4131   3.145   2.313   4.044 -0.1895  0.0957 -1.8112
   56CHL1   C24 4132   3.146   2.472   4.197 -0.0557 -0.6473 -0.3845
   56CHL1  H24A 4133   3.135   2.389   4.271 -0.8655  1.0241  1.4742
   56CHL1  H24B 4134   3.255   2.492   4.203 -0.0750 -0.5838 -0.2269
   56CHL1   C25 4135   3.076   2.599   4.251 -0.1959  0.0848 -0.0428
   56CHL1   H25 4136   3.094   2.682   4.180 -0.0674 -1.1277 -1.4760
   56CHL1   C26 4137   2.930   2.572   4.280 -0.3288  0.3967 -0.3585
   56CHL1  H26A 4138   2.875   2.665   4.307 -0.0116 -0.1460  2.4780
   56CHL1  H26B 4139   2.874   2.511   4.206 -1.7886  2.4658 -1.0387
   56CHL1  H26C 4140   2.933   2.515   4.376 -0.0195  1.6754  0.4168
   56CHL1   C27 4141   3.148   2.654   4.377 -0.7161  0.2253  0.4065
   56CHL1  H27A 4142   3.131   2.584   4.462 -1.4335 -1.5822 -1.1585
   56CHL1  H27B 4143   3.257   2.654   4.357 -0.8902  1.0768 -0.6280
   56CHL1  H27C 4144   3.120   2.760   4.394 -1.7816  0.4909 -2.4311
   57SAPC     N 4145   2.430   3.353   6.169  0.3781 -0.0921  0.4641
   57SAPC   C12 4146   2.330   3.382   6.056  0.8918  0.4027  0.8831
   57SAPC  H12A 4147   2.233   3.339   6.076  0.6433  0.5881  0.1123
   57SAPC  H12B 4148   2.364   3.325   5.971  3.3158  1.3451  1.1370
   57SAPC   C13 4149   2.554   3.424   6.136  0.4562  0.2316  0.7619
   57SAPC  H13A 4150   2.578   3.389   6.036 -3.0771  1.8492 -0.8527
   57SAPC  H13B 4151   2.534   3.530   6.131 -2.3097 -0.2168  0.9829
   57SAPC  H13C 4152   2.636   3.398   6.201  2.9007  1.5535 -1.5945
   57SAPC   C14 4153   2.370   3.394   6.302 -1.0014  0.0343 -0.0830
   57SAPC  H14A 4154   2.370   3.502   6.309 -0.6592  0.1374 -1.4262
   57SAPC  H14B 4155   2.268   3.367   6.325 -0.6737 -0.2096  1.1247
   57SAPC  H14C 4156   2.438   3.353   6.375  3.0475  3.1601 -1.7045
   57SAPC   C15 4157   2.456   3.212   6.192  0.1498 -0.2224  0.1593
   57SAPC  H15A 4158   2.451   3.146   6.107 -2.2896 -0.0223  0.0809
   57SAPC  H15B 4159   2.551   3.198   6.241  0.3737  0.3320 -0.1087
   57SAPC  H15C 4160   2.383   3.165   6.256  0.0658 -1.3701 -0.7441
   57SAPC   C11 4161   2.314   3.537   6.029 -0.4404  0.2883 -0.4059
   57SAPC  H11A 4162   2.241   3.546   5.945 -2.2501 -0.7909  0.9754
   57SAPC  H11B 4163   2.409   3.574   5.985 -0.4894 -0.4937 -1.1901
   57SAPC     P 4164   2.328   3.729   6.204 -0.0260 -0.0077 -0.2259
   57SAPC   O13 4165   2.310   3.700   6.350 -0.3397  0.0765 -0.0365
   57SAPC   O14 4166   2.462   3.745   6.150  0.6597  0.1977 -0.0098
   57SAPC   O12 4167   2.252   3.614   6.124 -0.5210 -0.1846  0.0383
   57SAPC   O11 4168   2.242   3.852   6.161  0.2788 -0.2923 -0.2293
   57SAPC    C1 4169   2.193   3.859   6.025  0.1434 -0.6863  0.6209
   57SAPC    HA 4170   2.237   3.788   5.952 -1.4786  0.6653 -1.8190
   57SAPC    HB 4171   2.083   3.845   6.028  0.2920 -2.1219  0.4964
   57SAPC    C2 4172   2.227   3.997   5.964  0.4645  0.2813 -0.1117
   57SAPC    HS 4173   2.175   4.013   5.867  1.2611  0.2364 -0.5528
   57SAPC   O21 4174   2.368   4.003   5.937  0.3030 -0.5807  0.3432
   57SAPC   C21 4175   2.400   3.941   5.824 -0.2826 -0.4237 -0.1097
   57SAPC   O22 4176   2.319   3.882   5.752 -1.4202 -0.3444  0.1269
   57SAPC   C22 4177   2.553   3.957   5.793 -0.2521 -0.1983 -0.6109
   57SAPC   H2R 4178   2.550   4.060   5.753  2.6629 -0.1442 -0.8915
   57SAPC   H2S 4179   2.606   3.945   5.890  0.6431 -0.6514 -1.1367
   57SAPC    C3 4180   2.175   4.110   6.052  0.6056 -0.3355  0.6376
   57SAPC    HX 4181   2.221   4.084   6.150 -0.3791 -1.8777  0.7361
   57SAPC    HY 4182   2.064   4.110   6.063  0.7489 -1.1071  2.4227
   57SAPC   O31 4183   2.218   4.241   6.009 -0.0070  0.5918 -0.4573
   57SAPC   C31 4184   2.134   4.318   5.935 -0.1919 -0.0087 -0.3009
   57SAPC   O32 4185   2.027   4.282   5.896  0.3259 -0.3605 -0.4057
   57SAPC   C32 4186   2.201   4.450   5.910 -0.0830 -0.7051 -0.0302
   57SAPC   H2X 4187   2.202   4.505   6.007 -0.5364 -0.0971 -0.3619
   57SAPC   H2Y 4188   2.140   4.516   5.845 -1.0004  1.2956  2.6726
   57SAPC   C23 4189   2.603   3.845   5.697  0.5769 -0.1258 -0.6882
   57SAPC   H3R 4190   2.708   3.861   5.668  1.3705 -0.6958  1.6248
   57SAPC   H3S 4191   2.550   3.852   5.600 -1.6829 -1.6718  0.3301
   57SAPC   C24 4192   2.596   3.703   5.755  0.7888 -0.3580  0.4981
   57SAPC   H4R 4193   2.598   3.638   5.665 -2.2030  0.7609 -0.4828
   57SAPC   H4S 4194   2.493   3.684   5.793  0.3629 -0.0569 -0.4677
   57SAPC   C25 4195   2.697   3.661   5.860  0.6832  0.0442 -0.1140
   57SAPC   H5R 4196   2.701   3.735   5.941  0.4661 -0.9288  0.8086
   57SAPC   C26 4197   2.757   3.540   5.869 -0.1367 -0.3600 -0.3395
   57SAPC   H6R 4198   2.828   3.519   5.950 -0.7370 -0.8344  0.0739
   57SAPC   C27 4199   2.749   3.426   5.769 -0.0626  0.0938 -0.7653
   57SAPC   H7R 4200   2.644   3.393   5.753  0.1827 -0.7203 -0.7490
   57SAPC   H7S 4201   2.792   3.336   5.817  0.1701  0.7825  0.3363
   57SAPC   C28 4202   2.817   3.452   5.637  0.0062 -0.1433  0.6526
   57SAPC   H8R 4203   2.869   3.547   5.618  0.9167 -0.4010  1.6764
   57SAPC   C29 4204   2.807   3.371   5.533  0.2313 -0.0479 -0.2782
   57SAPC   H9R 4205   2.875   3.393   5.449 -1.1864  1.4389 -1.0922
   57SAPC  C210 4206   2.736   3.235   5.535 -0.0011 -0.7418  0.6817
   57SAPC  H10R 4207   2.672   3.233   5.445  0.3354 -0.0932  0.4183
   57SAPC  H10S 4208   2.664   3.224   5.618 -0.8679 -0.9371 -0.0789
   57SAPC  C211 4209   2.830   3.119   5.546  0.3080  0.0048 -0.1364
   57SAPC  H11R 4210   2.861   3.087   5.646  4.0103 -1.3210 -1.5295
   57SAPC  C212 4211   2.888   3.049   5.445  0.2641  0.3505 -0.3513
   57SAPC  H12R 4212   2.968   2.978   5.472  0.2862  0.9839  1.4080
   57SAPC  C213 4213   2.878   3.084   5.295 -0.0563  0.3844  0.7803
   57SAPC  H13R 4214   2.962   3.150   5.262 -2.0068  3.0067  0.7331
   57SAPC  H13S 4215   2.786   3.144   5.281 -0.5649 -0.5206  0.1506
   57SAPC  C214 4216   2.876   2.952   5.223 -0.5275  1.0068  0.6654
   57SAPC  H14R 4217   2.819   2.871   5.271 -0.6878 -0.3798 -1.7070
   57SAPC  C215 4218   2.935   2.916   5.110 -0.0807  0.3793  0.1188
   57SAPC  H15R 4219   2.927   2.809   5.082 -2.5261 -0.0132  1.9932
   57SAPC  C216 4220   3.016   3.005   5.017  0.3965  0.0668 -0.3433
   57SAPC  H16R 4221   3.022   3.109   5.056 -2.8516  0.2051  0.1144
   57SAPC  H16S 4222   2.970   3.005   4.916  0.4403 -1.2225 -0.3810
   57SAPC  C217 4223   3.165   2.950   5.010  0.3671  0.1586 -0.2344
   57SAPC  H17R 4224   3.191   2.939   5.117  2.1048 -0.3526 -0.6707
   57SAPC  H17S 4225   3.239   3.015   4.958  0.0568  0.5777 -0.1556
   57SAPC  C218 4226   3.174   2.817   4.937 -0.3324 -0.0972  0.3911
   57SAPC  H18R 4227   3.153   2.856   4.835  0.3403  1.5470  0.8391
   57SAPC  H18S 4228   3.089   2.754   4.971 -1.0108  0.6751  0.1654
   57SAPC  C219 4229   3.302   2.740   4.934  0.1032 -0.0520  0.1998
   57SAPC  H19R 4230   3.328   2.720   5.040 -2.4152  0.0567  0.9087
   57SAPC  H19S 4231   3.385   2.799   4.890 -0.5094 -0.1001 -1.0613
   57SAPC  C220 4232   3.282   2.614   4.849 -0.0739  0.0773 -0.6021
   57SAPC  H20R 4233   3.378   2.579   4.806 -0.5419 -0.3895 -1.2757
   57SAPC  H20S 4234   3.201   2.625   4.774  0.1057  0.2816 -0.7648
   57SAPC  H20T 4235   3.241   2.539   4.921  0.8196 -0.9276 -1.1188
   57SAPC   C33 4236   2.330   4.438   5.833  0.3307  0.5411  0.5038
   57SAPC   H3X 4237   2.397   4.368   5.887 -0.7688 -0.4799  0.5831
   57SAPC   H3Y 4238   2.367   4.542   5.839 -0.3481  0.7553  1.0905
   57SAPC   C34 4239   2.309   4.411   5.683  0.0345  0.4371 -0.1215
   57SAPC   H4X 4240   2.235   4.476   5.633  1.7413  0.9697 -2.0869
   57SAPC   H4Y 4241   2.278   4.304   5.683 -4.2459  1.4063 -3.5232
   57SAPC   C35 4242   2.443   4.427   5.608  0.5774  0.0203 -0.4478
   57SAPC   H5X 4243   2.497   4.330   5.619  0.4537 -0.1945 -1.5315
   57SAPC   H5Y 4244   2.501   4.504   5.662 -0.4467  1.1337 -0.8950
   57SAPC   C36 4245   2.435   4.489   5.467 -0.2987  0.0540  0.2699
   57SAPC   H6X 4246   2.538   4.506   5.428  0.2151  0.8840  1.9081
   57SAPC   H6Y 4247   2.387   4.589   5.478  2.1012  1.4380 -0.9270
   57SAPC   C37 4248   2.361   4.405   5.369 -0.3999  0.1324  0.2945
   57SAPC   H7X 4249   2.260   4.385   5.412  0.1554 -1.6665  0.8277
   57SAPC   H7Y 4250   2.414   4.309   5.353  3.0934  1.4329  2.7104
   57SAPC   C38 4251   2.340   4.469   5.225 -0.0101  0.0801 -0.8195
   57SAPC   H8X 4252   2.434   4.475   5.167 -0.4570  0.3252 -1.5372
   57SAPC   H8Y 4253   2.309   4.576   5.233  0.7285  0.2851 -0.6422
   57SAPC   C39 4254   2.252   4.393   5.128  0.2793  0.1953  0.1406
   57SAPC   H9X 4255   2.146   4.396   5.162  0.1761  0.6918 -0.2271
   57SAPC   H9Y 4256   2.282   4.286   5.132  0.4643  0.2782  1.3761
   57SAPC  C310 4257   2.277   4.427   4.981  0.3157 -0.4677 -0.6040
   57SAPC  H10X 4258   2.384   4.417   4.953  0.4222  0.5304 -0.5745
   57SAPC  H10Y 4259   2.246   4.532   4.965  1.3204  0.0523  0.6992
   57SAPC  C311 4260   2.202   4.338   4.879 -0.2601 -0.6905 -0.3993
   57SAPC  H11X 4261   2.231   4.231   4.891  0.4297 -0.4773 -0.0978
   57SAPC  H11Y 4262   2.229   4.374   4.777 -0.4396  3.2085  0.7536
   57SAPC  C312 4263   2.046   4.345   4.905  0.4721  0.0883 -0.5954
   57SAPC  H12X 4264   2.028   4.454   4.893 -0.7431 -0.0041  0.1891
   57SAPC  H12Y 4265   2.024   4.316   5.010  1.9804  1.7038  0.2250
   57SAPC  C313 4266   1.962   4.252   4.809 -0.4859 -0.2345 -0.0917
   57SAPC  H13X 4267   1.998   4.279   4.707  0.6879  3.0722  1.0728
   57SAPC  H13Y 4268   1.856   4.286   4.810  0.1734  2.1595 -1.6561
   57SAPC  C314 4269   1.987   4.101   4.835 -0.2269  0.3749 -0.2221
   57SAPC  H14X 4270   1.946   4.072   4.933 -0.4390 -3.0340 -1.2037
   57SAPC  H14Y 4271   2.095   4.073   4.841 -0.6502 -0.9889  2.2595
   57SAPC  C315 4272   1.921   4.005   4.734 -0.3229 -0.2371 -0.1069
   57SAPC  H15X 4273   1.817   4.037   4.710 -1.0572 -1.7358  0.8794
   57SAPC  H15Y 4274   1.931   3.899   4.764 -0.0207 -0.0391  0.5036
   57SAPC  C316 4275   1.998   4.009   4.601  0.8239  0.1139  0.2054
   57SAPC  H16X 4276   2.101   3.971   4.609  0.9923  0.4404 -0.3334
   57SAPC  H16Y 4277   1.997   4.114   4.564 -0.3852 -0.5105 -1.6938
   57SAPC  C317 4278   1.937   3.912   4.491  0.5177 -0.5320 -0.0100
   57SAPC  H17X 4279   1.833   3.942   4.468  0.8050 -0.6127 -1.5290
   57SAPC  H17Y 4280   1.937   3.816   4.546  0.4772 -0.1987  0.5869
   57SAPC  C318 4281   2.027   3.897   4.370  0.5837 -0.1652 -0.6346
   57SAPC  H18X 4282   1.977   3.825   4.302  0.1714 -2.2901  1.7754
   57SAPC  H18Y 4283   2.131   3.865   4.395  0.8088  1.3631  0.5960
   57SAPC  H18Z 4284   2.043   3.995   4.319 -0.3418  0.3765  0.0897
   58SAPC     N 4285   6.100   4.433   6.552  0.2947 -0.0675  0.3508
   58SAPC   C12 4286   5.960   4.481   6.594 -0.4733 -0.5657 -0.7926
   58SAPC  H12A 4287   5.924   4.423   6.677 -1.3231 -0.7741 -1.2892
   58SAPC  H12B 4288   5.887   4.448   6.521 -2.5468  1.2460  0.3728
   58SAPC   C13 4289   6.204   4.480   6.647 -0.2321  0.7130 -0.0618
   58SAPC  H13A 4290   6.307   4.467   6.620  1.0208  4.8947  1.9289
   58SAPC  H13B 4291   6.193   4.584   6.673  2.5962  0.6066  1.9966
   58SAPC  H13C 4292   6.193   4.434   6.744  1.2870  0.1967 -0.1071
   58SAPC   C14 4293   6.101   4.285   6.541 -0.0730  0.0875  0.6286
   58SAPC  H14A 4294   6.187   4.248   6.488 -0.8520 -0.1452 -0.5171
   58SAPC  H14B 4295   6.100   4.243   6.640  1.2747 -0.2986  0.4937
   58SAPC  H14C 4296   6.014   4.259   6.483 -0.2064 -0.2930  0.9962
   58SAPC   C15 4297   6.129   4.491   6.421  0.1348  0.1270  0.7065
   58SAPC  H15A 4298   6.060   4.457   6.346 -0.5505  0.1161  1.3281
   58SAPC  H15B 4299   6.119   4.599   6.428  0.9254  0.2401  0.2550
   58SAPC  H15C 4300   6.229   4.475   6.384  0.2229  0.0468  0.9754
   58SAPC   C11 4301   5.946   4.632   6.622  0.4363  0.3435  0.9902
   58SAPC  H11A 4302   6.010   4.656   6.710  0.1536 -0.4630  1.4185
   58SAPC  H11B 4303   5.842   4.648   6.657 -0.4203  1.9135 -1.9479
   58SAPC     P 4304   5.937   4.868   6.501  0.0463 -0.2929  0.5771
   58SAPC   O13 4305   5.931   4.927   6.634  0.2912 -0.3477 -0.6521
   58SAPC   O14 4306   6.028   4.942   6.409  0.1856  0.5044  0.2434
   58SAPC   O12 4307   5.975   4.713   6.509 -0.6388 -0.2960  0.4840
   58SAPC   O11 4308   5.785   4.870   6.442 -0.4880 -0.8267  0.3588
   58SAPC    C1 4309   5.754   4.780   6.336 -0.2909  0.0997 -0.1865
   58SAPC    HA 4310   5.826   4.695   6.334 -0.2834  0.0144  1.6942
   58SAPC    HB 4311   5.659   4.731   6.368  0.2981 -2.2985 -1.7852
   58SAPC    C2 4312   5.736   4.842   6.198  0.0152  0.4595  0.4189
   58SAPC    HS 4313   5.838   4.871   6.167 -0.9452  0.8915 -2.7792
   58SAPC   O21 4314   5.635   4.946   6.198  0.7299  0.0898 -0.0775
   58SAPC   C21 4315   5.645   5.032   6.096 -0.8303 -0.9817 -0.0513
   58SAPC   O22 4316   5.737   5.037   6.017  0.2951  0.4107 -0.4288
   58SAPC   C22 4317   5.521   5.119   6.094 -0.1519  0.1409 -0.0882
   58SAPC   H2R 4318   5.429   5.059   6.074 -0.3159  0.5651 -0.6193
   58SAPC   H2S 4319   5.509   5.173   6.191 -0.0278 -1.2732  0.7487
   58SAPC    C3 4320   5.688   4.730   6.103 -0.2436  0.1872 -0.1560
   58SAPC    HX 4321   5.593   4.705   6.155  0.7433  0.7916  2.0397
   58SAPC    HY 4322   5.765   4.650   6.099  2.5065  2.5519  1.6093
   58SAPC   O31 4323   5.662   4.770   5.968 -0.8544 -0.2091  0.4757
   58SAPC   C31 4324   5.768   4.754   5.886  0.1885 -0.9636 -0.2646
   58SAPC   O32 4325   5.876   4.702   5.921 -0.0660  0.0688  0.3400
   58SAPC   C32 4326   5.745   4.817   5.742 -0.4030 -0.2470 -0.7540
   58SAPC   H2X 4327   5.771   4.924   5.757 -1.0297 -0.2065  0.1034
   58SAPC   H2Y 4328   5.636   4.817   5.721 -0.7917  1.7657  0.9941
   58SAPC   C23 4329   5.517   5.221   5.976  0.6464  0.3297  0.2735
   58SAPC   H3R 4330   5.614   5.271   5.956  0.0480  1.6764  0.6270
   58SAPC   H3S 4331   5.449   5.304   6.006 -1.6352 -1.8679  1.5301
   58SAPC   C24 4332   5.438   5.167   5.852  0.0681  0.0184  0.0524
   58SAPC   H4R 4333   5.340   5.144   5.898  0.4497 -1.7211  0.0670
   58SAPC   H4S 4334   5.485   5.070   5.822  1.4583  0.7863 -0.3553
   58SAPC   C25 4335   5.424   5.268   5.733 -0.4122 -0.1595 -0.1556
   58SAPC   H5R 4336   5.348   5.346   5.748 -0.9699 -0.6652 -0.2824
   58SAPC   C26 4337   5.483   5.256   5.616  0.2840  0.1350 -0.4756
   58SAPC   H6R 4338   5.456   5.331   5.539  2.0035 -0.7087 -1.9885
   58SAPC   C27 4339   5.560   5.142   5.572 -0.4377  0.3071  0.3090
   58SAPC   H7R 4340   5.499   5.059   5.530 -0.3383  0.7265 -0.6889
   58SAPC   H7S 4341   5.619   5.101   5.656  2.1520  0.9329 -1.1074
   58SAPC   C28 4342   5.643   5.178   5.454  0.0738 -0.0312 -0.3622
   58SAPC   H8R 4343   5.752   5.180   5.469 -0.1849  0.1465  1.8504
   58SAPC   C29 4344   5.598   5.210   5.327 -0.1436 -0.3982  0.0208
   58SAPC   H9R 4345   5.656   5.254   5.245  2.2544 -1.0353  1.3079
   58SAPC  C210 4346   5.454   5.201   5.291 -0.2894  0.1303  0.1664
   58SAPC  H10R 4347   5.385   5.156   5.367 -0.2908 -1.2694 -0.6291
   58SAPC  H10S 4348   5.436   5.138   5.201  0.2774  1.2754 -0.7754
   58SAPC  C211 4349   5.406   5.343   5.264  0.4905  0.8469  0.2279
   58SAPC  H11R 4350   5.364   5.397   5.351 -0.0314 -2.2985  2.1299
   58SAPC  C212 4351   5.420   5.413   5.146  0.3571  0.0808  0.0675
   58SAPC  H12R 4352   5.381   5.515   5.136 -1.2583 -0.6954 -2.6125
   58SAPC  C213 4353   5.486   5.367   5.018 -0.7063  0.5254  0.3278
   58SAPC  H13R 4354   5.510   5.259   5.028  1.3739  0.8386 -0.7753
   58SAPC  H13S 4355   5.588   5.410   5.006 -0.1387 -0.6721  0.7540
   58SAPC  C214 4356   5.401   5.411   4.900  0.1729  0.6224  0.1516
   58SAPC  H14R 4357   5.298   5.443   4.923  0.2917 -0.0289  1.7006
   58SAPC  C215 4358   5.436   5.419   4.767 -0.1887  0.2509 -0.1560
   58SAPC  H15R 4359   5.356   5.453   4.699  0.3788  1.1711 -0.3792
   58SAPC  C216 4360   5.576   5.378   4.720  0.3412 -0.4084  0.3528
   58SAPC  H16R 4361   5.601   5.280   4.766 -0.3522 -0.5932  0.3426
   58SAPC  H16S 4362   5.650   5.454   4.756  1.9657 -0.6968 -2.1367
   58SAPC  C217 4363   5.578   5.377   4.563  0.5863  0.0199  0.6408
   58SAPC  H17R 4364   5.598   5.479   4.524  0.6672  0.1800  1.0875
   58SAPC  H17S 4365   5.483   5.335   4.524  1.6953 -3.3916  1.3409
   58SAPC  C218 4366   5.688   5.288   4.505  0.2214  0.1047  0.1082
   58SAPC  H18R 4367   5.784   5.337   4.532  0.6617 -1.2660  1.1274
   58SAPC  H18S 4368   5.673   5.305   4.396  2.1239 -0.5929 -0.3061
   58SAPC  C219 4369   5.683   5.138   4.535 -0.0465  0.0919 -0.5696
   58SAPC  H19R 4370   5.575   5.121   4.514 -0.0295  0.8804 -1.3449
   58SAPC  H19S 4371   5.708   5.113   4.641 -2.5579  1.5736  0.4699
   58SAPC  C220 4372   5.750   5.047   4.439  0.1519  0.1617 -0.6911
   58SAPC  H20R 4373   5.751   4.939   4.464  1.1868  0.2619 -0.2361
   58SAPC  H20S 4374   5.857   5.075   4.430  0.5911  0.1802  3.0627
   58SAPC  H20T 4375   5.696   5.055   4.343 -0.8219  0.3851 -0.1363
   58SAPC   C33 4376   5.835   4.740   5.646  0.7425 -0.0623  0.0188
   58SAPC   H3X 4377   5.817   4.631   5.650 -1.5658  0.2786  0.1126
   58SAPC   H3Y 4378   5.942   4.761   5.668  1.2150 -1.2958 -0.9780
   58SAPC   C34 4379   5.800   4.806   5.515 -0.2972 -0.0340  0.4380
   58SAPC   H4X 4380   5.885   4.794   5.444 -0.9135 -1.3271 -0.1030
   58SAPC   H4Y 4381   5.769   4.912   5.528 -0.8672 -0.2507  0.8741
   58SAPC   C35 4382   5.689   4.734   5.452 -0.3121  0.2633  0.9653
   58SAPC   H5X 4383   5.606   4.724   5.525  0.4673  0.6788  1.9174
   58SAPC   H5Y 4384   5.730   4.635   5.425 -1.6307  0.2189 -1.1243
   58SAPC   C36 4385   5.641   4.801   5.318  0.0732  0.7096  0.9177
   58SAPC   H6X 4386   5.727   4.824   5.251 -0.8109  0.7051 -0.2473
   58SAPC   H6Y 4387   5.579   4.892   5.318 -0.6538  0.3079 -2.0225
   58SAPC   C37 4388   5.569   4.704   5.216 -0.7552 -0.6385 -0.2530
   58SAPC   H7X 4389   5.532   4.774   5.138 -0.8340 -0.4610 -0.0577
   58SAPC   H7Y 4390   5.479   4.659   5.263 -0.4213 -1.8706 -0.7567
   58SAPC   C38 4391   5.657   4.597   5.148  0.2772 -0.4018  0.1405
   58SAPC   H8X 4392   5.702   4.538   5.230  1.7986  0.1107 -0.2856
   58SAPC   H8Y 4393   5.738   4.637   5.083  1.1660 -1.5016  0.5414
   58SAPC   C39 4394   5.567   4.507   5.058  0.9716  0.7759  0.7296
   58SAPC   H9X 4395   5.488   4.466   5.123  0.7666  1.2177  0.7663
   58SAPC   H9Y 4396   5.617   4.414   5.025 -1.8054 -1.1854  1.7120
   58SAPC  C310 4397   5.508   4.578   4.937 -0.0224 -0.3148 -0.0834
   58SAPC  H10X 4398   5.597   4.598   4.873 -0.6448 -0.5929 -1.0698
   58SAPC  H10Y 4399   5.456   4.674   4.958 -0.8625 -0.3948 -1.6050
   58SAPC  C311 4400   5.423   4.475   4.848 -0.2197  0.1089  0.3401
   58SAPC  H11X 4401   5.340   4.435   4.910 -0.3773 -3.7606 -2.0476
   58SAPC  H11Y 4402   5.492   4.390   4.830 -0.8425 -0.4745  0.6527
   58SAPC  C312 4403   5.372   4.535   4.714 -0.3830 -0.0322  0.1902
   58SAPC  H12X 4404   5.466   4.552   4.657 -0.3851  1.3053  0.5631
   58SAPC  H12Y 4405   5.333   4.639   4.720 -3.8934 -1.1697 -0.4592
   58SAPC  C313 4406   5.265   4.451   4.640  0.0765 -0.5953  0.6147
   58SAPC  H13X 4407   5.174   4.451   4.703 -2.7544  2.6452 -2.9975
   58SAPC  H13Y 4408   5.297   4.345   4.627  0.5897 -0.2544 -1.1594
   58SAPC  C314 4409   5.202   4.512   4.510 -0.3753  0.3760 -0.1299
   58SAPC  H14X 4410   5.145   4.600   4.545 -0.0531 -0.0856  1.6479
   58SAPC  H14Y 4411   5.138   4.432   4.466  1.6077 -0.2311 -2.1446
   58SAPC  C315 4412   5.303   4.542   4.397  0.3962  0.7498  0.6281
   58SAPC  H15X 4413   5.381   4.615   4.429 -0.0542  1.8756 -0.7471
   58SAPC  H15Y 4414   5.234   4.592   4.326 -0.0265 -0.6567  0.0216
   58SAPC  C316 4415   5.366   4.419   4.336 -0.3010  0.4836  0.0994
   58SAPC  H16X 4416   5.295   4.335   4.323  0.0984  0.0094  0.9451
   58SAPC  H16Y 4417   5.433   4.384   4.417 -0.1897 -1.3721 -0.7355
   58SAPC  C317 4418   5.433   4.428   4.195  0.1105  0.7527  0.4350
   58SAPC  H17X 4419   5.502   4.514   4.206 -1.7359  2.0822  2.1279
   58SAPC  H17Y 4420   5.359   4.462   4.121  1.0160  0.5427 -0.5991
   58SAPC  C318 4421   5.495   4.297   4.141 -0.0122  0.6381  0.2192
   58SAPC  H18X 4422   5.574   4.264   4.212  3.2887 -0.5887 -3.6329
   58SAPC  H18Y 4423   5.543   4.325   4.044 -0.5157  0.1326 -0.1790
   58SAPC  H18Z 4424   5.417   4.223   4.117 -0.9275  2.0210 -1.3144
   59SAPC     N 4425   4.638   1.714   7.092 -0.0609 -0.0578  0.1080
   59SAPC   C12 4426   4.726   1.633   6.997  0.2968 -0.1634 -0.3415
   59SAPC  H12A 4427   4.672   1.541   6.981  2.3158 -1.7805  1.3872
   59SAPC  H12B 4428   4.815   1.605   7.052  1.2117  0.3396 -1.5136
   59SAPC   C13 4429   4.625   1.647   7.228  0.7033  0.3665 -0.0346
   59SAPC  H13A 4430   4.579   1.550   7.213  0.1312  0.3730  1.4770
   59SAPC  H13B 4431   4.716   1.622   7.281 -0.9321 -0.9084  2.4013
   59SAPC  H13C 4432   4.557   1.701   7.292  1.8740  1.6921  0.1345
   59SAPC   C14 4433   4.697   1.841   7.126 -0.1947  0.3552 -0.0840
   59SAPC  H14A 4434   4.784   1.833   7.189 -0.1366  0.5962 -0.1327
   59SAPC  H14B 4435   4.728   1.892   7.036  2.1438  0.7157  0.8496
   59SAPC  H14C 4436   4.621   1.903   7.171 -1.9503 -1.0732 -0.9124
   59SAPC   C15 4437   4.507   1.736   7.035 -0.3141  0.7411 -0.6434
   59SAPC  H15A 4438   4.447   1.647   7.024  1.5201 -1.3536  3.8838
   59SAPC  H15B 4439   4.452   1.795   7.107  1.0323  0.3558  0.7405
   59SAPC  H15C 4440   4.523   1.781   6.938  0.3862  2.1399  0.0922
   59SAPC   C11 4441   4.776   1.697   6.869 -0.5592 -0.2919  0.0163
   59SAPC  H11A 4442   4.841   1.631   6.807  2.2524  1.5578  0.8073
   59SAPC  H11B 4443   4.831   1.790   6.895 -1.3465  0.2707 -0.2823
   59SAPC     P 4444   4.574   1.633   6.723  0.1367  0.1658  0.4119
   59SAPC   O13 4445   4.566   1.511   6.803  0.1577 -0.1618  0.3492
   59SAPC   O14 4446   4.449   1.713   6.714  0.5436  0.1792  0.1107
   59SAPC   O12 4447   4.669   1.740   6.786 -0.4406  0.2894 -0.1240
   59SAPC   O11 4448   4.613   1.593   6.575 -0.6658  0.1298 -0.3668
   59SAPC    C1 4449   4.714   1.682   6.514 -0.2640 -0.0570  0.1954
   59SAPC    HA 4450   4.670   1.781   6.487  1.2148  0.2139 -1.4297
   59SAPC    HB 4451   4.797   1.701   6.584 -0.9852  2.0044  0.5444
   59SAPC    C2 4452   4.782   1.618   6.388  0.6130 -0.3759  0.1105
   59SAPC    HS 4453   4.864   1.683   6.351  1.2263  1.1056  3.6770
   59SAPC   O21 4454   4.679   1.611   6.282 -0.8375 -0.5422  0.2853
   59SAPC   C21 4455   4.716   1.592   6.158 -0.4310 -0.0835 -0.1062
   59SAPC   O22 4456   4.830   1.614   6.121 -0.4947  0.0267  0.2063
   59SAPC   C22 4457   4.599   1.541   6.069  0.4746 -0.6707 -0.4372
   59SAPC   H2R 4458   4.587   1.436   6.103  0.1264 -1.4178 -2.6603
   59SAPC   H2S 4459   4.510   1.602   6.095  1.7001  0.5083  1.1431
   59SAPC    C3 4460   4.837   1.477   6.432  0.2313  0.1495 -0.5381
   59SAPC    HX 4461   4.754   1.417   6.474  1.5081  0.3106  2.4690
   59SAPC    HY 4462   4.910   1.500   6.512  2.8789 -0.4976 -2.6283
   59SAPC   O31 4463   4.891   1.406   6.324  0.1239  0.1071  0.6780
   59SAPC   C31 4464   5.024   1.377   6.314 -0.0062  0.9932  0.4107
   59SAPC   O32 4465   5.109   1.412   6.391 -0.0579 -0.1436  0.1283
   59SAPC   C32 4466   5.033   1.300   6.192 -0.2322  0.4454  0.3266
   59SAPC   H2X 4467   4.976   1.354   6.113  0.7854  1.0635  0.0011
   59SAPC   H2Y 4468   4.990   1.197   6.202  0.1255  0.0956 -1.3576
   59SAPC   C23 4469   4.649   1.535   5.925 -0.5069  0.0908  0.1414
   59SAPC   H3R 4470   4.740   1.473   5.932 -1.0063 -0.6001  0.6170
   59SAPC   H3S 4471   4.702   1.628   5.895 -0.7413  0.7774  1.7443
   59SAPC   C24 4472   4.547   1.475   5.818 -0.6636 -0.2909 -0.1951
   59SAPC   H4R 4473   4.477   1.559   5.797 -0.9157 -0.8301 -1.6769
   59SAPC   H4S 4474   4.496   1.387   5.862  0.2903 -0.9059 -0.2953
   59SAPC   C25 4475   4.625   1.443   5.689  0.3633  0.0904 -0.4939
   59SAPC   H5R 4476   4.687   1.353   5.699  1.9717  1.2490  0.2439
   59SAPC   C26 4477   4.654   1.515   5.582  0.2665  0.0645  0.6647
   59SAPC   H6R 4478   4.716   1.472   5.502 -2.6479 -0.1674 -1.6613
   59SAPC   C27 4479   4.584   1.640   5.538  0.6320 -0.4324 -0.1265
   59SAPC   H7R 4480   4.647   1.730   5.549  0.2188 -0.3174  1.6051
   59SAPC   H7S 4481   4.498   1.666   5.602  2.1286 -1.2241  2.3315
   59SAPC   C28 4482   4.536   1.624   5.398  0.3260 -0.6720  0.4810
   59SAPC   H8R 4483   4.432   1.590   5.391  0.4413 -1.4617  2.1025
   59SAPC   C29 4484   4.603   1.632   5.283  0.1853  0.3515 -0.0393
   59SAPC   H9R 4485   4.549   1.606   5.190  1.7759  0.6940 -1.0988
   59SAPC  C210 4486   4.748   1.689   5.272 -0.5517 -0.5501  0.3686
   59SAPC  H10R 4487   4.805   1.612   5.215 -0.5517  0.4854 -1.0970
   59SAPC  H10S 4488   4.805   1.690   5.367  2.6721  2.3867 -1.3853
   59SAPC  C211 4489   4.766   1.817   5.198 -1.1916 -0.1502 -0.2863
   59SAPC  H11R 4490   4.817   1.900   5.250 -1.1061  0.0871 -0.7483
   59SAPC  C212 4491   4.719   1.845   5.072  0.1066  0.7336 -0.3517
   59SAPC  H12R 4492   4.749   1.943   5.032  3.9503  0.4762  1.4822
   59SAPC  C213 4493   4.659   1.756   4.969  0.0059 -0.0306  0.1880
   59SAPC  H13R 4494   4.663   1.652   5.009  0.2256  0.5327  1.6706
   59SAPC  H13S 4495   4.713   1.754   4.871 -1.1453 -2.9565 -0.4918
   59SAPC  C214 4496   4.515   1.801   4.942  0.3267  0.0447  0.2394
   59SAPC  H14R 4497   4.464   1.863   5.017  1.7271 -1.8893  2.9631
   59SAPC  C215 4498   4.435   1.748   4.846 -0.0316  0.1063 -0.3452
   59SAPC  H15R 4499   4.329   1.775   4.838 -0.1115 -0.5117 -1.7140
   59SAPC  C216 4500   4.489   1.650   4.744 -0.2005  0.5674 -0.3914
   59SAPC  H16R 4501   4.590   1.611   4.768 -0.2343  0.6767 -0.0627
   59SAPC  H16S 4502   4.508   1.688   4.642 -0.5756  0.9878 -0.3096
   59SAPC  C217 4503   4.387   1.536   4.724  0.7850 -0.1370  0.2483
   59SAPC  H17R 4504   4.289   1.572   4.687  1.8689  2.0727 -0.6639
   59SAPC  H17S 4505   4.365   1.481   4.818 -2.4731 -0.3414 -0.5380
   59SAPC  C218 4506   4.451   1.415   4.648 -0.0719  0.3783  0.4142
   59SAPC  H18R 4507   4.545   1.381   4.696  1.6563  0.2193 -2.7953
   59SAPC  H18S 4508   4.484   1.453   4.549  0.0295  0.8173  0.6179
   59SAPC  C219 4509   4.354   1.301   4.615  0.7874 -0.0839 -0.6496
   59SAPC  H19R 4510   4.260   1.345   4.576 -0.4408 -0.6320  1.5332
   59SAPC  H19S 4511   4.316   1.261   4.712  1.2512  0.0454 -0.4079
   59SAPC  C220 4512   4.403   1.189   4.520 -0.3677 -0.1445  0.2137
   59SAPC  H20R 4513   4.442   1.222   4.421 -0.6717  0.1833  0.2005
   59SAPC  H20S 4514   4.321   1.117   4.499 -1.3660  1.2953 -1.1339
   59SAPC  H20T 4515   4.487   1.138   4.572 -2.0088 -0.9655  2.1964
   59SAPC   C33 4516   5.179   1.284   6.146 -0.4231  0.2244  0.1402
   59SAPC   H3X 4517   5.231   1.215   6.216 -1.0872 -0.4736 -0.0458
   59SAPC   H3Y 4518   5.231   1.382   6.147  1.2614 -0.6062 -1.1373
   59SAPC   C34 4519   5.197   1.211   6.012 -0.5335  0.0355  0.9979
   59SAPC   H4X 4520   5.188   1.102   6.027  1.2840 -0.0774  1.5010
   59SAPC   H4Y 4521   5.293   1.239   5.965 -0.2762 -2.6364 -0.2334
   59SAPC   C35 4522   5.107   1.255   5.893  0.1743  0.1384 -0.0564
   59SAPC   H5X 4523   5.103   1.366   5.880 -0.2484  0.3915  1.9889
   59SAPC   H5Y 4524   5.002   1.225   5.909  0.7868 -0.8297  2.4459
   59SAPC   C36 4525   5.150   1.203   5.760  0.0832  0.2505 -0.0373
   59SAPC   H6X 4526   5.164   1.093   5.761 -0.9907  0.1123  0.5980
   59SAPC   H6Y 4527   5.250   1.235   5.723  1.3880 -2.0531  1.2860
   59SAPC   C37 4528   5.038   1.227   5.654  0.2484  0.6718 -0.7423
   59SAPC   H7X 4529   5.018   1.336   5.652  2.4852  1.1376 -0.2961
   59SAPC   H7Y 4530   4.947   1.172   5.687  1.5171 -1.0792 -0.0022
   59SAPC   C38 4531   5.085   1.175   5.516  0.2241  0.1855 -0.1921
   59SAPC   H8X 4532   5.090   1.064   5.516  1.0779  0.1451  2.9713
   59SAPC   H8Y 4533   5.187   1.214   5.494 -0.2485  2.0195  0.7001
   59SAPC   C39 4534   4.984   1.205   5.404 -0.4320  0.4255  0.5203
   59SAPC   H9X 4535   5.014   1.159   5.307  4.5062  0.6811  1.6778
   59SAPC   H9Y 4536   4.990   1.315   5.393 -1.4019  0.5055  0.6493
   59SAPC  C310 4537   4.835   1.178   5.424 -0.1021  0.5014  0.6705
   59SAPC  H10X 4538   4.803   1.241   5.510  1.7033  1.7816  0.4583
   59SAPC  H10Y 4539   4.813   1.071   5.446 -0.8190  0.5067  0.0189
   59SAPC  C311 4540   4.755   1.236   5.305 -0.1704  0.0621 -0.0617
   59SAPC  H11X 4541   4.803   1.196   5.213 -0.4291 -1.1275  0.3001
   59SAPC  H11Y 4542   4.773   1.345   5.302 -1.1797  0.2462  0.3236
   59SAPC  C312 4543   4.601   1.202   5.312 -0.3459 -0.4656 -0.6865
   59SAPC  H12X 4544   4.555   1.259   5.395 -3.8573 -1.9676 -1.4194
   59SAPC  H12Y 4545   4.578   1.096   5.337 -1.8619 -0.6712 -2.6778
   59SAPC  C313 4546   4.508   1.235   5.192 -0.2116 -0.5037  0.6674
   59SAPC  H13X 4547   4.536   1.164   5.112 -0.4122  0.1049  0.0401
   59SAPC  H13Y 4548   4.539   1.335   5.153  0.9297 -0.8678  0.6224
   59SAPC  C314 4549   4.357   1.234   5.219  0.1410  0.7728 -0.3538
   59SAPC  H14X 4550   4.336   1.305   5.302 -1.9001 -0.4345  0.2338
   59SAPC  H14Y 4551   4.321   1.133   5.246 -0.8322  0.3207 -3.0789
   59SAPC  C315 4552   4.277   1.282   5.106 -0.3331 -0.2567 -0.6948
   59SAPC  H15X 4553   4.281   1.201   5.029 -0.0048 -1.2973  0.3908
   59SAPC  H15Y 4554   4.324   1.376   5.071  2.1010 -1.3606 -0.5848
   59SAPC  C316 4555   4.123   1.284   5.135  0.3801 -0.6817 -0.4973
   59SAPC  H16X 4556   4.114   1.319   5.240  0.7062 -3.6012  0.6027
   59SAPC  H16Y 4557   4.075   1.184   5.136  0.7364 -0.8506  0.2153
   59SAPC  C317 4558   4.042   1.365   5.036  0.8011  0.0480 -0.3665
   59SAPC  H17X 4559   4.047   1.327   4.932  3.5024  1.5238 -0.8806
   59SAPC  H17Y 4560   4.067   1.473   5.026 -1.0084  0.3928 -1.6567
   59SAPC  C318 4561   3.890   1.392   5.080  0.6974  0.0014  0.1616
   59SAPC  H18X 4562   3.881   1.437   5.181 -0.6060  0.2387 -0.0398
   59SAPC  H18Y 4563   3.831   1.298   5.086  0.2793  0.3523  2.3111
   59SAPC  H18Z 4564   3.844   1.456   5.001 -2.2633 -2.6321 -0.4420
   60SAPC     N 4565   4.180   1.195   6.735 -0.0119 -0.0679 -0.3274
   60SAPC   C12 4566   4.207   1.188   6.591 -0.5918  0.6254 -0.2631
   60SAPC  H12A 4567   4.285   1.119   6.562  0.3566  1.6730 -0.3150
   60SAPC  H12B 4568   4.265   1.275   6.563  0.2561  0.0395 -0.3737
   60SAPC   C13 4569   4.292   1.242   6.824  0.0195 -0.1624  0.6626
   60SAPC  H13A 4570   4.254   1.252   6.925  2.2756  1.6100  1.3971
   60SAPC  H13B 4571   4.370   1.168   6.823 -1.2208 -1.5821  2.1105
   60SAPC  H13C 4572   4.325   1.340   6.796 -0.9330 -0.0743 -0.2045
   60SAPC   C14 4573   4.069   1.288   6.761 -0.5286 -0.7055 -0.6109
   60SAPC  H14A 4574   4.092   1.392   6.740 -0.6314 -0.9255 -1.9578
   60SAPC  H14B 4575   3.982   1.257   6.705  0.2003 -1.1266 -1.5389
   60SAPC  H14C 4576   4.028   1.293   6.860 -1.2692 -1.3511 -0.8744
   60SAPC   C15 4577   4.146   1.062   6.793 -0.1849  0.0469 -0.0718
   60SAPC  H15A 4578   4.048   1.032   6.760 -0.0900  0.9287 -1.2214
   60SAPC  H15B 4579   4.214   0.984   6.762 -2.3293 -1.6353 -0.7466
   60SAPC  H15C 4580   4.147   1.065   6.901  0.5609  2.7574 -0.0637
   60SAPC   C11 4581   4.097   1.179   6.481 -0.7488 -0.2999 -0.5330
   60SAPC  H11A 4582   4.034   1.088   6.492  1.0122 -1.7356 -1.8221
   60SAPC  H11B 4583   4.148   1.166   6.383 -0.3441  1.5522 -0.6011
   60SAPC     P 4584   4.058   1.430   6.421  0.3825 -0.1381 -0.2193
   60SAPC   O13 4585   3.940   1.526   6.429 -0.5059  0.0921 -0.1966
   60SAPC   O14 4586   4.188   1.469   6.474 -0.2662  0.4422 -0.3782
   60SAPC   O12 4587   4.006   1.292   6.482 -0.3802 -0.2100  0.1879
   60SAPC   O11 4588   4.090   1.388   6.276  0.1486  0.3033  0.2457
   60SAPC    C1 4589   3.983   1.387   6.180  0.0695  0.6716 -0.6058
   60SAPC    HA 4590   3.975   1.283   6.142  1.5424 -0.2517  1.4592
   60SAPC    HB 4591   3.884   1.410   6.227  0.5940  2.9272 -0.4795
   60SAPC    C2 4592   4.010   1.477   6.063  0.1667  0.5862  0.1787
   60SAPC    HS 4593   4.033   1.584   6.083  2.1344  0.5297 -1.4526
   60SAPC   O21 4594   3.898   1.467   5.978 -0.1115  0.5257  0.4023
   60SAPC   C21 4595   3.792   1.537   6.030 -0.3662 -0.0658 -0.9596
   60SAPC   O22 4596   3.800   1.616   6.124 -0.1065 -0.0535 -0.5931
   60SAPC   C22 4597   3.664   1.508   5.949 -0.0491 -0.2145 -0.9112
   60SAPC   H2R 4598   3.584   1.552   6.013  1.1711  1.1045 -0.2292
   60SAPC   H2S 4599   3.665   1.559   5.850 -3.8692 -0.3993 -1.1922
   60SAPC    C3 4600   4.130   1.412   5.984  0.0654 -0.2698 -0.5212
   60SAPC    HX 4601   4.093   1.310   5.959 -0.1078 -1.0033  2.4509
   60SAPC    HY 4602   4.221   1.405   6.047 -0.2051 -1.5538 -0.2556
   60SAPC   O31 4603   4.150   1.483   5.863 -0.1241 -0.5406 -0.0826
   60SAPC   C31 4604   4.223   1.416   5.775  0.5495  0.1169  0.0789
   60SAPC   O32 4605   4.264   1.307   5.799 -0.3981 -0.4255 -0.1363
   60SAPC   C32 4606   4.245   1.496   5.645 -0.5024  0.5804 -0.7561
   60SAPC   H2X 4607   4.353   1.502   5.622 -0.6306 -1.4419 -2.0493
   60SAPC   H2Y 4608   4.226   1.603   5.671  0.8193  0.4329  1.0255
   60SAPC   C23 4609   3.634   1.360   5.917 -0.2560 -0.8584 -0.0416
   60SAPC   H3R 4610   3.732   1.316   5.889 -1.0395 -0.8547 -3.2104
   60SAPC   H3S 4611   3.570   1.357   5.826  0.6935 -1.4075 -0.7170
   60SAPC   C24 4612   3.573   1.281   6.028  0.4554 -0.1171 -0.4495
   60SAPC   H4R 4613   3.630   1.291   6.123  1.0491  0.2486 -0.8342
   60SAPC   H4S 4614   3.572   1.175   5.996 -2.7393 -0.4841  0.5818
   60SAPC   C25 4615   3.437   1.329   6.070  0.0660  1.2885 -0.2568
   60SAPC   H5R 4616   3.426   1.410   6.143 -0.3224  0.8493  0.1803
   60SAPC   C26 4617   3.316   1.274   6.038  0.6285  0.0282 -0.3865
   60SAPC   H6R 4618   3.225   1.327   6.070  1.0349  0.2705  0.3977
   60SAPC   C27 4619   3.299   1.149   5.957  0.2586  0.8865  0.1823
   60SAPC   H7R 4620   3.200   1.099   5.956  1.1956 -1.0637  0.6217
   60SAPC   H7S 4621   3.356   1.071   6.012 -1.5783 -0.6083  0.0940
   60SAPC   C28 4622   3.348   1.153   5.817  0.2526 -0.7163  0.3389
   60SAPC   H8R 4623   3.342   1.254   5.774  0.4554  0.4136  2.7952
   60SAPC   C29 4624   3.423   1.070   5.747 -0.4712  1.0090  0.5006
   60SAPC   H9R 4625   3.459   1.116   5.654 -2.5054  2.6440  0.4646
   60SAPC  C210 4626   3.475   0.933   5.779  0.5074 -1.1586  0.5413
   60SAPC  H10R 4627   3.390   0.866   5.803 -3.5181  2.9861 -0.7666
   60SAPC  H10S 4628   3.543   0.937   5.867  0.7550  0.0739  0.3033
   60SAPC  C211 4629   3.560   0.874   5.666 -0.5846  0.7371 -0.0062
   60SAPC  H11R 4630   3.669   0.862   5.678 -0.5560 -0.9153 -1.4510
   60SAPC  C212 4631   3.515   0.823   5.552 -0.2650  0.6753  0.4011
   60SAPC  H12R 4632   3.587   0.812   5.470 -2.5934 -1.3994 -1.5230
   60SAPC  C213 4633   3.379   0.825   5.505 -0.0159 -0.0617  0.1423
   60SAPC  H13R 4634   3.379   0.874   5.405  1.3416 -2.4170 -1.0900
   60SAPC  H13S 4635   3.321   0.894   5.570  0.9254  0.1220  0.8091
   60SAPC  C214 4636   3.309   0.689   5.506 -0.4805  0.3097 -0.2108
   60SAPC  H14R 4637   3.344   0.615   5.580  1.7294 -1.5256 -2.8551
   60SAPC  C215 4638   3.213   0.645   5.425 -0.3525  0.5773  0.0263
   60SAPC  H15R 4639   3.172   0.547   5.454 -1.7543  1.6645  1.9101
   60SAPC  C216 4640   3.145   0.725   5.313  0.3214 -0.0254 -0.5308
   60SAPC  H16R 4641   3.142   0.835   5.333 -0.7071 -0.1871  0.2789
   60SAPC  H16S 4642   3.038   0.701   5.300  0.8983 -2.5088 -1.1387
   60SAPC  C217 4643   3.227   0.726   5.186  0.0621  0.4692 -0.0017
   60SAPC  H17R 4644   3.256   0.622   5.161  2.2560  1.0451 -0.0707
   60SAPC  H17S 4645   3.319   0.780   5.217  0.5514  0.4894 -1.3962
   60SAPC  C218 4646   3.175   0.789   5.055 -0.1026  0.1669 -1.0978
   60SAPC  H18R 4647   3.147   0.895   5.073  1.1668  0.6520 -1.8626
   60SAPC  H18S 4648   3.091   0.724   5.021  0.8678 -1.0626 -1.2271
   60SAPC  C219 4649   3.278   0.773   4.941 -0.3791  0.6790 -0.7926
   60SAPC  H19R 4650   3.319   0.669   4.945 -2.1748 -0.0295  0.0295
   60SAPC  H19S 4651   3.367   0.837   4.955  1.5830 -2.4494  3.3142
   60SAPC  C220 4652   3.219   0.797   4.803  0.4297  0.0675 -0.0041
   60SAPC  H20R 4653   3.288   0.774   4.719  0.2625  0.7539 -0.3391
   60SAPC  H20S 4654   3.169   0.896   4.797  1.3212  0.4765 -0.9689
   60SAPC  H20T 4655   3.137   0.724   4.787  1.0052 -0.7685  0.7146
   60SAPC   C33 4656   4.177   1.442   5.522  0.2569  0.8386  0.1203
   60SAPC   H3X 4657   4.201   1.333   5.514  2.1318  1.0772  1.7373
   60SAPC   H3Y 4658   4.223   1.492   5.435 -2.9620  1.0990 -1.5733
   60SAPC   C34 4659   4.034   1.487   5.494 -0.0530  0.1551 -0.0718
   60SAPC   H4X 4660   4.004   1.461   5.390 -1.3054  0.8815  0.0887
   60SAPC   H4Y 4661   4.032   1.598   5.499  0.2622  0.3504 -2.7412
   60SAPC   C35 4662   3.926   1.437   5.595  0.1828 -0.2510 -0.1925
   60SAPC   H5X 4663   3.938   1.487   5.693 -2.1819  0.0636 -0.0092
   60SAPC   H5Y 4664   3.956   1.330   5.606  0.7893 -0.3523 -2.2938
   60SAPC   C36 4665   3.780   1.437   5.551 -0.2963 -0.3035  0.6573
   60SAPC   H6X 4666   3.713   1.422   5.638 -1.2649 -0.1258 -0.0419
   60SAPC   H6Y 4667   3.758   1.359   5.474 -1.9316  0.9459 -0.1872
   60SAPC   C37 4668   3.738   1.572   5.487 -0.7525  0.6000  0.4128
   60SAPC   H7X 4669   3.798   1.595   5.396 -0.0584  2.1572  1.2251
   60SAPC   H7Y 4670   3.757   1.656   5.556 -1.1027  1.5456 -0.6228
   60SAPC   C38 4671   3.587   1.565   5.464  0.2770 -0.3702  0.8604
   60SAPC   H8X 4672   3.525   1.572   5.557 -2.4551  0.9550 -0.9252
   60SAPC   H8Y 4673   3.548   1.470   5.422 -0.7840  0.2505  0.3989
   60SAPC   C39 4674   3.544   1.687   5.377 -0.0752 -1.1089  0.8366
   60SAPC   H9X 4675   3.593   1.779   5.416 -0.1012 -1.3664  1.4873
   60SAPC   H9Y 4676   3.436   1.713   5.380 -0.6277 -3.2062  0.2826
   60SAPC  C310 4677   3.579   1.657   5.232  0.3762  0.8053  0.3669
   60SAPC  H10X 4678   3.530   1.563   5.198 -2.6385  2.5384 -0.4391
   60SAPC  H10Y 4679   3.683   1.620   5.221  0.5295  1.8326 -2.5346
   60SAPC  C311 4680   3.563   1.775   5.143 -0.4501 -0.4692 -0.4909
   60SAPC  H11X 4681   3.634   1.857   5.166 -2.1676  0.3348  2.4029
   60SAPC  H11Y 4682   3.470   1.836   5.152  0.7939  1.5573 -0.6473
   60SAPC  C312 4683   3.565   1.735   5.003 -0.1377  0.1814 -0.5450
   60SAPC  H12X 4684   3.495   1.650   4.990 -0.9922  0.7309  0.3514
   60SAPC  H12Y 4685   3.671   1.709   4.983  0.2793  0.7313  0.8204
   60SAPC  C313 4686   3.520   1.852   4.903 -0.6778  0.6140  0.2201
   60SAPC  H13X 4687   3.572   1.950   4.911 -0.2303  0.4050 -0.0796
   60SAPC  H13Y 4688   3.413   1.879   4.918 -0.6955  1.1160 -0.7497
   60SAPC  C314 4689   3.534   1.807   4.756 -0.0326 -0.0077  0.4480
   60SAPC  H14X 4690   3.495   1.706   4.731 -0.1095 -0.1625  1.1742
   60SAPC  H14Y 4691   3.642   1.798   4.734 -0.4930 -0.6433 -1.8959
   60SAPC  C315 4692   3.470   1.909   4.663 -0.2205  0.0201 -0.0910
   60SAPC  H15X 4693   3.483   2.009   4.709  1.6972 -0.6699  0.9795
   60SAPC  H15Y 4694   3.363   1.882   4.672  0.4250 -2.6435  0.5079
   60SAPC  C316 4695   3.515   1.918   4.517 -0.6166  0.4716 -0.7122
   60SAPC  H16X 4696   3.510   1.823   4.461 -1.2352 -0.7754  1.3385
   60SAPC  H16Y 4697   3.622   1.947   4.508  0.9072 -3.7986  1.0527
   60SAPC  C317 4698   3.424   2.008   4.435 -0.0492  0.1309  0.4503
   60SAPC  H17X 4699   3.448   2.114   4.458 -2.5895  1.1276 -0.9776
   60SAPC  H17Y 4700   3.319   1.985   4.464  0.4241 -3.5670 -0.3517
   60SAPC  C318 4701   3.430   2.000   4.280 -0.4008  0.1110 -0.5732
   60SAPC  H18X 4702   3.375   2.086   4.237 -1.3333 -0.1259  0.1265
   60SAPC  H18Y 4703   3.377   1.906   4.254 -0.6590  0.5189 -1.5718
   60SAPC  H18Z 4704   3.539   1.999   4.254 -0.3967  0.2088 -0.5598
   61SAPC     N 4705   2.744   0.196   6.519 -0.2873  0.5409  0.6520
   61SAPC   C12 4706   2.724   0.343   6.504 -0.1615 -0.7493  0.1554
   61SAPC  H12A 4707   2.618   0.363   6.495 -0.0293  0.0200  0.2504
   61SAPC  H12B 4708   2.774   0.376   6.415  2.9155 -0.3989  1.8707
   61SAPC   C13 4709   2.674   0.121   6.414  0.1834  0.0132 -0.1182
   61SAPC  H13A 4710   2.672   0.014   6.429 -1.2862  0.1045  0.4988
   61SAPC  H13B 4711   2.574   0.159   6.402  0.2533 -0.1729 -1.4541
   61SAPC  H13C 4712   2.732   0.124   6.323  0.5711  0.1331  0.1315
   61SAPC   C14 4713   2.894   0.157   6.515  0.3432 -0.4671 -0.0515
   61SAPC  H14A 4714   2.957   0.202   6.590 -0.7443 -0.4965  0.9183
   61SAPC  H14B 4715   2.905   0.052   6.538  0.9383 -1.0592 -2.7203
   61SAPC  H14C 4716   2.940   0.186   6.422 -0.8324  0.0724 -0.4907
   61SAPC   C15 4717   2.693   0.140   6.653 -0.2668  0.0857  0.0969
   61SAPC  H15A 4718   2.747   0.047   6.660  1.3233  0.7602 -2.2457
   61SAPC  H15B 4719   2.714   0.207   6.735 -1.4079 -0.7447  1.1114
   61SAPC  H15C 4720   2.585   0.133   6.650 -0.2483 -0.7981  0.8923
   61SAPC   C11 4721   2.776   0.434   6.619  0.3960 -0.1666  0.3957
   61SAPC  H11A 4722   2.796   0.536   6.581  0.5229 -0.1871  0.4059
   61SAPC  H11B 4723   2.874   0.403   6.661  1.9903  1.2690 -2.0209
   61SAPC     P 4724   2.544   0.508   6.724 -0.0954 -0.3702  0.3591
   61SAPC   O13 4725   2.436   0.405   6.738  0.2593 -0.3610 -0.4276
   61SAPC   O14 4726   2.556   0.602   6.840  0.0891 -0.0040  0.4355
   61SAPC   O12 4727   2.680   0.430   6.727  0.2014 -0.1322 -0.0900
   61SAPC   O11 4728   2.543   0.592   6.587 -0.4747  0.3624 -0.3621
   61SAPC    C1 4729   2.541   0.732   6.584  0.2487 -0.2826 -0.2728
   61SAPC    HA 4730   2.602   0.771   6.667  1.1144 -2.0168 -0.0588
   61SAPC    HB 4731   2.580   0.766   6.485 -1.6085  1.3451 -0.5305
   61SAPC    C2 4732   2.406   0.804   6.606 -0.6251 -0.2517  0.6412
   61SAPC    HS 4733   2.374   0.804   6.713 -0.4150  1.6242  0.7435
   61SAPC   O21 4734   2.313   0.726   6.539  0.5137 -0.0762 -0.2973
   61SAPC   C21 4735   2.193   0.741   6.580  0.2634  0.1114 -0.4757
   61SAPC   O22 4736   2.149   0.828   6.655  0.6567  0.0839  0.2308
   61SAPC   C22 4737   2.107   0.621   6.535  0.0111  0.4422  0.1454
   61SAPC   H2R 4738   2.086   0.555   6.622  0.0451 -1.8845 -1.5193
   61SAPC   H2S 4739   2.014   0.668   6.496  0.1334 -1.4419 -2.6955
   61SAPC    C3 4740   2.399   0.955   6.549  0.0066  0.3510  0.3155
   61SAPC    HX 4741   2.468   1.023   6.603  1.8199  0.2918 -1.7682
   61SAPC    HY 4742   2.297   1.000   6.555 -0.6718 -0.9899 -0.7252
   61SAPC   O31 4743   2.445   0.956   6.412  0.4765 -0.0916  0.2758
   61SAPC   C31 4744   2.351   0.935   6.321 -0.3797 -0.4183  0.2224
   61SAPC   O32 4745   2.229   0.926   6.341 -0.0939  0.7210 -0.3651
   61SAPC   C32 4746   2.403   0.941   6.181  0.1093  0.6227 -0.1891
   61SAPC   H2X 4747   2.312   0.916   6.123  0.1973 -0.9134  0.2890
   61SAPC   H2Y 4748   2.483   0.864   6.178 -0.4031 -0.4134  4.5688
   61SAPC   C23 4749   2.177   0.541   6.425  0.3732  0.3207 -0.0349
   61SAPC   H3R 4750   2.136   0.438   6.432 -1.7828  1.1379  0.1336
   61SAPC   H3S 4751   2.287   0.533   6.431  0.3079 -1.8960 -0.9068
   61SAPC   C24 4752   2.140   0.587   6.279 -0.0660  0.2952  0.3120
   61SAPC   H4R 4753   2.217   0.656   6.241  1.5035 -1.7538 -0.4500
   61SAPC   H4S 4754   2.040   0.633   6.281 -0.5397 -0.6724 -0.1742
   61SAPC   C25 4755   2.133   0.464   6.189 -0.1223 -0.7685  0.3492
   61SAPC   H5R 4756   2.035   0.414   6.192 -0.7827  0.5012  0.6211
   61SAPC   C26 4757   2.223   0.437   6.088 -0.0804  0.0696 -0.0921
   61SAPC   H6R 4758   2.199   0.350   6.025 -1.1909 -0.4859  1.0534
   61SAPC   C27 4759   2.337   0.523   6.034 -0.0391  1.3026 -0.2582
   61SAPC   H7R 4760   2.408   0.457   5.980  0.1671  0.3058  1.1656
   61SAPC   H7S 4761   2.403   0.568   6.111  0.2482  1.1150 -0.3923
   61SAPC   C28 4762   2.283   0.635   5.948  0.3043  0.3251 -0.1819
   61SAPC   H8R 4763   2.196   0.691   5.984  2.2094  3.5645 -0.2905
   61SAPC   C29 4764   2.332   0.679   5.831 -0.2119 -0.3891  0.0499
   61SAPC   H9R 4765   2.289   0.770   5.787 -0.9170  0.3911  2.2486
   61SAPC  C210 4766   2.455   0.632   5.758 -0.4751 -0.2457 -0.4400
   61SAPC  H10R 4767   2.433   0.554   5.683 -0.9814  0.9132 -1.5310
   61SAPC  H10S 4768   2.531   0.589   5.827 -0.9712  0.4455  0.5761
   61SAPC  C211 4769   2.533   0.744   5.682  0.6472  0.0210 -0.8336
   61SAPC  H11R 4770   2.595   0.808   5.745  1.4124 -2.0205  0.6014
   61SAPC  C212 4771   2.540   0.753   5.551 -0.2147  0.0836  0.6458
   61SAPC  H12R 4772   2.587   0.845   5.515 -0.2878 -1.0559 -2.6373
   61SAPC  C213 4773   2.470   0.675   5.437 -0.0863  0.4658 -0.6906
   61SAPC  H13R 4774   2.363   0.658   5.460  0.2784 -2.1218 -0.5562
   61SAPC  H13S 4775   2.497   0.569   5.418 -2.6265  0.1015 -2.7465
   61SAPC  C214 4776   2.462   0.745   5.302  0.0637  0.3122 -0.1665
   61SAPC  H14R 4777   2.361   0.730   5.260 -0.0751 -0.8156  0.5157
   61SAPC  C215 4778   2.555   0.808   5.225 -0.5649  0.0224  0.4895
   61SAPC  H15R 4779   2.533   0.871   5.138  1.7570  0.2156 -0.0194
   61SAPC  C216 4780   2.706   0.824   5.257  0.3199 -0.0761  0.5847
   61SAPC  H16R 4781   2.772   0.778   5.181  0.7822  1.1200  0.2577
   61SAPC  H16S 4782   2.728   0.780   5.357 -1.5412  0.8036  1.4427
   61SAPC  C217 4783   2.745   0.975   5.271 -0.5168 -0.0711 -0.0524
   61SAPC  H17R 4784   2.669   1.033   5.327 -0.3805 -1.0889  1.2400
   61SAPC  H17S 4785   2.751   1.018   5.169 -0.4392 -1.0414 -0.4717
   61SAPC  C218 4786   2.880   1.003   5.332  0.0900  0.8403  0.0841
   61SAPC  H18R 4787   2.896   1.112   5.342  0.9143  0.7209  0.1210
   61SAPC  H18S 4788   2.952   0.955   5.262 -0.6166 -1.3273  0.7517
   61SAPC  C219 4789   2.900   0.946   5.472 -0.1332 -0.1749  0.9588
   61SAPC  H19R 4790   3.009   0.948   5.495  0.5672 -4.8540 -0.8415
   61SAPC  H19S 4791   2.882   0.836   5.475 -0.7221 -0.1093  0.1400
   61SAPC  C220 4792   2.816   1.019   5.576 -0.1720  0.1882  0.3805
   61SAPC  H20R 4793   2.814   0.957   5.669 -0.0139 -1.3699 -0.6234
   61SAPC  H20S 4794   2.708   1.022   5.549 -0.7107 -0.5447  2.2495
   61SAPC  H20T 4795   2.853   1.121   5.597 -1.0762  0.3051  1.5835
   61SAPC   C33 4796   2.461   1.076   6.139  0.2999 -0.3707  0.3298
   61SAPC   H3X 4797   2.548   1.102   6.203 -0.2024 -0.1615  0.9330
   61SAPC   H3Y 4798   2.378   1.147   6.159 -0.0968 -0.6331 -0.3844
   61SAPC   C34 4799   2.500   1.094   5.991  0.5396 -0.6575 -0.0791
   61SAPC   H4X 4800   2.581   1.022   5.969  0.9560 -0.2912  0.2425
   61SAPC   H4Y 4801   2.542   1.194   5.966  1.3440 -1.3399 -1.6479
   61SAPC   C35 4802   2.393   1.060   5.884 -0.0091  0.4327 -0.2015
   61SAPC   H5X 4803   2.296   1.103   5.917  0.1151 -1.0680  2.3652
   61SAPC   H5Y 4804   2.370   0.952   5.877 -1.7179  0.7872 -0.4227
   61SAPC   C36 4805   2.430   1.105   5.741  0.1323  0.3251 -0.6084
   61SAPC   H6X 4806   2.532   1.067   5.720 -0.0009 -0.7470  0.5517
   61SAPC   H6Y 4807   2.437   1.215   5.730 -3.0159  0.4281 -2.7569
   61SAPC   C37 4808   2.341   1.058   5.622 -0.7473 -0.0559  0.5225
   61SAPC   H7X 4809   2.237   1.080   5.652 -0.9760 -0.2404 -0.1137
   61SAPC   H7Y 4810   2.354   0.949   5.604  0.6395  0.3358 -1.1867
   61SAPC   C38 4811   2.383   1.123   5.497  0.2679 -0.2397 -0.3160
   61SAPC   H8X 4812   2.487   1.093   5.473  0.8832  2.7991 -2.0162
   61SAPC   H8Y 4813   2.378   1.233   5.513 -1.2951 -0.5257  1.4959
   61SAPC   C39 4814   2.298   1.091   5.368  0.4598  0.4495  0.4521
   61SAPC   H9X 4815   2.199   1.138   5.383 -0.1306 -0.4446 -0.4974
   61SAPC   H9Y 4816   2.275   0.983   5.377  0.4100  0.3763 -0.4566
   61SAPC  C310 4817   2.379   1.140   5.243  0.4252 -0.1826  0.6531
   61SAPC  H10X 4818   2.490   1.137   5.241  0.7290  4.1872 -0.5943
   61SAPC  H10Y 4819   2.364   1.250   5.237  0.4959 -0.1339  1.2540
   61SAPC  C311 4820   2.309   1.093   5.112 -0.2301  0.3090  0.2331
   61SAPC  H11X 4821   2.199   1.108   5.119 -0.1710  0.1163  1.8023
   61SAPC  H11Y 4822   2.332   0.985   5.106  2.2878  0.5691  2.8816
   61SAPC  C312 4823   2.380   1.159   4.990 -0.0074  0.5656  0.5733
   61SAPC  H12X 4824   2.476   1.104   4.981 -0.8098 -0.6498 -1.0767
   61SAPC  H12Y 4825   2.408   1.266   5.000  0.3658  0.7081 -1.5847
   61SAPC  C313 4826   2.310   1.129   4.854  0.2599  0.1180 -0.1933
   61SAPC  H13X 4827   2.364   1.186   4.775 -0.5266 -0.0159 -0.8513
   61SAPC  H13Y 4828   2.208   1.175   4.854  0.9466  1.7337 -0.3696
   61SAPC  C314 4829   2.306   0.986   4.802  0.3350 -0.1584 -0.0971
   61SAPC  H14X 4830   2.242   0.927   4.871 -0.0291 -2.4431 -2.2513
   61SAPC  H14Y 4831   2.408   0.942   4.802 -0.0765 -1.1816 -1.2795
   61SAPC  C315 4832   2.245   0.981   4.660  0.2320 -1.0506 -0.2455
   61SAPC  H15X 4833   2.284   1.065   4.599 -0.7278 -0.3076  0.1357
   61SAPC  H15Y 4834   2.141   1.019   4.655 -0.9349 -4.0321 -0.7582
   61SAPC  C316 4835   2.281   0.858   4.578  0.0082  0.5127  0.7871
   61SAPC  H16X 4836   2.228   0.763   4.599 -1.2014  0.9354 -0.2618
   61SAPC  H16Y 4837   2.387   0.825   4.586 -0.0534  0.0324 -0.2368
   61SAPC  C317 4838   2.244   0.878   4.430  0.2727  0.2931  0.0980
   61SAPC  H17X 4839   2.302   0.963   4.388 -0.1212 -0.2055 -1.5239
   61SAPC  H17Y 4840   2.142   0.919   4.440 -0.2059 -0.6268 -0.8053
   61SAPC  C318 4841   2.224   0.750   4.348  0.2175  0.1857  0.4898
   61SAPC  H18X 4842   2.186   0.780   4.248 -0.6733 -1.0018  0.4476
   61SAPC  H18Y 4843   2.151   0.680   4.395  1.6898 -1.3780  0.5512
   61SAPC  H18Z 4844   2.323   0.701   4.334 -0.5730 -1.2096 -0.4527
   62SAPC     N 4845   3.714   5.067   6.772  0.1540  0.2357 -0.3655
   62SAPC   C12 4846   3.670   5.082   6.626  0.1441 -0.4117  0.0464
   62SAPC  H12A 4847   3.705   4.994   6.575  0.2312  0.1968 -0.9518
   62SAPC  H12B 4848   3.717   5.169   6.585 -0.2871  0.6291  1.6512
   62SAPC   C13 4849   3.665   4.938   6.820  0.4572 -0.4221 -0.6964
   62SAPC  H13A 4850   3.664   4.940   6.928 -0.5067  0.2328 -0.7082
   62SAPC  H13B 4851   3.559   4.937   6.802 -0.1211  0.9635  1.9544
   62SAPC  H13C 4852   3.727   4.856   6.789  0.1190 -0.7971 -0.3806
   62SAPC   C14 4853   3.864   5.079   6.784  0.5382  0.0549 -0.2657
   62SAPC  H14A 4854   3.909   5.011   6.713  1.8180  1.0366 -0.4453
   62SAPC  H14B 4855   3.897   5.182   6.772  1.5637 -0.5255 -3.3962
   62SAPC  H14C 4856   3.899   5.055   6.883 -1.4377 -0.2149  0.4082
   62SAPC   C15 4857   3.654   5.178   6.849 -0.2529  0.0276  0.8412
   62SAPC  H15A 4858   3.714   5.267   6.836  1.6499 -1.1774  1.0690
   62SAPC  H15B 4859   3.552   5.201   6.822  0.1231  1.5578  0.6055
   62SAPC  H15C 4860   3.650   5.150   6.953  0.1223 -0.5136  0.7117
   62SAPC   C11 4861   3.518   5.090   6.586 -0.4763  0.1977  0.4513
   62SAPC  H11A 4862   3.505   5.077   6.476 -2.5672 -1.3998  0.7979
   62SAPC  H11B 4863   3.483   5.193   6.608  1.9160  0.8966  1.2558
   62SAPC     P 4864   3.319   4.921   6.558  0.2977  0.0770  0.2953
   62SAPC   O13 4865   3.269   4.808   6.639 -0.0558  0.3517 -0.0459
   62SAPC   O14 4866   3.223   5.023   6.525 -0.5019  0.3954 -0.0827
   62SAPC   O12 4867   3.431   4.995   6.640 -0.2447  0.2274 -0.3320
   62SAPC   O11 4868   3.384   4.875   6.424 -0.3351  0.6658  0.6361
   62SAPC    C1 4869   3.511   4.795   6.417  0.0057  0.4026 -0.0361
   62SAPC    HA 4870   3.603   4.852   6.445  0.0175  0.0088  0.7731
   62SAPC    HB 4871   3.497   4.695   6.464 -2.3543 -0.0752 -1.6009
   62SAPC    C2 4872   3.536   4.758   6.263 -0.6350 -0.0894 -0.6407
   62SAPC    HS 4873   3.620   4.684   6.263  0.0549  0.6821 -0.3202
   62SAPC   O21 4874   3.566   4.875   6.188 -0.0087 -0.4154  0.4413
   62SAPC   C21 4875   3.689   4.911   6.187  0.5777 -0.3578 -0.0394
   62SAPC   O22 4876   3.780   4.854   6.251  0.2586  0.1654  0.4054
   62SAPC   C22 4877   3.699   5.051   6.122  0.4966 -0.0821 -0.5654
   62SAPC   H2R 4878   3.602   5.105   6.129  0.6260  0.0992 -0.1300
   62SAPC   H2S 4879   3.778   5.101   6.182  0.1645 -0.4878  0.2232
   62SAPC    C3 4880   3.406   4.696   6.200  0.0777  0.4441 -0.0716
   62SAPC    HX 4881   3.335   4.774   6.165  0.1247 -0.1751 -1.5959
   62SAPC    HY 4882   3.356   4.639   6.281 -0.9144  0.1556 -0.8630
   62SAPC   O31 4883   3.435   4.609   6.086 -0.3221 -0.2823  0.3543
   62SAPC   C31 4884   3.351   4.507   6.046 -0.5891 -0.6211 -0.1373
   62SAPC   O32 4885   3.238   4.501   6.085  0.1675  0.1947  0.2972
   62SAPC   C32 4886   3.416   4.422   5.936 -0.3786 -0.8428 -0.0057
   62SAPC   H2X 4887   3.476   4.352   5.998  1.7132  0.2854 -0.6446
   62SAPC   H2Y 4888   3.484   4.480   5.870  1.7394 -1.0755  1.8419
   62SAPC   C23 4889   3.745   5.025   5.984 -0.2376  0.4995  0.1493
   62SAPC   H3R 4890   3.656   5.014   5.919 -1.6798  2.3476  1.6773
   62SAPC   H3S 4891   3.812   4.939   5.966 -1.0162  0.2632 -1.9037
   62SAPC   C24 4892   3.835   5.143   5.938  0.2630 -0.1550  0.0441
   62SAPC   H4R 4893   3.891   5.120   5.845  1.4945  3.9464 -0.4134
   62SAPC   H4S 4894   3.909   5.161   6.019  0.2710 -2.6216  0.6567
   62SAPC   C25 4895   3.756   5.269   5.916 -0.3704 -0.9377 -0.4343
   62SAPC   H5R 4896   3.711   5.304   6.011  0.1956  2.1728 -1.1829
   62SAPC   C26 4897   3.744   5.345   5.801 -1.1380  0.0826 -0.0855
   62SAPC   H6R 4898   3.690   5.441   5.797 -3.6905 -1.2861 -1.5500
   62SAPC   C27 4899   3.799   5.309   5.667 -0.7384  0.4938  0.2357
   62SAPC   H7R 4900   3.772   5.203   5.647 -0.0186  0.5122 -0.8915
   62SAPC   H7S 4901   3.909   5.294   5.672 -0.8243 -0.5900 -0.8809
   62SAPC   C28 4902   3.754   5.400   5.552 -0.2023  0.2413 -0.1079
   62SAPC   H8R 4903   3.702   5.494   5.578 -2.7773 -1.2173  0.3566
   62SAPC   C29 4904   3.759   5.374   5.420 -0.3955 -0.2352 -0.1860
   62SAPC   H9R 4905   3.725   5.454   5.352  0.4861  2.2558  2.1124
   62SAPC  C210 4906   3.821   5.240   5.369 -0.6309 -0.4522  0.0271
   62SAPC  H10R 4907   3.894   5.212   5.447 -0.9929  0.5650  0.7549
   62SAPC  H10S 4908   3.882   5.262   5.278 -0.2134  0.0785  0.4294
   62SAPC  C211 4909   3.713   5.132   5.355 -0.3198 -0.1293 -0.1765
   62SAPC  H11R 4910   3.631   5.138   5.428 -3.1019 -1.4289 -2.9859
   62SAPC  C212 4911   3.721   5.032   5.270  0.5504 -0.3559 -0.1636
   62SAPC  H12R 4912   3.640   4.959   5.284  1.0339 -0.8125  0.2443
   62SAPC  C213 4913   3.833   5.014   5.170  0.2419 -0.0439 -0.3856
   62SAPC  H13R 4914   3.921   5.076   5.196  0.7569 -1.7361  2.2298
   62SAPC  H13S 4915   3.803   5.057   5.072 -2.2416 -0.4426  0.1371
   62SAPC  C214 4916   3.867   4.866   5.148 -0.8226  0.1659  0.1201
   62SAPC  H14R 4917   3.873   4.797   5.234  1.7668 -1.5981 -1.3222
   62SAPC  C215 4918   3.879   4.798   5.034 -0.6501 -0.2117  0.4263
   62SAPC  H15R 4919   3.906   4.692   5.040 -0.4198 -0.1931 -0.1456
   62SAPC  C216 4920   3.870   4.868   4.897  0.3024  0.3133 -0.7197
   62SAPC  H16R 4921   3.844   4.976   4.901  0.8252  0.4296 -0.4132
   62SAPC  H16S 4922   3.784   4.819   4.847 -1.4735  0.7537  1.7125
   62SAPC  C217 4923   4.004   4.867   4.812  0.5739  0.1081  0.2177
   62SAPC  H17R 4924   3.993   4.919   4.714  1.4218 -1.6247 -0.8293
   62SAPC  H17S 4925   4.032   4.761   4.795 -1.1722 -0.1232 -1.5606
   62SAPC  C218 4926   4.122   4.940   4.882  0.0752 -0.8091  0.2547
   62SAPC  H18R 4927   4.141   4.900   4.983 -2.2423  0.3969  1.2455
   62SAPC  H18S 4928   4.080   5.041   4.905 -0.0191 -0.5233 -1.0879
   62SAPC  C219 4929   4.243   4.957   4.795 -0.1048  0.5245  0.5520
   62SAPC  H19R 4930   4.218   5.004   4.698  0.0292  0.8720  0.6848
   62SAPC  H19S 4931   4.297   4.861   4.777 -0.3326  0.4945  0.0010
   62SAPC  C220 4932   4.343   5.053   4.869  0.2034  0.0952  0.0747
   62SAPC  H20R 4933   4.433   5.079   4.809 -0.8233  2.5410 -0.5273
   62SAPC  H20S 4934   4.379   5.005   4.962  4.0925  2.0194 -0.2515
   62SAPC  H20T 4935   4.289   5.145   4.898  0.2926 -0.5774  2.5973
   62SAPC   C33 4936   3.320   4.337   5.838  0.5059 -0.5526 -0.0381
   62SAPC   H3X 4937   3.290   4.395   5.748 -0.2708 -2.0722 -0.8114
   62SAPC   H3Y 4938   3.233   4.297   5.895  0.3765 -0.3886 -0.1205
   62SAPC   C34 4939   3.416   4.220   5.800 -0.0541 -0.2387 -0.1830
   62SAPC   H4X 4940   3.425   4.152   5.887  2.9138  2.8079  2.1496
   62SAPC   H4Y 4941   3.512   4.277   5.799  0.0403  0.0009  4.0803
   62SAPC   C35 4942   3.385   4.167   5.666  0.1928 -0.1609  0.3547
   62SAPC   H5X 4943   3.385   4.256   5.600  0.3949  1.4220  2.4045
   62SAPC   H5Y 4944   3.288   4.112   5.671 -0.3785  0.5518 -1.8537
   62SAPC   C36 4945   3.476   4.050   5.614  0.6493  0.0707  0.4306
   62SAPC   H6X 4946   3.474   3.969   5.690 -2.4637  1.7551  2.3435
   62SAPC   H6Y 4947   3.574   4.090   5.582 -0.5396  2.6944 -0.1951
   62SAPC   C37 4948   3.407   4.005   5.490 -0.3558  0.1934 -0.1478
   62SAPC   H7X 4949   3.381   4.083   5.415 -2.9329 -0.3268  0.0860
   62SAPC   H7Y 4950   3.311   3.956   5.519  0.3478 -0.6318  0.8234
   62SAPC   C38 4951   3.494   3.897   5.422 -0.5522  0.0352  0.3102
   62SAPC   H8X 4952   3.505   3.816   5.497 -1.4494  0.4946  0.9430
   62SAPC   H8Y 4953   3.595   3.939   5.402 -0.1687 -0.3945  1.3195
   62SAPC   C39 4954   3.436   3.833   5.293  0.1211  0.2699  0.3586
   62SAPC   H9X 4955   3.344   3.772   5.311 -0.3918  0.3676 -1.6813
   62SAPC   H9Y 4956   3.508   3.757   5.256 -0.0738  0.9342 -1.4865
   62SAPC  C310 4957   3.408   3.931   5.174 -0.0994  0.9298 -0.2410
   62SAPC  H10X 4958   3.508   3.973   5.149  0.1412 -0.2123 -1.2942
   62SAPC  H10Y 4959   3.345   4.020   5.197 -1.2631 -0.3130  1.6655
   62SAPC  C311 4960   3.355   3.849   5.053 -0.2461 -0.5584 -0.7835
   62SAPC  H11X 4961   3.249   3.824   5.073 -1.2750  2.3746 -2.0791
   62SAPC  H11Y 4962   3.421   3.759   5.047 -0.5234 -0.9372  1.1629
   62SAPC  C312 4963   3.365   3.914   4.915 -0.5290 -0.3043  0.0087
   62SAPC  H12X 4964   3.319   4.014   4.926 -0.2358 -0.0127 -1.2583
   62SAPC  H12Y 4965   3.298   3.854   4.850 -1.1939 -1.2894  1.5343
   62SAPC  C313 4966   3.500   3.925   4.851 -0.2190 -0.1243 -0.7596
   62SAPC  H13X 4967   3.524   3.824   4.811  0.3119 -0.8515  1.2741
   62SAPC  H13Y 4968   3.583   3.949   4.922 -0.7660  0.1927 -0.2170
   62SAPC  C314 4969   3.504   4.035   4.746 -0.3020  0.2377 -0.4343
   62SAPC  H14X 4970   3.419   4.031   4.675  0.0691  2.0587 -1.0384
   62SAPC  H14Y 4971   3.584   4.014   4.671 -0.3498 -3.6099  0.3776
   62SAPC  C315 4972   3.504   4.181   4.800 -0.2524 -1.1435  0.2067
   62SAPC  H15X 4973   3.413   4.208   4.858  0.9041  0.6312  1.2830
   62SAPC  H15Y 4974   3.491   4.245   4.711 -0.9895 -3.5559 -1.5331
   62SAPC  C316 4975   3.630   4.238   4.877  0.0436  0.2129  0.7426
   62SAPC  H16X 4976   3.721   4.200   4.826  1.6202  3.1604  1.1944
   62SAPC  H16Y 4977   3.635   4.197   4.980  0.7641  1.3934  1.1942
   62SAPC  C317 4978   3.632   4.393   4.886  0.4821  0.0129  0.2533
   62SAPC  H17X 4979   3.539   4.425   4.938 -0.0453 -0.2651 -0.5027
   62SAPC  H17Y 4980   3.628   4.429   4.781  1.9668  1.8469  0.7708
   62SAPC  C318 4981   3.742   4.457   4.973  0.8942  0.0656 -0.2759
   62SAPC  H18X 4982   3.830   4.498   4.918  0.7367  1.6737  0.6059
   62SAPC  H18Y 4983   3.781   4.381   5.044 -2.4719  2.3443  4.5416
   62SAPC  H18Z 4984   3.705   4.539   5.038  0.0067 -1.6416  1.4719
   63SAPC     N 4985   5.628   1.026   6.826 -0.2683  0.5952 -0.3807
   63SAPC   C12 4986   5.611   0.884   6.770 -0.6585  0.7058 -0.7639
   63SAPC  H12A 4987   5.708   0.840   6.789 -0.5072  1.8426  1.3369
   63SAPC  H12B 4988   5.599   0.882   6.663  1.3539  0.6242 -1.0377
   63SAPC   C13 4989   5.499   1.100   6.808 -0.0771 -0.5451 -0.3502
   63SAPC  H13A 4990   5.419   1.047   6.857 -0.7550  0.5207 -0.2682
   63SAPC  H13B 4991   5.523   1.198   6.847 -0.9705 -0.1250 -0.8398
   63SAPC  H13C 4992   5.477   1.117   6.704 -2.5022  1.8372  0.4182
   63SAPC   C14 4993   5.673   1.026   6.967  0.0050  0.2270  0.1065
   63SAPC  H14A 4994   5.682   1.123   7.012  0.1351 -0.5333  1.7943
   63SAPC  H14B 4995   5.609   0.974   7.037 -1.0627  1.5322  0.1283
   63SAPC  H14C 4996   5.770   0.977   6.967 -0.2964 -0.6020 -3.0719
   63SAPC   C15 4997   5.727   1.096   6.740  0.1440  0.4557  0.1238
   63SAPC  H15A 4998   5.760   1.194   6.773  0.2916  0.2497  0.5953
   63SAPC  H15B 4999   5.815   1.034   6.731  1.0719  1.7142  0.2063
   63SAPC  H15C 5000   5.687   1.101   6.640  1.8219  1.3302 -0.5483
   63SAPC   C11 5001   5.498   0.795   6.834 -0.0306 -0.0551  0.4237
   63SAPC  H11A 5002   5.515   0.779   6.943  2.5627 -0.2264  0.0434
   63SAPC  H11B 5003   5.517   0.696   6.787 -0.9156 -0.1374  0.2156
   63SAPC     P 5004   5.288   0.801   6.680 -0.1390  0.2587  0.1518
   63SAPC   O13 5005   5.268   0.657   6.663 -0.2441  0.2551  0.2424
   63SAPC   O14 5006   5.167   0.884   6.670  0.5487  0.2882 -0.1200
   63SAPC   O12 5007   5.368   0.850   6.811  0.3046  0.5595  0.2570
   63SAPC   O11 5008   5.386   0.839   6.572  0.9201  0.1070 -0.0247
   63SAPC    C1 5009   5.477   0.759   6.497  0.3687  0.1626  0.3393
   63SAPC    HA 5010   5.573   0.811   6.479  0.3540  0.3673  0.8430
   63SAPC    HB 5011   5.494   0.658   6.539 -0.4465  0.3549  1.1572
   63SAPC    C2 5012   5.406   0.737   6.368 -0.7268  0.8734  0.7211
   63SAPC    HS 5013   5.314   0.676   6.380 -0.3385  0.0842 -0.2099
   63SAPC   O21 5014   5.494   0.664   6.275  0.0246  0.3214 -0.5245
   63SAPC   C21 5015   5.428   0.586   6.180 -0.6495  0.0937 -0.0292
   63SAPC   O22 5016   5.310   0.575   6.179 -0.2751  0.0940  0.2425
   63SAPC   C22 5017   5.530   0.520   6.085  1.3694  0.7089  0.1522
   63SAPC   H2R 5018   5.620   0.519   6.150  0.9726  0.5028  0.7031
   63SAPC   H2S 5019   5.497   0.417   6.063  1.9443  0.8286 -1.4175
   63SAPC    C3 5020   5.364   0.872   6.302 -0.5080  0.0135  0.4429
   63SAPC    HX 5021   5.454   0.928   6.270  0.8938 -0.8022  2.7013
   63SAPC    HY 5022   5.311   0.939   6.374 -0.8285  0.0102  0.2155
   63SAPC   O31 5023   5.274   0.849   6.188 -0.1792 -0.3004 -0.2755
   63SAPC   C31 5024   5.148   0.813   6.214  0.4994 -1.3363  0.8856
   63SAPC   O32 5025   5.092   0.811   6.325 -0.0168 -0.9414  0.2050
   63SAPC   C32 5026   5.073   0.769   6.082 -0.2300  0.0992 -0.2497
   63SAPC   H2X 5027   4.965   0.772   6.107  0.2220 -2.3607  2.5998
   63SAPC   H2Y 5028   5.096   0.661   6.074 -1.8729 -0.2394 -0.6347
   63SAPC   C23 5029   5.546   0.602   5.962  0.1583  0.3824  0.1323
   63SAPC   H3R 5030   5.652   0.591   5.930 -0.3212 -2.8052 -0.7289
   63SAPC   H3S 5031   5.534   0.709   5.986  0.1382  0.5888 -0.7366
   63SAPC   C24 5032   5.443   0.559   5.854 -0.5192 -0.1129  0.5344
   63SAPC   H4R 5033   5.434   0.649   5.789  1.8966  0.3556  0.7538
   63SAPC   H4S 5034   5.345   0.534   5.901 -2.0826  0.8986 -1.9628
   63SAPC   C25 5035   5.473   0.438   5.761 -0.0098 -0.3690  0.0459
   63SAPC   H5R 5036   5.479   0.346   5.821  1.9311  1.2992  2.6417
   63SAPC   C26 5037   5.495   0.432   5.628 -0.4402  0.6595 -0.2556
   63SAPC   H6R 5038   5.514   0.330   5.591 -0.9641  0.3582  0.2875
   63SAPC   C27 5039   5.502   0.539   5.519 -0.7704  0.5830 -0.3540
   63SAPC   H7R 5040   5.518   0.637   5.568 -0.6972  0.5247 -0.2611
   63SAPC   H7S 5041   5.399   0.545   5.476 -1.4031 -0.9128  0.8680
   63SAPC   C28 5042   5.613   0.506   5.419 -0.6344  0.3010 -0.4884
   63SAPC   H8R 5043   5.719   0.507   5.445 -0.5050  0.7187 -1.0116
   63SAPC   C29 5044   5.593   0.505   5.276 -0.2543  0.0505 -0.2921
   63SAPC   H9R 5045   5.682   0.477   5.218  0.7939  0.8988  0.8398
   63SAPC  C210 5046   5.465   0.517   5.198  1.2421 -0.5393  0.6201
   63SAPC  H10R 5047   5.390   0.440   5.228 -0.0751  0.9669  1.3638
   63SAPC  H10S 5048   5.482   0.502   5.089 -0.9323 -0.1545  0.1786
   63SAPC  C211 5049   5.402   0.650   5.232  0.2422 -0.3569  0.3443
   63SAPC  H11R 5050   5.427   0.688   5.332  1.2579  1.5981 -0.5965
   63SAPC  C212 5051   5.319   0.728   5.153  0.0203  0.9613  0.3507
   63SAPC  H12R 5052   5.276   0.825   5.182 -1.5965 -0.0050  1.3368
   63SAPC  C213 5053   5.290   0.694   5.011 -0.1550  0.1974  0.6834
   63SAPC  H13R 5054   5.187   0.727   4.987 -0.3994 -0.3591  0.9491
   63SAPC  H13S 5055   5.288   0.583   5.010  0.1753  0.1561 -2.0962
   63SAPC  C214 5056   5.396   0.756   4.922  0.0419 -0.4949 -0.4769
   63SAPC  H14R 5057   5.497   0.744   4.963  0.5952 -3.2898 -2.3706
   63SAPC  C215 5058   5.383   0.817   4.798 -0.0089  0.7163  0.1118
   63SAPC  H15R 5059   5.478   0.839   4.746  0.0244  0.2225 -0.0400
   63SAPC  C216 5060   5.246   0.818   4.730 -0.5515 -0.1100  0.4365
   63SAPC  H16R 5061   5.206   0.921   4.717  0.1232  0.1074  0.0054
   63SAPC  H16S 5062   5.164   0.770   4.788  0.4709 -0.9323  1.2433
   63SAPC  C217 5063   5.236   0.753   4.592  0.3653 -0.4902 -0.4750
   63SAPC  H17R 5064   5.320   0.802   4.537  0.5492  1.3183  1.2838
   63SAPC  H17S 5065   5.142   0.780   4.540  0.0524  1.5858  1.0554
   63SAPC  C218 5066   5.252   0.599   4.599  0.4240 -0.0877  0.5284
   63SAPC  H18R 5067   5.165   0.566   4.659  2.2151 -1.5214  2.4839
   63SAPC  H18S 5068   5.346   0.563   4.645  1.2902  1.1549 -0.2071
   63SAPC  C219 5069   5.246   0.531   4.464  0.1840 -0.0454 -0.0696
   63SAPC  H19R 5070   5.345   0.524   4.414  1.0890 -1.6044  1.7661
   63SAPC  H19S 5071   5.190   0.590   4.389 -0.4725  0.0724  0.4989
   63SAPC  C220 5072   5.177   0.395   4.475  0.2117  0.0713 -0.0812
   63SAPC  H20R 5073   5.232   0.330   4.547  0.4837  0.4471  0.0571
   63SAPC  H20S 5074   5.179   0.339   4.379 -0.3559 -0.6169  0.3027
   63SAPC  H20T 5075   5.073   0.415   4.506  0.2276 -1.1405  0.8158
   63SAPC   C33 5076   5.124   0.832   5.953 -0.2265 -0.5198  0.9232
   63SAPC   H3X 5077   5.233   0.855   5.958 -0.3055  1.3286 -2.6302
   63SAPC   H3Y 5078   5.075   0.930   5.939 -1.4596 -1.3059 -0.5369
   63SAPC   C34 5079   5.103   0.736   5.827  0.6913 -0.0170 -0.3064
   63SAPC   H4X 5080   4.992   0.731   5.836  0.5694  1.0443 -0.9293
   63SAPC   H4Y 5081   5.161   0.643   5.843  1.3526  0.5920  1.0588
   63SAPC   C35 5082   5.130   0.810   5.694 -0.5449  0.9031 -0.0287
   63SAPC   H5X 5083   5.239   0.834   5.694 -0.1803 -0.2556  3.0168
   63SAPC   H5Y 5084   5.075   0.906   5.692  0.9458  1.9328  2.7025
   63SAPC   C36 5085   5.096   0.722   5.577 -0.1019 -0.5269 -0.6765
   63SAPC   H6X 5086   5.006   0.660   5.596 -0.5160  0.2331 -0.0877
   63SAPC   H6Y 5087   5.179   0.650   5.562  0.9902  0.6008 -0.2056
   63SAPC   C37 5088   5.063   0.813   5.459 -0.8750 -0.1433  0.7911
   63SAPC   H7X 5089   5.151   0.860   5.411 -0.2739  0.2601  2.2169
   63SAPC   H7Y 5090   4.998   0.895   5.499  1.2779  0.3913  3.5452
   63SAPC   C38 5091   4.999   0.737   5.348 -0.3450  0.2214  0.3523
   63SAPC   H8X 5092   4.903   0.691   5.379 -0.7677  0.6377 -0.3085
   63SAPC   H8Y 5093   5.064   0.655   5.310 -0.0804  1.0083 -0.9649
   63SAPC   C39 5094   4.943   0.829   5.233  0.7606  0.6146  0.4062
   63SAPC   H9X 5095   5.034   0.875   5.190  1.8774 -1.0365  0.8893
   63SAPC   H9Y 5096   4.877   0.911   5.269  0.1374  0.6864 -0.8519
   63SAPC  C310 5097   4.874   0.749   5.124  0.0092  0.7968 -0.1134
   63SAPC  H10X 5098   4.776   0.711   5.162  1.5269 -3.3415  0.1800
   63SAPC  H10Y 5099   4.929   0.656   5.099  0.3661  0.4625  1.7573
   63SAPC  C311 5100   4.836   0.816   4.990 -0.2964 -0.0418  0.2685
   63SAPC  H11X 5101   4.937   0.854   4.965 -0.2793  1.7385  2.6114
   63SAPC  H11Y 5102   4.766   0.902   4.997  0.1009  0.3697 -0.7305
   63SAPC  C312 5103   4.778   0.709   4.904  0.2542  0.4356 -0.1916
   63SAPC  H12X 5104   4.713   0.637   4.957 -0.6985  1.0235 -0.5442
   63SAPC  H12Y 5105   4.856   0.642   4.862 -1.5278 -1.4778 -0.6218
   63SAPC  C313 5106   4.700   0.769   4.787 -0.3617 -0.3782  0.9892
   63SAPC  H13X 5107   4.647   0.858   4.828  1.3476  0.4413  1.5252
   63SAPC  H13Y 5108   4.625   0.691   4.763  0.2950 -0.5881 -0.4692
   63SAPC  C314 5109   4.773   0.812   4.660 -0.4428  0.6188 -0.4037
   63SAPC  H14X 5110   4.853   0.885   4.685 -0.8307  0.3785  1.6545
   63SAPC  H14Y 5111   4.699   0.864   4.596  1.2903  2.9981 -0.5947
   63SAPC  C315 5112   4.825   0.690   4.580 -0.1524 -0.4753  0.1208
   63SAPC  H15X 5113   4.748   0.610   4.577 -2.0882  1.3274 -0.1076
   63SAPC  H15Y 5114   4.918   0.650   4.625  1.2421  2.0531 -0.3065
   63SAPC  C316 5115   4.855   0.725   4.429  0.2185 -0.4025 -0.7894
   63SAPC  H16X 5116   4.962   0.697   4.418  0.6158  1.1705 -1.1126
   63SAPC  H16Y 5117   4.834   0.834   4.420  1.8145 -0.1250 -1.5283
   63SAPC  C317 5118   4.762   0.653   4.329 -0.1547 -0.5283 -0.8225
   63SAPC  H17X 5119   4.655   0.675   4.350 -0.1708 -2.5701  1.7020
   63SAPC  H17Y 5120   4.775   0.545   4.348  0.1398 -0.8155 -2.5171
   63SAPC  C318 5121   4.792   0.678   4.181 -0.3524 -0.0327  0.6708
   63SAPC  H18X 5122   4.903   0.673   4.173 -0.4313  0.6636 -1.2956
   63SAPC  H18Y 5123   4.782   0.787   4.165 -0.2983 -0.0782  0.3172
   63SAPC  H18Z 5124   4.738   0.620   4.103 -0.1357 -1.1793  1.3471
   64SAPC     N 5125   5.368   1.948   6.813 -0.4898  0.3465  0.4490
   64SAPC   C12 5126   5.323   1.988   6.668 -0.1452  0.5673 -0.3539
   64SAPC  H12A 5127   5.292   1.896   6.621  1.9008 -0.0745 -0.5567
   64SAPC  H12B 5128   5.415   2.020   6.620  0.6332 -1.0275 -0.0031
   64SAPC   C13 5129   5.248   1.895   6.880 -0.4380  0.8147 -0.4796
   64SAPC  H13A 5130   5.210   1.807   6.831 -0.3728  1.1431 -1.1252
   64SAPC  H13B 5131   5.271   1.864   6.981 -1.3425  2.1022  0.1503
   64SAPC  H13C 5132   5.165   1.963   6.891 -0.0780  0.9687  1.8107
   64SAPC   C14 5133   5.477   1.839   6.806  0.0792  0.5301 -0.2960
   64SAPC  H14A 5134   5.436   1.745   6.771 -1.4167  1.2443 -0.5357
   64SAPC  H14B 5135   5.565   1.868   6.751  1.3601 -0.8547  0.9265
   64SAPC  H14C 5136   5.528   1.825   6.900  0.5461 -0.4828 -0.6820
   64SAPC   C15 5137   5.420   2.068   6.884  0.2865 -0.2529 -0.1495
   64SAPC  H15A 5138   5.346   2.143   6.859  1.4161  1.1961  0.7143
   64SAPC  H15B 5139   5.428   2.061   6.991 -0.1807  2.2010  0.1085
   64SAPC  H15C 5140   5.512   2.110   6.846  0.0139 -0.6454 -1.2938
   64SAPC   C11 5141   5.224   2.104   6.649 -0.2485 -0.3625  0.2626
   64SAPC  H11A 5142   5.133   2.074   6.705 -1.4240  2.6705  0.1426
   64SAPC  H11B 5143   5.191   2.097   6.543  1.9067 -1.7694 -0.3846
   64SAPC     P 5144   5.321   2.349   6.594 -0.2682  0.0422  0.0692
   64SAPC   O13 5145   5.199   2.432   6.566 -0.3473  0.2165  0.0720
   64SAPC   O14 5146   5.439   2.420   6.650  0.0746 -0.0533 -0.2977
   64SAPC   O12 5147   5.277   2.233   6.692 -0.8770 -0.6832  0.3488
   64SAPC   O11 5148   5.350   2.267   6.458 -0.5551 -0.6859 -0.6570
   64SAPC    C1 5149   5.436   2.322   6.355  0.5279 -0.3546 -0.7403
   64SAPC    HA 5150   5.514   2.393   6.389  0.4005 -0.3623 -0.4308
   64SAPC    HB 5151   5.505   2.245   6.312  1.4282 -0.0243  0.0858
   64SAPC    C2 5152   5.356   2.392   6.244  0.7626  1.0530 -0.1404
   64SAPC    HS 5153   5.433   2.444   6.182  2.5748 -0.7913  0.4442
   64SAPC   O21 5154   5.263   2.499   6.285 -0.2611  0.5354  0.0157
   64SAPC   C21 5155   5.322   2.613   6.315 -0.2875 -0.3377 -0.4857
   64SAPC   O22 5156   5.442   2.633   6.304 -0.5703 -0.3054  0.1295
   64SAPC   C22 5157   5.220   2.714   6.365 -0.0366  0.5650  0.0362
   64SAPC   H2R 5158   5.120   2.670   6.380  0.5419 -1.4116 -1.5269
   64SAPC   H2S 5159   5.254   2.745   6.466  2.3048  1.2909 -0.8930
   64SAPC    C3 5160   5.283   2.292   6.149 -0.2483  0.5403 -0.2329
   64SAPC    HX 5161   5.214   2.228   6.210 -1.6045 -0.1762 -2.4178
   64SAPC    HY 5162   5.367   2.226   6.118  0.1904  1.4767 -1.0936
   64SAPC   O31 5163   5.215   2.356   6.038 -0.6198 -0.1577  0.3071
   64SAPC   C31 5164   5.099   2.418   6.060 -0.3909 -0.1339  0.6984
   64SAPC   O32 5165   5.019   2.399   6.150 -0.0651 -0.0983 -0.1968
   64SAPC   C32 5166   5.055   2.492   5.932  0.0718  0.1042 -0.5756
   64SAPC   H2X 5167   4.945   2.499   5.916  0.2419  1.5909 -1.1782
   64SAPC   H2Y 5168   5.100   2.438   5.846  1.7670  0.6859 -0.0905
   64SAPC   C23 5169   5.212   2.836   6.277 -0.1614  1.0265  0.5305
   64SAPC   H3R 5170   5.191   2.811   6.171 -1.4893  2.8495  0.3166
   64SAPC   H3S 5171   5.315   2.879   6.270 -0.0587  1.3071  2.9308
   64SAPC   C24 5172   5.104   2.936   6.333 -0.0579 -0.5621  0.6286
   64SAPC   H4R 5173   5.120   3.032   6.279 -2.1439 -0.6652 -0.2962
   64SAPC   H4S 5174   5.131   2.962   6.437  1.4619 -1.6220  0.5224
   64SAPC   C25 5175   4.965   2.878   6.326 -0.9109 -0.3104 -0.1435
   64SAPC   H5R 5176   4.936   2.829   6.419  3.5621  0.9609  2.1967
   64SAPC   C26 5177   4.875   2.887   6.226  0.2893  0.4632  0.4793
   64SAPC   H6R 5178   4.776   2.841   6.240  0.4426  0.1976  0.6855
   64SAPC   C27 5179   4.891   2.953   6.090  0.0139  0.4982 -0.3774
   64SAPC   H7R 5180   4.998   2.974   6.072 -0.1374  0.6177 -1.1709
   64SAPC   H7S 5181   4.838   3.051   6.086 -0.9161 -0.0357 -2.7785
   64SAPC   C28 5182   4.839   2.872   5.977 -0.5616  0.1340  1.0006
   64SAPC   H8R 5183   4.805   2.770   6.001  0.8539 -1.3291 -2.4834
   64SAPC   C29 5184   4.824   2.910   5.844 -0.1957 -0.6622 -0.1670
   64SAPC   H9R 5185   4.787   2.834   5.772 -0.8248  0.7240 -1.3497
   64SAPC  C210 5186   4.849   3.043   5.780 -0.3477  0.3649 -0.0496
   64SAPC  H10R 5187   4.803   3.121   5.844  1.0195  1.5876 -0.5258
   64SAPC  H10S 5188   4.801   3.048   5.680 -2.2482 -1.2178  0.7014
   64SAPC  C211 5189   4.997   3.081   5.763  0.0714  0.5814  0.2155
   64SAPC  H11R 5190   5.034   3.127   5.856 -3.6574 -1.5358  3.0567
   64SAPC  C212 5191   5.073   3.069   5.653  0.5040  0.2233  0.1640
   64SAPC  H12R 5192   5.172   3.117   5.657  0.9458 -0.6386 -0.0835
   64SAPC  C213 5193   5.044   2.996   5.523  0.4567  0.0011 -0.0254
   64SAPC  H13R 5194   5.081   3.056   5.437 -0.1296 -0.7709 -0.8295
   64SAPC  H13S 5195   4.935   2.986   5.504  0.3725  0.4238  0.2171
   64SAPC  C214 5196   5.103   2.858   5.513  0.2772 -0.4953 -0.8332
   64SAPC  H14R 5197   5.130   2.820   5.613  0.8434  1.3455 -0.2497
   64SAPC  C215 5198   5.108   2.768   5.408 -0.1840 -0.1177 -0.6555
   64SAPC  H15R 5199   5.149   2.668   5.430 -0.3039 -0.2860 -1.1924
   64SAPC  C216 5200   5.067   2.800   5.265  0.4179  0.3479 -0.1145
   64SAPC  H16R 5201   5.150   2.819   5.195 -0.1996 -1.8500 -1.5731
   64SAPC  H16S 5202   4.998   2.887   5.260  1.5815  1.2263 -2.2683
   64SAPC  C217 5203   4.981   2.686   5.195 -0.6770  0.4063  0.0307
   64SAPC  H17R 5204   4.899   2.658   5.265  2.4129 -2.7605  2.7614
   64SAPC  H17S 5205   5.034   2.589   5.183 -0.5861  0.1248  2.3881
   64SAPC  C218 5206   4.910   2.735   5.064  0.1711  0.5939 -0.1503
   64SAPC  H18R 5207   4.854   2.831   5.072  0.3510  0.8779 -1.9071
   64SAPC  H18S 5208   4.838   2.653   5.043  1.7719 -0.6817 -0.8333
   64SAPC  C219 5209   5.004   2.753   4.948  0.0075  0.1942 -0.3551
   64SAPC  H19R 5210   5.087   2.680   4.938  1.7501  1.8376  1.3706
   64SAPC  H19S 5211   5.069   2.840   4.968 -0.4448  0.6365 -0.7566
   64SAPC  C220 5212   4.927   2.769   4.818  0.7955 -0.4691  0.4024
   64SAPC  H20R 5213   4.982   2.811   4.730 -0.6092  0.4539 -0.0695
   64SAPC  H20S 5214   4.833   2.827   4.829  0.1631 -1.2777 -0.6442
   64SAPC  H20T 5215   4.881   2.670   4.797 -1.9499  0.5034  1.4189
   64SAPC   C33 5216   5.098   2.640   5.927  0.6517  0.1510 -0.4726
   64SAPC   H3X 5217   5.045   2.689   6.012 -0.9972 -0.7281 -0.9501
   64SAPC   H3Y 5218   5.059   2.687   5.834  1.7170 -1.0625 -1.5658
   64SAPC   C34 5219   5.253   2.662   5.929 -0.1129  0.6941  0.5372
   64SAPC   H4X 5220   5.290   2.601   5.844 -1.0530 -0.4670  0.9243
   64SAPC   H4Y 5221   5.296   2.640   6.030 -0.1072  0.0241  0.3976
   64SAPC   C35 5222   5.282   2.809   5.905 -0.0179 -0.2316 -0.0759
   64SAPC   H5X 5223   5.211   2.878   5.955  1.5807  1.1373  0.4082
   64SAPC   H5Y 5224   5.258   2.833   5.800  0.1065 -0.5468 -0.1778
   64SAPC   C36 5225   5.425   2.849   5.954  0.0851  0.1706  0.0752
   64SAPC   H6X 5226   5.428   2.828   6.063 -0.3286 -0.7700 -0.0903
   64SAPC   H6Y 5227   5.447   2.958   5.942  1.8373 -0.2672 -1.0824
   64SAPC   C37 5228   5.546   2.768   5.893 -0.5469 -0.7440  0.1137
   64SAPC   H7X 5229   5.514   2.662   5.880 -5.2029  0.4082  0.3861
   64SAPC   H7Y 5230   5.626   2.761   5.970  0.0792 -2.3254 -0.6505
   64SAPC   C38 5231   5.606   2.826   5.768 -0.2871 -0.0217  0.1291
   64SAPC   H8X 5232   5.675   2.759   5.713 -0.3977 -0.0739  0.0543
   64SAPC   H8Y 5233   5.668   2.915   5.792  0.7259 -0.7577  0.3209
   64SAPC   C39 5234   5.492   2.854   5.666 -0.0706 -0.6731  0.3280
   64SAPC   H9X 5235   5.447   2.954   5.685 -0.4395 -0.8095  0.1849
   64SAPC   H9Y 5236   5.418   2.771   5.660  0.1351 -0.8942  0.8058
   64SAPC  C310 5237   5.566   2.866   5.531  0.3230 -0.2624 -0.4273
   64SAPC  H10X 5238   5.641   2.785   5.520  1.6123  0.1546  3.5134
   64SAPC  H10Y 5239   5.632   2.955   5.546  0.2102 -0.6659  3.5697
   64SAPC  C311 5240   5.477   2.898   5.410  0.1702  0.3703 -0.8213
   64SAPC  H11X 5241   5.417   2.982   5.449  2.4152  1.0504  1.3661
   64SAPC  H11Y 5242   5.408   2.813   5.390  0.6611 -0.1984 -0.1558
   64SAPC  C312 5243   5.554   2.912   5.277 -0.1274 -0.3076  0.4985
   64SAPC  H12X 5244   5.491   2.863   5.200 -0.3950 -0.6783  0.9431
   64SAPC  H12Y 5245   5.654   2.866   5.293  0.0379  0.4454  1.7456
   64SAPC  C313 5246   5.581   3.056   5.221 -0.3560 -0.5195  0.2295
   64SAPC  H13X 5247   5.480   3.098   5.202 -0.8765 -1.4301  0.8983
   64SAPC  H13Y 5248   5.640   3.046   5.127 -0.7519  1.9101 -0.3618
   64SAPC  C314 5249   5.660   3.149   5.311  0.5104  0.0424  0.2457
   64SAPC  H14X 5250   5.762   3.106   5.322  0.0801 -1.6006 -1.6779
   64SAPC  H14Y 5251   5.618   3.160   5.413 -0.8547  0.0842 -0.2930
   64SAPC  C315 5252   5.673   3.294   5.262  0.7299  1.1693 -0.3801
   64SAPC  H15X 5253   5.575   3.332   5.224 -0.1625 -0.8110 -0.2019
   64SAPC  H15Y 5254   5.750   3.301   5.182  1.8949 -0.2830  0.5638
   64SAPC  C316 5255   5.734   3.394   5.366  0.0637 -0.1104  0.0052
   64SAPC  H16X 5256   5.843   3.373   5.372  0.2609  0.6614 -0.7371
   64SAPC  H16Y 5257   5.687   3.379   5.466 -1.1400  1.0261 -0.3693
   64SAPC  C317 5258   5.734   3.540   5.326  0.2052 -0.3215  0.1208
   64SAPC  H17X 5259   5.780   3.603   5.404 -0.3455 -1.6954  1.6241
   64SAPC  H17Y 5260   5.628   3.572   5.319  0.5836  0.8709 -0.3604
   64SAPC  C318 5261   5.807   3.576   5.197  0.1515  0.2867  0.1896
   64SAPC  H18X 5262   5.813   3.687   5.188 -1.4829  0.6229  2.3814
   64SAPC  H18Y 5263   5.744   3.530   5.118  3.7142 -4.0735 -0.5354
   64SAPC  H18Z 5264   5.908   3.530   5.198  0.9697  1.8013  4.3030
   65SAPC     N 5265   4.185   2.265   1.661 -0.6789 -0.5394 -0.1689
   65SAPC   C12 5266   4.161   2.125   1.720 -0.6799 -0.4765  0.6332
   65SAPC  H12A 5267   4.256   2.075   1.713 -0.9963 -1.3076  1.8999
   65SAPC  H12B 5268   4.093   2.066   1.659 -1.8098  2.9049 -1.6779
   65SAPC   C13 5269   4.060   2.348   1.686  0.2899  0.1480  0.7228
   65SAPC  H13A 5270   4.040   2.352   1.792  1.3611 -2.3785  1.1020
   65SAPC  H13B 5271   4.083   2.447   1.650 -1.3541  0.1337 -0.4639
   65SAPC  H13C 5272   3.979   2.321   1.620 -0.3966  1.9908  0.7616
   65SAPC   C14 5273   4.302   2.335   1.729  0.1762 -0.3825 -0.3615
   65SAPC  H14A 5274   4.401   2.293   1.722  1.0112  1.4786 -0.3925
   65SAPC  H14B 5275   4.319   2.435   1.691  0.9945  0.2610  1.5651
   65SAPC  H14C 5276   4.285   2.349   1.835  1.0432 -1.1025 -0.1116
   65SAPC   C15 5277   4.222   2.258   1.515 -0.3428  0.1168 -0.7975
   65SAPC  H15A 5278   4.245   2.355   1.473  1.4783 -0.6403 -1.6357
   65SAPC  H15B 5279   4.306   2.192   1.501 -0.7719 -0.3554 -1.1720
   65SAPC  H15C 5280   4.138   2.230   1.453  1.2372 -0.7390 -2.6593
   65SAPC   C11 5281   4.107   2.111   1.861 -0.4139  0.2233  0.0583
   65SAPC  H11A 5282   4.091   2.005   1.888 -0.5730  0.3560  0.5024
   65SAPC  H11B 5283   4.004   2.153   1.858 -0.7100 -0.4862  0.1687
   65SAPC     P 5284   4.162   2.300   2.039  0.5192  0.4041  0.5015
   65SAPC   O13 5285   4.284   2.385   2.046 -0.2619  0.3122 -0.2700
   65SAPC   O14 5286   4.032   2.365   1.992  0.3777 -0.4276  0.0364
   65SAPC   O12 5287   4.195   2.174   1.952 -0.7038  0.3869 -0.3142
   65SAPC   O11 5288   4.136   2.249   2.189 -0.6306 -0.3347 -0.1842
   65SAPC    C1 5289   4.197   2.123   2.225 -0.0273  0.8678 -0.4321
   65SAPC    HA 5290   4.173   2.038   2.158  0.5116 -0.3899  0.9081
   65SAPC    HB 5291   4.306   2.142   2.224  0.4493 -1.3741  1.3897
   65SAPC    C2 5292   4.168   2.087   2.375 -0.2100 -0.1696 -0.3518
   65SAPC    HS 5293   4.057   2.082   2.388 -0.2516 -2.7955 -1.0259
   65SAPC   O21 5294   4.239   2.185   2.456  0.7975 -0.2784 -0.4081
   65SAPC   C21 5295   4.159   2.279   2.511  0.4840  0.6637 -0.6284
   65SAPC   O22 5296   4.038   2.285   2.497  0.3697  0.0537 -0.0611
   65SAPC   C22 5297   4.234   2.334   2.630 -0.3403  0.5202  0.8613
   65SAPC   H2R 5298   4.244   2.248   2.699 -1.1874  1.6743  2.5065
   65SAPC   H2S 5299   4.330   2.379   2.597 -1.9902  1.7425 -2.7797
   65SAPC    C3 5300   4.224   1.940   2.396 -0.0605 -0.0700 -0.3112
   65SAPC    HX 5301   4.334   1.937   2.382 -0.1300 -0.7978 -0.7161
   65SAPC    HY 5302   4.183   1.881   2.311 -0.7991  0.5173 -0.3819
   65SAPC   O31 5303   4.175   1.887   2.521 -0.3396  0.0948 -0.7372
   65SAPC   C31 5304   4.252   1.779   2.545 -0.6084 -0.1825 -0.3507
   65SAPC   O32 5305   4.335   1.732   2.466  0.0023  0.5700  0.2485
   65SAPC   C32 5306   4.224   1.732   2.682 -1.0349 -0.4546 -0.2733
   65SAPC   H2X 5307   4.231   1.815   2.756  1.1094 -0.7338 -0.0855
   65SAPC   H2Y 5308   4.299   1.658   2.719 -0.7890  1.0218  2.4580
   65SAPC   C23 5309   4.177   2.454   2.713 -0.0499  0.0127  0.3269
   65SAPC   H3R 5310   4.082   2.434   2.767  0.6737 -1.8983  0.9772
   65SAPC   H3S 5311   4.161   2.542   2.647 -1.0134  0.8626  1.6663
   65SAPC   C24 5312   4.267   2.510   2.819  0.0835 -0.2168 -0.3554
   65SAPC   H4R 5313   4.366   2.549   2.790  1.2586 -0.1007  3.2953
   65SAPC   H4S 5314   4.299   2.426   2.884 -1.9083 -1.0630 -0.3984
   65SAPC   C25 5315   4.193   2.622   2.891  0.5842  0.0576 -0.3947
   65SAPC   H5R 5316   4.144   2.700   2.830  1.0269  1.0535  0.4969
   65SAPC   C26 5317   4.186   2.630   3.027  0.3400  0.2946  0.6764
   65SAPC   H6R 5318   4.130   2.713   3.072  1.0092  0.5964  0.9686
   65SAPC   C27 5319   4.247   2.532   3.125  0.2475  0.1854  0.2992
   65SAPC   H7R 5320   4.255   2.584   3.223 -0.5892 -0.7681  0.8900
   65SAPC   H7S 5321   4.351   2.502   3.101 -0.2324 -2.3232  1.1513
   65SAPC   C28 5322   4.167   2.406   3.132  0.0671  0.2380 -0.5109
   65SAPC   H8R 5323   4.106   2.378   3.045 -1.1246  0.6581  0.1644
   65SAPC   C29 5324   4.159   2.329   3.245  0.6224  0.0636  0.4379
   65SAPC   H9R 5325   4.100   2.236   3.246  0.3836  0.2121  0.4904
   65SAPC  C210 5326   4.246   2.347   3.370 -0.6399  0.2439  0.5175
   65SAPC  H10R 5327   4.349   2.378   3.346 -0.1274  0.0609  2.2857
   65SAPC  H10S 5328   4.270   2.247   3.414 -0.0366 -0.3832 -1.1520
   65SAPC  C211 5329   4.185   2.432   3.471 -0.3697 -0.2805 -0.0746
   65SAPC  H11R 5330   4.169   2.537   3.442  0.3764 -0.2883 -0.5226
   65SAPC  C212 5331   4.141   2.389   3.595 -0.0333  0.0580  0.3168
   65SAPC  H12R 5332   4.089   2.468   3.652 -0.4453 -1.6399  2.4223
   65SAPC  C213 5333   4.131   2.254   3.659  0.5936  0.2582 -0.2981
   65SAPC  H13R 5334   4.213   2.190   3.619  1.4297  1.6400 -0.8825
   65SAPC  H13S 5335   4.034   2.211   3.628 -0.9937  2.1528  1.6718
   65SAPC  C214 5336   4.131   2.270   3.812  0.1854 -0.8083 -0.5156
   65SAPC  H14R 5337   4.228   2.286   3.862  0.0843 -1.0132 -0.2519
   65SAPC  C215 5338   4.019   2.287   3.888 -0.6935  0.4840 -0.7654
   65SAPC  H15R 5339   4.041   2.300   3.995  1.8042 -0.4065 -1.0872
   65SAPC  C216 5340   3.872   2.271   3.856 -0.3661 -0.7020  0.1700
   65SAPC  H16R 5341   3.834   2.172   3.891  2.2977 -2.9366 -2.6442
   65SAPC  H16S 5342   3.859   2.271   3.745 -0.7767  2.0683  0.1472
   65SAPC  C217 5343   3.792   2.395   3.898  0.1909 -0.2500  0.1643
   65SAPC  H17R 5344   3.839   2.492   3.872 -0.9980 -0.1698 -1.9220
   65SAPC  H17S 5345   3.767   2.405   4.006 -0.8953  1.3978 -0.2079
   65SAPC  C218 5346   3.653   2.393   3.830 -0.0072 -0.0685  0.1616
   65SAPC  H18R 5347   3.657   2.432   3.726 -1.6446 -0.9476 -0.2701
   65SAPC  H18S 5348   3.588   2.467   3.882 -0.1136 -1.3941  2.0119
   65SAPC  C219 5349   3.581   2.255   3.824  0.0368  0.2575 -0.3100
   65SAPC  H19R 5350   3.650   2.183   3.774 -0.8889  0.5662 -2.1300
   65SAPC  H19S 5351   3.500   2.259   3.748 -1.2461  0.5552  1.0370
   65SAPC  C220 5352   3.520   2.226   3.959 -0.1107  0.5278 -0.2389
   65SAPC  H20R 5353   3.592   2.210   4.042 -0.5741 -4.1473 -0.4594
   65SAPC  H20S 5354   3.472   2.126   3.954 -0.0190  0.4974 -0.5183
   65SAPC  H20T 5355   3.446   2.304   3.987 -1.8323 -0.5512 -1.5545
   65SAPC   C33 5356   4.077   1.690   2.693 -0.1630 -0.2179  0.6889
   65SAPC   H3X 5357   4.060   1.635   2.598 -0.6275  1.8567 -0.4922
   65SAPC   H3Y 5358   4.012   1.779   2.694  1.3350  0.9089  1.6963
   65SAPC   C34 5359   4.037   1.598   2.808 -0.1724 -0.3881  0.2382
   65SAPC   H4X 5360   4.065   1.497   2.771 -2.1663 -0.5941 -0.8685
   65SAPC   H4Y 5361   3.927   1.599   2.824 -0.3611  1.0703 -0.9644
   65SAPC   C35 5362   4.113   1.627   2.941 -0.7896  0.3068 -0.3478
   65SAPC   H5X 5363   4.069   1.718   2.986  0.4986 -0.1054  1.9134
   65SAPC   H5Y 5364   4.223   1.638   2.929 -0.5311 -0.5875  0.9688
   65SAPC   C36 5365   4.098   1.520   3.045  0.0975 -0.2123  0.0835
   65SAPC   H6X 5366   4.184   1.450   3.035  0.6640  0.2980  1.2062
   65SAPC   H6Y 5367   4.001   1.469   3.025  0.2614  0.0229 -1.4326
   65SAPC   C37 5368   4.090   1.575   3.188  0.3875  0.5791 -0.5550
   65SAPC   H7X 5369   4.014   1.656   3.185  2.0926  2.3560  1.5151
   65SAPC   H7Y 5370   4.184   1.623   3.221  2.3721 -2.4312 -1.3381
   65SAPC   C38 5371   4.059   1.465   3.294  0.6142 -0.4783  0.6569
   65SAPC   H8X 5372   4.144   1.396   3.272  0.5507 -0.1845 -0.5587
   65SAPC   H8Y 5373   3.968   1.406   3.270  0.8321 -0.3446 -0.5649
   65SAPC   C39 5374   4.058   1.514   3.438 -0.4196  0.2716 -0.1379
   65SAPC   H9X 5375   3.981   1.593   3.446 -0.7405 -0.1136  0.6244
   65SAPC   H9Y 5376   4.155   1.558   3.468 -0.3262 -0.5922  0.8621
   65SAPC  C310 5377   4.014   1.400   3.528 -0.5943 -0.0842  0.0521
   65SAPC  H10X 5378   4.082   1.317   3.498  1.0927  1.1760  0.2185
   65SAPC  H10Y 5379   3.906   1.379   3.510 -1.2556  3.0430 -0.1875
   65SAPC  C311 5380   4.039   1.433   3.675 -0.9271  1.0419  0.2751
   65SAPC  H11X 5381   4.131   1.491   3.655 -1.0419  0.7995 -1.0546
   65SAPC  H11Y 5382   4.066   1.355   3.749  1.3216  2.9555  1.6153
   65SAPC  C312 5383   3.929   1.523   3.731 -0.1544  0.0326 -0.0862
   65SAPC  H12X 5384   3.909   1.602   3.654  1.2330  1.1726  0.6912
   65SAPC  H12Y 5385   3.972   1.576   3.818 -0.3022 -0.2990  0.1894
   65SAPC  C313 5386   3.792   1.464   3.766 -0.6309  0.3519  0.2837
   65SAPC  H13X 5387   3.775   1.373   3.704 -1.1607  0.1154  0.7557
   65SAPC  H13Y 5388   3.713   1.542   3.771 -0.1173  0.9888 -1.1299
   65SAPC  C314 5389   3.787   1.401   3.903 -1.1450 -0.3592 -0.2324
   65SAPC  H14X 5390   3.780   1.486   3.973 -1.3147 -0.0362 -0.6396
   65SAPC  H14Y 5391   3.885   1.350   3.916 -0.3221  1.0578 -0.7535
   65SAPC  C315 5392   3.668   1.313   3.931 -0.0908  0.2274 -0.1125
   65SAPC  H15X 5393   3.669   1.283   4.038 -1.2791 -1.4493 -0.5241
   65SAPC  H15Y 5394   3.673   1.222   3.867 -0.0014 -0.2652  0.5911
   65SAPC  C316 5395   3.534   1.392   3.922 -0.5638 -0.3527 -0.1539
   65SAPC  H16X 5396   3.532   1.452   3.829 -1.3751  0.8312  0.6032
   65SAPC  H16Y 5397   3.521   1.448   4.017 -0.5256 -0.2127 -0.2311
   65SAPC  C317 5398   3.410   1.311   3.904  0.0664  0.1644  0.0220
   65SAPC  H17X 5399   3.399   1.286   3.796 -1.0813 -1.4371  0.4702
   65SAPC  H17Y 5400   3.325   1.382   3.916  1.1767  1.5846 -0.2577
   65SAPC  C318 5401   3.403   1.184   3.995  0.0947 -0.0443  0.6350
   65SAPC  H18X 5402   3.301   1.141   3.982  0.6131 -0.8837 -0.7982
   65SAPC  H18Y 5403   3.423   1.215   4.100  0.5993 -1.4715  0.9849
   65SAPC  H18Z 5404   3.474   1.111   3.951 -0.9202 -0.5009 -0.2794
   66SAPC     N 5405   5.354   0.090   2.163 -0.1865 -0.1115  0.3541
   66SAPC   C12 5406   5.360   0.012   2.293  1.0655  0.8246  0.4703
   66SAPC  H12A 5407   5.457  -0.030   2.316  0.7658 -1.8987 -2.4829
   66SAPC  H12B 5408   5.294  -0.073   2.286 -0.1982  1.9281 -2.1960
   66SAPC   C13 5409   5.400   0.003   2.050 -0.6590  0.0613  0.3332
   66SAPC  H13A 5410   5.497  -0.040   2.070 -1.1330 -1.6889 -0.9544
   66SAPC  H13B 5411   5.328  -0.076   2.040 -1.1967  0.3974  1.4215
   66SAPC  H13C 5412   5.410   0.061   1.960 -0.8623 -0.3385  0.0487
   66SAPC   C14 5413   5.224   0.150   2.122  0.9512 -0.3472  0.0876
   66SAPC  H14A 5414   5.169   0.199   2.201 -1.4780  2.3033 -2.9299
   66SAPC  H14B 5415   5.232   0.214   2.035 -0.1948 -0.2815  0.0070
   66SAPC  H14C 5416   5.148   0.076   2.103 -0.2713  0.4179  1.7993
   66SAPC   C15 5417   5.468   0.194   2.173  0.2973 -0.6162 -0.6574
   66SAPC  H15A 5418   5.433   0.272   2.240 -0.2435 -0.1359 -1.4761
   66SAPC  H15B 5419   5.556   0.149   2.216  0.3964  0.8506  0.7580
   66SAPC  H15C 5420   5.492   0.235   2.076 -1.2780  3.5740  0.4778
   66SAPC   C11 5421   5.299   0.089   2.412  0.7769  0.3895 -0.2968
   66SAPC  H11A 5422   5.361   0.179   2.429  2.0956 -0.3529 -1.0028
   66SAPC  H11B 5423   5.308   0.042   2.512  2.2687 -1.9797 -1.4285
   66SAPC     P 5424   5.054   0.008   2.392 -0.0586 -0.0457 -0.0391
   66SAPC   O13 5425   4.971   0.021   2.272  0.6239  0.5036 -0.7296
   66SAPC   O14 5426   5.129  -0.122   2.406 -0.3719 -0.2508 -0.3443
   66SAPC   O12 5427   5.162   0.132   2.398 -0.8299 -0.5447 -0.1421
   66SAPC   O11 5428   4.966   0.035   2.527 -0.3013 -0.5402 -0.0821
   66SAPC    C1 5429   5.019   0.047   2.655  0.2993 -0.5657 -0.3372
   66SAPC    HA 5430   4.964  -0.014   2.730  2.4311  0.4139  2.1738
   66SAPC    HB 5431   5.122   0.005   2.655  0.7356  0.4712 -0.7771
   66SAPC    C2 5432   5.018   0.203   2.701  0.4186  1.2769 -0.3961
   66SAPC    HS 5433   5.079   0.252   2.622  0.3885 -1.3617 -2.1590
   66SAPC   O21 5434   5.065   0.205   2.837 -0.1292  0.2759  0.1190
   66SAPC   C21 5435   5.194   0.219   2.848  0.0476  0.2913  1.1944
   66SAPC   O22 5436   5.270   0.252   2.755 -0.0848 -0.1984  0.7788
   66SAPC   C22 5437   5.248   0.188   2.993  0.6205  0.1834  0.3355
   66SAPC   H2R 5438   5.193   0.256   3.061 -0.5073  0.3986 -0.7408
   66SAPC   H2S 5439   5.227   0.079   3.003 -0.0533  0.0805 -1.7200
   66SAPC    C3 5440   4.874   0.264   2.694 -0.5998 -0.1554 -0.9173
   66SAPC    HX 5441   4.817   0.211   2.773  1.1419  0.0447  0.5407
   66SAPC    HY 5442   4.826   0.246   2.596 -1.2817  1.2067 -0.8572
   66SAPC   O31 5443   4.871   0.403   2.723  0.5875  0.3188 -0.9554
   66SAPC   C31 5444   4.749   0.456   2.721 -0.1597  0.2743  0.3206
   66SAPC   O32 5445   4.651   0.389   2.702  0.5934 -0.5678 -0.1849
   66SAPC   C32 5446   4.752   0.606   2.755  0.2561 -0.3941 -0.1945
   66SAPC   H2X 5447   4.695   0.658   2.675  0.1505  0.4107  0.3936
   66SAPC   H2Y 5448   4.851   0.654   2.766  0.7308 -1.9505  4.3723
   66SAPC   C23 5449   5.404   0.209   2.997 -0.0391  0.1847  0.5921
   66SAPC   H3R 5450   5.424   0.318   2.996 -3.1569  0.8455 -0.2098
   66SAPC   H3S 5451   5.445   0.178   2.898  1.2686  0.8943  0.8967
   66SAPC   C24 5452   5.463   0.139   3.118 -0.7189 -0.4148 -0.5254
   66SAPC   H4R 5453   5.454   0.030   3.103 -3.1411 -0.3273 -0.2059
   66SAPC   H4S 5454   5.405   0.167   3.209 -0.4343  1.1352 -0.7914
   66SAPC   C25 5455   5.608   0.183   3.154 -0.2516 -0.1936 -0.3279
   66SAPC   H5R 5456   5.675   0.224   3.077 -0.0799  0.7985  0.3427
   66SAPC   C26 5457   5.655   0.177   3.282 -0.1350 -0.2976  0.2299
   66SAPC   H6R 5458   5.764   0.191   3.291 -0.0226 -1.0576  0.0379
   66SAPC   C27 5459   5.581   0.118   3.399  0.1451 -0.8507  0.6648
   66SAPC   H7R 5460   5.637   0.033   3.444  1.5090 -1.5041 -2.0521
   66SAPC   H7S 5461   5.487   0.064   3.379  0.0908 -0.1020 -1.4094
   66SAPC   C28 5462   5.545   0.223   3.496  0.1214 -0.2300 -0.6785
   66SAPC   H8R 5463   5.571   0.328   3.472  2.0422 -0.9417 -1.9374
   66SAPC   C29 5464   5.487   0.199   3.611 -0.3914  0.2582 -0.7618
   66SAPC   H9R 5465   5.470   0.283   3.680 -0.4757  0.5195 -1.0972
   66SAPC  C210 5466   5.455   0.056   3.672  0.1368 -0.7024  0.4806
   66SAPC  H10R 5467   5.483  -0.020   3.596 -0.6459  0.0334 -0.5932
   66SAPC  H10S 5468   5.345   0.058   3.689 -0.3415 -0.2525 -2.2273
   66SAPC  C211 5469   5.538   0.038   3.802  0.1272  0.1416 -0.2710
   66SAPC  H11R 5470   5.614   0.115   3.819  0.6056 -0.2591 -0.5439
   66SAPC  C212 5471   5.512  -0.040   3.913 -1.1543  0.1529  0.3959
   66SAPC  H12R 5472   5.592  -0.048   3.988 -1.8787 -1.1835  1.0574
   66SAPC  C213 5473   5.408  -0.143   3.913 -0.3504 -0.7948  0.1749
   66SAPC  H13R 5474   5.416  -0.208   3.824 -2.1863 -1.8585  0.7422
   66SAPC  H13S 5475   5.311  -0.089   3.903 -0.3206 -0.9877 -1.3444
   66SAPC  C214 5476   5.416  -0.239   4.024 -0.4571  0.1994  0.3888
   66SAPC  H14R 5477   5.418  -0.344   3.992  1.0913  0.7744 -1.6103
   66SAPC  C215 5478   5.415  -0.220   4.156 -0.2594 -0.2618 -0.3214
   66SAPC  H15R 5479   5.427  -0.307   4.222 -0.3051 -1.2165 -1.5202
   66SAPC  C216 5480   5.405  -0.083   4.229  0.1176  0.3188  0.6813
   66SAPC  H16R 5481   5.323  -0.097   4.302  0.5065 -0.9447  0.8928
   66SAPC  H16S 5482   5.376   0.002   4.164 -1.7787  1.7158  3.1761
   66SAPC  C217 5483   5.525  -0.035   4.309 -0.1056 -0.4973  1.1278
   66SAPC  H17R 5484   5.596   0.020   4.244 -2.4816 -0.6107 -1.8161
   66SAPC  H17S 5485   5.578  -0.116   4.362  0.8382 -1.4214 -1.0945
   66SAPC  C218 5486   5.483   0.070   4.411  1.3966 -0.0102  0.2777
   66SAPC  H18R 5487   5.411   0.021   4.478 -0.4357 -0.3179 -1.8012
   66SAPC  H18S 5488   5.427   0.148   4.355  2.0707 -1.1042 -2.0473
   66SAPC  C219 5489   5.599   0.137   4.480 -0.1384 -0.1572 -0.1879
   66SAPC  H19R 5490   5.555   0.226   4.530  0.9093  2.2480 -3.2024
   66SAPC  H19S 5491   5.667   0.174   4.400 -0.3088  0.0253 -0.2491
   66SAPC  C220 5492   5.678   0.056   4.590 -0.7193 -0.4963 -0.0437
   66SAPC  H20R 5493   5.761   0.122   4.622 -2.0660  1.6589 -0.7244
   66SAPC  H20S 5494   5.715  -0.041   4.551 -0.7032 -0.9017  0.9535
   66SAPC  H20T 5495   5.617   0.025   4.677  1.4076 -1.2501  1.2282
   66SAPC   C33 5496   4.677   0.630   2.895 -0.5541 -0.1324 -0.0082
   66SAPC   H3X 5497   4.578   0.580   2.907  0.4186 -2.5636 -1.3282
   66SAPC   H3Y 5498   4.665   0.739   2.907 -1.4105 -0.4022  2.0462
   66SAPC   C34 5499   4.763   0.583   3.013 -0.2004  0.0559 -0.4733
   66SAPC   H4X 5500   4.866   0.625   3.014 -0.3851  0.7382 -3.4116
   66SAPC   H4Y 5501   4.772   0.472   3.008  0.2204 -0.1571  2.6302
   66SAPC   C35 5502   4.706   0.616   3.156 -0.8427 -0.4137 -0.6514
   66SAPC   H5X 5503   4.596   0.599   3.164 -1.1408  0.3219 -2.5206
   66SAPC   H5Y 5504   4.719   0.726   3.159  0.3127 -0.5485 -0.1985
   66SAPC   C36 5505   4.787   0.544   3.265 -0.9941  0.4711  0.7350
   66SAPC   H6X 5506   4.893   0.577   3.260 -0.6042 -0.5855  1.6770
   66SAPC   H6Y 5507   4.794   0.438   3.233 -0.0167  1.2985 -2.1361
   66SAPC   C37 5508   4.735   0.571   3.402  0.5388 -0.1452 -0.5374
   66SAPC   H7X 5509   4.627   0.545   3.408 -0.0500  2.1451 -0.0468
   66SAPC   H7Y 5510   4.739   0.678   3.433 -2.5150  0.1337 -0.7113
   66SAPC   C38 5511   4.807   0.493   3.512  0.7326 -0.2161 -0.0722
   66SAPC   H8X 5512   4.913   0.526   3.511  0.8668 -0.5891 -2.6130
   66SAPC   H8Y 5513   4.809   0.388   3.478  0.2407  0.2982 -1.7628
   66SAPC   C39 5514   4.748   0.515   3.651  0.5263 -0.8817 -0.3554
   66SAPC   H9X 5515   4.646   0.472   3.644  1.0874 -2.2413 -0.4811
   66SAPC   H9Y 5516   4.738   0.622   3.676  0.7109 -0.6355 -1.2827
   66SAPC  C310 5517   4.830   0.431   3.751  0.1345 -0.3279  0.0206
   66SAPC  H10X 5518   4.841   0.331   3.703 -0.7406 -1.5047  2.1407
   66SAPC  H10Y 5519   4.777   0.417   3.848 -2.1505  0.7016 -1.0056
   66SAPC  C311 5520   4.979   0.473   3.774  0.9611  0.1991  0.5760
   66SAPC  H11X 5521   4.968   0.583   3.782  0.0562  0.0757  1.1788
   66SAPC  H11Y 5522   5.026   0.435   3.680 -0.3267  0.6524 -0.2760
   66SAPC  C312 5523   5.054   0.401   3.888 -0.8454  0.2708 -0.6195
   66SAPC  H12X 5524   5.082   0.296   3.867  2.7308  0.8687  0.4465
   66SAPC  H12Y 5525   4.989   0.410   3.978 -1.7985 -1.9850 -1.0265
   66SAPC  C313 5526   5.187   0.472   3.906  0.1991 -0.0370 -0.2411
   66SAPC  H13X 5527   5.177   0.580   3.926  2.8478  0.0358  1.1947
   66SAPC  H13Y 5528   5.248   0.470   3.813 -3.0450  0.2076 -2.5476
   66SAPC  C314 5529   5.269   0.398   4.016 -0.1502  0.4364  0.7907
   66SAPC  H14X 5530   5.249   0.289   4.013  0.3786  0.3505 -0.3325
   66SAPC  H14Y 5531   5.245   0.434   4.118  1.2723 -1.2758  1.7974
   66SAPC  C315 5532   5.421   0.414   3.996  0.1952 -0.0483 -0.0413
   66SAPC  H15X 5533   5.443   0.519   4.025  2.0032 -0.3416 -0.2026
   66SAPC  H15Y 5534   5.441   0.402   3.887 -0.1982 -0.3295 -0.0858
   66SAPC  C316 5535   5.485   0.301   4.078 -0.1703 -0.0504 -0.4276
   66SAPC  H16X 5536   5.447   0.204   4.040  1.2124 -0.8669  0.1835
   66SAPC  H16Y 5537   5.460   0.306   4.187 -1.5946  0.2645 -0.7539
   66SAPC  C317 5538   5.637   0.289   4.063 -0.0715  0.0660  0.6887
   66SAPC  H17X 5539   5.665   0.269   3.958 -0.3882  1.6895  0.2615
   66SAPC  H17Y 5540   5.666   0.201   4.124 -0.8200  0.1235  1.1513
   66SAPC  C318 5541   5.725   0.399   4.124 -0.2967  0.3388  0.4145
   66SAPC  H18X 5542   5.694   0.498   4.084  2.1431  1.6596  1.5065
   66SAPC  H18Y 5543   5.834   0.388   4.103 -0.8204 -1.5688 -1.5797
   66SAPC  H18Z 5544   5.696   0.405   4.231  0.5014  3.3907  0.5642
   67SAPC     N 5545   4.244   4.475   2.098 -0.2406 -0.8370  0.2652
   67SAPC   C12 5546   4.324   4.598   2.051 -0.2335  0.5671  0.3095
   67SAPC  H12A 5547   4.342   4.591   1.945 -0.3456 -1.4038  0.3948
   67SAPC  H12B 5548   4.419   4.576   2.098 -0.4364  1.3592  1.1269
   67SAPC   C13 5549   4.271   4.462   2.247 -0.8328 -0.1356  0.2807
   67SAPC  H13A 5550   4.194   4.413   2.306 -1.8894  1.7939  0.5815
   67SAPC  H13B 5551   4.366   4.416   2.271  0.1379  1.7545  0.1667
   67SAPC  H13C 5552   4.288   4.559   2.290  3.2865 -1.1223  1.2805
   67SAPC   C14 5553   4.103   4.522   2.074 -0.0702  0.2602  0.4470
   67SAPC  H14A 5554   4.087   4.620   2.114  1.1403  0.5705  0.2119
   67SAPC  H14B 5555   4.083   4.522   1.967  0.0924 -1.1219  0.3879
   67SAPC  H14C 5556   4.032   4.451   2.112 -1.3169  1.2642  0.0413
   67SAPC   C15 5557   4.274   4.353   2.024  0.0706  0.7393  0.8837
   67SAPC  H15A 5558   4.233   4.351   1.924  2.0219  2.6310 -0.0283
   67SAPC  H15B 5559   4.377   4.321   2.020 -0.9265 -2.8348  0.8464
   67SAPC  H15C 5560   4.225   4.272   2.075  0.9891 -0.7722 -0.5256
   67SAPC   C11 5561   4.290   4.742   2.095  0.8277 -0.5719 -0.9917
   67SAPC  H11A 5562   4.203   4.784   2.039  0.1031 -0.1554  0.3800
   67SAPC  H11B 5563   4.370   4.814   2.068  0.1942  0.1735 -0.9260
   67SAPC     P 5564   4.148   4.832   2.297  0.3105  0.3157  0.2000
   67SAPC   O13 5565   4.172   4.973   2.260 -0.6880 -0.3272  0.2074
   67SAPC   O14 5566   4.026   4.764   2.251  0.3511 -0.3495  0.5762
   67SAPC   O12 5567   4.269   4.751   2.241  0.9061 -0.1562  0.2971
   67SAPC   O11 5568   4.176   4.810   2.453  0.3272  0.2349  0.0490
   67SAPC    C1 5569   4.175   4.685   2.515  0.5246  0.5753  0.1795
   67SAPC    HA 5570   4.075   4.644   2.491  0.3219  1.0957  0.1058
   67SAPC    HB 5571   4.249   4.610   2.478 -1.1136 -0.7686 -0.4924
   67SAPC    C2 5572   4.200   4.691   2.667  0.5322  0.4590  0.5004
   67SAPC    HS 5573   4.211   4.589   2.710  1.1115  0.2569 -0.1078
   67SAPC   O21 5574   4.090   4.758   2.722 -0.2874 -0.5280 -0.2427
   67SAPC   C21 5575   4.052   4.715   2.842 -0.5428  0.2008 -0.0895
   67SAPC   O22 5576   4.090   4.608   2.894  0.1147 -0.2412  0.1206
   67SAPC   C22 5577   3.956   4.822   2.902 -0.2493 -0.0805 -0.5278
   67SAPC   H2R 5578   3.896   4.860   2.817 -0.4345 -0.4288 -0.5544
   67SAPC   H2S 5579   3.891   4.757   2.964  1.6527 -0.9974  0.6244
   67SAPC    C3 5580   4.333   4.761   2.706 -0.1296  0.3979 -0.1717
   67SAPC    HX 5581   4.319   4.866   2.674 -1.0272  0.4854  0.4613
   67SAPC    HY 5582   4.408   4.707   2.645 -0.4319 -2.3832  1.6977
   67SAPC   O31 5583   4.369   4.761   2.846  0.1839  0.4010 -0.2324
   67SAPC   C31 5584   4.436   4.658   2.905  0.9550 -0.3105 -0.2020
   67SAPC   O32 5585   4.481   4.563   2.842  0.0278 -0.2023  0.0619
   67SAPC   C32 5586   4.438   4.674   3.050  0.1488 -0.4145  0.2893
   67SAPC   H2X 5587   4.335   4.700   3.081 -1.0827 -0.8943 -2.9277
   67SAPC   H2Y 5588   4.508   4.756   3.078 -0.3380  0.7592 -1.7210
   67SAPC   C23 5589   4.022   4.941   2.971  0.1134  0.3491 -0.5434
   67SAPC   H3R 5590   3.957   5.022   3.011 -1.0240 -1.3920  1.3217
   67SAPC   H3S 5591   4.085   4.991   2.895  0.6376  1.3613  0.5238
   67SAPC   C24 5592   4.118   4.887   3.080  0.0692 -0.2103 -0.3786
   67SAPC   H4R 5593   4.190   4.810   3.045 -1.0266 -1.7923  0.6668
   67SAPC   H4S 5594   4.053   4.834   3.154  0.9308 -1.0251 -0.1905
   67SAPC   C25 5595   4.196   4.996   3.152  0.1101  0.2970 -0.0058
   67SAPC   H5R 5596   4.273   5.033   3.083 -0.7196  1.0617 -0.5500
   67SAPC   C26 5597   4.174   5.042   3.274 -0.4558 -0.0332  0.2380
   67SAPC   H6R 5598   4.236   5.127   3.308 -0.2450  0.4711 -1.3271
   67SAPC   C27 5599   4.075   4.982   3.374  0.1346 -0.5908  0.6223
   67SAPC   H7R 5600   4.128   4.890   3.406 -0.0427 -0.9772 -0.1881
   67SAPC   H7S 5601   3.984   4.940   3.327  1.6803 -3.6367  0.0890
   67SAPC   C28 5602   4.042   5.068   3.492 -0.2022 -0.2842  0.0411
   67SAPC   H8R 5603   3.982   5.157   3.469  0.7188 -0.0192 -1.4360
   67SAPC   C29 5604   4.087   5.046   3.618  0.5370  0.0695 -0.6477
   67SAPC   H9R 5605   4.059   5.122   3.693  2.3627  0.0294  0.1130
   67SAPC  C210 5606   4.175   4.929   3.671 -0.5925 -0.4211  0.2828
   67SAPC  H10R 5607   4.234   4.960   3.760 -0.8639 -2.4006  1.2137
   67SAPC  H10S 5608   4.255   4.898   3.600 -1.0273  0.4194 -0.6071
   67SAPC  C211 5609   4.103   4.791   3.683 -0.9663  0.2570 -0.1292
   67SAPC  H11R 5610   4.082   4.739   3.589  0.4418 -0.6222  0.0057
   67SAPC  C212 5611   4.045   4.744   3.796 -0.0392 -0.1144  0.6983
   67SAPC  H12R 5612   3.993   4.647   3.793  1.1850 -0.7894  0.9287
   67SAPC  C213 5613   4.050   4.820   3.930 -0.3335  0.3740  0.4334
   67SAPC  H13R 5614   4.148   4.872   3.936  0.4280 -0.6157 -2.2523
   67SAPC  H13S 5615   4.039   4.747   4.013  1.6984 -1.4226 -0.7991
   67SAPC  C214 5616   3.933   4.916   3.931 -0.2212 -0.5068 -0.1147
   67SAPC  H14R 5617   3.869   4.917   3.842 -1.4248 -2.3647  0.6772
   67SAPC  C215 5618   3.906   5.000   4.034  0.7638 -0.3855 -0.8688
   67SAPC  H15R 5619   3.814   5.059   4.042 -0.0140 -1.6516 -0.1677
   67SAPC  C216 5620   3.986   5.014   4.166  0.0322  0.3610 -0.0701
   67SAPC  H16R 5621   3.996   5.125   4.164 -1.8230  0.5870  0.6988
   67SAPC  H16S 5622   4.084   4.962   4.168 -0.4220 -0.5045  0.2358
   67SAPC  C217 5623   3.905   4.973   4.293  0.2300  0.1358 -0.4978
   67SAPC  H17R 5624   3.805   5.021   4.287  0.3380  0.1534 -2.9741
   67SAPC  H17S 5625   3.947   5.004   4.391 -1.6894  2.4083 -0.2947
   67SAPC  C218 5626   3.878   4.823   4.297 -0.1523  0.3225  0.4581
   67SAPC  H18R 5627   3.967   4.763   4.268 -2.6098 -2.3258 -2.1561
   67SAPC  H18S 5628   3.805   4.793   4.220 -1.6920  2.1413  1.1299
   67SAPC  C219 5629   3.821   4.771   4.436 -0.4787 -0.3960 -0.1428
   67SAPC  H19R 5630   3.725   4.823   4.453 -0.5453 -0.3235 -0.7149
   67SAPC  H19S 5631   3.882   4.816   4.516 -1.3621  0.7746 -0.1140
   67SAPC  C220 5632   3.792   4.621   4.439  0.3678 -0.1983  0.7300
   67SAPC  H20R 5633   3.883   4.562   4.417  1.0296  0.7360  0.9062
   67SAPC  H20S 5634   3.722   4.599   4.355 -0.3059  0.5856  1.0713
   67SAPC  H20T 5635   3.748   4.577   4.532 -0.0151 -0.5824  0.3727
   67SAPC   C33 5636   4.485   4.553   3.130  0.6862 -0.0034 -0.1808
   67SAPC   H3X 5637   4.589   4.536   3.093  0.1793 -1.0218 -1.1912
   67SAPC   H3Y 5638   4.419   4.471   3.096  1.1964 -1.8024  2.7987
   67SAPC   C34 5639   4.489   4.564   3.283 -0.1857 -0.7407  0.7147
   67SAPC   H4X 5640   4.391   4.610   3.308  0.0526  1.0063 -1.2954
   67SAPC   H4Y 5641   4.561   4.641   3.316 -0.9181  0.8342 -1.1843
   67SAPC   C35 5642   4.516   4.439   3.374 -0.5931  0.0215 -0.3440
   67SAPC   H5X 5643   4.618   4.412   3.338  0.1895  2.9131 -0.5688
   67SAPC   H5Y 5644   4.433   4.369   3.351 -0.7945  0.5009 -1.0987
   67SAPC   C36 5645   4.512   4.471   3.523 -0.6625 -0.2932 -0.5837
   67SAPC   H6X 5646   4.615   4.488   3.562 -0.0086 -2.0158 -1.4799
   67SAPC   H6Y 5647   4.476   4.384   3.582 -0.6088  0.1509  0.1252
   67SAPC   C37 5648   4.419   4.583   3.572  0.4785 -0.6295 -0.0981
   67SAPC   H7X 5649   4.310   4.574   3.553 -0.1573  0.4409  2.5322
   67SAPC   H7Y 5650   4.450   4.677   3.521  0.3487 -1.7877 -2.4362
   67SAPC   C38 5651   4.441   4.617   3.722  0.4432 -0.1784 -0.1634
   67SAPC   H8X 5652   4.444   4.530   3.790 -3.6532  1.0489  1.9081
   67SAPC   H8Y 5653   4.348   4.673   3.747  0.7734  1.3643 -2.1166
   67SAPC   C39 5654   4.560   4.711   3.747 -0.1436  0.0882 -0.1158
   67SAPC   H9X 5655   4.533   4.810   3.706  0.4266 -0.0106 -0.7290
   67SAPC   H9Y 5656   4.641   4.673   3.682  0.7275 -0.3652  1.1995
   67SAPC  C310 5657   4.618   4.716   3.890 -0.6149  0.1001  0.3491
   67SAPC  H10X 5658   4.720   4.759   3.888 -0.7699  0.4733 -0.8904
   67SAPC  H10Y 5659   4.648   4.613   3.918  0.9221  0.5097  0.2867
   67SAPC  C311 5660   4.527   4.771   3.995 -0.3584  0.6462 -0.3041
   67SAPC  H11X 5661   4.564   4.740   4.095 -1.6209 -0.0782 -0.0377
   67SAPC  H11Y 5662   4.425   4.726   3.990 -0.1287  0.2515 -2.2145
   67SAPC  C312 5663   4.525   4.923   3.997 -0.1944  0.0289 -0.0964
   67SAPC  H12X 5664   4.501   4.959   3.895  1.3254 -1.9540 -1.2490
   67SAPC  H12Y 5665   4.629   4.950   4.027 -0.4745  1.3306 -0.2598
   67SAPC  C313 5666   4.416   4.972   4.101  0.3372  0.0889  0.2109
   67SAPC  H13X 5667   4.384   4.904   4.182 -1.2875  0.7681  0.1819
   67SAPC  H13Y 5668   4.319   4.989   4.050 -0.4413  0.4471  1.7657
   67SAPC  C314 5669   4.457   5.107   4.161 -0.4139  0.1013 -0.3595
   67SAPC  H14X 5670   4.461   5.181   4.078  0.2965 -0.5183 -0.8972
   67SAPC  H14Y 5671   4.558   5.097   4.205 -0.8782 -0.2298  0.6583
   67SAPC  C315 5672   4.353   5.156   4.267 -0.3160  0.3465  0.8204
   67SAPC  H15X 5673   4.314   5.070   4.326  0.0930 -0.9249 -0.6963
   67SAPC  H15Y 5674   4.269   5.200   4.210  0.2181  0.7232  0.3092
   67SAPC  C316 5675   4.423   5.265   4.357 -0.5423 -0.2868  0.2192
   67SAPC  H16X 5676   4.464   5.344   4.290  2.1264 -0.7593  1.1853
   67SAPC  H16Y 5677   4.498   5.215   4.421  0.1306 -1.2146 -1.2542
   67SAPC  C317 5678   4.322   5.321   4.448  0.4067 -0.1615  0.2821
   67SAPC  H17X 5679   4.246   5.246   4.478  0.5829 -0.1531  0.7622
   67SAPC  H17Y 5680   4.282   5.411   4.396  1.9345  0.1561 -0.4034
   67SAPC  C318 5681   4.378   5.378   4.584 -0.2828 -0.5046 -0.5696
   67SAPC  H18X 5682   4.421   5.295   4.645 -1.8837 -0.0964  1.2032
   67SAPC  H18Y 5683   4.313   5.438   4.652  2.6519  1.7593  0.4556
   67SAPC  H18Z 5684   4.458   5.450   4.558 -0.2706 -0.5354 -0.6188
   68SAPC     N 5685   4.083   6.628   2.228  0.4323  0.6321 -0.1661
   68SAPC   C12 5686   4.156   6.503   2.288  0.4544 -0.4171  0.1573
   68SAPC  H12A 5687   4.249   6.487   2.235  0.3087 -0.2423 -0.1571
   68SAPC  H12B 5688   4.114   6.410   2.253  4.4122 -2.0678 -0.7341
   68SAPC   C13 5689   3.949   6.644   2.300 -0.3028  0.1395  0.8454
   68SAPC  H13A 5690   3.875   6.571   2.270 -0.2336  0.4441 -0.1088
   68SAPC  H13B 5691   3.960   6.644   2.407 -2.9520 -0.1317  1.1859
   68SAPC  H13C 5692   3.907   6.740   2.274  1.5089  0.6347 -0.5207
   68SAPC   C14 5693   4.158   6.754   2.233  0.0591 -0.2646 -0.3042
   68SAPC  H14A 5694   4.217   6.748   2.324  0.4355  0.8828 -0.4621
   68SAPC  H14B 5695   4.230   6.760   2.153  1.3943 -2.3955  0.6317
   68SAPC  H14C 5696   4.097   6.843   2.231 -2.9637 -2.2116 -1.6552
   68SAPC   C15 5697   4.060   6.605   2.078 -0.5973 -0.2413 -0.4601
   68SAPC  H15A 5698   4.148   6.594   2.016 -0.4628  2.3235 -0.8512
   68SAPC  H15B 5699   3.996   6.520   2.062 -2.1343  0.9278 -0.7770
   68SAPC  H15C 5700   3.993   6.677   2.034 -0.7872 -1.4482 -2.2552
   68SAPC   C11 5701   4.197   6.497   2.433 -0.1338 -0.2008  0.1502
   68SAPC  H11A 5702   4.241   6.397   2.454  0.2686  0.0009  0.2745
   68SAPC  H11B 5703   4.103   6.492   2.491  0.8309  0.7737  1.8904
   68SAPC     P 5704   4.440   6.597   2.445  0.1744  0.2490  0.2952
   68SAPC   O13 5705   4.495   6.459   2.435  0.2205  0.2318  0.0450
   68SAPC   O14 5706   4.464   6.685   2.329 -0.1961 -0.1763  0.0641
   68SAPC   O12 5707   4.284   6.600   2.471  0.4563  0.3915 -0.0068
   68SAPC   O11 5708   4.497   6.666   2.574 -0.5160 -0.4240 -0.0850
   68SAPC    C1 5709   4.461   6.641   2.707 -0.3179 -0.7405 -0.3347
   68SAPC    HA 5710   4.389   6.714   2.751 -0.9580 -2.2044  1.1177
   68SAPC    HB 5711   4.410   6.543   2.715 -2.5839  0.2895 -0.9994
   68SAPC    C2 5712   4.583   6.627   2.798 -0.1475  0.5559  0.4668
   68SAPC    HS 5713   4.551   6.591   2.898  0.5082 -0.5219  0.3106
   68SAPC   O21 5714   4.645   6.753   2.812  0.1589  0.2655 -0.0243
   68SAPC   C21 5715   4.577   6.835   2.893 -0.0449 -0.6125 -0.7009
   68SAPC   O22 5716   4.469   6.817   2.941  0.0434  0.0453 -0.1443
   68SAPC   C22 5717   4.668   6.954   2.922  0.4439 -0.1988  0.7461
   68SAPC   H2R 5718   4.694   6.990   2.820  0.8825  0.9641  1.2582
   68SAPC   H2S 5719   4.621   7.039   2.976 -0.0365  0.2394 -0.3341
   68SAPC    C3 5720   4.678   6.516   2.739 -0.8314  0.3759 -0.1184
   68SAPC    HX 5721   4.722   6.535   2.638  0.4625  0.3792  0.4282
   68SAPC    HY 5722   4.627   6.418   2.727 -0.3168  0.3203 -2.2386
   68SAPC   O31 5723   4.791   6.506   2.827  0.0596 -0.2603  0.9057
   68SAPC   C31 5724   4.891   6.589   2.819  0.4582 -0.7900  0.6662
   68SAPC   O32 5725   4.906   6.680   2.738  0.0537  0.5186 -0.1899
   68SAPC   C32 5726   4.973   6.575   2.944 -0.0261  0.3444  0.7834
   68SAPC   H2X 5727   4.981   6.467   2.970 -0.8910 -0.5738 -2.3372
   68SAPC   H2Y 5728   4.926   6.621   3.034  0.3433  0.4688  0.9139
   68SAPC   C23 5729   4.795   6.906   2.994 -0.4458 -0.2154  0.1258
   68SAPC   H3R 5730   4.865   6.856   2.923 -0.1093 -0.3331  0.5374
   68SAPC   H3S 5731   4.764   6.831   3.069 -0.7715 -2.1918 -1.8786
   68SAPC   C24 5732   4.866   7.028   3.067 -0.3503 -0.4887  0.3054
   68SAPC   H4R 5733   4.855   7.104   2.987  2.6536 -0.2531  0.0271
   68SAPC   H4S 5734   4.975   7.007   3.069 -0.2617 -0.0303  0.4193
   68SAPC   C25 5735   4.794   7.089   3.188 -0.5282 -0.0526 -0.7229
   68SAPC   H5R 5736   4.689   7.118   3.175 -0.3186  1.4121  0.4859
   68SAPC   C26 5737   4.857   7.118   3.307  0.0320  0.7790  0.8778
   68SAPC   H6R 5738   4.797   7.160   3.390 -1.1413 -1.6269  1.3379
   68SAPC   C27 5739   5.000   7.097   3.336  0.1485 -0.0195 -0.8068
   68SAPC   H7R 5740   5.069   7.122   3.252 -1.1872  1.9367 -1.4009
   68SAPC   H7S 5741   5.008   6.987   3.344  3.7180  0.2289  0.7528
   68SAPC   C28 5742   5.054   7.154   3.467  0.4406  0.2827  0.0321
   68SAPC   H8R 5743   5.109   7.249   3.454 -1.6764  1.5498 -0.0838
   68SAPC   C29 5744   5.039   7.111   3.590 -0.1448  0.2697 -0.7994
   68SAPC   H9R 5745   5.076   7.175   3.672 -1.1335 -1.1240  0.8093
   68SAPC  C210 5746   4.967   6.987   3.629 -0.0045  0.6468  0.1248
   68SAPC  H10R 5747   5.028   6.943   3.711 -0.9139  0.9345  0.9644
   68SAPC  H10S 5748   4.975   6.917   3.542 -1.1315  0.8513 -0.1537
   68SAPC  C211 5749   4.823   7.001   3.665  0.3470  0.2894 -0.2001
   68SAPC  H11R 5750   4.751   7.006   3.583 -1.4437  1.5684  1.3501
   68SAPC  C212 5751   4.772   6.989   3.789 -0.3411 -0.0743 -0.3542
   68SAPC  H12R 5752   4.664   7.006   3.800 -0.3972 -1.4571  1.8391
   68SAPC  C213 5753   4.838   6.961   3.923  0.0666 -0.2329  0.1966
   68SAPC  H13R 5754   4.759   6.974   4.000 -0.0823 -0.4669  0.0833
   68SAPC  H13S 5755   4.910   7.044   3.936 -1.3912  1.2782 -0.8656
   68SAPC  C214 5756   4.903   6.826   3.949 -0.1797 -0.3034 -0.8184
   68SAPC  H14R 5757   5.005   6.816   3.909 -0.6275 -0.8787 -1.8845
   68SAPC  C215 5758   4.855   6.718   4.012 -0.2264 -0.1794  0.8275
   68SAPC  H15R 5759   4.915   6.627   4.004  0.9205  0.6449 -0.3511
   68SAPC  C216 5760   4.724   6.697   4.082  0.1796  0.1353 -0.7291
   68SAPC  H16R 5761   4.671   6.609   4.039 -0.0779  0.0059 -0.1645
   68SAPC  H16S 5762   4.654   6.780   4.058 -2.4132 -1.4458  0.7549
   68SAPC  C217 5763   4.715   6.688   4.237 -0.1401  0.2565  0.4000
   68SAPC  H17R 5764   4.772   6.773   4.281 -2.3007  0.8948  2.1438
   68SAPC  H17S 5765   4.742   6.592   4.284 -0.9227  0.6209  1.6434
   68SAPC  C218 5766   4.576   6.716   4.296  0.6524 -0.2166  0.7898
   68SAPC  H18R 5767   4.501   6.654   4.242  0.8064  0.0961  0.2140
   68SAPC  H18S 5768   4.543   6.822   4.300 -1.6353 -0.8242 -0.1233
   68SAPC  C219 5769   4.562   6.667   4.440  0.7187  0.6176  0.0763
   68SAPC  H19R 5770   4.659   6.696   4.486  1.8167 -0.6886 -1.3336
   68SAPC  H19S 5771   4.563   6.557   4.429 -2.3836  0.4967  0.1386
   68SAPC  C220 5772   4.446   6.717   4.521  0.2675 -0.0790  0.2858
   68SAPC  H20R 5773   4.447   6.827   4.513 -0.7457 -0.0290  0.7468
   68SAPC  H20S 5774   4.469   6.697   4.628 -0.0089  0.5876  0.4711
   68SAPC  H20T 5775   4.344   6.691   4.486 -0.0456  0.7836  0.5272
   68SAPC   C33 5776   5.118   6.620   2.920 -0.3140 -0.1999  0.4863
   68SAPC   H3X 5777   5.119   6.717   2.867  0.7571 -1.5480 -2.2057
   68SAPC   H3Y 5778   5.179   6.554   2.854  0.0713  0.3840  0.2469
   68SAPC   C34 5779   5.206   6.643   3.054 -0.2552  0.5224 -0.4852
   68SAPC   H4X 5780   5.313   6.663   3.033 -0.4628  1.1861 -0.9356
   68SAPC   H4Y 5781   5.202   6.551   3.116 -2.2872  0.9179  0.0514
   68SAPC   C35 5782   5.156   6.765   3.131  0.8281 -0.2178  0.2859
   68SAPC   H5X 5783   5.050   6.755   3.164  0.8616 -1.4395  0.0639
   68SAPC   H5Y 5784   5.168   6.850   3.060  2.3326  0.3356  1.1578
   68SAPC   C36 5785   5.235   6.795   3.260  0.0993  0.5591  0.1529
   68SAPC   H6X 5786   5.202   6.896   3.292 -1.6788  0.0423  0.0252
   68SAPC   H6Y 5787   5.337   6.820   3.224  0.3498  0.1106  0.5486
   68SAPC   C37 5788   5.245   6.672   3.359  0.6005 -0.4145  0.1374
   68SAPC   H7X 5789   5.301   6.590   3.309 -0.2063  1.0695 -3.5679
   68SAPC   H7Y 5790   5.144   6.631   3.380 -0.0425  1.4115  0.7695
   68SAPC   C38 5791   5.324   6.721   3.482  0.4090 -0.1490 -0.7569
   68SAPC   H8X 5792   5.267   6.803   3.531  4.4839  1.3378  1.9939
   68SAPC   H8Y 5793   5.421   6.765   3.450  1.2891 -0.3984  1.4415
   68SAPC   C39 5794   5.352   6.613   3.597  0.1668  0.0076  0.5079
   68SAPC   H9X 5795   5.449   6.635   3.648 -0.4209 -0.1156  1.7170
   68SAPC   H9Y 5796   5.373   6.519   3.542  1.3534  0.1861  0.6360
   68SAPC  C310 5797   5.231   6.610   3.702  0.1752  0.1282  0.1835
   68SAPC  H10X 5798   5.128   6.597   3.663  0.0204 -0.9171  0.9041
   68SAPC  H10Y 5799   5.236   6.708   3.753  3.4718  0.6945 -0.9643
   68SAPC  C311 5800   5.253   6.509   3.822  0.0715 -0.4479  0.2470
   68SAPC  H11X 5801   5.359   6.526   3.851  0.9956 -2.2417 -1.8203
   68SAPC  H11Y 5802   5.249   6.408   3.778  0.9996 -0.0667 -0.7756
   68SAPC  C312 5803   5.171   6.535   3.947 -0.5630  0.3175 -0.0803
   68SAPC  H12X 5804   5.062   6.525   3.924 -1.2407 -1.3663  3.2137
   68SAPC  H12Y 5805   5.187   6.644   3.961 -2.3618  0.6960 -0.6488
   68SAPC  C313 5806   5.207   6.457   4.073  0.3230 -0.0934 -0.0713
   68SAPC  H13X 5807   5.314   6.473   4.099  0.9392 -2.9504 -0.4615
   68SAPC  H13Y 5808   5.199   6.352   4.037  0.2574  0.4834 -1.8290
   68SAPC  C314 5809   5.127   6.495   4.199 -0.0383 -0.5681  0.1833
   68SAPC  H14X 5810   5.025   6.511   4.158 -0.7655 -1.3503  1.6278
   68SAPC  H14Y 5811   5.157   6.597   4.232  2.3514 -0.4697 -1.9964
   68SAPC  C315 5812   5.121   6.389   4.314 -0.0154 -0.0775  0.1018
   68SAPC  H15X 5813   5.220   6.341   4.325 -0.3784 -0.7816  0.4004
   68SAPC  H15Y 5814   5.044   6.318   4.276  0.5415 -0.4581 -0.3217
   68SAPC  C316 5815   5.078   6.437   4.453 -0.1530 -0.2730 -0.4635
   68SAPC  H16X 5816   4.969   6.457   4.451  0.0123  0.7631  0.2542
   68SAPC  H16Y 5817   5.124   6.538   4.461 -0.7497 -0.0149 -0.2889
   68SAPC  C317 5818   5.116   6.337   4.560 -0.6388 -0.3155 -0.4946
   68SAPC  H17X 5819   5.139   6.399   4.650  3.0696 -0.1068 -1.3951
   68SAPC  H17Y 5820   5.208   6.277   4.542  0.1468  0.3236  1.1928
   68SAPC  C318 5821   5.008   6.241   4.589  0.0587  0.4372 -0.2231
   68SAPC  H18X 5822   5.015   6.170   4.675  0.9069  0.8776  0.0819
   68SAPC  H18Y 5823   4.985   6.188   4.494 -0.0780  3.7438 -2.1882
   68SAPC  H18Z 5824   4.919   6.298   4.624  0.0543  0.3867 -0.1495
   69SAPC     N 5825   0.186   2.011   1.631 -1.1007  0.2195  0.0660
   69SAPC   C12 5826   0.116   2.141   1.680  0.5781  0.2000  0.2727
   69SAPC  H12A 5827   0.019   2.141   1.631 -0.2594  1.3903  1.8400
   69SAPC  H12B 5828   0.171   2.228   1.648  0.0604  0.5801  0.3977
   69SAPC   C13 5829   0.095   1.896   1.621 -0.3140 -0.5184 -0.2384
   69SAPC  H13A 5830   0.023   1.906   1.540 -1.5873  1.5493  1.0403
   69SAPC  H13B 5831   0.136   1.797   1.611 -0.3268 -0.7097  1.4087
   69SAPC  H13C 5832   0.030   1.895   1.707 -0.9415 -5.8615 -0.4169
   69SAPC   C14 5833   0.250   2.036   1.497  0.2254 -0.0515 -0.0702
   69SAPC  H14A 5834   0.323   2.115   1.494 -1.0739  1.1691 -1.8285
   69SAPC  H14B 5835   0.290   1.943   1.460  1.6216 -0.5372  2.4830
   69SAPC  H14C 5836   0.176   2.075   1.428  0.3606 -0.9945 -0.7603
   69SAPC   C15 5837   0.290   1.960   1.722 -0.6140 -0.2048 -0.3409
   69SAPC  H15A 5838   0.333   1.867   1.687  0.4775 -0.1275  0.7096
   69SAPC  H15B 5839   0.374   2.027   1.730 -0.9006  0.1535 -0.3245
   69SAPC  H15C 5840   0.250   1.935   1.820  1.8641 -0.0792  0.7853
   69SAPC   C11 5841   0.091   2.154   1.831  0.2358  1.1646  0.0107
   69SAPC  H11A 5842   0.057   2.256   1.857  1.2750  1.3739  0.5776
   69SAPC  H11B 5843   0.190   2.154   1.882  0.3179 -0.3814 -0.0970
   69SAPC     P 5844   0.006   1.983   2.009 -0.0495  0.0496  0.0118
   69SAPC   O13 5845  -0.096   1.880   2.021  0.0276 -0.1480 -0.0584
   69SAPC   O14 5846   0.147   1.941   2.040 -0.4063  0.2907 -0.5190
   69SAPC   O12 5847   0.001   2.046   1.870  0.3541 -0.6513 -0.1770
   69SAPC   O11 5848  -0.023   2.105   2.097  0.0043 -0.2081  0.4295
   69SAPC    C1 5849  -0.145   2.135   2.170 -0.3005  0.0715  0.0873
   69SAPC    HA 5850  -0.147   2.243   2.195  0.3581 -0.0966  0.9080
   69SAPC    HB 5851  -0.243   2.107   2.124 -0.7511 -0.9989  1.6081
   69SAPC    C2 5852  -0.137   2.052   2.306 -0.1516  0.0473  1.0694
   69SAPC    HS 5853  -0.139   1.947   2.271  1.4440  0.3156  0.0442
   69SAPC   O21 5854  -0.245   2.085   2.397 -0.3804  0.3434  0.0687
   69SAPC   C21 5855  -0.359   2.012   2.371 -0.6152 -0.7431  0.4707
   69SAPC   O22 5856  -0.370   1.941   2.271 -0.0357 -0.4457  0.0958
   69SAPC   C22 5857  -0.470   2.040   2.468  0.1627 -0.0147 -0.1338
   69SAPC   H2R 5858  -0.448   1.993   2.566  0.7249  0.3671 -0.0741
   69SAPC   H2S 5859  -0.482   2.147   2.498  1.1378  0.7323 -2.1902
   69SAPC    C3 5860  -0.003   2.074   2.374 -0.2883 -0.7941 -0.2210
   69SAPC    HX 5861   0.018   2.182   2.385 -0.8421 -0.7976  0.9205
   69SAPC    HY 5862   0.078   2.036   2.307 -0.5658 -1.7020 -0.0556
   69SAPC   O31 5863   0.003   2.012   2.503  0.2493 -0.5535  0.4396
   69SAPC   C31 5864   0.011   1.879   2.517 -0.1713 -0.0750 -0.4992
   69SAPC   O32 5865   0.038   1.801   2.430 -0.1181  0.0548  0.0034
   69SAPC   C32 5866  -0.038   1.833   2.659  0.0698 -0.0838 -0.5014
   69SAPC   H2X 5867  -0.006   1.912   2.730 -1.5420 -0.3995  0.6467
   69SAPC   H2Y 5868   0.011   1.739   2.693  0.0676  0.6360  1.6775
   69SAPC   C23 5869  -0.607   1.999   2.414 -0.0186 -0.3848 -0.4046
   69SAPC   H3R 5870  -0.603   1.890   2.391 -0.7039 -0.4092 -0.4343
   69SAPC   H3S 5871  -0.641   2.059   2.327  0.7380  0.6891  0.0213
   69SAPC   C24 5872  -0.718   2.008   2.526  0.6082  0.1881 -0.2785
   69SAPC   H4R 5873  -0.691   1.953   2.618  0.4505 -1.7016 -1.3182
   69SAPC   H4S 5874  -0.802   1.953   2.478 -0.4448  1.5580 -0.0920
   69SAPC   C25 5875  -0.780   2.146   2.549 -0.0137 -0.2744 -0.1894
   69SAPC   H5R 5876  -0.842   2.180   2.465 -0.6798  1.2222  0.8616
   69SAPC   C26 5877  -0.768   2.225   2.662 -0.2446  0.0658  0.5147
   69SAPC   H6R 5878  -0.822   2.320   2.677 -4.3598 -1.7016 -1.4878
   69SAPC   C27 5879  -0.702   2.170   2.795  0.2184  0.2036  0.1539
   69SAPC   H7R 5880  -0.636   2.082   2.782  1.9584  1.3337  0.8697
   69SAPC   H7S 5881  -0.783   2.134   2.862 -0.4513  1.1737 -0.1057
   69SAPC   C28 5882  -0.622   2.283   2.855  0.1301  0.5231  0.1874
   69SAPC   H8R 5883  -0.514   2.282   2.835  0.3217  1.3297  1.1070
   69SAPC   C29 5884  -0.667   2.381   2.928 -0.2647 -0.1428 -0.0712
   69SAPC   H9R 5885  -0.601   2.464   2.955 -0.7126  0.1208  0.2257
   69SAPC  C210 5886  -0.807   2.399   2.978  0.0324 -0.7295  0.1796
   69SAPC  H10R 5887  -0.815   2.412   3.088 -0.6938  1.6632 -0.1100
   69SAPC  H10S 5888  -0.858   2.302   2.958 -1.9438  0.0288  1.3327
   69SAPC  C211 5889  -0.896   2.492   2.906  0.1058  0.1909  0.0086
   69SAPC  H11R 5890  -0.864   2.508   2.802  0.8122 -0.3039  0.1434
   69SAPC  C212 5891  -1.001   2.566   2.950 -0.6444 -0.4824 -0.2239
   69SAPC  H12R 5892  -1.053   2.632   2.879 -0.2218 -0.2609 -0.3321
   69SAPC  C213 5893  -1.045   2.565   3.095  0.4851  0.1824 -0.0529
   69SAPC  H13R 5894  -1.120   2.645   3.112  0.6690  0.1372  1.0492
   69SAPC  H13S 5895  -0.956   2.592   3.157  0.0381  2.8630 -0.4650
   69SAPC  C214 5896  -1.107   2.435   3.144 -0.5739 -0.1833 -0.3643
   69SAPC  H14R 5897  -1.173   2.387   3.070  0.9664 -1.7552 -0.7841
   69SAPC  C215 5898  -1.073   2.365   3.257  0.3296  1.6565  1.0044
   69SAPC  H15R 5899  -1.137   2.278   3.277  1.3659  0.3051 -1.1905
   69SAPC  C216 5900  -0.985   2.391   3.375 -0.6673  0.1951  0.2009
   69SAPC  H16R 5901  -1.043   2.458   3.443 -0.1975 -0.0023  0.7992
   69SAPC  H16S 5902  -0.893   2.435   3.332  0.5328 -3.1468 -0.9691
   69SAPC  C217 5903  -0.948   2.265   3.449 -0.6319 -0.0106  0.1359
   69SAPC  H17R 5904  -1.038   2.221   3.496 -1.4139  1.6389  0.2603
   69SAPC  H17S 5905  -0.875   2.298   3.526 -0.4453 -0.5632  0.2003
   69SAPC  C218 5906  -0.891   2.151   3.372  0.0924 -0.4578  0.2486
   69SAPC  H18R 5907  -0.803   2.165   3.306  1.5226 -1.8893  1.7483
   69SAPC  H18S 5908  -0.963   2.114   3.296  1.5081  1.1479 -2.0224
   69SAPC  C219 5909  -0.870   2.031   3.470  0.1252  0.5610 -0.1155
   69SAPC  H19R 5910  -0.954   2.023   3.542  1.0177 -2.0103  0.7212
   69SAPC  H19S 5911  -0.788   2.050   3.543 -1.5772 -3.7714  3.3316
   69SAPC  C220 5912  -0.835   1.905   3.402 -0.3006 -0.2010  0.6087
   69SAPC  H20R 5913  -0.765   1.927   3.318 -0.8582  0.1001  0.2171
   69SAPC  H20S 5914  -0.924   1.866   3.349 -0.6858 -2.4120  2.7209
   69SAPC  H20T 5915  -0.780   1.832   3.465 -0.1923 -2.6015 -2.0844
   69SAPC   C33 5916  -0.188   1.827   2.666 -0.1129 -0.3579 -0.2246
   69SAPC   H3X 5917  -0.233   1.786   2.573  0.1604  0.7088 -0.8471
   69SAPC   H3Y 5918  -0.223   1.933   2.669 -1.2198 -0.7250  1.6806
   69SAPC   C34 5919  -0.248   1.755   2.793 -0.0273  0.0236  0.0210
   69SAPC   H4X 5920  -0.214   1.650   2.786  4.6027  1.1955  1.5558
   69SAPC   H4Y 5921  -0.356   1.763   2.768  0.3981 -1.5047 -2.6398
   69SAPC   C35 5922  -0.213   1.809   2.930 -0.4426  0.0921 -0.3585
   69SAPC   H5X 5923  -0.105   1.801   2.951 -1.0293 -1.6364  2.5997
   69SAPC   H5Y 5924  -0.264   1.747   3.007  2.8299 -2.9874 -0.4339
   69SAPC   C36 5925  -0.268   1.953   2.950  0.0657 -0.1264 -0.5714
   69SAPC   H6X 5926  -0.368   1.962   2.903 -0.8074  2.6321  1.5876
   69SAPC   H6Y 5927  -0.206   2.014   2.880  0.2226  0.2591 -0.1038
   69SAPC   C37 5928  -0.278   1.990   3.095  0.1155  0.2490 -0.7410
   69SAPC   H7X 5929  -0.177   2.026   3.122 -1.7881  4.3487  1.9489
   69SAPC   H7Y 5930  -0.308   1.899   3.150  0.3839  0.0924 -0.8559
   69SAPC   C38 5931  -0.378   2.105   3.141  0.3293  0.3245 -0.2494
   69SAPC   H8X 5932  -0.479   2.068   3.116  0.6914 -0.5026 -0.5295
   69SAPC   H8Y 5933  -0.362   2.196   3.080  1.3267  1.9668  2.3166
   69SAPC   C39 5934  -0.376   2.133   3.293 -0.1834 -0.8744 -0.4030
   69SAPC   H9X 5935  -0.273   2.165   3.320 -0.7919  1.8490 -1.0550
   69SAPC   H9Y 5936  -0.379   2.040   3.354  2.3681  0.1489  1.4850
   69SAPC  C310 5937  -0.471   2.244   3.348  0.6068 -0.0421 -0.1172
   69SAPC  H10X 5938  -0.580   2.224   3.343  0.5507  0.2323 -0.0498
   69SAPC  H10Y 5939  -0.464   2.331   3.278  0.8306 -1.8364 -2.4473
   69SAPC  C311 5940  -0.445   2.291   3.484 -0.3380  0.2750  0.4944
   69SAPC  H11X 5941  -0.348   2.345   3.477  0.6507 -1.3726  0.9314
   69SAPC  H11Y 5942  -0.432   2.205   3.553  0.2292 -1.9380 -2.2018
   69SAPC  C312 5943  -0.550   2.379   3.540 -0.1854 -0.5282  0.4512
   69SAPC  H12X 5944  -0.650   2.337   3.567 -0.5279 -0.9867 -1.4300
   69SAPC  H12Y 5945  -0.577   2.443   3.453  0.1292 -2.1407 -0.8782
   69SAPC  C313 5946  -0.504   2.454   3.666 -0.3257 -0.3029 -0.4101
   69SAPC  H13X 5947  -0.437   2.536   3.631 -0.0971 -1.3518 -2.6134
   69SAPC  H13Y 5948  -0.448   2.379   3.725  2.6714  0.9033 -1.5465
   69SAPC  C314 5949  -0.619   2.515   3.746 -0.5831  0.4660 -0.7115
   69SAPC  H14X 5950  -0.688   2.436   3.781  0.2900  0.6899  1.7007
   69SAPC  H14Y 5951  -0.672   2.589   3.683  1.0133  0.6160 -1.9612
   69SAPC  C315 5952  -0.563   2.574   3.877  0.0569  0.2528 -0.2467
   69SAPC  H15X 5953  -0.497   2.661   3.856 -0.2327  0.3563 -0.7429
   69SAPC  H15Y 5954  -0.505   2.500   3.937  4.3316  2.6672 -0.9974
   69SAPC  C316 5955  -0.678   2.623   3.970 -0.0398 -0.4742 -0.5388
   69SAPC  H16X 5956  -0.728   2.525   3.982  0.1691 -0.5395 -0.1871
   69SAPC  H16Y 5957  -0.746   2.692   3.915  0.0444 -1.5930 -2.1207
   69SAPC  C317 5958  -0.627   2.688   4.108 -0.0256  0.7121  0.2533
   69SAPC  H17X 5959  -0.516   2.696   4.103 -0.0366  0.2987 -0.9164
   69SAPC  H17Y 5960  -0.650   2.617   4.190  1.0042 -1.1175 -0.9700
   69SAPC  C318 5961  -0.666   2.834   4.134  0.7124 -0.0993 -0.5966
   69SAPC  H18X 5962  -0.776   2.841   4.122  0.5717  0.8049  1.0104
   69SAPC  H18Y 5963  -0.606   2.893   4.062 -0.4344  0.5080 -1.0734
   69SAPC  H18Z 5964  -0.652   2.861   4.241  0.6571 -2.0833 -0.0408
   70SAPC     N 5965   6.413   6.817   2.238  0.0146  0.7971  0.0444
   70SAPC   C12 5966   6.393   6.665   2.245 -0.1041 -0.0145 -0.8077
   70SAPC  H12A 5967   6.486   6.614   2.223  1.5365  1.9032  1.2803
   70SAPC  H12B 5968   6.316   6.649   2.171  0.8679 -0.5030 -1.7450
   70SAPC   C13 5969   6.495   6.855   2.118  0.3356  0.3969 -0.2927
   70SAPC  H13A 5970   6.586   6.798   2.117 -0.0088 -0.1469 -0.6319
   70SAPC  H13B 5971   6.440   6.838   2.027  2.2650 -0.4490 -1.3601
   70SAPC  H13C 5972   6.517   6.961   2.123 -0.1013  0.4875 -0.2129
   70SAPC   C14 5973   6.288   6.897   2.259  0.2161 -0.5850 -0.3770
   70SAPC  H14A 5974   6.224   6.893   2.173 -1.6181 -1.2261  0.9476
   70SAPC  H14B 5975   6.235   6.857   2.344 -0.0136 -1.2869 -0.8399
   70SAPC  H14C 5976   6.310   7.001   2.274  0.5814 -0.6414 -0.5074
   70SAPC   C15 5977   6.500   6.862   2.348 -0.9222  0.1668 -0.3059
   70SAPC  H15A 5978   6.521   6.968   2.348  1.4762 -0.2472  0.6377
   70SAPC  H15B 5979   6.455   6.843   2.445  1.1943  3.4434  1.5486
   70SAPC  H15C 5980   6.592   6.809   2.332 -0.3421  1.3577 -1.0156
   70SAPC   C11 5981   6.351   6.622   2.392 -0.5342  0.2330  0.3485
   70SAPC  H11A 5982   6.418   6.659   2.472 -0.3799 -1.4742  1.0589
   70SAPC  H11B 5983   6.361   6.511   2.397  0.0260  0.2558 -0.2462
   70SAPC     P 5984   6.107   6.578   2.342  0.7263 -0.1754 -0.2167
   70SAPC   O13 5985   6.091   6.636   2.205  0.2852  0.0220 -0.6090
   70SAPC   O14 5986   6.126   6.434   2.360 -0.1058 -0.6032  0.1003
   70SAPC   O12 5987   6.220   6.658   2.415 -0.3607  0.0498  0.2811
   70SAPC   O11 5988   5.964   6.615   2.413 -0.2917 -0.0841 -0.3881
   70SAPC    C1 5989   5.956   6.729   2.502 -0.5362  0.4344  0.4436
   70SAPC    HA 5990   6.040   6.800   2.485 -1.4135  1.1604 -1.0792
   70SAPC    HB 5991   5.864   6.784   2.470 -0.4702 -0.5561 -1.6114
   70SAPC    C2 5992   5.942   6.688   2.651  0.3877 -0.3576  0.8504
   70SAPC    HS 5993   5.911   6.781   2.704  1.0108  1.9271 -2.4699
   70SAPC   O21 5994   6.054   6.622   2.707 -0.2586  0.3802  0.0854
   70SAPC   C21 5995   6.155   6.704   2.720 -0.5114 -0.2634  0.4999
   70SAPC   O22 5996   6.160   6.826   2.702 -0.5601 -0.2782 -0.0988
   70SAPC   C22 5997   6.281   6.626   2.757  0.5211  0.5615  0.3069
   70SAPC   H2R 5998   6.247   6.543   2.823 -0.4812 -2.7384 -3.9169
   70SAPC   H2S 5999   6.315   6.572   2.666  0.7685  2.9008 -1.0478
   70SAPC    C3 6000   5.816   6.602   2.661  0.1734  0.9544 -0.0719
   70SAPC    HX 6001   5.841   6.504   2.615  0.9651  0.1335  2.0266
   70SAPC    HY 6002   5.740   6.642   2.591 -0.8595 -2.0927 -0.8171
   70SAPC   O31 6003   5.776   6.578   2.801  0.0411 -0.3210 -0.2102
   70SAPC   C31 6004   5.680   6.660   2.848 -0.1174 -0.1858 -0.8958
   70SAPC   O32 6005   5.617   6.739   2.783  0.0858  0.6508  0.1114
   70SAPC   C32 6006   5.675   6.637   3.000 -0.1381  0.1510  0.8102
   70SAPC   H2X 6007   5.758   6.569   3.029  0.0866 -0.6184 -1.4464
   70SAPC   H2Y 6008   5.583   6.584   3.031 -1.2557  1.9768  0.7661
   70SAPC   C23 6009   6.404   6.703   2.808  0.1944 -0.5284  0.1679
   70SAPC   H3R 6010   6.426   6.775   2.726  3.5615 -0.3554  1.0642
   70SAPC   H3S 6011   6.487   6.630   2.797 -0.5659 -1.4813  0.6774
   70SAPC   C24 6012   6.405   6.768   2.947 -0.7446 -0.4008  0.2517
   70SAPC   H4R 6013   6.315   6.833   2.955 -0.3541  0.2719 -0.5651
   70SAPC   H4S 6014   6.493   6.832   2.968 -1.4460  0.6725  0.0691
   70SAPC   C25 6015   6.375   6.666   3.053 -0.0372  1.0552  0.2138
   70SAPC   H5R 6016   6.271   6.636   3.070  0.1837  0.3802  0.4363
   70SAPC   C26 6017   6.471   6.616   3.135 -0.5145  0.7362  0.3807
   70SAPC   H6R 6018   6.434   6.546   3.211 -1.4276  1.2823  0.4396
   70SAPC   C27 6019   6.625   6.635   3.124 -0.5260  0.1658  0.3812
   70SAPC   H7R 6020   6.650   6.729   3.070 -2.9573  1.1614  0.8648
   70SAPC   H7S 6021   6.682   6.556   3.070 -1.0730  0.5107 -0.7516
   70SAPC   C28 6022   6.678   6.654   3.265  0.7363  0.5922  0.3971
   70SAPC   H8R 6023   6.631   6.739   3.317 -0.1361  1.3701 -1.5470
   70SAPC   C29 6024   6.773   6.583   3.330 -0.3784  0.5905 -0.1119
   70SAPC   H9R 6025   6.802   6.616   3.431  0.6202 -0.7060  0.0608
   70SAPC  C210 6026   6.848   6.463   3.277  0.1376 -0.7201  0.1435
   70SAPC  H10R 6027   6.842   6.451   3.167 -0.2082  1.6968 -0.1499
   70SAPC  H10S 6028   6.804   6.374   3.328  0.9102 -1.1443  0.0846
   70SAPC  C211 6029   6.993   6.472   3.315 -0.7469 -0.0671  1.0819
   70SAPC  H11R 6030   7.055   6.510   3.233 -1.2775 -1.9318 -0.2381
   70SAPC  C212 6031   7.041   6.431   3.433 -0.7392 -1.1382  0.7382
   70SAPC  H12R 6032   7.146   6.457   3.454 -1.0802  1.6171 -0.4819
   70SAPC  C213 6033   6.956   6.380   3.547 -0.4193 -0.6581 -0.1030
   70SAPC  H13R 6034   6.862   6.439   3.559  1.1636  1.5048  3.2133
   70SAPC  H13S 6035   7.000   6.407   3.645  0.3142 -0.7196 -0.4104
   70SAPC  C214 6036   6.938   6.232   3.518  0.0351  0.0996  0.4465
   70SAPC  H14R 6037   6.938   6.203   3.413 -0.7264  1.0787  0.1526
   70SAPC  C215 6038   6.908   6.137   3.608  0.4797 -0.1304  0.3422
   70SAPC  H15R 6039   6.886   6.037   3.570 -3.0297  0.3216  0.8060
   70SAPC  C216 6040   6.912   6.157   3.755 -0.2140 -0.3601  0.6129
   70SAPC  H16R 6041   6.826   6.100   3.796  0.8392 -1.4180  1.4111
   70SAPC  H16S 6042   6.898   6.265   3.777 -0.4976  0.0110 -1.2673
   70SAPC  C217 6043   7.040   6.103   3.820 -0.4630 -0.2246  0.1171
   70SAPC  H17R 6044   7.123   6.175   3.800  0.0681 -0.4426  1.4486
   70SAPC  H17S 6045   7.080   6.008   3.778  1.2296 -0.1358  1.3966
   70SAPC  C218 6046   7.012   6.084   3.970 -0.2228  0.1171 -0.1021
   70SAPC  H18R 6047   7.106   6.047   4.016  0.3072  0.0748 -1.2006
   70SAPC  H18S 6048   6.934   6.005   3.976 -0.2492  0.1945  0.7593
   70SAPC  C219 6049   6.980   6.207   4.050  0.2000  0.5358 -0.7494
   70SAPC  H19R 6050   6.887   6.256   4.012 -1.6991 -0.7482  1.8994
   70SAPC  H19S 6051   7.065   6.278   4.054 -0.9270  1.8838  0.5944
   70SAPC  C220 6052   6.948   6.182   4.198 -0.3278 -0.6239  0.0681
   70SAPC  H20R 6053   6.919   6.274   4.253  0.8383 -0.6621  0.7877
   70SAPC  H20S 6054   7.028   6.119   4.243 -1.3259 -1.0785  1.2686
   70SAPC  H20T 6055   6.862   6.112   4.205  0.5724 -1.6260  2.1941
   70SAPC   C33 6056   5.691   6.770   3.079 -0.5379 -0.1813  1.0094
   70SAPC   H3X 6057   5.607   6.837   3.052  0.7644  0.5971 -1.3676
   70SAPC   H3Y 6058   5.792   6.814   3.071  0.6093 -2.5455  1.7131
   70SAPC   C34 6059   5.689   6.756   3.238 -0.8103 -0.3815  0.0209
   70SAPC   H4X 6060   5.589   6.719   3.268 -0.4580 -1.5692 -0.2236
   70SAPC   H4Y 6061   5.697   6.862   3.272 -4.4428  0.3941 -1.1137
   70SAPC   C35 6062   5.814   6.687   3.298  0.3374 -0.4196  0.3443
   70SAPC   H5X 6063   5.903   6.715   3.238  1.0873 -0.8449  1.2218
   70SAPC   H5Y 6064   5.807   6.580   3.271 -1.0293  0.1227 -1.7123
   70SAPC   C36 6065   5.829   6.723   3.444  0.1998 -1.3041  0.0856
   70SAPC   H6X 6066   5.808   6.831   3.464 -0.0608 -1.7181  2.3124
   70SAPC   H6Y 6067   5.931   6.701   3.480  0.8000 -0.6457 -1.1434
   70SAPC   C37 6068   5.727   6.648   3.535 -0.1732 -0.1176  0.3409
   70SAPC   H7X 6069   5.620   6.661   3.508 -0.1019  0.7102  0.4193
   70SAPC   H7Y 6070   5.757   6.542   3.528 -0.0384 -0.0409 -0.2828
   70SAPC   C38 6071   5.734   6.689   3.689 -0.1822  0.6571  0.0135
   70SAPC   H8X 6072   5.648   6.647   3.746 -1.8958  2.3595 -1.1746
   70SAPC   H8Y 6073   5.723   6.800   3.693 -1.2632  0.6398 -1.6502
   70SAPC   C39 6074   5.861   6.628   3.747  0.3997 -0.3140  0.2946
   70SAPC   H9X 6075   5.944   6.678   3.692 -0.1240  1.2343  0.8542
   70SAPC   H9Y 6076   5.862   6.518   3.732 -0.6374 -0.1899 -0.8752
   70SAPC  C310 6077   5.888   6.679   3.886  0.3434 -0.1222 -0.9576
   70SAPC  H10X 6078   5.830   6.615   3.956  0.9766 -3.9460 -3.6097
   70SAPC  H10Y 6079   5.858   6.786   3.890  0.4595 -0.0686 -1.4804
   70SAPC  C311 6080   6.027   6.664   3.931  0.4624  0.0077 -0.2086
   70SAPC  H11X 6081   6.088   6.733   3.869 -0.3785  0.6369 -0.3511
   70SAPC  H11Y 6082   6.060   6.560   3.908  1.2936  0.2037  0.0604
   70SAPC  C312 6083   6.073   6.702   4.072  0.5662 -0.6166 -0.1231
   70SAPC  H12X 6084   6.176   6.660   4.073  0.4081 -0.9930  1.1771
   70SAPC  H12Y 6085   6.015   6.648   4.149  1.6836 -0.8443  0.5916
   70SAPC  C313 6086   6.068   6.854   4.096 -0.4419 -0.0462 -0.2601
   70SAPC  H13X 6087   6.079   6.902   3.997 -0.2627 -0.9621 -0.6942
   70SAPC  H13Y 6088   6.157   6.872   4.160 -2.5817  2.9300  2.2498
   70SAPC  C314 6089   5.946   6.905   4.175 -0.8837  0.3493 -0.3436
   70SAPC  H14X 6090   5.927   6.837   4.260  1.6087  0.3929  0.3078
   70SAPC  H14Y 6091   5.861   6.914   4.103  0.4230  2.0509 -1.7734
   70SAPC  C315 6092   5.968   7.045   4.232 -0.3680 -0.4519  0.0268
   70SAPC  H15X 6093   5.883   7.069   4.300  0.2332 -0.7763  0.9081
   70SAPC  H15Y 6094   5.958   7.117   4.147 -0.3296 -0.8898 -0.3531
   70SAPC  C316 6095   6.101   7.070   4.301 -0.4610 -0.8181  1.0248
   70SAPC  H16X 6096   6.179   7.079   4.223 -1.8130 -0.6112 -0.3435
   70SAPC  H16Y 6097   6.129   6.987   4.370 -3.2396 -2.0287  0.8586
   70SAPC  C317 6098   6.101   7.202   4.385  0.6230 -0.2857 -0.4666
   70SAPC  H17X 6099   6.065   7.292   4.329  0.4436 -0.1337 -0.1059
   70SAPC  H17Y 6100   6.205   7.214   4.424  1.0376 -1.6770 -1.0839
   70SAPC  C318 6101   6.000   7.194   4.495 -0.4992 -0.6378 -0.2974
   70SAPC  H18X 6102   5.897   7.203   4.455 -0.4358 -2.1256 -0.8435
   70SAPC  H18Y 6103   6.031   7.274   4.566  0.1396  1.1150 -2.4314
   70SAPC  H18Z 6104   6.003   7.098   4.549 -3.5146 -1.9086 -2.1517
   71SAPC     N 6105   0.224   6.335   2.365 -0.3164 -0.2005 -0.5427
   71SAPC   C12 6106   0.205   6.185   2.360  0.7459 -0.5396  0.1282
   71SAPC  H12A 6107   0.145   6.166   2.272 -0.6129  0.5217  0.7861
   71SAPC  H12B 6108   0.130   6.157   2.433 -1.0373  3.0866 -0.0850
   71SAPC   C13 6109   0.099   6.410   2.388 -0.6586 -0.9658  0.0211
   71SAPC  H13A 6110   0.121   6.515   2.404  0.3385 -1.2595  0.6755
   71SAPC  H13B 6111   0.040   6.408   2.298 -2.3646  0.5597  1.0314
   71SAPC  H13C 6112   0.033   6.382   2.468 -2.4761  0.3581 -0.9517
   71SAPC   C14 6113   0.316   6.369   2.483  0.6556 -0.0168  0.3315
   71SAPC  H14A 6114   0.259   6.338   2.569 -1.0920 -0.2391 -0.8503
   71SAPC  H14B 6115   0.401   6.305   2.467 -1.3275 -2.7255 -0.1043
   71SAPC  H14C 6116   0.343   6.473   2.471 -0.5756  0.0536 -2.8993
   71SAPC   C15 6117   0.296   6.390   2.244  0.0373 -0.1073  0.2211
   71SAPC  H15A 6118   0.358   6.476   2.265  2.3691 -1.5845 -0.2287
   71SAPC  H15B 6119   0.364   6.315   2.205 -1.2832 -2.6633  2.5024
   71SAPC  H15C 6120   0.218   6.420   2.176 -3.3158 -1.3915  3.2086
   71SAPC   C11 6121   0.324   6.084   2.353  0.3457  0.0348  0.1039
   71SAPC  H11A 6122   0.276   5.984   2.365 -3.5690  1.6174 -0.7345
   71SAPC  H11B 6123   0.388   6.098   2.442  2.3256 -0.3711 -1.1985
   71SAPC     P 6124   0.503   5.991   2.203 -0.0424 -0.3414  0.4979
   71SAPC   O13 6125   0.441   5.853   2.191  0.0711 -0.6989 -0.1033
   71SAPC   O14 6126   0.584   6.032   2.090  0.0420 -0.4201 -0.4346
   71SAPC   O12 6127   0.390   6.099   2.227  0.4419 -0.5651 -0.0550
   71SAPC   O11 6128   0.581   5.994   2.340  0.8227  0.7606 -0.3296
   71SAPC    C1 6129   0.674   6.093   2.352 -0.4253 -1.2809  0.2184
   71SAPC    HA 6130   0.764   6.068   2.293 -1.8721 -2.5368 -1.5838
   71SAPC    HB 6131   0.643   6.195   2.320  2.4344  0.0288  1.3625
   71SAPC    C2 6132   0.726   6.110   2.498  0.5727  0.2227 -0.5733
   71SAPC    HS 6133   0.819   6.170   2.498  0.5286  0.6229  3.9813
   71SAPC   O21 6134   0.735   5.987   2.571  0.4896  0.3349 -0.5902
   71SAPC   C21 6135   0.813   5.888   2.528  0.0125  0.3641  0.1237
   71SAPC   O22 6136   0.895   5.896   2.436 -0.2113  0.0982  0.2726
   71SAPC   C22 6137   0.786   5.764   2.611  0.6537  1.0215  0.1053
   71SAPC   H2R 6138   0.678   5.738   2.595  0.4722  1.4987  0.5411
   71SAPC   H2S 6139   0.847   5.683   2.565 -1.1653  0.4765 -1.5490
   71SAPC    C3 6140   0.637   6.208   2.575  0.3014 -0.5217  0.1092
   71SAPC    HX 6141   0.538   6.164   2.599  0.2011  0.1236  0.9819
   71SAPC    HY 6142   0.623   6.296   2.509 -1.1587 -0.2297  0.7546
   71SAPC   O31 6143   0.693   6.243   2.701 -0.1647  0.1452 -0.2970
   71SAPC   C31 6144   0.659   6.164   2.803 -0.1404  0.6210  0.1521
   71SAPC   O32 6145   0.578   6.073   2.801  0.6205 -0.1474  0.4215
   71SAPC   C32 6146   0.726   6.213   2.928  0.1102  0.0884 -0.0328
   71SAPC   H2X 6147   0.733   6.324   2.924  2.6032 -0.0219 -0.1676
   71SAPC   H2Y 6148   0.836   6.194   2.929  0.2223  0.4007 -1.8423
   71SAPC   C23 6149   0.821   5.783   2.762  0.9309 -0.3261 -0.3651
   71SAPC   H3R 6150   0.780   5.696   2.818 -0.2898  0.4620  0.0007
   71SAPC   H3S 6151   0.755   5.866   2.797 -1.3472 -0.9330 -2.8237
   71SAPC   C24 6152   0.968   5.787   2.794  0.0738  0.0659  0.2153
   71SAPC   H4R 6153   0.982   5.805   2.902  0.5009 -0.9791  0.3450
   71SAPC   H4S 6154   1.000   5.870   2.727 -2.0947 -0.4580 -1.5944
   71SAPC   C25 6155   1.054   5.664   2.752 -0.4902 -0.5412  0.0541
   71SAPC   H5R 6156   1.046   5.639   2.645  0.2174  2.3478 -0.7591
   71SAPC   C26 6157   1.141   5.594   2.831 -0.4876  0.5897 -0.1806
   71SAPC   H6R 6158   1.194   5.509   2.786 -0.9793  1.5595 -2.7808
   71SAPC   C27 6159   1.171   5.630   2.976 -0.5848  0.4068 -0.5308
   71SAPC   H7R 6160   1.194   5.534   3.027  1.2422 -0.8235 -3.3777
   71SAPC   H7S 6161   1.073   5.669   3.011 -2.1302 -2.9012 -0.8556
   71SAPC   C28 6162   1.298   5.716   2.992  0.5388 -0.2499  0.6579
   71SAPC   H8R 6163   1.353   5.730   2.898 -1.2813  1.7414 -0.2138
   71SAPC   C29 6164   1.338   5.779   3.109  0.0267  0.4675  0.3388
   71SAPC   H9R 6165   1.420   5.853   3.112 -0.2787  0.8424 -0.3325
   71SAPC  C210 6166   1.270   5.766   3.243  0.2237  0.3330 -0.2144
   71SAPC  H10R 6167   1.246   5.660   3.269 -0.8985  0.9923  1.6478
   71SAPC  H10S 6168   1.173   5.818   3.232  0.3163  0.1382 -2.4011
   71SAPC  C211 6169   1.341   5.818   3.360 -0.8146 -0.0771 -0.7473
   71SAPC  H11R 6170   1.312   5.918   3.397 -0.6627 -0.1064 -0.5495
   71SAPC  C212 6171   1.444   5.766   3.429  0.5052 -0.2910 -0.8813
   71SAPC  H12R 6172   1.490   5.835   3.502 -1.1166 -1.1371  1.0281
   71SAPC  C213 6173   1.505   5.628   3.406 -0.1806 -0.5888 -0.6028
   71SAPC  H13R 6174   1.505   5.592   3.301  0.2602  0.2985 -0.9200
   71SAPC  H13S 6175   1.434   5.558   3.455 -0.6462  0.5011  0.3305
   71SAPC  C214 6176   1.634   5.609   3.483  0.1048  0.0749 -0.7256
   71SAPC  H14R 6177   1.633   5.657   3.582 -1.3880 -1.3643  0.0105
   71SAPC  C215 6178   1.744   5.546   3.446 -0.2902  0.0448  0.1938
   71SAPC  H15R 6179   1.834   5.543   3.509  0.0531  1.5930 -0.1807
   71SAPC  C216 6180   1.760   5.470   3.318  0.5161  0.0574 -0.1684
   71SAPC  H16R 6181   1.666   5.459   3.260 -0.0818 -2.1630  1.0941
   71SAPC  H16S 6182   1.791   5.366   3.343  2.0371  0.4012 -0.5642
   71SAPC  C217 6183   1.881   5.535   3.244 -0.8343 -0.2544  0.0488
   71SAPC  H17R 6184   1.902   5.465   3.159  0.3036 -0.1617  0.2411
   71SAPC  H17S 6185   1.970   5.530   3.310 -0.6534  2.4508  0.1194
   71SAPC  C218 6186   1.854   5.673   3.172 -0.0560  0.1451 -0.7656
   71SAPC  H18R 6187   1.953   5.706   3.136  1.4677 -1.9152  1.2417
   71SAPC  H18S 6188   1.810   5.748   3.242 -0.2353  0.1218 -0.8513
   71SAPC  C219 6189   1.762   5.663   3.051  0.1469  0.0694  0.7930
   71SAPC  H19R 6190   1.657   5.642   3.078  0.2785 -0.8315  0.6367
   71SAPC  H19S 6191   1.810   5.585   2.988  0.3502  1.8488 -1.3772
   71SAPC  C220 6192   1.743   5.797   2.978 -0.5582 -0.6801  0.0727
   71SAPC  H20R 6193   1.697   5.877   3.040  0.3301 -0.7709  0.8870
   71SAPC  H20S 6194   1.695   5.793   2.878  0.3883  3.2260 -0.7014
   71SAPC  H20T 6195   1.843   5.843   2.958 -1.2793  1.0005  0.2000
   71SAPC   C33 6196   0.663   6.154   3.056 -0.0673 -0.6751  0.2249
   71SAPC   H3X 6197   0.556   6.147   3.026  0.1778 -1.9431 -0.4178
   71SAPC   H3Y 6198   0.667   6.233   3.134  0.9059 -0.6457  0.1506
   71SAPC   C34 6199   0.705   6.017   3.099  0.6940  0.3655  0.1178
   71SAPC   H4X 6200   0.729   5.954   3.010 -3.1052 -0.4357 -0.5273
   71SAPC   H4Y 6201   0.623   5.966   3.153  1.1501 -1.2318 -0.6382
   71SAPC   C35 6202   0.821   6.012   3.193  0.2037 -0.2380  0.4859
   71SAPC   H5X 6203   0.901   6.077   3.150  0.6044 -0.4263  0.9424
   71SAPC   H5Y 6204   0.844   5.903   3.202 -2.1547 -0.7975  0.5059
   71SAPC   C36 6205   0.784   6.068   3.336  0.6575  0.1256  0.1327
   71SAPC   H6X 6206   0.709   6.000   3.382  1.1290 -0.5955 -0.1536
   71SAPC   H6Y 6207   0.735   6.167   3.325  0.9084  0.9852  4.8711
   71SAPC   C37 6208   0.910   6.060   3.424 -1.2280  0.1748 -0.5294
   71SAPC   H7X 6209   0.977   6.141   3.388 -0.4497 -0.9766 -1.7646
   71SAPC   H7Y 6210   0.968   5.969   3.403  1.2958  2.2107 -3.2076
   71SAPC   C38 6211   0.877   6.084   3.574 -0.1826  0.0350  0.2285
   71SAPC   H8X 6212   0.847   5.986   3.618  1.2776  0.0526  1.3241
   71SAPC   H8Y 6213   0.783   6.142   3.579  0.2411  0.6119  1.9292
   71SAPC   C39 6214   0.989   6.150   3.655  0.7626  0.2628  0.4188
   71SAPC   H9X 6215   1.027   6.244   3.609 -0.6362 -0.3566 -2.2333
   71SAPC   H9Y 6216   1.078   6.084   3.658  1.6610  1.4679  1.3388
   71SAPC  C310 6217   0.939   6.192   3.792 -0.2456 -0.5851 -0.5131
   71SAPC  H10X 6218   1.016   6.200   3.871 -0.4983  0.4022 -0.3462
   71SAPC  H10Y 6219   0.863   6.120   3.827 -2.7911  1.7232 -0.9189
   71SAPC  C311 6220   0.882   6.340   3.792 -0.0854  0.0185 -0.2304
   71SAPC  H11X 6221   0.844   6.354   3.896 -1.1734 -1.0047 -0.4763
   71SAPC  H11Y 6222   0.796   6.352   3.723  0.0945 -0.0960 -0.4755
   71SAPC  C312 6223   0.995   6.439   3.774  0.1471 -0.8222 -0.0249
   71SAPC  H12X 6224   1.058   6.433   3.683  1.5587  0.1929  0.8399
   71SAPC  H12Y 6225   1.065   6.434   3.860 -0.3574  2.2973  0.7006
   71SAPC  C313 6226   0.940   6.586   3.777  0.4029  0.6721 -0.5481
   71SAPC  H13X 6227   0.861   6.581   3.699 -0.8573 -2.0331  0.7702
   71SAPC  H13Y 6228   1.016   6.665   3.757  1.8466  0.2730  2.8345
   71SAPC  C314 6229   0.869   6.636   3.910  0.2247  0.0235 -0.0913
   71SAPC  H14X 6230   0.948   6.649   3.986  0.1620  1.1287 -0.1978
   71SAPC  H14Y 6231   0.804   6.557   3.954  2.8500 -2.5389 -0.4749
   71SAPC  C315 6232   0.784   6.767   3.894 -0.9711  0.5878  0.2573
   71SAPC  H15X 6233   0.736   6.777   3.993 -1.4164 -1.1862  0.2513
   71SAPC  H15Y 6234   0.702   6.755   3.820  0.3972  0.0951 -1.2370
   71SAPC  C316 6235   0.863   6.891   3.870 -0.2581 -0.7484  0.0588
   71SAPC  H16X 6236   0.803   6.982   3.885  1.9048  0.6608  0.6464
   71SAPC  H16Y 6237   0.908   6.902   3.769  0.3103  0.3510  0.4202
   71SAPC  C317 6238   0.984   6.898   3.978 -0.0363  0.2246  0.5790
   71SAPC  H17X 6239   1.069   6.832   3.950 -2.1889 -1.8161 -1.7552
   71SAPC  H17Y 6240   0.944   6.857   4.073  0.3876 -0.6584  0.3926
   71SAPC  C318 6241   1.038   7.035   3.996  0.5678 -0.5106 -0.0617
   71SAPC  H18X 6242   1.074   7.082   3.901  1.7652 -0.6239  0.3152
   71SAPC  H18Y 6243   1.123   7.036   4.068  0.9927 -0.7312 -0.5506
   71SAPC  H18Z 6244   0.958   7.105   4.030  0.5183 -1.3991  1.7547
   72SAPC     N 6245   6.157   3.658   2.017  0.2563 -0.4376 -0.1729
   72SAPC   C12 6246   6.051   3.615   2.114 -0.6943  0.5052  0.5283
   72SAPC  H12A 6247   6.097   3.566   2.199  1.8350  0.7132 -0.6245
   72SAPC  H12B 6248   5.990   3.534   2.077 -1.6955  1.7238 -0.5823
   72SAPC   C13 6249   6.275   3.727   2.084  0.0836  0.1981  0.8138
   72SAPC  H13A 6250   6.241   3.805   2.151 -0.1361  0.2426  0.6535
   72SAPC  H13B 6251   6.336   3.661   2.143  0.7299  0.0996  0.0585
   72SAPC  H13C 6252   6.330   3.775   2.004  0.0973  0.9972  1.2926
   72SAPC   C14 6253   6.206   3.540   1.944  0.7095  0.4330  0.9701
   72SAPC  H14A 6254   6.126   3.493   1.889  0.3412  2.2331 -0.1079
   72SAPC  H14B 6255   6.283   3.576   1.877 -0.8405  1.8289 -0.1603
   72SAPC  H14C 6256   6.241   3.459   2.006 -0.3819  0.0391  1.0900
   72SAPC   C15 6257   6.085   3.741   1.914  0.2458  0.5200 -0.4846
   72SAPC  H15A 6258   6.156   3.787   1.847  0.4640 -0.2373 -0.7787
   72SAPC  H15B 6259   6.027   3.673   1.854 -0.2829 -1.1065  1.7211
   72SAPC  H15C 6260   6.017   3.816   1.953  1.8946  1.8249  0.0091
   72SAPC   C11 6261   5.963   3.712   2.190 -0.0120  0.7033  0.3187
   72SAPC  H11A 6262   5.911   3.647   2.264  1.4337 -0.2385  0.5602
   72SAPC  H11B 6263   5.881   3.748   2.125 -0.2998 -2.8960 -1.5511
   72SAPC     P 6264   6.030   3.968   2.232 -0.1866  0.8136 -0.0621
   72SAPC   O13 6265   6.164   4.022   2.248  0.4322  0.4036  0.4298
   72SAPC   O14 6266   5.952   3.992   2.112 -0.1048 -0.4549  0.5832
   72SAPC   O12 6267   6.035   3.813   2.265  0.7223  0.8717 -0.0080
   72SAPC   O11 6268   5.952   4.020   2.355  0.3258  0.3369 -0.6025
   72SAPC    C1 6269   5.989   3.978   2.492  0.0933  0.1038 -0.4012
   72SAPC    HA 6270   5.898   3.932   2.537  0.4954 -1.0410 -0.7112
   72SAPC    HB 6271   6.062   3.895   2.485 -0.7583 -0.5898 -1.5585
   72SAPC    C2 6272   6.016   4.097   2.587 -0.2537  0.2034 -0.7339
   72SAPC    HS 6273   5.960   4.190   2.565 -1.6417  0.1610  2.1356
   72SAPC   O21 6274   6.160   4.109   2.595  0.2419  0.2629 -0.1166
   72SAPC   C21 6275   6.209   4.204   2.520 -0.0578  0.1194 -0.6803
   72SAPC   O22 6276   6.144   4.294   2.465  0.6838  0.6417  0.2249
   72SAPC   C22 6277   6.361   4.185   2.517  0.0557  0.0615  0.3320
   72SAPC   H2R 6278   6.400   4.145   2.613  0.0228 -0.3117  0.1905
   72SAPC   H2S 6279   6.375   4.120   2.429  1.5826 -1.7812  1.8495
   72SAPC    C3 6280   5.968   4.068   2.736  0.8372  0.2719 -0.2717
   72SAPC    HX 6281   6.004   4.155   2.795  0.9638  0.1550 -0.1735
   72SAPC    HY 6282   6.013   3.975   2.777 -0.2669 -0.5020 -0.7707
   72SAPC   O31 6283   5.825   4.049   2.735  0.4841  0.6227  0.0964
   72SAPC   C31 6284   5.755   4.160   2.724  0.5185 -0.7704  0.0476
   72SAPC   O32 6285   5.810   4.274   2.713  0.3420 -0.3894 -0.3565
   72SAPC   C32 6286   5.606   4.137   2.746  0.4891 -0.3075  0.6273
   72SAPC   H2X 6287   5.584   4.028   2.748  0.8226 -0.4146  3.2693
   72SAPC   H2Y 6288   5.541   4.183   2.670  0.4288 -2.8437 -0.9705
   72SAPC   C23 6289   6.430   4.321   2.487  0.0866 -0.3129  0.1950
   72SAPC   H3R 6290   6.367   4.395   2.434 -0.7145 -1.2288 -0.1650
   72SAPC   H3S 6291   6.511   4.306   2.413 -1.2870  0.5156 -1.5391
   72SAPC   C24 6292   6.499   4.381   2.612  0.4286  0.7818 -0.1561
   72SAPC   H4R 6293   6.563   4.461   2.568  1.5048  0.0152 -0.0289
   72SAPC   H4S 6294   6.572   4.310   2.658 -0.3202  0.6200  0.8068
   72SAPC   C25 6295   6.400   4.438   2.716 -0.8594 -0.1715 -0.3920
   72SAPC   H5R 6296   6.344   4.527   2.684  0.0492  0.5274 -0.0641
   72SAPC   C26 6297   6.377   4.388   2.841 -0.2999  0.4640  0.0762
   72SAPC   H6R 6298   6.301   4.437   2.904  0.7319 -0.2727  1.9691
   72SAPC   C27 6299   6.447   4.274   2.918  0.0803  0.1337 -0.4837
   72SAPC   H7R 6300   6.530   4.314   2.979  0.2060  2.0679 -1.8307
   72SAPC   H7S 6301   6.493   4.205   2.844 -0.9529 -2.1547  0.8941
   72SAPC   C28 6302   6.356   4.181   2.993 -0.4480 -0.0730 -0.5477
   72SAPC   H8R 6303   6.295   4.109   2.936  1.6427 -2.8201  0.4651
   72SAPC   C29 6304   6.328   4.184   3.126  0.2402 -0.7180 -0.5803
   72SAPC   H9R 6305   6.286   4.093   3.171  0.0977  0.1144  1.0397
   72SAPC  C210 6306   6.389   4.278   3.223  1.0072  0.5075 -0.1725
   72SAPC  H10R 6307   6.480   4.326   3.180  1.5692  0.2333  0.7099
   72SAPC  H10S 6308   6.432   4.221   3.307 -1.3201  0.2625  0.9326
   72SAPC  C211 6309   6.288   4.384   3.261 -0.0144  0.0017 -0.0426
   72SAPC  H11R 6310   6.219   4.419   3.182 -1.6762  0.3167  1.4728
   72SAPC  C212 6311   6.272   4.439   3.385  0.2866 -1.2548  0.0869
   72SAPC  H12R 6312   6.193   4.514   3.398  0.0889 -0.8579 -2.7388
   72SAPC  C213 6313   6.347   4.410   3.510  0.5307 -0.6908  0.1276
   72SAPC  H13R 6314   6.351   4.505   3.568 -1.3491 -0.5334  0.0442
   72SAPC  H13S 6315   6.449   4.373   3.485  0.8268  1.5162 -2.2796
   72SAPC  C214 6316   6.279   4.304   3.593  0.1163  0.2059  0.2256
   72SAPC  H14R 6317   6.204   4.235   3.552 -0.5290  0.4863  0.9095
   72SAPC  C215 6318   6.315   4.277   3.718 -0.5737 -0.9378  0.0752
   72SAPC  H15R 6319   6.273   4.189   3.769  0.3451 -1.1607  0.4733
   72SAPC  C216 6320   6.425   4.355   3.799 -0.2780 -0.4427 -0.2884
   72SAPC  H16R 6321   6.369   4.418   3.872 -0.2724 -0.1820 -0.5063
   72SAPC  H16S 6322   6.480   4.428   3.736 -2.0331 -0.0765 -1.4817
   72SAPC  C217 6323   6.535   4.276   3.873  0.0631  0.2491 -0.2686
   72SAPC  H17R 6324   6.601   4.224   3.801  0.0330  0.0707 -0.1679
   72SAPC  H17S 6325   6.490   4.202   3.943  1.2222  1.0977  1.4628
   72SAPC  C218 6326   6.622   4.365   3.965  0.1520  1.0207 -0.7091
   72SAPC  H18R 6327   6.561   4.414   4.044 -1.0818 -0.8615 -0.4277
   72SAPC  H18S 6328   6.661   4.449   3.904 -0.5023  4.1292  2.8122
   72SAPC  C219 6329   6.734   4.295   4.037 -0.0208 -0.0458 -0.2269
   72SAPC  H19R 6330   6.809   4.253   3.966  0.7170  1.0213 -0.0966
   72SAPC  H19S 6331   6.699   4.204   4.090 -1.8919  1.1353  0.6397
   72SAPC  C220 6332   6.811   4.391   4.130 -0.3704  0.1192  0.0825
   72SAPC  H20R 6333   6.742   4.445   4.198 -2.4023  0.1682 -1.9030
   72SAPC  H20S 6334   6.869   4.460   4.065 -0.4145  0.0649 -0.0144
   72SAPC  H20T 6335   6.878   4.334   4.199  1.1268 -0.0603 -1.4639
   72SAPC   C33 6336   5.576   4.203   2.884 -0.3661 -0.5157 -0.0960
   72SAPC   H3X 6337   5.467   4.223   2.890 -0.1157  1.7226 -1.7889
   72SAPC   H3Y 6338   5.625   4.302   2.891  2.2927 -1.7511  0.2840
   72SAPC   C34 6339   5.629   4.112   2.996  0.1350 -0.4239 -0.5172
   72SAPC   H4X 6340   5.739   4.101   2.990  0.2827 -2.2256  2.7130
   72SAPC   H4Y 6341   5.587   4.009   2.994  2.3738 -1.5391  2.3533
   72SAPC   C35 6342   5.589   4.165   3.137  0.3141 -0.4089  0.2310
   72SAPC   H5X 6343   5.634   4.100   3.216  1.0991 -0.9721 -0.6556
   72SAPC   H5Y 6344   5.479   4.156   3.147  0.2767  1.1326  1.6403
   72SAPC   C36 6345   5.629   4.308   3.181  0.2427  0.1774  0.0715
   72SAPC   H6X 6346   5.578   4.331   3.277 -0.8364 -1.2727 -0.1206
   72SAPC   H6Y 6347   5.587   4.386   3.114  0.5866 -1.8338 -2.6676
   72SAPC   C37 6348   5.784   4.325   3.179  1.3657  1.1893 -0.2030
   72SAPC   H7X 6349   5.802   4.325   3.069  0.2518 -1.7615 -0.4680
   72SAPC   H7Y 6350   5.823   4.235   3.231 -0.0172  0.6418 -0.0716
   72SAPC   C38 6351   5.827   4.453   3.246  0.0072 -0.1753 -1.1550
   72SAPC   H8X 6352   5.782   4.544   3.200 -0.7642 -0.1873 -0.4619
   72SAPC   H8Y 6353   5.936   4.470   3.237  0.1749 -0.9755 -0.7305
   72SAPC   C39 6354   5.802   4.461   3.400  0.2124  0.3732 -1.0027
   72SAPC   H9X 6355   5.706   4.417   3.434  0.1728  1.3021  0.1815
   72SAPC   H9Y 6356   5.792   4.567   3.432  0.4752  0.1449 -0.1085
   72SAPC  C310 6357   5.909   4.393   3.487 -0.0955  0.4596 -1.4277
   72SAPC  H10X 6358   6.013   4.432   3.473 -0.0252  0.9302  0.2359
   72SAPC  H10Y 6359   5.913   4.290   3.446 -0.4503 -0.2748  0.3390
   72SAPC  C311 6360   5.867   4.402   3.637 -0.3274 -0.2011 -0.0424
   72SAPC  H11X 6361   5.923   4.333   3.704 -1.5146  0.2854  1.5347
   72SAPC  H11Y 6362   5.760   4.374   3.646  0.0220 -1.0847  2.1069
   72SAPC  C312 6363   5.896   4.544   3.686 -0.8029  0.1429  0.2802
   72SAPC  H12X 6364   5.872   4.630   3.620 -0.3829 -0.1763 -0.3011
   72SAPC  H12Y 6365   6.007   4.545   3.687 -0.7642 -1.2773 -0.1396
   72SAPC  C313 6366   5.838   4.573   3.824  0.3004  0.1728  0.1816
   72SAPC  H13X 6367   5.861   4.483   3.884 -2.4612  0.0347  1.1591
   72SAPC  H13Y 6368   5.729   4.577   3.802  0.4392 -1.3607 -0.9981
   72SAPC  C314 6369   5.888   4.706   3.890  0.7463  0.2274  0.3691
   72SAPC  H14X 6370   5.841   4.792   3.837 -0.7166 -0.2098  0.9077
   72SAPC  H14Y 6371   5.994   4.704   3.858 -0.1598  0.3606 -3.0072
   72SAPC  C315 6372   5.889   4.715   4.044  0.1954 -0.1608 -0.4125
   72SAPC  H15X 6373   5.961   4.794   4.074  0.1194 -0.4513  0.5827
   72SAPC  H15Y 6374   5.933   4.622   4.087  1.7322  0.6764 -0.0818
   72SAPC  C316 6375   5.747   4.745   4.085  0.1051  0.3233 -0.5422
   72SAPC  H16X 6376   5.669   4.672   4.053  0.3505 -0.5540  0.7960
   72SAPC  H16Y 6377   5.715   4.848   4.056  1.8748  1.4139  1.1836
   72SAPC  C317 6378   5.724   4.741   4.240 -0.0777 -0.3780  0.3732
   72SAPC  H17X 6379   5.798   4.804   4.293 -1.5627  2.0683 -0.3004
   72SAPC  H17Y 6380   5.739   4.638   4.280 -0.4116 -0.8824 -0.7564
   72SAPC  C318 6381   5.588   4.788   4.281 -0.0027 -0.4942 -0.0504
   72SAPC  H18X 6382   5.500   4.727   4.252  0.0419 -0.8585  0.5645
   72SAPC  H18Y 6383   5.568   4.893   4.251  2.9886 -0.3246 -1.8947
   72SAPC  H18Z 6384   5.586   4.814   4.389  4.1717  0.3424  0.0133
   73SLPC     N 6385   5.217   6.450   7.103 -0.0365  0.7002  0.3089
   73SLPC   C13 6386   5.064   6.452   7.127  0.0082  0.4107  0.5329
   73SLPC  H13A 6387   5.027   6.553   7.124  1.2000  0.8435 -0.6779
   73SLPC  H13B 6388   5.022   6.403   7.041  1.3932  1.4790 -0.8043
   73SLPC  H13C 6389   5.042   6.407   7.223  1.0697 -2.5252 -0.4858
   73SLPC   C14 6390   5.255   6.308   7.071  0.5755 -0.2660  0.2471
   73SLPC  H14A 6391   5.345   6.308   7.010  1.1915  1.7135  1.0623
   73SLPC  H14B 6392   5.277   6.252   7.161 -0.6720 -0.6686  0.3135
   73SLPC  H14C 6393   5.177   6.253   7.020 -0.9344 -0.1019  2.2647
   73SLPC   C15 6394   5.286   6.495   7.231  0.0925 -0.8903  0.4293
   73SLPC  H15A 6395   5.259   6.600   7.235 -3.2536 -1.4677 -2.4183
   73SLPC  H15B 6396   5.238   6.454   7.318 -0.3517  0.7522  0.9949
   73SLPC  H15C 6397   5.394   6.486   7.223  0.1897  0.3850 -0.0093
   73SLPC   C12 6398   5.262   6.541   6.985  0.6243  0.4088 -0.0749
   73SLPC  H12A 6399   5.217   6.638   7.000  0.9846  0.4972  0.4851
   73SLPC  H12B 6400   5.220   6.499   6.895 -0.4145 -0.4651  0.8002
   73SLPC   C11 6401   5.410   6.573   6.954 -1.0712 -0.4137 -0.6251
   73SLPC  H11A 6402   5.447   6.611   7.051 -1.9282 -1.1567  0.0235
   73SLPC  H11B 6403   5.424   6.654   6.879 -1.0931  0.3556  0.1900
   73SLPC     P 6404   5.469   6.401   6.779  0.5627  0.2379  0.6472
   73SLPC   O13 6405   5.509   6.260   6.768 -1.0445  0.1974  0.1305
   73SLPC   O14 6406   5.337   6.430   6.723  0.7363 -1.0660  0.5506
   73SLPC   O12 6407   5.485   6.450   6.926 -0.9599 -0.5702 -0.2054
   73SLPC   O11 6408   5.568   6.496   6.705  0.4013 -0.1636  0.0213
   73SLPC    C1 6409   5.689   6.447   6.653 -0.4521 -0.1065  0.4423
   73SLPC    HA 6410   5.737   6.541   6.621 -1.4740 -0.3676 -2.1117
   73SLPC    HB 6411   5.745   6.393   6.732  0.4607  0.1113 -0.0483
   73SLPC    C2 6412   5.674   6.386   6.509  0.1867  0.5555 -0.1789
   73SLPC    HS 6413   5.758   6.409   6.440 -0.4341  1.1510 -0.7411
   73SLPC   O21 6414   5.555   6.429   6.442  0.0472 -0.7292 -0.7419
   73SLPC   C21 6415   5.547   6.555   6.393  0.1171 -0.1394 -0.0908
   73SLPC   O22 6416   5.640   6.633   6.389 -0.8001  0.2723 -0.4977
   73SLPC   C22 6417   5.413   6.576   6.327  0.0079  1.0656 -0.1052
   73SLPC   H2R 6418   5.371   6.477   6.301 -0.6925  0.7666  1.9517
   73SLPC   H2S 6419   5.350   6.626   6.404 -0.4949  0.9618 -0.4441
   73SLPC    C3 6420   5.662   6.232   6.514 -0.5754 -0.6887 -0.4408
   73SLPC    HX 6421   5.558   6.195   6.512 -1.0694  0.6459 -0.8326
   73SLPC    HY 6422   5.695   6.213   6.618  1.5553  1.0961 -0.7031
   73SLPC   O31 6423   5.742   6.158   6.419  0.1735  0.2346 -0.5075
   73SLPC   C31 6424   5.701   6.164   6.293 -0.0337  0.1457  0.2789
   73SLPC   O32 6425   5.588   6.199   6.257  0.1252  0.2746 -0.2548
   73SLPC   C32 6426   5.823   6.111   6.212 -0.2638  0.0084  0.2085
   73SLPC   H2X 6427   5.843   6.002   6.224  3.2268  0.2198 -2.0247
   73SLPC   H2Y 6428   5.914   6.164   6.248 -0.2538  0.7712 -0.9018
   73SLPC   C23 6429   5.412   6.671   6.207 -0.2284  0.2846 -0.6459
   73SLPC   H3R 6430   5.485   6.754   6.219  0.7497 -0.8282  1.8453
   73SLPC   H3S 6431   5.313   6.716   6.186 -0.3438  0.6872  0.7075
   73SLPC   C24 6432   5.454   6.609   6.075 -0.5765  0.2612  0.7064
   73SLPC   H4R 6433   5.556   6.567   6.080  0.1497  1.4793 -1.8849
   73SLPC   H4S 6434   5.460   6.685   5.994  1.4934 -0.1166  0.4673
   73SLPC   C25 6435   5.361   6.495   6.038  0.3055  0.7339  0.0019
   73SLPC   H5R 6436   5.253   6.518   6.056  0.4407  0.6414  0.9964
   73SLPC   H5S 6437   5.382   6.407   6.103 -0.5278  1.2065  0.9446
   73SLPC   C26 6438   5.382   6.466   5.895  0.3974 -0.1104  0.1214
   73SLPC   H6R 6439   5.326   6.371   5.878 -1.5210  0.6094  1.8427
   73SLPC   H6S 6440   5.483   6.436   5.860 -0.1828 -0.4021 -1.3774
   73SLPC   C27 6441   5.310   6.568   5.799 -0.5025  0.4029  0.1829
   73SLPC   H7R 6442   5.368   6.663   5.793  0.3271 -0.1558 -1.2561
   73SLPC   H7S 6443   5.206   6.586   5.833 -1.6753 -1.3531 -2.1993
   73SLPC   C28 6444   5.290   6.508   5.659  0.1637 -0.5037 -0.1669
   73SLPC   H8R 6445   5.215   6.574   5.610  0.6669 -0.4415 -0.8707
   73SLPC   H8S 6446   5.245   6.407   5.675 -0.9518  0.2251  1.5336
   73SLPC   C29 6447   5.410   6.493   5.569  0.2823  0.1890  0.7083
   73SLPC   H9R 6448   5.489   6.427   5.610  0.9464 -0.4723 -1.4844
   73SLPC  C210 6449   5.422   6.523   5.438  0.3874 -0.7635  0.6496
   73SLPC  H10R 6450   5.514   6.493   5.386 -0.4794 -2.9641  0.2757
   73SLPC  C211 6451   5.320   6.612   5.367 -0.3627  0.3628  0.3563
   73SLPC  H11R 6452   5.267   6.674   5.442  0.7646  0.0980  1.4053
   73SLPC  H11S 6453   5.252   6.546   5.310  0.8932  0.6902 -1.6112
   73SLPC  C212 6454   5.401   6.707   5.273  0.0996  0.3635  0.1943
   73SLPC  H12R 6455   5.462   6.783   5.325  0.3036 -0.8326  1.7945
   73SLPC  C213 6456   5.382   6.701   5.142  0.2421  0.2594 -0.2040
   73SLPC  H13R 6457   5.441   6.761   5.071  1.3491  0.7985  1.1180
   73SLPC  C214 6458   5.285   6.607   5.072  0.4548 -0.2884  0.7238
   73SLPC  H14R 6459   5.188   6.634   5.119 -1.0797  1.7752 -3.1423
   73SLPC  H14S 6460   5.311   6.501   5.092  1.1391 -0.1706  0.5169
   73SLPC  C215 6461   5.265   6.613   4.917 -0.7148 -0.4609  0.3411
   73SLPC  H15R 6462   5.252   6.717   4.882 -1.3947 -1.1017 -1.4443
   73SLPC  H15S 6463   5.169   6.567   4.883 -0.2942  0.0988 -1.7322
   73SLPC  C216 6464   5.386   6.549   4.845  0.1234  0.2093  1.4287
   73SLPC  H16R 6465   5.359   6.441   4.857 -0.9274  0.0462 -1.5762
   73SLPC  H16S 6466   5.485   6.576   4.887  1.4630  0.1017 -1.4489
   73SLPC  C217 6467   5.400   6.579   4.693  0.4257 -0.0627  0.2724
   73SLPC  H17R 6468   5.305   6.562   4.639  1.0779 -1.3828 -0.5306
   73SLPC  H17S 6469   5.468   6.499   4.657  0.7999 -0.6005  2.0311
   73SLPC  C218 6470   5.453   6.722   4.662 -0.6512 -0.2090 -0.0802
   73SLPC  H18R 6471   5.533   6.748   4.734 -0.2036  2.8977 -1.5325
   73SLPC  H18S 6472   5.374   6.800   4.675  0.9613  1.3021  1.1227
   73SLPC  H18T 6473   5.485   6.726   4.555  0.0996 -2.0672  0.0471
   73SLPC   C33 6474   5.806   6.123   6.059  0.4171 -0.1200 -0.4031
   73SLPC   H3X 6475   5.707   6.079   6.033  0.5632  0.6272 -2.3581
   73SLPC   H3Y 6476   5.878   6.059   6.004  0.3541 -3.0668  2.6494
   73SLPC   C34 6477   5.805   6.265   5.998  0.6235  0.7486  0.4624
   73SLPC   H4X 6478   5.881   6.338   6.035 -0.0059  0.9092  1.4868
   73SLPC   H4Y 6479   5.720   6.327   6.033  0.9086  0.4311  1.7585
   73SLPC   C35 6480   5.791   6.259   5.837 -0.1151  0.2568 -0.0146
   73SLPC   H5X 6481   5.707   6.198   5.797  0.4578 -0.9746  0.6004
   73SLPC   H5Y 6482   5.883   6.207   5.803 -0.5819  0.1210 -1.1290
   73SLPC   C36 6483   5.793   6.390   5.765 -0.2014  0.6009  0.0557
   73SLPC   H6X 6484   5.854   6.468   5.816  0.6081 -1.6289  2.7250
   73SLPC   H6Y 6485   5.688   6.421   5.749 -1.1257 -2.6375 -0.7686
   73SLPC   C37 6486   5.846   6.368   5.619  1.0647 -0.0677  0.7414
   73SLPC   H7X 6487   5.954   6.343   5.616  0.9624 -0.4462 -1.6844
   73SLPC   H7Y 6488   5.832   6.469   5.575  0.7157 -0.1968  0.5480
   73SLPC   C38 6489   5.767   6.270   5.528 -0.6114  0.5271 -0.3812
   73SLPC   H8X 6490   5.657   6.282   5.528 -0.6769  0.0424 -1.3587
   73SLPC   H8Y 6491   5.787   6.176   5.583 -1.0449  0.4360 -0.3736
   73SLPC   C39 6492   5.832   6.248   5.392  0.0384 -0.2218  0.0552
   73SLPC   H9X 6493   5.817   6.142   5.363 -1.1392 -0.4657  1.4360
   73SLPC   H9Y 6494   5.941   6.265   5.400  0.1948 -1.3757  0.6232
   73SLPC  C310 6495   5.755   6.330   5.280 -0.0446 -0.4934  0.4112
   73SLPC  H10X 6496   5.763   6.439   5.301  2.1558 -0.4893 -0.2096
   73SLPC  H10Y 6497   5.650   6.298   5.298  0.0123 -0.6530  0.4578
   73SLPC  C311 6498   5.806   6.308   5.136 -0.0864  0.1950  0.0061
   73SLPC  H11X 6499   5.917   6.305   5.139 -0.0988 -1.0257 -0.1989
   73SLPC  H11Y 6500   5.784   6.400   5.078 -0.1063  0.1854 -0.0013
   73SLPC  C312 6501   5.764   6.180   5.078  0.4694  0.1219 -0.3059
   73SLPC  H12X 6502   5.655   6.198   5.063  0.2268 -1.2966 -0.3860
   73SLPC  H12Y 6503   5.787   6.103   5.155  1.8979  1.3086  0.5149
   73SLPC  C313 6504   5.823   6.150   4.938 -0.0868 -0.1700 -1.0512
   73SLPC  H13X 6505   5.763   6.059   4.917 -2.0336  0.8145 -0.1228
   73SLPC  H13Y 6506   5.930   6.122   4.938  0.0829  0.4474 -0.5434
   73SLPC  C314 6507   5.792   6.239   4.814 -0.2172  0.4135 -0.6079
   73SLPC  H14X 6508   5.798   6.346   4.842  0.2186 -0.6309  4.0850
   73SLPC  H14Y 6509   5.685   6.234   4.785 -1.4474  4.6966  2.2332
   73SLPC  C315 6510   5.873   6.192   4.689 -0.9660 -0.5648 -0.7640
   73SLPC  H15X 6511   5.849   6.084   4.677  0.3566 -1.0996  0.9394
   73SLPC  H15Y 6512   5.980   6.200   4.718 -1.2761  1.9560 -0.1536
   73SLPC  C316 6513   5.830   6.266   4.556  0.0594 -0.9030  0.1443
   73SLPC  H16X 6514   5.833   6.376   4.565  1.3616 -0.9780  0.7886
   73SLPC  H16Y 6515   5.731   6.223   4.531 -1.1760  0.7976  1.8271
   73SLPC  C317 6516   5.928   6.238   4.446 -0.4893 -0.4674  0.4624
   73SLPC  H17X 6517   5.884   6.279   4.353 -0.7170  0.0400  0.7908
   73SLPC  H17Y 6518   5.953   6.130   4.443  4.9124  0.5233 -1.6268
   73SLPC  C318 6519   6.056   6.326   4.467  0.0411 -0.2961  0.2424
   73SLPC  H18X 6520   6.113   6.334   4.372 -1.6320  1.6402 -0.6731
   73SLPC  H18Y 6521   6.120   6.300   4.554 -0.1637 -3.5220 -0.4241
   73SLPC  H18Z 6522   6.015   6.428   4.480  2.4567  0.7571  0.1355
   74SLPC     N 6523   6.408   5.027   6.768 -0.2898  0.1518 -0.1190
   74SLPC   C13 6524   6.269   5.042   6.832  0.1420 -0.3956  0.1752
   74SLPC  H13A 6525   6.192   5.059   6.758  1.5680  1.1126 -1.0483
   74SLPC  H13B 6526   6.250   4.953   6.889  2.0930  1.0372  3.3594
   74SLPC  H13C 6527   6.269   5.131   6.894  0.3155 -0.4069  0.1929
   74SLPC   C14 6528   6.513   5.020   6.878 -0.1871  0.6512 -0.0993
   74SLPC  H14A 6529   6.507   5.101   6.950 -3.9211  0.5609 -0.1223
   74SLPC  H14B 6530   6.503   4.929   6.935 -1.1120  0.1228 -1.0707
   74SLPC  H14C 6531   6.613   5.023   6.836 -0.4683 -2.0506 -1.1847
   74SLPC   C15 6532   6.437   5.142   6.689 -0.5592  0.2430  0.1619
   74SLPC  H15A 6533   6.448   5.235   6.742  1.5767  1.4153 -2.1191
   74SLPC  H15B 6534   6.536   5.130   6.646 -0.8463 -1.6029 -0.0973
   74SLPC  H15C 6535   6.351   5.158   6.626  0.0740 -0.2638 -0.8617
   74SLPC   C12 6536   6.420   4.891   6.688  0.0871  0.2304  0.7779
   74SLPC  H12A 6537   6.388   4.810   6.753 -0.1798 -1.6040 -1.5337
   74SLPC  H12B 6538   6.521   4.866   6.660 -0.4169 -0.0498 -0.8787
   74SLPC   C11 6539   6.338   4.867   6.556  0.2163  0.7964 -0.3832
   74SLPC  H11A 6540   6.233   4.876   6.592 -0.1282 -0.4175 -1.0344
   74SLPC  H11B 6541   6.349   4.761   6.525  2.1414  0.4837  1.1905
   74SLPC     P 6542   6.508   4.941   6.376  0.8178 -0.1795 -0.4010
   74SLPC   O13 6543   6.607   5.045   6.413  0.9845 -0.3653 -0.4789
   74SLPC   O14 6544   6.560   4.801   6.374 -0.4102 -0.6488  0.2914
   74SLPC   O12 6545   6.376   4.957   6.454 -0.2323 -0.4535 -0.1670
   74SLPC   O11 6546   6.448   4.978   6.240  0.1679  0.5459  0.6006
   74SLPC    C1 6547   6.347   5.068   6.218 -0.3194 -0.1862  0.0082
   74SLPC    HA 6548   6.250   5.016   6.229 -0.9794  1.2306  1.3495
   74SLPC    HB 6549   6.355   5.157   6.284  0.0105 -0.6857  0.6566
   74SLPC    C2 6550   6.359   5.126   6.081 -0.5339  0.0776  0.5372
   74SLPC    HS 6551   6.399   5.229   6.092  1.4651 -0.5703 -0.1086
   74SLPC   O21 6552   6.236   5.117   6.005  0.3629 -0.6490  0.4059
   74SLPC   C21 6553   6.145   5.204   6.045 -0.3310  0.1604 -0.0050
   74SLPC   O22 6554   6.166   5.290   6.126  0.1566  0.0962 -0.8438
   74SLPC   C22 6555   6.009   5.182   5.985 -0.1745  0.3723 -0.4237
   74SLPC   H2R 6556   5.998   5.073   5.963  0.4982  0.0504  0.7324
   74SLPC   H2S 6557   5.940   5.214   6.066  0.2255  2.0511 -0.7081
   74SLPC    C3 6558   6.480   5.062   5.997  0.4123 -0.0339 -0.4960
   74SLPC    HX 6559   6.446   4.958   5.981 -2.5587  0.5144  1.4904
   74SLPC    HY 6560   6.572   5.074   6.058 -1.9466  0.8158  3.1746
   74SLPC   O31 6561   6.474   5.135   5.872  0.4994  0.1105  0.4660
   74SLPC   C31 6562   6.557   5.083   5.781 -0.6602  0.4234 -0.6431
   74SLPC   O32 6563   6.643   4.998   5.807  0.0942  0.5271  0.4113
   74SLPC   C32 6564   6.537   5.151   5.653 -0.1543  0.2307  0.2187
   74SLPC   H2X 6565   6.560   5.260   5.657 -0.6038  0.3105  0.7535
   74SLPC   H2Y 6566   6.430   5.160   5.624 -0.1287 -2.1051 -0.8207
   74SLPC   C23 6567   5.991   5.263   5.863  0.0914 -0.2405  0.8036
   74SLPC   H3R 6568   6.026   5.368   5.859  0.1955 -0.3049 -0.3771
   74SLPC   H3S 6569   5.882   5.275   5.847 -0.3544 -1.1288  2.8995
   74SLPC   C24 6570   6.049   5.212   5.731  0.0070 -0.4672 -0.6039
   74SLPC   H4R 6571   6.012   5.108   5.719 -1.9008 -0.0828  1.4456
   74SLPC   H4S 6572   6.159   5.197   5.731 -0.0140 -0.6198 -0.2966
   74SLPC   C25 6573   5.998   5.299   5.617  0.6507  0.7746 -0.5540
   74SLPC   H5R 6574   6.045   5.400   5.622  1.2522  0.4222  1.6595
   74SLPC   H5S 6575   5.888   5.310   5.627  0.8883  2.6986  0.4755
   74SLPC   C26 6576   6.036   5.243   5.477 -0.0884 -0.1163 -0.9826
   74SLPC   H6R 6577   5.976   5.150   5.465 -2.1752  0.5390  2.6264
   74SLPC   H6S 6578   6.146   5.226   5.476  0.1514  1.3194 -1.8457
   74SLPC   C27 6579   5.995   5.349   5.370 -0.0897  0.2150 -0.5814
   74SLPC   H7R 6580   6.055   5.442   5.369  3.5674 -1.9197 -1.9502
   74SLPC   H7S 6581   5.887   5.370   5.384 -0.0579 -0.1553  0.3208
   74SLPC   C28 6582   6.032   5.316   5.224  0.4073 -0.6726 -0.4124
   74SLPC   H8R 6583   6.137   5.281   5.234  1.7421  2.2765 -2.5878
   74SLPC   H8S 6584   6.041   5.405   5.158  1.8816 -1.7693 -1.7721
   74SLPC   C29 6585   5.948   5.214   5.154 -0.3955  0.9317  0.0121
   74SLPC   H9R 6586   5.915   5.133   5.220  0.1395  1.6604  1.2053
   74SLPC  C210 6587   5.914   5.208   5.018 -0.6369 -0.1237 -0.7608
   74SLPC  H10R 6588   5.850   5.122   4.991 -1.2094 -0.5178  1.6166
   74SLPC  C211 6589   5.960   5.304   4.914  0.5129  0.1053  0.1835
   74SLPC  H11R 6590   5.917   5.402   4.945  0.1263  0.7612 -2.2136
   74SLPC  H11S 6591   5.895   5.286   4.825 -1.2128 -0.6851  1.5433
   74SLPC  C212 6592   6.110   5.318   4.884 -0.3932  0.7357 -0.3722
   74SLPC  H12R 6593   6.173   5.331   4.974 -0.7365 -1.0910  0.1561
   74SLPC  C213 6594   6.174   5.289   4.773 -0.0732  0.3065  0.0113
   74SLPC  H13R 6595   6.284   5.293   4.765 -0.0461 -1.5781 -0.9368
   74SLPC  C214 6596   6.119   5.247   4.641 -0.1893 -0.2193 -0.0838
   74SLPC  H14R 6597   6.169   5.315   4.570  0.4978  0.6274  1.1814
   74SLPC  H14S 6598   6.010   5.266   4.629 -0.3477 -0.4757  0.8352
   74SLPC  C215 6599   6.149   5.105   4.607  0.4731 -0.1682 -0.5913
   74SLPC  H15R 6600   6.095   5.088   4.512  0.1324  1.6575 -0.7596
   74SLPC  H15S 6601   6.093   5.054   4.689  1.6738  1.8657  1.6098
   74SLPC  C216 6602   6.295   5.052   4.590  0.1418  0.2175 -0.5076
   74SLPC  H16R 6603   6.306   4.944   4.564  0.7522  0.2120 -0.2362
   74SLPC  H16S 6604   6.339   5.055   4.692 -0.7212 -1.4143 -0.0499
   74SLPC  C217 6605   6.381   5.137   4.500 -0.5654 -0.4055  0.6053
   74SLPC  H17R 6606   6.483   5.094   4.493  0.1349  0.1657  4.6010
   74SLPC  H17S 6607   6.389   5.230   4.561 -3.1378 -0.3795  1.0012
   74SLPC  C218 6608   6.327   5.174   4.358 -0.1754  0.1367  0.1528
   74SLPC  H18R 6609   6.219   5.198   4.369 -0.0749  0.5093  0.3295
   74SLPC  H18S 6610   6.338   5.086   4.291  0.8399 -0.5841  1.2040
   74SLPC  H18T 6611   6.389   5.257   4.318 -1.7669  1.5195  0.4424
   74SLPC   C33 6612   6.600   5.085   5.526  0.1454  0.9657 -0.1198
   74SLPC   H3X 6613   6.534   4.996   5.518  0.1901  0.7135  1.7010
   74SLPC   H3Y 6614   6.708   5.061   5.537 -0.4842 -2.6458 -0.4743
   74SLPC   C34 6615   6.562   5.162   5.406 -0.0072 -0.2374 -0.0010
   74SLPC   H4X 6616   6.621   5.256   5.407 -0.1592 -0.0844 -2.0539
   74SLPC   H4Y 6617   6.454   5.187   5.408 -0.4149 -1.8360  0.0983
   74SLPC   C35 6618   6.600   5.081   5.287  0.3398  0.2734  1.1275
   74SLPC   H5X 6619   6.582   4.972   5.301  1.2242  0.1219  1.1394
   74SLPC   H5Y 6620   6.711   5.079   5.282  0.3221 -0.0070  0.7793
   74SLPC   C36 6621   6.551   5.132   5.147 -0.0784  0.0017 -0.9809
   74SLPC   H6X 6622   6.577   5.240   5.144  0.2380 -0.0751 -1.0523
   74SLPC   H6Y 6623   6.440   5.136   5.154 -0.0338  3.8468 -0.4474
   74SLPC   C37 6624   6.599   5.053   5.030 -0.2934  0.1795  0.5796
   74SLPC   H7X 6625   6.553   4.952   5.025  0.6270 -0.2722  1.0407
   74SLPC   H7Y 6626   6.710   5.056   5.040 -0.3736  1.7044  1.2141
   74SLPC   C38 6627   6.577   5.132   4.902 -0.6454  1.1370  0.2345
   74SLPC   H8X 6628   6.634   5.226   4.911  1.4255 -0.2192  2.2563
   74SLPC   H8Y 6629   6.472   5.167   4.895 -0.2314  2.0786 -2.0140
   74SLPC   C39 6630   6.620   5.058   4.774 -0.3366 -0.0640 -1.4165
   74SLPC   H9X 6631   6.592   5.126   4.691 -1.6308  3.6465  1.7268
   74SLPC   H9Y 6632   6.548   4.974   4.773 -0.4604  0.0036 -0.1919
   74SLPC  C310 6633   6.765   5.012   4.770  0.1643 -0.3137 -0.1213
   74SLPC  H10X 6634   6.787   4.937   4.849  0.5639  0.7787  0.8169
   74SLPC  H10Y 6635   6.835   5.096   4.789  0.4551 -0.8195  1.1387
   74SLPC  C311 6636   6.804   4.967   4.631 -0.4242  0.8433  0.7616
   74SLPC  H11X 6637   6.914   4.952   4.644 -0.1550 -0.4136 -2.2265
   74SLPC  H11Y 6638   6.777   5.033   4.546 -0.4608 -1.0840 -0.7773
   74SLPC  C312 6639   6.768   4.816   4.593  0.0961  0.1224  0.0169
   74SLPC  H12X 6640   6.784   4.749   4.680  4.9538  1.1608  0.1991
   74SLPC  H12Y 6641   6.849   4.788   4.523  0.6138  1.5057  0.0384
   74SLPC  C313 6642   6.630   4.799   4.523  0.6770  0.0432 -0.1743
   74SLPC  H13X 6643   6.548   4.832   4.591  0.1572  2.0951 -1.7251
   74SLPC  H13Y 6644   6.613   4.689   4.517  0.5537 -0.0834  1.7405
   74SLPC  C314 6645   6.631   4.835   4.369  0.7947 -0.2016 -0.3491
   74SLPC  H14X 6646   6.716   4.789   4.314  1.0210  0.4191 -0.5208
   74SLPC  H14Y 6647   6.630   4.945   4.351 -0.5589 -0.2258 -0.5592
   74SLPC  C315 6648   6.497   4.783   4.306  0.8885  0.2922  0.0344
   74SLPC  H15X 6649   6.404   4.835   4.337 -0.5289 -1.6110 -0.8576
   74SLPC  H15Y 6650   6.486   4.675   4.333 -2.1253  0.5333  0.1292
   74SLPC  C316 6651   6.493   4.795   4.151  0.4752  0.6716  0.4771
   74SLPC  H16X 6652   6.599   4.787   4.118  0.1620 -1.5949 -0.1177
   74SLPC  H16Y 6653   6.459   4.896   4.119  1.3410  0.3736 -1.4940
   74SLPC  C317 6654   6.417   4.686   4.082  0.5875  0.3548 -0.3809
   74SLPC  H17X 6655   6.446   4.582   4.107  2.3953  0.7201 -0.7473
   74SLPC  H17Y 6656   6.446   4.683   3.975 -3.4941  2.2803 -1.7417
   74SLPC  C318 6657   6.260   4.703   4.067  0.3042  0.0184  0.1590
   74SLPC  H18X 6658   6.223   4.615   4.010  0.1155  0.6343 -0.6834
   74SLPC  H18Y 6659   6.227   4.800   4.024 -0.9774  0.2668  1.6276
   74SLPC  H18Z 6660   6.226   4.695   4.172  1.6442 -0.1753  0.6031
   75SLPC     N 6661   1.177   6.586   6.775  0.1420  0.1063  0.1635
   75SLPC   C13 6662   1.302   6.626   6.846  0.4093  0.6762  0.2624
   75SLPC  H13A 6663   1.359   6.700   6.792  0.0348  1.0644  0.3903
   75SLPC  H13B 6664   1.275   6.652   6.948  1.2849  0.8254  0.4739
   75SLPC  H13C 6665   1.366   6.542   6.869  1.4083  1.3033 -0.1637
   75SLPC   C14 6666   1.079   6.706   6.769 -0.5078  0.2067 -0.6877
   75SLPC  H14A 6667   1.064   6.755   6.864 -2.7075  1.5876 -1.6808
   75SLPC  H14B 6668   1.107   6.783   6.698  0.2299 -1.2593 -2.0284
   75SLPC  H14C 6669   0.983   6.666   6.743 -1.8527  1.3667  2.0502
   75SLPC   C15 6670   1.095   6.484   6.854 -0.2463  1.1821  0.2395
   75SLPC  H15A 6671   1.066   6.523   6.950  0.8402  0.2237  0.9734
   75SLPC  H15B 6672   0.997   6.468   6.811 -0.8306  1.4522  1.4397
   75SLPC  H15C 6673   1.147   6.389   6.858 -2.7326 -0.6570 -3.7721
   75SLPC   C12 6674   1.212   6.546   6.630  0.8118  0.3173  0.5397
   75SLPC  H12A 6675   1.300   6.484   6.635  0.8671  0.4324  0.9919
   75SLPC  H12B 6676   1.231   6.636   6.574  2.6813  0.0295  0.6611
   75SLPC   C11 6677   1.092   6.474   6.552  0.5772  0.8842  0.0528
   75SLPC  H11A 6678   1.061   6.378   6.598 -2.8665  0.1973 -3.2115
   75SLPC  H11B 6679   1.147   6.454   6.458  0.4938 -2.6124  0.6365
   75SLPC     P 6680   0.958   6.659   6.426  0.0096  0.2588 -0.0003
   75SLPC   O13 6681   0.875   6.768   6.477  0.3928 -0.4049  0.2469
   75SLPC   O14 6682   1.096   6.698   6.403  0.5197  0.6685  0.8677
   75SLPC   O12 6683   0.964   6.547   6.531 -0.2327  0.2356 -0.2481
   75SLPC   O11 6684   0.892   6.594   6.303  0.1650  0.2083  0.4069
   75SLPC    C1 6685   0.755   6.541   6.306 -0.0407  0.0818 -0.5312
   75SLPC    HA 6686   0.694   6.589   6.386 -0.4532 -3.5155  1.5489
   75SLPC    HB 6687   0.712   6.548   6.204  1.2544 -2.9294 -1.4173
   75SLPC    C2 6688   0.746   6.386   6.340  0.1350  0.2055 -0.0366
   75SLPC    HS 6689   0.768   6.384   6.449 -1.7214  2.6235  0.4737
   75SLPC   O21 6690   0.841   6.308   6.268  0.6869  0.0767  0.2135
   75SLPC   C21 6691   0.877   6.190   6.313 -0.2462 -0.0898  0.4286
   75SLPC   O22 6692   0.838   6.143   6.420  0.1405 -0.4690  0.0252
   75SLPC   C22 6693   0.980   6.125   6.216  0.2231 -0.1149 -0.1323
   75SLPC   H2R 6694   1.058   6.194   6.176  0.7623 -1.5839 -1.7499
   75SLPC   H2S 6695   1.038   6.052   6.277 -3.1776 -1.8508  1.2798
   75SLPC    C3 6696   0.608   6.325   6.300  0.0591 -0.3142 -0.1512
   75SLPC    HX 6697   0.530   6.397   6.336  1.0929  1.1440 -0.7455
   75SLPC    HY 6698   0.611   6.222   6.341  0.4519  0.3106  1.4600
   75SLPC   O31 6699   0.611   6.334   6.154  0.4024 -0.2967  0.9718
   75SLPC   C31 6700   0.582   6.230   6.086  0.9525  0.5814 -0.3513
   75SLPC   O32 6701   0.548   6.122   6.135  0.7832  0.1135 -0.0974
   75SLPC   C32 6702   0.607   6.262   5.941 -0.0831 -0.8674  0.5453
   75SLPC   H2X 6703   0.709   6.307   5.935 -0.0967 -0.3807  2.7549
   75SLPC   H2Y 6704   0.532   6.339   5.913  0.5347  0.0845  1.4418
   75SLPC   C23 6705   0.912   6.052   6.103  0.5380 -0.5496 -0.2443
   75SLPC   H3R 6706   0.868   6.107   6.017 -0.3960  0.2821  0.7401
   75SLPC   H3S 6707   0.829   5.992   6.148 -0.6590  0.4787 -1.0113
   75SLPC   C24 6708   1.010   5.939   6.040  0.2411 -0.4481 -0.3508
   75SLPC   H4R 6709   0.961   5.859   5.980  1.3155 -1.8845  0.6352
   75SLPC   H4S 6710   1.053   5.896   6.133 -0.5176  0.2178  0.3272
   75SLPC   C25 6711   1.124   6.008   5.968 -0.1208 -0.7398 -0.6164
   75SLPC   H5R 6712   1.166   6.084   6.037  3.2416 -2.0966 -0.9468
   75SLPC   H5S 6713   1.081   6.056   5.877 -1.4535 -0.8346 -0.0545
   75SLPC   C26 6714   1.243   5.924   5.913  0.2775  0.5059  0.0315
   75SLPC   H6R 6715   1.220   5.830   5.860 -0.2817  0.4076  0.4389
   75SLPC   H6S 6716   1.320   5.895   5.987  1.6266  1.0258 -1.1125
   75SLPC   C27 6717   1.310   6.013   5.804 -0.6833  0.2700 -0.0022
   75SLPC   H7R 6718   1.268   6.116   5.807  0.2078  0.6386  0.1123
   75SLPC   H7S 6719   1.297   5.969   5.703  0.7856 -0.6000  0.1576
   75SLPC   C28 6720   1.468   6.026   5.824  0.4713 -0.0630  0.9728
   75SLPC   H8R 6721   1.508   5.924   5.805 -0.9998 -0.5161  0.1848
   75SLPC   H8S 6722   1.490   6.071   5.923 -0.4912  0.6125  0.8999
   75SLPC   C29 6723   1.526   6.125   5.725 -0.2371 -0.1850  0.4427
   75SLPC   H9R 6724   1.472   6.221   5.726 -0.8972 -0.5405 -0.4806
   75SLPC  C210 6725   1.630   6.100   5.640  0.1420 -0.7731  0.0143
   75SLPC  H10R 6726   1.651   6.176   5.563 -2.1502  0.2013  0.2655
   75SLPC  C211 6727   1.715   5.980   5.626 -0.0143  0.2708  0.4004
   75SLPC  H11R 6728   1.729   5.913   5.713  0.9875 -0.0797 -0.0173
   75SLPC  H11S 6729   1.815   6.010   5.588 -0.8074 -0.3537 -2.4472
   75SLPC  C212 6730   1.658   5.881   5.525 -0.2725 -0.4736 -0.6564
   75SLPC  H12R 6731   1.579   5.812   5.559  0.0217 -0.7738 -0.5773
   75SLPC  C213 6732   1.683   5.879   5.390  0.5599  0.4826 -0.2412
   75SLPC  H13R 6733   1.642   5.794   5.334 -0.2641  0.7822 -0.1051
   75SLPC  C214 6734   1.769   5.978   5.312  0.3942  0.3801  0.4446
   75SLPC  H14R 6735   1.853   6.021   5.372  1.9751 -0.6955 -0.8894
   75SLPC  H14S 6736   1.714   6.066   5.275  1.9465  1.2469  0.1064
   75SLPC  C215 6737   1.815   5.900   5.194 -0.5822 -0.6921  1.0660
   75SLPC  H15R 6738   1.729   5.858   5.139 -0.7746  2.6244 -1.5363
   75SLPC  H15S 6739   1.886   5.822   5.229 -0.8304 -0.2468  2.6567
   75SLPC  C216 6740   1.891   5.987   5.097 -0.1397  0.0106  0.0192
   75SLPC  H16R 6741   1.976   6.019   5.161 -0.2022  2.4310 -1.0096
   75SLPC  H16S 6742   1.827   6.075   5.075  0.3311  1.1900  2.9053
   75SLPC  C217 6743   1.945   5.912   4.975  0.3979  0.5579  0.2476
   75SLPC  H17R 6744   2.011   5.830   5.011  0.9737 -0.0403 -1.9956
   75SLPC  H17S 6745   2.015   5.977   4.918  0.5175 -0.2024 -0.4952
   75SLPC  C218 6746   1.832   5.861   4.885  0.1039 -0.0996 -0.5545
   75SLPC  H18R 6747   1.888   5.814   4.802  2.1731 -0.5937  1.0176
   75SLPC  H18S 6748   1.758   5.941   4.864 -0.9320 -0.7594  0.4489
   75SLPC  H18T 6749   1.781   5.779   4.940 -0.5925  0.1451 -0.8340
   75SLPC   C33 6750   0.607   6.148   5.846  0.4091 -0.6567 -0.9952
   75SLPC   H3X 6751   0.511   6.093   5.853  0.4255 -0.5055  1.1028
   75SLPC   H3Y 6752   0.695   6.093   5.885  1.2740  0.6925 -1.0088
   75SLPC   C34 6753   0.624   6.191   5.698 -0.7195  0.2501  0.2527
   75SLPC   H4X 6754   0.735   6.201   5.693 -0.8102  1.2174  0.0363
   75SLPC   H4Y 6755   0.597   6.298   5.688 -0.6171  0.2229 -0.3921
   75SLPC   C35 6756   0.554   6.100   5.599 -0.8938  0.0389 -0.7668
   75SLPC   H5X 6757   0.444   6.100   5.610 -1.2697  0.5693 -3.8053
   75SLPC   H5Y 6758   0.588   5.996   5.619 -0.7443  0.5286  1.8981
   75SLPC   C36 6759   0.595   6.144   5.451  0.6226  0.1275 -0.5479
   75SLPC   H6X 6760   0.565   6.058   5.387  1.2977 -0.7120  0.2343
   75SLPC   H6Y 6761   0.706   6.152   5.447  0.7291 -0.7327  0.4129
   75SLPC   C37 6762   0.531   6.284   5.411  0.0604  0.0017  0.0580
   75SLPC   H7X 6763   0.537   6.359   5.493  0.8507 -1.0151  0.9528
   75SLPC   H7Y 6764   0.422   6.260   5.413  0.2842 -1.2978 -1.3993
   75SLPC   C38 6765   0.563   6.351   5.274 -0.5366  0.0102  0.6109
   75SLPC   H8X 6766   0.649   6.419   5.291 -0.1249 -0.2589 -0.3374
   75SLPC   H8Y 6767   0.478   6.417   5.245 -0.6613 -1.1808 -2.0583
   75SLPC   C39 6768   0.583   6.243   5.172 -0.0673  0.0494  0.6165
   75SLPC   H9X 6769   0.490   6.187   5.151  0.6919 -1.3976  1.0373
   75SLPC   H9Y 6770   0.672   6.182   5.196 -0.8372 -0.7630  1.4422
   75SLPC  C310 6771   0.622   6.306   5.034 -0.3934 -0.2350  0.0215
   75SLPC  H10X 6772   0.702   6.383   5.044 -0.5620 -0.1226  0.5065
   75SLPC  H10Y 6773   0.531   6.347   4.987  0.3105 -0.1691 -1.3454
   75SLPC  C311 6774   0.666   6.203   4.929 -0.2567 -0.0830 -0.5899
   75SLPC  H11X 6775   0.586   6.131   4.905 -1.8379  1.3308  0.1846
   75SLPC  H11Y 6776   0.752   6.145   4.968 -0.2956  0.8167  0.8908
   75SLPC  C312 6777   0.702   6.264   4.794 -0.2155 -0.4644 -0.6581
   75SLPC  H12X 6778   0.798   6.319   4.794  0.1442 -1.0750  0.5137
   75SLPC  H12Y 6779   0.621   6.336   4.767  1.5756  2.1923  0.6501
   75SLPC  C313 6780   0.726   6.148   4.692  0.1394 -0.1121  0.2214
   75SLPC  H13X 6781   0.632   6.102   4.654 -0.5751  2.5019 -1.5371
   75SLPC  H13Y 6782   0.794   6.075   4.740  0.6103  1.0208  1.3335
   75SLPC  C314 6783   0.795   6.197   4.568 -0.6784  0.5067 -0.2465
   75SLPC  H14X 6784   0.821   6.113   4.500  3.7166  0.0244  1.7300
   75SLPC  H14Y 6785   0.894   6.238   4.596 -0.0909  0.9921 -2.7733
   75SLPC  C315 6786   0.714   6.306   4.506  0.2759  0.0576  0.3626
   75SLPC  H15X 6787   0.717   6.397   4.570 -1.4596 -0.0381  0.6284
   75SLPC  H15Y 6788   0.607   6.281   4.494  0.6656 -1.1572 -0.7955
   75SLPC  C316 6789   0.757   6.354   4.362 -0.2302 -0.1146 -0.4590
   75SLPC  H16X 6790   0.686   6.420   4.308 -2.1585 -1.4300  0.3367
   75SLPC  H16Y 6791   0.748   6.261   4.301  0.4168 -0.1674 -0.4758
   75SLPC  C317 6792   0.910   6.385   4.339  0.4075 -0.3744 -0.6415
   75SLPC  H17X 6793   0.965   6.296   4.375  0.5282  0.5930  1.7572
   75SLPC  H17Y 6794   0.953   6.473   4.392  1.9052 -1.5129  0.0855
   75SLPC  C318 6795   0.947   6.416   4.193 -0.0919  0.3195 -0.1787
   75SLPC  H18X 6796   1.054   6.445   4.183 -0.6206  2.6599  0.3525
   75SLPC  H18Y 6797   0.888   6.500   4.152  0.9373  0.3408 -1.6905
   75SLPC  H18Z 6798   0.919   6.326   4.133  2.2287 -0.5265 -0.1231
   76SLPC     N 6799   3.187   0.429   7.110 -0.2055  0.7029  0.5847
   76SLPC   C13 6800   3.087   0.496   7.020  0.2708 -0.0699  0.6429
   76SLPC  H13A 6801   3.038   0.423   6.958 -1.2399  2.1026 -0.8657
   76SLPC  H13B 6802   3.009   0.537   7.084  1.6577  1.0483  1.7039
   76SLPC  H13C 6803   3.124   0.583   6.967  1.0791 -0.3906  0.6773
   76SLPC   C14 6804   3.113   0.345   7.208  0.5047 -0.4240  0.0375
   76SLPC  H14A 6805   3.186   0.289   7.264  1.2736 -1.5205 -1.9585
   76SLPC  H14B 6806   3.049   0.402   7.273  0.3365  0.8020 -1.1567
   76SLPC  H14C 6807   3.043   0.278   7.159  1.8507 -0.8703 -1.3822
   76SLPC   C15 6808   3.271   0.529   7.183  0.1482  0.2714  0.3663
   76SLPC  H15A 6809   3.331   0.589   7.117  0.0011 -0.0180 -0.0298
   76SLPC  H15B 6810   3.208   0.594   7.243  0.3766  2.2350 -1.4185
   76SLPC  H15C 6811   3.342   0.473   7.242  1.2589  1.0902 -0.1658
   76SLPC   C12 6812   3.281   0.336   7.028 -0.1070  0.7578 -0.4573
   76SLPC  H12A 6813   3.354   0.292   7.094  1.4190 -0.8205 -3.0139
   76SLPC  H12B 6814   3.335   0.389   6.951  2.2640 -2.7548 -1.4799
   76SLPC   C11 6815   3.227   0.216   6.941  0.3221 -0.3008 -0.0481
   76SLPC  H11A 6816   3.160   0.152   7.002 -0.6419 -0.1257 -0.9090
   76SLPC  H11B 6817   3.313   0.150   6.918  2.4516  1.8466  1.2479
   76SLPC     P 6818   3.242   0.323   6.710 -0.0454  0.0747  0.2347
   76SLPC   O13 6819   3.162   0.331   6.587 -0.6640  0.3110  0.9653
   76SLPC   O14 6820   3.310   0.447   6.759  0.5099  0.3143  0.0910
   76SLPC   O12 6821   3.155   0.262   6.824  0.0250  0.2652 -0.2670
   76SLPC   O11 6822   3.356   0.212   6.689  0.4274  0.1143  0.0304
   76SLPC    C1 6823   3.325   0.085   6.621  0.0609 -0.3128 -0.2772
   76SLPC    HA 6824   3.345   0.008   6.699  3.8238  0.0247 -0.7351
   76SLPC    HB 6825   3.220   0.089   6.587  0.4834 -3.8415 -2.5104
   76SLPC    C2 6826   3.405   0.049   6.495  0.5536  0.1789 -0.4448
   76SLPC    HS 6827   3.513   0.037   6.516  0.5950 -0.1071 -0.8169
   76SLPC   O21 6828   3.376   0.143   6.391  0.2425 -0.6884 -0.7000
   76SLPC   C21 6829   3.472   0.245   6.398 -0.0731 -0.4021  0.6943
   76SLPC   O22 6830   3.568   0.253   6.469  0.1906  0.6038  0.4951
   76SLPC   C22 6831   3.425   0.347   6.292  0.3628 -0.2390 -0.4602
   76SLPC   H2R 6832   3.359   0.296   6.219 -1.0551  0.1761  0.5070
   76SLPC   H2S 6833   3.356   0.408   6.353  0.5446 -0.2541 -0.2330
   76SLPC    C3 6834   3.372  -0.090   6.449  0.3416 -0.4562 -0.0412
   76SLPC    HX 6835   3.262  -0.099   6.435 -0.0890  3.6132 -0.5494
   76SLPC    HY 6836   3.408  -0.165   6.522  0.4260 -0.4294 -0.0558
   76SLPC   O31 6837   3.441  -0.115   6.328 -0.7019 -0.2387 -0.7368
   76SLPC   C31 6838   3.423  -0.234   6.283 -0.1636 -0.2953 -0.1452
   76SLPC   O32 6839   3.354  -0.321   6.335 -0.3520 -0.6779 -0.1736
   76SLPC   C32 6840   3.493  -0.255   6.145  0.0952 -0.3236 -0.0969
   76SLPC   H2X 6841   3.601  -0.245   6.169 -0.2311 -2.1436  2.5684
   76SLPC   H2Y 6842   3.464  -0.164   6.088 -0.8150 -1.4224 -1.4580
   76SLPC   C23 6843   3.531   0.446   6.239 -0.6183  0.4949 -0.2986
   76SLPC   H3R 6844   3.570   0.488   6.334 -1.6744 -1.0001  0.8303
   76SLPC   H3S 6845   3.470   0.514   6.175 -1.4200 -1.4004 -1.6347
   76SLPC   C24 6846   3.641   0.386   6.149 -0.6609 -0.5466 -0.7812
   76SLPC   H4R 6847   3.592   0.349   6.057 -0.9700 -2.6562  0.1723
   76SLPC   H4S 6848   3.684   0.295   6.197 -0.7582  0.4898  1.4232
   76SLPC   C25 6849   3.757   0.482   6.106 -0.0962 -0.0173  0.3211
   76SLPC   H5R 6850   3.816   0.436   6.024 -1.3576 -0.6208 -0.2835
   76SLPC   H5S 6851   3.819   0.500   6.196  2.6924  1.8536 -1.8118
   76SLPC   C26 6852   3.721   0.621   6.059  0.1668 -0.2360 -0.1454
   76SLPC   H6R 6853   3.639   0.657   6.124 -1.3798 -1.7781 -1.1589
   76SLPC   H6S 6854   3.686   0.634   5.954  0.6967  1.8754 -0.1119
   76SLPC   C27 6855   3.838   0.725   6.055 -0.2917  0.3733  0.0973
   76SLPC   H7R 6856   3.913   0.699   5.978 -1.4619  0.2451 -1.0303
   76SLPC   H7S 6857   3.882   0.726   6.157  2.4995  0.1320 -1.0290
   76SLPC   C28 6858   3.780   0.874   6.034  0.1134  0.1158 -0.0091
   76SLPC   H8R 6859   3.713   0.890   6.121 -0.6215 -0.2703 -0.4864
   76SLPC   H8S 6860   3.722   0.878   5.939 -0.6958  0.2514  0.4752
   76SLPC   C29 6861   3.893   0.979   6.032 -0.2402 -0.0023 -0.2975
   76SLPC   H9R 6862   3.931   1.001   6.133 -1.8912 -1.6684  0.7530
   76SLPC  C210 6863   3.940   1.042   5.923  0.3993  0.0240  0.0714
   76SLPC  H10R 6864   4.008   1.128   5.924 -0.5908  0.8426 -0.9293
   76SLPC  C211 6865   3.895   1.017   5.778 -0.4567  0.2217 -0.4164
   76SLPC  H11R 6866   3.800   1.070   5.754  0.8832  1.9956 -2.1831
   76SLPC  H11S 6867   3.875   0.909   5.763  0.0137  0.4009 -2.6955
   76SLPC  C212 6868   3.996   1.069   5.679  0.8550 -0.0102 -0.3743
   76SLPC  H12R 6869   4.074   1.134   5.722 -0.6266  0.8230  1.1889
   76SLPC  C213 6870   4.002   1.027   5.550  0.6397 -0.3356 -0.2115
   76SLPC  H13R 6871   4.071   1.063   5.473 -0.4001  0.6227 -0.7219
   76SLPC  C214 6872   3.889   0.951   5.480 -0.1370  0.6235 -0.5707
   76SLPC  H14R 6873   3.830   1.010   5.408 -1.5792 -0.4441 -0.2961
   76SLPC  H14S 6874   3.814   0.922   5.556 -0.4406 -1.3247 -1.5424
   76SLPC  C215 6875   3.940   0.815   5.422 -0.7074 -1.0219  0.0562
   76SLPC  H15R 6876   3.978   0.745   5.500  1.6700 -0.7439 -0.7599
   76SLPC  H15S 6877   4.027   0.848   5.361 -1.7862  1.5677 -0.2055
   76SLPC  C216 6878   3.846   0.738   5.325  0.0561 -0.7515  0.2631
   76SLPC  H16R 6879   3.774   0.681   5.388  0.4683 -1.7160 -0.1200
   76SLPC  H16S 6880   3.910   0.680   5.255 -2.2904 -2.9280 -0.2197
   76SLPC  C217 6881   3.768   0.823   5.220 -0.3054 -0.4176  0.6912
   76SLPC  H17R 6882   3.846   0.892   5.181  0.0150  0.0157  2.0761
   76SLPC  H17S 6883   3.697   0.889   5.275  1.9329  2.1750  0.6618
   76SLPC  C218 6884   3.686   0.734   5.116 -0.2079 -0.4991 -0.5769
   76SLPC  H18R 6885   3.604   0.683   5.172  0.6710 -1.9094 -0.5074
   76SLPC  H18S 6886   3.744   0.656   5.061  0.8827 -2.0924  2.5644
   76SLPC  H18T 6887   3.630   0.787   5.036 -2.3215 -0.4430  0.8392
   76SLPC   C33 6888   3.466  -0.391   6.081 -0.0649 -0.9814 -1.5027
   76SLPC   H3X 6889   3.358  -0.406   6.056 -0.1002 -0.7121 -1.5182
   76SLPC   H3Y 6890   3.488  -0.469   6.157 -1.2278 -1.8377 -1.9997
   76SLPC   C34 6891   3.552  -0.420   5.951 -0.4330  0.7921  0.3186
   76SLPC   H4X 6892   3.561  -0.529   5.929  2.5522  0.6552  1.7722
   76SLPC   H4Y 6893   3.654  -0.386   5.976 -0.0730  0.5981 -0.8302
   76SLPC   C35 6894   3.501  -0.343   5.821  0.4049  0.1269 -0.2747
   76SLPC   H5X 6895   3.479  -0.241   5.859 -0.8798 -0.1913 -0.1224
   76SLPC   H5Y 6896   3.402  -0.387   5.799  0.9773 -2.7095  2.1807
   76SLPC   C36 6897   3.585  -0.360   5.689 -0.1637 -0.2024  0.2555
   76SLPC   H6X 6898   3.562  -0.460   5.647 -0.7245  0.8692 -2.1404
   76SLPC   H6Y 6899   3.695  -0.347   5.700 -0.1271 -1.2538  1.4230
   76SLPC   C37 6900   3.543  -0.259   5.579  0.0979  0.0609 -0.7861
   76SLPC   H7X 6901   3.556  -0.155   5.618 -0.5021  0.2470 -1.0756
   76SLPC   H7Y 6902   3.438  -0.284   5.553  0.1678 -0.9396 -0.1485
   76SLPC   C38 6903   3.630  -0.296   5.453  0.1031 -0.1414  0.3989
   76SLPC   H8X 6904   3.600  -0.397   5.417 -1.5967  0.9141 -1.3482
   76SLPC   H8Y 6905   3.739  -0.289   5.469  0.4437  0.4440 -1.8346
   76SLPC   C39 6906   3.589  -0.212   5.332 -0.1660  0.1265  0.2283
   76SLPC   H9X 6907   3.481  -0.224   5.308 -0.1698  1.3286 -0.4241
   76SLPC   H9Y 6908   3.642  -0.242   5.239  0.4443 -1.2924  1.0012
   76SLPC  C310 6909   3.630  -0.065   5.333  0.6954  0.7010 -0.4668
   76SLPC  H10X 6910   3.740  -0.062   5.353  0.8721 -1.9660 -0.7592
   76SLPC  H10Y 6911   3.581  -0.011   5.417 -1.9472  0.2804 -1.6492
   76SLPC  C311 6912   3.597  -0.004   5.197  0.4026  0.2154  0.4163
   76SLPC  H11X 6913   3.489  -0.024   5.179  0.1981 -0.7071  2.4189
   76SLPC  H11Y 6914   3.656  -0.049   5.115  0.2653 -1.3698  1.1540
   76SLPC  C312 6915   3.605   0.151   5.196 -0.5283 -0.8909  0.3316
   76SLPC  H12X 6916   3.630   0.181   5.092 -0.2082  1.7104  1.0693
   76SLPC  H12Y 6917   3.685   0.189   5.262 -1.8211 -1.6502  2.4186
   76SLPC  C313 6918   3.470   0.233   5.224  0.7984 -0.3387  0.2454
   76SLPC  H13X 6919   3.436   0.191   5.321  0.5606 -1.1744 -0.1867
   76SLPC  H13Y 6920   3.388   0.196   5.160 -0.8149  0.6451  1.6532
   76SLPC  C314 6921   3.471   0.386   5.219 -0.4655 -0.7593 -0.5227
   76SLPC  H14X 6922   3.368   0.426   5.227 -0.9004 -2.0051  0.5197
   76SLPC  H14Y 6923   3.521   0.429   5.130 -1.6828  0.8188 -0.5010
   76SLPC  C315 6924   3.542   0.448   5.346 -0.3494 -0.0534 -0.1875
   76SLPC  H15X 6925   3.524   0.558   5.341  4.5015  0.9192 -2.2427
   76SLPC  H15Y 6926   3.651   0.428   5.333 -0.3168  0.7180 -1.1725
   76SLPC  C316 6927   3.515   0.382   5.479  0.3662 -0.6843 -0.2326
   76SLPC  H16X 6928   3.565   0.283   5.485  1.2021 -0.4011 -1.7823
   76SLPC  H16Y 6929   3.406   0.366   5.491  0.6355 -1.9236  0.7054
   76SLPC  C317 6930   3.580   0.462   5.592 -0.1001  0.2277 -0.2449
   76SLPC  H17X 6931   3.525   0.434   5.685  0.4709 -3.8438 -0.9163
   76SLPC  H17Y 6932   3.573   0.571   5.576 -0.1024  0.0731 -1.3734
   76SLPC  C318 6933   3.724   0.415   5.619  0.3162  0.2948 -0.2722
   76SLPC  H18X 6934   3.787   0.443   5.532  0.5863 -1.9614 -0.8655
   76SLPC  H18Y 6935   3.732   0.306   5.642 -1.4488  0.4399  1.2467
   76SLPC  H18Z 6936   3.759   0.468   5.711 -1.8414  0.0536  0.7421
   77SLPC     N 6937   0.881   4.934   6.469  0.3132 -0.1315  0.0497
   77SLPC   C13 6938   0.943   5.053   6.542 -0.0896 -0.4302  0.8554
   77SLPC  H13A 6939   0.909   5.149   6.505  2.0061 -0.0834 -0.3076
   77SLPC  H13B 6940   0.919   5.039   6.646 -0.5596 -0.1347  0.7892
   77SLPC  H13C 6941   1.047   5.057   6.515 -0.4554  1.8508 -0.4616
   77SLPC   C14 6942   0.744   4.913   6.526 -0.4662  0.3644  0.5928
   77SLPC  H14A 6943   0.755   4.908   6.633  0.9851  0.7231  0.4781
   77SLPC  H14B 6944   0.679   4.994   6.497  0.0658  0.3520 -0.7462
   77SLPC  H14C 6945   0.712   4.822   6.477  1.4900  0.9271 -1.9778
   77SLPC   C15 6946   0.971   4.813   6.501 -0.2560 -0.3455  0.0380
   77SLPC  H15A 6947   0.972   4.794   6.607  1.9019  0.2410  0.1585
   77SLPC  H15B 6948   0.930   4.720   6.463 -1.1533 -0.4386  1.1638
   77SLPC  H15C 6949   1.070   4.820   6.459 -0.7291  0.1020 -1.0401
   77SLPC   C12 6950   0.875   4.964   6.323  0.3544  0.3778 -0.1511
   77SLPC  H12A 6951   0.802   5.042   6.307  0.5311  0.5440 -0.1531
   77SLPC  H12B 6952   0.841   4.871   6.280 -0.6131  1.2265 -1.2924
   77SLPC   C11 6953   1.001   5.020   6.259  0.0245 -0.1469 -0.2327
   77SLPC  H11A 6954   1.054   5.103   6.310 -1.1207  0.3460  0.1640
   77SLPC  H11B 6955   0.965   5.078   6.171  0.1543  0.7357  0.2816
   77SLPC     P 6956   1.084   4.832   6.099  0.0023 -0.2587 -0.1597
   77SLPC   O13 6957   1.183   4.727   6.124 -0.4760  0.3529 -0.1797
   77SLPC   O14 6958   0.944   4.797   6.072 -0.5075 -0.1264  0.9598
   77SLPC   O12 6959   1.096   4.920   6.228 -0.2454  0.4083 -0.0304
   77SLPC   O11 6960   1.132   4.933   5.986  0.2434 -0.1691 -0.5114
   77SLPC    C1 6961   1.271   4.970   5.964 -0.3416 -0.5409  0.0865
   77SLPC    HA 6962   1.337   4.884   5.989 -0.1159 -0.3239  0.2432
   77SLPC    HB 6963   1.299   4.987   5.858  3.1853  0.6180  1.0485
   77SLPC    C2 6964   1.307   5.088   6.047 -0.1067 -0.2257  1.4799
   77SLPC    HS 6965   1.282   5.057   6.151 -2.6987  1.9582  1.6344
   77SLPC   O21 6966   1.225   5.203   5.999 -0.4380  0.5354 -0.3450
   77SLPC   C21 6967   1.201   5.283   6.095  0.2039 -0.5989  0.4590
   77SLPC   O22 6968   1.234   5.281   6.215  0.2988 -0.1229 -0.0807
   77SLPC   C22 6969   1.120   5.400   6.041 -0.2326  0.0704 -0.5963
   77SLPC   H2R 6970   1.049   5.360   5.965  1.6054 -2.6704 -1.0096
   77SLPC   H2S 6971   1.066   5.453   6.123 -0.1886  0.9105 -1.0981
   77SLPC    C3 6972   1.461   5.101   6.051  0.1412 -0.0287  0.6628
   77SLPC    HX 6973   1.516   5.009   6.079  2.3814  0.2723 -2.2437
   77SLPC    HY 6974   1.486   5.178   6.127 -0.4257  2.2217 -1.3153
   77SLPC   O31 6975   1.515   5.130   5.916  0.2915  0.2094  0.5148
   77SLPC   C31 6976   1.608   5.228   5.908  0.7107 -0.2533 -0.3445
   77SLPC   O32 6977   1.641   5.299   5.999 -0.2016  0.0676 -0.6264
   77SLPC   C32 6978   1.658   5.227   5.764  0.8385  0.7963 -0.0282
   77SLPC   H2X 6979   1.564   5.227   5.705  0.4307  1.4659  0.6131
   77SLPC   H2Y 6980   1.704   5.129   5.738 -0.1941  0.2866  0.0118
   77SLPC   C23 6981   1.211   5.504   5.966  0.5154  0.2534  0.6614
   77SLPC   H3R 6982   1.304   5.517   6.026 -1.4421 -2.5914  4.8435
   77SLPC   H3S 6983   1.154   5.599   5.954 -1.0426 -0.4843  1.8459
   77SLPC   C24 6984   1.236   5.471   5.819  0.7504  0.6439  0.7311
   77SLPC   H4R 6985   1.138   5.473   5.767  1.5521 -1.4425 -1.0075
   77SLPC   H4S 6986   1.277   5.368   5.817  0.2140  0.4405 -0.0356
   77SLPC   C25 6987   1.333   5.556   5.730 -0.1692 -0.4313 -0.1597
   77SLPC   H5R 6988   1.433   5.546   5.779 -0.1477  1.2598  0.2198
   77SLPC   H5S 6989   1.292   5.658   5.718 -2.3776 -1.1389  0.9084
   77SLPC   C26 6990   1.345   5.510   5.587 -0.0441 -0.4691 -0.1394
   77SLPC   H6R 6991   1.250   5.537   5.537  0.0401  0.8808  0.3963
   77SLPC   H6S 6992   1.361   5.400   5.583  1.1337 -0.2754 -1.8165
   77SLPC   C27 6993   1.455   5.590   5.516 -0.2442  0.2500 -0.3051
   77SLPC   H7R 6994   1.554   5.589   5.567 -0.3121 -2.5438 -0.0707
   77SLPC   H7S 6995   1.418   5.692   5.490 -1.2553 -0.0092  0.0670
   77SLPC   C28 6996   1.494   5.526   5.383 -0.2103  0.3228  0.5743
   77SLPC   H8R 6997   1.509   5.418   5.406 -0.6957  0.0638 -0.2395
   77SLPC   H8S 6998   1.598   5.550   5.352  0.0821 -1.5980 -0.1000
   77SLPC   C29 6999   1.396   5.537   5.272 -0.1259 -0.1246 -0.6822
   77SLPC   H9R 7000   1.290   5.520   5.299 -0.0282  0.2977 -0.0084
   77SLPC  C210 7001   1.421   5.563   5.141 -0.1812  0.0123  0.0582
   77SLPC  H10R 7002   1.342   5.554   5.065 -0.8779  1.2446  0.6193
   77SLPC  C211 7003   1.561   5.585   5.077  0.6032  0.7153 -0.6927
   77SLPC  H11R 7004   1.641   5.606   5.151  0.6398  2.0158 -1.0835
   77SLPC  H11S 7005   1.565   5.671   5.007 -0.2182  1.2042 -0.1702
   77SLPC  C212 7006   1.623   5.461   5.015  0.1283 -0.6827 -0.9579
   77SLPC  H12R 7007   1.674   5.386   5.077  0.9908 -0.8726 -1.8721
   77SLPC  C213 7008   1.610   5.419   4.886  0.2903 -0.0124 -0.5489
   77SLPC  H13R 7009   1.644   5.318   4.859 -0.1601 -0.3311  0.0430
   77SLPC  C214 7010   1.532   5.482   4.774 -0.2093 -0.2247  0.0326
   77SLPC  H14R 7011   1.530   5.593   4.775 -0.2612 -0.1807 -1.5814
   77SLPC  H14S 7012   1.425   5.460   4.793 -0.0802  0.4722  1.6663
   77SLPC  C215 7013   1.555   5.426   4.631 -0.6631  0.2140  0.8622
   77SLPC  H15R 7014   1.492   5.335   4.624 -2.2527  1.3711 -0.8195
   77SLPC  H15S 7015   1.662   5.399   4.614 -0.9403  0.3885 -1.4333
   77SLPC  C216 7016   1.521   5.530   4.524 -0.1858  0.4707 -0.3633
   77SLPC  H16R 7017   1.589   5.616   4.539  1.3631 -1.0776  2.2481
   77SLPC  H16S 7018   1.415   5.560   4.540 -0.3865 -0.5734  0.3849
   77SLPC  C217 7019   1.543   5.477   4.384 -0.1833 -0.4612  0.1250
   77SLPC  H17R 7020   1.480   5.386   4.372 -1.0208 -0.0823  1.4383
   77SLPC  H17S 7021   1.650   5.455   4.367  0.0798 -0.3941  1.5823
   77SLPC  C218 7022   1.501   5.577   4.272  0.1945 -0.0618 -0.3149
   77SLPC  H18R 7023   1.530   5.547   4.169  1.2916  2.2397 -0.7501
   77SLPC  H18S 7024   1.548   5.678   4.281  0.1544 -0.1484  1.1039
   77SLPC  H18T 7025   1.395   5.610   4.281  0.2359 -0.1299  0.4538
   77SLPC   C33 7026   1.737   5.349   5.720  0.7169  0.1903 -0.7383
   77SLPC   H3X 7027   1.827   5.366   5.782  0.0855  3.2211 -0.4792
   77SLPC   H3Y 7028   1.682   5.444   5.739  2.8005  1.5940 -1.4398
   77SLPC   C34 7029   1.785   5.333   5.568  0.2940  0.4064  0.4706
   77SLPC   H4X 7030   1.686   5.309   5.523  0.1493 -0.3237  1.1534
   77SLPC   H4Y 7031   1.856   5.249   5.551  0.3170  0.5130  0.0422
   77SLPC   C35 7032   1.839   5.462   5.502 -0.4304  0.8448 -0.4412
   77SLPC   H5X 7033   1.933   5.485   5.557 -0.5544  0.0983  0.0962
   77SLPC   H5Y 7034   1.773   5.549   5.522 -1.7161 -0.0143 -0.8130
   77SLPC   C36 7035   1.856   5.440   5.353 -0.0518  0.0220  0.8526
   77SLPC   H6X 7036   1.756   5.417   5.311  0.6811  0.4941 -1.2982
   77SLPC   H6Y 7037   1.934   5.361   5.347  1.0032  0.9722  1.5221
   77SLPC   C37 7038   1.916   5.566   5.292  0.5489 -0.3212  0.3186
   77SLPC   H7X 7039   2.007   5.583   5.354  0.4397 -2.1030  1.0279
   77SLPC   H7Y 7040   1.840   5.644   5.315  1.1716 -0.2192  2.1766
   77SLPC   C38 7041   1.951   5.565   5.146 -0.0374  0.5976 -0.0243
   77SLPC   H8X 7042   2.031   5.639   5.126  2.8897 -1.8580  1.6473
   77SLPC   H8Y 7043   1.858   5.585   5.088 -0.2872 -2.3995 -0.8275
   77SLPC   C39 7044   2.016   5.435   5.096  0.1110  0.8295 -0.3590
   77SLPC   H9X 7045   1.946   5.349   5.102 -2.5775  2.7095 -2.3514
   77SLPC   H9Y 7046   2.100   5.412   5.164  0.8745  1.7588 -0.9523
   77SLPC  C310 7047   2.074   5.452   4.955 -0.9116  0.5671  0.7592
   77SLPC  H10X 7048   2.125   5.357   4.928  0.1025  1.4054 -0.3539
   77SLPC  H10Y 7049   2.155   5.526   4.970 -0.6980  0.1512  1.7457
   77SLPC  C311 7050   1.967   5.485   4.850 -0.2012  0.1006 -0.4738
   77SLPC  H11X 7051   1.886   5.550   4.891 -0.5725  0.3947 -1.6363
   77SLPC  H11Y 7052   1.923   5.384   4.845  2.0954 -1.2279  2.6936
   77SLPC  C312 7053   2.025   5.553   4.724  0.6908 -0.9616 -0.0996
   77SLPC  H12X 7054   2.116   5.509   4.679  0.9364  0.0019 -0.5878
   77SLPC  H12Y 7055   2.064   5.647   4.768 -3.2149  0.3554  0.9683
   77SLPC  C313 7056   1.916   5.570   4.609 -0.3966  0.9889 -0.0067
   77SLPC  H13X 7057   1.821   5.613   4.648  0.1822  1.3523  1.0505
   77SLPC  H13Y 7058   1.882   5.474   4.564 -0.9553  0.1456  2.0561
   77SLPC  C314 7059   1.979   5.659   4.497 -0.0860 -0.3895 -0.3710
   77SLPC  H14X 7060   2.054   5.604   4.437  0.9227  0.9848 -0.4224
   77SLPC  H14Y 7061   2.050   5.725   4.552 -0.9164 -0.7890  1.2686
   77SLPC  C315 7062   1.877   5.745   4.412 -0.1591 -0.3449 -0.3340
   77SLPC  H15X 7063   1.866   5.846   4.457  1.6996  0.1435 -0.9027
   77SLPC  H15Y 7064   1.785   5.687   4.434  0.8155 -2.2774 -1.1650
   77SLPC  C316 7065   1.908   5.748   4.257 -0.3858  0.1033  0.3870
   77SLPC  H16X 7066   1.818   5.789   4.207 -0.7524 -0.0105  0.9391
   77SLPC  H16Y 7067   1.901   5.642   4.226 -2.1907  0.0996  0.6967
   77SLPC  C317 7068   2.032   5.815   4.202  0.6399  0.1902 -0.2384
   77SLPC  H17X 7069   2.118   5.805   4.272 -0.5000 -2.1254  0.9164
   77SLPC  H17Y 7070   2.016   5.925   4.196  1.5734  0.2858 -1.3658
   77SLPC  C318 7071   2.067   5.789   4.056  0.6076  0.3744  0.5785
   77SLPC  H18X 7072   2.152   5.850   4.021 -0.0286 -0.6435 -3.1422
   77SLPC  H18Y 7073   1.978   5.803   3.992  1.8100  0.5998 -1.1089
   77SLPC  H18Z 7074   2.101   5.683   4.049 -0.5539  0.0196  0.1147
   78SLPC     N 7075   6.043   3.954   6.880 -0.2822 -0.7419  0.0636
   78SLPC   C13 7076   5.908   3.920   6.933  0.6177  0.0502  0.4938
   78SLPC  H13A 7077   5.896   3.813   6.942 -0.7085  0.0341 -1.0496
   78SLPC  H13B 7078   5.892   3.980   7.021 -0.7669  3.1497 -1.6668
   78SLPC  H13C 7079   5.827   3.955   6.871 -0.4892 -0.0302  1.8550
   78SLPC   C14 7080   6.141   3.930   6.992  0.3070  0.3735  0.1033
   78SLPC  H14A 7081   6.139   4.001   7.073  3.3389  0.7426 -0.0021
   78SLPC  H14B 7082   6.141   3.827   7.024 -1.4611 -0.2413 -1.6477
   78SLPC  H14C 7083   6.245   3.944   6.964  0.7027 -0.5675  1.0455
   78SLPC   C15 7084   6.050   4.101   6.833 -0.2931 -0.1720 -0.1908
   78SLPC  H15A 7085   5.985   4.127   6.751 -0.3995  1.3825  0.3440
   78SLPC  H15B 7086   6.023   4.158   6.921 -1.7266 -1.4874  0.2648
   78SLPC  H15C 7087   6.153   4.130   6.815  0.2933 -1.4552  0.9258
   78SLPC   C12 7088   6.085   3.864   6.763  0.0145  0.0042 -0.4200
   78SLPC  H12A 7089   6.100   3.767   6.808  0.9359  0.2510 -0.1659
   78SLPC  H12B 7090   6.178   3.903   6.724  0.8412 -0.7350  0.7451
   78SLPC   C11 7091   5.986   3.850   6.648  0.5128  0.6032 -0.4610
   78SLPC  H11A 7092   6.044   3.802   6.566  0.1967  0.9312 -0.8782
   78SLPC  H11B 7093   5.959   3.953   6.619  0.2915  0.6676 -0.0386
   78SLPC     P 7094   5.753   3.744   6.601 -0.5273 -0.1373  0.1854
   78SLPC   O13 7095   5.729   3.600   6.592 -0.5837  0.4010 -0.4972
   78SLPC   O14 7096   5.633   3.828   6.634  0.0781  0.0821  0.0388
   78SLPC   O12 7097   5.876   3.769   6.696 -0.4576 -0.1314  0.6043
   78SLPC   O11 7098   5.804   3.790   6.460  0.2923  0.9148  0.2556
   78SLPC    C1 7099   5.697   3.792   6.353 -0.2121  0.1026  0.3948
   78SLPC    HA 7100   5.699   3.703   6.286 -1.1434 -1.3405  2.1829
   78SLPC    HB 7101   5.597   3.808   6.400 -1.0963 -3.0586 -0.1202
   78SLPC    C2 7102   5.709   3.921   6.264  0.9284 -0.3468 -0.2692
   78SLPC    HS 7103   5.630   3.924   6.186  2.1798  0.9528 -1.5627
   78SLPC   O21 7104   5.836   3.922   6.188 -0.4947 -0.7348 -0.4858
   78SLPC   C21 7105   5.832   3.834   6.084  0.4804 -0.2623 -0.0653
   78SLPC   O22 7106   5.745   3.754   6.069  0.1837 -0.3109 -0.3527
   78SLPC   C22 7107   5.943   3.847   5.981  0.3120 -0.2349  0.5010
   78SLPC   H2R 7108   6.010   3.931   6.008  1.9112 -1.6133  1.0324
   78SLPC   H2S 7109   6.007   3.756   5.989 -0.4016 -0.6523  1.7001
   78SLPC    C3 7110   5.686   4.051   6.343  0.9884 -0.0825  0.0054
   78SLPC    HX 7111   5.775   4.047   6.409 -0.9151 -1.2608  2.7007
   78SLPC    HY 7112   5.595   4.040   6.406 -1.2876  2.9649 -2.4322
   78SLPC   O31 7113   5.672   4.162   6.247 -0.3139  0.0376  0.3095
   78SLPC   C31 7114   5.742   4.268   6.277  0.2365  0.9635 -0.2976
   78SLPC   O32 7115   5.813   4.287   6.374  0.3534  0.3624  0.0957
   78SLPC   C32 7116   5.731   4.360   6.152 -0.1927  0.1340 -0.1785
   78SLPC   H2X 7117   5.819   4.427   6.145  1.0794 -1.5186 -0.5241
   78SLPC   H2Y 7118   5.634   4.415   6.149  0.3315  1.1953  1.2939
   78SLPC   C23 7119   5.878   3.863   5.840  0.0561  0.0429  0.0111
   78SLPC   H3R 7120   5.827   3.962   5.836  1.7391  0.9425 -0.6670
   78SLPC   H3S 7121   5.811   3.777   5.821  0.7960 -0.7710  0.9814
   78SLPC   C24 7122   5.989   3.868   5.731  0.3592  0.4591 -0.3387
   78SLPC   H4R 7123   6.048   3.777   5.757 -0.5254  0.6785  2.8656
   78SLPC   H4S 7124   6.042   3.964   5.743  1.5525 -0.0973 -0.9240
   78SLPC   C25 7125   5.940   3.858   5.588  0.0462 -0.5438  0.1195
   78SLPC   H5R 7126   5.877   3.945   5.560  1.5225 -0.0772 -2.0500
   78SLPC   H5S 7127   5.876   3.768   5.576  0.4069 -0.6246 -1.4286
   78SLPC   C26 7128   6.053   3.846   5.484  0.4497  0.7070  0.3704
   78SLPC   H6R 7129   6.107   3.749   5.494 -0.9605 -0.3072 -1.2097
   78SLPC   H6S 7130   6.127   3.925   5.509  1.7046 -0.1990 -0.3366
   78SLPC   C27 7131   6.009   3.876   5.343 -0.7217 -0.1739 -0.0040
   78SLPC   H7R 7132   6.001   3.984   5.317  1.2695 -0.0496 -0.2324
   78SLPC   H7S 7133   5.903   3.845   5.326 -0.8223  0.1909 -0.0477
   78SLPC   C28 7134   6.092   3.803   5.235 -0.0006 -0.5373 -0.2466
   78SLPC   H8R 7135   6.040   3.800   5.137  1.4195 -1.2295 -1.0169
   78SLPC   H8S 7136   6.110   3.694   5.248 -1.7960 -0.7672  0.5299
   78SLPC   C29 7137   6.229   3.868   5.229  0.3684  0.8535 -0.2825
   78SLPC   H9R 7138   6.276   3.888   5.326 -0.7646 -1.5143  0.8326
   78SLPC  C210 7139   6.304   3.886   5.123 -0.5876  0.1880  0.0908
   78SLPC  H10R 7140   6.406   3.924   5.138 -0.8531  0.5854  0.9034
   78SLPC  C211 7141   6.280   3.862   4.978  0.5529 -0.2126 -0.2967
   78SLPC  H11R 7142   6.287   3.958   4.922  0.3794 -0.3036 -0.4790
   78SLPC  H11S 7143   6.170   3.844   4.967  0.2658  2.6094 -3.9152
   78SLPC  C212 7144   6.367   3.760   4.912 -0.0242  0.2851  0.3483
   78SLPC  H12R 7145   6.444   3.705   4.969  0.7904 -2.1062 -2.8095
   78SLPC  C213 7146   6.366   3.734   4.780  0.3869 -0.3956 -0.3177
   78SLPC  H13R 7147   6.430   3.648   4.757  0.4322 -0.1082 -1.3298
   78SLPC  C214 7148   6.282   3.791   4.670 -0.4289 -0.4224  0.6446
   78SLPC  H14R 7149   6.200   3.854   4.711 -1.0490 -2.4806  2.8502
   78SLPC  H14S 7150   6.228   3.714   4.612 -0.7946  0.9780 -0.9538
   78SLPC  C215 7151   6.365   3.876   4.576  0.0417  0.0514  0.0871
   78SLPC  H15R 7152   6.469   3.839   4.573 -0.2119 -0.6262 -0.7743
   78SLPC  H15S 7153   6.357   3.979   4.615 -1.3129  0.0684 -0.1838
   78SLPC  C216 7154   6.311   3.874   4.438 -0.0493  0.4181  0.2533
   78SLPC  H16R 7155   6.362   3.945   4.369  0.3921 -1.3795 -1.3401
   78SLPC  H16S 7156   6.205   3.908   4.440  0.0217  0.7218  2.8848
   78SLPC  C217 7157   6.308   3.746   4.357  0.1489  0.4642  0.3184
   78SLPC  H17R 7158   6.241   3.667   4.400 -2.2351  1.7808 -0.7563
   78SLPC  H17S 7159   6.410   3.703   4.358  0.5573  1.4144  0.2697
   78SLPC  C218 7160   6.278   3.764   4.201  0.2499  0.3683 -0.6163
   78SLPC  H18R 7161   6.345   3.836   4.151  1.1328 -0.4834 -0.6790
   78SLPC  H18S 7162   6.172   3.797   4.197 -0.3971 -1.4166  0.5432
   78SLPC  H18T 7163   6.282   3.665   4.152 -1.1083  0.4408 -0.9190
   78SLPC   C33 7164   5.725   4.284   6.019  0.5481 -0.3150  0.7698
   78SLPC   H3X 7165   5.649   4.203   6.018  0.7437 -0.5148  1.3827
   78SLPC   H3Y 7166   5.831   4.249   6.013  1.0972  1.1140  1.7359
   78SLPC   C34 7167   5.689   4.387   5.914 -0.1375  0.4417  0.2074
   78SLPC   H4X 7168   5.757   4.474   5.912 -0.2771  0.5627 -2.3188
   78SLPC   H4Y 7169   5.589   4.435   5.924 -0.7121 -0.1838 -1.9204
   78SLPC   C35 7170   5.694   4.331   5.774  0.1996  1.1911 -0.5659
   78SLPC   H5X 7171   5.796   4.295   5.750 -0.1102 -0.3394  0.3355
   78SLPC   H5Y 7172   5.671   4.412   5.701  1.7659  0.9401 -1.3730
   78SLPC   C36 7173   5.591   4.218   5.735 -0.3375 -0.2284  0.5947
   78SLPC   H6X 7174   5.485   4.250   5.734 -0.7850 -1.6291 -0.6042
   78SLPC   H6Y 7175   5.607   4.143   5.816  0.9666 -0.7525 -0.1275
   78SLPC   C37 7176   5.634   4.143   5.604  0.2506 -0.5149 -0.3293
   78SLPC   H7X 7177   5.729   4.087   5.613  0.0646 -0.9085 -0.7868
   78SLPC   H7Y 7178   5.648   4.213   5.519  1.8590  2.6161  2.3005
   78SLPC   C38 7179   5.531   4.031   5.568 -0.3299 -0.0207 -0.2877
   78SLPC   H8X 7180   5.452   4.019   5.645 -0.3630  4.5366  0.6267
   78SLPC   H8Y 7181   5.590   3.937   5.572  0.9765  0.7639 -0.4441
   78SLPC   C39 7182   5.476   4.052   5.424 -0.0200 -0.4192 -0.1498
   78SLPC   H9X 7183   5.558   4.043   5.349 -1.3430 -2.4971 -1.4586
   78SLPC   H9Y 7184   5.424   4.150   5.416 -0.0181 -0.2467  1.5533
   78SLPC  C310 7185   5.377   3.941   5.371  0.1235  0.0423  0.2832
   78SLPC  H10X 7186   5.313   3.911   5.457  1.0326 -3.0252  0.0186
   78SLPC  H10Y 7187   5.418   3.838   5.364 -1.7562 -0.7420  0.0427
   78SLPC  C311 7188   5.293   3.969   5.243 -0.6223 -0.3305 -0.1478
   78SLPC  H11X 7189   5.215   4.049   5.251 -0.7285 -0.2672 -1.5325
   78SLPC  H11Y 7190   5.234   3.876   5.227 -1.1217 -0.1663  0.6655
   78SLPC  C312 7191   5.380   3.997   5.121  0.1237 -0.0202  0.6560
   78SLPC  H12X 7192   5.429   4.097   5.125  2.0486 -0.7866 -1.4796
   78SLPC  H12Y 7193   5.305   4.017   5.041  1.4996  0.1811 -0.6419
   78SLPC  C313 7194   5.494   3.894   5.097  0.8824 -0.0370  0.2082
   78SLPC  H13X 7195   5.527   3.836   5.185  1.2638  1.2506  0.9443
   78SLPC  H13Y 7196   5.569   3.962   5.051  0.5644  0.1175 -0.0847
   78SLPC  C314 7197   5.447   3.799   4.984  0.5100  0.1009 -0.8131
   78SLPC  H14X 7198   5.450   3.863   4.893 -2.0855  0.8454 -0.4626
   78SLPC  H14Y 7199   5.346   3.758   5.006  1.3543 -1.2654  0.6980
   78SLPC  C315 7200   5.540   3.678   4.966 -0.2095  0.0945  0.6613
   78SLPC  H15X 7201   5.514   3.611   5.050  0.6371 -2.4661 -0.9930
   78SLPC  H15Y 7202   5.648   3.705   4.972  0.0008 -0.4086 -0.4837
   78SLPC  C316 7203   5.521   3.610   4.823 -0.4799 -0.1365  0.0687
   78SLPC  H16X 7204   5.562   3.679   4.747 -0.5755 -2.5746 -2.3511
   78SLPC  H16Y 7205   5.412   3.609   4.801 -0.3124 -0.3179 -0.7946
   78SLPC  C317 7206   5.586   3.475   4.815  0.4559  0.4467 -0.6117
   78SLPC  H17X 7207   5.536   3.399   4.880  0.6117  1.6936  1.0350
   78SLPC  H17Y 7208   5.682   3.489   4.868  0.6676 -0.1629 -0.8292
   78SLPC  C318 7209   5.611   3.432   4.671  0.7684 -0.3483  0.1469
   78SLPC  H18X 7210   5.667   3.336   4.677  1.2231 -0.0066  1.9704
   78SLPC  H18Y 7211   5.696   3.495   4.638  2.9893 -2.4378  1.5477
   78SLPC  H18Z 7212   5.530   3.431   4.595  1.2231 -1.4144 -0.3459
   79SLPC     N 7213   3.241   5.827   6.585 -0.8113 -0.4238  0.4197
   79SLPC   C13 7214   3.307   5.809   6.718 -0.3275 -0.3971  0.4139
   79SLPC  H13A 7215   3.375   5.887   6.749 -2.4448  0.5699  3.0918
   79SLPC  H13B 7216   3.239   5.796   6.800 -1.4291  1.3915 -0.1465
   79SLPC  H13C 7217   3.365   5.719   6.714 -0.9726 -0.7918 -0.3791
   79SLPC   C14 7218   3.336   5.822   6.469 -0.1981  0.2546  0.7086
   79SLPC  H14A 7219   3.280   5.821   6.376  1.1058 -2.3044 -0.1525
   79SLPC  H14B 7220   3.414   5.896   6.471 -0.0711  0.1610 -0.2285
   79SLPC  H14C 7221   3.384   5.725   6.469 -0.0748  0.3134  0.2296
   79SLPC   C15 7222   3.191   5.962   6.593 -0.0745 -0.2738  0.0791
   79SLPC  H15A 7223   3.141   5.998   6.504  0.0224 -0.2322  0.0406
   79SLPC  H15B 7224   3.117   5.970   6.670 -1.6881  0.9069 -1.5009
   79SLPC  H15C 7225   3.275   6.023   6.623  0.8664 -0.6386 -1.6670
   79SLPC   C12 7226   3.135   5.725   6.572 -0.1820 -0.1117 -0.0511
   79SLPC  H12A 7227   3.078   5.719   6.663  0.7516 -0.0775  0.5488
   79SLPC  H12B 7228   3.180   5.627   6.567 -2.1577 -1.0421 -0.7789
   79SLPC   C11 7229   3.041   5.726   6.449  0.2034 -0.1460  0.0966
   79SLPC  H11A 7230   2.981   5.633   6.442  0.0829 -0.0905  0.3795
   79SLPC  H11B 7231   3.111   5.729   6.363  0.8412  0.9123  0.6282
   79SLPC     P 7232   2.840   5.853   6.543 -0.0977 -0.0977 -0.2819
   79SLPC   O13 7233   2.879   5.814   6.681 -0.5493  0.5821  0.3864
   79SLPC   O14 7234   2.782   5.986   6.520  0.4804  0.2411 -0.1631
   79SLPC   O12 7235   2.959   5.842   6.443 -0.1773 -0.8821 -0.4039
   79SLPC   O11 7236   2.736   5.756   6.479 -0.5814  0.9676  0.0014
   79SLPC    C1 7237   2.653   5.782   6.364 -0.2526  0.0444 -0.5076
   79SLPC    HA 7238   2.559   5.727   6.384  1.2199 -2.4366  0.0267
   79SLPC    HB 7239   2.640   5.891   6.352  0.7576  0.0354 -1.9210
   79SLPC    C2 7240   2.704   5.721   6.232 -0.2177  0.5557 -0.0481
   79SLPC    HS 7241   2.744   5.620   6.256 -0.2640  0.6015  0.2258
   79SLPC   O21 7242   2.814   5.804   6.176 -0.0214  0.1072  0.3221
   79SLPC   C21 7243   2.886   5.743   6.081  0.0669 -0.6943 -0.2531
   79SLPC   O22 7244   2.876   5.626   6.060  0.1962  0.1897 -0.5954
   79SLPC   C22 7245   2.962   5.842   5.992  0.8374 -0.2578 -0.1509
   79SLPC   H2R 7246   2.890   5.926   5.992 -2.3367 -2.7231  2.8660
   79SLPC   H2S 7247   3.063   5.863   6.035  0.6207  1.2432 -0.3075
   79SLPC    C3 7248   2.591   5.697   6.124  0.2529 -0.4422  0.7620
   79SLPC    HX 7249   2.495   5.671   6.172  0.4380 -3.3534 -0.2223
   79SLPC    HY 7250   2.634   5.614   6.063  1.5147  0.2009  0.7341
   79SLPC   O31 7251   2.580   5.804   6.023  0.2597  0.3053  0.2555
   79SLPC   C31 7252   2.489   5.900   6.062  0.4147  0.4065  0.7445
   79SLPC   O32 7253   2.423   5.901   6.160  0.4090 -0.2312  0.1554
   79SLPC   C32 7254   2.491   6.009   5.947  0.8469 -0.1121 -0.0892
   79SLPC   H2X 7255   2.435   6.096   5.989 -0.7563 -1.5761  0.9600
   79SLPC   H2Y 7256   2.428   5.979   5.861  0.8112  3.1722 -1.3518
   79SLPC   C23 7257   2.989   5.803   5.845 -0.2635  0.0531 -0.5248
   79SLPC   H3R 7258   3.010   5.894   5.785 -1.3603  0.0742 -0.8967
   79SLPC   H3S 7259   2.897   5.756   5.805 -0.1846  0.6534 -1.4515
   79SLPC   C24 7260   3.085   5.689   5.829  0.1840 -0.6402  0.8477
   79SLPC   H4R 7261   3.039   5.588   5.831  0.6096 -1.0149 -2.5550
   79SLPC   H4S 7262   3.168   5.691   5.903 -0.6374 -1.6287  1.8332
   79SLPC   C25 7263   3.139   5.685   5.680 -0.1786 -0.0523  0.0120
   79SLPC   H5R 7264   3.211   5.601   5.674  1.3322  1.2783 -1.3632
   79SLPC   H5S 7265   3.180   5.787   5.665 -0.3217 -0.0133 -0.1189
   79SLPC   C26 7266   3.041   5.636   5.574 -0.5670  0.5451 -0.5099
   79SLPC   H6R 7267   2.957   5.708   5.581  0.8889  2.2922 -0.1392
   79SLPC   H6S 7268   3.003   5.535   5.597  1.8654 -0.0720  1.2028
   79SLPC   C27 7269   3.085   5.646   5.426 -0.3397  0.3306 -0.3862
   79SLPC   H7R 7270   3.130   5.747   5.414 -1.5545  1.0049  0.4196
   79SLPC   H7S 7271   2.999   5.643   5.356  1.2668 -0.2566 -2.4423
   79SLPC   C28 7272   3.180   5.534   5.384  0.3830 -1.0440 -0.0632
   79SLPC   H8R 7273   3.132   5.435   5.399  1.5083 -1.6969 -0.6437
   79SLPC   H8S 7274   3.269   5.532   5.451  0.3880 -0.8626 -0.0645
   79SLPC   C29 7275   3.202   5.557   5.235 -0.3725 -0.0997 -0.1406
   79SLPC   H9R 7276   3.111   5.586   5.180 -0.6138 -0.5875 -0.0021
   79SLPC  C210 7277   3.317   5.550   5.168  0.5809  0.1202 -0.5462
   79SLPC  H10R 7278   3.306   5.546   5.058  0.1219  0.1805 -0.5066
   79SLPC  C211 7279   3.452   5.515   5.226 -0.5126  0.2902 -0.4648
   79SLPC  H11R 7280   3.452   5.516   5.337 -2.3995 -0.6232 -0.4281
   79SLPC  H11S 7281   3.535   5.584   5.198  1.6314 -1.5140  1.0117
   79SLPC  C212 7282   3.505   5.376   5.191  0.3174  0.1724  0.9349
   79SLPC  H12R 7283   3.437   5.293   5.215 -0.9009  1.3428  1.6817
   79SLPC  C213 7284   3.606   5.340   5.106  0.0966 -0.4355  0.1097
   79SLPC  H13R 7285   3.629   5.233   5.093  1.3088 -0.3224  1.1531
   79SLPC  C214 7286   3.708   5.430   5.035  0.3427  0.1217  0.1691
   79SLPC  H14R 7287   3.722   5.535   5.069  2.4434 -0.4118  1.1210
   79SLPC  H14S 7288   3.672   5.438   4.930  3.0790 -0.3286 -0.8982
   79SLPC  C215 7289   3.854   5.374   5.001 -0.1385 -0.6543  0.0209
   79SLPC  H15R 7290   3.847   5.272   4.957  2.1682 -1.1554  0.6957
   79SLPC  H15S 7291   3.917   5.374   5.092  0.5414 -1.5431 -0.4279
   79SLPC  C216 7292   3.929   5.453   4.892 -0.4457  0.4673 -0.0691
   79SLPC  H16R 7293   3.949   5.553   4.935  1.6217  0.5233 -1.0350
   79SLPC  H16S 7294   3.865   5.457   4.801  1.3466 -0.1180 -1.4160
   79SLPC  C217 7295   4.070   5.399   4.871  0.1872 -0.2765  0.7734
   79SLPC  H17R 7296   4.100   5.466   4.788  0.0809  0.7641  1.5524
   79SLPC  H17S 7297   4.063   5.295   4.832 -1.8433 -0.3061  1.1036
   79SLPC  C218 7298   4.171   5.418   4.986 -0.9132  0.4271  0.3996
   79SLPC  H18R 7299   4.153   5.346   5.069 -2.9943  2.1244  1.4899
   79SLPC  H18S 7300   4.169   5.520   5.028 -1.7210  1.2089 -1.4512
   79SLPC  H18T 7301   4.276   5.415   4.949 -0.4701  0.5130  1.5854
   79SLPC   C33 7302   2.634   6.057   5.906 -0.3486 -0.1141  0.0414
   79SLPC   H3X 7303   2.696   5.973   5.869  1.4780  0.2478  2.1261
   79SLPC   H3Y 7304   2.678   6.078   6.005  1.6907 -0.9981 -0.6190
   79SLPC   C34 7305   2.642   6.171   5.808  0.0883  0.3143  0.3229
   79SLPC   H4X 7306   2.636   6.262   5.872 -0.2366  1.1904 -0.9010
   79SLPC   H4Y 7307   2.540   6.169   5.764 -0.9758 -0.9475  2.6526
   79SLPC   C35 7308   2.762   6.176   5.725  0.0497 -0.0967 -0.5789
   79SLPC   H5X 7309   2.850   6.145   5.786 -0.2814 -2.7057 -1.3079
   79SLPC   H5Y 7310   2.782   6.274   5.677 -0.1180  0.1793 -0.0828
   79SLPC   C36 7311   2.750   6.084   5.597  0.3353 -0.4569 -0.2473
   79SLPC   H6X 7312   2.681   6.133   5.525 -0.3758 -0.3387  0.4940
   79SLPC   H6Y 7313   2.709   5.986   5.631  0.4934  0.0159  1.3758
   79SLPC   C37 7314   2.882   6.052   5.530  0.1940 -0.6500  0.5926
   79SLPC   H7X 7315   2.946   5.996   5.601 -0.4796 -2.7181 -0.3480
   79SLPC   H7Y 7316   2.940   6.141   5.496 -0.5079 -0.3201  0.2295
   79SLPC   C38 7317   2.862   5.966   5.406 -0.1416 -0.0274  0.2899
   79SLPC   H8X 7318   2.759   5.985   5.371  0.5237  0.3484 -1.5483
   79SLPC   H8Y 7319   2.860   5.857   5.431  1.1667 -0.1034  0.1610
   79SLPC   C39 7320   2.956   5.986   5.288 -0.6030  0.1120  0.5388
   79SLPC   H9X 7321   3.060   5.964   5.320 -0.7472 -4.2013 -1.2779
   79SLPC   H9Y 7322   2.949   6.085   5.239  1.4344  0.0044 -0.0697
   79SLPC  C310 7323   2.923   5.876   5.172  0.0010 -0.2860  0.6802
   79SLPC  H10X 7324   2.849   5.920   5.102 -0.2000 -0.2985  0.8835
   79SLPC  H10Y 7325   2.872   5.790   5.221 -3.2939  1.3954  0.4869
   79SLPC  C311 7326   3.045   5.841   5.082  0.3290  0.3798  0.1345
   79SLPC  H11X 7327   3.124   5.801   5.148 -1.2072 -3.0221  0.1041
   79SLPC  H11Y 7328   3.074   5.933   5.026 -1.1443  0.1192 -1.1340
   79SLPC  C312 7329   3.005   5.733   4.976 -1.2167  0.8473 -0.2287
   79SLPC  H12X 7330   2.925   5.777   4.913 -0.3108 -0.2442 -2.2102
   79SLPC  H12Y 7331   2.974   5.643   5.033  0.5717 -0.0626 -0.6486
   79SLPC  C313 7332   3.124   5.682   4.884  0.9716  0.4643 -1.1276
   79SLPC  H13X 7333   3.218   5.677   4.943 -0.2613 -0.3830  0.8791
   79SLPC  H13Y 7334   3.146   5.765   4.813 -1.4743  1.2998 -0.9949
   79SLPC  C314 7335   3.100   5.540   4.819 -0.4271  0.3546  0.1604
   79SLPC  H14X 7336   3.014   5.534   4.749 -0.5446 -0.3051  0.3585
   79SLPC  H14Y 7337   3.086   5.466   4.901 -1.6243 -0.4148 -0.6954
   79SLPC  C315 7338   3.225   5.496   4.752 -0.0496 -0.9447 -0.4954
   79SLPC  H15X 7339   3.298   5.480   4.835 -0.1747  2.7135  0.4806
   79SLPC  H15Y 7340   3.269   5.578   4.691  0.2748 -0.0964  0.8306
   79SLPC  C316 7341   3.200   5.379   4.655 -0.2810  0.1997 -0.0682
   79SLPC  H16X 7342   3.135   5.407   4.569  0.9544  0.3657 -0.9689
   79SLPC  H16Y 7343   3.158   5.297   4.717 -0.1969  0.6104  0.5384
   79SLPC  C317 7344   3.340   5.322   4.597 -0.5137  0.2248  0.1059
   79SLPC  H17X 7345   3.388   5.273   4.685 -2.0821  0.5439  1.1918
   79SLPC  H17Y 7346   3.382   5.415   4.554 -3.2932  1.9697  0.8902
   79SLPC  C318 7347   3.317   5.231   4.476  0.5132  0.1996  1.0755
   79SLPC  H18X 7348   3.246   5.284   4.409  1.3457 -0.5140 -0.4065
   79SLPC  H18Y 7349   3.272   5.136   4.513 -0.7713 -0.7251 -2.4929
   79SLPC  H18Z 7350   3.413   5.216   4.422 -0.5716 -0.3146 -0.7592
   80SLPC     N 7351   0.700   1.145   6.711 -0.1780  0.4279  0.2067
   80SLPC   C13 7352   0.714   1.214   6.841  0.0805 -0.2937 -0.1928
   80SLPC  H13A 7353   0.788   1.159   6.899 -1.2140  0.2362  2.1107
   80SLPC  H13B 7354   0.752   1.314   6.831  1.4271 -0.8057 -0.5117
   80SLPC  H13C 7355   0.623   1.213   6.899  0.3251  0.4823  0.2096
   80SLPC   C14 7356   0.562   1.162   6.656 -0.3150 -0.1329  0.3062
   80SLPC  H14A 7357   0.527   1.263   6.647  1.8355  0.5332 -1.5154
   80SLPC  H14B 7358   0.542   1.120   6.559 -0.4865  0.3967  0.1121
   80SLPC  H14C 7359   0.498   1.106   6.723 -0.1695 -1.4984 -0.6475
   80SLPC   C15 7360   0.712   1.003   6.732 -0.6631  0.4621 -0.4715
   80SLPC  H15A 7361   0.816   0.974   6.729 -0.7014  0.3710 -1.8666
   80SLPC  H15B 7362   0.661   0.982   6.824 -3.5515 -1.9385 -2.4514
   80SLPC  H15C 7363   0.678   0.944   6.648  0.4714 -0.8173 -0.0631
   80SLPC   C12 7364   0.801   1.203   6.617 -0.1740  0.4710 -0.3516
   80SLPC  H12A 7365   0.878   1.246   6.680  0.2379  0.3259 -0.7483
   80SLPC  H12B 7366   0.760   1.283   6.557 -0.8986 -1.2507 -2.2512
   80SLPC   C11 7367   0.866   1.108   6.514  0.4880 -0.7541  0.9508
   80SLPC  H11A 7368   0.913   1.171   6.435 -2.4344  1.3926  0.7301
   80SLPC  H11B 7369   0.775   1.066   6.467  0.5617 -0.2116  0.2955
   80SLPC     P 7370   1.098   1.050   6.623  0.0984  0.3286  0.3427
   80SLPC   O13 7371   1.118   1.198   6.622 -0.3267  0.0336  0.0287
   80SLPC   O14 7372   1.128   0.986   6.757  0.1458  0.1192 -0.1489
   80SLPC   O12 7373   0.954   1.011   6.567  0.4047  0.0317 -0.0717
   80SLPC   O11 7374   1.197   0.984   6.515  0.6001  0.2837  0.2441
   80SLPC    C1 7375   1.155   0.999   6.382 -1.4813 -0.8083 -0.1437
   80SLPC    HA 7376   1.056   0.950   6.375 -2.7708  1.3114  1.7156
   80SLPC    HB 7377   1.160   1.106   6.351 -1.8119 -0.6707  0.2653
   80SLPC    C2 7378   1.256   0.925   6.283  0.3382  0.0962 -0.0553
   80SLPC    HS 7379   1.245   0.980   6.187 -0.9761 -1.8661 -1.0921
   80SLPC   O21 7380   1.218   0.785   6.275 -0.6821  0.2284  0.1178
   80SLPC   C21 7381   1.154   0.739   6.173  0.2060 -0.2075  0.5646
   80SLPC   O22 7382   1.124   0.801   6.067 -0.5442  1.4811 -0.3348
   80SLPC   C22 7383   1.100   0.593   6.198  0.1459 -0.2542  0.8002
   80SLPC   H2R 7384   1.178   0.543   6.258 -0.4751 -2.1863  0.0868
   80SLPC   H2S 7385   1.021   0.603   6.275  0.4539 -1.6122  1.3115
   80SLPC    C3 7386   1.406   0.949   6.318 -0.0121 -0.3714 -0.4773
   80SLPC    HX 7387   1.418   0.897   6.415  0.2408 -0.9038 -0.7889
   80SLPC    HY 7388   1.425   1.057   6.332  0.0871 -0.0687 -2.5538
   80SLPC   O31 7389   1.497   0.896   6.223  0.0657  0.2309  0.3110
   80SLPC   C31 7390   1.516   0.974   6.109 -0.3564 -0.3711  0.7322
   80SLPC   O32 7391   1.483   1.090   6.095  0.0018 -0.4157  0.0081
   80SLPC   C32 7392   1.613   0.902   6.011  0.0703  0.1708  0.0996
   80SLPC   H2X 7393   1.593   0.793   5.997 -0.2697  0.5424 -2.9430
   80SLPC   H2Y 7394   1.716   0.915   6.051  0.1212 -1.4814  0.5830
   80SLPC   C23 7395   1.063   0.495   6.072  0.2676 -0.6751 -0.5522
   80SLPC   H3R 7396   1.006   0.558   5.999  1.6645  2.7833  1.1009
   80SLPC   H3S 7397   0.999   0.418   6.120 -0.3049 -1.8959 -3.1194
   80SLPC   C24 7398   1.177   0.429   6.001 -0.1332 -0.2676  0.1612
   80SLPC   H4R 7399   1.129   0.361   5.927 -1.5895  1.7250 -0.7987
   80SLPC   H4S 7400   1.237   0.369   6.073 -1.9971 -0.7247  1.3986
   80SLPC   C25 7401   1.273   0.525   5.926  0.2751  0.2541 -0.2866
   80SLPC   H5R 7402   1.371   0.513   5.978 -0.7603  0.4856  1.8515
   80SLPC   H5S 7403   1.247   0.633   5.934 -3.8952 -0.6124  0.0905
   80SLPC   C26 7404   1.282   0.486   5.781 -0.3121  0.0674  0.4651
   80SLPC   H6R 7405   1.188   0.505   5.724 -0.5319  1.0925  1.1376
   80SLPC   H6S 7406   1.301   0.377   5.786 -0.0795  0.0319 -0.8053
   80SLPC   C27 7407   1.403   0.564   5.724 -0.1185  0.1780  0.1127
   80SLPC   H7R 7408   1.499   0.556   5.779  0.5302  0.1361 -0.9971
   80SLPC   H7S 7409   1.381   0.672   5.738  0.0562  0.2841 -0.3840
   80SLPC   C28 7410   1.417   0.535   5.572  0.3328  0.2379  0.3804
   80SLPC   H8R 7411   1.324   0.581   5.532  0.4086  0.6074  0.6135
   80SLPC   H8S 7412   1.420   0.426   5.555  1.7564  0.5339 -1.5457
   80SLPC   C29 7413   1.540   0.601   5.519 -0.2508 -0.5805 -0.8104
   80SLPC   H9R 7414   1.571   0.690   5.576  0.6107 -0.2517 -1.7513
   80SLPC  C210 7415   1.616   0.571   5.410 -0.2963 -0.4216  0.2560
   80SLPC  H10R 7416   1.703   0.633   5.385 -0.3597 -0.9142 -1.2870
   80SLPC  C211 7417   1.594   0.464   5.307  0.2747 -0.5112 -0.3815
   80SLPC  H11R 7418   1.613   0.521   5.214  0.5132  2.3656  1.3047
   80SLPC  H11S 7419   1.488   0.431   5.296  0.1293  0.6003 -3.2965
   80SLPC  C212 7420   1.673   0.342   5.332 -0.4568 -0.0178  0.3917
   80SLPC  H12R 7421   1.648   0.292   5.427  1.5406 -1.0464  0.4221
   80SLPC  C213 7422   1.774   0.286   5.264  0.3814  0.0864  0.9372
   80SLPC  H13R 7423   1.824   0.194   5.300  1.9631  0.5550  0.0227
   80SLPC  C214 7424   1.823   0.318   5.118  1.1789  0.1376  0.0772
   80SLPC  H14R 7425   1.930   0.348   5.118  1.0691  0.5632 -0.8316
   80SLPC  H14S 7426   1.772   0.410   5.081  0.4724  0.8123  2.5053
   80SLPC  C215 7427   1.805   0.206   5.009 -0.1566 -0.3323 -0.9132
   80SLPC  H15R 7428   1.695   0.193   5.000 -0.7525  2.0120  1.5486
   80SLPC  H15S 7429   1.846   0.107   5.036 -2.3763 -0.5714  2.1415
   80SLPC  C216 7430   1.869   0.257   4.881 -0.6391  0.2016  0.0671
   80SLPC  H16R 7431   1.978   0.259   4.901 -1.0566 -0.4453  2.8335
   80SLPC  H16S 7432   1.838   0.362   4.861 -0.2823  0.3903  0.4880
   80SLPC  C217 7433   1.838   0.181   4.750  0.5959 -1.1640 -0.5634
   80SLPC  H17R 7434   1.734   0.200   4.717  0.6871 -0.2510 -0.3482
   80SLPC  H17S 7435   1.875   0.079   4.771  1.4480 -0.5339  1.1574
   80SLPC  C218 7436   1.927   0.239   4.634 -0.7373  0.4037  0.6468
   80SLPC  H18R 7437   1.894   0.338   4.597  1.2526  1.1496  0.7596
   80SLPC  H18S 7438   1.938   0.163   4.554 -1.9346  0.6173  0.2517
   80SLPC  H18T 7439   2.031   0.256   4.670  0.8633 -1.3637 -2.7260
   80SLPC   C33 7440   1.604   0.958   5.863  0.8636  0.7436  0.3617
   80SLPC   H3X 7441   1.643   1.061   5.859 -1.9408  1.8900  0.4399
   80SLPC   H3Y 7442   1.499   0.964   5.829  0.9567  1.5094  0.1965
   80SLPC   C34 7443   1.675   0.869   5.764  0.1085 -0.2101 -0.0592
   80SLPC   H4X 7444   1.620   0.773   5.756  0.2131 -0.5220  2.2021
   80SLPC   H4Y 7445   1.771   0.843   5.813 -0.6799 -0.6808  1.3101
   80SLPC   C35 7446   1.688   0.933   5.629  0.3778 -0.0022 -0.6438
   80SLPC   H5X 7447   1.702   1.043   5.643 -1.3027  0.5874 -2.9689
   80SLPC   H5Y 7448   1.591   0.929   5.576 -0.5512  3.6694  0.4576
   80SLPC   C36 7449   1.810   0.870   5.563 -0.0591  0.0908  0.2333
   80SLPC   H6X 7450   1.794   0.761   5.553  1.8311 -0.0239 -2.8404
   80SLPC   H6Y 7451   1.890   0.876   5.639  0.3495 -0.9726 -0.0938
   80SLPC   C37 7452   1.838   0.931   5.419 -0.4525 -0.1590 -0.3776
   80SLPC   H7X 7453   1.861   1.039   5.418  2.5918 -0.5751  3.1362
   80SLPC   H7Y 7454   1.743   0.914   5.362 -2.4679 -1.0060  2.9785
   80SLPC   C38 7455   1.955   0.861   5.343  0.2207 -0.0257 -0.3117
   80SLPC   H8X 7456   1.943   0.751   5.348 -0.8841 -0.0799 -2.7489
   80SLPC   H8Y 7457   2.041   0.902   5.400 -1.4223 -0.2868  2.5964
   80SLPC   C39 7458   1.960   0.883   5.195  0.3236 -0.3363  0.1017
   80SLPC   H9X 7459   1.968   0.992   5.177  1.4310 -0.5424 -0.7447
   80SLPC   H9Y 7460   1.866   0.850   5.147  0.7615  0.4723 -1.3757
   80SLPC  C310 7461   2.075   0.822   5.122  0.3055  0.3037  0.5907
   80SLPC  H10X 7462   2.159   0.801   5.192  0.2879 -1.8199  0.0456
   80SLPC  H10Y 7463   2.120   0.898   5.055 -0.2817 -0.3883 -0.6113
   80SLPC  C311 7464   2.041   0.680   5.053  0.2392  0.0608 -0.4642
   80SLPC  H11X 7465   1.936   0.674   5.020 -0.0486  0.3527  0.3686
   80SLPC  H11Y 7466   2.057   0.606   5.135  3.7272  0.4599 -0.6012
   80SLPC  C312 7467   2.135   0.641   4.942 -0.7348  0.0422 -0.1326
   80SLPC  H12X 7468   2.138   0.727   4.871  1.3831  1.5357  1.6054
   80SLPC  H12Y 7469   2.103   0.548   4.891 -0.9643  2.2031 -4.3034
   80SLPC  C313 7470   2.280   0.612   4.996  1.1989 -0.5276  0.1730
   80SLPC  H13X 7471   2.281   0.526   5.066  0.8471 -0.5585  0.1404
   80SLPC  H13Y 7472   2.322   0.695   5.056  1.3892 -0.1602 -0.4554
   80SLPC  C314 7473   2.365   0.574   4.877  0.5512 -0.0300  0.5262
   80SLPC  H14X 7474   2.331   0.607   4.776 -0.0559 -1.7218  0.1566
   80SLPC  H14Y 7475   2.364   0.463   4.871  0.4848  0.0384 -1.9789
   80SLPC  C315 7476   2.514   0.603   4.896  0.2157 -0.0734  0.6291
   80SLPC  H15X 7477   2.560   0.548   4.980 -1.8559 -1.0317  1.2117
   80SLPC  H15Y 7478   2.523   0.712   4.916  1.0056 -0.2922  1.5468
   80SLPC  C316 7479   2.595   0.572   4.768  0.0791 -0.1036  0.0443
   80SLPC  H16X 7480   2.554   0.627   4.681 -1.2090 -0.2197  0.5622
   80SLPC  H16Y 7481   2.582   0.462   4.762  0.5715 -0.1703  0.1565
   80SLPC  C317 7482   2.740   0.618   4.778  0.4743  0.4005 -0.4651
   80SLPC  H17X 7483   2.791   0.594   4.683  1.6343  1.3458 -0.0981
   80SLPC  H17Y 7484   2.785   0.545   4.849 -1.1604 -0.1476  0.0546
   80SLPC  C318 7485   2.771   0.763   4.832 -0.4336  0.0517 -0.0702
   80SLPC  H18X 7486   2.761   0.770   4.943 -0.2650 -1.5263  0.0723
   80SLPC  H18Y 7487   2.692   0.833   4.798  0.0324  0.9263  0.6292
   80SLPC  H18Z 7488   2.867   0.807   4.799 -1.0688 -1.1029 -3.9810
   81SLPC     N 7489   0.116   0.746   2.090  0.4882 -0.3149 -0.0988
   81SLPC   C13 7490   0.045   0.863   2.022  0.5791 -0.1939 -0.1661
   81SLPC  H13A 7491   0.091   0.889   1.929 -2.5834 -1.4282 -2.2724
   81SLPC  H13B 7492  -0.059   0.843   1.999  0.6832  0.6563 -1.4668
   81SLPC  H13C 7493   0.037   0.949   2.086  1.2442 -0.6596  0.5653
   81SLPC   C14 7494   0.254   0.777   2.133 -0.1424  0.2555  0.1097
   81SLPC  H14A 7495   0.322   0.791   2.050  0.0829  2.5146  0.6064
   81SLPC  H14B 7496   0.271   0.850   2.211  3.3923 -2.7847  2.5418
   81SLPC  H14C 7497   0.293   0.688   2.181 -3.2029 -1.3499 -0.1216
   81SLPC   C15 7498   0.134   0.641   1.988  0.3938  0.7267  0.5733
   81SLPC  H15A 7499   0.214   0.662   1.919 -1.3629 -1.3100 -2.3278
   81SLPC  H15B 7500   0.159   0.548   2.036  2.9368  0.9087 -0.2503
   81SLPC  H15C 7501   0.047   0.617   1.928  0.3232 -0.1432  1.0116
   81SLPC   C12 7502   0.027   0.693   2.200  0.0138  0.1856 -0.5638
   81SLPC  H12A 7503  -0.072   0.667   2.167 -0.1823 -0.8282  0.7805
   81SLPC  H12B 7504   0.027   0.765   2.281  2.6791 -1.4225  1.0150
   81SLPC   C11 7505   0.070   0.555   2.273  0.0802 -0.3137 -0.1163
   81SLPC  H11A 7506   0.045   0.554   2.381 -1.5618 -0.0562 -0.4661
   81SLPC  H11B 7507   0.181   0.548   2.267  0.1889 -0.0052  1.2307
   81SLPC     P 7508  -0.116   0.396   2.236 -0.0278  0.2350 -0.2253
   81SLPC   O13 7509  -0.215   0.497   2.200  0.0886 -0.1208 -0.0281
   81SLPC   O14 7510  -0.143   0.264   2.186  0.0502 -0.0281  0.4739
   81SLPC   O12 7511   0.030   0.446   2.205 -0.4431  0.1418  0.2198
   81SLPC   O11 7512  -0.123   0.381   2.389  0.2739  0.5489 -0.9386
   81SLPC    C1 7513  -0.039   0.291   2.467  0.4564 -0.8223  0.1550
   81SLPC    HA 7514  -0.070   0.186   2.447  2.3090 -1.3113 -0.2811
   81SLPC    HB 7515   0.069   0.304   2.447  0.7203 -0.4399  1.7088
   81SLPC    C2 7516  -0.043   0.325   2.620  0.6250 -0.2488 -0.2885
   81SLPC    HS 7517   0.023   0.261   2.683  0.3966  1.1569  1.4814
   81SLPC   O21 7518  -0.176   0.323   2.670  0.1984  0.3253 -0.3924
   81SLPC   C21 7519  -0.211   0.201   2.717 -0.4856 -1.5044  0.1528
   81SLPC   O22 7520  -0.136   0.105   2.727  0.2193  0.5243  0.6252
   81SLPC   C22 7521  -0.360   0.192   2.742 -0.0485 -0.2687  0.4462
   81SLPC   H2R 7522  -0.401   0.293   2.763 -1.1972 -0.7922  0.7507
   81SLPC   H2S 7523  -0.408   0.136   2.658  2.0159 -1.2243 -0.1883
   81SLPC    C3 7524   0.012   0.463   2.654 -0.3945 -0.0792  0.3486
   81SLPC    HX 7525  -0.035   0.544   2.595  2.5566  0.6524 -1.2037
   81SLPC    HY 7526   0.114   0.454   2.612 -0.4972  1.6616 -0.3372
   81SLPC   O31 7527   0.019   0.490   2.793  0.1408 -0.5453  0.3781
   81SLPC   C31 7528  -0.081   0.571   2.838 -0.0631 -0.4845  0.5061
   81SLPC   O32 7529  -0.160   0.632   2.767 -0.9436  0.4041 -0.2983
   81SLPC   C32 7530  -0.073   0.590   2.986  0.2524 -0.1165  0.5976
   81SLPC   H2X 7531   0.021   0.645   3.006  1.3967 -1.1500 -1.6058
   81SLPC   H2Y 7532  -0.062   0.490   3.035 -1.5232 -0.9328 -0.5658
   81SLPC   C23 7533  -0.388   0.112   2.870  0.1649  0.0655  0.8163
   81SLPC   H3R 7534  -0.327   0.020   2.880 -0.1474 -0.1956  0.3223
   81SLPC   H3S 7535  -0.486   0.066   2.845 -0.0685  1.4974 -1.1949
   81SLPC   C24 7536  -0.407   0.197   2.991 -0.4378  0.1193  0.1742
   81SLPC   H4R 7537  -0.488   0.270   2.968 -1.1075 -1.4340 -3.0211
   81SLPC   H4S 7538  -0.317   0.262   3.002 -0.3520  0.0884 -0.3299
   81SLPC   C25 7539  -0.438   0.114   3.120  0.1503  0.1397  0.3212
   81SLPC   H5R 7540  -0.523   0.050   3.088  1.2814 -0.3453 -1.9522
   81SLPC   H5S 7541  -0.469   0.195   3.189  0.9260 -0.5822  1.5603
   81SLPC   C26 7542  -0.329   0.027   3.184  0.1753 -1.1848 -0.1371
   81SLPC   H6R 7543  -0.291  -0.042   3.105  3.9340  1.6346 -1.0966
   81SLPC   H6S 7544  -0.385  -0.037   3.256 -0.1046  0.3758  1.0867
   81SLPC   C27 7545  -0.225   0.109   3.268 -0.1220 -0.1395 -0.2040
   81SLPC   H7R 7546  -0.289   0.175   3.331  0.1082  0.1764 -0.2980
   81SLPC   H7S 7547  -0.163   0.173   3.201 -0.4910 -0.5179 -0.9279
   81SLPC   C28 7548  -0.153   0.012   3.366 -0.0631 -0.1852  0.2950
   81SLPC   H8R 7549  -0.124  -0.071   3.298 -0.2264 -0.9515  1.1383
   81SLPC   H8S 7550  -0.229  -0.024   3.439 -1.1648  3.2101  0.9994
   81SLPC   C29 7551  -0.031   0.073   3.430 -0.1176 -0.3407 -0.2181
   81SLPC   H9R 7552   0.024   0.139   3.361  0.8698 -1.6233 -0.7133
   81SLPC  C210 7553   0.011   0.060   3.558 -0.2443 -0.5597  0.0596
   81SLPC  H10R 7554   0.096   0.119   3.595 -0.7035 -0.0807  0.3534
   81SLPC  C211 7555  -0.040  -0.040   3.660 -0.0827  0.6107  0.2793
   81SLPC  H11R 7556  -0.142  -0.015   3.695  0.0212  2.3371 -0.5823
   81SLPC  H11S 7557   0.023  -0.015   3.748 -0.0045 -2.3177  1.1772
   81SLPC  C212 7558  -0.040  -0.191   3.633  0.0661  0.4019 -0.3573
   81SLPC  H12R 7559  -0.048  -0.227   3.529 -1.0199 -3.6359  0.9129
   81SLPC  C213 7560  -0.045  -0.283   3.726 -0.2219  0.8257  0.7327
   81SLPC  H13R 7561  -0.029  -0.387   3.693  1.5416  1.9387 -2.3312
   81SLPC  C214 7562  -0.055  -0.255   3.876  0.6931 -0.4968  0.0822
   81SLPC  H14R 7563  -0.158  -0.276   3.909  0.8467 -2.0657 -0.3761
   81SLPC  H14S 7564  -0.041  -0.146   3.890  1.4852  0.1200 -4.0352
   81SLPC  C215 7565   0.038  -0.335   3.965 -0.1901  0.7167 -0.6202
   81SLPC  H15R 7566   0.146  -0.316   3.949  0.1832 -1.4087 -0.9481
   81SLPC  H15S 7567   0.017  -0.444   3.956 -1.2417  0.8442  0.0212
   81SLPC  C216 7568  -0.003  -0.306   4.115 -0.0198 -0.5570  0.0935
   81SLPC  H16R 7569  -0.113  -0.320   4.121 -0.0537 -2.2357 -2.5047
   81SLPC  H16S 7570   0.025  -0.200   4.128  0.5821 -0.6294 -0.5061
   81SLPC  C217 7571   0.071  -0.382   4.216  0.2059  0.2868 -1.0944
   81SLPC  H17R 7572   0.178  -0.400   4.190  0.3730  0.0322 -0.2676
   81SLPC  H17S 7573   0.027  -0.484   4.213 -2.2899  1.2283  0.1163
   81SLPC  C218 7574   0.055  -0.329   4.364  0.4016  0.4506  0.0357
   81SLPC  H18R 7575   0.057  -0.218   4.362  1.5654  0.4536  0.8127
   81SLPC  H18S 7576   0.147  -0.354   4.420  1.6287  0.0176 -2.0642
   81SLPC  H18T 7577  -0.043  -0.366   4.402  1.9275 -2.1638  1.7565
   81SLPC   C33 7578  -0.193   0.647   3.054 -0.5319  0.1148  0.6839
   81SLPC   H3X 7579  -0.269   0.567   3.061 -0.9525  0.4781  0.3569
   81SLPC   H3Y 7580  -0.246   0.731   3.004  0.0236  0.2303  0.2769
   81SLPC   C34 7581  -0.166   0.694   3.203  0.0758 -0.3897 -0.0212
   81SLPC   H4X 7582  -0.267   0.729   3.234  0.5917  1.5366 -0.4061
   81SLPC   H4Y 7583  -0.113   0.791   3.212 -0.1953 -0.1073 -1.2254
   81SLPC   C35 7584  -0.099   0.589   3.295 -0.8077  0.3416 -0.0565
   81SLPC   H5X 7585   0.007   0.622   3.296 -0.4310 -0.7802  1.2986
   81SLPC   H5Y 7586  -0.105   0.487   3.252  2.0680 -0.2253  0.7118
   81SLPC   C36 7587  -0.138   0.590   3.443  0.4493 -0.3750 -0.3926
   81SLPC   H6X 7588  -0.244   0.619   3.457  0.7997  0.2732  1.1868
   81SLPC   H6Y 7589  -0.079   0.667   3.497  0.4799 -0.7836  0.1694
   81SLPC   C37 7590  -0.126   0.449   3.508  0.3023  0.1627  0.2886
   81SLPC   H7X 7591  -0.021   0.426   3.482 -0.4051 -0.8118 -2.0221
   81SLPC   H7Y 7592  -0.203   0.389   3.454  0.1880 -0.1132  0.7512
   81SLPC   C38 7593  -0.151   0.461   3.652 -0.7198  0.3312 -0.1517
   81SLPC   H8X 7594  -0.258   0.458   3.678 -0.0266 -2.4971  3.0365
   81SLPC   H8Y 7595  -0.117   0.560   3.689  0.0663 -0.3985  1.1458
   81SLPC   C39 7596  -0.081   0.357   3.741  0.6862  0.0657  0.2559
   81SLPC   H9X 7597   0.030   0.367   3.747  0.4186  2.5989  3.4742
   81SLPC   H9Y 7598  -0.106   0.256   3.701 -1.7179  1.5373 -2.3064
   81SLPC  C310 7599  -0.131   0.366   3.890 -0.0441 -0.3777  0.2052
   81SLPC  H10X 7600  -0.241   0.351   3.889 -0.4878  1.5317  3.3454
   81SLPC  H10Y 7601  -0.102   0.454   3.952 -1.9635 -0.5728  1.4576
   81SLPC  C311 7602  -0.071   0.254   3.976  0.2111  0.7525 -0.2188
   81SLPC  H11X 7603  -0.113   0.154   3.951 -2.9962  1.8926  0.0939
   81SLPC  H11Y 7604  -0.104   0.280   4.079  0.0985  1.9285 -0.5321
   81SLPC  C312 7605   0.080   0.248   3.986 -0.4612  0.0021 -0.0043
   81SLPC  H12X 7606   0.128   0.339   4.029  0.0805 -1.1994  2.1024
   81SLPC  H12Y 7607   0.119   0.221   3.886 -1.1672 -2.3731  0.3048
   81SLPC  C313 7608   0.131   0.124   4.068 -0.3059  0.0207  0.1959
   81SLPC  H13X 7609   0.071   0.047   4.015  0.9645  0.0623 -1.3866
   81SLPC  H13Y 7610   0.097   0.134   4.173 -1.1184 -0.9596  0.0429
   81SLPC  C314 7611   0.280   0.099   4.039  0.0034 -0.3282  0.6826
   81SLPC  H14X 7612   0.339   0.186   4.075 -0.4611 -0.0273  0.7101
   81SLPC  H14Y 7613   0.277   0.087   3.929  2.3350 -1.4373  0.6751
   81SLPC  C315 7614   0.331  -0.023   4.116  0.0085 -0.3709 -0.2044
   81SLPC  H15X 7615   0.280  -0.117   4.086  2.3731 -2.1261  0.9467
   81SLPC  H15Y 7616   0.316  -0.012   4.226 -0.4742  2.6428 -0.4784
   81SLPC  C316 7617   0.481  -0.036   4.096  0.2087  0.0491  0.1268
   81SLPC  H16X 7618   0.519  -0.004   3.997  1.0925 -0.6718  0.2129
   81SLPC  H16Y 7619   0.507  -0.144   4.102 -0.0738 -0.2008 -2.3067
   81SLPC  C317 7620   0.558   0.047   4.202 -0.1000  0.0736 -0.5899
   81SLPC  H17X 7621   0.528   0.025   4.307  1.3856 -1.2705 -0.4190
   81SLPC  H17Y 7622   0.541   0.155   4.180  0.6561  0.3593  0.1727
   81SLPC  C318 7623   0.706   0.021   4.184  1.1597 -0.2731  0.1650
   81SLPC  H18X 7624   0.768   0.061   4.267 -0.4678  1.6391  0.5324
   81SLPC  H18Y 7625   0.742   0.080   4.096  0.2032  1.7174  1.0487
   81SLPC  H18Z 7626   0.737  -0.086   4.181  0.4034 -0.6636  3.3808
   82SLPC     N 7627   1.281   0.925   1.960 -0.1914 -0.1139  1.0184
   82SLPC   C13 7628   1.140   0.882   1.906 -0.0540 -0.3893 -0.3449
   82SLPC  H13A 7629   1.062   0.944   1.948  1.2526  0.2187  1.3249
   82SLPC  H13B 7630   1.143   0.894   1.799 -3.1701  1.5648 -0.3222
   82SLPC  H13C 7631   1.123   0.778   1.926 -0.7926  0.2831  3.1813
   82SLPC   C14 7632   1.280   1.068   1.967  0.4321 -0.3155  0.2043
   82SLPC  H14A 7633   1.256   1.113   1.872  3.0589  2.9397  0.8936
   82SLPC  H14B 7634   1.207   1.107   2.037  0.6442  1.1106 -0.3318
   82SLPC  H14C 7635   1.376   1.109   1.996  0.4698 -0.5707  0.4544
   82SLPC   C15 7636   1.373   0.887   1.855 -0.4432  0.1228  0.1864
   82SLPC  H15A 7637   1.383   0.780   1.841  4.8250  0.5642 -1.8305
   82SLPC  H15B 7638   1.337   0.927   1.761 -0.3612  0.5015  0.3149
   82SLPC  H15C 7639   1.473   0.923   1.876 -0.0048 -0.9503  0.0302
   82SLPC   C12 7640   1.303   0.864   2.099 -0.1863  0.6041  0.1004
   82SLPC  H12A 7641   1.286   0.758   2.103  1.8375  0.1662 -1.4046
   82SLPC  H12B 7642   1.238   0.909   2.172  0.1634  3.0554 -0.9949
   82SLPC   C11 7643   1.439   0.895   2.165  0.1676 -0.0750  0.1893
   82SLPC  H11A 7644   1.442   0.845   2.264  2.4130  0.8799  0.6849
   82SLPC  H11B 7645   1.441   1.005   2.184  0.0483 -0.1738  0.7731
   82SLPC     P 7646   1.604   0.708   2.107  0.1993  0.4936 -0.0675
   82SLPC   O13 7647   1.494   0.615   2.148 -0.0557  0.1628 -0.9038
   82SLPC   O14 7648   1.687   0.687   1.984 -0.3197  0.4287  0.2580
   82SLPC   O12 7649   1.549   0.845   2.084 -0.0920 -0.0204 -0.1049
   82SLPC   O11 7650   1.697   0.731   2.236 -0.3234  0.5243  0.2786
   82SLPC    C1 7651   1.781   0.625   2.276 -0.0825 -0.6583 -0.0391
   82SLPC    HA 7652   1.734   0.528   2.252 -0.7974 -0.5114  0.6824
   82SLPC    HB 7653   1.870   0.645   2.214  1.2803 -1.2956  1.6204
   82SLPC    C2 7654   1.814   0.622   2.428 -0.0389 -0.1131  0.7847
   82SLPC    HS 7655   1.725   0.582   2.480 -1.6521  3.0128  0.6283
   82SLPC   O21 7656   1.844   0.752   2.484 -0.3739 -0.0606 -0.3656
   82SLPC   C21 7657   1.730   0.817   2.527  0.0840  0.3888  0.1080
   82SLPC   O22 7658   1.617   0.766   2.543  0.4009 -0.0135  0.0884
   82SLPC   C22 7659   1.763   0.963   2.544 -0.1522  0.0226 -0.5405
   82SLPC   H2R 7660   1.874   0.976   2.542 -0.2022  0.9642  1.0793
   82SLPC   H2S 7661   1.723   1.007   2.450  2.2306  0.6725 -1.3211
   82SLPC    C3 7662   1.933   0.518   2.449 -0.4572 -0.3968 -0.4865
   82SLPC    HX 7663   2.024   0.549   2.394  0.1198 -0.1963  0.5517
   82SLPC    HY 7664   1.896   0.426   2.401  0.2642 -1.4979  0.9764
   82SLPC   O31 7665   1.949   0.507   2.588 -0.1231  0.0224  0.0705
   82SLPC   C31 7666   2.027   0.594   2.650  0.1889 -0.2870  0.0297
   82SLPC   O32 7667   2.110   0.662   2.593 -0.8284  0.1775 -0.0082
   82SLPC   C32 7668   2.000   0.609   2.800  0.1306  0.5008  0.1262
   82SLPC   H2X 7669   2.028   0.515   2.853 -1.3219  0.2733  0.5272
   82SLPC   H2Y 7670   1.890   0.621   2.807 -0.1497 -1.3906 -0.4591
   82SLPC   C23 7671   1.692   1.026   2.671  0.3441 -0.4097  0.8623
   82SLPC   H3R 7672   1.584   1.003   2.682 -0.8419  2.3980 -2.8644
   82SLPC   H3S 7673   1.700   1.137   2.666 -2.8541  0.1031  3.5504
   82SLPC   C24 7674   1.764   0.979   2.800  0.7867 -0.0451 -0.5055
   82SLPC   H4R 7675   1.872   0.996   2.779  0.3912  1.3712 -1.5336
   82SLPC   H4S 7676   1.758   0.870   2.816 -1.5344 -0.4458 -3.3742
   82SLPC   C25 7677   1.725   1.055   2.925 -0.7639  0.1260 -0.8548
   82SLPC   H5R 7678   1.616   1.071   2.942 -0.3135  0.5910  2.2440
   82SLPC   H5S 7679   1.769   1.155   2.908 -1.4542  0.4711 -0.6419
   82SLPC   C26 7680   1.774   0.993   3.056 -0.1060  0.2342 -0.0177
   82SLPC   H6R 7681   1.881   0.964   3.051 -0.2554 -0.1764 -1.3902
   82SLPC   H6S 7682   1.715   0.898   3.062  0.0215 -0.1230 -2.9965
   82SLPC   C27 7683   1.763   1.097   3.173  0.2148 -0.8136 -0.2659
   82SLPC   H7R 7684   1.838   1.177   3.157  0.8869 -1.5045 -0.6370
   82SLPC   H7S 7685   1.797   1.035   3.259  1.2440 -0.7856 -0.6422
   82SLPC   C28 7686   1.623   1.151   3.199 -0.4377 -0.7363 -0.2939
   82SLPC   H8R 7687   1.545   1.073   3.216 -0.3549 -0.3926  2.0356
   82SLPC   H8S 7688   1.596   1.215   3.112  1.0711 -2.3310 -2.0350
   82SLPC   C29 7689   1.625   1.235   3.323 -0.1815  0.4980 -0.0988
   82SLPC   H9R 7690   1.671   1.335   3.321 -1.6122  1.2827  2.0573
   82SLPC  C210 7691   1.571   1.198   3.437 -0.0281  0.4032  0.3321
   82SLPC  H10R 7692   1.577   1.269   3.521  0.7494  1.3812 -0.5286
   82SLPC  C211 7693   1.494   1.073   3.477  0.3226 -0.2238 -0.1009
   82SLPC  H11R 7694   1.475   1.012   3.386 -0.1135 -1.4521  0.7920
   82SLPC  H11S 7695   1.397   1.099   3.526  0.2724 -1.3139  0.4023
   82SLPC  C212 7696   1.574   0.976   3.562 -0.1541 -0.7842  0.1627
   82SLPC  H12R 7697   1.653   0.918   3.511  2.8225  1.3072  2.0516
   82SLPC  C213 7698   1.559   0.955   3.691 -0.3833  0.4296  0.4755
   82SLPC  H13R 7699   1.628   0.884   3.738  1.1188  0.8711 -0.9643
   82SLPC  C214 7700   1.457   1.017   3.788  0.0811  0.2254 -0.4091
   82SLPC  H14R 7701   1.361   1.013   3.732  1.2381 -0.4149 -2.4287
   82SLPC  H14S 7702   1.481   1.123   3.807  0.7480 -0.1000  0.6241
   82SLPC  C215 7703   1.440   0.947   3.923  0.4865 -0.0351  0.0016
   82SLPC  H15R 7704   1.398   0.844   3.931  1.0939 -0.1779  1.7903
   82SLPC  H15S 7705   1.351   0.988   3.975 -1.5562 -0.8364 -2.6327
   82SLPC  C216 7706   1.566   0.942   4.011  0.1510  0.1410  0.7219
   82SLPC  H16R 7707   1.608   1.039   4.043  3.6954 -1.3623  1.1035
   82SLPC  H16S 7708   1.656   0.901   3.961  0.8122  1.3322  0.9070
   82SLPC  C217 7709   1.548   0.857   4.143 -0.0055 -0.2509  0.0738
   82SLPC  H17R 7710   1.446   0.869   4.185  1.0535  2.4041  2.2098
   82SLPC  H17S 7711   1.615   0.901   4.220  1.4132 -1.5051 -0.3923
   82SLPC  C218 7712   1.581   0.708   4.144  0.2660  0.0982  0.1969
   82SLPC  H18R 7713   1.510   0.651   4.081  0.3195 -0.4822  0.6457
   82SLPC  H18S 7714   1.570   0.665   4.246 -2.5063 -1.3314 -0.5996
   82SLPC  H18T 7715   1.686   0.702   4.109  0.5083 -0.9541  1.0335
   82SLPC   C33 7716   2.089   0.713   2.867  0.2256  0.4111  0.3248
   82SLPC   H3X 7717   2.034   0.809   2.872 -1.4790 -0.5843  2.0028
   82SLPC   H3Y 7718   2.187   0.732   2.818  0.5984 -0.5478  0.6872
   82SLPC   C34 7719   2.116   0.678   3.020  0.1901 -0.0468  0.6129
   82SLPC   H4X 7720   2.188   0.747   3.069 -0.1557 -0.8371  2.3137
   82SLPC   H4Y 7721   2.158   0.575   3.018 -0.5049 -0.3255 -0.1761
   82SLPC   C35 7722   1.986   0.679   3.108 -0.4448  0.5473  0.1929
   82SLPC   H5X 7723   1.918   0.599   3.071 -1.1613  1.4611 -0.5047
   82SLPC   H5Y 7724   1.925   0.772   3.102  0.2077  1.0039  0.5491
   82SLPC   C36 7725   2.028   0.659   3.250 -0.2638 -0.4096 -0.2780
   82SLPC   H6X 7726   2.109   0.732   3.272 -1.7146  0.6982  1.6637
   82SLPC   H6Y 7727   2.072   0.558   3.267  0.7541 -0.0507 -0.6930
   82SLPC   C37 7728   1.911   0.691   3.348  0.2859 -0.1030 -0.3242
   82SLPC   H7X 7729   1.821   0.629   3.327 -1.8478  2.6179  0.1798
   82SLPC   H7Y 7730   1.873   0.795   3.337  2.8288  1.0354  0.9314
   82SLPC   C38 7731   1.960   0.681   3.497 -0.0985  0.0028 -0.3016
   82SLPC   H8X 7732   2.053   0.742   3.508 -0.8101  1.0208  0.1784
   82SLPC   H8Y 7733   2.002   0.578   3.504 -1.3357 -0.6039 -1.2954
   82SLPC   C39 7734   1.850   0.701   3.604  0.2094  0.3235 -0.0200
   82SLPC   H9X 7735   1.782   0.616   3.583 -0.8385  1.2743 -0.6282
   82SLPC   H9Y 7736   1.780   0.785   3.582 -0.3490 -0.1485 -0.0520
   82SLPC  C310 7737   1.895   0.684   3.744  0.5272 -0.3436 -0.3891
   82SLPC  H10X 7738   1.968   0.601   3.754  0.6090 -0.2133  0.1122
   82SLPC  H10Y 7739   1.808   0.675   3.813  1.3604  4.2540  1.6261
   82SLPC  C311 7740   1.971   0.804   3.784  0.0563 -0.2509 -0.6404
   82SLPC  H11X 7741   1.892   0.882   3.782 -0.8208 -1.1136 -0.4570
   82SLPC  H11Y 7742   2.059   0.827   3.721  0.0993  0.1851 -0.4253
   82SLPC  C312 7743   2.024   0.778   3.931 -0.0305  0.5974 -0.2590
   82SLPC  H12X 7744   2.103   0.701   3.920 -0.3560  0.3844 -1.1578
   82SLPC  H12Y 7745   1.945   0.736   3.997 -0.3254  0.3937 -0.7338
   82SLPC  C313 7746   2.087   0.899   3.993 -0.6426  0.2138 -0.3945
   82SLPC  H13X 7747   2.143   0.958   3.918 -1.8311 -0.3556 -1.7735
   82SLPC  H13Y 7748   2.153   0.859   4.073  0.3595 -2.2433 -2.3477
   82SLPC  C314 7749   1.981   0.992   4.057 -0.0343  0.2428  0.0984
   82SLPC  H14X 7750   1.882   0.995   4.007 -1.0757  1.2899  2.0864
   82SLPC  H14Y 7751   2.016   1.093   4.027 -0.2735  0.4952  0.6608
   82SLPC  C315 7752   1.950   0.990   4.206 -0.1049  1.1532  0.2596
   82SLPC  H15X 7753   2.033   0.992   4.278 -0.2944  1.3599  0.4761
   82SLPC  H15Y 7754   1.883   0.905   4.230  0.1898  0.9118  0.2182
   82SLPC  C316 7755   1.867   1.105   4.253 -0.2399 -0.2097  0.0268
   82SLPC  H16X 7756   1.777   1.097   4.189  0.5655  0.3544 -1.2228
   82SLPC  H16Y 7757   1.927   1.190   4.214  0.5363 -1.2248 -1.0698
   82SLPC  C317 7758   1.825   1.114   4.398 -0.0778 -0.1789  0.5380
   82SLPC  H17X 7759   1.928   1.108   4.441  0.2231 -2.9044 -0.3833
   82SLPC  H17Y 7760   1.753   1.037   4.433  0.4433 -1.0778 -0.3065
   82SLPC  C318 7761   1.778   1.250   4.437  0.1622  0.2595 -0.1483
   82SLPC  H18X 7762   1.866   1.315   4.422  0.7544  0.3184  2.9409
   82SLPC  H18Y 7763   1.751   1.243   4.545 -1.6561 -4.1640 -0.6439
   82SLPC  H18Z 7764   1.689   1.278   4.378  0.8329 -1.2661 -1.9875
   83SLPC     N 7765   5.030   6.448   2.289 -0.2634 -0.1677 -0.3971
   83SLPC   C13 7766   5.019   6.586   2.352  0.0791  0.1611 -0.1364
   83SLPC  H13A 7767   5.082   6.655   2.297  0.1055  2.8973  3.0472
   83SLPC  H13B 7768   4.916   6.619   2.354 -0.6714 -1.5810 -3.0548
   83SLPC  H13C 7769   5.061   6.583   2.451  1.9956  0.1073 -0.9034
   83SLPC   C14 7770   5.172   6.417   2.290 -0.1378  0.7132  0.6418
   83SLPC  H14A 7771   5.213   6.394   2.387 -0.0045 -2.8859 -0.1307
   83SLPC  H14B 7772   5.196   6.345   2.214  0.0894 -1.1643  2.3968
   83SLPC  H14C 7773   5.226   6.503   2.254 -1.0838  1.9953  2.1252
   83SLPC   C15 7774   4.979   6.434   2.151 -0.1643  0.4640 -0.5877
   83SLPC  H15A 7775   5.016   6.338   2.120  0.2056  0.1663  0.7018
   83SLPC  H15B 7776   4.872   6.422   2.159  0.2528 -3.0285  3.3444
   83SLPC  H15C 7777   5.012   6.514   2.087  0.0417  0.2641 -0.7309
   83SLPC   C12 7778   4.956   6.354   2.386  0.4745  0.2469 -0.4450
   83SLPC  H12A 7779   4.998   6.378   2.483  1.8214  0.7111 -1.1121
   83SLPC  H12B 7780   4.985   6.254   2.356  0.3898 -0.6281  2.1127
   83SLPC   C11 7781   4.804   6.368   2.375 -0.0359  0.3872  0.2163
   83SLPC  H11A 7782   4.767   6.469   2.350 -0.4844 -0.3366 -2.3450
   83SLPC  H11B 7783   4.756   6.341   2.471  1.3322 -1.5576  0.4340
   83SLPC     P 7784   4.772   6.129   2.244 -0.2169  0.5629  0.0231
   83SLPC   O13 7785   4.651   6.089   2.171 -0.2222 -0.3106  0.4151
   83SLPC   O14 7786   4.909   6.112   2.189  0.3185  0.4501  0.0551
   83SLPC   O12 7787   4.753   6.288   2.271  0.0040 -0.1100  0.6511
   83SLPC   O11 7788   4.763   6.071   2.396  0.1438 -0.3465  0.1606
   83SLPC    C1 7789   4.791   5.934   2.424 -0.2449  0.1849 -0.0547
   83SLPC    HA 7790   4.703   5.884   2.470 -1.8814  1.8144 -1.2882
   83SLPC    HB 7791   4.824   5.882   2.332  2.1778 -1.6575  1.6932
   83SLPC    C2 7792   4.908   5.920   2.531 -0.1423  0.4161 -1.0130
   83SLPC    HS 7793   4.900   5.813   2.560 -1.0336  1.1173  1.6050
   83SLPC   O21 7794   4.901   6.016   2.633  0.7716 -0.0805  0.3051
   83SLPC   C21 7795   4.794   6.016   2.711  0.3621  0.1039 -0.0445
   83SLPC   O22 7796   4.700   5.939   2.717  0.1076 -0.8291 -0.1510
   83SLPC   C22 7797   4.814   6.126   2.821  0.1161 -0.4095  0.8222
   83SLPC   H2R 7798   4.878   6.078   2.898  1.2401 -1.4363 -0.6955
   83SLPC   H2S 7799   4.867   6.218   2.787 -0.7427 -0.3066 -0.2951
   83SLPC    C3 7800   5.042   5.936   2.466  0.3808  0.2884 -0.3858
   83SLPC    HX 7801   5.043   6.024   2.398  1.6587 -0.2989 -1.1535
   83SLPC    HY 7802   5.053   5.853   2.392 -0.6903 -0.5562  0.3702
   83SLPC   O31 7803   5.150   5.939   2.566  0.0973  0.0712 -0.4565
   83SLPC   C31 7804   5.196   6.055   2.602 -0.1552  0.6573  0.3639
   83SLPC   O32 7805   5.196   6.157   2.532 -0.0801  0.4352 -0.2877
   83SLPC   C32 7806   5.273   6.044   2.736 -1.1365  0.0187  0.2351
   83SLPC   H2X 7807   5.319   5.943   2.737 -2.1227 -0.5325 -2.0945
   83SLPC   H2Y 7808   5.203   6.043   2.822 -1.3978 -1.4805  0.0338
   83SLPC   C23 7809   4.681   6.163   2.903  0.4863 -0.1971 -0.4893
   83SLPC   H3R 7810   4.625   6.068   2.916 -0.5930  0.3271 -1.1466
   83SLPC   H3S 7811   4.617   6.223   2.835 -0.3768  0.8870  1.2190
   83SLPC   C24 7812   4.695   6.245   3.035  1.5950  0.0462 -0.2178
   83SLPC   H4R 7813   4.780   6.314   3.015  1.0074  0.3206 -1.9216
   83SLPC   H4S 7814   4.728   6.167   3.106 -0.1301 -2.1255 -1.6838
   83SLPC   C25 7815   4.577   6.330   3.093  0.2547 -0.0396  0.5044
   83SLPC   H5R 7816   4.520   6.265   3.162  0.8232  0.5526  1.5647
   83SLPC   H5S 7817   4.514   6.365   3.008 -0.1472  1.1175  1.2571
   83SLPC   C26 7818   4.607   6.469   3.165  0.5185 -0.2684 -0.2543
   83SLPC   H6R 7819   4.666   6.532   3.094  1.5231 -0.4610  0.3946
   83SLPC   H6S 7820   4.659   6.452   3.261 -2.4057  0.2890  1.5220
   83SLPC   C27 7821   4.472   6.539   3.201 -0.2603 -0.3968  0.0217
   83SLPC   H7R 7822   4.396   6.458   3.205 -2.0683  1.2006 -0.3480
   83SLPC   H7S 7823   4.454   6.598   3.108  0.9525 -1.7970 -1.1443
   83SLPC   C28 7824   4.477   6.620   3.330 -0.4983 -0.8249 -0.3406
   83SLPC   H8R 7825   4.540   6.549   3.389 -0.0793  0.5365  0.9123
   83SLPC   H8S 7826   4.379   6.639   3.378 -0.2278  1.7366 -0.7010
   83SLPC   C29 7827   4.538   6.758   3.312  1.0772 -0.2534  0.2343
   83SLPC   H9R 7828   4.468   6.833   3.275 -0.1347 -2.1479 -1.4850
   83SLPC  C210 7829   4.664   6.804   3.340  0.9737  0.1423  0.3577
   83SLPC  H10R 7830   4.685   6.912   3.336  0.1368  0.2999  0.1825
   83SLPC  C211 7831   4.776   6.721   3.402  0.5547 -0.4174  0.2702
   83SLPC  H11R 7832   4.870   6.779   3.389  0.8373 -0.9984 -0.3824
   83SLPC  H11S 7833   4.792   6.634   3.334  1.3051 -0.2655  0.2421
   83SLPC  C212 7834   4.757   6.677   3.543 -0.4683 -0.5405  0.8943
   83SLPC  H12R 7835   4.721   6.756   3.611  0.6309 -0.5845  1.5402
   83SLPC  C213 7836   4.783   6.561   3.603  0.2290  0.3250  0.3902
   83SLPC  H13R 7837   4.748   6.558   3.707  2.2482  0.6360  1.1184
   83SLPC  C214 7838   4.832   6.427   3.544  1.2077  0.1824 -0.9553
   83SLPC  H14R 7839   4.776   6.417   3.448 -0.5360  1.5272 -0.1250
   83SLPC  H14S 7840   4.784   6.349   3.607 -2.4898  2.4221 -0.6932
   83SLPC  C215 7841   4.985   6.409   3.522  0.1765  0.6026  0.2153
   83SLPC  H15R 7842   5.025   6.393   3.624  0.0842  2.0835  0.5090
   83SLPC  H15S 7843   5.038   6.498   3.481  2.0251 -0.2441  0.6364
   83SLPC  C216 7844   5.015   6.286   3.431  0.1547 -0.1793 -0.2056
   83SLPC  H16R 7845   4.971   6.201   3.488  0.9109 -1.3607 -1.3313
   83SLPC  H16S 7846   5.124   6.282   3.407  0.3221  0.6280  0.3716
   83SLPC  C217 7847   4.952   6.294   3.293  0.5520  0.2892 -0.2965
   83SLPC  H17R 7848   4.889   6.386   3.285 -1.3908 -0.9763 -0.1533
   83SLPC  H17S 7849   4.873   6.217   3.293  0.9423 -0.1298  0.8159
   83SLPC  C218 7850   5.048   6.279   3.175  0.6456 -0.3206 -0.0764
   83SLPC  H18R 7851   4.986   6.286   3.083 -0.0608  0.0106  0.4147
   83SLPC  H18S 7852   5.111   6.188   3.184  2.8955  1.1531 -0.1719
   83SLPC  H18T 7853   5.124   6.360   3.175 -1.6394  2.0646  3.1121
   83SLPC   C33 7854   5.381   6.153   2.748 -0.2250  0.1342  0.1280
   83SLPC   H3X 7855   5.333   6.253   2.738  0.4480  0.4853  0.2847
   83SLPC   H3Y 7856   5.459   6.145   2.670 -0.2329 -0.2737  0.1590
   83SLPC   C34 7857   5.451   6.143   2.882  0.2837  0.3439  0.8791
   83SLPC   H4X 7858   5.484   6.038   2.898 -0.2177 -0.6326 -3.2873
   83SLPC   H4Y 7859   5.372   6.170   2.954  1.1667 -0.0758  2.0338
   83SLPC   C35 7860   5.577   6.230   2.896  0.5510 -0.2663 -0.3388
   83SLPC   H5X 7861   5.567   6.328   2.844 -0.0836  0.6991  1.5151
   83SLPC   H5Y 7862   5.656   6.185   2.833 -0.3177 -1.5016 -0.5876
   83SLPC   C36 7863   5.645   6.244   3.027  0.1057 -0.4024 -0.4529
   83SLPC   H6X 7864   5.738   6.306   3.021  0.5778 -1.1487 -0.9641
   83SLPC   H6Y 7865   5.683   6.145   3.059 -0.7809  0.2826  3.1916
   83SLPC   C37 7866   5.555   6.282   3.149  0.3393  0.7452  0.3851
   83SLPC   H7X 7867   5.485   6.196   3.155  2.0531 -0.7667 -0.3411
   83SLPC   H7Y 7868   5.512   6.383   3.131  0.8246  1.0632  0.9984
   83SLPC   C38 7869   5.624   6.276   3.285 -0.2591  0.4411  0.4820
   83SLPC   H8X 7870   5.713   6.339   3.266  0.2335 -1.0271 -2.8698
   83SLPC   H8Y 7871   5.657   6.170   3.299 -0.1632  0.8397  3.9604
   83SLPC   C39 7872   5.535   6.321   3.395  0.4298  0.3920 -0.2885
   83SLPC   H9X 7873   5.496   6.421   3.365 -0.8853 -0.1762 -0.5630
   83SLPC   H9Y 7874   5.606   6.346   3.477  0.7311  0.6337 -0.6196
   83SLPC  C310 7875   5.423   6.222   3.438  0.1902  0.2816  0.3045
   83SLPC  H10X 7876   5.379   6.173   3.348 -5.0882  0.9152  2.1858
   83SLPC  H10Y 7877   5.346   6.280   3.494 -1.3467 -0.1689 -1.2572
   83SLPC  C311 7878   5.483   6.119   3.537  0.0473  0.3535 -0.5607
   83SLPC  H11X 7879   5.570   6.060   3.503  0.8410 -0.7157  2.9486
   83SLPC  H11Y 7880   5.407   6.041   3.561 -0.5765  1.1662  0.2147
   83SLPC  C312 7881   5.494   6.162   3.686 -0.8116 -0.4777  0.6329
   83SLPC  H12X 7882   5.396   6.151   3.737 -0.8606 -2.3945  0.1764
   83SLPC  H12Y 7883   5.534   6.266   3.676  0.6755 -1.0509  0.3792
   83SLPC  C313 7884   5.592   6.091   3.784 -0.2516  0.5423  0.1447
   83SLPC  H13X 7885   5.686   6.066   3.730 -0.5654 -1.1937  0.3603
   83SLPC  H13Y 7886   5.562   5.993   3.825 -0.5346 -0.4862 -2.3515
   83SLPC  C314 7887   5.647   6.182   3.897  0.0066 -0.3389  0.9601
   83SLPC  H14X 7888   5.663   6.278   3.842  0.7347 -1.2853 -0.5548
   83SLPC  H14Y 7889   5.739   6.149   3.949  0.6094  1.6454  1.2427
   83SLPC  C315 7890   5.541   6.212   4.003  0.1824 -0.5299  0.2073
   83SLPC  H15X 7891   5.528   6.121   4.066 -1.1842 -1.5569 -1.4594
   83SLPC  H15Y 7892   5.435   6.230   3.975  0.6667  0.9565 -0.7976
   83SLPC  C316 7893   5.590   6.325   4.095  0.2056  0.2249 -0.9459
   83SLPC  H16X 7894   5.581   6.421   4.040  1.9913  1.0367  0.0813
   83SLPC  H16Y 7895   5.700   6.328   4.110  0.5331  1.0863 -3.1230
   83SLPC  C317 7896   5.518   6.322   4.230  0.1256  0.0577  0.5857
   83SLPC  H17X 7897   5.523   6.224   4.280  0.4157  0.5322  1.5121
   83SLPC  H17Y 7898   5.409   6.337   4.221 -0.1899 -2.0703  0.5018
   83SLPC  C318 7899   5.586   6.422   4.326  0.3715  0.8900 -0.3117
   83SLPC  H18X 7900   5.596   6.517   4.269  0.1843 -0.4415 -2.6579
   83SLPC  H18Y 7901   5.685   6.376   4.346 -0.7917 -0.9234  1.7046
   83SLPC  H18Z 7902   5.531   6.432   4.422  2.7854  0.9658  1.1512
   84SLPC     N 7903   5.574   3.413   2.229 -0.4700 -0.6318  1.3824
   84SLPC   C13 7904   5.427   3.435   2.205 -0.4062  0.8172 -0.3117
   84SLPC  H13A 7905   5.382   3.360   2.269  1.1483 -0.3944 -0.5711
   84SLPC  H13B 7906   5.401   3.534   2.239  1.3477  1.1302  0.2040
   84SLPC  H13C 7907   5.394   3.409   2.106 -1.9059  0.3843  0.2622
   84SLPC   C14 7908   5.606   3.464   2.371  0.1540  0.7916 -0.0955
   84SLPC  H14A 7909   5.565   3.562   2.392  0.9929  1.2116 -0.3693
   84SLPC  H14B 7910   5.573   3.396   2.447 -0.4393  0.9905 -0.1688
   84SLPC  H14C 7911   5.713   3.471   2.387 -0.0381  0.9379  1.2302
   84SLPC   C15 7912   5.648   3.499   2.126  0.5432  0.0271 -0.3038
   84SLPC  H15A 7913   5.754   3.489   2.142  0.4226  1.7146  2.1194
   84SLPC  H15B 7914   5.624   3.474   2.024 -0.9448  0.1112 -0.0080
   84SLPC  H15C 7915   5.635   3.605   2.140  1.2198 -0.0753  1.3221
   84SLPC   C12 7916   5.615   3.266   2.216 -0.5015  0.0539  0.2761
   84SLPC  H12A 7917   5.721   3.255   2.233 -0.3186  0.6056 -0.4621
   84SLPC  H12B 7918   5.593   3.228   2.117  2.0649 -0.1462 -0.3014
   84SLPC   C11 7919   5.539   3.172   2.319  0.3679  0.7012  0.0594
   84SLPC  H11A 7920   5.518   3.216   2.419 -2.2852 -2.2899  1.0185
   84SLPC  H11B 7921   5.596   3.076   2.322  1.1168  1.1122 -0.7261
   84SLPC     P 7922   5.389   3.046   2.143  0.2838  0.1090 -0.2342
   84SLPC   O13 7923   5.258   3.084   2.087 -0.2129  0.1230 -0.2990
   84SLPC   O14 7924   5.509   3.025   2.059 -0.0945  0.4932  0.5699
   84SLPC   O12 7925   5.410   3.146   2.262 -0.0877 -0.1243 -0.3451
   84SLPC   O11 7926   5.376   2.906   2.223  0.3083  0.4700  0.3782
   84SLPC    C1 7927   5.279   2.895   2.328 -0.3467  0.1120 -0.3574
   84SLPC    HA 7928   5.192   2.964   2.328 -0.8506 -0.5164 -0.7189
   84SLPC    HB 7929   5.234   2.794   2.321  1.3060 -0.5667 -1.9131
   84SLPC    C2 7930   5.340   2.929   2.466 -0.0829 -0.3755  0.0160
   84SLPC    HS 7931   5.364   3.037   2.468 -0.6486 -0.2135 -1.2637
   84SLPC   O21 7932   5.465   2.862   2.486 -0.5088 -0.3920 -0.0163
   84SLPC   C21 7933   5.543   2.901   2.591 -0.5191  0.3546  0.4043
   84SLPC   O22 7934   5.524   3.002   2.654  0.1811 -0.1693 -0.2745
   84SLPC   C22 7935   5.646   2.792   2.611  0.0826  0.4439 -0.7171
   84SLPC   H2R 7936   5.616   2.706   2.547  0.0535 -0.5574  0.5823
   84SLPC   H2S 7937   5.742   2.830   2.570 -0.6171 -0.7550 -3.7110
   84SLPC    C3 7938   5.235   2.902   2.574  0.1897  0.0125 -0.0103
   84SLPC    HX 7939   5.252   2.800   2.613  2.3208  0.8998  1.5512
   84SLPC    HY 7940   5.134   2.888   2.529  0.5886 -3.3713 -0.1187
   84SLPC   O31 7941   5.243   2.993   2.683  0.3840  0.4512 -0.3494
   84SLPC   C31 7942   5.182   3.106   2.670  0.3709  0.3625  1.0967
   84SLPC   O32 7943   5.134   3.148   2.562 -0.6903 -0.0279  0.0946
   84SLPC   C32 7944   5.185   3.188   2.797 -0.6048 -0.3513  0.0504
   84SLPC   H2X 7945   5.091   3.152   2.845 -1.7108 -0.9854 -2.4460
   84SLPC   H2Y 7946   5.158   3.290   2.762 -0.5855 -0.2598  0.2973
   84SLPC   C23 7947   5.655   2.752   2.755 -0.0363  0.7393 -0.7097
   84SLPC   H3R 7948   5.673   2.840   2.820  1.0833 -0.5344  0.7728
   84SLPC   H3S 7949   5.727   2.668   2.764 -0.2618  0.3141 -2.5238
   84SLPC   C24 7950   5.526   2.683   2.816  0.1970  0.5585  0.9555
   84SLPC   H4R 7951   5.479   2.628   2.732  0.1655  0.3947  1.0808
   84SLPC   H4S 7952   5.460   2.771   2.834  3.2674  3.2580  0.1427
   84SLPC   C25 7953   5.543   2.588   2.932 -0.1426  0.1901 -0.4756
   84SLPC   H5R 7954   5.606   2.498   2.920 -0.5579 -0.4195  1.5499
   84SLPC   H5S 7955   5.445   2.550   2.968  0.9415 -0.3346  2.1124
   84SLPC   C26 7956   5.582   2.663   3.060 -0.0794  0.1389 -0.7901
   84SLPC   H6R 7957   5.533   2.762   3.064 -0.1365  0.1805 -2.0958
   84SLPC   H6S 7958   5.693   2.675   3.056 -0.2049  1.1563 -1.4933
   84SLPC   C27 7959   5.540   2.584   3.185  0.6755 -0.5573  0.1415
   84SLPC   H7R 7960   5.599   2.492   3.205 -1.2947 -1.4963  1.9155
   84SLPC   H7S 7961   5.434   2.554   3.172  0.0307  0.8743  1.6819
   84SLPC   C28 7962   5.536   2.663   3.311  0.3083  0.1633  0.8725
   84SLPC   H8R 7963   5.487   2.758   3.283 -0.4829 -0.9000 -1.5662
   84SLPC   H8S 7964   5.640   2.687   3.342  0.7382 -0.6622  0.1262
   84SLPC   C29 7965   5.453   2.604   3.424 -0.4880 -0.4041 -0.1157
   84SLPC   H9R 7966   5.345   2.622   3.414 -0.2867  2.6594  1.8373
   84SLPC  C210 7967   5.508   2.530   3.525 -0.4317 -1.5593 -0.0333
   84SLPC  H10R 7968   5.435   2.497   3.600 -1.4487 -1.5457 -0.9795
   84SLPC  C211 7969   5.650   2.496   3.538 -0.1614  0.1047 -0.0808
   84SLPC  H11R 7970   5.698   2.527   3.442  0.5695  1.6493  0.7614
   84SLPC  H11S 7971   5.659   2.387   3.556  1.5800  0.5028  1.7679
   84SLPC  C212 7972   5.723   2.566   3.651 -0.0789 -0.2773 -0.9698
   84SLPC  H12R 7973   5.687   2.666   3.677  0.0610 -0.2694 -0.8027
   84SLPC  C213 7974   5.807   2.514   3.744 -0.0881  0.2927 -0.5208
   84SLPC  H13R 7975   5.840   2.581   3.824  1.0299 -2.0229  1.0641
   84SLPC  C214 7976   5.856   2.377   3.759 -0.2230  0.4768  0.2676
   84SLPC  H14R 7977   5.967   2.378   3.750 -0.2424 -1.8068 -1.0048
   84SLPC  H14S 7978   5.817   2.310   3.679 -0.1129  0.4188  0.2625
   84SLPC  C215 7979   5.840   2.315   3.899 -0.0380 -0.1779 -0.0056
   84SLPC  H15R 7980   5.874   2.209   3.891  0.0107 -0.0626 -1.6426
   84SLPC  H15S 7981   5.734   2.317   3.933  0.4473 -1.7836  1.7713
   84SLPC  C216 7982   5.929   2.383   4.008  0.1633 -0.5095 -0.2125
   84SLPC  H16R 7983   5.883   2.477   4.045 -0.7689 -0.2613 -1.8864
   84SLPC  H16S 7984   6.026   2.401   3.957 -0.8236 -0.9347 -2.3634
   84SLPC  C217 7985   5.957   2.296   4.129 -0.4236 -0.1668  0.1992
   84SLPC  H17R 7986   6.006   2.202   4.094  0.1842  0.0164  0.5335
   84SLPC  H17S 7987   5.862   2.264   4.176 -1.3005 -1.3983 -2.2199
   84SLPC  C218 7988   6.058   2.361   4.225 -0.3259 -0.0995 -0.4985
   84SLPC  H18R 7989   6.033   2.466   4.248  0.1275 -0.3569  1.4005
   84SLPC  H18S 7990   6.153   2.358   4.167 -0.8797  0.6130 -1.4589
   84SLPC  H18T 7991   6.056   2.307   4.322  1.3742  0.7878  0.0695
   84SLPC   C33 7992   5.302   3.165   2.896  0.2931  0.8537  1.0595
   84SLPC   H3X 7993   5.396   3.173   2.838 -0.6838  0.6614 -0.6434
   84SLPC   H3Y 7994   5.301   3.064   2.943  0.7307  0.5302  0.3967
   84SLPC   C34 7995   5.321   3.276   2.998  0.3116  0.0871 -0.4260
   84SLPC   H4X 7996   5.225   3.303   3.046  1.3792  1.3963  1.0902
   84SLPC   H4Y 7997   5.342   3.367   2.937  0.3496 -0.5022 -1.3189
   84SLPC   C35 7998   5.431   3.256   3.094  0.4259 -0.6837  0.4157
   84SLPC   H5X 7999   5.459   3.352   3.142 -1.8538 -0.6212  1.8036
   84SLPC   H5Y 8000   5.516   3.216   3.035 -0.2230  0.3343 -1.2891
   84SLPC   C36 8001   5.393   3.166   3.216  0.4787 -0.7319  0.0141
   84SLPC   H6X 8002   5.361   3.068   3.175  0.1251 -0.6476  0.0790
   84SLPC   H6Y 8003   5.303   3.207   3.266  1.3999  2.2261 -0.5583
   84SLPC   C37 8004   5.496   3.149   3.329 -0.0340  0.7338  0.3074
   84SLPC   H7X 8005   5.520   3.239   3.390  1.0018  0.3495  0.4955
   84SLPC   H7Y 8006   5.590   3.113   3.282  1.0283  2.4143  1.0528
   84SLPC   C38 8007   5.444   3.047   3.431 -0.2274  0.2561  0.3590
   84SLPC   H8X 8008   5.394   2.963   3.379 -1.6043  2.4333 -2.0892
   84SLPC   H8Y 8009   5.363   3.097   3.489  0.5092  0.1409  1.5005
   84SLPC   C39 8010   5.563   3.024   3.536  0.7894 -0.4052 -0.6115
   84SLPC   H9X 8011   5.595   3.111   3.598  2.1879 -1.8071  0.7619
   84SLPC   H9Y 8012   5.651   2.989   3.478  0.4569  1.6959 -2.4711
   84SLPC  C310 8013   5.527   2.907   3.641  0.0413 -0.4541  0.0421
   84SLPC  H10X 8014   5.612   2.887   3.711  0.4359 -0.5297 -0.4550
   84SLPC  H10Y 8015   5.523   2.812   3.583  0.1101 -0.5444  0.1808
   84SLPC  C311 8016   5.394   2.930   3.722  0.0867  0.0538 -0.1971
   84SLPC  H11X 8017   5.323   2.968   3.646  0.2813 -0.1442 -0.4820
   84SLPC  H11Y 8018   5.403   3.012   3.796  1.2022  0.2930 -0.5792
   84SLPC  C312 8019   5.339   2.808   3.794  0.2135 -0.2658 -0.1364
   84SLPC  H12X 8020   5.312   2.727   3.722  1.7058 -1.0764  0.1789
   84SLPC  H12Y 8021   5.251   2.833   3.857  1.4695  2.0656  0.8341
   84SLPC  C313 8022   5.437   2.755   3.901 -0.2502 -0.2941  0.2848
   84SLPC  H13X 8023   5.481   2.845   3.950 -1.5906 -0.0656  1.1162
   84SLPC  H13Y 8024   5.511   2.695   3.843 -0.7275  0.3442 -1.0391
   84SLPC  C314 8025   5.379   2.660   4.005  0.0071 -0.7537  0.2012
   84SLPC  H14X 8026   5.460   2.590   4.036 -0.1258 -1.3018 -0.6550
   84SLPC  H14Y 8027   5.306   2.595   3.953 -0.2673 -0.1066 -0.2200
   84SLPC  C315 8028   5.329   2.744   4.124  0.8201  0.5791 -0.0796
   84SLPC  H15X 8029   5.253   2.817   4.088 -0.4920 -0.7722 -0.1642
   84SLPC  H15Y 8030   5.415   2.806   4.155  0.1989  0.9383  0.9920
   84SLPC  C316 8031   5.274   2.654   4.236  0.5319 -0.5767  0.0762
   84SLPC  H16X 8032   5.332   2.564   4.269 -0.5877 -0.5634  2.2641
   84SLPC  H16Y 8033   5.174   2.613   4.210 -1.3249  1.8683  2.7291
   84SLPC  C317 8034   5.241   2.726   4.361  0.0667  0.3278 -0.3993
   84SLPC  H17X 8035   5.156   2.797   4.368  0.5755  0.8371  4.8527
   84SLPC  H17Y 8036   5.322   2.795   4.391 -0.6665  1.1756 -0.3424
   84SLPC  C318 8037   5.221   2.615   4.461  0.1617  0.3410 -0.5696
   84SLPC  H18X 8038   5.146   2.540   4.426 -0.7894  0.1649  1.6344
   84SLPC  H18Y 8039   5.188   2.655   4.559  0.1183 -2.1507  0.5278
   84SLPC  H18Z 8040   5.318   2.566   4.483  0.3072  1.0702  0.4985
   85SLPC     N 8041   3.611   0.674   2.253 -0.1575 -1.1065 -0.0355
   85SLPC   C13 8042   3.541   0.795   2.208  0.5271 -0.1559 -0.4076
   85SLPC  H13A 8043   3.609   0.878   2.201  1.9252 -1.1792  0.5569
   85SLPC  H13B 8044   3.487   0.771   2.118 -1.0044  0.3320  0.3430
   85SLPC  H13C 8045   3.469   0.819   2.286 -0.0975 -1.0001 -0.6963
   85SLPC   C14 8046   3.704   0.723   2.351 -0.3327  0.3053  0.2077
   85SLPC  H14A 8047   3.687   0.690   2.452 -0.3560  2.0269  0.7974
   85SLPC  H14B 8048   3.802   0.685   2.330 -0.4371 -0.4627  1.0479
   85SLPC  H14C 8049   3.702   0.831   2.359  1.0254  0.5657 -2.0665
   85SLPC   C15 8050   3.696   0.622   2.141  0.0306  0.5005 -0.2447
   85SLPC  H15A 8051   3.629   0.567   2.076 -2.4488  1.6284  1.1775
   85SLPC  H15B 8052   3.745   0.701   2.085  1.8340  0.2045  0.8656
   85SLPC  H15C 8053   3.771   0.558   2.184  1.4913  1.7975 -0.7550
   85SLPC   C12 8054   3.519   0.567   2.313 -0.3094 -0.2027 -0.4841
   85SLPC  H12A 8055   3.582   0.500   2.369 -0.1424 -0.3080 -0.7965
   85SLPC  H12B 8056   3.474   0.510   2.233 -1.4431  1.4610 -1.0735
   85SLPC   C11 8057   3.411   0.619   2.405 -0.6554  0.3409 -0.3090
   85SLPC  H11A 8058   3.458   0.683   2.482  0.5721 -1.9884  0.9919
   85SLPC  H11B 8059   3.371   0.531   2.461  1.1318 -0.6846 -0.5709
   85SLPC     P 8060   3.172   0.618   2.307 -0.4410 -0.2231  0.4614
   85SLPC   O13 8061   3.111   0.689   2.197 -0.2440  0.0907  0.1760
   85SLPC   O14 8062   3.198   0.469   2.292 -0.0506  0.1242 -0.0446
   85SLPC   O12 8063   3.311   0.685   2.333 -0.5126 -0.0342  0.3027
   85SLPC   O11 8064   3.110   0.651   2.449  0.4285  1.1129 -0.8608
   85SLPC    C1 8065   3.027   0.552   2.510  0.4871 -0.4894  0.1477
   85SLPC    HA 8066   2.932   0.532   2.456  0.0089  1.2811  0.2774
   85SLPC    HB 8067   3.081   0.457   2.528  1.0508 -0.6817 -2.2684
   85SLPC    C2 8068   2.979   0.612   2.647  0.3773 -0.4259  0.0214
   85SLPC    HS 8069   2.945   0.525   2.707  2.4322 -2.3048 -1.3768
   85SLPC   O21 8070   2.864   0.698   2.632 -0.2423  0.9224 -0.1360
   85SLPC   C21 8071   2.746   0.634   2.626 -0.2473 -0.4321  0.1436
   85SLPC   O22 8072   2.736   0.516   2.621  0.0224  0.3601  0.4240
   85SLPC   C22 8073   2.633   0.738   2.651  1.1031 -0.0564  0.7262
   85SLPC   H2R 8074   2.673   0.836   2.686 -0.2379  1.0421 -0.6630
   85SLPC   H2S 8075   2.590   0.752   2.549  0.6010 -2.1237  0.6107
   85SLPC    C3 8076   3.092   0.681   2.720  0.5283 -0.3707 -1.0253
   85SLPC    HX 8077   3.142   0.758   2.657 -0.5284  0.1920 -1.2041
   85SLPC    HY 8078   3.168   0.602   2.736  2.5303  1.1576 -2.3983
   85SLPC   O31 8079   3.046   0.734   2.851 -0.2152 -0.0438 -0.0156
   85SLPC   C31 8080   2.977   0.842   2.849  0.2904  0.4507 -0.2579
   85SLPC   O32 8081   2.956   0.910   2.750  0.0605 -0.0377  0.2762
   85SLPC   C32 8082   2.918   0.847   2.996  0.4676 -0.6586  0.2401
   85SLPC   H2X 8083   2.998   0.811   3.064 -0.1132  0.0697  1.3287
   85SLPC   H2Y 8084   2.824   0.788   2.989 -1.5112  2.4496 -1.8989
   85SLPC   C23 8085   2.521   0.704   2.746 -0.2258 -0.1519  0.3878
   85SLPC   H3R 8086   2.468   0.611   2.717 -0.6986  0.5335 -1.0509
   85SLPC   H3S 8087   2.445   0.784   2.747 -2.7133 -2.3449  2.1966
   85SLPC   C24 8088   2.581   0.703   2.893 -0.0878  0.3147 -0.1465
   85SLPC   H4R 8089   2.645   0.793   2.910 -0.1704  0.1404  1.1888
   85SLPC   H4S 8090   2.655   0.622   2.907  0.3695  0.9361  1.3142
   85SLPC   C25 8091   2.475   0.695   3.003 -0.1241 -0.1618 -0.0046
   85SLPC   H5R 8092   2.391   0.766   2.990  0.4735  0.8263  1.3440
   85SLPC   H5S 8093   2.425   0.596   2.998  2.4821 -2.0767  4.8890
   85SLPC   C26 8094   2.531   0.704   3.145 -0.4383 -0.1139 -0.7743
   85SLPC   H6R 8095   2.553   0.811   3.167  2.9804 -0.8115 -0.2466
   85SLPC   H6S 8096   2.616   0.633   3.139  0.1382  0.5592 -0.7329
   85SLPC   C27 8097   2.431   0.650   3.249  0.0426  0.1441  0.7093
   85SLPC   H7R 8098   2.387   0.554   3.214  0.1377  0.5009 -0.4620
   85SLPC   H7S 8099   2.345   0.720   3.255 -0.9263 -0.9044 -0.4320
   85SLPC   C28 8100   2.491   0.635   3.392 -0.1915 -0.3068 -0.8975
   85SLPC   H8R 8101   2.583   0.574   3.400  1.5819  2.4641  1.6579
   85SLPC   H8S 8102   2.409   0.591   3.453  0.4847  0.1625  0.3755
   85SLPC   C29 8103   2.543   0.762   3.445 -0.2169  0.3784  0.0152
   85SLPC   H9R 8104   2.630   0.798   3.389  1.4101 -1.5290  1.1504
   85SLPC  C210 8105   2.513   0.844   3.544  0.2373 -0.3455 -0.0714
   85SLPC  H10R 8106   2.582   0.929   3.557 -0.2535  0.4107 -1.9874
   85SLPC  C211 8107   2.409   0.832   3.658 -0.2674  0.9329 -0.6436
   85SLPC  H11R 8108   2.349   0.740   3.641 -0.8469  0.9312  1.1834
   85SLPC  H11S 8109   2.325   0.904   3.649 -2.3067 -1.0182  1.2934
   85SLPC  C212 8110   2.466   0.835   3.802 -0.2784 -0.3828 -0.5005
   85SLPC  H12R 8111   2.510   0.739   3.832 -0.1592 -0.2003 -0.0690
   85SLPC  C213 8112   2.441   0.937   3.886 -0.3797  0.4625  0.6623
   85SLPC  H13R 8113   2.468   0.924   3.992 -1.1895 -2.5838  0.5946
   85SLPC  C214 8114   2.387   1.070   3.866 -0.3974 -0.0385 -0.0075
   85SLPC  H14R 8115   2.297   1.091   3.927  0.4971  2.3982  0.6018
   85SLPC  H14S 8116   2.374   1.099   3.760  1.2241  0.0592 -0.2159
   85SLPC  C215 8117   2.476   1.184   3.912 -0.2227  0.0042  0.4700
   85SLPC  H15R 8118   2.569   1.169   3.852  0.3300  0.0959  1.2876
   85SLPC  H15S 8119   2.506   1.177   4.019 -3.0652  2.1138  1.5376
   85SLPC  C216 8120   2.417   1.329   3.886 -0.0053 -0.3436 -0.9651
   85SLPC  H16R 8121   2.381   1.328   3.781  0.3404 -1.4610 -1.0787
   85SLPC  H16S 8122   2.505   1.393   3.912 -0.9690  0.5659  0.1576
   85SLPC  C217 8123   2.288   1.371   3.965  0.3065 -0.8554 -1.0048
   85SLPC  H17R 8124   2.208   1.304   3.925  0.0219  0.2593 -2.3621
   85SLPC  H17S 8125   2.255   1.467   3.922 -2.0397  0.0296  2.3140
   85SLPC  C218 8126   2.296   1.378   4.117 -0.9183 -0.5679 -0.3360
   85SLPC  H18R 8127   2.342   1.286   4.159 -1.3891 -1.7112 -2.2209
   85SLPC  H18S 8128   2.196   1.386   4.166 -0.5071 -3.0670  1.0701
   85SLPC  H18T 8129   2.364   1.461   4.147 -1.0656 -0.2398 -0.8869
   85SLPC   C33 8130   2.885   0.997   3.038 -0.4155 -0.3963  0.6453
   85SLPC   H3X 8131   2.805   1.031   2.970  1.2196 -1.6722 -2.1026
   85SLPC   H3Y 8132   2.975   1.060   3.025  0.4982 -1.4877  1.4257
   85SLPC   C34 8133   2.849   0.984   3.182  0.3523  0.0599 -0.4704
   85SLPC   H4X 8134   2.933   0.927   3.229  0.6563  0.5052 -0.4624
   85SLPC   H4Y 8135   2.756   0.925   3.192 -0.0037  0.7659  0.5936
   85SLPC   C35 8136   2.827   1.120   3.249  0.5104 -0.0754  0.1993
   85SLPC   H5X 8137   2.754   1.179   3.190  2.2692 -0.7490 -2.8670
   85SLPC   H5Y 8138   2.918   1.184   3.251 -0.1917  0.9228  0.9936
   85SLPC   C36 8139   2.779   1.111   3.395  0.3049 -0.2087  0.2476
   85SLPC   H6X 8140   2.705   1.029   3.403  1.5426 -1.2271  1.9462
   85SLPC   H6Y 8141   2.729   1.203   3.431 -0.7669 -0.7958  0.3112
   85SLPC   C37 8142   2.893   1.083   3.493  0.0310 -0.2335  0.1360
   85SLPC   H7X 8143   2.964   1.165   3.468 -0.9988  0.5789 -0.1745
   85SLPC   H7Y 8144   2.952   0.993   3.463  0.5936  0.1269  0.1606
   85SLPC   C38 8145   2.867   1.102   3.642  0.4824  0.0574 -0.0678
   85SLPC   H8X 8146   2.806   1.016   3.677  1.9918  0.0438  2.8859
   85SLPC   H8Y 8147   2.819   1.201   3.654 -0.8760 -0.5985  0.0246
   85SLPC   C39 8148   2.993   1.092   3.723 -0.5712  0.4095  0.3820
   85SLPC   H9X 8149   3.056   1.181   3.701 -0.7674  0.4764  0.0790
   85SLPC   H9Y 8150   3.055   1.006   3.690 -2.6086 -0.6732 -0.8852
   85SLPC  C310 8151   2.986   1.092   3.880 -0.1145  1.4870  0.7418
   85SLPC  H10X 8152   3.080   1.064   3.931  1.4960  1.3507 -2.1021
   85SLPC  H10Y 8153   2.924   1.006   3.913  1.5597 -0.3154 -0.5521
   85SLPC  C311 8154   2.915   1.217   3.930 -0.5524 -0.0435  0.2008
   85SLPC  H11X 8155   2.815   1.209   3.882 -0.0830 -0.6849 -0.6884
   85SLPC  H11Y 8156   2.975   1.301   3.889 -0.5994  0.6307  1.4536
   85SLPC  C312 8157   2.913   1.230   4.083 -0.0166  0.4886  0.4312
   85SLPC  H12X 8158   3.007   1.194   4.130  0.1319  3.0885  2.3282
   85SLPC  H12Y 8159   2.823   1.178   4.124  1.0171 -2.0980 -0.3533
   85SLPC  C313 8160   2.897   1.380   4.123  0.7220 -1.3298  0.3134
   85SLPC  H13X 8161   2.988   1.436   4.093 -0.3336  0.0833 -0.3639
   85SLPC  H13Y 8162   2.899   1.377   4.234 -1.7454 -1.7905  0.4107
   85SLPC  C314 8163   2.771   1.445   4.067  0.5220  0.1131  0.1022
   85SLPC  H14X 8164   2.698   1.361   4.056  1.2992 -0.2683 -3.3601
   85SLPC  H14Y 8165   2.788   1.484   3.964  1.1006  0.0123  0.1583
   85SLPC  C315 8166   2.709   1.561   4.150  0.0892 -0.3069 -0.0665
   85SLPC  H15X 8167   2.679   1.538   4.255  1.1041  0.0819  0.3253
   85SLPC  H15Y 8168   2.617   1.581   4.091 -1.3735 -2.5938  1.2779
   85SLPC  C316 8169   2.802   1.674   4.145  0.6641  0.3315  0.1902
   85SLPC  H16X 8170   2.851   1.687   4.046 -0.5212  1.0918 -0.3267
   85SLPC  H16Y 8171   2.884   1.656   4.218 -0.3940 -1.9271  0.9099
   85SLPC  C317 8172   2.742   1.813   4.174  0.2658 -0.7004 -0.2205
   85SLPC  H17X 8173   2.677   1.854   4.094  1.4902 -0.1735 -0.9779
   85SLPC  H17Y 8174   2.826   1.885   4.181 -0.2027 -0.0922 -0.7170
   85SLPC  C318 8175   2.670   1.826   4.306  0.2322 -0.6540 -0.4010
   85SLPC  H18X 8176   2.595   1.747   4.332 -0.1311  0.2389  1.4099
   85SLPC  H18Y 8177   2.607   1.918   4.311  1.9909  0.5229  1.0716
   85SLPC  H18Z 8178   2.742   1.829   4.390  0.7310  1.0964 -0.8650
   86SLPC     N 8179   1.116   4.877   2.106  0.3381 -0.1032 -0.0611
   86SLPC   C13 8180   1.154   4.880   1.961 -0.1354 -0.3340  0.4049
   86SLPC  H13A 8181   1.194   4.786   1.927 -1.0924 -0.2407 -1.0947
   86SLPC  H13B 8182   1.065   4.900   1.903 -1.3897 -3.0393  1.2514
   86SLPC  H13C 8183   1.230   4.955   1.947  1.4868 -1.5777  2.0041
   86SLPC   C14 8184   1.026   4.766   2.133 -0.0834 -0.3609  0.0911
   86SLPC  H14A 8185   0.941   4.756   2.067  1.6505 -0.5076 -2.2299
   86SLPC  H14B 8186   1.080   4.675   2.112 -0.9289 -0.6515 -0.9259
   86SLPC  H14C 8187   0.996   4.766   2.237  1.1249 -1.6209  0.4615
   86SLPC   C15 8188   1.051   5.006   2.130  0.0658  0.4070 -0.5358
   86SLPC  H15A 8189   1.016   5.010   2.232 -0.5306 -0.8090 -0.6771
   86SLPC  H15B 8190   1.122   5.088   2.122  0.0752  0.6575  1.5925
   86SLPC  H15C 8191   0.964   5.026   2.069 -0.1556 -1.8420 -1.0193
   86SLPC   C12 8192   1.251   4.864   2.168 -0.7378  0.8331 -0.4580
   86SLPC  H12A 8193   1.304   4.954   2.140 -0.2609 -0.1186 -2.8498
   86SLPC  H12B 8194   1.314   4.786   2.128 -1.0452  0.7368 -0.7517
   86SLPC   C11 8195   1.260   4.866   2.319 -0.0576  0.4336  0.2029
   86SLPC  H11A 8196   1.368   4.868   2.343  0.1013  0.0914 -0.4663
   86SLPC  H11B 8197   1.222   4.773   2.365 -0.4740  1.0357  1.1098
   86SLPC     P 8198   1.248   5.120   2.387 -0.1557 -0.3633 -0.1163
   86SLPC   O13 8199   1.346   5.136   2.275 -0.8014  0.4218 -0.1279
   86SLPC   O14 8200   1.127   5.208   2.381  0.1901 -0.5618 -0.6463
   86SLPC   O12 8201   1.195   4.972   2.392 -0.1145 -0.6351  0.0299
   86SLPC   O11 8202   1.310   5.150   2.527 -0.5722  0.5989  0.4505
   86SLPC    C1 8203   1.269   5.071   2.639  0.5213  0.4994 -0.2948
   86SLPC    HA 8204   1.209   5.126   2.714  0.5837  0.9872 -0.5926
   86SLPC    HB 8205   1.200   4.986   2.622  0.6192  0.2361  0.5707
   86SLPC    C2 8206   1.388   5.015   2.724  0.3774 -0.7556  0.1618
   86SLPC    HS 8207   1.350   4.954   2.809 -1.4503 -2.2577 -1.6100
   86SLPC   O21 8208   1.471   5.123   2.766  0.2670 -0.4329  0.3707
   86SLPC   C21 8209   1.426   5.191   2.868  0.2094 -0.6935 -0.0377
   86SLPC   O22 8210   1.321   5.167   2.923  0.6284  0.3499 -0.9133
   86SLPC   C22 8211   1.532   5.294   2.905  0.2778 -0.4921 -0.0312
   86SLPC   H2R 8212   1.566   5.342   2.811 -1.2392  1.5895  0.4183
   86SLPC   H2S 8213   1.480   5.368   2.969  0.1475 -0.9928  0.4543
   86SLPC    C3 8214   1.470   4.914   2.648  0.0990  0.0090  0.6167
   86SLPC    HX 8215   1.536   4.978   2.586 -0.2695 -0.2602 -0.0627
   86SLPC    HY 8216   1.416   4.851   2.574  0.6861  2.5721 -2.1857
   86SLPC   O31 8217   1.545   4.839   2.742  0.2651  0.5535  0.0690
   86SLPC   C31 8218   1.650   4.773   2.699 -0.2308 -0.2385 -0.7283
   86SLPC   O32 8219   1.682   4.765   2.582 -0.0761  0.4707  0.5971
   86SLPC   C32 8220   1.736   4.710   2.812  0.1055  0.0554  0.0751
   86SLPC   H2X 8221   1.672   4.668   2.892  1.2239 -2.2171 -0.1590
   86SLPC   H2Y 8222   1.799   4.792   2.854  1.4595 -1.2998  0.7980
   86SLPC   C23 8223   1.652   5.241   2.988 -0.0028  0.7194  0.1691
   86SLPC   H3R 8224   1.613   5.168   3.062  0.7405  0.2934  0.1503
   86SLPC   H3S 8225   1.708   5.314   3.050  0.7180 -1.0150  1.6545
   86SLPC   C24 8226   1.763   5.174   2.901 -0.3667  0.3101  0.0432
   86SLPC   H4R 8227   1.842   5.243   2.864  1.0807 -1.8165 -1.0621
   86SLPC   H4S 8228   1.718   5.145   2.804 -1.1446  0.1857  0.4325
   86SLPC   C25 8229   1.826   5.051   2.986  0.8904  0.2008  0.1401
   86SLPC   H5R 8230   1.869   4.969   2.925  0.5194 -1.3034  1.8410
   86SLPC   H5S 8231   1.741   4.993   3.027  0.3622 -1.6840 -3.2485
   86SLPC   C26 8232   1.925   5.095   3.094 -0.4422 -0.4772  1.0625
   86SLPC   H6R 8233   1.896   5.196   3.130  0.8436  0.3399 -0.0882
   86SLPC   H6S 8234   2.029   5.109   3.058 -0.0742 -0.4228  2.1038
   86SLPC   C27 8235   1.939   4.991   3.209 -0.0417 -0.7118  0.5478
   86SLPC   H7R 8236   1.991   4.911   3.152  1.6250  0.7721 -0.0951
   86SLPC   H7S 8237   1.842   4.946   3.240 -1.7746  2.8298  0.8532
   86SLPC   C28 8238   2.029   5.031   3.334  0.1955  0.4797 -0.2273
   86SLPC   H8R 8239   2.125   5.065   3.290 -0.3419  0.9890 -1.0227
   86SLPC   H8S 8240   2.057   4.934   3.380 -3.5091 -2.5020 -3.5561
   86SLPC   C29 8241   1.982   5.146   3.415 -0.2154 -0.1613 -0.1741
   86SLPC   H9R 8242   1.990   5.244   3.366 -1.4704 -1.2584 -2.7506
   86SLPC  C210 8243   1.953   5.141   3.542 -0.0805 -0.2495  0.6545
   86SLPC  H10R 8244   1.889   5.226   3.570 -1.4038 -0.7963 -0.5717
   86SLPC  C211 8245   1.945   5.025   3.636  0.0503  0.1083  0.6685
   86SLPC  H11R 8246   1.935   5.058   3.742 -1.3187 -0.9982  0.9209
   86SLPC  H11S 8247   2.041   4.969   3.636 -0.1514 -0.2527 -0.2075
   86SLPC  C212 8248   1.836   4.921   3.599 -0.0330 -0.2467  0.2885
   86SLPC  H12R 8249   1.878   4.822   3.578  0.2664  0.3266 -2.1497
   86SLPC  C213 8250   1.705   4.939   3.620 -0.8799  0.7955  0.3786
   86SLPC  H13R 8251   1.639   4.854   3.598 -0.0319  0.8644 -2.8904
   86SLPC  C214 8252   1.624   5.065   3.641 -0.4990 -0.3406  0.3386
   86SLPC  H14R 8253   1.686   5.157   3.635  1.2401 -1.4958 -0.1091
   86SLPC  H14S 8254   1.565   5.068   3.735 -4.0687 -2.1220 -1.6647
   86SLPC  C215 8255   1.523   5.076   3.522  0.4969 -0.5131  0.0858
   86SLPC  H15R 8256   1.449   4.995   3.541  0.7368 -1.3171 -2.1169
   86SLPC  H15S 8257   1.567   5.060   3.421 -1.6815 -0.4296 -0.9525
   86SLPC  C216 8258   1.440   5.202   3.521 -0.4826  0.3983  0.8678
   86SLPC  H16R 8259   1.501   5.295   3.524 -1.5869  1.1279  2.5451
   86SLPC  H16S 8260   1.382   5.190   3.615 -0.5982 -0.4153  0.6964
   86SLPC  C217 8261   1.333   5.204   3.413 -0.7223 -0.8295 -0.5417
   86SLPC  H17R 8262   1.268   5.289   3.442 -0.6469 -0.6711 -0.8317
   86SLPC  H17S 8263   1.273   5.111   3.422 -2.2372  0.1165 -0.5089
   86SLPC  C218 8264   1.376   5.233   3.264  0.9996 -0.3104  0.1360
   86SLPC  H18R 8265   1.446   5.319   3.255  0.8482 -0.2459 -0.4082
   86SLPC  H18S 8266   1.283   5.238   3.204  2.4170  2.6851 -2.0443
   86SLPC  H18T 8267   1.434   5.147   3.222  0.2164 -0.3927 -0.7971
   86SLPC   C33 8268   1.832   4.594   2.764  0.0917 -0.2779 -0.3682
   86SLPC   H3X 8269   1.921   4.636   2.712  0.2345 -1.7340 -1.3404
   86SLPC   H3Y 8270   1.785   4.529   2.688 -1.5877  1.8256 -1.2483
   86SLPC   C34 8271   1.880   4.520   2.890  0.5534  0.8610  0.1944
   86SLPC   H4X 8272   1.942   4.433   2.861 -1.8673 -0.5631 -0.9915
   86SLPC   H4Y 8273   1.794   4.480   2.947  0.5147  0.4314 -0.1621
   86SLPC   C35 8274   1.955   4.608   2.987 -0.0920 -0.1276  0.4227
   86SLPC   H5X 8275   1.879   4.672   3.037  2.1464  3.6303 -0.5452
   86SLPC   H5Y 8276   2.031   4.665   2.929 -0.4724 -1.3939 -1.3927
   86SLPC   C36 8277   2.035   4.544   3.094 -0.0561  0.1204 -0.7090
   86SLPC   H6X 8278   2.118   4.485   3.048  2.3034  2.2171  0.5864
   86SLPC   H6Y 8279   1.970   4.478   3.156 -1.5208  1.2978 -0.9650
   86SLPC   C37 8280   2.107   4.641   3.200  0.6648 -0.2257  0.3978
   86SLPC   H7X 8281   2.023   4.705   3.237  0.9939 -0.4868  1.6080
   86SLPC   H7Y 8282   2.185   4.689   3.136  1.0917 -0.9368  0.3762
   86SLPC   C38 8283   2.171   4.564   3.312  0.5280 -0.0547 -0.2482
   86SLPC   H8X 8284   2.273   4.529   3.286  0.6224  0.3922 -0.4944
   86SLPC   H8Y 8285   2.107   4.477   3.337  0.6838 -0.6321 -1.7821
   86SLPC   C39 8286   2.181   4.667   3.431  0.2540 -0.1938 -0.4635
   86SLPC   H9X 8287   2.078   4.694   3.461 -0.7720 -0.5666 -3.3514
   86SLPC   H9Y 8288   2.225   4.764   3.399  0.6564 -0.8044 -1.8176
   86SLPC  C310 8289   2.262   4.602   3.543  0.4367  0.2171 -0.5181
   86SLPC  H10X 8290   2.362   4.594   3.494  0.3288  0.4955 -0.7875
   86SLPC  H10Y 8291   2.236   4.499   3.574  3.3513 -0.2855  0.5573
   86SLPC  C311 8292   2.253   4.686   3.668 -0.3671  0.3589  0.3352
   86SLPC  H11X 8293   2.151   4.677   3.709 -1.5992  1.4004 -2.2951
   86SLPC  H11Y 8294   2.266   4.792   3.636  0.1343  0.2210  0.0692
   86SLPC  C312 8295   2.367   4.669   3.770 -0.2275 -0.5847  0.0121
   86SLPC  H12X 8296   2.466   4.700   3.730  0.8745 -2.0022  1.4967
   86SLPC  H12Y 8297   2.377   4.564   3.803 -0.8211 -0.2101  1.4646
   86SLPC  C313 8298   2.350   4.760   3.895 -0.3612  0.2384  0.9947
   86SLPC  H13X 8299   2.327   4.863   3.860  2.5666  0.3410 -0.9931
   86SLPC  H13Y 8300   2.446   4.750   3.950  0.3110  1.0381 -0.0201
   86SLPC  C314 8301   2.248   4.698   3.993  0.3297 -0.2987 -0.4399
   86SLPC  H14X 8302   2.269   4.594   4.029  0.9406  0.9255  3.1703
   86SLPC  H14Y 8303   2.153   4.697   3.936 -1.1913  0.1929  1.9259
   86SLPC  C315 8304   2.227   4.775   4.129 -0.5857  0.0103 -0.2434
   86SLPC  H15X 8305   2.166   4.714   4.199  0.5679 -0.2972  0.5284
   86SLPC  H15Y 8306   2.164   4.863   4.105 -1.2661  0.3599  2.5276
   86SLPC  C316 8307   2.354   4.817   4.193 -0.1466 -0.1036 -1.1089
   86SLPC  H16X 8308   2.423   4.883   4.137  0.2428  0.4742  0.0292
   86SLPC  H16Y 8309   2.396   4.721   4.230 -2.5151 -0.6001  0.4932
   86SLPC  C317 8310   2.328   4.895   4.329 -0.4694  0.0478 -0.3297
   86SLPC  H17X 8311   2.279   4.829   4.403 -1.1485 -1.9512 -2.4394
   86SLPC  H17Y 8312   2.267   4.986   4.310  0.8890  1.1138  0.1934
   86SLPC  C318 8313   2.462   4.950   4.385  0.0848  0.5216 -0.0191
   86SLPC  H18X 8314   2.536   4.869   4.371  0.5965  0.9954 -0.0816
   86SLPC  H18Y 8315   2.456   4.986   4.490 -0.5969 -0.3199  0.2456
   86SLPC  H18Z 8316   2.501   5.025   4.313  0.1206 -1.7145 -2.5226
   87SLPC     N 8317   0.749   3.170   1.752  0.3567 -0.1030  0.4096
   87SLPC   C13 8318   0.740   3.175   1.604  0.5700  0.1118  0.0530
   87SLPC  H13A 8319   0.692   3.083   1.573  0.3053 -0.1813  1.2458
   87SLPC  H13B 8320   0.679   3.260   1.578  0.4986  0.8492  2.3801
   87SLPC  H13C 8321   0.840   3.180   1.565  0.8878 -0.3714  0.7687
   87SLPC   C14 8322   0.783   3.032   1.790 -0.7142  0.5072 -0.5239
   87SLPC  H14A 8323   0.736   2.951   1.737  0.1210 -1.0581  0.9980
   87SLPC  H14B 8324   0.891   3.019   1.784 -0.8918 -0.6890 -1.7347
   87SLPC  H14C 8325   0.753   3.015   1.893  0.0096  2.5036  0.0640
   87SLPC   C15 8326   0.615   3.192   1.819  0.6596  0.6098  0.1333
   87SLPC  H15A 8327   0.547   3.122   1.774 -1.3159  1.0209  2.2780
   87SLPC  H15B 8328   0.613   3.168   1.924  0.8509 -1.2983 -0.2595
   87SLPC  H15C 8329   0.573   3.289   1.795  0.0975 -0.3909 -3.4485
   87SLPC   C12 8330   0.845   3.274   1.808 -0.0420 -0.1115  0.2753
   87SLPC  H12A 8331   0.844   3.272   1.916 -1.0623 -0.6466  0.2616
   87SLPC  H12B 8332   0.799   3.367   1.779 -1.7566 -0.2816  2.2337
   87SLPC   C11 8333   0.988   3.278   1.754 -0.5069  0.8736 -0.5451
   87SLPC  H11A 8334   1.032   3.379   1.765 -0.0430  0.9720 -2.8819
   87SLPC  H11B 8335   0.989   3.263   1.644 -0.9696 -0.5099 -0.3830
   87SLPC     P 8336   1.149   3.204   1.950  0.1153  0.0551 -0.3216
   87SLPC   O13 8337   1.249   3.090   1.958  0.0500  0.0648 -0.1594
   87SLPC   O14 8338   1.219   3.334   1.930  0.0327  0.3624  0.2771
   87SLPC   O12 8339   1.067   3.177   1.820 -0.1264 -0.0157  0.1785
   87SLPC   O11 8340   1.047   3.199   2.073  0.3725  0.9747  0.1392
   87SLPC    C1 8341   0.949   3.093   2.101  0.1272 -0.0502 -0.4159
   87SLPC    HA 8342   0.860   3.111   2.038  0.2989 -0.9441 -0.9455
   87SLPC    HB 8343   0.983   2.993   2.067 -0.2665 -0.0018 -0.9541
   87SLPC    C2 8344   0.898   3.096   2.246 -0.2946 -1.1346 -1.3938
   87SLPC    HS 8345   0.804   3.037   2.256 -1.2650  0.5741  0.1191
   87SLPC   O21 8346   0.889   3.240   2.273 -0.1345 -0.4527 -0.0929
   87SLPC   C21 8347   0.789   3.267   2.345  0.5303 -0.6669  0.6678
   87SLPC   O22 8348   0.701   3.196   2.390 -0.0414  0.3396  0.2894
   87SLPC   C22 8349   0.787   3.414   2.382 -0.1101 -0.1928 -0.5137
   87SLPC   H2R 8350   0.758   3.478   2.297 -1.5777  0.9159  0.7456
   87SLPC   H2S 8351   0.699   3.430   2.448  1.4541  0.9818  1.3984
   87SLPC    C3 8352   1.000   3.046   2.353  0.4501  0.2056  0.3893
   87SLPC    HX 8353   1.081   3.120   2.368  1.2873 -0.8170  1.0328
   87SLPC    HY 8354   1.052   2.950   2.331  0.6308  0.0558  1.4134
   87SLPC   O31 8355   0.942   3.036   2.481  0.3733  0.0731 -0.0613
   87SLPC   C31 8356   0.836   2.948   2.502  0.3720 -0.2835  0.4001
   87SLPC   O32 8357   0.803   2.864   2.422 -0.2883 -0.2361 -0.4831
   87SLPC   C32 8358   0.765   2.965   2.636  0.0372 -0.5283 -0.1198
   87SLPC   H2X 8359   0.784   2.876   2.700  2.4488 -0.5338 -0.7799
   87SLPC   H2Y 8360   0.656   2.979   2.616 -0.3373 -0.9393  1.4417
   87SLPC   C23 8361   0.904   3.472   2.465 -0.1107 -0.3360  0.5483
   87SLPC   H3R 8362   0.979   3.515   2.395 -1.6698  1.1438 -0.2561
   87SLPC   H3S 8363   0.956   3.385   2.512  1.3962  0.7073  0.9032
   87SLPC   C24 8364   0.867   3.566   2.578  0.8028  0.1740 -0.6136
   87SLPC   H4R 8365   0.791   3.514   2.641 -0.1404  1.2370 -0.8423
   87SLPC   H4S 8366   0.829   3.658   2.530  0.9342  0.5174 -0.0751
   87SLPC   C25 8367   0.975   3.610   2.671  0.0543  0.1678 -0.1124
   87SLPC   H5R 8368   0.933   3.695   2.729 -1.9193 -1.5900  1.1702
   87SLPC   H5S 8369   1.063   3.653   2.619  2.4432 -2.8366  1.1208
   87SLPC   C26 8370   1.026   3.506   2.767  0.4927  0.4281  0.0166
   87SLPC   H6R 8371   1.042   3.412   2.709 -1.5236  0.9036 -1.4284
   87SLPC   H6S 8372   0.943   3.475   2.835  0.4898  0.7440  0.1556
   87SLPC   C27 8373   1.141   3.546   2.860 -0.0409  0.0173 -0.2638
   87SLPC   H7R 8374   1.218   3.583   2.788 -1.6351  1.6334 -1.2085
   87SLPC   H7S 8375   1.180   3.453   2.907  1.2022  0.2974 -0.6901
   87SLPC   C28 8376   1.123   3.655   2.966 -0.7699 -0.4645 -0.0748
   87SLPC   H8R 8377   1.060   3.735   2.920  1.1100  1.1086 -0.0395
   87SLPC   H8S 8378   1.222   3.704   2.970 -1.2004  0.3287  1.5918
   87SLPC   C29 8379   1.068   3.613   3.093 -0.1863  0.7075  0.1021
   87SLPC   H9R 8380   0.970   3.564   3.096 -0.8526  2.0447  1.6609
   87SLPC  C210 8381   1.118   3.638   3.213  0.0886  0.0680 -0.3896
   87SLPC  H10R 8382   1.069   3.605   3.305 -0.6633  2.9965  0.3764
   87SLPC  C211 8383   1.228   3.733   3.233 -0.2490 -0.5881 -0.1941
   87SLPC  H11R 8384   1.193   3.835   3.210  0.3711  0.2184  2.1738
   87SLPC  H11S 8385   1.312   3.716   3.162 -0.5345  0.7879 -0.8913
   87SLPC  C212 8386   1.277   3.721   3.376  0.0821 -0.1059  1.0699
   87SLPC  H12R 8387   1.265   3.626   3.431  0.4493  0.7642  2.7330
   87SLPC  C213 8388   1.343   3.819   3.440  0.0776  0.0539  0.4571
   87SLPC  H13R 8389   1.374   3.804   3.544  2.4269  0.6546 -0.1051
   87SLPC  C214 8390   1.376   3.959   3.390  0.0230 -0.0580  0.0062
   87SLPC  H14R 8391   1.376   3.972   3.280  0.1142  3.5378  0.3053
   87SLPC  H14S 8392   1.483   3.980   3.408 -0.0026 -0.2727  0.4178
   87SLPC  C215 8393   1.284   4.064   3.445  1.0056 -0.1533 -0.1764
   87SLPC  H15R 8394   1.183   4.039   3.406  1.7471 -0.0985 -2.2005
   87SLPC  H15S 8395   1.316   4.158   3.396  0.3443  0.4026  0.4338
   87SLPC  C216 8396   1.289   4.077   3.603  0.2102 -0.3460 -0.0533
   87SLPC  H16R 8397   1.258   3.980   3.649  1.7157 -1.6306 -1.6219
   87SLPC  H16S 8398   1.215   4.156   3.627 -1.3694 -1.0583 -2.2583
   87SLPC  C217 8399   1.426   4.116   3.659  0.7065 -0.3062 -0.3170
   87SLPC  H17R 8400   1.468   4.207   3.610  1.3834 -0.4030  0.0614
   87SLPC  H17S 8401   1.496   4.031   3.640 -0.3160 -0.7678 -2.2983
   87SLPC  C218 8402   1.426   4.145   3.812  0.2179 -1.0568  0.3355
   87SLPC  H18R 8403   1.529   4.129   3.849  0.5202  0.4507  0.2108
   87SLPC  H18S 8404   1.361   4.076   3.869 -0.1547 -0.3504  0.7794
   87SLPC  H18T 8405   1.404   4.253   3.830 -2.2147 -1.5190  0.5171
   87SLPC   C33 8406   0.826   3.082   2.708  0.2386  0.2272 -0.8400
   87SLPC   H3X 8407   0.805   3.182   2.664  1.5882  0.7768 -0.3146
   87SLPC   H3Y 8408   0.937   3.086   2.699  0.0944 -0.5101 -4.2068
   87SLPC   C34 8409   0.790   3.088   2.860 -0.6743 -0.4757  0.6374
   87SLPC   H4X 8410   0.824   2.996   2.912 -1.3902  0.2867  2.5565
   87SLPC   H4Y 8411   0.681   3.111   2.854 -0.5388 -0.2333 -2.3086
   87SLPC   C35 8412   0.865   3.206   2.922 -0.0722  1.1971 -0.6036
   87SLPC   H5X 8413   0.824   3.307   2.901 -0.3795  1.3448  0.5874
   87SLPC   H5Y 8414   0.970   3.205   2.884  1.3721 -1.1899  2.9004
   87SLPC   C36 8415   0.867   3.208   3.077 -0.7801  0.4905 -0.5977
   87SLPC   H6X 8416   0.895   3.313   3.103 -2.4337  0.8066  0.0356
   87SLPC   H6Y 8417   0.944   3.134   3.108 -1.4616 -0.2668 -0.6947
   87SLPC   C37 8418   0.744   3.176   3.155 -0.1073  0.1332 -0.0204
   87SLPC   H7X 8419   0.715   3.070   3.137  1.8332 -0.8190  2.0066
   87SLPC   H7Y 8420   0.661   3.240   3.118  0.3678  0.2825 -0.8665
   87SLPC   C38 8421   0.760   3.193   3.309 -0.8214  0.8249  0.4212
   87SLPC   H8X 8422   0.792   3.095   3.350 -1.5678 -0.4768 -1.9147
   87SLPC   H8Y 8423   0.661   3.206   3.356  0.0338  0.4977  2.3896
   87SLPC   C39 8424   0.840   3.319   3.354  0.6782  0.1698  0.2715
   87SLPC   H9X 8425   0.814   3.406   3.290 -1.7642 -0.5032  0.2601
   87SLPC   H9Y 8426   0.949   3.296   3.348  0.7157  0.1081  1.0355
   87SLPC  C310 8427   0.810   3.340   3.501  0.3466 -0.7225 -0.1956
   87SLPC  H10X 8428   0.703   3.369   3.512  0.7222 -0.0932  2.4033
   87SLPC  H10Y 8429   0.881   3.421   3.530  0.6534 -0.8593 -0.5566
   87SLPC  C311 8430   0.834   3.225   3.598  0.3494  0.2964 -0.2161
   87SLPC  H11X 8431   0.924   3.165   3.573  0.9536  0.1965  2.0238
   87SLPC  H11Y 8432   0.760   3.146   3.570  0.6258  0.4065 -1.2999
   87SLPC  C312 8433   0.825   3.254   3.744  0.0675 -0.5536 -0.1403
   87SLPC  H12X 8434   0.925   3.289   3.779 -0.2633  2.5361 -1.8957
   87SLPC  H12Y 8435   0.808   3.164   3.807 -0.3618 -0.6644 -0.4134
   87SLPC  C313 8436   0.720   3.361   3.795  0.5466  0.6090  0.2342
   87SLPC  H13X 8437   0.615   3.328   3.778  1.1839 -1.7468  0.5184
   87SLPC  H13Y 8438   0.746   3.455   3.742  0.4676 -0.4349 -1.7544
   87SLPC  C314 8439   0.743   3.376   3.944 -0.0099 -0.4964 -0.1224
   87SLPC  H14X 8440   0.845   3.415   3.962  0.4728 -1.5514 -0.4925
   87SLPC  H14Y 8441   0.738   3.281   4.003 -0.4740  0.7264  1.9095
   87SLPC  C315 8442   0.630   3.463   4.016  0.4150 -0.1074 -0.2017
   87SLPC  H15X 8443   0.584   3.531   3.942 -2.7905 -0.9113  0.8916
   87SLPC  H15Y 8444   0.671   3.535   4.090  0.8414  0.5777 -1.0808
   87SLPC  C316 8445   0.519   3.379   4.081  0.0485 -0.6551 -0.2230
   87SLPC  H16X 8446   0.571   3.302   4.142  3.9821  1.8415 -0.0783
   87SLPC  H16Y 8447   0.463   3.336   3.995 -0.1020 -0.8679 -0.0189
   87SLPC  C317 8448   0.428   3.469   4.171  0.1043  1.1097 -0.4350
   87SLPC  H17X 8449   0.390   3.558   4.115 -0.3698  2.1349  1.4403
   87SLPC  H17Y 8450   0.485   3.516   4.254 -1.0479 -0.9472  1.6246
   87SLPC  C318 8451   0.312   3.383   4.229 -0.7046 -0.2653  0.7043
   87SLPC  H18X 8452   0.236   3.350   4.155 -0.3670  0.2340  0.1303
   87SLPC  H18Y 8453   0.254   3.449   4.296  1.3670  2.2984  0.1209
   87SLPC  H18Z 8454   0.354   3.296   4.286  1.8663 -0.7569 -1.7149
   88SLPC     N 8455   0.885   5.672   2.089 -0.4924 -0.5196  0.5669
   88SLPC   C13 8456   0.820   5.574   1.990 -0.3434  0.0959 -0.2963
   88SLPC  H13A 8457   0.865   5.476   1.996 -1.1041 -0.2835 -0.6498
   88SLPC  H13B 8458   0.714   5.570   2.007 -0.6519  0.8854 -1.8771
   88SLPC  H13C 8459   0.829   5.609   1.888  0.3140 -0.3270 -0.3922
   88SLPC   C14 8460   0.826   5.809   2.054 -0.2431  0.6531  0.7020
   88SLPC  H14A 8461   0.884   5.888   2.100  0.0538 -0.9986  3.3751
   88SLPC  H14B 8462   0.822   5.820   1.946 -3.0644 -2.5730  0.3148
   88SLPC  H14C 8463   0.722   5.815   2.081 -0.6044  1.5825 -0.7393
   88SLPC   C15 8464   1.032   5.657   2.054  0.4724  0.6252  0.0865
   88SLPC  H15A 8465   1.100   5.716   2.114  1.3926 -0.4854  0.1736
   88SLPC  H15B 8466   1.075   5.559   2.067 -0.6139  0.1030 -0.1869
   88SLPC  H15C 8467   1.062   5.697   1.958  0.3422  1.6350  0.4542
   88SLPC   C12 8468   0.880   5.639   2.241  0.2704  0.4325 -0.0141
   88SLPC  H12A 8469   0.922   5.724   2.291 -2.6205  0.8257  1.9743
   88SLPC  H12B 8470   0.935   5.551   2.271  0.7480  0.3990 -0.9521
   88SLPC   C11 8471   0.734   5.618   2.298 -0.7808 -0.0837  0.1066
   88SLPC  H11A 8472   0.684   5.716   2.286 -0.1237  0.3696  1.0621
   88SLPC  H11B 8473   0.732   5.591   2.405 -0.5596  0.3522  0.2212
   88SLPC     P 8474   0.679   5.370   2.254  0.0586 -0.1573  0.3463
   88SLPC   O13 8475   0.564   5.308   2.182  0.6583 -0.1782  0.0508
   88SLPC   O14 8476   0.816   5.329   2.216  0.1706  0.0841  0.6033
   88SLPC   O12 8477   0.660   5.525   2.220 -0.7469  0.3242 -0.6144
   88SLPC   O11 8478   0.659   5.360   2.404 -0.0198  0.4084 -0.2892
   88SLPC    C1 8479   0.538   5.389   2.478  0.4966  0.0904  1.1001
   88SLPC    HA 8480   0.479   5.473   2.435  0.5948 -0.6699 -0.6311
   88SLPC    HB 8481   0.473   5.298   2.475  0.1180  0.3679 -0.8722
   88SLPC    C2 8482   0.569   5.427   2.629 -0.5351  0.1566  0.0378
   88SLPC    HS 8483   0.618   5.526   2.638 -0.8499  0.2027  1.5348
   88SLPC   O21 8484   0.647   5.322   2.688  0.4336 -0.2767  0.0650
   88SLPC   C21 8485   0.782   5.347   2.669  0.0212  0.2186 -0.2457
   88SLPC   O22 8486   0.831   5.443   2.615  0.1578  0.0008 -0.0760
   88SLPC   C22 8487   0.857   5.250   2.744  0.1974  0.0890 -0.5870
   88SLPC   H2R 8488   0.804   5.153   2.737 -0.8106  0.5111  0.6112
   88SLPC   H2S 8489   0.958   5.245   2.698  0.0027  2.3844 -1.4124
   88SLPC    C3 8490   0.437   5.448   2.707 -0.6430 -0.6246 -0.2701
   88SLPC    HX 8491   0.365   5.369   2.677 -1.5608 -0.0053  0.2443
   88SLPC    HY 8492   0.396   5.545   2.671  0.6198  0.0151 -0.0358
   88SLPC   O31 8493   0.466   5.439   2.847  0.1072  0.6160 -0.0600
   88SLPC   C31 8494   0.369   5.485   2.929 -0.0660 -0.0921 -0.1344
   88SLPC   O32 8495   0.266   5.534   2.891 -0.2103 -0.2958 -0.6303
   88SLPC   C32 8496   0.410   5.469   3.071 -0.0759 -0.0817 -0.5919
   88SLPC   H2X 8497   0.326   5.509   3.131  0.6350  0.3414  0.1350
   88SLPC   H2Y 8498   0.494   5.538   3.091 -0.0106 -0.3415  0.0628
   88SLPC   C23 8499   0.860   5.288   2.896  0.1164 -0.6302 -0.1108
   88SLPC   H3R 8500   0.759   5.312   2.936 -0.0348 -1.8004  0.2722
   88SLPC   H3S 8501   0.922   5.379   2.904 -4.5736  2.8161  0.8485
   88SLPC   C24 8502   0.909   5.182   2.992 -0.2385  0.0020  0.2913
   88SLPC   H4R 8503   0.992   5.134   2.936  0.0192 -1.0517  1.5504
   88SLPC   H4S 8504   0.832   5.104   3.011 -0.8615  0.4632 -0.2980
   88SLPC   C25 8505   0.961   5.225   3.132 -0.8312  0.8238  0.3763
   88SLPC   H5R 8506   1.051   5.290   3.125  0.5949 -1.1371 -0.4189
   88SLPC   H5S 8507   1.009   5.133   3.171 -3.9880 -0.3631  1.8069
   88SLPC   C26 8508   0.859   5.268   3.233  0.5382  0.0985 -0.1249
   88SLPC   H6R 8509   0.771   5.200   3.228  0.7856 -0.1377 -2.6629
   88SLPC   H6S 8510   0.824   5.370   3.206  1.8868  0.5403 -0.2736
   88SLPC   C27 8511   0.929   5.268   3.371  0.3888 -0.5873 -0.6344
   88SLPC   H7R 8512   1.026   5.321   3.363  1.2395 -0.2160  6.1308
   88SLPC   H7S 8513   0.958   5.167   3.405  0.1436 -0.9037 -1.3542
   88SLPC   C28 8514   0.852   5.330   3.484  0.3890  0.1220  0.2931
   88SLPC   H8R 8515   0.918   5.335   3.573  0.7186  0.4830  0.0347
   88SLPC   H8S 8516   0.761   5.276   3.516 -0.8961  1.4975 -0.8887
   88SLPC   C29 8517   0.809   5.473   3.460  0.4699 -0.4583  0.8007
   88SLPC   H9R 8518   0.749   5.491   3.370 -2.4181 -2.5453  2.1377
   88SLPC  C210 8519   0.837   5.585   3.530  0.4975 -0.3248  0.1642
   88SLPC  H10R 8520   0.806   5.681   3.486 -0.7384 -1.3836 -1.3617
   88SLPC  C211 8521   0.940   5.594   3.641  0.3812  0.3449 -0.7468
   88SLPC  H11R 8522   1.012   5.510   3.633 -0.5610 -0.8241  1.8757
   88SLPC  H11S 8523   0.882   5.578   3.734  2.2600  0.5435  0.5288
   88SLPC  C212 8524   1.008   5.727   3.636  0.4590  0.3867 -0.4793
   88SLPC  H12R 8525   1.013   5.776   3.538 -0.9734 -3.8688 -2.9627
   88SLPC  C213 8526   1.081   5.783   3.734 -0.5096 -0.0912  0.8752
   88SLPC  H13R 8527   1.116   5.886   3.713 -0.6110  0.0404  1.3478
   88SLPC  C214 8528   1.096   5.734   3.872  1.0857  0.4586  0.3808
   88SLPC  H14R 8529   1.053   5.631   3.879 -1.1039  1.0968 -2.1083
   88SLPC  H14S 8530   1.047   5.800   3.947 -2.6253 -0.3912 -1.0701
   88SLPC  C215 8531   1.242   5.714   3.915  0.4598  0.2141  0.1553
   88SLPC  H15R 8532   1.244   5.656   4.010  1.0286  1.3970  0.8966
   88SLPC  H15S 8533   1.288   5.815   3.928  0.1497  0.3076  0.5703
   88SLPC  C216 8534   1.333   5.630   3.827 -0.4180  0.7389  0.5219
   88SLPC  H16R 8535   1.354   5.688   3.735  1.1233 -1.0341 -0.3184
   88SLPC  H16S 8536   1.287   5.534   3.794  0.9203  0.1472  0.3049
   88SLPC  C217 8537   1.471   5.592   3.885 -0.2703  0.1523 -0.1718
   88SLPC  H17R 8538   1.537   5.552   3.805 -0.4938 -0.7073  0.0554
   88SLPC  H17S 8539   1.453   5.514   3.963 -0.8616  0.3432 -0.1138
   88SLPC  C218 8540   1.539   5.719   3.938 -0.5897  0.3618  0.2570
   88SLPC  H18R 8541   1.644   5.697   3.967 -1.3040 -0.9129  2.0713
   88SLPC  H18S 8542   1.489   5.761   4.028 -0.3369  0.0706  0.5388
   88SLPC  H18T 8543   1.533   5.811   3.876 -1.9929  0.5907  0.6973
   88SLPC   C33 8544   0.436   5.323   3.109 -0.3613  0.0604 -0.2187
   88SLPC   H3X 8545   0.541   5.296   3.086 -0.0691 -0.4360  1.4957
   88SLPC   H3Y 8546   0.370   5.248   3.062  0.3561 -0.8850  0.2568
   88SLPC   C34 8547   0.395   5.310   3.255 -0.7500 -0.0578 -1.1436
   88SLPC   H4X 8548   0.426   5.398   3.314  2.0203 -1.6603 -0.0397
   88SLPC   H4Y 8549   0.426   5.213   3.300  0.2381  0.9910  0.5211
   88SLPC   C35 8550   0.242   5.288   3.280  0.6435  0.5780  0.1223
   88SLPC   H5X 8551   0.239   5.259   3.387  0.8540  0.3601  0.0688
   88SLPC   H5Y 8552   0.216   5.205   3.211  3.1101  0.5410 -0.8501
   88SLPC   C36 8553   0.133   5.399   3.261 -0.2365 -0.3127  0.2066
   88SLPC   H6X 8554   0.129   5.431   3.155  3.0616  0.8703  0.3153
   88SLPC   H6Y 8555   0.178   5.478   3.326 -0.1463 -1.0846  1.1156
   88SLPC   C37 8556  -0.010   5.359   3.305 -0.1596  0.2090  0.4618
   88SLPC   H7X 8557  -0.012   5.254   3.268 -0.1686  0.2136  0.4491
   88SLPC   H7Y 8558  -0.087   5.408   3.242 -1.7182 -1.0918  1.2522
   88SLPC   C38 8559  -0.048   5.380   3.446  0.3841 -0.3018  0.1730
   88SLPC   H8X 8560  -0.094   5.480   3.458  0.8922  0.0384 -0.6301
   88SLPC   H8Y 8561   0.046   5.366   3.504 -0.0203  0.3895  1.0124
   88SLPC   C39 8562  -0.161   5.284   3.492  0.3506  0.8932 -0.7593
   88SLPC   H9X 8563  -0.177   5.287   3.602 -0.2116  0.0979 -0.8164
   88SLPC   H9Y 8564  -0.112   5.186   3.476 -1.1933  0.0839 -0.6826
   88SLPC  C310 8565  -0.285   5.303   3.413 -0.0765  0.3272  0.0358
   88SLPC  H10X 8566  -0.350   5.213   3.426  0.9950 -0.6719 -1.2202
   88SLPC  H10Y 8567  -0.260   5.313   3.305  1.4288  1.7605  0.4872
   88SLPC  C311 8568  -0.371   5.422   3.450 -0.1396  0.3305  0.5752
   88SLPC  H11X 8569  -0.475   5.408   3.413  0.1734 -0.0289 -0.2099
   88SLPC  H11Y 8570  -0.317   5.511   3.411  0.3045 -1.1739 -2.6616
   88SLPC  C312 8571  -0.377   5.449   3.593 -0.2813  0.2368 -0.0189
   88SLPC  H12X 8572  -0.442   5.535   3.622  0.2292  0.8378 -0.6311
   88SLPC  H12Y 8573  -0.277   5.468   3.637 -1.7361  0.3475  3.6772
   88SLPC  C313 8574  -0.433   5.334   3.674  0.1423  0.0856 -0.6549
   88SLPC  H13X 8575  -0.378   5.239   3.655  0.1082 -0.5719  2.1817
   88SLPC  H13Y 8576  -0.539   5.312   3.650 -0.2409 -0.6830  1.5164
   88SLPC  C314 8577  -0.420   5.362   3.827 -0.1870  0.2366  0.4204
   88SLPC  H14X 8578  -0.450   5.466   3.855 -0.1691 -0.3787  2.9255
   88SLPC  H14Y 8579  -0.313   5.360   3.859 -0.3329 -2.6442  0.9442
   88SLPC  C315 8580  -0.511   5.275   3.915  0.3895  0.7392 -0.3218
   88SLPC  H15X 8581  -0.616   5.295   3.884 -0.0653 -0.9672  0.0006
   88SLPC  H15Y 8582  -0.505   5.291   4.025 -2.4066  0.9923 -0.1259
   88SLPC  C316 8583  -0.478   5.122   3.897 -0.7975  0.3180  0.1277
   88SLPC  H16X 8584  -0.434   5.075   3.987 -1.4884  0.6449  0.6483
   88SLPC  H16Y 8585  -0.408   5.115   3.812  0.1669 -0.7114  0.9748
   88SLPC  C317 8586  -0.600   5.032   3.872 -0.6596  0.0071  0.2833
   88SLPC  H17X 8587  -0.675   5.049   3.952  0.0053 -3.3809  1.7569
   88SLPC  H17Y 8588  -0.561   4.928   3.871  1.0276  0.5818 -1.3488
   88SLPC  C318 8589  -0.680   5.052   3.742  0.1314 -1.0798 -0.2312
   88SLPC  H18X 8590  -0.615   5.050   3.652  0.1560 -2.6755 -0.2048
   88SLPC  H18Y 8591  -0.745   5.141   3.753 -0.0463 -1.1250 -0.8557
   88SLPC  H18Z 8592  -0.754   4.970   3.731 -0.2538 -1.0722  1.9297
   89SAPE     N 8593   0.682   4.148   5.960  0.3532  0.1949 -0.7096
   89SAPE   HN1 8594   0.695   4.173   5.860  0.8462  2.2752 -0.1703
   89SAPE   HN2 8595   0.774   4.107   5.983  0.0696 -0.5197 -0.8269
   89SAPE   HN3 8596   0.617   4.068   5.972  0.9031  0.0329  1.4255
   89SAPE   C12 8597   0.643   4.262   6.053  0.6776 -0.1038  0.3663
   89SAPE  H12A 8598   0.625   4.229   6.157 -1.6075 -1.6270 -0.4430
   89SAPE  H12B 8599   0.539   4.290   6.024  0.7277 -0.5662 -0.2906
   89SAPE   C11 8600   0.730   4.394   6.039 -0.1361  0.4829  0.8541
   89SAPE  H11A 8601   0.667   4.482   6.064 -1.4773 -0.4192  0.7530
   89SAPE  H11B 8602   0.758   4.412   5.932 -0.6785  1.9325  0.9277
   89SAPE     P 8603   0.958   4.296   6.159 -0.1515 -0.2912  0.2997
   89SAPE   O13 8604   1.043   4.352   6.268  0.0294  0.1902  0.6269
   89SAPE   O14 8605   0.898   4.173   6.201  0.4205  0.4498  0.2394
   89SAPE   O12 8606   0.847   4.398   6.115 -0.1667 -0.1521  0.3031
   89SAPE   O11 8607   1.033   4.273   6.022 -0.4635  0.6292  0.2314
   89SAPE    C1 8608   1.087   4.391   5.965  0.3360 -0.1900 -0.9926
   89SAPE    HA 8609   1.003   4.461   5.942 -0.0358 -1.1604 -2.7321
   89SAPE    HB 8610   1.146   4.453   6.036  2.1084  0.0507 -2.5753
   89SAPE    C2 8611   1.148   4.365   5.831 -0.3757 -0.1755 -0.7028
   89SAPE    HS 8612   1.252   4.331   5.855 -0.9612 -1.4595  0.1368
   89SAPE   O21 8613   1.146   4.493   5.772 -0.7718 -0.6924  0.5319
   89SAPE   C21 8614   1.245   4.574   5.805 -0.7149  0.6278 -0.3515
   89SAPE   O22 8615   1.331   4.548   5.891  0.4493 -0.1608  0.3090
   89SAPE   C22 8616   1.247   4.697   5.717 -0.7967 -0.4540 -0.5491
   89SAPE   H2R 8617   1.191   4.677   5.622 -1.1870  1.0741 -0.6723
   89SAPE   H2S 8618   1.181   4.766   5.774 -0.9595 -1.5875  0.6675
   89SAPE    C3 8619   1.069   4.266   5.742 -0.0975 -0.1523 -0.6920
   89SAPE    HX 8620   0.965   4.304   5.738 -1.2443 -1.5736  5.3643
   89SAPE    HY 8621   1.066   4.169   5.798  0.9789  0.1314 -0.1149
   89SAPE   O31 8622   1.130   4.246   5.617 -0.0090  0.3699  0.4190
   89SAPE   C31 8623   1.050   4.194   5.521  0.6370  0.6463  0.0594
   89SAPE   O32 8624   0.932   4.165   5.539  0.4641  0.2176 -0.7794
   89SAPE   C32 8625   1.123   4.216   5.387  0.2414 -0.1320  0.2080
   89SAPE   H2X 8626   1.224   4.179   5.412 -0.5912 -0.9644  2.7244
   89SAPE   H2Y 8627   1.124   4.326   5.367 -0.7986  0.3311  2.3614
   89SAPE   C23 8628   1.392   4.748   5.693  0.2908 -0.1165 -0.1013
   89SAPE   H3R 8629   1.461   4.670   5.653 -0.9170 -0.8856 -0.7629
   89SAPE   H3S 8630   1.428   4.791   5.788 -0.0412 -0.3241  0.1190
   89SAPE   C24 8631   1.385   4.867   5.586 -0.8743 -1.0465  0.4010
   89SAPE   H4R 8632   1.311   4.943   5.619  0.6108 -0.1689  1.8535
   89SAPE   H4S 8633   1.332   4.822   5.500  2.7792 -0.5966 -2.3116
   89SAPE   C25 8634   1.510   4.931   5.548 -0.5051 -0.2065 -0.0790
   89SAPE   H5R 8635   1.582   4.942   5.631 -1.2116  0.7122  0.4302
   89SAPE   C26 8636   1.535   4.979   5.424  0.3860 -0.1945  0.2433
   89SAPE   H6R 8637   1.636   5.013   5.396  0.9498 -1.4410  0.7057
   89SAPE   C27 8638   1.443   4.992   5.312  0.1170  0.0843  0.2884
   89SAPE   H7R 8639   1.340   4.996   5.354  1.2891  0.9359  3.2872
   89SAPE   H7S 8640   1.454   4.899   5.252  1.1605 -0.6166  1.5149
   89SAPE   C28 8641   1.470   5.119   5.237 -0.9280  0.0933  1.5695
   89SAPE   H8R 8642   1.458   5.215   5.290  1.2310  0.3519  1.6753
   89SAPE   C29 8643   1.489   5.125   5.103  0.0485 -0.2409 -0.0190
   89SAPE   H9R 8644   1.488   5.223   5.053 -0.0809 -0.2314  0.0013
   89SAPE  C210 8645   1.514   5.003   5.018 -0.1832  0.1157  0.8499
   89SAPE  H10R 8646   1.429   4.989   4.948  0.9143 -0.6562 -0.3766
   89SAPE  H10S 8647   1.511   4.906   5.072 -2.4769 -0.3653 -0.0138
   89SAPE  C211 8648   1.652   5.025   4.954 -0.8356  0.4408  0.0868
   89SAPE  H11R 8649   1.726   5.015   5.035 -1.4734  1.1750  0.7730
   89SAPE  C212 8650   1.688   5.014   4.827 -0.2753  0.5206  0.4396
   89SAPE  H12R 8651   1.793   5.036   4.802  0.1822 -0.4262  1.4600
   89SAPE  C213 8652   1.583   5.028   4.716 -0.3275 -0.3862 -0.4381
   89SAPE  H13R 8653   1.539   5.130   4.730  1.4372  0.2786  0.7652
   89SAPE  H13S 8654   1.505   4.953   4.741  1.0232 -1.3301  1.2354
   89SAPE  C214 8655   1.627   5.016   4.579 -0.2701 -0.5210  0.8616
   89SAPE  H14R 8656   1.703   5.090   4.547  0.5205 -2.4472 -2.0893
   89SAPE  C215 8657   1.584   4.932   4.479  0.7505 -0.3536  0.5117
   89SAPE  H15R 8658   1.643   4.945   4.386 -0.1168  2.5536  0.2786
   89SAPE  C216 8659   1.473   4.834   4.501  0.2105  0.7740 -0.3612
   89SAPE  H16R 8660   1.396   4.887   4.562 -1.2118  0.7735 -2.0674
   89SAPE  H16S 8661   1.502   4.746   4.563  0.7618  1.4060  0.2919
   89SAPE  C217 8662   1.389   4.795   4.377  0.2955 -0.0347 -0.0963
   89SAPE  H17R 8663   1.384   4.883   4.309 -0.0655  1.2649  1.5482
   89SAPE  H17S 8664   1.286   4.781   4.416  0.8626 -0.5073  1.2970
   89SAPE  C218 8665   1.450   4.670   4.314  0.7575  0.0444 -0.2308
   89SAPE  H18R 8666   1.457   4.599   4.399  0.1712  1.5544  1.1254
   89SAPE  H18S 8667   1.552   4.694   4.277 -0.0924  3.6159 -0.6672
   89SAPE  C219 8668   1.368   4.615   4.202  0.5812  0.1698  0.6087
   89SAPE  H19R 8669   1.348   4.689   4.122 -0.7740  0.9571  1.6167
   89SAPE  H19S 8670   1.264   4.587   4.230  0.7288 -0.4323  0.5809
   89SAPE  C220 8671   1.424   4.496   4.129  0.4460 -0.4584  0.1571
   89SAPE  H20R 8672   1.437   4.404   4.190 -0.6014 -1.1851 -0.6894
   89SAPE  H20S 8673   1.529   4.525   4.108 -0.3305  1.1189 -1.8919
   89SAPE  H20T 8674   1.365   4.478   4.037 -1.2461  4.6886 -0.0704
   89SAPE   C33 8675   1.058   4.149   5.266  0.4099  0.6523  0.7585
   89SAPE   H3X 8676   0.956   4.191   5.255  0.8374  1.6788  0.6549
   89SAPE   H3Y 8677   1.058   4.038   5.276  1.0657  0.2531 -2.4136
   89SAPE   C34 8678   1.130   4.167   5.134 -0.2908 -0.3324  0.3301
   89SAPE   H4X 8679   1.237   4.141   5.150 -0.0100  1.5429  1.9681
   89SAPE   H4Y 8680   1.127   4.275   5.105  1.9247 -0.2894  0.0685
   89SAPE   C35 8681   1.062   4.093   5.015  1.1926  0.1205  0.1274
   89SAPE   H5X 8682   0.955   4.126   5.016  0.0828 -2.9174 -2.2906
   89SAPE   H5Y 8683   1.054   3.984   5.034 -1.5992  0.1076 -0.5691
   89SAPE   C36 8684   1.119   4.110   4.875 -0.5298  0.2143  0.1397
   89SAPE   H6X 8685   1.144   4.217   4.861  0.9575  0.0291  1.1911
   89SAPE   H6Y 8686   1.039   4.090   4.799 -0.8728  1.2998  0.2040
   89SAPE   C37 8687   1.240   4.023   4.863  0.0456  0.3523  0.0877
   89SAPE   H7X 8688   1.194   3.923   4.872 -0.8553  0.8596  1.4404
   89SAPE   H7Y 8689   1.313   4.042   4.944 -0.1857 -0.7769  0.5734
   89SAPE   C38 8690   1.318   4.028   4.734  0.5948 -0.2135 -0.3608
   89SAPE   H8X 8691   1.331   4.135   4.710  0.7691 -0.6777 -2.5646
   89SAPE   H8Y 8692   1.249   3.989   4.656  0.6387 -0.9512 -0.0410
   89SAPE   C39 8693   1.450   3.955   4.738  0.1597  1.1961  0.1844
   89SAPE   H9X 8694   1.415   3.853   4.763  1.1355  1.0998  1.2349
   89SAPE   H9Y 8695   1.517   3.978   4.824  2.7998  0.3586 -1.5493
   89SAPE  C310 8696   1.528   3.934   4.604  0.8396  0.2814 -0.4417
   89SAPE  H10X 8697   1.610   3.861   4.625  1.1544  0.5405 -0.7543
   89SAPE  H10Y 8698   1.573   4.031   4.574 -1.7473  1.1911 -1.6895
   89SAPE  C311 8699   1.453   3.881   4.480 -0.3760 -0.0534 -0.4410
   89SAPE  H11X 8700   1.370   3.945   4.442  0.7339  2.1312  0.6658
   89SAPE  H11Y 8701   1.406   3.782   4.498  0.0800 -0.5384 -1.7640
   89SAPE  C312 8702   1.553   3.850   4.363  0.3478 -0.6758 -0.2380
   89SAPE  H12X 8703   1.636   3.789   4.404  1.1391 -0.0436 -0.8742
   89SAPE  H12Y 8704   1.606   3.944   4.335  0.1791  0.4095  2.7136
   89SAPE  C313 8705   1.483   3.781   4.246  0.3080 -0.3530 -0.0626
   89SAPE  H13X 8706   1.372   3.786   4.242  0.1206 -3.0081 -3.5703
   89SAPE  H13Y 8707   1.503   3.672   4.239 -0.6283 -0.5235 -0.2926
   89SAPE  C314 8708   1.534   3.840   4.116 -0.0575  0.0017  0.2047
   89SAPE  H14X 8709   1.643   3.858   4.122  0.3543 -1.5491 -1.5042
   89SAPE  H14Y 8710   1.483   3.937   4.099 -1.6755 -1.0018 -0.9998
   89SAPE  C315 8711   1.510   3.761   3.988 -0.1388  0.0034  0.1906
   89SAPE  H15X 8712   1.564   3.666   4.005  3.0351  1.7912  0.9237
   89SAPE  H15Y 8713   1.555   3.807   3.898 -0.3355  0.0673  0.1228
   89SAPE  C316 8714   1.364   3.727   3.966 -0.7314  0.2572 -0.4959
   89SAPE  H16X 8715   1.313   3.822   3.939  0.0320  0.9042  0.3193
   89SAPE  H16Y 8716   1.310   3.668   4.042 -0.6554  2.0069  0.9821
   89SAPE  C317 8717   1.345   3.651   3.830  0.4269  0.3075 -0.8522
   89SAPE  H17X 8718   1.407   3.559   3.828 -2.0557 -1.4735 -0.1559
   89SAPE  H17Y 8719   1.373   3.708   3.738  1.1138 -0.2721 -1.0094
   89SAPE  C318 8720   1.205   3.595   3.816  0.9728 -0.8291  0.2033
   89SAPE  H18X 8721   1.192   3.519   3.735  3.5708  0.8802 -2.0247
   89SAPE  H18Y 8722   1.122   3.667   3.821  0.4698 -1.4916  2.4071
   89SAPE  H18Z 8723   1.183   3.544   3.912 -0.5562  1.3330  1.0569
   90SAPE     N 8724   2.098   3.544   6.421 -0.4110 -0.0294  0.2980
   90SAPE   HN1 8725   2.065   3.592   6.507  3.4319  1.3073  1.2271
   90SAPE   HN2 8726   2.129   3.449   6.452  0.3171  0.1154  0.0129
   90SAPE   HN3 8727   2.179   3.597   6.385  0.1888 -1.2911 -0.2702
   90SAPE   C12 8728   1.988   3.526   6.323 -0.0574 -0.2984  0.5271
   90SAPE  H12A 8729   1.910   3.455   6.356 -0.6924 -0.0643 -0.4138
   90SAPE  H12B 8730   2.039   3.482   6.234  3.5954 -1.2603  2.8907
   90SAPE   C11 8731   1.931   3.658   6.287 -0.3803  0.0398  0.3918
   90SAPE  H11A 8732   1.841   3.637   6.225 -1.4425 -1.4693  2.3105
   90SAPE  H11B 8733   2.007   3.705   6.222 -1.8388  2.0614  0.0365
   90SAPE     P 8734   1.768   3.736   6.473  0.1198  0.0923  0.5145
   90SAPE   O13 8735   1.735   3.595   6.492  0.4145 -0.0110 -0.1084
   90SAPE   O14 8736   1.782   3.818   6.597 -0.0130  0.2032 -0.6808
   90SAPE   O12 8737   1.906   3.751   6.394 -0.0034  0.7448  0.3098
   90SAPE   O11 8738   1.669   3.798   6.378  0.4365 -0.1501 -0.2690
   90SAPE    C1 8739   1.646   3.933   6.356  0.0189  0.1358 -0.6069
   90SAPE    HA 8740   1.557   3.958   6.417 -0.2584  2.4395 -1.8216
   90SAPE    HB 8741   1.732   4.000   6.379  1.2684 -1.2270 -1.1202
   90SAPE    C2 8742   1.624   3.960   6.211 -0.5151 -0.7873 -0.1881
   90SAPE    HS 8743   1.602   4.068   6.212 -2.0035 -1.0214  2.7825
   90SAPE   O21 8744   1.524   3.869   6.165  0.0170  0.2701  0.1030
   90SAPE   C21 8745   1.397   3.905   6.177 -0.1695 -0.6295 -0.7809
   90SAPE   O22 8746   1.359   4.010   6.230  0.3741  0.0981 -0.8540
   90SAPE   C22 8747   1.307   3.806   6.116 -0.4248  1.3208  0.1482
   90SAPE   H2R 8748   1.366   3.729   6.062  0.5472  0.6449  2.0530
   90SAPE   H2S 8749   1.258   3.751   6.200  0.0490  1.8682  0.7888
   90SAPE    C3 8750   1.762   3.956   6.132 -0.8404 -0.2582  0.6004
   90SAPE    HX 8751   1.799   3.851   6.123  1.1736  0.4624 -0.1865
   90SAPE    HY 8752   1.834   4.014   6.193 -0.5539  0.5146 -0.4375
   90SAPE   O31 8753   1.751   3.998   5.994  0.1494  0.0881  0.8289
   90SAPE   C31 8754   1.754   4.133   5.979  0.0932  0.7564  0.1241
   90SAPE   O32 8755   1.776   4.211   6.071 -0.6721  0.3102 -0.4297
   90SAPE   C32 8756   1.711   4.166   5.834  0.2698  0.1305  0.1763
   90SAPE   H2X 8757   1.741   4.082   5.768  1.3580  0.5896  0.0620
   90SAPE   H2Y 8758   1.774   4.251   5.800 -0.8814  0.4436 -1.2957
   90SAPE   C23 8759   1.208   3.857   6.001  0.1133 -0.2753 -0.7148
   90SAPE   H3R 8760   1.167   3.958   6.023  1.0141  0.0330 -0.3925
   90SAPE   H3S 8761   1.126   3.785   6.019  1.1915 -1.1096  1.1793
   90SAPE   C24 8762   1.272   3.850   5.861 -0.0551  0.3393  1.1663
   90SAPE   H4R 8763   1.308   3.747   5.843 -1.9146 -0.0035 -0.8859
   90SAPE   H4S 8764   1.355   3.924   5.857 -0.4393  0.7157 -2.0791
   90SAPE   C25 8765   1.184   3.878   5.746 -0.3666  0.7185  0.9183
   90SAPE   H5R 8766   1.096   3.941   5.766  0.9054  3.0398 -0.2683
   90SAPE   C26 8767   1.198   3.827   5.614 -0.4336 -0.5519 -0.2500
   90SAPE   H6R 8768   1.137   3.874   5.535 -2.8683 -2.0407  0.6213
   90SAPE   C27 8769   1.317   3.738   5.572  1.0719 -0.3125 -0.3737
   90SAPE   H7R 8770   1.312   3.642   5.628  3.1132 -0.0688  0.3136
   90SAPE   H7S 8771   1.410   3.787   5.609  1.3680  0.8489 -2.4932
   90SAPE   C28 8772   1.325   3.729   5.418  0.2029 -0.1832 -0.3805
   90SAPE   H8R 8773   1.266   3.647   5.374 -2.0135 -1.1356  3.8122
   90SAPE   C29 8774   1.393   3.793   5.330  0.3577 -0.0315  0.1076
   90SAPE   H9R 8775   1.383   3.767   5.224 -0.1982  1.8741 -0.3616
   90SAPE  C210 8776   1.490   3.905   5.355  0.2783 -0.4353 -0.1527
   90SAPE  H10R 8777   1.592   3.862   5.345 -0.3289 -1.8848 -0.2708
   90SAPE  H10S 8778   1.489   3.931   5.463 -0.6794 -1.3149  0.0559
   90SAPE  C211 8779   1.491   4.026   5.266 -0.0388 -0.4783  0.1954
   90SAPE  H11R 8780   1.411   4.031   5.191 -0.4486  2.0012  0.7226
   90SAPE  C212 8781   1.578   4.127   5.271  0.2162 -1.1414  0.2048
   90SAPE  H12R 8782   1.536   4.212   5.214 -3.8361 -1.1167  2.8155
   90SAPE  C213 8783   1.701   4.144   5.350 -0.6745 -0.1300  0.2333
   90SAPE  H13R 8784   1.725   4.045   5.396  0.5498 -0.3570 -0.8292
   90SAPE  H13S 8785   1.694   4.207   5.441  1.2104 -2.5283  2.2073
   90SAPE  C214 8786   1.807   4.202   5.264 -0.1787  0.2228  0.8454
   90SAPE  H14R 8787   1.788   4.245   5.165  0.5683 -0.1398  0.5328
   90SAPE  C215 8788   1.940   4.193   5.289  0.7008 -0.0059  0.0008
   90SAPE  H15R 8789   2.008   4.236   5.214 -2.4463  2.6973 -1.5683
   90SAPE  C216 8790   2.012   4.153   5.420 -0.5757 -0.4800  0.9862
   90SAPE  H16R 8791   1.945   4.163   5.508 -0.5630  1.6588  0.8265
   90SAPE  H16S 8792   2.094   4.225   5.443  0.7120 -0.9931 -1.5723
   90SAPE  C217 8793   2.076   4.022   5.406 -1.1095 -0.7055  0.2258
   90SAPE  H17R 8794   2.012   3.940   5.369  0.1289 -2.3064  1.4828
   90SAPE  H17S 8795   2.120   3.993   5.504  0.1892  1.4043  0.3460
   90SAPE  C218 8796   2.204   4.022   5.315 -0.8834 -0.8895 -0.0340
   90SAPE  H18R 8797   2.271   4.108   5.333 -0.6736 -1.1045  0.2097
   90SAPE  H18S 8798   2.170   4.010   5.210 -0.7453 -3.8172  0.1746
   90SAPE  C219 8799   2.288   3.896   5.345 -0.3540 -0.3671 -1.1195
   90SAPE  H19R 8800   2.223   3.807   5.331 -1.4339 -0.2833  2.3541
   90SAPE  H19S 8801   2.308   3.896   5.454  0.1077 -1.4981 -1.1979
   90SAPE  C220 8802   2.430   3.867   5.282 -0.0933 -0.1371 -0.0806
   90SAPE  H20R 8803   2.424   3.826   5.179  1.8324 -1.1008  0.1371
   90SAPE  H20S 8804   2.486   3.787   5.335 -1.1294  0.4210  1.9791
   90SAPE  H20T 8805   2.503   3.951   5.284  2.9815 -2.6035  2.1007
   90SAPE   C33 8806   1.562   4.204   5.826 -0.3647  0.8406  0.7908
   90SAPE   H3X 8807   1.535   4.299   5.876 -0.5173  1.2838 -0.0974
   90SAPE   H3Y 8808   1.491   4.128   5.867 -0.5124  0.1137 -0.7289
   90SAPE   C34 8809   1.507   4.219   5.676 -0.2027  0.1220  0.2313
   90SAPE   H4X 8810   1.396   4.209   5.683  0.0649 -2.3115  2.3713
   90SAPE   H4Y 8811   1.542   4.126   5.626 -1.0980  0.2570 -0.7022
   90SAPE   C35 8812   1.541   4.360   5.603 -0.0725 -0.2074 -0.7398
   90SAPE   H5X 8813   1.636   4.356   5.546  0.5519  0.8197  0.1891
   90SAPE   H5Y 8814   1.551   4.442   5.678  0.6714 -0.8879 -0.0687
   90SAPE   C36 8815   1.438   4.404   5.490  0.0852 -0.0537 -0.0081
   90SAPE   H6X 8816   1.347   4.440   5.542  0.1573  0.5074 -0.2719
   90SAPE   H6Y 8817   1.394   4.314   5.442 -3.3223  0.7986  1.2434
   90SAPE   C37 8818   1.488   4.496   5.382 -0.2900 -0.6680  0.1156
   90SAPE   H7X 8819   1.561   4.431   5.329  0.0382 -0.6191  0.5043
   90SAPE   H7Y 8820   1.530   4.582   5.439 -0.3028  1.3450 -2.6940
   90SAPE   C38 8821   1.373   4.563   5.300  0.3947  0.1187 -0.2348
   90SAPE   H8X 8822   1.327   4.634   5.371  0.6135 -0.1346  0.1668
   90SAPE   H8Y 8823   1.295   4.485   5.286  0.1864  0.3341 -0.2771
   90SAPE   C39 8824   1.412   4.628   5.166 -0.0723 -0.2125  0.0960
   90SAPE   H9X 8825   1.468   4.721   5.191 -0.1317  0.1623 -1.1072
   90SAPE   H9Y 8826   1.326   4.667   5.108  0.2643  1.5407  0.6932
   90SAPE  C310 8827   1.492   4.548   5.071 -0.1698  0.0765 -0.6986
   90SAPE  H10X 8828   1.439   4.454   5.047  0.0159 -0.1284 -0.3199
   90SAPE  H10Y 8829   1.592   4.538   5.118 -0.0798 -0.5043 -1.0037
   90SAPE  C311 8830   1.520   4.619   4.936 -0.4596 -0.6214 -0.0381
   90SAPE  H11X 8831   1.573   4.713   4.962  1.2909 -1.3784 -0.7164
   90SAPE  H11Y 8832   1.425   4.649   4.887  0.1984 -0.2124 -1.1053
   90SAPE  C312 8833   1.608   4.546   4.844 -0.0290  0.3155 -0.4056
   90SAPE  H12X 8834   1.695   4.507   4.900  0.5165 -1.2463 -2.2357
   90SAPE  H12Y 8835   1.634   4.603   4.752 -0.6858 -3.0131 -2.8428
   90SAPE  C313 8836   1.531   4.431   4.785  0.8739  0.3731  0.1140
   90SAPE  H13X 8837   1.438   4.453   4.728  1.0726  1.0208  0.0328
   90SAPE  H13Y 8838   1.496   4.366   4.867  1.0600 -0.1159 -0.1876
   90SAPE  C314 8839   1.615   4.341   4.688 -0.5052  0.4611 -0.8153
   90SAPE  H14X 8840   1.534   4.290   4.632 -1.5599  0.8230  0.3244
   90SAPE  H14Y 8841   1.669   4.264   4.746  0.2635  0.8250 -1.0309
   90SAPE  C315 8842   1.697   4.425   4.585 -0.6669 -0.2369  0.1409
   90SAPE  H15X 8843   1.776   4.480   4.640 -1.1798  0.7754 -0.1018
   90SAPE  H15Y 8844   1.617   4.491   4.543  0.2689  1.9759  1.6540
   90SAPE  C316 8845   1.750   4.330   4.477  0.9857  0.3533  0.2209
   90SAPE  H16X 8846   1.683   4.244   4.458 -0.0765  1.4519 -1.2415
   90SAPE  H16Y 8847   1.849   4.289   4.505 -0.3203 -3.5292 -0.2676
   90SAPE  C317 8848   1.760   4.410   4.343 -0.0073  0.2474 -0.0727
   90SAPE  H17X 8849   1.808   4.508   4.361 -1.4083  1.4718 -2.4236
   90SAPE  H17Y 8850   1.663   4.445   4.301 -0.2403  1.9098  1.6954
   90SAPE  C318 8851   1.831   4.343   4.225  0.2030  0.4585 -0.1859
   90SAPE  H18X 8852   1.937   4.327   4.256 -0.0283  0.3587  0.5814
   90SAPE  H18Y 8853   1.834   4.407   4.134  2.2520  0.4733 -0.1644
   90SAPE  H18Z 8854   1.784   4.249   4.190  0.3580 -0.3888  1.7450
   91SAPE     N 8855   5.367   0.422   6.726  0.2438  0.3220 -0.7023
   91SAPE   HN1 8856   5.308   0.390   6.805 -0.5338 -0.7979 -1.6954
   91SAPE   HN2 8857   5.465   0.419   6.760 -0.0351 -1.2714  0.0375
   91SAPE   HN3 8858   5.330   0.516   6.699 -3.0132 -0.6470  0.0229
   91SAPE   C12 8859   5.361   0.323   6.609 -0.0184 -0.0319 -0.4356
   91SAPE  H12A 8860   5.391   0.226   6.653  0.3051  0.8549  1.4140
   91SAPE  H12B 8861   5.432   0.369   6.536  0.4636  0.2884  0.2219
   91SAPE   C11 8862   5.217   0.333   6.549 -0.4378  0.2228  0.7296
   91SAPE  H11A 8863   5.203   0.284   6.450  1.5646  2.7674 -0.9506
   91SAPE  H11B 8864   5.202   0.438   6.518  2.1567  0.3357 -0.3931
   91SAPE     P 8865   4.974   0.238   6.623 -0.0636 -0.0715  0.0395
   91SAPE   O13 8866   4.921   0.169   6.745 -0.5999 -0.1036 -0.0709
   91SAPE   O14 8867   4.891   0.354   6.580  0.3400 -0.4786 -0.4111
   91SAPE   O12 8868   5.122   0.297   6.653  0.2224 -0.2871  0.8598
   91SAPE   O11 8869   4.997   0.136   6.512  0.1534  0.0839 -0.2531
   91SAPE    C1 8870   5.067   0.016   6.521 -0.6051  0.7503 -0.5996
   91SAPE    HA 8871   5.171   0.040   6.550 -1.5172  1.2485  2.6511
   91SAPE    HB 8872   5.030  -0.046   6.605 -1.5949 -0.4097 -1.8364
   91SAPE    C2 8873   5.077  -0.064   6.395  0.2055 -0.8680  0.9126
   91SAPE    HS 8874   5.120  -0.166   6.395  1.2218 -0.4713 -0.3599
   91SAPE   O21 8875   5.138   0.021   6.293 -0.1157 -0.0386 -0.2183
   91SAPE   C21 8876   5.266   0.020   6.284 -0.9610 -0.2341  0.2127
   91SAPE   O22 8877   5.343  -0.032   6.363 -0.1437 -0.0880 -0.4290
   91SAPE   C22 8878   5.318   0.089   6.161  0.2551 -0.7307 -0.0428
   91SAPE   H2R 8879   5.273   0.191   6.158  0.7622 -0.5057 -0.0105
   91SAPE   H2S 8880   5.428   0.091   6.176 -0.1486 -0.5599  4.3626
   91SAPE    C3 8881   4.934  -0.077   6.340  0.2884 -0.0724 -0.2152
   91SAPE    HX 8882   4.895   0.027   6.329  1.1990  0.3691  0.5344
   91SAPE    HY 8883   4.874  -0.132   6.416  0.2178 -2.1677 -1.7084
   91SAPE   O31 8884   4.940  -0.146   6.212  0.4892  0.0145 -0.1875
   91SAPE   C31 8885   4.837  -0.212   6.181  0.9061 -1.1052  0.1800
   91SAPE   O32 8886   4.731  -0.219   6.250  0.2026 -0.4264 -0.4706
   91SAPE   C32 8887   4.856  -0.303   6.054 -0.1024  0.0135 -0.1036
   91SAPE   H2X 8888   4.765  -0.366   6.048  0.5623 -0.8915 -1.0587
   91SAPE   H2Y 8889   4.946  -0.366   6.072  2.3105  2.9453 -1.1030
   91SAPE   C23 8890   5.304   0.003   6.038 -0.8097 -0.7815  0.3119
   91SAPE   H3R 8891   5.197  -0.027   6.032 -0.5790 -1.3766 -3.7703
   91SAPE   H3S 8892   5.372  -0.084   6.051 -0.0278 -0.4632 -1.4263
   91SAPE   C24 8893   5.353   0.075   5.909  0.7386  0.0777  0.1047
   91SAPE   H4R 8894   5.463   0.072   5.920  0.7471  0.0427  0.0155
   91SAPE   H4S 8895   5.328   0.183   5.918  1.4068  0.2461 -0.0082
   91SAPE   C25 8896   5.313   0.009   5.781 -0.0408 -0.0681 -1.1741
   91SAPE   H5R 8897   5.204   0.004   5.768 -0.6323 -3.0264  3.0629
   91SAPE   C26 8898   5.398  -0.042   5.691  0.2639  0.8450  0.6058
   91SAPE   H6R 8899   5.366  -0.081   5.593  1.5032 -1.9714  1.2138
   91SAPE   C27 8900   5.546  -0.060   5.710 -0.1643  0.3739 -0.6911
   91SAPE   H7R 8901   5.568  -0.072   5.819 -0.5694  0.1600 -0.6285
   91SAPE   H7S 8902   5.596   0.029   5.666 -1.3282  0.7872 -1.2134
   91SAPE   C28 8903   5.601  -0.189   5.652  0.4458 -0.0158  0.2511
   91SAPE   H8R 8904   5.560  -0.276   5.707 -2.5017  1.5212  0.6764
   91SAPE   C29 8905   5.680  -0.208   5.549  0.3424  0.5637 -0.1807
   91SAPE   H9R 8906   5.707  -0.309   5.513  1.2943  1.2556 -1.5164
   91SAPE  C210 8907   5.730  -0.105   5.456  0.1912  0.8200 -1.1557
   91SAPE  H10R 8908   5.741  -0.005   5.503 -0.3723  1.8054 -3.0208
   91SAPE  H10S 8909   5.653  -0.090   5.378 -0.1138 -2.8670 -1.7617
   91SAPE  C211 8910   5.861  -0.144   5.387  0.1840  0.1338  0.3314
   91SAPE  H11R 8911   5.906  -0.238   5.422  0.3770  1.1956  3.1658
   91SAPE  C212 8912   5.924  -0.076   5.290 -0.1616 -0.2468  0.5452
   91SAPE  H12R 8913   6.021  -0.122   5.266 -1.0360 -1.8015 -0.1623
   91SAPE  C213 8914   5.884   0.056   5.229 -0.9104  0.3441 -0.4609
   91SAPE  H13R 8915   5.977   0.116   5.215 -0.0113 -0.9403 -0.1410
   91SAPE  H13S 8916   5.829   0.116   5.305  0.0792 -1.7150  2.0219
   91SAPE  C214 8917   5.819   0.052   5.095  0.2179  0.1704 -0.5603
   91SAPE  H14R 8918   5.732  -0.016   5.098 -0.6719  1.2843  1.0411
   91SAPE  C215 8919   5.835   0.123   4.981 -0.3016  0.2780 -0.1074
   91SAPE  H15R 8920   5.765   0.113   4.897  0.2956  3.4618 -1.1085
   91SAPE  C216 8921   5.931   0.236   4.969  0.4444  0.3572  0.5103
   91SAPE  H16R 8922   6.002   0.224   4.884 -0.1486  2.4043 -0.3106
   91SAPE  H16S 8923   5.981   0.252   5.066 -1.2772  1.8796  1.2090
   91SAPE  C217 8924   5.842   0.362   4.937 -0.5933  0.0673  0.0442
   91SAPE  H17R 8925   5.921   0.433   4.971  1.6285 -1.6276 -1.2689
   91SAPE  H17S 8926   5.755   0.376   5.004 -0.3155  1.5036  0.1411
   91SAPE  C218 8927   5.799   0.367   4.791 -0.0404 -0.9444 -0.1236
   91SAPE  H18R 8928   5.705   0.310   4.777 -0.9907  0.6499 -0.4096
   91SAPE  H18S 8929   5.862   0.312   4.718 -0.2434 -2.5622  0.8594
   91SAPE  C219 8930   5.772   0.513   4.740 -0.0804  0.4598 -0.2039
   91SAPE  H19R 8931   5.843   0.584   4.788 -0.0936  0.4796 -0.2135
   91SAPE  H19S 8932   5.665   0.534   4.761 -0.3111 -1.5900  0.9973
   91SAPE  C220 8933   5.776   0.520   4.592 -0.0034 -0.9353 -0.1879
   91SAPE  H20R 8934   5.745   0.620   4.554  1.2635 -1.3078 -2.3563
   91SAPE  H20S 8935   5.702   0.458   4.539 -0.5564  0.4629 -1.1254
   91SAPE  H20T 8936   5.877   0.499   4.551  1.2262  1.8562  1.1115
   91SAPE   C33 8937   4.889  -0.224   5.923  0.0587  0.5034  0.0978
   91SAPE   H3X 8938   4.994  -0.190   5.936 -0.3633  0.8275  4.0886
   91SAPE   H3Y 8939   4.840  -0.124   5.920  0.6751  0.8695  1.2048
   91SAPE   C34 8940   4.885  -0.321   5.803 -0.4832  0.0354 -0.4252
   91SAPE   H4X 8941   4.776  -0.331   5.781 -0.3362 -1.3439 -0.5624
   91SAPE   H4Y 8942   4.916  -0.423   5.834  1.3566  0.7842  0.2928
   91SAPE   C35 8943   4.955  -0.267   5.675 -0.3326 -0.3400  1.2052
   91SAPE   H5X 8944   5.066  -0.276   5.680 -0.2431 -1.3067 -1.0452
   91SAPE   H5Y 8945   4.942  -0.157   5.666  1.5230 -0.2153 -0.6808
   91SAPE   C36 8946   4.911  -0.344   5.549  0.1061 -0.8233 -0.0828
   91SAPE   H6X 8947   4.803  -0.370   5.556  0.4064 -2.4643 -0.9879
   91SAPE   H6Y 8948   4.973  -0.435   5.535  0.5179 -0.8120  1.4778
   91SAPE   C37 8949   4.949  -0.253   5.423 -0.0556 -0.0150 -0.1366
   91SAPE   H7X 8950   5.059  -0.252   5.403  0.0897  0.3099  0.6579
   91SAPE   H7Y 8951   4.917  -0.147   5.430 -2.1703 -0.4941 -1.7321
   91SAPE   C38 8952   4.896  -0.305   5.288  0.1832 -0.6148 -0.2928
   91SAPE   H8X 8953   4.789  -0.336   5.284 -0.7129  1.9677  1.2256
   91SAPE   H8Y 8954   4.957  -0.386   5.242 -0.0874  0.4162 -2.6029
   91SAPE   C39 8955   4.914  -0.186   5.184 -0.7912  0.0528 -0.1233
   91SAPE   H9X 8956   5.022  -0.159   5.183 -1.2941  2.2558 -0.9381
   91SAPE   H9Y 8957   4.866  -0.095   5.224 -2.6891 -1.1164  0.3538
   91SAPE  C310 8958   4.875  -0.236   5.045  0.0450 -0.4093  0.1390
   91SAPE  H10X 8959   4.768  -0.266   5.043  0.3501 -1.6400 -2.4185
   91SAPE  H10Y 8960   4.944  -0.322   5.032  0.8239 -0.0771  1.7603
   91SAPE  C311 8961   4.906  -0.121   4.944 -0.5693  0.5505  0.0860
   91SAPE  H11X 8962   5.015  -0.100   4.937 -0.9123  1.6525 -3.0589
   91SAPE  H11Y 8963   4.849  -0.027   4.957 -0.7042  0.5889 -0.7444
   91SAPE  C312 8964   4.874  -0.177   4.801 -0.6968  0.3707 -0.5729
   91SAPE  H12X 8965   4.771  -0.156   4.765 -0.7539  0.2060 -0.5056
   91SAPE  H12Y 8966   4.880  -0.288   4.805 -2.1495  0.2989  0.4308
   91SAPE  C313 8967   4.972  -0.119   4.697  0.1128 -0.1172 -0.3214
   91SAPE  H13X 8968   5.073  -0.140   4.738 -0.7264 -1.3106  1.2454
   91SAPE  H13Y 8969   4.959  -0.009   4.682 -0.7993 -0.0732  0.6989
   91SAPE  C314 8970   4.965  -0.192   4.553  0.1497  0.0635  0.2505
   91SAPE  H14X 8971   4.863  -0.178   4.513 -0.0124  0.7175  0.8723
   91SAPE  H14Y 8972   4.979  -0.302   4.563  0.0630 -0.0117 -0.4168
   91SAPE  C315 8973   5.054  -0.126   4.443  0.3025  0.3163  0.2119
   91SAPE  H15X 8974   5.039  -0.198   4.360 -0.8297 -1.4239  1.8460
   91SAPE  H15Y 8975   5.159  -0.116   4.477  0.0933  0.8048  0.7552
   91SAPE  C316 8976   4.988   0.010   4.401  0.5712  0.2253 -0.1873
   91SAPE  H16X 8977   5.014   0.087   4.478 -0.5123 -1.6374  2.1593
   91SAPE  H16Y 8978   4.878   0.001   4.394  0.4305  0.5001  1.3047
   91SAPE  C317 8979   5.049   0.061   4.270  0.1830 -0.2090  0.8166
   91SAPE  H17X 8980   5.026  -0.016   4.193 -1.9652  1.5362 -0.4070
   91SAPE  H17Y 8981   5.160   0.057   4.279  0.5563 -1.9961 -2.8754
   91SAPE  C318 8982   4.989   0.198   4.232  0.6468 -0.3233  0.8426
   91SAPE  H18X 8983   4.981   0.267   4.319 -2.7904 -2.9570  2.9013
   91SAPE  H18Y 8984   4.883   0.180   4.204 -0.2733  2.9342  1.8530
   91SAPE  H18Z 8985   5.035   0.248   4.144 -0.0620  0.6949  1.0279
   92SAPE     N 8986   6.524   6.568   6.640 -0.3293  0.5434  0.1931
   92SAPE   HN1 8987   6.556   6.558   6.542 -1.3706 -0.3894 -0.0786
   92SAPE   HN2 8988   6.599   6.623   6.687 -0.4623 -0.3741  1.5631
   92SAPE   HN3 8989   6.513   6.472   6.680  1.7070 -0.5315 -1.6263
   92SAPE   C12 8990   6.395   6.632   6.653  0.1027 -0.9599  0.5300
   92SAPE  H12A 8991   6.406   6.742   6.638  0.9248 -0.8190  1.9661
   92SAPE  H12B 8992   6.367   6.616   6.759 -0.4245 -1.4532  0.3179
   92SAPE   C11 8993   6.298   6.568   6.556  0.1172 -0.0777  0.4735
   92SAPE  H11A 8994   6.311   6.458   6.567  0.4957 -0.2553 -1.5001
   92SAPE  H11B 8995   6.317   6.604   6.453 -2.2850  0.5033  0.1693
   92SAPE     P 8996   6.054   6.528   6.654  0.0713 -0.1881  0.1571
   92SAPE   O13 8997   6.103   6.449   6.767 -0.3452 -0.4509 -0.1530
   92SAPE   O14 8998   5.963   6.637   6.684  0.9662  0.1710  0.2062
   92SAPE   O12 8999   6.165   6.602   6.584  0.3128  0.1574 -0.3530
   92SAPE   O11 9000   5.984   6.431   6.550  0.6129 -0.0186 -0.1681
   92SAPE    C1 9001   6.047   6.333   6.471  0.3163 -0.4197 -0.6158
   92SAPE    HA 9002   6.140   6.294   6.518  0.0515  0.9704  1.1516
   92SAPE    HB 9003   5.973   6.252   6.454 -0.4609 -0.5731  2.7642
   92SAPE    C2 9004   6.079   6.396   6.332 -0.1271 -0.5622  0.1629
   92SAPE    HS 9005   6.145   6.479   6.364  2.2240 -1.9610 -0.8323
   92SAPE   O21 9006   5.965   6.448   6.259 -0.5411  0.2390 -0.2320
   92SAPE   C21 9007   5.968   6.571   6.220  0.6889 -0.2362  0.2257
   92SAPE   O22 9008   6.058   6.651   6.241 -0.0709  0.1052  0.0302
   92SAPE   C22 9009   5.849   6.602   6.125 -0.2016  0.0812 -0.4394
   92SAPE   H2R 9010   5.875   6.556   6.028  2.6048  1.9677 -0.7099
   92SAPE   H2S 9011   5.760   6.550   6.166 -1.3351  2.7417  0.7083
   92SAPE    C3 9012   6.164   6.306   6.247  0.1416  0.0680 -0.5084
   92SAPE    HX 9013   6.112   6.208   6.251 -2.9493  1.5779 -1.0794
   92SAPE    HY 9014   6.264   6.295   6.293  0.3174 -1.7494 -1.2247
   92SAPE   O31 9015   6.174   6.355   6.106  0.7161  0.1029 -0.2877
   92SAPE   C31 9016   6.281   6.315   6.040 -0.4911 -0.3766 -0.3816
   92SAPE   O32 9017   6.371   6.246   6.089  0.1464 -0.0437 -0.1283
   92SAPE   C32 9018   6.279   6.351   5.896 -0.2042 -1.0217  0.5878
   92SAPE   H2X 9019   6.377   6.316   5.855 -0.8254 -3.0272  0.6726
   92SAPE   H2Y 9020   6.274   6.461   5.891 -2.8587 -1.0687  0.7599
   92SAPE   C23 9021   5.821   6.748   6.131  0.9033 -0.0932 -0.0092
   92SAPE   H3R 9022   5.821   6.799   6.230  3.0802  2.1255 -1.0420
   92SAPE   H3S 9023   5.715   6.758   6.100  0.1359 -3.0649  1.2901
   92SAPE   C24 9024   5.904   6.834   6.038  0.2877 -0.0440 -0.4057
   92SAPE   H4R 9025   6.013   6.818   6.057 -0.0701 -3.3991 -0.5102
   92SAPE   H4S 9026   5.886   6.936   6.077 -2.0443 -0.9152  0.9924
   92SAPE   C25 9027   5.873   6.812   5.891 -0.4331  0.1684 -0.7120
   92SAPE   H5R 9028   5.775   6.855   5.866 -2.1609 -2.0337  1.6745
   92SAPE   C26 9029   5.927   6.735   5.794 -0.0075  0.0933  0.4260
   92SAPE   H6R 9030   5.880   6.752   5.696 -1.0728 -0.4094  0.8363
   92SAPE   C27 9031   6.047   6.648   5.803 -0.0217 -0.2446 -0.5328
   92SAPE   H7R 9032   6.038   6.565   5.730  0.0326 -1.6031  0.9403
   92SAPE   H7S 9033   6.048   6.594   5.901 -0.3997 -0.6938 -0.7696
   92SAPE   C28 9034   6.174   6.733   5.783 -0.2673  1.3617  0.2292
   92SAPE   H8R 9035   6.190   6.808   5.862 -0.7200  1.3887  0.2938
   92SAPE   C29 9036   6.276   6.714   5.696  0.1017  0.5726  0.1619
   92SAPE   H9R 9037   6.353   6.791   5.684  0.8458  0.1171  1.7648
   92SAPE  C210 9038   6.276   6.592   5.599 -0.3674 -0.1541  0.1224
   92SAPE  H10R 9039   6.179   6.540   5.584  1.0060 -2.7839 -0.3106
   92SAPE  H10S 9040   6.339   6.513   5.647  0.8324 -0.0963 -1.2891
   92SAPE  C211 9041   6.349   6.627   5.470 -0.2133 -0.5518 -0.3036
   92SAPE  H11R 9042   6.427   6.704   5.479 -0.4910 -0.3376  0.3806
   92SAPE  C212 9043   6.322   6.585   5.345 -0.0064 -0.6316  0.2470
   92SAPE  H12R 9044   6.397   6.614   5.270 -1.0687  0.6899 -0.3551
   92SAPE  C213 9045   6.217   6.494   5.297  0.1747 -0.0895 -0.1812
   92SAPE  H13R 9046   6.204   6.407   5.364 -0.6627 -1.3404 -1.8966
   92SAPE  H13S 9047   6.254   6.440   5.207 -0.5478 -1.6427  0.4143
   92SAPE  C214 9048   6.075   6.546   5.292 -0.1377  0.4521  0.2616
   92SAPE  H14R 9049   6.026   6.558   5.390  0.8477 -1.3044  1.0214
   92SAPE  C215 9050   6.009   6.587   5.186 -0.0954 -0.1464  0.0106
   92SAPE  H15R 9051   5.904   6.620   5.197  0.2012  0.2268  2.0052
   92SAPE  C216 9052   6.062   6.579   5.042 -0.4868 -0.0335  0.1480
   92SAPE  H16R 9053   6.004   6.510   4.977 -0.7557 -0.7011  1.0857
   92SAPE  H16S 9054   6.167   6.542   5.034 -0.4719 -0.3538  1.6154
   92SAPE  C217 9055   6.052   6.725   4.987 -0.0136 -0.1338  0.0397
   92SAPE  H17R 9056   6.134   6.794   5.016  0.6381  0.4745 -2.8972
   92SAPE  H17S 9057   5.959   6.776   5.020  0.6527  2.5280 -1.8741
   92SAPE  C218 9058   6.050   6.699   4.835 -0.1381 -0.2012  0.1669
   92SAPE  H18R 9059   5.962   6.633   4.818 -2.0878  1.8733  1.7321
   92SAPE  H18S 9060   6.149   6.654   4.812  0.1140 -0.8503  2.3545
   92SAPE  C219 9061   6.016   6.819   4.743  0.3136  0.0351 -0.0100
   92SAPE  H19R 9062   6.096   6.896   4.742  1.4896 -1.1484  0.9311
   92SAPE  H19S 9063   5.918   6.851   4.784  0.4275  0.6792 -0.2253
   92SAPE  C220 9064   5.966   6.776   4.602 -0.2499 -0.0964  0.1221
   92SAPE  H20R 9065   6.041   6.713   4.549  0.3282  0.3142  0.4530
   92SAPE  H20S 9066   5.934   6.855   4.530 -0.4660  0.0287  0.3539
   92SAPE  H20T 9067   5.871   6.718   4.610 -1.1835  1.0143 -2.0306
   92SAPE   C33 9068   6.165   6.292   5.810 -0.5187  0.2402  0.3096
   92SAPE   H3X 9069   6.176   6.326   5.704  2.0768 -3.6487 -0.8705
   92SAPE   H3Y 9070   6.064   6.311   5.853 -0.9528  0.4141 -0.7357
   92SAPE   C34 9071   6.159   6.141   5.817  0.3977 -0.2828  0.3080
   92SAPE   H4X 9072   6.076   6.108   5.752  0.7787  1.0810 -0.9273
   92SAPE   H4Y 9073   6.142   6.102   5.920  0.3910 -0.3172  0.2935
   92SAPE   C35 9074   6.292   6.075   5.782 -0.5540  0.2319  0.5165
   92SAPE   H5X 9075   6.283   5.965   5.781  1.7070  0.0031  0.5685
   92SAPE   H5Y 9076   6.354   6.081   5.875  1.3897  1.2658 -0.7805
   92SAPE   C36 9077   6.360   6.130   5.655  0.1817  0.4442 -0.0506
   92SAPE   H6X 9078   6.464   6.092   5.646  0.1191  0.6516 -2.2837
   92SAPE   H6Y 9079   6.364   6.241   5.664 -0.6123  0.3386  2.0213
   92SAPE   C37 9080   6.280   6.090   5.529  0.3422 -0.0995  0.0495
   92SAPE   H7X 9081   6.184   6.146   5.532 -0.0472 -0.5452 -2.3187
   92SAPE   H7Y 9082   6.265   5.980   5.532 -1.3319  0.1187  1.2630
   92SAPE   C38 9083   6.362   6.129   5.404  0.4941  0.1018  0.1997
   92SAPE   H8X 9084   6.458   6.074   5.392  1.4613  1.8030 -0.1557
   92SAPE   H8Y 9085   6.384   6.237   5.410 -0.0474  0.1731  1.0710
   92SAPE   C39 9086   6.284   6.107   5.273  0.1231  0.6051 -0.7069
   92SAPE   H9X 9087   6.197   6.176   5.267 -0.7238 -0.2329  0.9465
   92SAPE   H9Y 9088   6.255   6.000   5.270 -2.2999  1.1758 -0.3499
   92SAPE  C310 9089   6.372   6.145   5.154  0.5337  0.1182  0.3034
   92SAPE  H10X 9090   6.465   6.084   5.151 -0.0267 -0.7205 -0.8483
   92SAPE  H10Y 9091   6.398   6.251   5.178 -1.4296  0.7234 -0.0588
   92SAPE  C311 9092   6.297   6.139   5.018  0.1606 -0.6671  0.1133
   92SAPE  H11X 9093   6.189   6.123   5.038 -0.1710 -0.1653 -1.1852
   92SAPE  H11Y 9094   6.327   6.042   4.974  0.9857 -1.0528  1.4369
   92SAPE  C312 9095   6.334   6.259   4.930 -0.1933  0.1282 -0.4604
   92SAPE  H12X 9096   6.442   6.276   4.948 -0.7318 -0.1851  4.3334
   92SAPE  H12Y 9097   6.273   6.347   4.960 -1.2247 -0.5977 -0.3719
   92SAPE  C313 9098   6.318   6.230   4.778 -0.0903 -0.4140 -0.1680
   92SAPE  H13X 9099   6.324   6.332   4.736  0.2623  0.1187  1.1277
   92SAPE  H13Y 9100   6.215   6.191   4.767  0.0523 -0.7832 -0.2096
   92SAPE  C314 9101   6.412   6.129   4.715  0.3001 -0.2941 -0.0541
   92SAPE  H14X 9102   6.399   6.031   4.765  1.6675  0.0879  1.0803
   92SAPE  H14Y 9103   6.519   6.149   4.735  0.1459 -0.2808  0.7819
   92SAPE  C315 9104   6.386   6.101   4.566  0.2419 -0.0700 -0.6785
   92SAPE  H15X 9105   6.391   6.201   4.517 -0.8029  0.4307  0.1736
   92SAPE  H15Y 9106   6.280   6.065   4.568  0.1306  0.3030  0.2309
   92SAPE  C316 9107   6.475   5.985   4.502  0.0741 -0.3095 -0.4308
   92SAPE  H16X 9108   6.464   5.895   4.566 -2.8417 -0.5452 -1.0960
   92SAPE  H16Y 9109   6.575   6.029   4.485  1.3759 -3.3119 -1.0674
   92SAPE  C317 9110   6.427   5.946   4.365  0.2334  0.1965  0.4991
   92SAPE  H17X 9111   6.473   5.849   4.335 -0.3429 -0.3685  1.3990
   92SAPE  H17Y 9112   6.469   6.015   4.290  0.0647 -1.4453 -1.1834
   92SAPE  C318 9113   6.278   5.927   4.338  0.3119  0.0063  0.9153
   92SAPE  H18X 9114   6.234   5.872   4.424  0.9279 -0.8894  0.6726
   92SAPE  H18Y 9115   6.265   5.863   4.248 -0.0789  0.8934  0.3256
   92SAPE  H18Z 9116   6.223   6.024   4.332  2.4180  1.1814 -0.4172
   93SAPE     N 9117   2.130   6.765   6.835  0.1108 -1.0312  0.2072
   93SAPE   HN1 9118   2.129   6.815   6.926  0.5631 -1.0246  0.2083
   93SAPE   HN2 9119   2.062   6.686   6.831 -0.6514 -0.3628 -0.8228
   93SAPE   HN3 9120   2.225   6.729   6.816 -0.3495 -0.7654 -3.3250
   93SAPE   C12 9121   2.096   6.883   6.752 -0.3719 -0.0058 -0.2147
   93SAPE  H12A 9122   2.139   6.966   6.812 -0.1541 -0.5812  0.4433
   93SAPE  H12B 9123   1.987   6.904   6.752 -0.6630 -1.3060  1.1450
   93SAPE   C11 9124   2.149   6.855   6.612  0.3457 -0.3484 -0.4579
   93SAPE  H11A 9125   2.127   6.948   6.555 -0.1377 -0.0480  0.2080
   93SAPE  H11B 9126   2.080   6.772   6.584  0.2535 -0.9778  1.4892
   93SAPE     P 9127   2.390   6.934   6.603  0.2375 -0.0896  0.0912
   93SAPE   O13 9128   2.338   7.049   6.687 -0.3049 -0.0765 -0.1815
   93SAPE   O14 9129   2.531   6.891   6.641  0.1165  0.6193 -0.1657
   93SAPE   O12 9130   2.286   6.815   6.612 -0.1123 -0.0946 -0.5355
   93SAPE   O11 9131   2.390   6.981   6.453 -0.7923 -0.0404  0.1311
   93SAPE    C1 9132   2.402   6.882   6.350 -0.1662 -0.4031 -0.5610
   93SAPE    HA 9133   2.508   6.886   6.319 -0.1479 -0.7276 -0.5417
   93SAPE    HB 9134   2.362   6.783   6.381 -2.8626  0.1701 -1.9805
   93SAPE    C2 9135   2.322   6.914   6.225 -0.1470  0.5578  0.3775
   93SAPE    HS 9136   2.340   6.825   6.161 -2.7592  1.4967 -1.8693
   93SAPE   O21 9137   2.370   7.032   6.156 -0.0728  0.2858  0.1472
   93SAPE   C21 9138   2.472   7.016   6.076 -1.0320 -0.1775  0.2203
   93SAPE   O22 9139   2.528   6.911   6.051 -0.0637  0.4786 -0.3049
   93SAPE   C22 9140   2.505   7.150   6.006  0.4265  0.5355  0.0487
   93SAPE   H2R 9141   2.409   7.201   5.981  0.3494  0.4256  0.1199
   93SAPE   H2S 9142   2.579   7.204   6.067  0.1516  0.4828  0.4309
   93SAPE    C3 9143   2.171   6.915   6.251 -0.0296 -0.4127  0.3261
   93SAPE    HX 9144   2.144   7.017   6.283 -0.7492  0.3051 -2.3285
   93SAPE    HY 9145   2.129   6.856   6.336 -1.7141  0.1507 -0.0877
   93SAPE   O31 9146   2.105   6.874   6.120 -0.0359 -0.2373 -0.0752
   93SAPE   C31 9147   2.089   6.977   6.040  0.1726  0.0139  1.0612
   93SAPE   O32 9148   2.103   7.094   6.064 -0.2110 -0.8536  0.2415
   93SAPE   C32 9149   2.071   6.919   5.905  0.3365  0.1199  0.3757
   93SAPE   H2X 9150   1.972   6.948   5.865  1.5676  0.1490 -3.0017
   93SAPE   H2Y 9151   2.068   6.808   5.905  0.8086  0.0288 -2.2024
   93SAPE   C23 9152   2.579   7.131   5.867  0.6942  0.0359  0.3848
   93SAPE   H3R 9153   2.509   7.073   5.802 -0.6288 -1.4816  2.9873
   93SAPE   H3S 9154   2.675   7.079   5.887  0.4644 -1.1903 -1.4106
   93SAPE   C24 9155   2.603   7.261   5.803  0.1377 -0.6968  0.3395
   93SAPE   H4R 9156   2.506   7.312   5.823  0.1144 -0.6566  0.1224
   93SAPE   H4S 9157   2.621   7.249   5.695  0.1620 -1.0288  0.3792
   93SAPE   C25 9158   2.713   7.338   5.865 -0.6387 -0.2868  0.0299
   93SAPE   H5R 9159   2.730   7.328   5.973 -0.0267 -0.9830 -0.1213
   93SAPE   C26 9160   2.815   7.400   5.798 -0.3367  0.5791  0.4806
   93SAPE   H6R 9161   2.896   7.449   5.855  1.6547  0.3080 -1.9480
   93SAPE   C27 9162   2.830   7.421   5.651  0.0181 -0.2456  0.7886
   93SAPE   H7R 9163   2.905   7.502   5.639  0.3144 -0.5715  0.4291
   93SAPE   H7S 9164   2.737   7.461   5.605  0.7748 -0.3568 -0.8968
   93SAPE   C28 9165   2.878   7.294   5.591  0.0572  0.1770  0.4441
   93SAPE   H8R 9166   2.947   7.236   5.652  0.6502  1.2931  0.8632
   93SAPE   C29 9167   2.854   7.254   5.458  0.4331  0.4559  0.2141
   93SAPE   H9R 9168   2.893   7.160   5.417 -3.3679 -0.6467 -1.3693
   93SAPE  C210 9169   2.769   7.326   5.356  0.1474  0.0928  0.2987
   93SAPE  H10R 9170   2.671   7.364   5.393  0.2164  2.2522 -1.5518
   93SAPE  H10S 9171   2.751   7.252   5.275  0.6422  1.2773 -0.9332
   93SAPE  C211 9172   2.830   7.437   5.279  0.7041 -0.0062  0.3008
   93SAPE  H11R 9173   2.815   7.532   5.333 -0.1172  0.9065 -1.4286
   93SAPE  C212 9174   2.888   7.433   5.157 -0.4591  0.0519  0.0517
   93SAPE  H12R 9175   2.926   7.531   5.124 -3.7981  1.2807 -0.6239
   93SAPE  C213 9176   2.911   7.310   5.072  0.6526  0.1020  0.1764
   93SAPE  H13R 9177   2.859   7.327   4.975 -0.0114  2.6997  0.9144
   93SAPE  H13S 9178   2.862   7.223   5.120 -1.9672  0.3991 -1.7414
   93SAPE  C214 9179   3.056   7.282   5.045 -0.7215  0.5495 -0.5667
   93SAPE  H14R 9180   3.120   7.279   5.135  0.1319  3.5622 -0.9669
   93SAPE  C215 9181   3.117   7.261   4.933 -0.2560 -0.1666  0.2552
   93SAPE  H15R 9182   3.224   7.236   4.934  0.1729  1.4958 -0.0898
   93SAPE  C216 9183   3.047   7.247   4.802 -0.1166  0.3203 -0.1701
   93SAPE  H16R 9184   2.937   7.252   4.816  0.1604 -0.3983  3.2471
   93SAPE  H16S 9185   3.071   7.147   4.761  0.0375  0.2514  0.0896
   93SAPE  C217 9186   3.101   7.363   4.718  0.4425 -0.3339 -0.0040
   93SAPE  H17R 9187   3.203   7.348   4.675  1.1821  0.2999  1.4396
   93SAPE  H17S 9188   3.100   7.457   4.777 -1.9325  1.1330 -2.1645
   93SAPE  C218 9189   3.003   7.374   4.593 -0.3271  0.1645 -0.3509
   93SAPE  H18R 9190   3.018   7.469   4.537  1.2050 -0.8954 -1.8476
   93SAPE  H18S 9191   2.897   7.379   4.624 -0.3956  1.7791 -0.7444
   93SAPE  C219 9192   3.023   7.252   4.501  0.2442 -0.1237 -0.0673
   93SAPE  H19R 9193   2.944   7.253   4.423 -3.0898  0.2492  3.0659
   93SAPE  H19S 9194   3.005   7.159   4.559 -0.9389 -0.5073 -0.9935
   93SAPE  C220 9195   3.153   7.240   4.422 -0.0598 -0.2920  0.1550
   93SAPE  H20R 9196   3.132   7.186   4.328 -1.3532 -0.3828  0.4744
   93SAPE  H20S 9197   3.232   7.193   4.484  1.0282  4.1466  2.5890
   93SAPE  H20T 9198   3.195   7.340   4.400 -0.6068  0.0620  0.6715
   93SAPE   C33 9199   2.187   6.955   5.802  0.5462 -0.0648  0.1627
   93SAPE   H3X 9200   2.278   6.952   5.865  0.4214  1.1533  0.4269
   93SAPE   H3Y 9201   2.166   7.062   5.781 -0.8770  0.3156  2.9405
   93SAPE   C34 9202   2.190   6.867   5.687  0.0835 -0.3543  0.1306
   93SAPE   H4X 9203   2.096   6.865   5.628 -0.1686  0.8002  0.4775
   93SAPE   H4Y 9204   2.209   6.764   5.726 -1.1320 -0.5139  0.3154
   93SAPE   C35 9205   2.310   6.896   5.599 -0.2768 -0.1282  0.6988
   93SAPE   H5X 9206   2.406   6.896   5.655 -0.7802 -0.3087  1.5787
   93SAPE   H5Y 9207   2.305   6.999   5.559  0.1132 -0.4723 -0.2762
   93SAPE   C36 9208   2.332   6.795   5.483 -0.1227 -0.0206 -0.0603
   93SAPE   H6X 9209   2.235   6.758   5.444  0.0417 -0.1240 -0.3730
   93SAPE   H6Y 9210   2.386   6.706   5.520  1.8969 -0.1480 -3.0260
   93SAPE   C37 9211   2.417   6.849   5.372 -0.0692  0.5830 -0.0558
   93SAPE   H7X 9212   2.380   6.948   5.339  1.9712  0.0125 -4.9141
   93SAPE   H7Y 9213   2.396   6.787   5.283 -0.7891  0.3019  0.3062
   93SAPE   C38 9214   2.565   6.863   5.400 -0.3964 -0.8549  0.0465
   93SAPE   H8X 9215   2.603   6.760   5.417  0.1402 -0.6720 -0.0520
   93SAPE   H8Y 9216   2.581   6.918   5.494 -1.3695 -1.2324  0.4491
   93SAPE   C39 9217   2.644   6.932   5.285 -0.1292  0.3257 -0.5156
   93SAPE   H9X 9218   2.752   6.913   5.301  0.0038  1.4220 -0.0401
   93SAPE   H9Y 9219   2.631   7.041   5.300  0.2882  0.2772  0.2641
   93SAPE  C310 9220   2.601   6.891   5.142 -0.5288  0.0605  0.0965
   93SAPE  H10X 9221   2.498   6.933   5.130 -0.8604 -0.6840  0.2839
   93SAPE  H10Y 9222   2.581   6.783   5.128  1.1865 -0.1571 -0.9333
   93SAPE  C311 9223   2.698   6.938   5.041 -0.2180 -0.6472  0.0521
   93SAPE  H11X 9224   2.795   6.891   5.067 -0.9283 -2.2703 -0.1264
   93SAPE  H11Y 9225   2.709   7.049   5.041  2.7638 -0.8721  0.0075
   93SAPE  C312 9226   2.662   6.893   4.903  0.4128  0.0318  0.2444
   93SAPE  H12X 9227   2.555   6.912   4.881  0.7512 -1.0916 -2.9009
   93SAPE  H12Y 9228   2.664   6.782   4.894 -2.0538  0.0899 -1.9869
   93SAPE  C313 9229   2.746   6.955   4.796 -0.1929 -0.6082  0.7193
   93SAPE  H13X 9230   2.854   6.937   4.813  0.4635  0.7034 -1.6215
   93SAPE  H13Y 9231   2.730   7.065   4.798 -0.9871 -0.6634 -0.6805
   93SAPE  C314 9232   2.710   6.888   4.662 -0.3973 -0.8043  0.0054
   93SAPE  H14X 9233   2.616   6.927   4.618 -1.2386  0.0121  2.4046
   93SAPE  H14Y 9234   2.707   6.778   4.672  3.1728 -0.8200  4.6486
   93SAPE  C315 9235   2.832   6.918   4.571  0.0848 -0.6455 -0.1098
   93SAPE  H15X 9236   2.899   6.838   4.608 -0.2380 -0.2507  1.3924
   93SAPE  H15Y 9237   2.876   7.018   4.595  1.7235 -0.7687 -2.2090
   93SAPE  C316 9238   2.803   6.897   4.431 -0.6519  0.5938 -0.0830
   93SAPE  H16X 9239   2.732   6.978   4.403 -0.2188  0.6788 -0.9524
   93SAPE  H16Y 9240   2.747   6.801   4.423  0.0067  0.0925  1.0950
   93SAPE  C317 9241   2.926   6.906   4.328  0.9284 -0.3142  0.4423
   93SAPE  H17X 9242   2.956   7.013   4.328  2.3845 -0.6895 -0.5276
   93SAPE  H17Y 9243   2.886   6.876   4.229 -0.8630 -2.9194  1.8622
   93SAPE  C318 9244   3.041   6.809   4.366  0.3922 -0.1057 -0.2199
   93SAPE  H18X 9245   3.120   6.826   4.290  0.0891 -0.3846 -0.6034
   93SAPE  H18Y 9246   3.002   6.706   4.353 -0.6466  0.0509  1.3025
   93SAPE  H18Z 9247   3.080   6.827   4.469  1.2715  0.9218 -0.7165
   94SAPE     N 9248   0.428   0.138   6.283  0.0100  0.1605  0.0376
   94SAPE   HN1 9249   0.452   0.235   6.309  2.9937  0.1178 -2.0046
   94SAPE   HN2 9250   0.513   0.093   6.242 -0.7338  0.0225 -1.4485
   94SAPE   HN3 9251   0.352   0.146   6.212 -0.2612 -2.3659 -0.0461
   94SAPE   C12 9252   0.365   0.059   6.400 -0.1968 -0.1023 -0.0415
   94SAPE  H12A 9253   0.285   0.129   6.434  0.4985  1.1431 -0.9124
   94SAPE  H12B 9254   0.446   0.044   6.474  0.3448 -2.3613 -1.0163
   94SAPE   C11 9255   0.304  -0.077   6.356  0.3930  0.0931 -0.3746
   94SAPE  H11A 9256   0.380  -0.139   6.303  0.4366 -0.6315  0.5263
   94SAPE  H11B 9257   0.230  -0.063   6.274  1.7863 -0.4263 -1.7694
   94SAPE     P 9258   0.095  -0.168   6.477 -0.1712 -0.0876 -0.3322
   94SAPE   O13 9259   0.058  -0.272   6.576 -0.1662 -0.3888 -0.6799
   94SAPE   O14 9260   0.038  -0.035   6.502 -0.1232 -0.1445 -0.2209
   94SAPE   O12 9261   0.251  -0.153   6.463  0.8779 -0.1972  0.5283
   94SAPE   O11 9262   0.052  -0.222   6.337 -0.3526 -0.5010 -0.0267
   94SAPE    C1 9263   0.102  -0.341   6.280 -0.4774  0.3951  0.9389
   94SAPE    HA 9264   0.213  -0.338   6.272 -0.5436  1.5199  0.2786
   94SAPE    HB 9265   0.074  -0.435   6.332 -2.4398  0.8547  0.7736
   94SAPE    C2 9266   0.047  -0.361   6.138  0.1387  0.6312  0.2991
   94SAPE    HS 9267   0.090  -0.454   6.093  0.5148  0.3310  1.2611
   94SAPE   O21 9268   0.078  -0.256   6.043  0.3096 -0.0480 -0.2776
   94SAPE   C21 9269   0.196  -0.261   5.979  0.6362  0.8534  0.4781
   94SAPE   O22 9270   0.284  -0.337   6.018  0.5469  0.3586 -0.2679
   94SAPE   C22 9271   0.210  -0.148   5.873  0.4375 -0.1238  0.2337
   94SAPE   H2R 9272   0.122  -0.159   5.805  0.9141  0.9753 -0.5879
   94SAPE   H2S 9273   0.188  -0.053   5.926 -2.9185  0.0903 -1.2494
   94SAPE    C3 9274  -0.103  -0.409   6.131  0.1264 -0.4084  0.3402
   94SAPE    HX 9275  -0.168  -0.321   6.113  1.8300  0.6165 -1.1586
   94SAPE    HY 9276  -0.121  -0.457   6.229 -1.4584  0.6565  0.6046
   94SAPE   O31 9277  -0.123  -0.515   6.033 -0.6006 -0.3907  0.2904
   94SAPE   C31 9278  -0.250  -0.555   6.040  0.4626  0.1706 -0.2336
   94SAPE   O32 9279  -0.334  -0.531   6.123  0.5654 -0.0617 -0.7377
   94SAPE   C32 9280  -0.275  -0.637   5.919  0.5702  0.3550 -0.5198
   94SAPE   H2X 9281  -0.378  -0.678   5.916  0.3039  1.0765 -1.6508
   94SAPE   H2Y 9282  -0.210  -0.727   5.916 -0.6757 -0.6474  1.0048
   94SAPE   C23 9283   0.336  -0.159   5.790 -0.7424  1.0729  0.4536
   94SAPE   H3R 9284   0.424  -0.134   5.854  1.5093 -0.0979 -1.9977
   94SAPE   H3S 9285   0.348  -0.074   5.720  1.9016  0.8191  0.5171
   94SAPE   C24 9286   0.368  -0.294   5.726  0.7008 -0.3715  0.1861
   94SAPE   H4R 9287   0.372  -0.372   5.805  0.9688  0.1510  0.7028
   94SAPE   H4S 9288   0.467  -0.291   5.678  0.0963 -0.9074 -1.1285
   94SAPE   C25 9289   0.259  -0.324   5.626  0.2307 -0.1159 -0.2216
   94SAPE   H5R 9290   0.176  -0.380   5.671 -0.2797 -0.5984 -1.7012
   94SAPE   C26 9291   0.247  -0.291   5.496 -0.0645 -0.1285  0.1505
   94SAPE   H6R 9292   0.155  -0.319   5.444  0.3164 -0.3682 -0.3998
   94SAPE   C27 9293   0.348  -0.220   5.411 -0.1656 -0.1087  0.3956
   94SAPE   H7R 9294   0.406  -0.141   5.463 -0.0352 -0.4207  0.7289
   94SAPE   H7S 9295   0.291  -0.168   5.331  0.1936  0.7026  0.6575
   94SAPE   C28 9296   0.444  -0.319   5.354  0.3251  0.1731  0.2379
   94SAPE   H8R 9297   0.474  -0.406   5.414 -0.8500  0.0308  0.6405
   94SAPE   C29 9298   0.509  -0.312   5.237 -0.1468  0.2937  0.4351
   94SAPE   H9R 9299   0.581  -0.390   5.210 -1.9758 -1.7827  1.2058
   94SAPE  C210 9300   0.489  -0.218   5.126  0.4411  0.1412  0.2225
   94SAPE  H10R 9301   0.463  -0.115   5.158  1.2309 -0.4745  3.1947
   94SAPE  H10S 9302   0.402  -0.244   5.063 -1.1488  2.2172  1.4343
   94SAPE  C211 9303   0.614  -0.201   5.044 -0.6695 -0.3596  0.1281
   94SAPE  H11R 9304   0.690  -0.131   5.083  0.0221 -0.7186 -0.5426
   94SAPE  C212 9305   0.645  -0.242   4.917  0.3018  0.7929  0.5116
   94SAPE  H12R 9306   0.739  -0.218   4.865  0.1469 -1.2265 -0.8082
   94SAPE  C213 9307   0.554  -0.334   4.833 -0.3718 -0.1760  0.7753
   94SAPE  H13R 9308   0.518  -0.398   4.917  0.9200 -0.2053  1.3336
   94SAPE  H13S 9309   0.602  -0.405   4.763 -4.1616 -2.7607  0.4940
   94SAPE  C214 9310   0.437  -0.272   4.762  0.4547  0.0229  0.2794
   94SAPE  H14R 9311   0.382  -0.195   4.819 -1.3956  0.3105 -1.7625
   94SAPE  C215 9312   0.398  -0.289   4.632 -0.2867  0.5809  1.0907
   94SAPE  H15R 9313   0.320  -0.224   4.591  0.4212  1.7864  1.6104
   94SAPE  C216 9314   0.471  -0.380   4.533  0.7980 -0.0011 -0.4083
   94SAPE  H16R 9315   0.390  -0.441   4.489  0.1193  0.2161  0.5078
   94SAPE  H16S 9316   0.532  -0.450   4.594 -1.6729 -0.7149  1.4292
   94SAPE  C217 9317   0.547  -0.295   4.430  0.5141 -0.3780  0.0764
   94SAPE  H17R 9318   0.470  -0.224   4.394  1.4823 -0.2031 -1.7673
   94SAPE  H17S 9319   0.570  -0.356   4.340  0.5733  0.7340 -0.6714
   94SAPE  C218 9320   0.671  -0.215   4.479  0.1215  0.8363 -0.0489
   94SAPE  H18R 9321   0.656  -0.158   4.573  1.2260  0.7196  0.2147
   94SAPE  H18S 9322   0.693  -0.141   4.399  0.3804 -0.5300 -1.2876
   94SAPE  C219 9323   0.799  -0.301   4.491  0.0081  0.0723  0.2608
   94SAPE  H19R 9324   0.811  -0.343   4.388  0.4794  0.3697  0.1919
   94SAPE  H19S 9325   0.773  -0.385   4.559 -1.9401 -1.1731 -1.8634
   94SAPE  C220 9326   0.926  -0.222   4.526 -0.7969  0.4668 -0.1003
   94SAPE  H20R 9327   0.974  -0.172   4.439 -0.7714  0.2149 -0.2308
   94SAPE  H20S 9328   0.997  -0.284   4.584 -1.6993  1.6025  2.3808
   94SAPE  H20T 9329   0.894  -0.138   4.592 -0.5796  0.6938 -0.2774
   94SAPE   C33 9330  -0.253  -0.553   5.799  0.4589 -1.1019 -0.0880
   94SAPE   H3X 9331  -0.146  -0.524   5.793 -0.0992  1.1650  0.0435
   94SAPE   H3Y 9332  -0.308  -0.457   5.808  0.5753 -1.0896  0.5086
   94SAPE   C34 9333  -0.318  -0.612   5.673 -0.0208 -0.0017 -0.4703
   94SAPE   H4X 9334  -0.427  -0.624   5.690  0.4168 -0.4101  2.6551
   94SAPE   H4Y 9335  -0.261  -0.705   5.652 -0.2234 -0.1098 -0.5371
   94SAPE   C35 9336  -0.295  -0.523   5.559 -0.4235 -0.2242  0.0836
   94SAPE   H5X 9337  -0.194  -0.478   5.567 -1.5928  2.3163  1.7562
   94SAPE   H5Y 9338  -0.357  -0.432   5.574  0.2163 -0.0479  1.9320
   94SAPE   C36 9339  -0.335  -0.583   5.427 -0.7639 -0.0511  0.0668
   94SAPE   H6X 9340  -0.443  -0.612   5.425 -0.0751 -2.9417 -1.6752
   94SAPE   H6Y 9341  -0.279  -0.679   5.419  0.2968  0.1858  3.2481
   94SAPE   C37 9342  -0.298  -0.499   5.301 -0.3878  0.3075  0.2751
   94SAPE   H7X 9343  -0.189  -0.480   5.312 -0.4830  0.3940  1.1553
   94SAPE   H7Y 9344  -0.345  -0.400   5.313 -0.7305 -0.0280  1.9803
   94SAPE   C38 9345  -0.349  -0.554   5.165  0.0455  1.0634 -0.2105
   94SAPE   H8X 9346  -0.458  -0.558   5.142  0.4670  1.3792 -2.5136
   94SAPE   H8Y 9347  -0.316  -0.659   5.167 -0.8209  0.7857 -0.1040
   94SAPE   C39 9348  -0.281  -0.477   5.052 -0.5773 -0.2046  0.1764
   94SAPE   H9X 9349  -0.172  -0.496   5.042 -0.0618  0.7734  3.0417
   94SAPE   H9Y 9350  -0.292  -0.368   5.070 -0.3271  0.1018 -1.3663
   94SAPE  C310 9351  -0.347  -0.507   4.919 -0.4233  0.3437  0.3004
   94SAPE  H10X 9352  -0.452  -0.470   4.919 -0.4191  0.4220  1.6605
   94SAPE  H10Y 9353  -0.359  -0.617   4.919 -1.3915  0.4397  0.1388
   94SAPE  C311 9354  -0.280  -0.460   4.787 -0.2895  0.7235  0.3236
   94SAPE  H11X 9355  -0.266  -0.350   4.790 -0.7323  0.7748  0.4553
   94SAPE  H11Y 9356  -0.347  -0.486   4.702  0.1216 -0.3687  0.3150
   94SAPE  C312 9357  -0.148  -0.533   4.740 -0.5650  0.4738 -0.0062
   94SAPE  H12X 9358  -0.145  -0.633   4.788 -0.5286  1.1816  1.5217
   94SAPE  H12Y 9359  -0.057  -0.483   4.781 -1.0021  0.9727  0.3547
   94SAPE  C313 9360  -0.141  -0.541   4.591 -0.2789 -0.5598  0.0137
   94SAPE  H13X 9361  -0.034  -0.567   4.573 -0.1878  0.2081 -0.5475
   94SAPE  H13Y 9362  -0.162  -0.442   4.547  2.4761  1.1438  2.2153
   94SAPE  C314 9363  -0.219  -0.653   4.529  0.4408 -0.3118 -0.0664
   94SAPE  H14X 9364  -0.285  -0.696   4.608  1.1111 -0.3392  0.4889
   94SAPE  H14Y 9365  -0.147  -0.731   4.496  1.2478  0.8179 -1.0569
   94SAPE  C315 9366  -0.303  -0.620   4.410 -0.3523 -0.8816  0.2148
   94SAPE  H15X 9367  -0.332  -0.717   4.365  0.7017 -1.5694  0.9800
   94SAPE  H15Y 9368  -0.251  -0.559   4.332 -1.4671 -0.3673 -0.1417
   94SAPE  C316 9369  -0.426  -0.541   4.438  0.7253 -0.4585 -0.0207
   94SAPE  H16X 9370  -0.401  -0.449   4.494 -2.0479  0.6502 -0.4720
   94SAPE  H16Y 9371  -0.497  -0.590   4.508 -2.3455 -1.4145 -3.5040
   94SAPE  C317 9372  -0.512  -0.499   4.319 -0.9146 -0.1046  0.4006
   94SAPE  H17X 9373  -0.575  -0.583   4.280 -2.2258  1.1755 -0.3175
   94SAPE  H17Y 9374  -0.442  -0.476   4.236 -0.8001 -1.0001  0.2363
   94SAPE  C318 9375  -0.612  -0.384   4.335 -0.3322 -0.3930  0.0428
   94SAPE  H18X 9376  -0.667  -0.400   4.430 -0.3581  0.7142  0.2295
   94SAPE  H18Y 9377  -0.682  -0.376   4.249 -2.0315 -0.3102  1.3753
   94SAPE  H18Z 9378  -0.552  -0.291   4.343  0.0756 -0.7892  2.5857
   95SAPE     N 9379   3.208   6.457   6.412  0.3328  0.3335 -0.3017
   95SAPE   HN1 9380   3.269   6.376   6.389 -0.0414 -0.1843  0.4956
   95SAPE   HN2 9381   3.113   6.453   6.371  0.9992 -3.0428 -1.9207
   95SAPE   HN3 9382   3.256   6.540   6.372  1.3162 -0.4508 -0.7833
   95SAPE   C12 9383   3.180   6.460   6.557  0.1058  0.1355  0.1054
   95SAPE  H12A 9384   3.103   6.384   6.582  0.7038  0.1125  2.0206
   95SAPE  H12B 9385   3.131   6.557   6.583 -1.0471 -0.5808  0.6738
   95SAPE   C11 9386   3.306   6.442   6.646  0.6301  0.2721  0.7114
   95SAPE  H11A 9387   3.289   6.471   6.751 -2.2315 -2.6756  1.2117
   95SAPE  H11B 9388   3.381   6.513   6.605  0.3846 -0.0579 -0.3395
   95SAPE     P 9389   3.452   6.240   6.732  0.1912  0.1831 -0.0713
   95SAPE   O13 9390   3.529   6.339   6.812  0.0110  0.1188 -0.3924
   95SAPE   O14 9391   3.374   6.143   6.809  0.1658 -0.6906 -0.2594
   95SAPE   O12 9392   3.356   6.311   6.631 -0.4679  0.3117 -0.8437
   95SAPE   O11 9393   3.560   6.162   6.651 -0.0061 -0.4465 -0.3357
   95SAPE    C1 9394   3.558   6.144   6.504 -0.2138 -0.5388  0.1245
   95SAPE    HA 9395   3.634   6.070   6.471 -0.1007 -0.3376 -0.0721
   95SAPE    HB 9396   3.460   6.107   6.468 -1.0699  0.8166  0.9478
   95SAPE    C2 9397   3.603   6.265   6.422  0.3427 -0.5206  0.7478
   95SAPE    HS 9398   3.538   6.353   6.439 -2.8973 -2.6695  0.3779
   95SAPE   O21 9399   3.590   6.238   6.281 -0.6310  0.3080 -0.6814
   95SAPE   C21 9400   3.465   6.232   6.241 -0.3894 -0.3027 -0.4972
   95SAPE   O22 9401   3.375   6.266   6.314 -0.5823 -0.4332 -0.5696
   95SAPE   C22 9402   3.453   6.179   6.101 -0.2513  0.0271  0.2790
   95SAPE   H2R 9403   3.544   6.205   6.044 -0.8626  0.5286 -0.4821
   95SAPE   H2S 9404   3.455   6.068   6.109  0.3047 -0.1069 -1.4457
   95SAPE    C3 9405   3.754   6.307   6.454  0.5719  0.5657 -0.4032
   95SAPE    HX 9406   3.812   6.213   6.469  2.2190  1.3565 -1.5119
   95SAPE    HY 9407   3.748   6.354   6.554  2.0750 -0.9618  0.4686
   95SAPE   O31 9408   3.825   6.386   6.362  0.1655  0.0404 -0.0773
   95SAPE   C31 9409   3.951   6.402   6.398 -0.4438 -0.0970 -0.7576
   95SAPE   O32 9410   4.013   6.345   6.488 -0.3215 -0.0181  0.2068
   95SAPE   C32 9411   4.016   6.494   6.295  0.0269  0.2011  0.0315
   95SAPE   H2X 9412   4.125   6.497   6.316  0.2419 -1.5632 -0.7110
   95SAPE   H2Y 9413   3.966   6.593   6.306 -0.3192  0.2040 -1.3989
   95SAPE   C23 9414   3.337   6.233   6.016  0.0535  0.4199  0.2385
   95SAPE   H3R 9415   3.351   6.332   5.966 -0.9196  0.2357 -0.4288
   95SAPE   H3S 9416   3.242   6.239   6.074 -0.2119  0.7607 -0.2212
   95SAPE   C24 9417   3.318   6.133   5.900  0.4242  0.7971  1.2745
   95SAPE   H4R 9418   3.310   6.031   5.944  0.8240 -0.7074 -1.8483
   95SAPE   H4S 9419   3.411   6.139   5.838  1.0938  1.0357  2.2787
   95SAPE   C25 9420   3.195   6.159   5.811 -0.0194  0.3346  0.3661
   95SAPE   H5R 9421   3.103   6.156   5.871  2.5451 -0.5222  4.7422
   95SAPE   C26 9422   3.188   6.171   5.679  0.5798  0.1707  0.3939
   95SAPE   H6R 9423   3.088   6.196   5.642  1.2118  0.7175 -1.0227
   95SAPE   C27 9424   3.297   6.175   5.581 -0.1429  0.6800 -0.2686
   95SAPE   H7R 9425   3.245   6.137   5.491  0.6650  1.1639 -0.9453
   95SAPE   H7S 9426   3.362   6.087   5.601 -1.0651 -0.4618 -2.0211
   95SAPE   C28 9427   3.363   6.312   5.577 -0.1429  0.6099 -0.1146
   95SAPE   H8R 9428   3.414   6.345   5.669  0.9344 -0.3307 -0.3578
   95SAPE   C29 9429   3.370   6.392   5.474  0.5550 -0.4820  0.1179
   95SAPE   H9R 9430   3.419   6.486   5.504  0.8255 -1.5168  3.3726
   95SAPE  C210 9431   3.327   6.362   5.328 -0.2699 -0.0341  0.6232
   95SAPE  H10R 9432   3.296   6.256   5.314 -0.9498  0.3939 -1.4128
   95SAPE  H10S 9433   3.415   6.361   5.261 -0.7023  1.1048  0.0090
   95SAPE  C211 9434   3.220   6.450   5.275  1.3624  0.3449  0.0166
   95SAPE  H11R 9435   3.198   6.540   5.334  1.3101  0.1560  0.2832
   95SAPE  C212 9436   3.130   6.415   5.178 -0.4995  0.1848  0.1330
   95SAPE  H12R 9437   3.064   6.492   5.134  0.2936  1.5451  1.2481
   95SAPE  C213 9438   3.137   6.289   5.094 -0.1202  0.1577  0.2930
   95SAPE  H13R 9439   3.098   6.204   5.154  0.9195 -0.9460 -0.5438
   95SAPE  H13S 9440   3.241   6.254   5.081  1.0898  3.6223 -0.4572
   95SAPE  C214 9441   3.066   6.288   4.958 -0.2462 -1.0554  0.1732
   95SAPE  H14R 9442   2.970   6.340   4.971  0.3478  0.1496 -0.0480
   95SAPE  C215 9443   3.111   6.253   4.843 -0.2221  0.3428  0.2549
   95SAPE  H15R 9444   3.043   6.272   4.758  1.1669  0.7450 -0.8046
   95SAPE  C216 9445   3.241   6.194   4.798 -0.1596  0.6625  0.3463
   95SAPE  H16R 9446   3.226   6.093   4.755  3.0360  0.2816 -0.1298
   95SAPE  H16S 9447   3.325   6.189   4.870  1.2852 -0.3871 -1.3090
   95SAPE  C217 9448   3.289   6.283   4.682  0.0859 -0.1291  0.0323
   95SAPE  H17R 9449   3.309   6.389   4.708  0.0534  0.0464 -0.6254
   95SAPE  H17S 9450   3.211   6.289   4.602 -0.0559 -1.7042  0.0281
   95SAPE  C218 9451   3.413   6.219   4.611  0.1953  0.0825  0.4948
   95SAPE  H18R 9452   3.381   6.136   4.545  3.1271 -0.2086 -0.7234
   95SAPE  H18S 9453   3.484   6.190   4.691  1.6923 -0.5681 -0.9934
   95SAPE  C219 9454   3.481   6.325   4.519 -0.5384  0.2037 -0.1492
   95SAPE  H19R 9455   3.577   6.287   4.479 -0.7150  1.0644 -1.4754
   95SAPE  H19S 9456   3.506   6.415   4.579 -2.1413  0.9138 -0.4721
   95SAPE  C220 9457   3.406   6.384   4.403  0.1301  0.1456 -0.0860
   95SAPE  H20R 9458   3.312   6.434   4.436 -0.6579 -0.8845 -0.7154
   95SAPE  H20S 9459   3.368   6.301   4.341 -0.7230  2.1346 -2.3854
   95SAPE  H20T 9460   3.463   6.459   4.345 -0.1066  0.7339  0.4218
   95SAPE   C33 9461   3.994   6.451   6.148  0.0275 -0.1045 -0.4615
   95SAPE   H3X 9462   3.888   6.420   6.130 -0.4632  1.6817 -0.7887
   95SAPE   H3Y 9463   4.063   6.365   6.130  1.6225  0.8347  0.8985
   95SAPE   C34 9464   4.043   6.558   6.052 -0.3619  0.3301  0.3480
   95SAPE   H4X 9465   4.153   6.565   6.065 -0.0367  0.3812 -1.9519
   95SAPE   H4Y 9466   4.003   6.660   6.069  1.7885  1.4145 -0.6281
   95SAPE   C35 9467   4.017   6.517   5.907 -0.2195  0.6297  0.6603
   95SAPE   H5X 9468   3.909   6.494   5.906 -0.3360  0.9620  2.6038
   95SAPE   H5Y 9469   4.089   6.433   5.897  2.6694  2.6681  2.6822
   95SAPE   C36 9470   4.046   6.635   5.814 -0.2547 -0.0936  0.0566
   95SAPE   H6X 9471   4.142   6.685   5.840  0.1822 -1.2793  0.8053
   95SAPE   H6Y 9472   3.966   6.707   5.841  1.3995  1.1532  1.9660
   95SAPE   C37 9473   4.042   6.604   5.658 -0.0705 -0.0347 -0.2895
   95SAPE   H7X 9474   3.946   6.553   5.633  1.6212 -2.1051 -3.1689
   95SAPE   H7Y 9475   4.133   6.541   5.645  0.7001  0.5714  1.7334
   95SAPE   C38 9476   4.052   6.725   5.563 -0.1868  0.5827  0.4804
   95SAPE   H8X 9477   4.146   6.776   5.595 -1.2445  1.3630  2.5205
   95SAPE   H8Y 9478   3.960   6.786   5.568  0.1838  1.5318 -2.5372
   95SAPE   C39 9479   4.073   6.683   5.422  0.5200  0.5665  0.0034
   95SAPE   H9X 9480   3.973   6.655   5.382 -0.3133 -1.9665  3.3929
   95SAPE   H9Y 9481   4.149   6.603   5.419  0.3228  0.3652  0.3726
   95SAPE  C310 9482   4.123   6.796   5.334  0.6070 -0.6047 -0.0201
   95SAPE  H10X 9483   4.231   6.809   5.355  0.4915  1.5355 -0.5586
   95SAPE  H10Y 9484   4.067   6.883   5.373  2.8464  0.7468  0.3651
   95SAPE  C311 9485   4.093   6.776   5.185 -0.0210 -0.2288 -0.2002
   95SAPE  H11X 9486   3.984   6.775   5.160 -0.1651  0.7595  0.3321
   95SAPE  H11Y 9487   4.127   6.673   5.160  2.8340  0.5083  0.3475
   95SAPE  C312 9488   4.175   6.864   5.085  0.3662  0.4324  1.3362
   95SAPE  H12X 9489   4.282   6.844   5.104  0.2599 -1.8277 -0.1349
   95SAPE  H12Y 9490   4.152   6.971   5.107 -2.0564  1.0219 -2.9231
   95SAPE  C313 9491   4.145   6.827   4.934  0.2610 -0.1535 -0.0994
   95SAPE  H13X 9492   4.036   6.849   4.931  0.3733  0.3904 -0.4413
   95SAPE  H13Y 9493   4.167   6.720   4.915  0.8562  0.0270 -0.4500
   95SAPE  C314 9494   4.202   6.920   4.827  0.3415  0.4435 -0.1807
   95SAPE  H14X 9495   4.312   6.916   4.813 -0.0630  0.2232 -4.2845
   95SAPE  H14Y 9496   4.181   7.024   4.860 -0.0902  0.3222 -0.0645
   95SAPE  C315 9497   4.127   6.907   4.700  0.6070  0.1271  0.5894
   95SAPE  H15X 9498   4.021   6.878   4.719  0.4182  1.7639  2.3842
   95SAPE  H15Y 9499   4.176   6.837   4.630 -0.9202  1.1057 -1.5559
   95SAPE  C316 9500   4.115   7.040   4.620  1.0170  0.1788 -0.2360
   95SAPE  H16X 9501   4.085   7.116   4.695 -0.2877 -1.6323  1.1575
   95SAPE  H16Y 9502   4.029   7.017   4.554 -1.3319  0.4253  2.5544
   95SAPE  C317 9503   4.236   7.087   4.536 -0.3155  0.5672 -0.5975
   95SAPE  H17X 9504   4.326   7.079   4.600 -0.0265 -1.5238 -1.1893
   95SAPE  H17Y 9505   4.223   7.193   4.506  2.0471  0.8307 -0.8404
   95SAPE  C318 9506   4.253   7.009   4.409  0.1152  0.3906 -0.1003
   95SAPE  H18X 9507   4.333   7.054   4.346  0.8502 -1.4287 -0.5546
   95SAPE  H18Y 9508   4.155   7.001   4.357  0.0687 -0.9350  0.1332
   95SAPE  H18Z 9509   4.280   6.902   4.423 -0.2343  0.1435 -1.1985
   96SAPE     N 9510   6.914   3.739   6.719  0.3172 -1.0746  0.4558
   96SAPE   HN1 9511   6.971   3.691   6.646  2.5628  2.3203 -0.2377
   96SAPE   HN2 9512   6.824   3.690   6.702  0.3008 -0.9797  0.2627
   96SAPE   HN3 9513   6.902   3.838   6.690  1.3599 -1.3053 -0.8779
   96SAPE   C12 9514   6.963   3.714   6.857  0.3140 -0.3244  0.1299
   96SAPE  H12A 9515   6.898   3.764   6.932  3.5027  3.0774  0.9404
   96SAPE  H12B 9516   7.067   3.751   6.861  0.9767 -2.2437  1.8479
   96SAPE   C11 9517   6.966   3.560   6.876 -0.3844 -1.0691  0.2710
   96SAPE  H11A 9518   7.032   3.538   6.963  0.7133  3.7785  0.9558
   96SAPE  H11B 9519   7.000   3.523   6.777  0.4079 -1.5944  0.7328
   96SAPE     P 9520   6.820   3.350   6.919  0.2265 -0.0974 -0.1777
   96SAPE   O13 9521   6.925   3.312   7.014 -0.7556 -0.5415  0.3466
   96SAPE   O14 9522   6.686   3.321   6.959  0.3590  0.3683  0.3825
   96SAPE   O12 9523   6.834   3.504   6.892 -0.3435 -0.1295 -0.3750
   96SAPE   O11 9524   6.855   3.294   6.776 -0.3610  0.3919  0.0614
   96SAPE    C1 9525   6.801   3.338   6.659 -0.1498  0.4640  0.3974
   96SAPE    HA 9526   6.694   3.363   6.671 -1.0081 -2.0287 -1.2287
   96SAPE    HB 9527   6.863   3.422   6.620 -0.0504  0.1322 -0.1728
   96SAPE    C2 9528   6.806   3.226   6.550  0.6564 -0.2629  0.0222
   96SAPE    HS 9529   6.757   3.268   6.460 -0.7879 -1.5513  0.1763
   96SAPE   O21 9530   6.729   3.113   6.596  0.3491  0.3169  0.2522
   96SAPE   C21 9531   6.586   3.127   6.566 -0.1926  0.0918 -0.1702
   96SAPE   O22 9532   6.543   3.214   6.498  0.2086  1.0105 -0.2465
   96SAPE   C22 9533   6.510   3.012   6.617 -0.3512  0.4926  0.0138
   96SAPE   H2R 9534   6.534   2.995   6.724  0.6547  1.3680 -0.0528
   96SAPE   H2S 9535   6.400   3.026   6.613 -0.2503  1.2902 -4.0047
   96SAPE    C3 9536   6.941   3.178   6.497  0.3079 -0.2438  0.4778
   96SAPE    HX 9537   6.990   3.137   6.587 -0.2968 -2.7930 -0.2578
   96SAPE    HY 9538   7.004   3.262   6.458 -0.3959  0.4347  0.7756
   96SAPE   O31 9539   6.919   3.092   6.382 -0.1854  0.1342  0.0198
   96SAPE   C31 9540   6.975   2.965   6.403  0.0319 -0.2145  0.3155
   96SAPE   O32 9541   7.054   2.940   6.491  0.2453  0.0770 -0.9257
   96SAPE   C32 9542   6.942   2.878   6.287  0.4493 -0.4450  0.3587
   96SAPE   H2X 9543   6.976   2.930   6.195 -1.8095 -0.6171 -0.6511
   96SAPE   H2Y 9544   6.832   2.872   6.271  0.7344 -1.0272 -1.7625
   96SAPE   C23 9545   6.557   2.887   6.539  0.6055 -0.3073  0.6568
   96SAPE   H3R 9546   6.533   2.794   6.595  1.3456 -0.4771  0.6976
   96SAPE   H3S 9547   6.668   2.887   6.529  0.6555 -0.0078  1.1754
   96SAPE   C24 9548   6.496   2.877   6.401 -0.2666  0.5705 -0.0539
   96SAPE   H4R 9549   6.517   2.977   6.357  0.3293  0.1752 -0.7038
   96SAPE   H4S 9550   6.385   2.877   6.397 -0.2906  0.5826  0.5598
   96SAPE   C25 9551   6.560   2.764   6.314  0.4960  0.1132  0.2559
   96SAPE   H5R 9552   6.576   2.670   6.368  1.4067  1.6455  2.8040
   96SAPE   C26 9553   6.595   2.772   6.180  0.2618  0.1394 -0.9653
   96SAPE   H6R 9554   6.626   2.678   6.131  1.9117  0.5751 -0.8146
   96SAPE   C27 9555   6.584   2.901   6.102 -0.1378  0.0465 -0.9457
   96SAPE   H7R 9556   6.563   2.992   6.162 -2.5187 -0.3839 -1.0527
   96SAPE   H7S 9557   6.490   2.908   6.044 -1.9147  2.6710  1.9343
   96SAPE   C28 9558   6.706   2.935   6.017  0.2442  0.4319 -0.2643
   96SAPE   H8R 9559   6.796   2.928   6.080 -0.4155  0.5199  0.7037
   96SAPE   C29 9560   6.713   2.951   5.886 -0.3049 -0.0781 -0.5502
   96SAPE   H9R 9561   6.807   2.985   5.838  2.0366 -2.0616  2.2692
   96SAPE  C210 9562   6.599   2.944   5.789 -0.3449  0.4255  0.8027
   96SAPE  H10R 9563   6.605   3.034   5.724  1.6088  0.9802  1.6631
   96SAPE  H10S 9564   6.501   2.937   5.841 -1.0888 -0.0191 -0.6252
   96SAPE  C211 9565   6.611   2.821   5.705 -0.1569  0.6435 -0.6394
   96SAPE  H11R 9566   6.583   2.729   5.760  1.2051  0.1248 -0.7892
   96SAPE  C212 9567   6.663   2.797   5.582  0.4591 -0.2607  0.7308
   96SAPE  H12R 9568   6.661   2.694   5.543  0.0093 -0.9643  2.5226
   96SAPE  C213 9569   6.716   2.903   5.483  0.7948 -0.1729  0.0254
   96SAPE  H13R 9570   6.777   2.976   5.540  2.0228 -0.9498 -0.2489
   96SAPE  H13S 9571   6.634   2.968   5.446 -0.6952 -2.6024 -1.1935
   96SAPE  C214 9572   6.791   2.825   5.371  0.6107 -0.3175 -0.3558
   96SAPE  H14R 9573   6.884   2.778   5.407 -1.0315 -2.3517  1.4742
   96SAPE  C215 9574   6.747   2.815   5.243 -0.2556 -0.8485  0.1082
   96SAPE  H15R 9575   6.809   2.758   5.172  1.0192  1.3767 -0.6792
   96SAPE  C216 9576   6.617   2.867   5.184 -0.1807 -0.0315 -0.3391
   96SAPE  H16R 9577   6.540   2.852   5.262 -1.0864  0.0919 -1.1869
   96SAPE  H16S 9578   6.587   2.798   5.102  0.3912 -1.0399  0.2774
   96SAPE  C217 9579   6.618   3.007   5.130  0.1773  1.2665 -0.6720
   96SAPE  H17R 9580   6.640   3.089   5.201 -0.4090  1.0280 -0.2054
   96SAPE  H17S 9581   6.514   3.028   5.096 -0.9664  0.5598  2.1531
   96SAPE  C218 9582   6.731   3.041   5.014  0.5156 -0.0958 -0.0911
   96SAPE  H18R 9583   6.839   3.045   5.037  0.8591 -0.4850 -1.5515
   96SAPE  H18S 9584   6.689   3.140   4.986  1.0754 -0.1912 -1.3418
   96SAPE  C219 9585   6.723   2.958   4.888  0.3541 -0.2583 -0.5728
   96SAPE  H19R 9586   6.763   2.856   4.906  0.5293  0.0729  1.0210
   96SAPE  H19S 9587   6.794   3.003   4.815 -0.3123 -0.2636 -1.2352
   96SAPE  C220 9588   6.594   2.946   4.822  0.5040  0.2037  0.3735
   96SAPE  H20R 9589   6.604   2.865   4.746  1.0959  0.0334  0.6309
   96SAPE  H20S 9590   6.553   3.032   4.765  0.9764 -0.7755 -1.5324
   96SAPE  H20T 9591   6.511   2.912   4.887 -0.6490 -1.8047 -1.9356
   96SAPE   C33 9592   7.006   2.738   6.297  0.1744 -0.9403 -0.1049
   96SAPE   H3X 9593   6.973   2.677   6.384 -2.3811  2.5118  1.5460
   96SAPE   H3Y 9594   7.115   2.757   6.291 -0.1468  1.7418  1.1106
   96SAPE   C34 9595   6.966   2.651   6.180  0.4906 -0.0042  0.2464
   96SAPE   H4X 9596   6.857   2.649   6.159  0.6464 -0.1340 -0.6124
   96SAPE   H4Y 9597   7.006   2.550   6.203 -0.0747 -0.5682 -1.1230
   96SAPE   C35 9598   7.026   2.699   6.046 -0.3316 -0.0739  0.0479
   96SAPE   H5X 9599   7.136   2.699   6.031 -0.1094  0.5239  1.5133
   96SAPE   H5Y 9600   6.992   2.801   6.016  0.1263  0.1310  0.2151
   96SAPE   C36 9601   6.966   2.609   5.932 -0.2564  0.2108  0.2064
   96SAPE   H6X 9602   6.855   2.610   5.927 -0.3798  0.1755  2.0366
   96SAPE   H6Y 9603   6.998   2.506   5.960 -0.6052  0.0360 -0.0333
   96SAPE   C37 9604   7.022   2.626   5.789  0.1797  0.1496 -0.7200
   96SAPE   H7X 9605   7.132   2.640   5.788 -0.0393  2.6457  0.8652
   96SAPE   H7Y 9606   6.972   2.720   5.756 -0.5410 -0.0819 -0.3140
   96SAPE   C38 9607   6.981   2.512   5.697  0.6606  0.6057 -0.1187
   96SAPE   H8X 9608   6.871   2.503   5.685  0.8704  0.1043 -1.9031
   96SAPE   H8Y 9609   7.009   2.413   5.739  0.9827  0.7126 -0.0749
   96SAPE   C39 9610   7.051   2.525   5.563 -0.4516 -0.4102 -0.2880
   96SAPE   H9X 9611   7.159   2.551   5.575 -0.5485  0.1183 -0.5549
   96SAPE   H9Y 9612   7.005   2.602   5.498 -0.0817 -0.1748 -0.2754
   96SAPE  C310 9613   7.054   2.394   5.488 -0.9837  0.8034  0.2869
   96SAPE  H10X 9614   6.949   2.357   5.484  0.1134 -2.8019  1.1855
   96SAPE  H10Y 9615   7.112   2.326   5.555 -0.7001  1.6225  0.8887
   96SAPE  C311 9616   7.116   2.398   5.342 -0.4104  0.6681 -0.4599
   96SAPE  H11X 9617   7.196   2.320   5.341 -1.1985 -0.1442 -1.5006
   96SAPE  H11Y 9618   7.178   2.490   5.349  0.2209  0.1939  0.5308
   96SAPE  C312 9619   7.021   2.392   5.232 -0.6082 -0.1359 -0.0771
   96SAPE  H12X 9620   6.936   2.462   5.247  0.5460  1.5530 -1.0865
   96SAPE  H12Y 9621   6.981   2.289   5.233  0.1384 -0.5457  3.5386
   96SAPE  C313 9622   7.097   2.417   5.101  0.0213 -0.0685 -0.2908
   96SAPE  H13X 9623   7.181   2.344   5.110  0.3874  0.6209  4.6031
   96SAPE  H13Y 9624   7.125   2.524   5.104 -2.4584  0.6327  0.1111
   96SAPE  C314 9625   7.007   2.393   4.980  0.6229 -0.9615 -0.0825
   96SAPE  H14X 9626   6.921   2.464   4.983  0.4974 -1.0094 -1.6320
   96SAPE  H14Y 9627   6.962   2.292   4.973  0.5667 -0.9644  0.2998
   96SAPE  C315 9628   7.078   2.424   4.850  0.2620  0.6925  1.1565
   96SAPE  H15X 9629   7.173   2.365   4.846 -0.6133 -0.7168 -0.8348
   96SAPE  H15Y 9630   7.109   2.530   4.861  0.4295  0.6038  1.5446
   96SAPE  C316 9631   6.994   2.398   4.725  0.4750  0.0831  0.3201
   96SAPE  H16X 9632   6.901   2.345   4.752  1.0554 -1.5265 -0.7332
   96SAPE  H16Y 9633   7.038   2.331   4.649 -1.1309 -0.4347 -0.1955
   96SAPE  C317 9634   6.962   2.532   4.651 -0.1731 -0.2290  0.0038
   96SAPE  H17X 9635   6.910   2.510   4.555  1.9083  1.2514 -1.5499
   96SAPE  H17Y 9636   7.056   2.587   4.630 -0.7713  0.3632 -1.1911
   96SAPE  C318 9637   6.869   2.633   4.715 -0.2440  0.0576 -0.1722
   96SAPE  H18X 9638   6.898   2.663   4.818  1.0181  1.5343 -0.9246
   96SAPE  H18Y 9639   6.770   2.583   4.707 -0.9125  1.3530 -0.2092
   96SAPE  H18Z 9640   6.867   2.725   4.653  1.1780  1.1095  1.2699
   97SAPE     N 9641   6.949   3.892   6.063 -0.7358  0.1756  0.2607
   97SAPE   HN1 9642   6.860   3.904   6.010 -1.3308 -1.9518  0.6694
   97SAPE   HN2 9643   6.914   3.823   6.133 -3.1107 -0.3837 -1.3500
   97SAPE   HN3 9644   6.980   3.979   6.110  0.4043  2.3847 -4.0759
   97SAPE   C12 9645   7.057   3.843   5.970 -0.3784 -0.0033 -0.5633
   97SAPE  H12A 9646   7.072   3.927   5.899  0.0079 -0.4629 -1.0336
   97SAPE  H12B 9647   7.007   3.758   5.918  1.1825 -1.5156  0.2934
   97SAPE   C11 9648   7.194   3.823   6.050 -0.1808  0.5781 -0.0519
   97SAPE  H11A 9649   7.258   3.769   5.977 -1.3543 -0.1528 -0.5654
   97SAPE  H11B 9650   7.163   3.755   6.132 -1.0651  1.6875  0.5527
   97SAPE     P 9651   7.406   3.933   6.136  0.1516  0.1550 -0.0898
   97SAPE   O13 9652   7.477   3.994   6.026 -0.7103  0.0296  0.0815
   97SAPE   O14 9653   7.423   4.004   6.264  0.7704  0.1872  0.0891
   97SAPE   O12 9654   7.256   3.935   6.107  0.2839  0.3547 -0.3121
   97SAPE   O11 9655   7.445   3.780   6.152 -0.0601  0.4652 -0.1784
   97SAPE    C1 9656   7.570   3.736   6.094 -0.4001  0.6133  0.4077
   97SAPE    HA 9657   7.648   3.810   6.066  0.5206 -1.1048 -1.9405
   97SAPE    HB 9658   7.618   3.679   6.177 -2.3438  3.4059  3.6821
   97SAPE    C2 9659   7.547   3.642   5.972 -0.5274 -0.2794 -0.0534
   97SAPE    HS 9660   7.644   3.593   5.948  0.8638  1.2034  2.2373
   97SAPE   O21 9661   7.505   3.723   5.857 -0.1171  0.3126 -0.3424
   97SAPE   C21 9662   7.600   3.778   5.778  0.4901 -0.0729 -0.5268
   97SAPE   O22 9663   7.719   3.783   5.802 -0.2428 -0.2591  0.3282
   97SAPE   C22 9664   7.521   3.851   5.662  0.5186 -0.1444 -0.4412
   97SAPE   H2R 9665   7.475   3.768   5.605  3.8301 -1.9798 -0.6556
   97SAPE   H2S 9666   7.448   3.916   5.715  0.5662 -1.2454  1.0426
   97SAPE    C3 9667   7.450   3.528   6.001 -0.9376 -0.1780  0.1877
   97SAPE    HX 9668   7.366   3.577   6.056 -0.6950 -0.7376  1.0751
   97SAPE    HY 9669   7.486   3.453   6.074 -1.3500 -0.2245  0.3492
   97SAPE   O31 9670   7.387   3.466   5.891 -0.0738 -0.2716  0.0358
   97SAPE   C31 9671   7.466   3.409   5.806 -0.3304  0.4749  0.3091
   97SAPE   O32 9672   7.585   3.387   5.827  0.0310  0.5066  0.2934
   97SAPE   C32 9673   7.386   3.349   5.686 -0.7583 -0.2959  0.0095
   97SAPE   H2X 9674   7.304   3.420   5.660 -0.1835  0.4660  0.2543
   97SAPE   H2Y 9675   7.346   3.249   5.713  0.3485 -0.6412  0.4213
   97SAPE   C23 9676   7.612   3.938   5.578 -0.5773 -1.2843  0.8379
   97SAPE   H3R 9677   7.689   3.993   5.635  1.5570 -2.3205 -0.9108
   97SAPE   H3S 9678   7.550   4.014   5.525  0.4260 -0.0124  1.4312
   97SAPE   C24 9679   7.682   3.860   5.473 -0.1658 -0.0758 -0.0995
   97SAPE   H4R 9680   7.613   3.795   5.414 -1.0557  1.4317 -0.7992
   97SAPE   H4S 9681   7.760   3.790   5.509 -0.4580 -0.4380 -0.1690
   97SAPE   C25 9682   7.734   3.955   5.365  0.3868 -0.2691  0.0043
   97SAPE   H5R 9683   7.844   3.960   5.373  0.2252  3.3088  4.0963
   97SAPE   C26 9684   7.671   4.045   5.283 -0.1426 -0.2784 -0.5548
   97SAPE   H6R 9685   7.730   4.121   5.230 -1.1198 -0.3479 -1.7732
   97SAPE   C27 9686   7.526   4.049   5.263 -0.2245 -0.7586  0.2736
   97SAPE   H7R 9687   7.473   3.964   5.311 -1.7615  0.8061  1.4620
   97SAPE   H7S 9688   7.505   4.037   5.154 -0.7936  1.9597  0.0085
   97SAPE   C28 9689   7.469   4.172   5.319  0.2299 -0.1818 -0.6600
   97SAPE   H8R 9690   7.438   4.164   5.424  3.7169 -0.7238  0.4799
   97SAPE   C29 9691   7.438   4.280   5.246  0.2016  0.3056 -0.1199
   97SAPE   H9R 9692   7.403   4.363   5.309  3.2103  1.3531  0.3645
   97SAPE  C210 9693   7.468   4.312   5.105  0.0747  0.6663 -0.1659
   97SAPE  H10R 9694   7.553   4.252   5.066 -0.7253  0.1111 -1.1067
   97SAPE  H10S 9695   7.501   4.418   5.117 -1.4167  1.0603  0.7975
   97SAPE  C211 9696   7.357   4.290   5.008  0.4500  0.4558  0.0903
   97SAPE  H11R 9697   7.256   4.316   5.045  0.6673  0.2337  0.8665
   97SAPE  C212 9698   7.367   4.231   4.884  0.1019  0.3799 -0.7669
   97SAPE  H12R 9699   7.276   4.221   4.822  0.3326 -2.5065 -0.7947
   97SAPE  C213 9700   7.493   4.190   4.812  0.3771 -0.5020  0.0424
   97SAPE  H13R 9701   7.491   4.085   4.775  1.0089 -0.2263 -0.8216
   97SAPE  H13S 9702   7.573   4.185   4.889  0.3762  0.2536  0.0979
   97SAPE  C214 9703   7.539   4.282   4.699  0.1918  0.1276  0.1562
   97SAPE  H14R 9704   7.522   4.389   4.721 -0.3200  0.2813 -0.9080
   97SAPE  C215 9705   7.619   4.251   4.594 -0.2792 -0.3403 -0.5567
   97SAPE  H15R 9706   7.642   4.338   4.529 -1.9369  0.7181  0.1948
   97SAPE  C216 9707   7.669   4.113   4.559 -0.1108 -0.4922 -0.2937
   97SAPE  H16R 9708   7.656   4.030   4.632 -1.8203 -1.4619 -1.6212
   97SAPE  H16S 9709   7.775   4.113   4.527 -0.2315 -1.5741 -0.7196
   97SAPE  C217 9710   7.586   4.078   4.436 -0.4222  0.5657  0.2704
   97SAPE  H17R 9711   7.621   4.135   4.347 -1.0158  1.6750  0.7303
   97SAPE  H17S 9712   7.482   4.102   4.468 -0.3767 -0.8688  1.5986
   97SAPE  C218 9713   7.579   3.924   4.403 -0.5171 -0.5676 -0.6043
   97SAPE  H18R 9714   7.545   3.894   4.505  2.1198  2.0323  1.2028
   97SAPE  H18S 9715   7.679   3.877   4.391 -0.8350 -1.1185 -1.1344
   97SAPE  C219 9716   7.491   3.880   4.286 -0.4528  0.3722  0.2985
   97SAPE  H19R 9717   7.398   3.939   4.301 -2.3778 -2.2110 -0.6255
   97SAPE  H19S 9718   7.470   3.771   4.297  2.5403 -0.5605 -1.9097
   97SAPE  C220 9719   7.550   3.909   4.151  0.0445  0.0728  0.3352
   97SAPE  H20R 9720   7.484   3.862   4.076 -1.3454 -0.4470  1.8310
   97SAPE  H20S 9721   7.651   3.864   4.136 -0.5299 -0.5330 -2.1822
   97SAPE  H20T 9722   7.562   4.017   4.129  2.4187  0.1678  1.6591
   97SAPE   C33 9723   7.482   3.320   5.572 -0.2487  0.0401 -0.5270
   97SAPE   H3X 9724   7.528   3.219   5.574  1.8701  0.9567 -0.4003
   97SAPE   H3Y 9725   7.567   3.392   5.567 -1.5499  1.6338 -0.4493
   97SAPE   C34 9726   7.403   3.326   5.444  0.3087  0.0713  0.0843
   97SAPE   H4X 9727   7.375   3.431   5.422 -0.7580 -0.2030  0.1037
   97SAPE   H4Y 9728   7.311   3.264   5.448 -0.4334  0.8700 -2.5962
   97SAPE   C35 9729   7.488   3.290   5.322  0.7231 -0.1624 -0.3132
   97SAPE   H5X 9730   7.528   3.186   5.318 -1.2743 -1.0730  1.4354
   97SAPE   H5Y 9731   7.584   3.346   5.317  1.0317 -0.7750 -1.4777
   97SAPE   C36 9732   7.413   3.324   5.183 -0.4952 -0.3038 -0.6281
   97SAPE   H6X 9733   7.420   3.434   5.171  1.4908 -0.3644 -0.3858
   97SAPE   H6Y 9734   7.306   3.296   5.198 -0.2029 -0.4158  1.4470
   97SAPE   C37 9735   7.481   3.271   5.057  0.5026  0.4956 -0.7632
   97SAPE   H7X 9736   7.470   3.161   5.064 -0.5694  0.5900 -0.7993
   97SAPE   H7Y 9737   7.585   3.308   5.066  0.1154  1.1102  2.5469
   97SAPE   C38 9738   7.417   3.315   4.927  0.4685 -0.2072 -0.3249
   97SAPE   H8X 9739   7.420   3.425   4.917 -0.9958  0.0379  1.3314
   97SAPE   H8Y 9740   7.307   3.310   4.935  0.3044  1.6192 -0.9483
   97SAPE   C39 9741   7.466   3.236   4.807  0.1304 -0.2014  0.9428
   97SAPE   H9X 9742   7.427   3.131   4.810  1.3869 -0.7570 -0.8366
   97SAPE   H9Y 9743   7.577   3.241   4.808  0.2768 -1.0965 -1.9955
   97SAPE  C310 9744   7.422   3.295   4.665 -0.4031  0.1589 -0.1122
   97SAPE  H10X 9745   7.312   3.285   4.664 -0.3023 -2.2736  1.8386
   97SAPE  H10Y 9746   7.455   3.219   4.591  0.0604 -0.6271  0.8703
   97SAPE  C311 9747   7.487   3.431   4.632 -0.5667  0.2192 -0.3206
   97SAPE  H11X 9748   7.479   3.505   4.714 -1.9681  0.4436 -0.6323
   97SAPE  H11Y 9749   7.413   3.472   4.561 -0.4499  2.8740  0.9991
   97SAPE  C312 9750   7.623   3.415   4.565  0.1477 -0.2867 -0.0021
   97SAPE  H12X 9751   7.619   3.343   4.481 -1.1583 -0.4561  0.1750
   97SAPE  H12Y 9752   7.682   3.376   4.651 -0.5238  0.9434  1.0608
   97SAPE  C313 9753   7.681   3.547   4.506  0.2431 -0.8801 -0.3884
   97SAPE  H13X 9754   7.717   3.601   4.596 -0.2348  0.5077 -0.9907
   97SAPE  H13Y 9755   7.605   3.608   4.451  1.9941  0.8688 -0.9955
   97SAPE  C314 9756   7.792   3.520   4.402  0.1329  0.3140  0.1130
   97SAPE  H14X 9757   7.763   3.443   4.327 -0.8367  1.4362 -0.7122
   97SAPE  H14Y 9758   7.880   3.480   4.457  1.5871  1.0430 -1.5760
   97SAPE  C315 9759   7.850   3.638   4.325  0.6883 -0.7792  0.7478
   97SAPE  H15X 9760   7.909   3.715   4.380 -1.4628  0.5858  1.2712
   97SAPE  H15Y 9761   7.768   3.701   4.283  2.2333  1.2995  0.6678
   97SAPE  C316 9762   7.942   3.586   4.209  0.0312  0.3838 -0.3524
   97SAPE  H16X 9763   7.897   3.515   4.137  0.6254 -1.2633  0.8546
   97SAPE  H16Y 9764   8.026   3.535   4.260  0.2723  0.6063 -0.5216
   97SAPE  C317 9765   7.985   3.691   4.110 -0.6109 -0.5032  0.1396
   97SAPE  H17X 9766   8.087   3.668   4.072 -1.1121  0.3283 -1.8345
   97SAPE  H17Y 9767   8.005   3.780   4.174  1.1599 -0.1911 -0.7810
   97SAPE  C318 9768   7.895   3.732   3.996  0.2056  0.0095 -0.2962
   97SAPE  H18X 9769   7.961   3.802   3.941  4.7356 -2.0920  1.8884
   97SAPE  H18Y 9770   7.792   3.769   4.019 -0.1722 -0.7546 -0.7396
   97SAPE  H18Z 9771   7.874   3.654   3.920  1.0821  1.0274 -1.6444
   98SAPE     N 9772   6.516   3.661   6.410 -0.7218 -0.4636  0.1874
   98SAPE   HN1 9773   6.478   3.709   6.326  1.4526  1.3743  0.1596
   98SAPE   HN2 9774   6.448   3.687   6.484  1.0873  1.7226  1.2066
   98SAPE   HN3 9775   6.606   3.695   6.448  0.4218 -3.0267 -0.0099
   98SAPE   C12 9776   6.529   3.515   6.393 -0.4176  0.0282 -0.0842
   98SAPE  H12A 9777   6.433   3.480   6.348 -1.4424 -0.0541  2.0564
   98SAPE  H12B 9778   6.545   3.472   6.494  2.2508  1.5458  0.2283
   98SAPE   C11 9779   6.658   3.488   6.319  0.6884  0.1999  0.2595
   98SAPE  H11A 9780   6.645   3.544   6.225 -0.7113  1.1739  1.0034
   98SAPE  H11B 9781   6.667   3.380   6.294  0.7909  0.3505 -0.3533
   98SAPE     P 9782   6.923   3.576   6.345  0.2481 -0.8004 -0.2304
   98SAPE   O13 9783   6.899   3.705   6.269  0.3722  0.4923  0.2106
   98SAPE   O14 9784   7.008   3.581   6.465 -0.2395 -0.6014 -0.1612
   98SAPE   O12 9785   6.782   3.520   6.392 -0.0130  0.0101 -0.1599
   98SAPE   O11 9786   6.974   3.460   6.251 -0.0846  0.1250 -0.2085
   98SAPE    C1 9787   6.941   3.440   6.113 -0.1652  0.2152  0.1394
   98SAPE    HA 9788   6.837   3.403   6.098 -0.3100  0.6167  0.1315
   98SAPE    HB 9789   6.948   3.536   6.057  2.4625 -0.9811 -1.8001
   98SAPE    C2 9790   7.026   3.325   6.053  0.0183  0.1888  0.1197
   98SAPE    HS 9791   7.128   3.363   6.033 -0.8268  1.3138 -2.5024
   98SAPE   O21 9792   6.968   3.272   5.930 -1.0393 -0.1809 -0.4230
   98SAPE   C21 9793   6.986   3.341   5.819 -0.3749  0.5094  0.1546
   98SAPE   O22 9794   7.026   3.457   5.807  0.0557  0.5378 -0.2316
   98SAPE   C22 9795   6.949   3.260   5.703  0.3766  0.2244  0.2929
   98SAPE   H2R 9796   7.042   3.228   5.651 -1.0322 -2.2760 -0.8275
   98SAPE   H2S 9797   6.893   3.172   5.740  0.5794 -0.2128 -0.4259
   98SAPE    C3 9798   7.056   3.207   6.145 -0.3662  0.1814 -0.0170
   98SAPE    HX 9799   6.957   3.157   6.162  0.9866 -2.3832  0.8920
   98SAPE    HY 9800   7.100   3.234   6.243 -1.7847 -1.0588  1.0179
   98SAPE   O31 9801   7.132   3.109   6.082  0.1220 -0.1239  0.4165
   98SAPE   C31 9802   7.263   3.133   6.077 -0.3151  0.4113 -0.3078
   98SAPE   O32 9803   7.327   3.237   6.089 -0.4749  0.0678  0.2395
   98SAPE   C32 9804   7.329   2.999   6.045 -0.6185  0.1210 -0.3526
   98SAPE   H2X 9805   7.264   2.916   6.080  1.4727 -1.1624  0.6266
   98SAPE   H2Y 9806   7.422   2.997   6.106 -0.6009  0.4080 -0.3672
   98SAPE   C23 9807   6.873   3.348   5.596  0.7950 -0.1667 -0.0026
   98SAPE   H3R 9808   6.947   3.422   5.559  0.2076  0.6943  0.5069
   98SAPE   H3S 9809   6.790   3.408   5.639  0.8895 -1.3387  1.9097
   98SAPE   C24 9810   6.812   3.272   5.473 -0.6037 -0.8742  0.4333
   98SAPE   H4R 9811   6.766   3.350   5.409  1.2931  0.5069  0.6834
   98SAPE   H4S 9812   6.717   3.221   5.504 -0.5835 -0.9272  0.4086
   98SAPE   C25 9813   6.903   3.182   5.391 -0.1682  0.1146 -0.1128
   98SAPE   H5R 9814   6.926   3.087   5.442  0.8776 -0.1763 -1.0754
   98SAPE   C26 9815   6.950   3.216   5.266  0.0362 -0.5456 -0.5423
   98SAPE   H6R 9816   7.009   3.144   5.208  2.0581  0.3374  0.3169
   98SAPE   C27 9817   6.933   3.351   5.197  0.2050  0.1138 -0.2910
   98SAPE   H7R 9818   6.944   3.426   5.278 -0.1371 -1.9894  1.8029
   98SAPE   H7S 9819   6.826   3.349   5.168  0.4649 -2.6555 -1.4268
   98SAPE   C28 9820   7.022   3.390   5.080  0.6492 -0.1010  0.0398
   98SAPE   H8R 9821   7.128   3.411   5.102  0.3214  0.3635  1.2323
   98SAPE   C29 9822   6.973   3.411   4.955  0.9041  0.2586  0.8441
   98SAPE   H9R 9823   7.037   3.439   4.870  0.4394  0.0598  0.4235
   98SAPE  C210 9824   6.828   3.392   4.914 -0.0076 -0.5388  0.2855
   98SAPE  H10R 9825   6.775   3.490   4.909  0.8192 -0.0112  1.4276
   98SAPE  H10S 9826   6.769   3.329   4.984 -0.0817  0.0298  0.7411
   98SAPE  C211 9827   6.832   3.320   4.783  0.6199  0.8718  0.2066
   98SAPE  H11R 9828   6.924   3.280   4.738 -0.4031 -1.4910  0.0456
   98SAPE  C212 9829   6.718   3.277   4.720  0.0464  0.0365  0.2438
   98SAPE  H12R 9830   6.725   3.217   4.628 -1.8979 -1.1828  0.8182
   98SAPE  C213 9831   6.583   3.326   4.772  0.1603  0.2377 -0.1875
   98SAPE  H13R 9832   6.584   3.436   4.757 -1.6576  0.4174  0.7521
   98SAPE  H13S 9833   6.588   3.313   4.882  0.5297  0.9564 -0.1176
   98SAPE  C214 9834   6.453   3.270   4.718  0.1638  0.3072 -0.0221
   98SAPE  H14R 9835   6.404   3.200   4.786 -0.8301  2.7881  1.9735
   98SAPE  C215 9836   6.389   3.310   4.608 -0.0765 -0.1050 -0.8186
   98SAPE  H15R 9837   6.286   3.278   4.585 -1.1883  0.7975  2.3820
   98SAPE  C216 9838   6.448   3.413   4.514 -0.5299 -0.6277 -0.0563
   98SAPE  H16R 9839   6.546   3.457   4.543 -1.6121  0.6724  1.8877
   98SAPE  H16S 9840   6.375   3.495   4.494 -0.8037 -0.9116 -0.2247
   98SAPE  C217 9841   6.461   3.367   4.371 -0.7794 -0.4026  0.2575
   98SAPE  H17R 9842   6.499   3.436   4.292  1.0234 -3.7698 -2.0724
   98SAPE  H17S 9843   6.363   3.320   4.347 -0.8607 -0.4436  0.6686
   98SAPE  C218 9844   6.566   3.261   4.365  0.4304 -0.2732  0.2746
   98SAPE  H18R 9845   6.583   3.205   4.460  1.2756 -3.0903 -1.4277
   98SAPE  H18S 9846   6.665   3.302   4.338  0.1438 -1.2728 -2.6564
   98SAPE  C219 9847   6.522   3.158   4.247 -0.6123 -0.3888  0.1646
   98SAPE  H19R 9848   6.434   3.094   4.271 -0.9553 -0.2605 -0.6990
   98SAPE  H19S 9849   6.595   3.075   4.242  0.9308  0.9740 -0.6822
   98SAPE  C220 9850   6.497   3.219   4.112  0.1267 -0.3698  0.0200
   98SAPE  H20R 9851   6.485   3.131   4.044 -0.1491 -0.3852  0.0864
   98SAPE  H20S 9852   6.580   3.284   4.076 -0.7058  1.0860  0.6379
   98SAPE  H20T 9853   6.401   3.275   4.100  0.2061 -0.2237  0.0686
   98SAPE   C33 9854   7.365   2.989   5.894 -0.5375  0.0347  0.4366
   98SAPE   H3X 9855   7.432   2.901   5.882 -0.2753  0.1147  1.2530
   98SAPE   H3Y 9856   7.426   3.075   5.861  1.2889 -1.9444 -1.6499
   98SAPE   C34 9857   7.245   2.967   5.786 -0.3195 -0.2315 -0.0641
   98SAPE   H4X 9858   7.170   3.048   5.795  1.5889  1.6256 -0.1580
   98SAPE   H4Y 9859   7.196   2.870   5.810 -2.6117  0.7901 -0.3815
   98SAPE   C35 9860   7.306   2.961   5.646  0.2636  0.3898 -0.5653
   98SAPE   H5X 9861   7.363   2.866   5.638 -1.6846 -0.8591 -0.2599
   98SAPE   H5Y 9862   7.376   3.044   5.624  0.3643  0.5478  0.3183
   98SAPE   C36 9863   7.198   2.953   5.539 -0.0966  0.5759 -0.1431
   98SAPE   H6X 9864   7.176   3.061   5.529  1.9071  1.0836  0.5560
   98SAPE   H6Y 9865   7.108   2.893   5.568  0.8171 -1.3442 -1.0970
   98SAPE   C37 9866   7.255   2.882   5.410  0.1823  0.0305  0.9997
   98SAPE   H7X 9867   7.288   2.779   5.435  1.7281  0.1434 -0.4013
   98SAPE   H7Y 9868   7.350   2.932   5.380 -0.3140 -1.0544 -2.9647
   98SAPE   C38 9869   7.169   2.893   5.285  0.2330  0.0530  0.1916
   98SAPE   H8X 9870   7.171   3.001   5.258 -0.4976 -0.2819 -1.3122
   98SAPE   H8Y 9871   7.063   2.862   5.300  0.2037 -0.0561 -0.2233
   98SAPE   C39 9872   7.220   2.810   5.167 -0.6537  0.3942 -0.1376
   98SAPE   H9X 9873   7.191   2.705   5.189 -2.0817  0.4047 -1.7421
   98SAPE   H9Y 9874   7.330   2.824   5.159  0.0894 -4.1428 -0.7575
   98SAPE  C310 9875   7.145   2.850   5.035 -0.0508 -0.4043 -0.4714
   98SAPE  H10X 9876   7.038   2.858   5.063 -0.5745  0.0381 -2.4315
   98SAPE  H10Y 9877   7.145   2.781   4.948 -0.8296 -0.1751 -0.6608
   98SAPE  C311 9878   7.183   2.987   4.970  0.1710 -0.4443  0.9268
   98SAPE  H11X 9879   7.291   2.980   4.943 -0.1538 -0.0622 -0.5558
   98SAPE  H11Y 9880   7.171   3.065   5.048  0.8174  1.8784 -1.1849
   98SAPE  C312 9881   7.088   3.030   4.855 -0.2480 -0.2697 -0.3067
   98SAPE  H12X 9882   7.106   3.137   4.833  1.2731 -0.6334 -1.0219
   98SAPE  H12Y 9883   6.981   3.023   4.885 -0.8606  1.5370 -1.8791
   98SAPE  C313 9884   7.114   2.948   4.722  0.2735  0.2963  0.0044
   98SAPE  H13X 9885   7.087   2.841   4.728 -3.0358  1.0303 -0.1335
   98SAPE  H13Y 9886   7.216   2.960   4.680  0.2118  1.6993  0.1864
   98SAPE  C314 9887   7.031   2.992   4.599  0.4487 -0.3160  0.0886
   98SAPE  H14X 9888   7.044   3.102   4.594 -1.9879  0.2364  2.8335
   98SAPE  H14Y 9889   6.927   2.963   4.626  0.3170  0.9500  1.0466
   98SAPE  C315 9890   7.058   2.921   4.464  0.5286  0.1635 -0.0200
   98SAPE  H15X 9891   6.963   2.932   4.408  0.8530  0.8947 -0.4454
   98SAPE  H15Y 9892   7.078   2.821   4.508  1.0954  0.3267  0.1115
   98SAPE  C316 9893   7.172   2.974   4.384  0.7177  0.0840  0.3885
   98SAPE  H16X 9894   7.270   2.945   4.427  1.1641  0.0238 -0.6482
   98SAPE  H16Y 9895   7.174   3.084   4.396 -0.0004 -0.0881  2.6980
   98SAPE  C317 9896   7.190   2.919   4.240 -0.2058  0.6177 -0.0501
   98SAPE  H17X 9897   7.088   2.916   4.196 -1.1787 -1.5240  2.1558
   98SAPE  H17Y 9898   7.220   2.813   4.253 -0.4897  0.7195  1.5748
   98SAPE  C318 9899   7.298   2.995   4.165 -0.2484  0.3463  0.1017
   98SAPE  H18X 9900   7.286   2.973   4.057 -0.0058 -3.0145  0.6311
   98SAPE  H18Y 9901   7.404   2.978   4.195 -0.3233  1.0912  0.8204
   98SAPE  H18Z 9902   7.286   3.104   4.179  0.1560  0.5608 -1.0872
   99SAPE     N 9903   6.327   1.050   6.618 -0.1180  0.1248  0.4808
   99SAPE   HN1 9904   6.272   1.135   6.591  0.8503  0.4365 -0.5761
   99SAPE   HN2 9905   6.327   1.055   6.722 -2.2888  1.1183  0.5013
   99SAPE   HN3 9906   6.422   1.046   6.575  0.5376 -2.3057  1.9836
   99SAPE   C12 9907   6.263   0.929   6.558  0.4503 -0.2805 -0.2315
   99SAPE  H12A 9908   6.178   0.909   6.627 -0.5418  0.9448 -1.0523
   99SAPE  H12B 9909   6.329   0.839   6.566 -0.9114 -1.5987 -2.5976
   99SAPE   C11 9910   6.217   0.970   6.417 -0.3029 -0.5948  0.6051
   99SAPE  H11A 9911   6.201   0.872   6.366  1.3140  0.4641 -2.1355
   99SAPE  H11B 9912   6.289   1.015   6.346 -2.5643 -0.2522 -1.6218
   99SAPE     P 9913   6.097   1.198   6.386 -0.0194  0.0684  0.0599
   99SAPE   O13 9914   5.960   1.248   6.367 -0.4208  0.1077  0.0383
   99SAPE   O14 9915   6.162   1.244   6.512  0.1308 -0.2290  0.4044
   99SAPE   O12 9916   6.095   1.040   6.408  0.3872 -0.7989  0.5688
   99SAPE   O11 9917   6.181   1.229   6.258 -0.4615 -0.1488  0.7254
   99SAPE    C1 9918   6.141   1.171   6.128 -0.7424  1.0515 -0.3743
   99SAPE    HA 9919   6.168   1.064   6.122  0.0807  1.2640 -0.4912
   99SAPE    HB 9920   6.032   1.193   6.121 -0.9235  0.7949  1.1868
   99SAPE    C2 9921   6.210   1.231   6.007 -0.1299 -0.5937 -0.8104
   99SAPE    HS 9922   6.317   1.233   6.037 -0.2454  2.2321 -0.3545
   99SAPE   O21 9923   6.163   1.362   5.986 -0.4470 -0.5595 -0.8343
   99SAPE   C21 9924   6.232   1.439   5.908  0.6071 -1.1772  0.4843
   99SAPE   O22 9925   6.352   1.434   5.893  0.5143 -0.6136  0.4483
   99SAPE   C22 9926   6.142   1.543   5.850 -0.3664 -0.2169  0.3967
   99SAPE   H2R 9927   6.038   1.508   5.830  0.1106 -0.5829 -1.8161
   99SAPE   H2S 9928   6.139   1.630   5.918  0.6706 -0.3767  0.6516
   99SAPE    C3 9929   6.186   1.139   5.879 -0.5615 -0.0392 -0.5063
   99SAPE    HX 9930   6.077   1.135   5.857 -0.9497  0.0772  1.2368
   99SAPE    HY 9931   6.205   1.031   5.901 -1.8525 -0.3348 -0.7765
   99SAPE   O31 9932   6.249   1.179   5.750 -0.0311  0.0616  0.3710
   99SAPE   C31 9933   6.380   1.154   5.751  0.2562 -0.3011 -0.3911
   99SAPE   O32 9934   6.440   1.108   5.845 -0.2684  0.6691 -0.0105
   99SAPE   C32 9935   6.447   1.179   5.619  0.4001 -0.2438  0.5844
   99SAPE   H2X 9936   6.403   1.268   5.569 -2.5522 -0.6178  2.2785
   99SAPE   H2Y 9937   6.423   1.095   5.549 -1.0669  0.3222  0.3688
   99SAPE   C23 9938   6.189   1.616   5.715 -0.3464 -0.5312 -0.4079
   99SAPE   H3R 9939   6.277   1.679   5.741  0.1816 -0.7177 -1.6560
   99SAPE   H3S 9940   6.103   1.680   5.688 -1.8420 -0.8665  3.0457
   99SAPE   C24 9941   6.225   1.520   5.596  0.0069  0.7475 -0.0601
   99SAPE   H4R 9942   6.315   1.460   5.623  0.3684  1.5926  0.6512
   99SAPE   H4S 9943   6.257   1.585   5.512  0.5189  3.3270  2.0059
   99SAPE   C25 9944   6.112   1.431   5.562 -0.2524  0.9271 -0.4663
   99SAPE   H5R 9945   6.045   1.413   5.647  1.5888  3.3028  1.6171
   99SAPE   C26 9946   6.085   1.362   5.451 -0.2789  0.3773  0.8655
   99SAPE   H6R 9947   6.008   1.283   5.448 -0.0464  0.1740  0.0454
   99SAPE   C27 9948   6.174   1.379   5.324  0.2349  0.4986 -0.1804
   99SAPE   H7R 9949   6.229   1.476   5.328 -2.9068  2.5305 -1.5201
   99SAPE   H7S 9950   6.098   1.401   5.245 -0.5176 -1.2271  0.0238
   99SAPE   C28 9951   6.274   1.267   5.296  0.9040 -0.1226  0.4112
   99SAPE   H8R 9952   6.288   1.190   5.374  2.3602  1.8222  2.1543
   99SAPE   C29 9953   6.340   1.255   5.188 -0.5126 -0.0308  0.2848
   99SAPE   H9R 9954   6.412   1.173   5.170 -1.7192 -0.9202 -0.6187
   99SAPE  C210 9955   6.329   1.348   5.075  0.3774  0.0197 -0.4427
   99SAPE  H10R 9956   6.228   1.394   5.068 -0.3104 -1.5802 -5.7184
   99SAPE  H10S 9957   6.340   1.295   4.978  3.3892  1.0175 -0.7449
   99SAPE  C211 9958   6.442   1.447   5.095  0.6017 -0.1512 -0.8990
   99SAPE  H11R 9959   6.479   1.470   5.196 -0.4953 -1.0961 -0.2485
   99SAPE  C212 9960   6.493   1.517   4.989 -0.3677  0.2771  0.3671
   99SAPE  H12R 9961   6.580   1.581   5.012 -1.6955  1.9623  0.8755
   99SAPE  C213 9962   6.478   1.500   4.837  0.5014 -0.2580  0.3457
   99SAPE  H13R 9963   6.516   1.590   4.785  0.0534 -0.6727 -0.7333
   99SAPE  H13S 9964   6.372   1.510   4.808  0.5412 -1.6103 -0.3278
   99SAPE  C214 9965   6.551   1.384   4.782  0.0418 -0.4131  0.4236
   99SAPE  H14R 9966   6.539   1.295   4.845  0.0976 -0.2265  0.7029
   99SAPE  C215 9967   6.608   1.380   4.658  0.2143  0.5893  0.0432
   99SAPE  H15R 9968   6.665   1.293   4.620  1.3124  0.4145  1.9810
   99SAPE  C216 9969   6.621   1.504   4.569 -0.4309 -0.0184  0.4280
   99SAPE  H16R 9970   6.718   1.491   4.517  0.6035 -0.5703  2.4000
   99SAPE  H16S 9971   6.638   1.598   4.626 -0.5990  0.3646 -0.1507
   99SAPE  C217 9972   6.505   1.529   4.477  0.1500 -0.8127 -0.0330
   99SAPE  H17R 9973   6.413   1.568   4.526  0.7321 -0.1319  0.5527
   99SAPE  H17S 9974   6.471   1.445   4.414 -0.1406  0.8187 -2.1748
   99SAPE  C218 9975   6.548   1.632   4.366  0.1297  0.1475 -0.8074
   99SAPE  H18R 9976   6.649   1.601   4.332  2.0037  0.2857  3.8489
   99SAPE  H18S 9977   6.548   1.733   4.412  3.5102 -0.4011  0.6567
   99SAPE  C219 9978   6.454   1.630   4.245  0.6142  0.5609  0.3036
   99SAPE  H19R 9979   6.354   1.644   4.291  0.6989  0.9246  0.3828
   99SAPE  H19S 9980   6.465   1.531   4.196  1.8769  1.3592 -1.1124
   99SAPE  C220 9981   6.482   1.729   4.137 -0.2283  0.3605  0.0783
   99SAPE  H20R 9982   6.591   1.727   4.113 -0.3788  0.5229 -0.6633
   99SAPE  H20S 9983   6.453   1.832   4.165  0.8490  0.2779  1.5940
   99SAPE  H20T 9984   6.427   1.698   4.046  0.6494  0.9715 -0.6846
   99SAPE   C33 9985   6.602   1.182   5.640 -0.0664 -0.6373  0.3253
   99SAPE   H3X 9986   6.638   1.099   5.704 -0.5663 -1.1651 -0.0738
   99SAPE   H3Y 9987   6.633   1.275   5.693 -1.1470  0.4486 -0.8607
   99SAPE   C34 9988   6.667   1.179   5.497 -0.0655  0.1903 -0.3252
   99SAPE   H4X 9989   6.597   1.137   5.421 -0.0631  0.3360 -0.4088
   99SAPE   H4Y 9990   6.756   1.113   5.496 -0.3802 -0.2475 -1.3713
   99SAPE   C35 9991   6.714   1.319   5.466  0.3418  0.0036 -0.2057
   99SAPE   H5X 9992   6.791   1.344   5.542 -0.6469  1.2350  0.4414
   99SAPE   H5Y 9993   6.631   1.392   5.473  0.0149 -0.4882  2.4981
   99SAPE   C36 9994   6.779   1.330   5.333  0.2012 -0.2709 -0.4104
   99SAPE   H6X 9995   6.703   1.338   5.252 -1.0918  0.8255  0.8669
   99SAPE   H6Y 9996   6.843   1.243   5.308  0.6128 -0.1794  0.3115
   99SAPE   C37 9997   6.852   1.461   5.316 -0.9008 -0.3351 -0.2125
   99SAPE   H7X 9998   6.953   1.460   5.362 -1.5835 -0.7046  1.3514
   99SAPE   H7Y 9999   6.781   1.539   5.352 -0.6902  0.1628 -0.8535
   99SAPE   C3810000   6.874   1.506   5.166 -0.1185  0.3810 -0.1636
   99SAPE   H8X10001   6.925   1.604   5.152  0.7957 -0.2204 -1.2316
   99SAPE   H8Y10002   6.776   1.515   5.114 -0.1089  2.5523  0.1111
   99SAPE   C3910003   6.954   1.404   5.087  0.4996  0.0894 -0.4575
   99SAPE   H9X10004   6.913   1.302   5.105  1.0431  0.1403  1.1981
   99SAPE   H9Y10005   7.054   1.389   5.133 -0.3833 -2.1907  0.8852
   99SAPE  C31010006   6.970   1.445   4.938  0.2418 -0.0772  0.1392
   99SAPE  H10X10007   7.033   1.536   4.936 -0.6489  0.5491 -0.0705
   99SAPE  H10Y10008   6.878   1.481   4.887  0.5933  2.4244  1.1437
   99SAPE  C31110009   7.042   1.343   4.850  0.2256 -0.8410 -0.7710
   99SAPE  H11X10010   6.982   1.264   4.801  1.7972 -0.8370 -2.8233
   99SAPE  H11Y10011   7.115   1.288   4.912 -0.9506 -3.7060 -1.7825
   99SAPE  C31210012   7.129   1.391   4.722  0.3794 -0.0664  0.1131
   99SAPE  H12X10013   7.171   1.306   4.663  2.0593  0.9274 -0.1811
   99SAPE  H12Y10014   7.224   1.442   4.750  1.7547 -0.3794 -3.3487
   99SAPE  C31310015   7.054   1.486   4.625  0.8116 -0.3826  0.0917
   99SAPE  H13X10016   7.004   1.556   4.695 -0.9144 -0.4384 -1.0321
   99SAPE  H13Y10017   6.977   1.426   4.571 -0.7236  0.1497  1.5988
   99SAPE  C31410018   7.152   1.562   4.532  0.0750  0.4810 -0.1473
   99SAPE  H14X10019   7.219   1.484   4.488  0.2781 -0.6980  2.1028
   99SAPE  H14Y10020   7.215   1.631   4.591  3.0264 -2.3978  0.3923
   99SAPE  C31510021   7.072   1.640   4.431 -0.6498 -0.7588  0.4193
   99SAPE  H15X10022   7.023   1.725   4.483  1.9670  0.3336  1.2378
   99SAPE  H15Y10023   6.985   1.580   4.395 -0.6848 -0.5358  0.1236
   99SAPE  C31610024   7.157   1.675   4.311  0.8086 -0.0250  0.2174
   99SAPE  H16X10025   7.188   1.580   4.260 -0.2548  0.0677 -0.6276
   99SAPE  H16Y10026   7.252   1.725   4.339  0.8760 -0.1937  0.2925
   99SAPE  C31710027   7.075   1.759   4.208  0.0954 -0.1828 -0.2046
   99SAPE  H17X10028   7.035   1.848   4.262  0.6208 -0.6493  0.9727
   99SAPE  H17Y10029   6.998   1.693   4.163  0.1442 -0.7432  0.5324
   99SAPE  C31810030   7.166   1.804   4.088  0.6582 -0.1930  0.1362
   99SAPE  H18X10031   7.224   1.720   4.046  0.8487  0.9002 -1.8914
   99SAPE  H18Y10032   7.242   1.878   4.122 -2.4882  3.6452 -0.4952
   99SAPE  H18Z10033   7.109   1.834   3.998 -0.5691 -1.8208  0.3395
  100SAPE     N10034   4.693   2.606   6.617 -0.0595 -0.5628 -0.4419
  100SAPE   HN110035   4.622   2.553   6.562 -1.7088  0.7036  0.3605
  100SAPE   HN210036   4.696   2.697   6.567  1.5701  0.7612  1.8476
  100SAPE   HN310037   4.784   2.558   6.626 -0.3131 -0.9125  0.4131
  100SAPE   C1210038   4.640   2.635   6.758  0.5125  0.0247  0.3504
  100SAPE  H12A10039   4.717   2.701   6.804 -0.9436  1.9722  0.1149
  100SAPE  H12B10040   4.636   2.536   6.807  3.8254 -0.4183 -0.0337
  100SAPE   C1110041   4.495   2.704   6.769 -0.0305 -0.6675 -0.5107
  100SAPE  H11A10042   4.493   2.796   6.707  0.9406 -1.7861 -2.3145
  100SAPE  H11B10043   4.481   2.720   6.878 -0.9414  2.0949 -0.9532
  100SAPE     P10044   4.358   2.608   6.558 -0.2870 -0.1065 -0.0067
  100SAPE   O1310045   4.460   2.526   6.481 -0.0434 -0.2402 -0.7933
  100SAPE   O1410046   4.220   2.549   6.550 -0.0740  0.5233  0.3890
  100SAPE   O1210047   4.402   2.610   6.715  0.3398  0.5633  0.5907
  100SAPE   O1110048   4.356   2.759   6.526 -0.4234 -0.1039  0.0886
  100SAPE    C110049   4.333   2.792   6.391 -0.0238 -0.4719 -0.2968
  100SAPE    HA10050   4.257   2.723   6.348  0.4075 -1.6608  0.7709
  100SAPE    HB10051   4.281   2.888   6.375 -1.6961 -1.4246 -0.8024
  100SAPE    C210052   4.464   2.801   6.303  0.6345  0.0481  0.3448
  100SAPE    HS10053   4.538   2.722   6.328  1.2134 -0.1116 -1.7110
  100SAPE   O2110054   4.520   2.931   6.331 -0.2640  0.7378 -0.2017
  100SAPE   C2110055   4.599   2.946   6.437 -0.0296  0.6612 -0.2983
  100SAPE   O2210056   4.644   2.856   6.504  0.4273  0.5892 -0.5935
  100SAPE   C2210057   4.597   3.096   6.476 -0.2461  0.0814 -0.2723
  100SAPE   H2R10058   4.619   3.152   6.382 -0.7815 -0.3437 -0.6592
  100SAPE   H2S10059   4.490   3.121   6.492 -1.0085 -1.1240 -2.8928
  100SAPE    C310060   4.445   2.789   6.150  0.0467 -0.0122  0.3028
  100SAPE    HX10061   4.541   2.817   6.102 -0.9568  1.3661 -0.9680
  100SAPE    HY10062   4.370   2.864   6.117 -1.0835 -0.8704  0.8538
  100SAPE   O3110063   4.391   2.662   6.110 -0.0652 -0.2351  0.6287
  100SAPE   C3110064   4.473   2.570   6.068 -0.4781  0.3264  0.0365
  100SAPE   O3210065   4.594   2.582   6.064 -0.0272 -0.1314  0.3483
  100SAPE   C3210066   4.397   2.449   6.029  1.2589 -0.4190  0.2648
  100SAPE   H2X10067   4.288   2.470   6.036  1.3103 -0.3288  0.8385
  100SAPE   H2Y10068   4.419   2.364   6.098 -0.1697 -1.6962 -0.7808
  100SAPE   C2310069   4.683   3.139   6.597 -0.0092  0.0552  0.5943
  100SAPE   H3R10070   4.743   3.055   6.638  1.8830 -0.2544 -2.5024
  100SAPE   H3S10071   4.616   3.177   6.678  1.2420 -0.7780  2.0723
  100SAPE   C2410072   4.788   3.248   6.570  0.3753  0.0684  1.1554
  100SAPE   H4R10073   4.843   3.269   6.664  2.3220 -0.5542  0.2073
  100SAPE   H4S10074   4.743   3.346   6.543  1.2564  0.7037  1.9212
  100SAPE   C2510075   4.894   3.222   6.461  0.4470 -0.0777  0.4244
  100SAPE   H5R10076   4.975   3.158   6.498 -0.3844 -0.7459  1.1314
  100SAPE   C2610077   4.891   3.278   6.339  0.1470 -0.5609 -0.0211
  100SAPE   H6R10078   4.970   3.251   6.268 -0.8627 -0.9421 -1.0419
  100SAPE   C2710079   4.781   3.362   6.274 -0.1199  0.5209  0.3208
  100SAPE   H7R10080   4.690   3.387   6.333 -1.4546  1.6838 -2.0901
  100SAPE   H7S10081   4.740   3.307   6.186 -0.3964  3.2633 -1.3658
  100SAPE   C2810082   4.833   3.496   6.232  0.6551  0.2031  0.4313
  100SAPE   H8R10083   4.827   3.571   6.312 -1.7092  1.0157 -0.4041
  100SAPE   C2910084   4.864   3.542   6.108  0.1046 -0.3841 -0.3706
  100SAPE   H9R10085   4.898   3.646   6.095  4.0647 -1.4237  0.2389
  100SAPE  C21010086   4.869   3.465   5.973 -0.4234 -0.2450  0.1518
  100SAPE  H10R10087   4.933   3.376   5.991 -0.1440 -0.5960 -2.3127
  100SAPE  H10S10088   4.915   3.524   5.891 -2.6577  1.2175 -0.1324
  100SAPE  C21110089   4.735   3.426   5.918 -0.4777  0.5239 -0.1427
  100SAPE  H11R10090   4.678   3.362   5.987  1.2556 -1.6089 -0.5998
  100SAPE  C21210091   4.705   3.410   5.790 -0.0127 -0.9186  0.1630
  100SAPE  H12R10092   4.606   3.363   5.776 -0.6149  0.5795 -0.9817
  100SAPE  C21310093   4.762   3.465   5.658 -0.3021 -0.1227 -1.5170
  100SAPE  H13R10094   4.819   3.557   5.682 -0.2365 -0.0294 -2.0266
  100SAPE  H13S10095   4.678   3.500   5.595  1.2878 -0.0306 -3.6705
  100SAPE  C21410096   4.846   3.372   5.581  0.2034  0.5479  0.5332
  100SAPE  H14R10097   4.881   3.284   5.638 -1.4055 -0.2111  0.4099
  100SAPE  C21510098   4.840   3.358   5.447  0.2785  0.7883 -0.5673
  100SAPE  H15R10099   4.907   3.284   5.401 -1.5889 -2.3781  1.4250
  100SAPE  C21610100   4.769   3.451   5.355  0.0788 -0.7042  0.3259
  100SAPE  H16R10101   4.835   3.471   5.268 -1.8186 -1.5525 -1.3782
  100SAPE  H16S10102   4.746   3.554   5.391 -2.0859 -1.3197  0.8787
  100SAPE  C21710103   4.636   3.399   5.278 -0.1171  0.2835  0.5537
  100SAPE  H17R10104   4.558   3.375   5.353 -1.2409  0.3271 -0.5720
  100SAPE  H17S10105   4.666   3.310   5.219 -0.3472  2.7557 -3.6968
  100SAPE  C21810106   4.580   3.500   5.170 -0.1323  0.3668  0.0077
  100SAPE  H18R10107   4.645   3.513   5.081  0.5063 -2.5018 -0.0515
  100SAPE  H18S10108   4.594   3.594   5.228  2.4332 -0.7994  1.4688
  100SAPE  C21910109   4.438   3.463   5.130  0.0944  0.2490  0.3992
  100SAPE  H19R10110   4.390   3.428   5.224  0.3251  0.5619  0.6342
  100SAPE  H19S10111   4.440   3.388   5.048  1.9572  2.4176 -1.7096
  100SAPE  C22010112   4.355   3.580   5.084  0.6403 -0.4246 -0.3522
  100SAPE  H20R10113   4.368   3.601   4.976  2.6329  4.0754  0.5102
  100SAPE  H20S10114   4.401   3.671   5.128 -1.4230  0.5812 -0.1670
  100SAPE  H20T10115   4.247   3.564   5.103  0.7159 -0.1521  0.3581
  100SAPE   C3310116   4.423   2.409   5.884 -0.1160 -0.1988 -0.9941
  100SAPE   H3X10117   4.367   2.318   5.854 -0.8479 -0.4967  1.0927
  100SAPE   H3Y10118   4.533   2.407   5.866  0.1881  2.0688  0.2663
  100SAPE   C3410119   4.369   2.514   5.786  0.7076  1.0792  0.5831
  100SAPE   H4X10120   4.437   2.602   5.785  0.2424  1.4465 -0.6172
  100SAPE   H4Y10121   4.263   2.543   5.805  0.0077  0.4129 -1.9568
  100SAPE   C3510122   4.363   2.450   5.639  0.0119 -0.2750 -0.4565
  100SAPE   H5X10123   4.262   2.408   5.616  0.5940 -0.5425 -2.8174
  100SAPE   H5Y10124   4.434   2.365   5.640 -0.6607 -0.8512  0.2707
  100SAPE   C3610125   4.413   2.543   5.530 -0.0275 -1.2895  0.1235
  100SAPE   H6X10126   4.516   2.582   5.545 -0.0840 -0.5983 -1.1180
  100SAPE   H6Y10127   4.337   2.624   5.529 -0.1521 -1.4038 -0.9573
  100SAPE   C3710128   4.390   2.486   5.389  0.3757 -0.0534  0.1028
  100SAPE   H7X10129   4.316   2.405   5.377  0.3880  0.3447 -4.5610
  100SAPE   H7Y10130   4.488   2.441   5.362 -0.3147 -0.4756 -1.8578
  100SAPE   C3810131   4.364   2.594   5.282  0.0628 -0.1640 -0.7983
  100SAPE   H8X10132   4.423   2.688   5.290  1.4646 -1.0063 -1.1352
  100SAPE   H8Y10133   4.258   2.626   5.297  0.2362 -0.0453  0.2286
  100SAPE   C3910134   4.390   2.551   5.146 -0.0207  0.5574 -0.4444
  100SAPE   H9X10135   4.343   2.454   5.118  2.4185 -0.6826 -0.4599
  100SAPE   H9Y10136   4.497   2.530   5.130 -0.3900 -0.4610 -1.7759
  100SAPE  C31010137   4.340   2.655   5.044 -0.9696  0.0086 -0.0838
  100SAPE  H10X10138   4.386   2.753   5.068  0.8780 -1.1112  1.1792
  100SAPE  H10Y10139   4.230   2.669   5.052 -1.1098  0.6374 -2.4750
  100SAPE  C31110140   4.376   2.611   4.898  0.2331 -0.4767  0.1230
  100SAPE  H11X10141   4.317   2.519   4.874 -3.1817  1.1499  1.6416
  100SAPE  H11Y10142   4.483   2.579   4.906  0.4736  0.0163 -0.9407
  100SAPE  C31210143   4.362   2.722   4.797 -0.1490 -0.4238  0.0037
  100SAPE  H12X10144   4.380   2.825   4.836 -1.0610 -0.0321 -0.5714
  100SAPE  H12Y10145   4.252   2.740   4.789 -0.4538 -1.8517  0.6018
  100SAPE  C31310146   4.423   2.695   4.654 -0.7618  0.0156  0.1572
  100SAPE  H13X10147   4.533   2.681   4.653 -0.8471 -0.7201  0.1331
  100SAPE  H13Y10148   4.405   2.786   4.592  0.9641  1.1710  1.2916
  100SAPE  C31410149   4.361   2.571   4.583  0.0059 -0.0452  0.0233
  100SAPE  H14X10150   4.406   2.480   4.627 -1.2657 -0.2257  1.0259
  100SAPE  H14Y10151   4.409   2.580   4.483  0.5842  0.0066  0.3049
  100SAPE  C31510152   4.210   2.567   4.584 -0.0918  0.3875  0.2891
  100SAPE  H15X10153   4.183   2.563   4.692  0.7393 -4.3967  0.5338
  100SAPE  H15Y10154   4.163   2.475   4.544 -1.1088  1.0350 -0.0409
  100SAPE  C31610155   4.132   2.676   4.501  0.2385  0.8940  0.4154
  100SAPE  H16X10156   4.168   2.677   4.396 -2.4601  2.9045 -0.6086
  100SAPE  H16Y10157   4.146   2.774   4.553 -5.1150  1.2598  1.7403
  100SAPE  C31710158   3.981   2.647   4.494  0.1083 -0.1206  0.2922
  100SAPE  H17X10159   3.934   2.636   4.594 -0.8641 -2.2808 -0.3417
  100SAPE  H17Y10160   3.963   2.548   4.447  2.4353 -0.3393 -0.2483
  100SAPE  C31810161   3.887   2.740   4.414 -0.3759 -0.1502  0.1345
  100SAPE  H18X10162   3.917   2.768   4.310 -0.4099 -1.4464 -0.2358
  100SAPE  H18Y10163   3.879   2.838   4.465  2.3750 -0.6490  1.7026
  100SAPE  H18Z10164   3.784   2.699   4.409  0.0504 -1.2006 -0.2440
  101SAPE     N10165   5.508   4.964   6.440 -0.0296  0.4936 -0.1301
  101SAPE   HN110166   5.611   4.960   6.428 -0.2562  1.8249 -3.4289
  101SAPE   HN210167   5.467   4.896   6.373  2.8656 -1.4025 -0.1336
  101SAPE   HN310168   5.481   5.061   6.416  1.2582  1.0716  0.6428
  101SAPE   C1210169   5.475   4.944   6.586 -0.4612  0.3665  1.4692
  101SAPE  H12A10170   5.364   4.943   6.598 -0.6931  2.3534  0.0068
  101SAPE  H12B10171   5.528   5.021   6.647  0.0151  0.3850  1.0330
  101SAPE   C1110172   5.518   4.804   6.634  0.3862  1.3232  0.0371
  101SAPE  H11A10173   5.507   4.801   6.744  0.1269 -2.6183  0.0258
  101SAPE  H11B10174   5.628   4.797   6.622  0.3245 -0.5876  0.3910
  101SAPE     P10175   5.310   4.631   6.601 -0.0498 -0.2483  0.0313
  101SAPE   O1310176   5.323   4.534   6.712 -0.5938 -0.1761 -0.4562
  101SAPE   O1410177   5.216   4.740   6.621 -0.3694 -0.2556  0.1760
  101SAPE   O1210178   5.450   4.691   6.571 -0.5315 -0.5971  0.2190
  101SAPE   O1110179   5.274   4.547   6.469 -0.1866 -0.4565 -0.8560
  101SAPE    C110180   5.383   4.483   6.391 -0.4598 -0.4097  0.7000
  101SAPE    HA10181   5.400   4.535   6.295 -0.0762  1.5409  1.7702
  101SAPE    HB10182   5.478   4.478   6.449  0.8491  0.1193 -1.2964
  101SAPE    C210183   5.332   4.335   6.356 -0.5185  0.7727  0.4480
  101SAPE    HS10184   5.411   4.294   6.289 -1.0195 -0.1727  0.4285
  101SAPE   O2110185   5.203   4.332   6.305  0.2242 -0.1407 -0.2362
  101SAPE   C2110186   5.180   4.390   6.190 -0.3083 -0.5563 -0.0457
  101SAPE   O2210187   5.265   4.432   6.112 -0.3476  0.2191  0.6470
  101SAPE   C2210188   5.037   4.412   6.171 -0.4380 -0.1615 -0.8425
  101SAPE   H2R10189   4.986   4.436   6.266  2.2415  2.3492  0.0920
  101SAPE   H2S10190   5.027   4.501   6.105  0.4955  2.5225  2.4036
  101SAPE    C310191   5.336   4.228   6.471 -0.1031 -0.5183  0.0390
  101SAPE    HX10192   5.262   4.249   6.551 -1.1548 -1.5910 -0.6270
  101SAPE    HY10193   5.434   4.232   6.524 -0.2594  0.8292  0.2743
  101SAPE   O3110194   5.329   4.092   6.421  0.2736 -0.4117  0.1789
  101SAPE   C3110195   5.211   4.035   6.433  0.5376  0.4675 -0.2476
  101SAPE   O3210196   5.127   4.067   6.517 -0.7286  0.5267  0.3588
  101SAPE   C3210197   5.207   3.907   6.345 -0.4795  0.7590 -0.3311
  101SAPE   H2X10198   5.106   3.866   6.370 -0.9994  1.3022 -1.4611
  101SAPE   H2Y10199   5.286   3.832   6.370 -0.5095  1.3444  1.7156
  101SAPE   C2310200   4.961   4.296   6.107  0.3804  0.1724  0.1091
  101SAPE   H3R10201   4.971   4.211   6.179  0.4632 -0.0490 -0.1625
  101SAPE   H3S10202   5.001   4.267   6.007 -0.0032  1.0546 -0.3054
  101SAPE   C2410203   4.808   4.329   6.092  0.0987  0.0170 -0.3733
  101SAPE   H4R10204   4.775   4.362   6.192  0.1130  1.0613 -0.7005
  101SAPE   H4S10205   4.756   4.235   6.061 -0.4156  0.7916 -1.9715
  101SAPE   C2510206   4.764   4.444   6.000  0.3664  0.3120  0.1558
  101SAPE   H5R10207   4.792   4.540   6.046 -0.7514  1.2324 -1.0330
  101SAPE   C2610208   4.699   4.438   5.882 -0.8154 -0.0376  0.9617
  101SAPE   H6R10209   4.680   4.531   5.826 -0.6709 -1.1933 -1.1043
  101SAPE   C2710210   4.656   4.312   5.805 -0.4210  0.5546  0.7083
  101SAPE   H7R10211   4.634   4.224   5.868  0.7285 -1.0361 -1.0136
  101SAPE   H7S10212   4.734   4.283   5.732 -1.8853  2.2021 -1.6679
  101SAPE   C2810213   4.528   4.328   5.720 -0.7392 -0.2127  0.1749
  101SAPE   H8R10214   4.441   4.372   5.771 -0.0525  0.7392  0.5422
  101SAPE   C2910215   4.519   4.293   5.594  0.1615 -0.1827 -0.5988
  101SAPE   H9R10216   4.418   4.291   5.551 -0.3806 -0.9128  0.6801
  101SAPE  C21010217   4.618   4.234   5.508 -0.4863 -0.2083 -0.3064
  101SAPE  H10R10218   4.617   4.126   5.534 -1.0278  0.0879  1.0113
  101SAPE  H10S10219   4.721   4.265   5.537  0.0683  0.1565 -2.4899
  101SAPE  C21110220   4.592   4.256   5.362  0.0343  0.4063 -0.2799
  101SAPE  H11R10221   4.618   4.357   5.326  3.9636 -1.2027 -2.5908
  101SAPE  C21210222   4.534   4.182   5.267  0.7495  0.3879 -0.2033
  101SAPE  H12R10223   4.523   4.228   5.168 -1.5718 -0.7418 -0.5298
  101SAPE  C21310224   4.472   4.039   5.271  0.7258 -0.8927 -0.4669
  101SAPE  H13R10225   4.452   3.998   5.372 -0.9969 -0.2892 -0.5259
  101SAPE  H13S10226   4.540   3.969   5.218  1.4818 -0.6793  0.1954
  101SAPE  C21410227   4.342   4.029   5.184  0.2082  0.6246 -0.9629
  101SAPE  H14R10228   4.251   4.008   5.242  0.5479 -2.5240 -1.3805
  101SAPE  C21510229   4.329   4.021   5.049  0.1111  0.8539  0.1007
  101SAPE  H15R10230   4.234   3.997   4.998  0.9251 -0.7568 -0.7592
  101SAPE  C21610231   4.450   4.042   4.955 -0.2974 -0.2809  0.6402
  101SAPE  H16R10232   4.536   4.067   5.020  1.0692  0.9568 -1.5138
  101SAPE  H16S10233   4.426   4.121   4.881 -2.6923 -0.6874  0.9094
  101SAPE  C21710234   4.489   3.921   4.876  0.2481 -0.3278  0.1435
  101SAPE  H17R10235   4.409   3.887   4.807  0.4001 -1.7414  0.6369
  101SAPE  H17S10236   4.494   3.829   4.939  0.2146 -1.8100 -1.9132
  101SAPE  C21810237   4.611   3.939   4.784 -0.3331  0.0772 -0.3704
  101SAPE  H18R10238   4.695   3.977   4.846 -1.0852  0.0425  0.6964
  101SAPE  H18S10239   4.599   4.016   4.705  1.8147  0.0311 -0.7880
  101SAPE  C21910240   4.654   3.810   4.705 -0.4334 -0.0139 -0.0357
  101SAPE  H19R10241   4.704   3.737   4.772  0.5555 -1.7032 -2.4818
  101SAPE  H19S10242   4.734   3.841   4.635 -0.3111  0.7377  0.4254
  101SAPE  C22010243   4.542   3.745   4.622  0.5045  0.0643  0.0342
  101SAPE  H20R10244   4.567   3.646   4.580 -3.9403 -0.4075 -2.0888
  101SAPE  H20S10245   4.514   3.810   4.535  0.3591  0.4731  0.3797
  101SAPE  H20T10246   4.456   3.720   4.688 -0.6299  0.9046 -1.0494
  101SAPE   C3310247   5.201   3.934   6.198 -0.1299 -0.4080  0.2757
  101SAPE   H3X10248   5.121   4.009   6.179  0.4384 -0.3220 -2.1163
  101SAPE   H3Y10249   5.170   3.843   6.143  0.1078  0.3655 -1.1969
  101SAPE   C3410250   5.338   3.973   6.131  0.3595 -0.4042  0.0039
  101SAPE   H4X10251   5.406   3.895   6.171 -1.0515 -2.2589 -1.0725
  101SAPE   H4Y10252   5.372   4.065   6.184  1.4620 -0.8795  0.1505
  101SAPE   C3510253   5.336   3.988   5.977 -0.3805  0.0252  0.1836
  101SAPE   H5X10254   5.302   3.892   5.930 -1.1009  1.3773 -2.2393
  101SAPE   H5Y10255   5.437   4.013   5.938  0.0418 -0.3361  1.0295
  101SAPE   C3610256   5.232   4.085   5.935  0.2024 -0.1837 -0.6705
  101SAPE   H6X10257   5.271   4.186   5.957  1.1828 -0.8896  0.9918
  101SAPE   H6Y10258   5.134   4.079   5.988  1.2542  0.8972  1.5002
  101SAPE   C3710259   5.216   4.086   5.785  0.0051 -0.2618 -0.0308
  101SAPE   H7X10260   5.201   3.987   5.737 -3.1268  0.6585 -1.2490
  101SAPE   H7Y10261   5.308   4.136   5.747 -0.2452  0.4791  0.3230
  101SAPE   C3810262   5.096   4.172   5.746 -0.6750  0.2519 -0.6942
  101SAPE   H8X10263   5.113   4.278   5.774 -0.8876 -0.0748  0.7595
  101SAPE   H8Y10264   5.004   4.141   5.800  0.0530 -1.6197 -0.4818
  101SAPE   C3910265   5.057   4.177   5.600 -0.0479  0.2320 -0.1072
  101SAPE   H9X10266   5.144   4.188   5.532  0.5421 -0.4305  0.5269
  101SAPE   H9Y10267   4.996   4.262   5.562  0.7794  0.2486 -1.4772
  101SAPE  C31010268   4.971   4.056   5.563  0.6920 -0.3360  0.5003
  101SAPE  H10X10269   4.881   4.061   5.628 -0.6431  1.4735 -1.3667
  101SAPE  H10Y10270   5.019   3.959   5.590  0.6589 -0.5210 -0.0834
  101SAPE  C31110271   4.927   4.060   5.416  0.6454 -0.1679 -0.0059
  101SAPE  H11X10272   5.005   4.077   5.339 -0.0879 -0.8489 -0.9130
  101SAPE  H11Y10273   4.850   4.139   5.407  0.0495 -0.6284  0.8373
  101SAPE  C31210274   4.858   3.922   5.384 -0.3703 -0.3198  0.1478
  101SAPE  H12X10275   4.773   3.919   5.455  0.4900 -0.0675  1.2258
  101SAPE  H12Y10276   4.924   3.833   5.394  2.6174  1.7757  0.4963
  101SAPE  C31310277   4.819   3.933   5.240  0.1908  0.2680  0.1258
  101SAPE  H13X10278   4.803   4.038   5.209  0.9635  0.0458 -1.0906
  101SAPE  H13Y10279   4.724   3.879   5.220 -1.1168  1.2702  3.0358
  101SAPE  C31410280   4.931   3.872   5.159 -0.0121  0.9598  0.2514
  101SAPE  H14X10281   4.927   3.762   5.167  1.1067  0.8262 -0.7125
  101SAPE  H14Y10282   5.031   3.907   5.190  0.5548 -0.5315  0.1544
  101SAPE  C31510283   4.916   3.914   5.009  0.5257 -0.0106  1.0587
  101SAPE  H15X10284   4.900   4.024   5.011  0.9909  0.1457 -1.1635
  101SAPE  H15Y10285   4.827   3.871   4.958  2.2047 -0.1565 -1.9712
  101SAPE  C31610286   5.043   3.880   4.928  0.2575 -0.4742 -0.2380
  101SAPE  H16X10287   5.053   3.769   4.925 -3.6853 -1.0165  0.7071
  101SAPE  H16Y10288   5.136   3.911   4.980 -0.7747  2.2143  0.1525
  101SAPE  C31710289   5.051   3.936   4.795 -0.2143  0.0642  0.1739
  101SAPE  H17X10290   4.952   3.931   4.745  0.6078 -0.2393 -1.5061
  101SAPE  H17Y10291   5.126   3.880   4.736  0.1900 -0.0220  0.7585
  101SAPE  C31810292   5.093   4.084   4.795 -0.4983  0.1659 -0.3017
  101SAPE  H18X10293   5.027   4.137   4.866 -1.9948 -0.9735 -0.8065
  101SAPE  H18Y10294   5.075   4.127   4.694 -0.6531  1.5324  0.2793
  101SAPE  H18Z10295   5.201   4.081   4.824 -0.8176  0.7081  1.0327
  102SAPE     N10296   2.312   2.694   5.960 -0.4547  0.2090  0.1875
  102SAPE   HN110297   2.381   2.751   6.013  2.5406 -2.3219 -0.6143
  102SAPE   HN210298   2.378   2.622   5.923 -0.0643  1.6011 -1.9965
  102SAPE   HN310299   2.263   2.738   5.880  0.4527  0.3132 -0.3265
  102SAPE   C1210300   2.219   2.624   6.053  0.1654 -0.6299 -0.2105
  102SAPE  H12A10301   2.143   2.577   5.986  0.6150 -2.0388  0.2308
  102SAPE  H12B10302   2.164   2.693   6.121 -1.7425 -2.0143 -0.2552
  102SAPE   C1110303   2.300   2.519   6.138  0.4275 -0.2233 -0.1111
  102SAPE  H11A10304   2.380   2.577   6.189 -0.2886  0.4522  0.2670
  102SAPE  H11B10305   2.342   2.436   6.076  1.2925 -0.3362  0.6090
  102SAPE     P10306   2.089   2.397   6.228 -0.2911 -0.0929 -0.2330
  102SAPE   O1310307   2.082   2.272   6.310 -0.2270  0.1159  0.2348
  102SAPE   O1410308   1.980   2.495   6.241 -0.3791  0.1230  0.6197
  102SAPE   O1210309   2.225   2.463   6.248 -0.0607 -0.1094  0.4688
  102SAPE   O1110310   2.089   2.362   6.080 -0.2441  0.4537 -0.3497
  102SAPE    C110311   2.029   2.251   6.020  0.6099  0.2680  0.1932
  102SAPE    HA10312   2.105   2.175   5.994  0.6233  1.3697 -3.5755
  102SAPE    HB10313   1.954   2.213   6.093 -0.9061  3.1805  0.3088
  102SAPE    C210314   1.942   2.288   5.897 -0.3362  0.4620  0.6218
  102SAPE    HS10315   1.924   2.200   5.832 -0.4721  1.6550 -1.0184
  102SAPE   O2110316   1.994   2.396   5.817  0.5927  0.5277 -0.3182
  102SAPE   C2110317   2.103   2.372   5.757  0.3298 -0.4945 -0.2127
  102SAPE   O2210318   2.166   2.268   5.759 -0.1352  0.1169 -0.1753
  102SAPE   C2210319   2.121   2.482   5.650 -0.5201 -0.2169 -0.6715
  102SAPE   H2R10320   2.157   2.574   5.701  0.8945 -0.0321 -1.9551
  102SAPE   H2S10321   2.198   2.441   5.582 -0.9559 -0.9594 -0.7315
  102SAPE    C310322   1.800   2.330   5.951 -0.8073 -0.2956  0.3223
  102SAPE    HX10323   1.801   2.435   5.987  0.9216 -0.2343  0.1810
  102SAPE    HY10324   1.772   2.257   6.030  2.8732 -0.3467  1.7711
  102SAPE   O3110325   1.706   2.308   5.845 -0.2863  0.0673  0.2036
  102SAPE   C3110326   1.678   2.403   5.771  0.1620 -0.2216 -0.2798
  102SAPE   O3210327   1.710   2.522   5.778  0.1822 -0.7878  0.2737
  102SAPE   C3210328   1.581   2.352   5.664 -0.9847  0.4089  0.3911
  102SAPE   H2X10329   1.486   2.410   5.667 -1.0167  0.3156  1.1861
  102SAPE   H2Y10330   1.558   2.245   5.683 -1.3503  0.4925  0.4330
  102SAPE   C2310331   1.997   2.514   5.574 -0.7221 -0.1780  0.0673
  102SAPE   H3R10332   1.901   2.520   5.630 -0.5140 -1.4522  0.5912
  102SAPE   H3S10333   1.975   2.427   5.509 -0.2654  0.8284 -1.4872
  102SAPE   C2410334   2.021   2.641   5.491  0.2006 -0.0323  0.3058
  102SAPE   H4R10335   2.045   2.722   5.563 -0.1681 -0.3210  0.7573
  102SAPE   H4S10336   1.920   2.664   5.452 -0.5996 -1.6035  1.3228
  102SAPE   C2510337   2.120   2.632   5.378 -0.4162  0.0892 -0.1498
  102SAPE   H5R10338   2.216   2.684   5.397  0.1005  0.4894 -3.2795
  102SAPE   C2610339   2.100   2.574   5.254  0.6102  0.0792 -0.0563
  102SAPE   H6R10340   2.176   2.565   5.175 -0.6063  0.7689 -1.3454
  102SAPE   C2710341   1.970   2.507   5.209  0.7538  0.0126 -0.0345
  102SAPE   H7R10342   1.903   2.479   5.293  0.2827  1.3097  0.0439
  102SAPE   H7S10343   1.985   2.408   5.160 -0.2192  0.4736 -1.3285
  102SAPE   C2810344   1.898   2.588   5.109  0.4905 -0.1201  0.5294
  102SAPE   H8R10345   1.953   2.683   5.097  0.9078 -0.0958  2.4446
  102SAPE   C2910346   1.787   2.565   5.035  0.0452  0.0722  0.2800
  102SAPE   H9R10347   1.753   2.634   4.956  0.0544  0.2431  0.4252
  102SAPE  C21010348   1.717   2.434   5.049  0.4996  0.7743 -0.2897
  102SAPE  H10R10349   1.709   2.410   5.157 -1.1045  2.7990  0.0841
  102SAPE  H10S10350   1.769   2.356   4.988  1.6616  0.4739  1.0291
  102SAPE  C21110351   1.578   2.450   4.988 -0.5034 -0.2240  0.5122
  102SAPE  H11R10352   1.511   2.501   5.059 -2.2654  0.1064 -1.3249
  102SAPE  C21210353   1.530   2.390   4.877  0.4915  0.7723 -0.3896
  102SAPE  H12R10354   1.425   2.414   4.856  0.5249  0.7745 -0.5526
  102SAPE  C21310355   1.597   2.303   4.778 -0.1617 -0.2549  0.6957
  102SAPE  H13R10356   1.530   2.218   4.753  1.3567 -1.2006 -0.3151
  102SAPE  H13S10357   1.686   2.256   4.824  0.6788  0.0971 -0.5307
  102SAPE  C21410358   1.622   2.371   4.650 -1.1211  0.5306  0.7268
  102SAPE  H14R10359   1.716   2.427   4.635 -0.7333 -0.2875 -0.0016
  102SAPE  C21510360   1.543   2.375   4.547 -0.2810 -0.0304 -0.1061
  102SAPE  H15R10361   1.580   2.425   4.456  1.4627  1.5499  1.3995
  102SAPE  C21610362   1.403   2.332   4.536  0.3750 -1.4959 -0.5343
  102SAPE  H16R10363   1.338   2.415   4.498  2.7013 -0.0846 -1.6493
  102SAPE  H16S10364   1.363   2.302   4.635 -0.6672 -0.5404 -0.6326
  102SAPE  C21710365   1.390   2.207   4.451  0.4958  0.0630 -0.3188
  102SAPE  H17R10366   1.478   2.141   4.466 -1.1477 -2.4354 -0.8521
  102SAPE  H17S10367   1.381   2.240   4.346 -0.8010 -0.3718 -0.3669
  102SAPE  C21810368   1.272   2.129   4.504 -0.4764  0.0087 -0.7052
  102SAPE  H18R10369   1.181   2.188   4.530 -0.0432  1.7627 -2.8280
  102SAPE  H18S10370   1.309   2.089   4.601 -0.4623  3.6112  0.9281
  102SAPE  C21910371   1.236   2.017   4.401 -0.6594  0.5535 -0.7010
  102SAPE  H19R10372   1.176   1.939   4.452 -0.8867  0.5320 -0.9934
  102SAPE  H19S10373   1.332   1.973   4.366 -0.2747  1.4897 -0.8412
  102SAPE  C22010374   1.156   2.059   4.278 -0.1336 -0.6551 -0.6092
  102SAPE  H20R10375   1.132   1.976   4.208  1.0884 -0.7305 -0.9471
  102SAPE  H20S10376   1.204   2.140   4.220 -0.5188  0.6338  0.8009
  102SAPE  H20T10377   1.055   2.095   4.310 -0.7250  0.3230 -3.3476
  102SAPE   C3310378   1.644   2.366   5.521  0.1634 -0.4586  0.1196
  102SAPE   H3X10379   1.588   2.302   5.450  2.9938 -2.1642 -0.7724
  102SAPE   H3Y10380   1.744   2.317   5.525 -0.0060 -0.8684 -0.5815
  102SAPE   C3410381   1.648   2.506   5.486  0.1954 -0.7405  0.5563
  102SAPE   H4X10382   1.708   2.506   5.393 -1.0414  0.1530 -0.2704
  102SAPE   H4Y10383   1.700   2.576   5.555 -0.4502  0.7726 -0.4396
  102SAPE   C3510384   1.512   2.561   5.455 -0.4815 -0.3654  0.5769
  102SAPE   H5X10385   1.449   2.547   5.544  0.1791  0.3711  1.1805
  102SAPE   H5Y10386   1.474   2.501   5.370 -0.5031  0.7903 -0.2579
  102SAPE   C3610387   1.513   2.708   5.420  0.1741  0.0701 -0.0932
  102SAPE   H6X10388   1.574   2.772   5.487  0.3084  1.2602 -1.3173
  102SAPE   H6Y10389   1.405   2.736   5.421 -0.3554 -1.8276 -0.0663
  102SAPE   C3710390   1.556   2.735   5.278 -0.1710  0.4067 -0.8088
  102SAPE   H7X10391   1.489   2.675   5.214  0.8679 -0.7662 -0.8345
  102SAPE   H7Y10392   1.666   2.719   5.270 -0.4162 -0.9681 -1.6827
  102SAPE   C3810393   1.526   2.882   5.240  0.1537 -0.4595 -0.1384
  102SAPE   H8X10394   1.578   2.953   5.307 -1.2505  1.3984 -0.9452
  102SAPE   H8Y10395   1.419   2.903   5.258  0.7606  1.5554  1.4773
  102SAPE   C3910396   1.550   2.903   5.089  0.2034  0.1857 -0.1989
  102SAPE   H9X10397   1.643   2.853   5.055  0.3022  0.2106  0.0348
  102SAPE   H9Y10398   1.558   3.010   5.064 -1.9909  0.2124 -1.0386
  102SAPE  C31010399   1.441   2.835   4.995  0.1416 -0.2915  0.6376
  102SAPE  H10X10400   1.353   2.875   5.049  0.7091 -0.4144  1.6825
  102SAPE  H10Y10401   1.437   2.724   4.991  0.4680 -0.3604  1.8907
  102SAPE  C31110402   1.435   2.879   4.846 -0.2645 -0.4897  0.0553
  102SAPE  H11X10403   1.445   2.988   4.827  0.5098 -0.7987 -1.4662
  102SAPE  H11Y10404   1.338   2.839   4.811 -0.5088 -0.7948  1.0531
  102SAPE  C31210405   1.547   2.812   4.759 -0.4137  0.1160  0.4228
  102SAPE  H12X10406   1.550   2.703   4.781  0.7436 -0.6407 -2.8839
  102SAPE  H12Y10407   1.646   2.853   4.788 -0.6505  0.7028  0.4190
  102SAPE  C31310408   1.531   2.830   4.604  0.2995 -0.6824  0.0683
  102SAPE  H13X10409   1.621   2.788   4.556  0.8692 -0.8574  1.2697
  102SAPE  H13Y10410   1.520   2.936   4.572 -1.4601 -1.1391 -1.0139
  102SAPE  C31410411   1.418   2.738   4.563  0.3239 -0.1479  0.1942
  102SAPE  H14X10412   1.327   2.784   4.605  1.3120  1.2944  0.8367
  102SAPE  H14Y10413   1.423   2.634   4.600 -1.6167 -0.3570 -0.0398
  102SAPE  C31510414   1.408   2.739   4.414 -0.0587  0.5428 -0.3453
  102SAPE  H15X10415   1.486   2.669   4.377  0.5824  1.2568 -0.3629
  102SAPE  H15Y10416   1.420   2.835   4.359  0.7535 -0.2613 -1.6358
  102SAPE  C31610417   1.270   2.680   4.365  0.0034 -0.1805 -0.1825
  102SAPE  H16X10418   1.198   2.755   4.405  1.1625 -0.0927  1.8757
  102SAPE  H16Y10419   1.257   2.588   4.427  1.2603  0.0475  0.4490
  102SAPE  C31710420   1.247   2.662   4.219 -0.8219  0.7946 -0.1457
  102SAPE  H17X10421   1.336   2.613   4.174 -1.2661 -0.7394  0.5881
  102SAPE  H17Y10422   1.230   2.764   4.178  1.6167  1.6308  0.7332
  102SAPE  C31810423   1.116   2.577   4.194  0.7432 -0.9365  0.1277
  102SAPE  H18X10424   1.152   2.472   4.201  4.6573  0.3607  2.5457
  102SAPE  H18Y10425   1.079   2.591   4.090  0.1574 -3.4203 -0.0522
  102SAPE  H18Z10426   1.038   2.606   4.268 -0.2170 -0.1972 -1.1274
  103SAPE     N10427   2.495   6.833   2.220 -0.1037  0.6043  0.2078
  103SAPE   HN110428   2.592   6.796   2.224 -0.4230 -0.3385 -0.5358
  103SAPE   HN210429   2.463   6.844   2.318 -3.5234 -1.5397 -0.4940
  103SAPE   HN310430   2.437   6.771   2.160  2.6505 -0.0756 -2.0133
  103SAPE   C1210431   2.501   6.966   2.141  0.3276 -0.1105  0.3141
  103SAPE  H12A10432   2.505   6.944   2.032 -0.7709  0.6583  0.1023
  103SAPE  H12B10433   2.598   7.017   2.159  0.6792 -0.2109 -1.1529
  103SAPE   C1110434   2.378   7.069   2.175 -0.0610 -0.1358 -0.2254
  103SAPE  H11A10435   2.367   7.138   2.089  0.2353 -0.9280 -0.9102
  103SAPE  H11B10436   2.415   7.137   2.255 -0.2630 -0.2200 -0.0610
  103SAPE     P10437   2.116   7.045   2.141  0.3881 -0.1331 -0.4550
  103SAPE   O1310438   2.139   7.098   2.005  0.4172  0.7385 -0.1521
  103SAPE   O1410439   2.028   6.929   2.147  0.5755 -0.1851  0.6392
  103SAPE   O1210440   2.256   6.998   2.216 -0.5157 -0.2603  0.0888
  103SAPE   O1110441   2.059   7.160   2.239  0.1429  0.2940  0.1453
  103SAPE    C110442   2.121   7.198   2.363 -0.7630  0.0260 -0.1427
  103SAPE    HA10443   2.230   7.177   2.368 -0.8527 -0.7700 -1.3491
  103SAPE    HB10444   2.110   7.308   2.377  1.3645  0.3547 -0.7537
  103SAPE    C210445   2.052   7.122   2.492 -0.8485  0.0338  0.1993
  103SAPE    HS10446   2.085   7.016   2.489 -0.0263  0.2863 -2.4517
  103SAPE   O2110447   1.912   7.118   2.465 -0.2243  0.2863 -0.1852
  103SAPE   C2110448   1.840   7.035   2.543 -0.6264  0.6457 -0.4292
  103SAPE   O2210449   1.892   6.956   2.624 -0.1794 -0.4630 -0.2854
  103SAPE   C2210450   1.696   7.060   2.520 -0.6171 -0.0710 -0.1748
  103SAPE   H2R10451   1.687   7.064   2.410  1.6952 -2.2927 -0.5549
  103SAPE   H2S10452   1.638   6.970   2.547 -1.2354  0.5445  0.6088
  103SAPE    C310453   2.094   7.191   2.629 -0.5651 -0.0790 -0.0362
  103SAPE    HX10454   2.039   7.147   2.715  1.5732  1.1934  2.1100
  103SAPE    HY10455   2.082   7.301   2.621  2.3391  0.3426  0.1709
  103SAPE   O3110456   2.234   7.177   2.655  0.0222 -0.0590  0.2773
  103SAPE   C3110457   2.266   7.211   2.781  0.0958  0.1402 -0.2861
  103SAPE   O3210458   2.191   7.264   2.863  0.2962  0.2495  0.0323
  103SAPE   C3210459   2.406   7.172   2.812  0.5639  0.1530  0.2524
  103SAPE   H2X10460   2.476   7.254   2.783  0.4431  0.2314  0.1840
  103SAPE   H2Y10461   2.435   7.090   2.743 -1.8585 -0.8956  0.3995
  103SAPE   C2310462   1.666   7.187   2.596 -0.2733 -0.0915  0.5764
  103SAPE   H3R10463   1.584   7.236   2.539 -1.5185 -1.8656  0.7837
  103SAPE   H3S10464   1.749   7.260   2.580  0.4301 -1.3930 -2.3758
  103SAPE   C2410465   1.631   7.172   2.749  0.3343 -0.4613  0.0604
  103SAPE   H4R10466   1.523   7.151   2.761  0.8425 -2.0537  2.4991
  103SAPE   H4S10467   1.633   7.273   2.796  0.5575 -0.5494  0.2467
  103SAPE   C2510468   1.716   7.083   2.839 -0.3739  0.3797  0.6965
  103SAPE   H5R10469   1.733   6.985   2.791 -0.2491  0.3906  0.7184
  103SAPE   C2610470   1.775   7.102   2.960  0.2869  0.3012 -0.3185
  103SAPE   H6R10471   1.839   7.022   2.998  0.0112 -0.1548 -0.7956
  103SAPE   C2710472   1.777   7.227   3.038  0.8868 -0.1284  0.0330
  103SAPE   H7R10473   1.687   7.233   3.103  0.9902 -2.0644  0.4130
  103SAPE   H7S10474   1.765   7.317   2.974  0.2998  2.0364  2.9722
  103SAPE   C2810475   1.905   7.248   3.123  0.4305  0.6756 -0.3353
  103SAPE   H8R10476   2.003   7.262   3.077  0.6750  0.1441  0.0082
  103SAPE   C2910477   1.903   7.275   3.260 -0.1540 -0.3070  0.6486
  103SAPE   H9R10478   2.004   7.270   3.305  1.3708 -0.0693 -2.4836
  103SAPE  C21010479   1.789   7.298   3.349 -0.2365 -0.0667  0.4998
  103SAPE  H10R10480   1.690   7.319   3.303  0.4273  0.4562 -0.7269
  103SAPE  H10S10481   1.811   7.393   3.402 -0.3783  0.1113  0.2445
  103SAPE  C21110482   1.776   7.184   3.445 -0.4648  0.3853 -0.2901
  103SAPE  H11R10483   1.748   7.089   3.396 -0.4004  1.1346 -1.8239
  103SAPE  C21210484   1.783   7.185   3.580 -0.4564 -0.0927  0.0162
  103SAPE  H12R10485   1.769   7.093   3.638  1.2637  0.2119  0.9903
  103SAPE  C21310486   1.801   7.311   3.668  0.1371 -0.1274  0.4978
  103SAPE  H13R10487   1.715   7.310   3.738 -0.5891 -1.7239 -0.3646
  103SAPE  H13S10488   1.793   7.414   3.627  0.8829  0.8560  2.6447
  103SAPE  C21410489   1.936   7.302   3.729 -0.3995 -0.1556  0.3565
  103SAPE  H14R10490   2.019   7.347   3.672 -0.6166 -1.8061 -1.3944
  103SAPE  C21510491   1.966   7.237   3.841 -0.6643 -0.7092 -0.1730
  103SAPE  H15R10492   2.074   7.222   3.858 -0.9403 -0.3097  2.4171
  103SAPE  C21610493   1.878   7.168   3.936  0.3326  0.0638 -0.5875
  103SAPE  H16R10494   1.933   7.095   3.999 -1.4083 -2.5268 -1.9150
  103SAPE  H16S10495   1.810   7.101   3.881  0.8009  0.1390 -1.2816
  103SAPE  C21710496   1.789   7.266   4.012 -0.2396 -0.2340  0.1253
  103SAPE  H17R10497   1.734   7.204   4.086  1.1931 -0.9423  0.6409
  103SAPE  H17S10498   1.726   7.328   3.945  0.7777  1.1059  0.3765
  103SAPE  C21810499   1.868   7.366   4.092  0.0239  0.0686  0.2377
  103SAPE  H18R10500   1.802   7.454   4.103 -0.4669  0.0156 -1.8444
  103SAPE  H18S10501   1.956   7.401   4.034  0.8454 -0.8223  0.9011
  103SAPE  C21910502   1.924   7.305   4.223  0.6000 -0.3839  0.5060
  103SAPE  H19R10503   2.009   7.237   4.201  0.4410 -0.6853  0.8149
  103SAPE  H19S10504   1.852   7.237   4.272  0.1346  1.0195  1.8489
  103SAPE  C22010505   1.989   7.416   4.308  0.5448  0.0141 -0.1471
  103SAPE  H20R10506   2.032   7.498   4.247  1.3705 -0.8483 -0.7488
  103SAPE  H20S10507   2.060   7.374   4.382 -0.7647 -0.7731  0.7109
  103SAPE  H20T10508   1.913   7.456   4.379 -0.8041 -1.6333 -0.5806
  103SAPE   C3310509   2.409   7.103   2.952  1.0240 -0.4406 -0.1384
  103SAPE   H3X10510   2.494   7.032   2.958  0.5531 -1.0876 -0.8559
  103SAPE   H3Y10511   2.323   7.035   2.969  0.7834 -0.0074  0.3772
  103SAPE   C3410512   2.411   7.206   3.067 -0.1349 -0.3544  0.2637
  103SAPE   H4X10513   2.347   7.294   3.044  1.5607  0.4809 -1.5366
  103SAPE   H4Y10514   2.514   7.246   3.073  0.1833 -0.9800 -0.7808
  103SAPE   C3510515   2.365   7.142   3.204  0.8020  0.3522  0.4881
  103SAPE   H5X10516   2.431   7.054   3.218  1.7998  1.1456  0.8978
  103SAPE   H5Y10517   2.258   7.118   3.186  1.0584  0.7503 -1.8957
  103SAPE   C3610518   2.375   7.231   3.322 -0.7641 -0.9227 -1.1640
  103SAPE   H6X10519   2.335   7.334   3.311  0.7852 -0.3344 -1.5356
  103SAPE   H6Y10520   2.484   7.245   3.338 -0.8969 -2.1726  1.2507
  103SAPE   C3710521   2.311   7.166   3.451 -0.5161 -0.1569 -0.3493
  103SAPE   H7X10522   2.350   7.063   3.462 -0.4559 -0.1235 -0.2488
  103SAPE   H7Y10523   2.203   7.155   3.429 -0.2112  0.0965 -2.2263
  103SAPE   C3810524   2.328   7.247   3.580 -0.5494  0.1606  0.1258
  103SAPE   H8X10525   2.261   7.216   3.663 -0.7932  0.1017 -0.0936
  103SAPE   H8Y10526   2.299   7.352   3.559  2.1491  0.8492 -0.6613
  103SAPE   C3910527   2.472   7.251   3.635  0.4964  0.5105 -0.7406
  103SAPE   H9X10528   2.544   7.248   3.550  0.0895  0.5002 -1.0875
  103SAPE   H9Y10529   2.492   7.158   3.692  0.9247  1.7451  1.2527
  103SAPE  C31010530   2.493   7.369   3.732  0.1381  0.2441 -0.6149
  103SAPE  H10X10531   2.456   7.458   3.676 -1.3371  2.2663  3.1974
  103SAPE  H10Y10532   2.603   7.382   3.735 -0.0176  2.4069 -1.8537
  103SAPE  C31110533   2.421   7.362   3.864 -0.5974 -0.0666 -0.0518
  103SAPE  H11X10534   2.485   7.295   3.926 -2.0969 -1.7462 -0.2163
  103SAPE  H11Y10535   2.319   7.318   3.857  0.0245 -1.3910 -1.3395
  103SAPE  C31210536   2.401   7.506   3.918 -1.0794  0.4605  0.5925
  103SAPE  H12X10537   2.339   7.556   3.841 -1.2694  0.7201  0.9077
  103SAPE  H12Y10538   2.502   7.554   3.918 -1.6571  1.7415  1.1936
  103SAPE  C31310539   2.341   7.514   4.055 -0.4345  0.0650 -0.0576
  103SAPE  H13X10540   2.235   7.479   4.056 -1.1229  2.0265  0.3100
  103SAPE  H13Y10541   2.329   7.618   4.091 -0.8793 -0.2438  0.7112
  103SAPE  C31410542   2.421   7.435   4.155  0.1085 -0.3121 -0.5695
  103SAPE  H14X10543   2.515   7.493   4.173  0.4988 -1.4763  1.5620
  103SAPE  H14Y10544   2.445   7.332   4.121  0.8459 -0.6222  0.8147
  103SAPE  C31510545   2.354   7.414   4.291 -0.2975 -0.1291  0.3985
  103SAPE  H15X10546   2.265   7.348   4.288 -0.8163  0.4922  1.2809
  103SAPE  H15Y10547   2.299   7.500   4.335  0.2393 -0.2820  1.4203
  103SAPE  C31610548   2.452   7.359   4.402  0.2658 -0.6540 -0.1481
  103SAPE  H16X10549   2.523   7.442   4.421  0.3028 -0.3396 -1.5618
  103SAPE  H16Y10550   2.504   7.266   4.371 -1.7803 -0.9607 -2.9969
  103SAPE  C31710551   2.388   7.339   4.540  0.3024 -0.0805 -0.8313
  103SAPE  H17X10552   2.289   7.292   4.521 -0.1833  0.6935 -0.2371
  103SAPE  H17Y10553   2.365   7.437   4.586 -0.1873 -0.9761  0.8794
  103SAPE  C31810554   2.465   7.250   4.643 -0.1918 -0.3365  0.3857
  103SAPE  H18X10555   2.460   7.288   4.748  0.4131  0.5578  0.1017
  103SAPE  H18Y10556   2.574   7.246   4.622 -0.4957 -0.6828 -1.2734
  103SAPE  H18Z10557   2.437   7.143   4.635 -1.2255  0.0348 -2.0291
  104SAPE     N10558   3.384   5.075   2.382  1.0058 -0.6529 -0.1685
  104SAPE   HN110559   3.297   5.090   2.328  1.6075 -1.6996 -1.4856
  104SAPE   HN210560   3.394   4.979   2.421  1.9218  0.3482  2.2198
  104SAPE   HN310561   3.380   5.142   2.461 -1.0692 -0.3577 -0.4704
  104SAPE   C1210562   3.503   5.109   2.288  0.2038 -0.0954  0.4802
  104SAPE  H12A10563   3.504   5.040   2.201 -0.1864  1.0001 -0.4160
  104SAPE  H12B10564   3.596   5.084   2.343  1.0169  0.5397 -0.5922
  104SAPE   C1110565   3.498   5.254   2.246 -0.1328  0.7842 -0.4978
  104SAPE  H11A10566   3.504   5.305   2.345  0.8527  0.6286 -0.4709
  104SAPE  H11B10567   3.398   5.269   2.199 -0.0294  0.3922 -0.8474
  104SAPE     P10568   3.734   5.360   2.221 -0.2018 -0.2179  0.1994
  104SAPE   O1310569   3.805   5.264   2.305  0.0393  0.4421 -0.6470
  104SAPE   O1410570   3.816   5.423   2.113  0.0838 -0.1208  0.0727
  104SAPE   O1210571   3.603   5.288   2.166 -0.0846  0.2831 -0.6079
  104SAPE   O1110572   3.677   5.465   2.318  0.1558 -0.8420  0.2253
  104SAPE    C110573   3.755   5.523   2.421 -0.0317  0.2329 -0.1733
  104SAPE    HA10574   3.862   5.491   2.426 -0.7342 -2.7078 -1.5425
  104SAPE    HB10575   3.752   5.634   2.417 -0.7686  0.4357  3.2197
  104SAPE    C210576   3.706   5.480   2.570 -0.1283  0.0393  0.1552
  104SAPE    HS10577   3.714   5.369   2.571  0.9063  0.0928 -0.6572
  104SAPE   O2110578   3.572   5.537   2.570 -0.6453 -0.6158  0.1359
  104SAPE   C2110579   3.486   5.494   2.661  0.2105  0.8318  0.6610
  104SAPE   O2210580   3.492   5.379   2.712  0.3196 -0.2777  0.1350
  104SAPE   C2210581   3.380   5.603   2.691  0.6565 -0.2055 -0.5069
  104SAPE   H2R10582   3.362   5.655   2.595 -2.9067 -0.2676  0.0097
  104SAPE   H2S10583   3.290   5.546   2.724  1.3243 -1.0152 -0.0223
  104SAPE    C310584   3.792   5.537   2.689 -0.1849  0.3985 -0.7700
  104SAPE    HX10585   3.788   5.648   2.679 -0.5268  0.4594 -0.0150
  104SAPE    HY10586   3.898   5.509   2.669  0.4319 -0.0777  2.6499
  104SAPE   O3110587   3.747   5.495   2.819 -0.2188  0.0630  0.1428
  104SAPE   C3110588   3.776   5.364   2.833  0.7109 -0.2918 -0.6195
  104SAPE   O3210589   3.848   5.297   2.763  0.6484 -0.0355  1.0931
  104SAPE   C3210590   3.723   5.304   2.961  0.2639 -0.1535 -0.6036
  104SAPE   H2X10591   3.743   5.195   2.963 -1.0502 -0.4061 -0.4800
  104SAPE   H2Y10592   3.612   5.304   2.961  0.1835 -0.1583  2.5101
  104SAPE   C2310593   3.414   5.700   2.810 -0.1740  0.8634 -0.1660
  104SAPE   H3R10594   3.338   5.781   2.817 -0.0080  1.0923 -0.9786
  104SAPE   H3S10595   3.515   5.736   2.782  0.3941 -0.1170  0.5635
  104SAPE   C2410596   3.437   5.623   2.944  0.6450  0.2122  0.1677
  104SAPE   H4R10597   3.494   5.694   3.008  1.2936 -1.7469  1.8665
  104SAPE   H4S10598   3.505   5.541   2.913  1.1799  1.7536 -3.2021
  104SAPE   C2510599   3.320   5.576   3.014 -0.3096 -0.3888  0.0183
  104SAPE   H5R10600   3.282   5.478   2.981 -0.6974  0.0879 -0.9777
  104SAPE   C2610601   3.249   5.631   3.108  0.5352  0.1953  0.0383
  104SAPE   H6R10602   3.161   5.576   3.145  0.1722  0.2885 -0.6711
  104SAPE   C2710603   3.267   5.774   3.169  0.4671 -0.7494  0.4377
  104SAPE   H7R10604   3.325   5.843   3.104 -1.0260 -2.5717 -3.0858
  104SAPE   H7S10605   3.326   5.777   3.263  0.6935 -2.3840  0.3736
  104SAPE   C2810606   3.124   5.827   3.183  0.0198 -0.2443 -0.5287
  104SAPE   H8R10607   3.065   5.849   3.093 -0.8490  0.0941  0.1048
  104SAPE   C2910608   3.066   5.866   3.303  0.5294 -0.2321 -0.5476
  104SAPE   H9R10609   2.962   5.899   3.297  1.0620  1.5364 -0.5836
  104SAPE  C21010610   3.127   5.855   3.437  0.5071  0.3418  0.5369
  104SAPE  H10R10611   3.108   5.951   3.490  0.1325  0.3291  0.4269
  104SAPE  H10S10612   3.238   5.859   3.427  0.4081  2.4245 -0.0617
  104SAPE  C21110613   3.071   5.739   3.519  0.3312  0.3280 -0.2538
  104SAPE  H11R10614   3.035   5.652   3.461 -1.3629  2.4199 -2.5322
  104SAPE  C21210615   3.070   5.730   3.654  0.1391  0.1585 -0.2496
  104SAPE  H12R10616   3.026   5.643   3.705  0.2312  1.8945  3.0789
  104SAPE  C21310617   3.111   5.829   3.763 -0.1351 -0.1628  0.9421
  104SAPE  H13R10618   3.182   5.897   3.711  1.3128 -2.0672  0.3328
  104SAPE  H13S10619   3.190   5.784   3.827  1.1852  1.2252  0.3600
  104SAPE  C21410620   2.992   5.900   3.827 -0.7181 -0.2093 -0.1727
  104SAPE  H14R10621   2.902   5.920   3.767 -1.0015  3.1492  1.1641
  104SAPE  C21510622   2.988   5.947   3.948 -0.9046 -0.1777  1.0502
  104SAPE  H15R10623   2.896   5.989   3.993  0.2273  1.7247  1.7475
  104SAPE  C21610624   3.107   5.933   4.045  0.2613  0.2675 -0.5279
  104SAPE  H16R10625   3.178   6.019   4.050  0.0468  0.3561  2.2161
  104SAPE  H16S10626   3.168   5.846   4.014  1.6590  1.6658 -1.8713
  104SAPE  C21710627   3.061   5.907   4.191  0.0063 -0.2636  0.2581
  104SAPE  H17R10628   2.984   5.827   4.199 -0.6620  0.2826 -0.5835
  104SAPE  H17S10629   3.032   5.991   4.258  0.6400 -0.7240  1.1375
  104SAPE  C21810630   3.183   5.861   4.281 -0.4585 -0.1924  0.0094
  104SAPE  H18R10631   3.272   5.924   4.260 -0.4052 -0.4710 -0.6190
  104SAPE  H18S10632   3.214   5.760   4.249  0.6427  0.1883 -0.1851
  104SAPE  C21910633   3.157   5.865   4.437 -0.3653 -0.3995  0.7013
  104SAPE  H19R10634   3.096   5.775   4.461  0.9725 -1.4181  0.4341
  104SAPE  H19S10635   3.104   5.959   4.462  1.9646  1.7704 -1.8712
  104SAPE  C22010636   3.287   5.847   4.519  0.5241  0.5364 -0.2588
  104SAPE  H20R10637   3.338   5.751   4.495 -0.5179 -0.5069  1.4728
  104SAPE  H20S10638   3.269   5.851   4.629  1.9429  1.9695 -0.0431
  104SAPE  H20T10639   3.361   5.929   4.504  3.6951 -1.6995  1.7773
  104SAPE   C3310640   3.787   5.368   3.088  0.6226 -0.5890 -0.5478
  104SAPE   H3X10641   3.735   5.309   3.166 -0.8780  0.1652 -0.9467
  104SAPE   H3Y10642   3.751   5.473   3.099  0.8929 -0.3778 -1.6286
  104SAPE   C3410643   3.940   5.364   3.096  0.7718 -0.5773  0.1869
  104SAPE   H4X10644   3.981   5.425   3.013  0.6054 -1.7565 -0.7906
  104SAPE   H4Y10645   3.965   5.257   3.082 -3.8272 -1.7940 -0.4108
  104SAPE   C3510646   3.992   5.406   3.234  0.1365 -0.2632  0.1634
  104SAPE   H5X10647   4.036   5.508   3.237  1.2874 -0.7162 -0.6436
  104SAPE   H5Y10648   4.076   5.336   3.252  1.5613  0.7708 -1.9699
  104SAPE   C3610649   3.887   5.404   3.345 -0.4620 -0.0406  0.1752
  104SAPE   H6X10650   3.831   5.308   3.350  0.0032 -0.3216  0.0189
  104SAPE   H6Y10651   3.814   5.487   3.332  0.2231  1.1507  3.1416
  104SAPE   C3710652   3.946   5.431   3.487  0.6591 -0.1430  0.6658
  104SAPE   H7X10653   4.014   5.519   3.484 -0.2608  0.5490 -0.1360
  104SAPE   H7Y10654   3.995   5.340   3.529 -0.4912 -0.6921  0.8494
  104SAPE   C3810655   3.831   5.479   3.573  0.5860  0.6389 -0.0176
  104SAPE   H8X10656   3.753   5.402   3.588  2.2463 -1.0864  0.1226
  104SAPE   H8Y10657   3.784   5.568   3.525  0.9069  0.1910 -1.1889
  104SAPE   C3910658   3.883   5.542   3.707  0.0075 -0.6008 -0.0305
  104SAPE   H9X10659   3.803   5.613   3.736  0.7939 -0.2594  1.3717
  104SAPE   H9Y10660   3.979   5.592   3.681 -0.0757 -0.0585  0.7135
  104SAPE  C31010661   3.911   5.447   3.822  0.5300 -0.4262 -1.2079
  104SAPE  H10X10662   3.991   5.373   3.801 -0.2443 -0.8947 -2.6175
  104SAPE  H10Y10663   3.817   5.395   3.849  0.0119  0.6974 -0.7574
  104SAPE  C31110664   3.940   5.520   3.958  0.3977 -0.5690 -0.1156
  104SAPE  H11X10665   3.866   5.602   3.973 -0.4492 -1.1994 -0.7503
  104SAPE  H11Y10666   4.042   5.565   3.954 -0.3043  1.3787  1.8801
  104SAPE  C31210667   3.928   5.424   4.078  0.0459  0.1235 -0.0462
  104SAPE  H12X10668   4.006   5.345   4.069  0.7608  0.8447 -0.2225
  104SAPE  H12Y10669   3.831   5.370   4.091 -0.0166  0.3476  0.4397
  104SAPE  C31310670   3.971   5.495   4.202  0.2964 -0.3776  0.2619
  104SAPE  H13X10671   3.898   5.577   4.215  0.4238  0.1545 -1.9060
  104SAPE  H13Y10672   4.074   5.535   4.188 -0.1593  0.9869  0.7077
  104SAPE  C31410673   3.973   5.418   4.339 -0.6340  0.1521 -0.1691
  104SAPE  H14X10674   4.000   5.484   4.425 -1.4069 -1.9032  1.7439
  104SAPE  H14Y10675   4.049   5.337   4.332  0.0302  0.7853 -0.4886
  104SAPE  C31510676   3.852   5.340   4.377 -0.0208  0.1345  0.2614
  104SAPE  H15X10677   3.833   5.253   4.310 -0.5215 -0.6808  1.4361
  104SAPE  H15Y10678   3.767   5.409   4.356 -1.9851 -1.9093  1.1005
  104SAPE  C31610679   3.846   5.284   4.518 -0.7527  0.4530 -0.9997
  104SAPE  H16X10680   3.857   5.355   4.603 -1.5228  1.5392 -1.7851
  104SAPE  H16Y10681   3.933   5.219   4.538 -0.6925  0.5939 -0.7991
  104SAPE  C31710682   3.718   5.201   4.547  0.2689  0.2087 -0.2689
  104SAPE  H17X10683   3.711   5.131   4.461 -2.2108 -0.4576  0.3895
  104SAPE  H17Y10684   3.628   5.266   4.538 -0.9916 -0.6531  3.7830
  104SAPE  C31810685   3.694   5.126   4.678 -0.1418 -0.0216 -0.3491
  104SAPE  H18X10686   3.718   5.180   4.772  0.2292 -3.2671  1.5749
  104SAPE  H18Y10687   3.762   5.038   4.683 -1.0326 -0.6729  0.9907
  104SAPE  H18Z10688   3.590   5.089   4.689 -0.9761  2.7541  2.5298
  105SAPE     N10689   6.676   5.730   2.095  0.6833  0.5536 -0.1057
  105SAPE   HN110690   6.775   5.761   2.094  1.7325 -2.5161  0.0068
  105SAPE   HN210691   6.608   5.808   2.108 -1.6441 -1.2187 -0.9072
  105SAPE   HN310692   6.666   5.658   2.169 -1.8867  1.9518  1.0727
  105SAPE   C1210693   6.639   5.662   1.963  0.7749  0.3167  0.5070
  105SAPE  H12A10694   6.674   5.734   1.887  1.0601 -0.4613 -0.1167
  105SAPE  H12B10695   6.529   5.650   1.961  0.6927  0.8435  1.2863
  105SAPE   C1110696   6.717   5.533   1.934  0.2281 -0.4693 -0.5657
  105SAPE  H11A10697   6.820   5.559   1.902  0.7696 -0.8770  0.7771
  105SAPE  H11B10698   6.673   5.471   1.853 -1.4999  0.5790 -0.4854
  105SAPE     P10699   6.759   5.300   2.045  0.0187  0.1456 -0.3609
  105SAPE   O1310700   6.683   5.240   1.933  0.3808  0.1574  0.0345
  105SAPE   O1410701   6.908   5.282   2.047  0.1620 -0.0622 -0.6753
  105SAPE   O1210702   6.730   5.462   2.053  0.0556  0.3036  0.0353
  105SAPE   O1110703   6.688   5.248   2.182 -0.2278 -0.1453  0.0361
  105SAPE    C110704   6.639   5.339   2.281 -0.2170  0.1968  0.2099
  105SAPE    HA10705   6.708   5.422   2.305 -1.2844  1.3102 -0.4415
  105SAPE    HB10706   6.547   5.388   2.242  0.1456 -0.6063 -1.7470
  105SAPE    C210707   6.612   5.267   2.420  0.3716  0.1485  0.1325
  105SAPE    HS10708   6.619   5.359   2.481  0.5468  0.4313 -0.3034
  105SAPE   O2110709   6.708   5.163   2.450 -0.2116 -0.1491 -0.3894
  105SAPE   C2110710   6.829   5.215   2.478  0.3369 -0.7164 -0.4773
  105SAPE   O2210711   6.848   5.333   2.500  0.2054 -0.3590 -0.5069
  105SAPE   C2210712   6.938   5.114   2.489 -0.8550 -0.3001  0.7615
  105SAPE   H2R10713   6.913   5.023   2.431 -0.9367  0.4814 -0.4885
  105SAPE   H2S10714   7.024   5.153   2.429 -2.3453 -2.0873 -2.8686
  105SAPE    C310715   6.467   5.206   2.430  0.0273 -0.3827 -0.2728
  105SAPE    HX10716   6.450   5.142   2.341  1.8840 -2.7435  0.9709
  105SAPE    HY10717   6.383   5.279   2.430 -0.4680 -0.9190  1.1263
  105SAPE   O3110718   6.461   5.140   2.560  0.0789 -0.0052 -0.7205
  105SAPE   C3110719   6.476   5.011   2.550 -0.3504  0.5578  0.5480
  105SAPE   O3210720   6.479   4.943   2.448 -0.1932 -0.4396 -0.2982
  105SAPE   C3210721   6.513   4.962   2.687 -0.5293  0.6081 -0.5108
  105SAPE   H2X10722   6.430   4.990   2.755 -0.6257  0.3467 -0.5173
  105SAPE   H2Y10723   6.610   5.004   2.722  0.7198 -1.6066 -1.0847
  105SAPE   C2310724   6.975   5.066   2.634  0.0809 -0.0307 -0.4027
  105SAPE   H3R10725   6.875   5.053   2.681 -0.7353 -0.0320 -2.0431
  105SAPE   H3S10726   7.033   5.152   2.674  0.5977 -0.6712  0.2348
  105SAPE   C2410727   7.068   4.949   2.639 -0.2727  0.1087 -0.1530
  105SAPE   H4R10728   7.023   4.877   2.567 -0.1907 -0.5669  0.4610
  105SAPE   H4S10729   7.074   4.904   2.740 -1.6318  1.0638  0.3808
  105SAPE   C2510730   7.205   4.969   2.579  0.5881 -0.7592  0.8901
  105SAPE   H5R10731   7.219   4.948   2.472  0.4065 -1.4088  0.9924
  105SAPE   C2610732   7.309   5.026   2.642 -0.0578 -0.0328  0.3410
  105SAPE   H6R10733   7.406   5.020   2.591 -1.3508 -0.2441 -2.2637
  105SAPE   C2710734   7.305   5.073   2.784  0.1210 -0.0091 -0.3903
  105SAPE   H7R10735   7.209   5.119   2.818  0.3907 -0.7969  1.5056
  105SAPE   H7S10736   7.384   5.151   2.787  0.0786  0.0089  1.2595
  105SAPE   C2810737   7.337   4.970   2.893 -0.0433 -0.0402  0.6771
  105SAPE   H8R10738   7.254   4.898   2.905 -1.4664  1.1723 -1.2090
  105SAPE   C2910739   7.450   4.948   2.964 -0.5862  0.2127  0.1940
  105SAPE   H9R10740   7.446   4.863   3.034 -0.9499 -1.0119 -1.2603
  105SAPE  C21010741   7.585   5.009   2.958  0.4170  0.2452  0.7238
  105SAPE  H10R10742   7.605   5.072   3.047  0.3370  2.7338 -0.9295
  105SAPE  H10S10743   7.594   5.074   2.868  0.1422 -4.8429 -3.4572
  105SAPE  C21110744   7.690   4.899   2.939  0.5140 -0.0074  0.4972
  105SAPE  H11R10745   7.722   4.875   2.837 -1.0524  3.0665 -0.8584
  105SAPE  C21210746   7.740   4.825   3.035  0.2651  0.0204 -0.3266
  105SAPE  H12R10747   7.807   4.741   3.015  0.1645 -0.2938  0.6008
  105SAPE  C21310748   7.709   4.854   3.183 -0.0775 -0.2247 -0.0194
  105SAPE  H13R10749   7.600   4.842   3.205 -0.6080  3.7018  0.2158
  105SAPE  H13S10750   7.742   4.959   3.199  0.5508 -0.2688 -0.9834
  105SAPE  C21410751   7.776   4.766   3.291 -0.0081 -0.6398 -0.1780
  105SAPE  H14R10752   7.817   4.670   3.255  2.8201  1.0813 -1.9079
  105SAPE  C21510753   7.805   4.799   3.417 -0.0437  0.1972 -0.2881
  105SAPE  H15R10754   7.849   4.724   3.485 -1.1020  0.0905  0.3039
  105SAPE  C21610755   7.747   4.921   3.485  0.4048  0.1209  0.6380
  105SAPE  H16R10756   7.641   4.924   3.452  0.2390  0.1635  1.1591
  105SAPE  H16S10757   7.786   5.016   3.442 -1.3049  0.0615 -1.1331
  105SAPE  C21710758   7.782   4.928   3.635  0.2021  0.4760  0.7368
  105SAPE  H17R10759   7.879   4.978   3.656  1.0286  0.3091 -2.2777
  105SAPE  H17S10760   7.790   4.824   3.673 -2.0754 -0.2711 -0.6585
  105SAPE  C21810761   7.675   5.012   3.720 -0.3666  0.0968 -0.5287
  105SAPE  H18R10762   7.581   4.959   3.747 -0.5938  0.6660 -0.1865
  105SAPE  H18S10763   7.663   5.105   3.659 -0.1514 -0.6502 -1.7494
  105SAPE  C21910764   7.726   5.056   3.859 -0.2869  0.1508  0.4995
  105SAPE  H19R10765   7.802   5.136   3.844  3.0254 -2.9667 -0.9364
  105SAPE  H19S10766   7.799   4.983   3.900  0.5498  0.2067 -0.8212
  105SAPE  C22010767   7.617   5.081   3.960 -0.4975  0.5505 -0.4001
  105SAPE  H20R10768   7.546   5.157   3.920  1.6635  2.9538  0.0115
  105SAPE  H20S10769   7.654   5.124   4.056 -0.7647 -2.0152  0.9456
  105SAPE  H20T10770   7.570   4.983   3.981  2.6400 -0.8613  0.5941
  105SAPE   C3310771   6.523   4.811   2.714  0.3403 -0.2982  1.0399
  105SAPE   H3X10772   6.580   4.763   2.632  1.4713  1.0210  1.0136
  105SAPE   H3Y10773   6.413   4.800   2.711 -0.0659  2.4004  2.5796
  105SAPE   C3410774   6.581   4.782   2.856 -0.2961 -0.1604 -0.1814
  105SAPE   H4X10775   6.684   4.820   2.872  0.4334 -2.5974  1.6303
  105SAPE   H4Y10776   6.603   4.673   2.857 -1.5840 -0.5386  3.4660
  105SAPE   C3510777   6.490   4.805   2.970  0.0593  0.1862  0.0712
  105SAPE   H5X10778   6.394   4.752   2.950 -0.2739  0.5852  0.5815
  105SAPE   H5Y10779   6.456   4.911   2.962 -0.5107 -0.0798 -1.3500
  105SAPE   C3610780   6.551   4.770   3.107 -0.0627 -0.4532  0.1625
  105SAPE   H6X10781   6.618   4.858   3.115  0.1170 -0.1743 -3.0666
  105SAPE   H6Y10782   6.615   4.679   3.108  0.6302  0.0025 -0.9281
  105SAPE   C3710783   6.447   4.755   3.222 -0.2895 -0.1765 -0.0136
  105SAPE   H7X10784   6.384   4.665   3.204 -0.4620 -0.1249  0.3191
  105SAPE   H7Y10785   6.383   4.846   3.218 -2.3487 -1.5546 -0.0990
  105SAPE   C3810786   6.514   4.736   3.361  0.2287 -0.2520  0.2659
  105SAPE   H8X10787   6.560   4.635   3.367  1.3224  0.0838 -1.7419
  105SAPE   H8Y10788   6.431   4.726   3.434  0.6841  0.0480  0.8370
  105SAPE   C3910789   6.619   4.839   3.409 -0.2285 -0.8090  0.2501
  105SAPE   H9X10790   6.584   4.944   3.408 -0.1956 -0.7883 -0.9304
  105SAPE   H9Y10791   6.707   4.827   3.342  1.1047  1.4813  1.4688
  105SAPE  C31010792   6.676   4.811   3.546  0.2742  0.1987  0.1489
  105SAPE  H10X10793   6.739   4.720   3.558  0.4759 -0.0389 -2.3059
  105SAPE  H10Y10794   6.595   4.798   3.621 -1.1176 -1.0679 -1.4845
  105SAPE  C31110795   6.757   4.921   3.612 -0.0522  0.2696 -0.3279
  105SAPE  H11X10796   6.704   5.017   3.597  0.2673  0.5667  0.3847
  105SAPE  H11Y10797   6.854   4.927   3.559 -0.2147  0.4881 -0.6004
  105SAPE  C31210798   6.785   4.910   3.769 -0.2294 -0.3597  0.1502
  105SAPE  H12X10799   6.825   4.820   3.820  0.0299  0.6756  1.8625
  105SAPE  H12Y10800   6.688   4.929   3.820  0.4196  3.2886  0.3148
  105SAPE  C31310801   6.872   5.029   3.810  0.5878 -0.7398 -0.2107
  105SAPE  H13X10802   6.824   5.126   3.784  0.8996 -0.0206  1.7475
  105SAPE  H13Y10803   6.963   5.022   3.748 -0.0835  0.5138 -1.3727
  105SAPE  C31410804   6.890   5.039   3.969  0.3963  0.1899  0.4734
  105SAPE  H14X10805   6.785   5.033   4.007 -0.8988 -2.0181 -2.9375
  105SAPE  H14Y10806   6.917   5.144   3.990 -2.6132  1.1794 -0.0690
  105SAPE  C31510807   6.980   4.941   4.033 -0.2485 -0.1675  1.0659
  105SAPE  H15X10808   7.085   4.969   4.007 -0.9298 -0.1923 -2.1361
  105SAPE  H15Y10809   6.972   4.841   3.987 -1.0684  0.3433  0.0420
  105SAPE  C31610810   6.967   4.923   4.190 -0.2218  0.1230 -1.2087
  105SAPE  H16X10811   6.861   4.900   4.215  0.7600 -0.8469  2.7017
  105SAPE  H16Y10812   6.979   5.022   4.240 -3.5985  0.3158 -0.5387
  105SAPE  C31710813   7.054   4.819   4.260 -0.8007  0.4875  0.1357
  105SAPE  H17X10814   7.038   4.825   4.369  1.6055 -0.5164  0.6092
  105SAPE  H17Y10815   7.159   4.855   4.247  0.1350 -0.1732  4.5404
  105SAPE  C31810816   7.029   4.684   4.200  0.2618 -0.6149  0.1952
  105SAPE  H18X10817   7.096   4.609   4.248  1.7005 -0.5244 -1.5431
  105SAPE  H18Y10818   7.043   4.689   4.090  0.4207  1.7060  0.2685
  105SAPE  H18Z10819   6.922   4.656   4.202  0.4425 -1.2656  0.9236
  106SAPE     N10820   0.147   0.005   2.114 -0.8111 -0.4358 -0.4114
  106SAPE   HN110821   0.137  -0.039   2.020  0.7681  0.3335 -0.9672
  106SAPE   HN210822   0.165   0.106   2.098 -0.1026 -0.2307  1.4204
  106SAPE   HN310823   0.226  -0.030   2.171  0.3650  2.1046 -0.3897
  106SAPE   C1210824   0.018  -0.033   2.194 -0.1266 -0.2393  0.2853
  106SAPE  H12A10825  -0.014   0.051   2.259  1.3845 -1.6791  3.1237
  106SAPE  H12B10826   0.047  -0.113   2.267  1.0606  0.2217  0.3330
  106SAPE   C1110827  -0.092  -0.085   2.102  0.0645 -0.0558  1.0081
  106SAPE  H11A10828  -0.114  -0.023   2.012  1.9747  1.4054  1.4606
  106SAPE  H11B10829  -0.191  -0.076   2.152 -0.9253  2.0629 -1.1112
  106SAPE     P10830  -0.169  -0.337   2.098 -0.0076 -0.0778  0.2669
  106SAPE   O1310831  -0.284  -0.330   2.006  0.0224 -0.2310 -0.5182
  106SAPE   O1410832  -0.101  -0.467   2.108 -0.3852  0.5208 -0.2527
  106SAPE   O1210833  -0.067  -0.224   2.066  0.6505 -0.0465  0.1477
  106SAPE   O1110834  -0.227  -0.299   2.237  0.1021  0.1171 -0.5436
  106SAPE    C110835  -0.162  -0.288   2.367 -0.3673  0.1288  0.4497
  106SAPE    HA10836  -0.057  -0.324   2.363 -0.6107 -0.6208  0.4965
  106SAPE    HB10837  -0.158  -0.180   2.392  0.6433  0.1322  0.3251
  106SAPE    C210838  -0.232  -0.363   2.483 -0.0593 -0.3457  0.2847
  106SAPE    HS10839  -0.336  -0.327   2.501  0.3317  0.4527  0.9982
  106SAPE   O2110840  -0.163  -0.347   2.608  0.4555  0.1007  0.3838
  106SAPE   C2110841  -0.194  -0.242   2.681  0.1532  0.0120  0.8027
  106SAPE   O2210842  -0.276  -0.163   2.644 -0.2817 -0.2404 -0.5657
  106SAPE   C2210843  -0.131  -0.231   2.820  0.3280 -0.1512 -0.5777
  106SAPE   H2R10844  -0.047  -0.158   2.813  0.0826  0.2493  0.4564
  106SAPE   H2S10845  -0.200  -0.187   2.895  1.0182 -0.4468  0.2507
  106SAPE    C310846  -0.252  -0.512   2.451 -0.8873 -0.6221  0.0327
  106SAPE    HX10847  -0.160  -0.567   2.423  0.4383  1.4388  0.1553
  106SAPE    HY10848  -0.317  -0.518   2.361  1.4553  2.4643 -2.0619
  106SAPE   O3110849  -0.329  -0.564   2.562 -0.2434  0.1550  0.2611
  106SAPE   C3110850  -0.264  -0.618   2.664  0.7079 -0.6239 -0.3047
  106SAPE   O3210851  -0.144  -0.639   2.668  0.5919 -0.3998 -0.5006
  106SAPE   C3210852  -0.365  -0.645   2.783 -1.0842 -0.3630  0.3714
  106SAPE   H2X10853  -0.460  -0.663   2.729 -1.0923  1.2339 -0.2113
  106SAPE   H2Y10854  -0.360  -0.554   2.847  4.4816  1.2084 -1.6856
  106SAPE   C2310855  -0.080  -0.369   2.861 -0.0655 -0.4636  0.5120
  106SAPE   H3R10856  -0.020  -0.420   2.783  1.3895 -0.1663  1.3951
  106SAPE   H3S10857  -0.164  -0.435   2.890 -1.5876  0.9416 -0.5185
  106SAPE   C2410858   0.008  -0.359   2.993 -0.2916 -0.2050  0.3004
  106SAPE   H4R10859   0.042  -0.460   3.023  1.5411  0.4803  0.6950
  106SAPE   H4S10860  -0.047  -0.306   3.074 -0.5643 -0.3076  0.1820
  106SAPE   C2510861   0.135  -0.276   2.947  1.1373 -0.0597 -0.3965
  106SAPE   H5R10862   0.191  -0.328   2.868  2.3813 -0.4413  0.7267
  106SAPE   C2610863   0.180  -0.160   2.985  0.3897 -0.3883  0.1223
  106SAPE   H6R10864   0.257  -0.101   2.932 -3.8935  3.3854 -2.7514
  106SAPE   C2710865   0.120  -0.065   3.088  0.9514 -0.9933 -0.1265
  106SAPE   H7R10866   0.202  -0.031   3.155  1.5031 -0.0556 -1.2532
  106SAPE   H7S10867   0.052  -0.120   3.158 -0.8400  0.0764 -0.9454
  106SAPE   C2810868   0.045   0.044   3.012 -0.5594  0.0941 -0.3347
  106SAPE   H8R10869  -0.050   0.018   2.962 -1.7976  1.7109  1.0404
  106SAPE   C2910870   0.075   0.175   3.007 -0.4555  0.0519 -0.2360
  106SAPE   H9R10871   0.022   0.245   2.942 -1.2560 -2.1154 -2.0703
  106SAPE  C21010872   0.186   0.237   3.096  0.1708  1.1442 -0.4246
  106SAPE  H10R10873   0.285   0.189   3.080  0.0545  1.1629 -1.2055
  106SAPE  H10S10874   0.157   0.221   3.202 -0.4975 -0.1996 -0.7885
  106SAPE  C21110875   0.196   0.384   3.078  0.1507 -0.9900  0.7528
  106SAPE  H11R10876   0.177   0.429   2.979  0.8811 -3.5703 -0.6443
  106SAPE  C21210877   0.218   0.474   3.175 -0.0360  0.3003 -0.2200
  106SAPE  H12R10878   0.225   0.578   3.141 -0.3448  0.4958  0.3157
  106SAPE  C21310879   0.246   0.442   3.318  0.0638  0.5471  0.1897
  106SAPE  H13R10880   0.246   0.332   3.333  1.2355  0.3660 -0.9654
  106SAPE  H13S10881   0.157   0.475   3.375 -0.8565 -1.6559  0.1536
  106SAPE  C21410882   0.370   0.509   3.370 -0.4657  0.5668 -0.2735
  106SAPE  H14R10883   0.361   0.613   3.405  1.9867  1.1244 -1.1256
  106SAPE  C21510884   0.489   0.446   3.393 -0.0173 -0.5204  1.1458
  106SAPE  H15R10885   0.571   0.514   3.421  0.0014  0.0566 -0.2388
  106SAPE  C21610886   0.530   0.302   3.357 -0.4829 -0.4825 -0.7964
  106SAPE  H16R10887   0.634   0.304   3.317 -0.2614 -0.8259 -0.2448
  106SAPE  H16S10888   0.476   0.270   3.266  0.0418 -0.7975 -0.9981
  106SAPE  C21710889   0.509   0.199   3.468 -0.6388  0.0810  0.7746
  106SAPE  H17R10890   0.401   0.209   3.492 -0.7630  1.7382 -0.3001
  106SAPE  H17S10891   0.566   0.236   3.556 -0.9297  0.2627  0.8886
  106SAPE  C21810892   0.551   0.056   3.426  0.6662  0.4852  0.4751
  106SAPE  H18R10893   0.662   0.049   3.427  0.6212 -3.2509 -1.0433
  106SAPE  H18S10894   0.520   0.035   3.322 -0.3067 -0.4257  0.9272
  106SAPE  C21910895   0.488  -0.046   3.522  0.1985  0.4538  0.3457
  106SAPE  H19R10896   0.512  -0.141   3.471  0.1122  0.2976  0.5971
  106SAPE  H19S10897   0.377  -0.047   3.531  0.0765 -2.3679 -0.6474
  106SAPE  C22010898   0.546  -0.034   3.668  0.4381  0.5533 -0.0833
  106SAPE  H20R10899   0.523   0.061   3.721  1.1349 -0.4881  2.1726
  106SAPE  H20S10900   0.655  -0.053   3.659  0.4567  1.1709 -1.6412
  106SAPE  H20T10901   0.517  -0.109   3.743 -1.3807 -0.5125 -1.7583
  106SAPE   C3310902  -0.326  -0.762   2.876  0.2385 -0.0246 -0.4741
  106SAPE   H3X10903  -0.227  -0.741   2.921 -0.4988 -1.5935  2.1054
  106SAPE   H3Y10904  -0.333  -0.863   2.828 -0.6169  0.1090 -0.6469
  106SAPE   C3410905  -0.414  -0.745   2.994 -0.1815  0.1684  0.3280
  106SAPE   H4X10906  -0.518  -0.748   2.954 -0.7458 -1.8468  1.7693
  106SAPE   H4Y10907  -0.410  -0.643   3.039 -3.0995 -0.2855  1.8647
  106SAPE   C3510908  -0.392  -0.851   3.105  0.6154  0.5143  0.5683
  106SAPE   H5X10909  -0.286  -0.869   3.133  1.3488 -1.8710 -3.0248
  106SAPE   H5Y10910  -0.421  -0.947   3.057  3.7607 -0.9350  1.3258
  106SAPE   C3610911  -0.474  -0.822   3.232 -0.1784  0.5873 -0.0437
  106SAPE   H6X10912  -0.582  -0.810   3.208 -0.5433 -1.2700  0.4982
  106SAPE   H6Y10913  -0.445  -0.726   3.280  0.0751  0.2217  0.5425
  106SAPE   C3710914  -0.454  -0.936   3.336 -0.1674  0.1507 -0.4270
  106SAPE   H7X10915  -0.349  -0.942   3.370 -0.5293 -0.6701  0.5881
  106SAPE   H7Y10916  -0.478  -1.035   3.291  1.8670 -1.0868  1.0647
  106SAPE   C3810917  -0.539  -0.914   3.460 -0.0524  0.1606 -0.4981
  106SAPE   H8X10918  -0.650  -0.911   3.447 -0.6132 -1.8366  2.7863
  106SAPE   H8Y10919  -0.508  -0.812   3.490  1.2126 -0.4782  0.4243
  106SAPE   C3910920  -0.504  -1.008   3.576 -0.0292  0.3149  0.9689
  106SAPE   H9X10921  -0.420  -0.976   3.641  0.4102 -0.7629  0.9562
  106SAPE   H9Y10922  -0.480  -1.110   3.538  0.0851 -0.3154  2.6669
  106SAPE  C31010923  -0.621  -1.047   3.673  0.2121  0.1306  1.0313
  106SAPE  H10X10924  -0.707  -1.093   3.620 -0.7812  1.1152  1.7233
  106SAPE  H10Y10925  -0.649  -0.955   3.729  0.3270  0.2967  0.8182
  106SAPE  C31110926  -0.580  -1.145   3.781 -0.1492  0.1188  0.4649
  106SAPE  H11X10927  -0.521  -1.235   3.754  1.7106  0.4055  3.1966
  106SAPE  H11Y10928  -0.680  -1.169   3.823 -1.0814  0.3933 -1.4765
  106SAPE  C31210929  -0.505  -1.068   3.894 -0.1501  0.2787  0.7785
  106SAPE  H12X10930  -0.578  -1.000   3.943  1.4183  1.6798  1.2691
  106SAPE  H12Y10931  -0.433  -0.997   3.848 -0.1365  0.9868  1.8371
  106SAPE  C31310932  -0.440  -1.160   4.000  0.6093  0.1129  0.1004
  106SAPE  H13X10933  -0.412  -1.092   4.084  0.5582 -0.2206  0.3868
  106SAPE  H13Y10934  -0.345  -1.203   3.961 -0.2872  0.9410 -3.3810
  106SAPE  C31410935  -0.511  -1.280   4.061 -0.3733  0.6096 -0.2871
  106SAPE  H14X10936  -0.576  -1.333   3.988  0.6637 -1.2532  0.0804
  106SAPE  H14Y10937  -0.582  -1.246   4.139  0.9620 -0.4507  1.4384
  106SAPE  C31510938  -0.404  -1.365   4.134  0.1393  0.4570  0.5250
  106SAPE  H15X10939  -0.327  -1.298   4.178  0.3807  1.2413 -1.0162
  106SAPE  H15Y10940  -0.342  -1.427   4.066 -0.1911  1.5794 -0.8316
  106SAPE  C31610941  -0.467  -1.456   4.239 -0.2923  0.2370  0.3594
  106SAPE  H16X10942  -0.536  -1.522   4.184 -1.7957  0.7402  1.5770
  106SAPE  H16Y10943  -0.519  -1.389   4.311  0.3519  1.5531 -0.3666
  106SAPE  C31710944  -0.372  -1.552   4.327 -0.5829 -0.4713  0.0417
  106SAPE  H17X10945  -0.443  -1.615   4.385 -1.2504 -0.9459 -1.2724
  106SAPE  H17Y10946  -0.299  -1.507   4.398 -1.6555 -0.3199  1.0817
  106SAPE  C31810947  -0.286  -1.655   4.246  0.1554 -0.1086 -0.5755
  106SAPE  H18X10948  -0.236  -1.733   4.308 -0.5525  1.2881  1.8904
  106SAPE  H18Y10949  -0.205  -1.595   4.199  0.2305 -0.1634 -0.5157
  106SAPE  H18Z10950  -0.353  -1.694   4.168 -0.8600  1.7675 -0.7009
  107SAPE     N10951   2.613   5.264   2.799  0.3102 -0.3888  0.0870
  107SAPE   HN110952   2.518   5.299   2.822  0.4462  1.1631 -1.4494
  107SAPE   HN210953   2.674   5.260   2.883  0.0015 -1.9083  0.2646
  107SAPE   HN310954   2.650   5.341   2.739 -0.8229  1.4649  1.6820
  107SAPE   C1210955   2.598   5.137   2.726 -0.6584 -0.7529  0.0811
  107SAPE  H12A10956   2.525   5.143   2.642 -1.6776 -0.1047  0.9728
  107SAPE  H12B10957   2.561   5.072   2.809  0.0417  0.4612  1.4041
  107SAPE   C1110958   2.736   5.090   2.688  0.1110 -0.2777 -0.1287
  107SAPE  H11A10959   2.717   5.011   2.612 -1.0869 -0.0682 -0.0718
  107SAPE  H11B10960   2.791   5.047   2.775 -1.1101  1.8264  1.7951
  107SAPE     P10961   2.944   5.172   2.537  0.0198 -0.3449 -0.2234
  107SAPE   O1310962   2.989   5.033   2.533 -0.5403  0.0152 -0.6970
  107SAPE   O1410963   2.906   5.240   2.409  0.3243 -0.3546 -0.3273
  107SAPE   O1210964   2.815   5.192   2.627  0.0239  0.2962  0.1610
  107SAPE   O1110965   3.045   5.274   2.605  0.3487 -0.5057  0.1167
  107SAPE    C110966   3.023   5.323   2.742 -0.3309  0.4408 -0.0301
  107SAPE    HA10967   3.080   5.418   2.750  0.3526 -0.0301  1.0359
  107SAPE    HB10968   2.916   5.345   2.762 -0.8159 -1.0597 -0.8292
  107SAPE    C210969   3.069   5.225   2.854  0.4999 -0.4811 -0.1976
  107SAPE    HS10970   3.009   5.133   2.838 -0.5908  0.4251 -1.5766
  107SAPE   O2110971   3.034   5.286   2.990  0.5831  0.6568  0.1278
  107SAPE   C2110972   2.910   5.269   3.034  0.7102 -0.0170  0.0746
  107SAPE   O2210973   2.821   5.212   2.972 -0.4098 -0.1844 -0.0234
  107SAPE   C2210974   2.903   5.311   3.182 -0.8110  0.7681  0.3967
  107SAPE   H2R10975   2.962   5.233   3.236 -0.2715  2.3890  2.2701
  107SAPE   H2S10976   2.940   5.415   3.189  1.0347  0.2072 -0.4039
  107SAPE    C310977   3.219   5.187   2.848 -0.2860  0.5190  1.0827
  107SAPE    HX10978   3.273   5.278   2.883 -0.2757 -0.1423  2.8935
  107SAPE    HY10979   3.238   5.179   2.739 -0.7679  1.7413  0.8906
  107SAPE   O3110980   3.244   5.065   2.923 -0.0611 -0.3499  0.2352
  107SAPE   C3110981   3.368   5.009   2.913  0.2262 -0.7813  0.2841
  107SAPE   O3210982   3.449   5.051   2.835  0.0959  0.3073  0.2702
  107SAPE   C3210983   3.382   4.896   3.013 -0.4884 -0.0327 -0.3094
  107SAPE   H2X10984   3.349   4.801   2.967  1.7568 -1.0365  0.0044
  107SAPE   H2Y10985   3.316   4.924   3.098  1.7931 -1.2717  2.0135
  107SAPE   C2310986   2.764   5.329   3.248 -0.1629  0.6940 -0.3924
  107SAPE   H3R10987   2.725   5.225   3.258 -2.5049  1.4801 -0.5755
  107SAPE   H3S10988   2.694   5.378   3.177 -2.4567 -1.2901  0.3264
  107SAPE   C2410989   2.780   5.392   3.388 -0.1173  0.7794  0.8598
  107SAPE   H4R10990   2.851   5.477   3.401 -1.5866  2.0440  0.8516
  107SAPE   H4S10991   2.814   5.303   3.445  0.1490  1.1745  1.3285
  107SAPE   C2510992   2.647   5.423   3.446 -0.1629  0.3653  0.3194
  107SAPE   H5R10993   2.565   5.387   3.382 -0.6773  0.6554  0.8012
  107SAPE   C2610994   2.621   5.490   3.560 -0.5123  0.7640 -1.0244
  107SAPE   H6R10995   2.517   5.508   3.589 -0.4744 -0.6465  0.1377
  107SAPE   C2710996   2.719   5.539   3.665 -0.4885  0.1988  0.8205
  107SAPE   H7R10997   2.665   5.614   3.726 -3.6724  0.1333 -1.6082
  107SAPE   H7S10998   2.800   5.598   3.619 -1.9740  2.0509  0.4638
  107SAPE   C2810999   2.782   5.428   3.751  0.0544 -0.2294  0.9069
  107SAPE   H8R11000   2.786   5.332   3.699  1.7298  1.7910 -3.1372
  107SAPE   C2911001   2.834   5.441   3.878 -0.8064  0.1430  0.4464
  107SAPE   H9R11002   2.879   5.352   3.926  0.5780  1.1270  1.0693
  107SAPE  C21011003   2.828   5.563   3.959  0.6588 -0.4595 -0.2036
  107SAPE  H10R11004   2.739   5.563   4.024 -0.3649 -0.8405 -1.5523
  107SAPE  H10S11005   2.816   5.655   3.898  0.6554  0.9573  1.8544
  107SAPE  C21111006   2.955   5.589   4.033 -0.0458 -0.2174  0.5669
  107SAPE  H11R11007   3.036   5.643   3.982 -0.8094 -0.4060 -0.8795
  107SAPE  C21211008   2.970   5.546   4.156  0.1847  0.0865 -0.5231
  107SAPE  H12R11009   3.070   5.564   4.198  0.0842 -2.2627  0.9304
  107SAPE  C21311010   2.870   5.460   4.231 -0.1991 -0.1853  0.6081
  107SAPE  H13R11011   2.926   5.383   4.287  1.0387  0.2723  0.0257
  107SAPE  H13S11012   2.814   5.404   4.153  0.7513  0.0558 -0.2660
  107SAPE  C21411013   2.780   5.533   4.335  0.5926  0.5273  0.1111
  107SAPE  H14R11014   2.845   5.574   4.414  0.4572  0.6133  0.1784
  107SAPE  C21511015   2.655   5.515   4.367  0.1620  0.0254  0.0906
  107SAPE  H15R11016   2.602   5.582   4.436  1.8094 -0.4577  1.8857
  107SAPE  C21611017   2.561   5.417   4.295  0.1502 -0.4406  0.2734
  107SAPE  H16R11018   2.504   5.346   4.359  0.4144 -1.0908 -0.1967
  107SAPE  H16S11019   2.623   5.360   4.224  0.6723  3.0869 -2.3565
  107SAPE  C21711020   2.458   5.473   4.198  0.0579  0.3559  0.4507
  107SAPE  H17R11021   2.506   5.542   4.125 -1.3139  0.6443 -0.1998
  107SAPE  H17S11022   2.375   5.527   4.248 -0.9531  1.2966 -2.0974
  107SAPE  C21811023   2.408   5.361   4.104 -0.3290 -0.8730 -0.3280
  107SAPE  H18R11024   2.414   5.263   4.157 -2.5669 -2.2405 -2.3713
  107SAPE  H18S11025   2.484   5.355   4.024  0.3112 -0.4182  0.2334
  107SAPE  C21911026   2.271   5.388   4.048  0.4004 -0.0665 -0.9708
  107SAPE  H19R11027   2.272   5.479   3.985  1.6057  2.0515  1.8675
  107SAPE  H19S11028   2.216   5.421   4.139  0.3610 -1.3206 -0.5151
  107SAPE  C22011029   2.202   5.271   3.987 -0.0015  0.2025  0.2583
  107SAPE  H20R11030   2.217   5.181   4.051 -0.4865 -0.0055  0.0826
  107SAPE  H20S11031   2.252   5.246   3.891  0.9840  0.0029  0.8058
  107SAPE  H20T11032   2.092   5.279   3.976  0.1415  2.3231  0.0136
  107SAPE   C3311033   3.529   4.878   3.059 -0.0013  0.0525 -0.2274
  107SAPE   H3X11034   3.605   4.860   2.980  0.7858 -2.3383  0.9437
  107SAPE   H3Y11035   3.537   4.793   3.130  2.7147  0.6859  0.3655
  107SAPE   C3411036   3.586   4.997   3.146 -0.0002 -0.0067  0.2749
  107SAPE   H4X11037   3.501   5.044   3.200 -0.4649  1.1378 -1.3724
  107SAPE   H4Y11038   3.624   5.067   3.068 -0.6758  1.4495  1.2111
  107SAPE   C3511039   3.696   4.954   3.242 -0.6472  0.1736  0.4207
  107SAPE   H5X11040   3.740   5.046   3.287 -0.1721  0.8263 -1.3175
  107SAPE   H5Y11041   3.776   4.905   3.183 -0.8371  0.3711 -0.0050
  107SAPE   C3611042   3.657   4.856   3.361 -0.3241  0.6116  0.2707
  107SAPE   H6X11043   3.714   4.880   3.453  1.2238 -0.8927 -0.2309
  107SAPE   H6Y11044   3.691   4.752   3.340  0.8887  0.8641  0.8672
  107SAPE   C3711045   3.511   4.856   3.406  0.6052  0.2683  0.2958
  107SAPE   H7X11046   3.458   4.823   3.315  1.7247  0.6639 -0.5248
  107SAPE   H7Y11047   3.487   4.965   3.415 -1.4499  0.0229 -1.4879
  107SAPE   C3811048   3.461   4.766   3.520 -0.4212 -0.4747  0.0497
  107SAPE   H8X11049   3.451   4.661   3.486  0.7004 -0.8332  0.7558
  107SAPE   H8Y11050   3.359   4.800   3.548 -0.2328  0.6868 -0.5796
  107SAPE   C3911051   3.543   4.761   3.651 -0.2490 -0.3159  0.4533
  107SAPE   H9X11052   3.554   4.865   3.689 -0.1480  0.9406 -2.7277
  107SAPE   H9Y11053   3.637   4.704   3.635 -0.2487  0.3243 -2.2992
  107SAPE  C31011054   3.459   4.684   3.761  0.1016 -1.4311 -0.5932
  107SAPE  H10X11055   3.449   4.581   3.721 -2.0683 -1.8388  0.8568
  107SAPE  H10Y11056   3.359   4.733   3.768  1.0542  0.4692  0.3364
  107SAPE  C31111057   3.534   4.689   3.903  0.0629  0.7170  0.5770
  107SAPE  H11X11058   3.620   4.620   3.896  1.3150  2.1132  1.7259
  107SAPE  H11Y11059   3.478   4.649   3.991  1.1230 -0.9385  0.5476
  107SAPE  C31211060   3.579   4.831   3.951 -0.2457  0.8823 -0.0053
  107SAPE  H12X11061   3.666   4.855   3.886 -0.6793  1.5320 -0.3507
  107SAPE  H12Y11062   3.607   4.816   4.058 -0.2177 -1.8328 -0.3139
  107SAPE  C31311063   3.479   4.943   3.940 -0.4029 -0.2960  0.1646
  107SAPE  H13X11064   3.391   4.919   4.003 -0.7095  2.1936  0.7878
  107SAPE  H13Y11065   3.430   4.949   3.840  2.1903 -0.5508 -1.2123
  107SAPE  C31411066   3.534   5.082   3.966 -0.2898  0.1806  0.5932
  107SAPE  H14X11067   3.610   5.103   3.888 -0.8293 -2.0437 -0.5948
  107SAPE  H14Y11068   3.574   5.092   4.069  3.1934 -0.3251 -0.5844
  107SAPE  C31511069   3.415   5.178   3.947 -0.2179 -0.1564 -0.5208
  107SAPE  H15X11070   3.345   5.154   4.030 -2.1208 -0.4942 -2.1478
  107SAPE  H15Y11071   3.360   5.157   3.853 -2.1202  0.4684  0.3931
  107SAPE  C31611072   3.469   5.324   3.951 -0.4737  0.0980  0.0187
  107SAPE  H16X11073   3.512   5.346   3.851  1.0456 -1.4591  0.2857
  107SAPE  H16Y11074   3.547   5.342   4.028  0.1077  0.6041 -0.6713
  107SAPE  C31711075   3.348   5.412   3.976 -0.6687 -0.1265 -0.3982
  107SAPE  H17X11076   3.289   5.388   4.067 -0.4228  2.0497  0.3860
  107SAPE  H17Y11077   3.279   5.392   3.891  1.6986 -2.5435 -1.9092
  107SAPE  C31811078   3.383   5.556   3.987 -0.4466  0.3371  0.2280
  107SAPE  H18X11079   3.444   5.555   4.080 -2.6742 -2.1930  1.7972
  107SAPE  H18Y11080   3.290   5.613   4.008  0.0358  0.8654  1.0002
  107SAPE  H18Z11081   3.446   5.586   3.900 -0.0552 -0.5798  0.1883
  108SAPE     N11082   1.204   3.884   1.520  0.3062 -0.2725 -0.5332
  108SAPE   HN111083   1.125   3.951   1.506 -0.0581 -0.8987 -1.4873
  108SAPE   HN211084   1.294   3.936   1.515  0.2844 -0.2766 -0.9909
  108SAPE   HN311085   1.191   3.821   1.439  0.4596 -1.4436  0.3295
  108SAPE   C1211086   1.191   3.793   1.645  0.1149 -0.9097  0.7408
  108SAPE  H12A11087   1.289   3.742   1.650  1.8395  2.2379  3.0941
  108SAPE  H12B11088   1.114   3.714   1.630  1.9015 -2.5911  0.0315
  108SAPE   C1111089   1.169   3.891   1.767 -0.3178  0.4626 -0.4091
  108SAPE  H11A11090   1.266   3.940   1.787  1.2023 -2.3110 -0.5313
  108SAPE  H11B11091   1.148   3.816   1.847  1.5272 -1.2296 -1.4258
  108SAPE     P11092   0.907   3.952   1.754 -0.0415 -0.1045 -0.2273
  108SAPE   O1311093   0.830   4.071   1.806  0.7623  0.4645  0.2696
  108SAPE   O1411094   0.869   3.897   1.624  0.2919 -0.4239 -0.0716
  108SAPE   O1211095   1.060   3.987   1.756  0.0435 -0.2577 -0.2341
  108SAPE   O1111096   0.898   3.838   1.855  0.7414 -0.4801 -0.1412
  108SAPE    C111097   0.773   3.821   1.926 -0.7107  0.3171 -0.0376
  108SAPE    HA11098   0.682   3.857   1.874 -1.1149 -0.7886 -0.1205
  108SAPE    HB11099   0.749   3.712   1.926  1.9054 -0.3427 -0.5282
  108SAPE    C211100   0.782   3.881   2.063 -0.7831 -0.1404  0.4417
  108SAPE    HS11101   0.804   3.989   2.044 -2.4596  0.1485 -0.0591
  108SAPE   O2111102   0.888   3.818   2.139  0.0641  0.2542  0.0715
  108SAPE   C2111103   0.971   3.887   2.209  0.2334  0.2618 -0.6494
  108SAPE   O2211104   0.982   4.009   2.211 -0.4248 -0.4551  0.0718
  108SAPE   C2211105   1.060   3.782   2.294  0.3510 -0.1340 -0.6516
  108SAPE   H2R11106   0.994   3.743   2.375  0.3780  0.4438 -0.3475
  108SAPE   H2S11107   1.083   3.706   2.216 -1.1779 -1.9181  0.5610
  108SAPE    C311108   0.646   3.868   2.137 -0.5231 -0.6369  0.0181
  108SAPE    HX11109   0.626   3.758   2.138 -0.1486 -0.7290 -1.0052
  108SAPE    HY11110   0.564   3.918   2.080 -0.6381 -1.3230 -0.4366
  108SAPE   O3111111   0.656   3.916   2.271 -0.1669 -0.1247  0.2557
  108SAPE   C3111112   0.639   4.040   2.288 -0.1595  0.2226  0.0084
  108SAPE   O3211113   0.617   4.125   2.201 -0.6213 -0.2511  0.0659
  108SAPE   C3211114   0.646   4.068   2.441  0.3556 -0.1901 -0.2750
  108SAPE   H2X11115   0.551   4.032   2.485 -0.0195  0.1766 -0.7709
  108SAPE   H2Y11116   0.640   4.178   2.453 -1.1444 -0.3265  0.3958
  108SAPE   C2311117   1.189   3.843   2.343 -0.0712  0.1062  0.3214
  108SAPE   H3R11118   1.231   3.904   2.260  0.5903 -1.0651 -0.2339
  108SAPE   H3S11119   1.264   3.763   2.361  0.2325  0.3956  0.3495
  108SAPE   C2411120   1.174   3.919   2.467  1.0280 -0.7265 -0.0361
  108SAPE   H4R11121   1.150   3.857   2.555 -0.6921 -0.7127 -0.4531
  108SAPE   H4S11122   1.095   3.998   2.458  0.2542 -1.5972 -1.2013
  108SAPE   C2511123   1.295   4.011   2.491  0.1165  0.9191 -0.6006
  108SAPE   H5R11124   1.342   4.056   2.403 -0.1067  0.3560 -1.0119
  108SAPE   C2611125   1.360   4.034   2.610 -0.4835  0.2843  0.1350
  108SAPE   H6R11126   1.441   4.108   2.611  0.4530 -0.7089  0.2542
  108SAPE   C2711127   1.327   3.966   2.739  0.1220  0.0774  0.1157
  108SAPE   H7R11128   1.420   3.974   2.799 -1.4694  1.4050  2.5807
  108SAPE   H7S11129   1.300   3.859   2.726  1.5468 -0.1501 -1.5004
  108SAPE   C2811130   1.223   4.047   2.814  0.8059 -0.5515  0.3610
  108SAPE   H8R11131   1.122   4.044   2.771 -0.2523 -1.0425  2.7345
  108SAPE   C2911132   1.240   4.110   2.935  0.3042 -0.0524 -0.6433
  108SAPE   H9R11133   1.158   4.166   2.983  0.4040 -0.7331  0.3402
  108SAPE  C21011134   1.362   4.117   3.014 -1.7591 -0.7811  0.0622
  108SAPE  H10R11135   1.419   4.022   3.019 -0.7618 -0.2167 -0.3580
  108SAPE  H10S11136   1.332   4.151   3.116  1.1172  0.5953  0.5457
  108SAPE  C21111137   1.457   4.219   2.948  0.6664 -0.0325  0.3004
  108SAPE  H11R11138   1.410   4.289   2.877 -3.8897 -1.5556  1.4960
  108SAPE  C21211139   1.581   4.230   2.993 -0.4319 -0.0723  0.1766
  108SAPE  H12R11140   1.644   4.309   2.949 -1.3480 -1.5092 -4.2532
  108SAPE  C21311141   1.650   4.149   3.102  1.2042 -0.2678 -0.1251
  108SAPE  H13R11142   1.696   4.062   3.050 -0.8617 -0.0982 -2.3832
  108SAPE  H13S11143   1.572   4.113   3.173  0.6236  1.5698  0.2253
  108SAPE  C21411144   1.760   4.221   3.181  0.5674  0.4108  0.0397
  108SAPE  H14R11145   1.804   4.313   3.139  1.2830  1.0677  2.1042
  108SAPE  C21511146   1.811   4.180   3.303  0.4216  0.5379 -0.0487
  108SAPE  H15R11147   1.897   4.240   3.337  1.1745  0.9770 -2.5272
  108SAPE  C21611148   1.787   4.054   3.373 -0.5077 -0.0232 -0.4021
  108SAPE  H16R11149   1.883   3.998   3.364 -0.6207  0.0283 -2.6851
  108SAPE  H16S11150   1.698   3.997   3.340 -2.3342  1.8374  1.0517
  108SAPE  C21711151   1.771   4.068   3.522  0.2031 -0.3023  0.3339
  108SAPE  H17R11152   1.669   4.105   3.548  0.3400 -0.2663  0.8208
  108SAPE  H17S11153   1.844   4.142   3.559  2.8713 -1.5787 -2.0041
  108SAPE  C21811154   1.797   3.935   3.597 -1.0095 -0.1941 -0.2536
  108SAPE  H18R11155   1.899   3.906   3.563  1.1883  2.1353  3.6515
  108SAPE  H18S11156   1.727   3.852   3.577 -0.7571 -0.7804  1.1756
  108SAPE  C21911157   1.797   3.951   3.750  0.5640 -0.8278  0.0113
  108SAPE  H19R11158   1.689   3.936   3.769  0.4571 -0.6102 -0.4072
  108SAPE  H19S11159   1.828   4.055   3.774  1.8946 -1.4868  1.3161
  108SAPE  C22011160   1.886   3.863   3.825  0.6326 -0.1684  0.0503
  108SAPE  H20R11161   1.995   3.875   3.804  0.7136  0.4122  0.7391
  108SAPE  H20S11162   1.853   3.760   3.804  0.5755  0.0847 -1.1562
  108SAPE  H20T11163   1.864   3.884   3.932 -0.6810  0.7803 -0.3737
  108SAPE   C3311164   0.761   4.002   2.515 -0.4678  0.9476  0.0021
  108SAPE   H3X11165   0.861   4.027   2.474  0.6795 -0.2272  1.9038
  108SAPE   H3Y11166   0.771   3.894   2.490  2.1492  1.0288  0.3905
  108SAPE   C3411167   0.750   4.017   2.667  0.2266 -0.2802  0.2835
  108SAPE   H4X11168   0.814   3.942   2.719  0.8288 -0.4044 -0.6064
  108SAPE   H4Y11169   0.645   3.992   2.693 -0.5063  0.7351 -1.4563
  108SAPE   C3511170   0.793   4.154   2.718  0.8420  0.3515 -0.2314
  108SAPE   H5X11171   0.897   4.159   2.677  1.3666  1.4508  1.1404
  108SAPE   H5Y11172   0.746   4.239   2.663  0.0843  0.7521  1.0090
  108SAPE   C3611173   0.773   4.181   2.870 -0.2992 -0.0336 -0.0245
  108SAPE   H6X11174   0.667   4.189   2.902 -0.2417  1.3654 -0.1084
  108SAPE   H6Y11175   0.816   4.281   2.891 -0.8411  0.0600  0.6683
  108SAPE   C3711176   0.835   4.077   2.957 -0.3250  0.6959  0.1873
  108SAPE   H7X11177   0.945   4.066   2.956 -0.3499 -1.4318  3.9745
  108SAPE   H7Y11178   0.787   3.979   2.939 -0.2846  0.3667  1.7188
  108SAPE   C3811179   0.815   4.120   3.103 -0.2622  0.2730 -0.2090
  108SAPE   H8X11180   0.848   4.037   3.170  1.0295  0.3180 -0.7587
  108SAPE   H8Y11181   0.713   4.158   3.128 -0.0098  1.4372 -0.8910
  108SAPE   C3911182   0.905   4.236   3.151  0.1992 -0.0713  0.8886
  108SAPE   H9X11183   0.876   4.323   3.089 -1.9922 -3.2707 -3.0480
  108SAPE   H9Y11184   1.010   4.206   3.126 -0.8434 -2.1781 -1.3612
  108SAPE  C31011185   0.878   4.260   3.295  0.0262 -0.3242 -0.0275
  108SAPE  H10X11186   0.888   4.166   3.354  0.3177  0.0784  0.5722
  108SAPE  H10Y11187   0.775   4.300   3.303  0.3121  0.0765  2.2854
  108SAPE  C31111188   0.985   4.358   3.356 -0.3650 -0.4603  0.6318
  108SAPE  H11X11189   0.953   4.459   3.323  1.9945 -0.8853 -3.6910
  108SAPE  H11Y11190   1.086   4.345   3.310 -0.2342 -1.0277  1.0724
  108SAPE  C31211191   1.002   4.349   3.510  0.4469  0.3157  0.4942
  108SAPE  H12X11192   1.052   4.257   3.548  2.6168  0.8511 -0.8883
  108SAPE  H12Y11193   0.897   4.349   3.547  0.0408  0.6435 -0.6097
  108SAPE  C31311194   1.087   4.467   3.553 -0.0569  0.6024 -0.2592
  108SAPE  H13X11195   1.024   4.554   3.525  0.5402  0.6222 -1.6319
  108SAPE  H13Y11196   1.177   4.473   3.487 -0.0870 -0.5708 -0.4353
  108SAPE  C31411197   1.121   4.466   3.698  0.6459 -0.0448 -0.3353
  108SAPE  H14X11198   1.205   4.392   3.701  0.5885 -0.1299 -0.7954
  108SAPE  H14Y11199   1.041   4.432   3.768 -2.6227  0.6462 -3.4607
  108SAPE  C31511200   1.174   4.601   3.750 -0.8628  0.3323  0.7199
  108SAPE  H15X11201   1.254   4.628   3.679 -1.3553  0.1578  0.0845
  108SAPE  H15Y11202   1.222   4.595   3.850  1.2970 -1.8588 -0.3696
  108SAPE  C31611203   1.054   4.697   3.752 -0.2942  0.4161 -0.1324
  108SAPE  H16X11204   0.975   4.656   3.819  0.1257 -0.0282  0.0954
  108SAPE  H16Y11205   1.007   4.716   3.653  0.0420  1.8580 -0.0255
  108SAPE  C31711206   1.113   4.836   3.807  0.4895  0.8223  0.2192
  108SAPE  H17X11207   1.028   4.897   3.845  0.0957 -0.5677  1.6815
  108SAPE  H17Y11208   1.149   4.884   3.714  3.0334 -0.5004  0.4400
  108SAPE  C31811209   1.221   4.850   3.910 -0.5677  0.0648 -0.9313
  108SAPE  H18X11210   1.191   4.807   4.008 -1.1157  1.3509 -0.5087
  108SAPE  H18Y11211   1.243   4.958   3.923 -0.3758  0.1455 -1.8561
  108SAPE  H18Z11212   1.316   4.809   3.870  0.0534  0.2585  0.3214
  109SAPE     N11213   4.877   3.256   2.385 -0.3912  0.3751 -0.1132
  109SAPE   HN111214   4.795   3.258   2.321 -0.5845 -0.8346  0.0734
  109SAPE   HN211215   4.936   3.341   2.371 -1.2247  1.2867  1.5686
  109SAPE   HN311216   4.943   3.177   2.368  0.1820  0.9178 -0.4479
  109SAPE   C1211217   4.830   3.254   2.531 -0.2633 -0.4883  0.7426
  109SAPE  H12A11218   4.770   3.346   2.545  3.5632  3.0826 -3.2037
  109SAPE  H12B11219   4.925   3.256   2.590  0.4754 -4.6329 -0.0106
  109SAPE   C1111220   4.746   3.132   2.562  0.0667  0.0574 -0.3475
  109SAPE  H11A11221   4.714   3.133   2.669 -0.5404  1.5366 -0.5241
  109SAPE  H11B11222   4.801   3.036   2.547  0.5974  0.3089 -0.0419
  109SAPE     P11223   4.500   3.214   2.509 -0.3239  0.1680  0.0763
  109SAPE   O1311224   4.528   3.356   2.532  0.2984 -0.8870 -0.0060
  109SAPE   O1411225   4.398   3.179   2.406  0.1213  0.2426  0.1075
  109SAPE   O1211226   4.636   3.135   2.476 -0.2457 -0.0237 -0.2893
  109SAPE   O1111227   4.461   3.143   2.641 -0.3509  0.2118  0.0927
  109SAPE    C111228   4.372   3.027   2.633  0.2368 -0.1412 -0.2817
  109SAPE    HA11229   4.267   3.053   2.607  0.8442  3.6590  0.5782
  109SAPE    HB11230   4.405   2.960   2.551  0.5373  0.4290 -0.6226
  109SAPE    C211231   4.382   2.939   2.756 -0.6054 -0.5290 -0.0136
  109SAPE    HS11232   4.304   2.862   2.739 -0.6965 -0.5273  0.3763
  109SAPE   O2111233   4.357   3.014   2.878 -0.6048 -0.2933  0.2277
  109SAPE   C2111234   4.228   3.039   2.896  0.6962  0.2904  0.1703
  109SAPE   O2211235   4.138   2.996   2.824  0.0100 -0.0471 -0.6837
  109SAPE   C2211236   4.218   3.138   3.012 -0.0315 -0.0541 -0.5830
  109SAPE   H2R11237   4.317   3.179   3.042  0.1460  0.3863 -1.7313
  109SAPE   H2S11238   4.164   3.231   2.983  1.1444  1.7089  2.4500
  109SAPE    C311239   4.521   2.881   2.761 -0.1984  0.1000 -0.0113
  109SAPE    HX11240   4.593   2.966   2.754 -0.8336  0.6819  0.4528
  109SAPE    HY11241   4.533   2.811   2.676 -0.5887  1.2636 -1.0607
  109SAPE   O3111242   4.545   2.790   2.870  0.0451  0.8170  0.2115
  109SAPE   C3111243   4.583   2.853   2.976  0.4448  0.3086  0.1706
  109SAPE   O3211244   4.623   2.970   2.984  0.1881 -0.1333  0.3254
  109SAPE   C3211245   4.604   2.747   3.087  0.1800 -0.6930  0.3484
  109SAPE   H2X11246   4.700   2.694   3.070  1.7092  1.9103  0.1893
  109SAPE   H2Y11247   4.525   2.671   3.067  1.6556 -2.2717  0.3379
  109SAPE   C2311248   4.137   3.087   3.133 -0.0163  0.4817 -0.1934
  109SAPE   H3R11249   4.045   3.035   3.099 -0.8026  1.8602 -0.2661
  109SAPE   H3S11250   4.106   3.174   3.196  0.0499 -0.0764  0.6258
  109SAPE   C2411251   4.219   2.988   3.220 -0.1026 -0.1736 -0.2731
  109SAPE   H4R11252   4.298   3.057   3.256  1.3482  1.5687 -5.8905
  109SAPE   H4S11253   4.281   2.921   3.157  0.3420  0.3110 -0.3573
  109SAPE   C2511254   4.144   2.926   3.334 -0.0855  0.4293 -0.6603
  109SAPE   H5R11255   4.070   2.853   3.297 -1.2530  2.2874 -2.1343
  109SAPE   C2611256   4.149   2.943   3.467 -0.6961 -0.3147  0.8238
  109SAPE   H6R11257   4.103   2.864   3.529 -1.4783 -0.8182 -0.3739
  109SAPE   C2711258   4.245   3.037   3.534 -0.0609 -0.3503 -0.1567
  109SAPE   H7R11259   4.312   3.089   3.462 -0.8780 -0.2602 -0.8710
  109SAPE   H7S11260   4.308   2.992   3.613  1.0430  1.9396  0.3654
  109SAPE   C2811261   4.163   3.139   3.604 -0.1836 -0.1012 -0.4430
  109SAPE   H8R11262   4.109   3.213   3.543  1.5588  0.0962 -1.8241
  109SAPE   C2911263   4.172   3.157   3.740  1.3549 -0.1412  0.3979
  109SAPE   H9R11264   4.116   3.239   3.788  1.9093  1.3607 -1.4107
  109SAPE  C21011265   4.242   3.087   3.854 -0.7291 -0.1260  0.1513
  109SAPE  H10R11266   4.303   2.999   3.825  0.0064  0.4860 -0.1750
  109SAPE  H10S11267   4.172   3.035   3.924  1.2926 -3.2326  0.0859
  109SAPE  C21111268   4.329   3.178   3.930 -0.6396 -0.1697 -0.4676
  109SAPE  H11R11269   4.343   3.278   3.886  0.4821 -0.7265 -1.4244
  109SAPE  C21211270   4.361   3.168   4.063  0.3867 -0.2162  0.0468
  109SAPE  H12R11271   4.417   3.245   4.118  2.5329 -1.8431  0.2882
  109SAPE  C21311272   4.342   3.041   4.140  0.5345 -0.1718 -0.3249
  109SAPE  H13R11273   4.437   2.985   4.127  1.6864  1.9790 -1.8541
  109SAPE  H13S11274   4.265   2.969   4.105 -0.0465 -0.8958  2.2249
  109SAPE  C21411275   4.318   3.086   4.288  0.0694 -0.5468  0.0422
  109SAPE  H14R11276   4.211   3.080   4.313 -0.0571  0.1859 -0.2915
  109SAPE  C21511277   4.413   3.128   4.379 -0.4860 -0.2338 -0.1499
  109SAPE  H15R11278   4.387   3.155   4.482  3.3927  0.6133  0.7703
  109SAPE  C21611279   4.563   3.124   4.359 -0.0012  0.2015  0.2946
  109SAPE  H16R11280   4.607   3.209   4.415 -0.7428  1.9091 -1.6026
  109SAPE  H16S11281   4.591   3.128   4.252 -3.1064 -0.5881 -0.6517
  109SAPE  C21711282   4.617   2.986   4.399  0.0998 -0.0779 -0.0099
  109SAPE  H17R11283   4.720   2.982   4.358  0.4693  1.1316  0.7398
  109SAPE  H17S11284   4.564   2.896   4.363 -0.5811  1.0262 -1.8545
  109SAPE  C21811285   4.643   2.962   4.556 -0.5857 -0.0782  0.1713
  109SAPE  H18R11286   4.681   2.858   4.567  1.4467  0.7488  1.7421
  109SAPE  H18S11287   4.546   2.981   4.607  0.1676  1.5514  1.0753
  109SAPE  C21911288   4.731   3.063   4.627 -0.2434  0.3753  0.2877
  109SAPE  H19R11289   4.748   3.030   4.732 -0.3572 -0.7913 -0.0516
  109SAPE  H19S11290   4.684   3.163   4.640 -2.0681 -0.2801 -0.9235
  109SAPE  C22011291   4.872   3.076   4.558  0.0794 -0.4668  0.2075
  109SAPE  H20R11292   4.944   3.148   4.603  1.6519 -0.9714 -1.3763
  109SAPE  H20S11293   4.854   3.110   4.454 -0.9577 -0.4795  0.3714
  109SAPE  H20T11294   4.923   2.977   4.556  0.1766 -0.4144 -2.0436
  109SAPE   C3311295   4.591   2.804   3.229 -0.1534  0.3101  0.0657
  109SAPE   H3X11296   4.519   2.888   3.220  0.2294  0.7334  0.8799
  109SAPE   H3Y11297   4.684   2.845   3.275 -1.2081  2.0913  0.7169
  109SAPE   C3411298   4.528   2.703   3.321 -0.5716  0.6463 -0.1302
  109SAPE   H4X11299   4.588   2.610   3.323  0.4467  1.2637 -0.9684
  109SAPE   H4Y11300   4.425   2.677   3.289 -0.5280 -0.5047  0.6191
  109SAPE   C3511301   4.526   2.760   3.464 -0.1784  0.0863 -0.5222
  109SAPE   H5X11302   4.463   2.850   3.485 -0.0989 -0.1957  1.0978
  109SAPE   H5Y11303   4.631   2.780   3.493 -0.1637 -0.8761  0.1252
  109SAPE   C3611304   4.480   2.664   3.576  0.4108  0.4092  0.0107
  109SAPE   H6X11305   4.535   2.568   3.570 -0.9275 -0.3722 -0.1235
  109SAPE   H6Y11306   4.375   2.631   3.560  1.2258 -1.0687 -3.2680
  109SAPE   C3711307   4.505   2.722   3.712 -0.5541  0.1651  0.3592
  109SAPE   H7X11308   4.435   2.808   3.722  1.0602  1.7792 -1.3799
  109SAPE   H7Y11309   4.608   2.758   3.734 -0.6729 -0.0122  1.2324
  109SAPE   C3811310   4.476   2.611   3.824  0.6601 -0.9683  0.3227
  109SAPE   H8X11311   4.541   2.523   3.803  0.4620 -0.4868 -2.6554
  109SAPE   H8Y11312   4.370   2.580   3.810 -0.0608  0.4612  2.1941
  109SAPE   C3911313   4.501   2.670   3.965 -0.1498  0.1597 -0.3794
  109SAPE   H9X11314   4.469   2.776   3.974  2.3857  0.9051  0.8994
  109SAPE   H9Y11315   4.612   2.678   3.972 -0.2088 -0.4049  1.9583
  109SAPE  C31011316   4.468   2.578   4.080  0.3737 -0.5079  0.2683
  109SAPE  H10X11317   4.503   2.612   4.180  1.2128  1.2182 -0.5716
  109SAPE  H10Y11318   4.518   2.482   4.056 -0.8627 -0.6030 -2.1962
  109SAPE  C31111319   4.317   2.549   4.095 -0.5476 -0.2216  0.4892
  109SAPE  H11X11320   4.277   2.493   4.007 -0.4510 -2.4058  1.7576
  109SAPE  H11Y11321   4.252   2.636   4.118 -0.6731  0.8342 -3.2044
  109SAPE  C31211322   4.295   2.451   4.210 -0.0029 -0.1984  0.3746
  109SAPE  H12X11323   4.189   2.419   4.206 -0.1593  0.4086 -0.5553
  109SAPE  H12Y11324   4.323   2.505   4.303  1.7394 -0.7959  0.2362
  109SAPE  C31311325   4.372   2.322   4.214  0.6513 -0.4439  0.1101
  109SAPE  H13X11326   4.483   2.334   4.208  0.3232  2.6375 -2.4594
  109SAPE  H13Y11327   4.348   2.256   4.129  1.8600  1.2362 -1.6199
  109SAPE  C31411328   4.342   2.230   4.331  0.0749 -0.7448 -0.1647
  109SAPE  H14X11329   4.378   2.273   4.427  0.4143 -2.8410  0.7006
  109SAPE  H14Y11330   4.393   2.133   4.311 -2.0960 -1.8422 -0.7471
  109SAPE  C31511331   4.197   2.182   4.367  0.1059  0.0880 -0.2020
  109SAPE  H15X11332   4.153   2.133   4.277 -3.2213  0.1586  1.2193
  109SAPE  H15Y11333   4.141   2.278   4.380  0.4465  0.0492  2.0346
  109SAPE  C31611334   4.196   2.102   4.499  0.5092  0.7866 -0.1013
  109SAPE  H16X11335   4.266   2.157   4.566 -1.5066  0.4997  2.3956
  109SAPE  H16Y11336   4.241   2.002   4.480 -1.2465 -0.1202  0.3052
  109SAPE  C31711337   4.059   2.075   4.567 -0.1184 -0.0720  0.2055
  109SAPE  H17X11338   4.007   2.171   4.583 -1.0967 -0.5795  0.1621
  109SAPE  H17Y11339   4.064   2.008   4.656 -1.3334  0.0110  0.3437
  109SAPE  C31811340   3.966   1.998   4.466  0.4664  0.0453  0.2782
  109SAPE  H18X11341   3.874   1.964   4.517 -0.4215  1.6230 -0.2173
  109SAPE  H18Y11342   4.021   1.913   4.419  0.9978  0.8546 -0.6061
  109SAPE  H18Z11343   3.929   2.052   4.376  0.2157  0.5615  0.6883
  110SAPE     N11344   6.579   1.025   2.102  0.4489  0.6070 -0.2608
  110SAPE   HN111345   6.495   1.058   2.050  1.0854 -1.4998 -2.8834
  110SAPE   HN211346   6.672   1.065   2.080  1.2400 -1.5046 -0.9475
  110SAPE   HN311347   6.580   0.922   2.088 -1.7575  0.5254 -0.2227
  110SAPE   C1211348   6.539   1.051   2.239  0.8633  0.6342 -0.5293
  110SAPE  H12A11349   6.622   1.033   2.311 -0.6257  0.1455  1.1470
  110SAPE  H12B11350   6.459   0.982   2.274 -1.1473  2.6606 -0.8856
  110SAPE   C1111351   6.490   1.194   2.253  0.2004 -0.4875  0.2188
  110SAPE  H11A11352   6.581   1.255   2.230  0.0380  0.1158  1.1544
  110SAPE  H11B11353   6.464   1.206   2.360  0.5675 -2.4960  0.5743
  110SAPE     P11354   6.236   1.208   2.197  0.1543 -0.7924 -0.2732
  110SAPE   O1311355   6.182   1.346   2.190 -0.7006  0.2926 -0.3620
  110SAPE   O1411356   6.178   1.105   2.107  0.4941 -0.0701  0.2946
  110SAPE   O1211357   6.387   1.216   2.156 -0.2842  0.3694 -1.0648
  110SAPE   O1111358   6.247   1.156   2.349  0.5654  0.8874 -0.1399
  110SAPE    C111359   6.132   1.114   2.423 -0.2071  0.0690 -0.1810
  110SAPE    HA11360   6.083   1.023   2.383 -1.2970 -0.3673  1.9715
  110SAPE    HB11361   6.170   1.066   2.516 -0.4562  2.3740  1.1929
  110SAPE    C211362   6.037   1.229   2.459 -0.8883  0.2032  0.5043
  110SAPE    HS11363   6.009   1.273   2.361 -2.0122 -0.5523  0.4601
  110SAPE   O2111364   6.105   1.328   2.549 -0.9041  0.4673  0.0550
  110SAPE   C2111365   6.048   1.448   2.544  0.1562 -0.1436  0.1504
  110SAPE   O2211366   5.943   1.466   2.490  0.0555 -0.2503  0.3212
  110SAPE   C2211367   6.134   1.542   2.621  0.6170 -0.7140  0.4764
  110SAPE   H2R11368   6.138   1.507   2.726  0.0143  0.2526  0.8405
  110SAPE   H2S11369   6.237   1.531   2.579  0.1126 -3.2892 -0.2018
  110SAPE    C311370   5.903   1.183   2.529  0.1361 -0.2403 -0.6509
  110SAPE    HX11371   5.841   1.269   2.563 -1.9465 -1.2444 -1.7444
  110SAPE    HY11372   5.848   1.138   2.443 -2.2663 -1.5492  1.4537
  110SAPE   O3111373   5.913   1.086   2.629 -0.1722 -0.1176 -0.4172
  110SAPE   C3111374   5.973   1.128   2.745 -0.8771  0.0829 -0.4422
  110SAPE   O3211375   6.005   1.244   2.773  0.1137  0.6632  0.2371
  110SAPE   C3211376   6.011   1.021   2.843 -0.4318  0.5469 -0.5713
  110SAPE   H2X11377   6.090   0.956   2.799 -1.5434  0.6687 -2.8865
  110SAPE   H2Y11378   5.918   0.965   2.863 -0.8936  1.5174  0.0799
  110SAPE   C2311379   6.078   1.686   2.627 -0.2154 -0.1902  0.0570
  110SAPE   H3R11380   5.968   1.684   2.644  0.1236 -3.0915  3.0368
  110SAPE   H3S11381   6.096   1.735   2.529  0.4259 -2.6024 -1.0982
  110SAPE   C2411382   6.141   1.776   2.739  0.1230  0.5013 -0.4805
  110SAPE   H4R11383   6.128   1.885   2.722 -2.1142  0.4377  0.4338
  110SAPE   H4S11384   6.248   1.747   2.743  0.4572  1.7349 -0.0276
  110SAPE   C2511385   6.084   1.748   2.871  0.2066  0.0008  0.1177
  110SAPE   H5R11386   5.980   1.715   2.886  0.6373 -0.6889  1.8532
  110SAPE   C2611387   6.154   1.740   2.986  0.9717 -0.5096 -0.0616
  110SAPE   H6R11388   6.091   1.711   3.072  1.4729 -1.4705  0.0039
  110SAPE   C2711389   6.288   1.791   3.016  0.3544  0.1788  0.0894
  110SAPE   H7R11390   6.307   1.790   3.125  0.8414 -1.7628  0.0261
  110SAPE   H7S11391   6.302   1.895   2.979  2.5657  0.6091  1.9258
  110SAPE   C2811392   6.403   1.708   2.961 -0.3889  0.1878 -0.7586
  110SAPE   H8R11393   6.442   1.730   2.860  1.8869 -0.3190 -0.0672
  110SAPE   C2911394   6.463   1.606   3.025 -0.1922  0.1280  0.0464
  110SAPE   H9R11395   6.532   1.554   2.955 -1.9856 -0.4703 -1.3538
  110SAPE  C21011396   6.443   1.571   3.171 -0.0145  0.2655 -0.0116
  110SAPE  H10R11397   6.434   1.666   3.229 -0.5408  0.0768  0.2165
  110SAPE  H10S11398   6.539   1.521   3.200  2.0055  3.1644 -1.2080
  110SAPE  C21111399   6.335   1.470   3.205  0.4243  0.6517  0.7636
  110SAPE  H11R11400   6.264   1.441   3.126  0.6058  1.2746  0.3666
  110SAPE  C21211401   6.308   1.411   3.325 -0.0046 -0.5165  0.8468
  110SAPE  H12R11402   6.228   1.339   3.344 -0.3133 -0.2313  0.6543
  110SAPE  C21311403   6.386   1.447   3.444  0.4420 -0.1168 -0.0461
  110SAPE  H13R11404   6.481   1.495   3.412  0.1949  0.7349  0.4676
  110SAPE  H13S11405   6.423   1.358   3.499  0.4120  0.7500  1.4428
  110SAPE  C21411406   6.315   1.546   3.535 -0.6856  0.0781  0.8940
  110SAPE  H14R11407   6.331   1.653   3.516 -0.6062  0.0692  0.9081
  110SAPE  C21511408   6.226   1.507   3.627 -0.1444 -0.2982  0.9607
  110SAPE  H15R11409   6.176   1.580   3.691 -0.2460  1.1257 -0.6869
  110SAPE  C21611410   6.177   1.365   3.661  0.3207 -0.5581 -0.0097
  110SAPE  H16R11411   6.258   1.291   3.642  0.4422  0.0478 -2.2052
  110SAPE  H16S11412   6.095   1.333   3.593 -2.0867  1.5863  1.6975
  110SAPE  C21711413   6.137   1.346   3.811  0.3706 -0.0901  0.0453
  110SAPE  H17R11414   6.100   1.242   3.822  0.3622 -0.3393 -2.0721
  110SAPE  H17S11415   6.051   1.413   3.831  0.0895 -1.1296  2.8164
  110SAPE  C21811416   6.243   1.389   3.910  0.2017 -0.1959  0.7537
  110SAPE  H18R11417   6.238   1.499   3.899 -1.1528 -0.4032 -1.0091
  110SAPE  H18S11418   6.344   1.361   3.872  0.7276  2.2811  0.2182
  110SAPE  C21911419   6.213   1.367   4.060  0.4201  0.7437 -0.0552
  110SAPE  H19R11420   6.308   1.360   4.117  1.2657  0.5050 -1.4466
  110SAPE  H19S11421   6.176   1.262   4.065  0.8101  0.6007 -0.1329
  110SAPE  C22011422   6.107   1.455   4.116 -0.3450 -0.1686 -0.4895
  110SAPE  H20R11423   6.051   1.418   4.205  0.9355  0.3088  0.5467
  110SAPE  H20S11424   6.021   1.480   4.050  0.3953 -0.5645 -1.6172
  110SAPE  H20T11425   6.150   1.553   4.144 -2.2333  0.8318 -0.9503
  110SAPE   C3311426   6.049   1.086   2.982  0.1444  0.3583  0.8841
  110SAPE   H3X11427   5.981   1.173   2.994 -1.3444 -0.3800 -1.4889
  110SAPE   H3Y11428   6.155   1.118   2.982 -0.2707  2.0057 -1.7043
  110SAPE   C3411429   6.031   0.986   3.099  0.0801 -0.1763  0.1985
  110SAPE   H4X11430   6.105   0.905   3.087 -1.9534 -2.1397  0.2673
  110SAPE   H4Y11431   5.933   0.933   3.098 -0.0942  0.1472 -0.3480
  110SAPE   C3511432   6.044   1.052   3.234  0.5060  0.3002 -0.2809
  110SAPE   H5X11433   5.960   1.123   3.248  0.3531  0.6642 -2.6941
  110SAPE   H5Y11434   6.135   1.115   3.224  1.0302 -0.3910  0.0107
  110SAPE   C3611435   6.088   0.949   3.345  0.3197 -0.4312  0.5092
  110SAPE   H6X11436   6.182   0.896   3.317 -0.7281 -1.2336 -1.7435
  110SAPE   H6Y11437   5.993   0.894   3.363 -0.6675  0.6523 -1.1277
  110SAPE   C3711438   6.118   1.019   3.485  0.0072 -0.1940  0.0913
  110SAPE   H7X11439   6.025   1.064   3.527 -0.5017 -1.5202  0.4461
  110SAPE   H7Y11440   6.202   1.091   3.475 -1.4327  1.7010  0.8749
  110SAPE   C3811441   6.166   0.922   3.600  0.1764 -0.6876  0.0711
  110SAPE   H8X11442   6.275   0.900   3.592  0.4257  0.9985 -1.9536
  110SAPE   H8Y11443   6.115   0.828   3.569  1.5559 -1.1462 -0.9003
  110SAPE   C3911444   6.125   0.961   3.742 -0.0024  0.6296  1.0212
  110SAPE   H9X11445   6.017   0.985   3.729  0.1929  0.3722 -1.5777
  110SAPE   H9Y11446   6.178   1.057   3.758  0.3724  0.0816  3.5893
  110SAPE  C31011447   6.166   0.865   3.856 -0.0653 -1.3007 -0.3956
  110SAPE  H10X11448   6.277   0.866   3.859 -0.0514 -0.0343 -0.4244
  110SAPE  H10Y11449   6.123   0.765   3.836 -2.9865 -0.1614 -0.4084
  110SAPE  C31111450   6.104   0.925   3.985  0.1535  0.2185 -0.3009
  110SAPE  H11X11451   5.997   0.956   3.982 -0.2268 -0.7882  1.5551
  110SAPE  H11Y11452   6.167   1.016   3.997  0.5176 -0.3722  3.5456
  110SAPE  C31211453   6.125   0.843   4.113 -0.4362  0.6115  0.4911
  110SAPE  H12X11454   6.230   0.827   4.145  0.5838  0.3359 -2.6684
  110SAPE  H12Y11455   6.090   0.739   4.091 -1.8168  0.7768  1.7702
  110SAPE  C31311456   6.042   0.891   4.236  0.1403 -0.2687 -0.6369
  110SAPE  H13X11457   5.938   0.902   4.196  0.6287  1.2094 -1.5828
  110SAPE  H13Y11458   6.070   0.998   4.243 -2.7176  0.6076 -1.1040
  110SAPE  C31411459   6.049   0.803   4.360  0.1025  0.7479  0.1334
  110SAPE  H14X11460   6.047   0.697   4.326 -0.2158  1.0885 -0.9635
  110SAPE  H14Y11461   5.956   0.821   4.418 -0.6530 -2.1225 -0.0502
  110SAPE  C31511462   6.171   0.829   4.444  0.1049  0.2329  0.7054
  110SAPE  H15X11463   6.176   0.930   4.490  1.0411  0.6624 -0.2897
  110SAPE  H15Y11464   6.251   0.821   4.367 -2.4878 -0.6692 -2.0979
  110SAPE  C31611465   6.200   0.722   4.550 -0.3231  0.6167  0.0968
  110SAPE  H16X11466   6.290   0.743   4.612 -0.6586  0.2021  0.7368
  110SAPE  H16Y11467   6.219   0.625   4.500 -3.4693 -0.2052  0.3213
  110SAPE  C31711468   6.085   0.702   4.656  0.4201 -0.2885 -0.0815
  110SAPE  H17X11469   5.988   0.694   4.603 -0.8222  0.8346  1.8750
  110SAPE  H17Y11470   6.083   0.797   4.714  0.6797 -0.1778 -0.2541
  110SAPE  C31811471   6.108   0.590   4.756  0.0294  0.5064  0.3923
  110SAPE  H18X11472   6.048   0.600   4.849 -3.1007 -1.8646 -1.1914
  110SAPE  H18Y11473   6.215   0.586   4.786  0.3192 -4.1566 -0.5863
  110SAPE  H18Z11474   6.093   0.494   4.703 -2.2550  0.0606  1.7356
  111SAPE     N11475   5.026   0.929   2.145  0.2066  0.4996 -0.4536
  111SAPE   HN111476   5.004   0.834   2.108 -1.6845  0.6925  0.1113
  111SAPE   HN211477   4.939   0.974   2.180 -1.2921 -1.1493 -1.8566
  111SAPE   HN311478   5.047   0.988   2.062 -3.0619  0.5922 -1.3267
  111SAPE   C1211479   5.141   0.936   2.243  0.1200 -0.3958  0.3398
  111SAPE  H12A11480   5.109   0.875   2.330 -0.6756  1.8101  1.6899
  111SAPE  H12B11481   5.124   1.040   2.280 -0.3782 -0.7455  1.1262
  111SAPE   C1111482   5.282   0.906   2.182 -0.2318 -0.1557 -0.3256
  111SAPE  H11A11483   5.282   0.804   2.136 -0.7635  0.5811 -2.0560
  111SAPE  H11B11484   5.353   0.900   2.266  0.0029 -0.2334 -0.5280
  111SAPE     P11485   5.379   1.149   2.120  0.4769 -0.1331  0.3719
  111SAPE   O1311486   5.504   1.178   2.043  0.2586 -0.4768  0.2913
  111SAPE   O1411487   5.260   1.238   2.106  0.2697  0.3072  0.0853
  111SAPE   O1211488   5.325   1.002   2.086  0.0386  0.0989  0.2007
  111SAPE   O1111489   5.424   1.154   2.272  0.0591  0.2800  0.1546
  111SAPE    C111490   5.461   1.278   2.335  0.6746 -0.0736  0.7254
  111SAPE    HA11491   5.557   1.312   2.292  0.4072  0.0376  0.2010
  111SAPE    HB11492   5.381   1.353   2.319  2.2781  1.5612  0.0655
  111SAPE    C211493   5.472   1.256   2.492  0.9154  0.3728  0.0758
  111SAPE    HS11494   5.368   1.263   2.529  0.3971 -1.0275 -1.0526
  111SAPE   O2111495   5.563   1.347   2.547  0.4713 -0.2402  0.3368
  111SAPE   C2111496   5.513   1.452   2.607 -0.3159  0.6139 -0.1077
  111SAPE   O2211497   5.395   1.482   2.616 -0.3869 -1.0819 -0.2107
  111SAPE   C2211498   5.637   1.546   2.640  0.0561 -0.4167  0.5079
  111SAPE   H2R11499   5.723   1.477   2.625 -0.2178 -0.8572  0.9061
  111SAPE   H2S11500   5.645   1.623   2.560  0.2439  0.2200  1.1252
  111SAPE    C311501   5.526   1.112   2.537 -0.3586 -0.0584 -1.0244
  111SAPE    HX11502   5.629   1.102   2.494  0.3071 -1.9090  0.8502
  111SAPE    HY11503   5.466   1.031   2.491  0.3241 -1.8703  1.1106
  111SAPE   O3111504   5.526   1.103   2.685 -0.3830 -0.9046 -0.6691
  111SAPE   C3111505   5.416   1.058   2.741 -0.1701  0.3912  0.5344
  111SAPE   O3211506   5.326   1.004   2.680  0.5737  0.0675  0.4644
  111SAPE   C3211507   5.431   1.089   2.894 -0.2605  0.1651  0.0970
  111SAPE   H2X11508   5.329   1.089   2.938 -0.5106  1.3604 -0.4479
  111SAPE   H2Y11509   5.472   1.192   2.905  1.0306 -0.4023  0.8137
  111SAPE   C2311510   5.623   1.606   2.783  0.1558  0.7422 -0.0126
  111SAPE   H3R11511   5.523   1.656   2.789 -0.9517 -1.2517 -0.8656
  111SAPE   H3S11512   5.701   1.683   2.797 -0.2996  0.9548  1.5960
  111SAPE   C2411513   5.627   1.511   2.908 -0.0124 -0.0662  0.8536
  111SAPE   H4R11514   5.536   1.448   2.898 -0.9959  1.5477 -1.0399
  111SAPE   H4S11515   5.608   1.579   2.993 -3.3414  1.2065 -0.7149
  111SAPE   C2511516   5.742   1.420   2.922 -0.3625 -0.5709  0.0650
  111SAPE   H5R11517   5.746   1.344   2.843 -0.7991 -2.3608  1.7011
  111SAPE   C2611518   5.832   1.430   3.020 -1.1733 -0.1613 -0.1217
  111SAPE   H6R11519   5.920   1.365   3.028  0.0147  1.2252 -1.3590
  111SAPE   C2711520   5.833   1.528   3.131 -0.1583 -0.4933 -0.2359
  111SAPE   H7R11521   5.739   1.528   3.190  0.3847  0.4518  0.6611
  111SAPE   H7S11522   5.829   1.634   3.098 -2.0336 -0.4463  0.0849
  111SAPE   C2811523   5.951   1.521   3.228  0.2832 -0.5315  0.5252
  111SAPE   H8R11524   6.036   1.481   3.171 -0.4524  0.5030 -1.4230
  111SAPE   C2911525   5.953   1.544   3.360 -0.0314  0.0745  0.6362
  111SAPE   H9R11526   6.053   1.545   3.406 -0.2844 -0.1534  1.2032
  111SAPE  C21011527   5.835   1.591   3.443  0.4678  0.5049 -0.3101
  111SAPE  H10R11528   5.735   1.573   3.399 -0.2463  1.7393  0.7449
  111SAPE  H10S11529   5.836   1.702   3.454 -1.2354  0.6005 -0.8932
  111SAPE  C21111530   5.825   1.516   3.572 -0.7524  0.3126 -0.1042
  111SAPE  H11R11531   5.794   1.412   3.552  2.3617 -0.4681 -1.4628
  111SAPE  C21211532   5.824   1.567   3.692 -0.0989  0.2536 -0.1117
  111SAPE  H12R11533   5.812   1.498   3.776 -0.5408 -1.0008 -1.1743
  111SAPE  C21311534   5.844   1.717   3.726  0.0054  0.4414  0.0084
  111SAPE  H13R11535   5.754   1.775   3.696 -1.1771 -0.2942  1.9417
  111SAPE  H13S11536   5.926   1.757   3.663  0.1315 -0.2451 -0.2631
  111SAPE  C21411537   5.857   1.753   3.873 -0.0397 -0.6888  0.2763
  111SAPE  H14R11538   5.790   1.702   3.943  1.7961 -3.3316  0.2619
  111SAPE  C21511539   5.943   1.848   3.915  0.7029 -0.5524 -0.5737
  111SAPE  H15R11540   5.926   1.878   4.020  1.7112 -2.4586  0.1771
  111SAPE  C21611541   6.043   1.929   3.834  0.0668 -0.1974 -0.0431
  111SAPE  H16R11542   6.021   2.038   3.840 -2.4239 -0.6526  0.1135
  111SAPE  H16S11543   6.025   1.930   3.724  1.1472 -0.7144 -0.2425
  111SAPE  C21711544   6.188   1.903   3.881  0.3383  0.0591  0.2711
  111SAPE  H17R11545   6.201   1.795   3.861  0.4691  0.1667 -0.2425
  111SAPE  H17S11546   6.191   1.927   3.989 -1.1511  0.8812  0.1582
  111SAPE  C21811547   6.300   1.978   3.815  0.1624  0.3310  0.3564
  111SAPE  H18R11548   6.309   1.937   3.713  0.8288  0.0082  0.5388
  111SAPE  H18S11549   6.391   1.944   3.868 -0.9233 -2.2805  0.7146
  111SAPE  C21911550   6.290   2.136   3.820 -0.1107  0.5499  1.2229
  111SAPE  H19R11551   6.193   2.170   3.778  0.7031  1.9581  0.4042
  111SAPE  H19S11552   6.362   2.174   3.745 -1.0940  0.4793  0.2077
  111SAPE  C22011553   6.310   2.186   3.965  0.4143 -0.3934  0.3968
  111SAPE  H20R11554   6.395   2.142   4.021  0.5304 -1.4111 -0.5313
  111SAPE  H20S11555   6.222   2.149   4.022 -0.9570  0.5769 -0.9833
  111SAPE  H20T11556   6.319   2.297   3.965  0.7506 -0.3950 -0.8349
  111SAPE   C3311557   5.514   0.990   2.976 -0.6526 -0.8470 -0.2988
  111SAPE   H3X11558   5.609   0.980   2.920 -0.5509 -0.2903 -0.2372
  111SAPE   H3Y11559   5.459   0.893   2.978 -1.4553 -0.4002 -0.1947
  111SAPE   C3411560   5.538   1.041   3.120  0.3511 -0.4252 -0.2177
  111SAPE   H4X11561   5.435   1.049   3.160  1.5497  2.0054  2.7854
  111SAPE   H4Y11562   5.576   1.145   3.114 -3.0590  0.8898 -1.3738
  111SAPE   C3511563   5.630   0.960   3.204  0.2864  0.0948  0.0321
  111SAPE   H5X11564   5.717   0.927   3.143 -1.5836 -1.6110 -1.8788
  111SAPE   H5Y11565   5.570   0.872   3.237 -2.8708  1.9308 -0.4010
  111SAPE   C3611566   5.683   1.041   3.332 -0.3684  0.1480 -0.1817
  111SAPE   H6X11567   5.701   1.149   3.314  0.6412  0.3996  2.0870
  111SAPE   H6Y11568   5.774   0.989   3.371 -1.7690 -1.2270  1.3847
  111SAPE   C3711569   5.588   1.032   3.451 -0.1595 -0.0601 -0.8099
  111SAPE   H7X11570   5.585   0.926   3.485  1.2873  0.4444  1.0665
  111SAPE   H7Y11571   5.488   1.070   3.421 -0.6820 -0.8193 -0.0767
  111SAPE   C3811572   5.625   1.122   3.571  0.3367 -0.1177  0.0954
  111SAPE   H8X11573   5.539   1.125   3.641  0.3283  0.7650  0.0539
  111SAPE   H8Y11574   5.628   1.227   3.534 -0.1943  0.5034  1.7470
  111SAPE   C3911575   5.750   1.095   3.652 -0.3968 -0.2764 -0.7965
  111SAPE   H9X11576   5.837   1.107   3.584  1.2816 -0.3715  1.2131
  111SAPE   H9Y11577   5.749   0.986   3.671 -0.5797 -0.2690 -0.7625
  111SAPE  C31011578   5.785   1.193   3.769 -0.1144 -0.1768  0.1479
  111SAPE  H10X11579   5.762   1.299   3.744 -2.5175 -0.4562  0.9298
  111SAPE  H10Y11580   5.892   1.181   3.794 -0.0440  2.9661  1.8862
  111SAPE  C31111581   5.720   1.156   3.908  0.6291 -0.1471 -0.8522
  111SAPE  H11X11582   5.736   1.048   3.926 -3.5297 -0.5130  2.0103
  111SAPE  H11Y11583   5.612   1.182   3.910  0.7542  0.4955 -1.5599
  111SAPE  C31211584   5.790   1.217   4.030 -0.1411  0.3455  0.3080
  111SAPE  H12X11585   5.769   1.326   4.029 -2.5930 -0.0625 -0.1585
  111SAPE  H12Y11586   5.900   1.212   4.018 -0.2107 -0.8161  0.0205
  111SAPE  C31311587   5.745   1.171   4.166  0.4450  0.2081  0.1601
  111SAPE  H13X11588   5.765   1.062   4.175  1.7607  0.4215  0.0774
  111SAPE  H13Y11589   5.636   1.192   4.164  0.7642  2.1900  1.2599
  111SAPE  C31411590   5.821   1.241   4.277  0.0303  0.2105  0.0774
  111SAPE  H14X11591   5.843   1.341   4.234  0.5038 -0.5013 -1.4207
  111SAPE  H14Y11592   5.919   1.194   4.299 -0.3957 -1.0097 -0.5151
  111SAPE  C31511593   5.738   1.264   4.403  0.3380  0.7212 -0.0944
  111SAPE  H15X11594   5.627   1.270   4.401  0.1356 -0.4028  2.5076
  111SAPE  H15Y11595   5.785   1.358   4.439  1.9524 -0.2185  0.3538
  111SAPE  C31611596   5.756   1.163   4.514  0.3695 -0.0460 -0.4167
  111SAPE  H16X11597   5.720   1.215   4.606  1.1232 -0.6628  0.2429
  111SAPE  H16Y11598   5.863   1.135   4.527  1.0337  1.8811 -1.3352
  111SAPE  C31711599   5.679   1.034   4.483 -0.3146 -0.0550  0.2635
  111SAPE  H17X11600   5.706   0.995   4.383  1.5909  0.1907  0.6480
  111SAPE  H17Y11601   5.569   1.048   4.486 -0.1573  1.6207 -0.4900
  111SAPE  C31811602   5.706   0.920   4.584 -0.1219 -0.2703  0.5439
  111SAPE  H18X11603   5.814   0.898   4.572  0.0385  0.2488  0.9443
  111SAPE  H18Y11604   5.656   0.824   4.561  1.1380 -0.6440 -0.7082
  111SAPE  H18Z11605   5.690   0.962   4.687 -1.0918  2.3478 -0.5697
  112SAPE     N11606   3.716   1.513   2.057 -0.1634  0.0057  0.4949
  112SAPE   HN111607   3.675   1.432   2.108 -2.2302  1.2804  1.0194
  112SAPE   HN211608   3.758   1.476   1.970 -0.8805 -0.6544  0.4180
  112SAPE   HN311609   3.798   1.551   2.109  1.2395 -2.4875  0.2480
  112SAPE   C1211610   3.597   1.615   2.039  0.0825  0.0662  0.6732
  112SAPE  H12A11611   3.534   1.586   1.952  1.3281  1.7910 -0.8928
  112SAPE  H12B11612   3.642   1.715   2.022  1.3282 -0.7705 -1.4268
  112SAPE   C1111613   3.505   1.621   2.160 -0.1344  0.1036  0.0319
  112SAPE  H11A11614   3.460   1.722   2.148  0.3479  0.1109 -2.1688
  112SAPE  H11B11615   3.572   1.627   2.248  1.6388  0.3791 -1.2874
  112SAPE     P11616   3.440   1.386   2.246 -0.0618 -0.1878  0.0604
  112SAPE   O1311617   3.341   1.286   2.225  0.5656  0.2079 -0.3660
  112SAPE   O1411618   3.580   1.347   2.216  0.4239 -0.1854 -0.3846
  112SAPE   O1211619   3.399   1.521   2.166 -0.3796 -0.2810  0.6516
  112SAPE   O1111620   3.429   1.431   2.399  0.4862 -0.1921  0.1586
  112SAPE    C111621   3.336   1.525   2.450  0.4562 -0.1985  0.4642
  112SAPE    HA11622   3.394   1.619   2.456  0.3280  0.2029 -2.7883
  112SAPE    HB11623   3.261   1.555   2.373  1.6678  2.0184  0.0706
  112SAPE    C211624   3.256   1.494   2.576 -0.5754  0.2431 -0.5133
  112SAPE    HS11625   3.204   1.579   2.624  0.5772  0.1516  0.9550
  112SAPE   O2111626   3.337   1.431   2.672 -0.6714  0.5328 -0.2301
  112SAPE   C2111627   3.418   1.513   2.740  0.2735  0.1962  0.7142
  112SAPE   O2211628   3.413   1.636   2.733 -0.1691 -0.2504 -0.3266
  112SAPE   C2211629   3.514   1.441   2.839  0.2026  0.2354  0.0712
  112SAPE   H2R11630   3.467   1.455   2.938 -1.8911 -2.5302 -0.4171
  112SAPE   H2S11631   3.516   1.332   2.819 -1.7923  0.1844 -0.0137
  112SAPE    C311632   3.145   1.391   2.538 -0.3770 -0.5723 -0.1249
  112SAPE    HX11633   3.203   1.313   2.483  0.7935 -0.3553  0.7695
  112SAPE    HY11634   3.073   1.430   2.462 -0.3348 -1.7577 -0.8124
  112SAPE   O3111635   3.078   1.331   2.648 -0.0123 -0.4001 -0.4940
  112SAPE   C3111636   2.964   1.380   2.687  0.1091 -0.2479  0.0448
  112SAPE   O3211637   2.898   1.454   2.617  0.2885 -0.0535 -0.7186
  112SAPE   C3211638   2.924   1.340   2.829 -0.6816 -0.3402 -0.6587
  112SAPE   H2X11639   3.002   1.270   2.868  0.9103 -0.0077 -3.0813
  112SAPE   H2Y11640   2.825   1.289   2.822 -0.9689 -0.0899  0.9773
  112SAPE   C2311641   3.658   1.489   2.850 -0.6531 -0.0664 -0.1337
  112SAPE   H3R11642   3.683   1.545   2.757  1.3203 -1.0617 -0.2420
  112SAPE   H3S11643   3.724   1.400   2.843 -0.1879  0.3149 -0.6827
  112SAPE   C2411644   3.696   1.551   2.987 -0.8144  0.3804  0.7527
  112SAPE   H4R11645   3.806   1.563   2.985 -0.6875 -0.7800 -0.7924
  112SAPE   H4S11646   3.670   1.477   3.064 -1.5187  0.8648  0.9926
  112SAPE   C2511647   3.630   1.685   3.013  0.7969  0.1215  0.0588
  112SAPE   H5R11648   3.639   1.759   2.932 -0.6863 -2.9295 -3.1699
  112SAPE   C2611649   3.536   1.705   3.109  0.1978 -0.1975 -0.5385
  112SAPE   H6R11650   3.513   1.810   3.132  1.5069 -0.0803  0.3630
  112SAPE   C2711651   3.496   1.604   3.220  0.1250  0.4327  0.2999
  112SAPE   H7R11652   3.502   1.500   3.184 -1.8688  0.1699  0.6379
  112SAPE   H7S11653   3.386   1.604   3.232 -0.0194 -0.5065 -0.8823
  112SAPE   C2811654   3.568   1.620   3.352 -0.5258 -0.1489  0.0204
  112SAPE   H8R11655   3.651   1.692   3.351 -0.4784 -0.1846 -1.7664
  112SAPE   C2911656   3.541   1.552   3.459  0.6764 -0.4154  0.1407
  112SAPE   H9R11657   3.595   1.576   3.551  1.7964  1.6336 -0.9590
  112SAPE  C21011658   3.439   1.438   3.464  0.1451 -0.3174  0.4379
  112SAPE  H10R11659   3.361   1.430   3.385  0.7405  1.4061 -0.3825
  112SAPE  H10S11660   3.391   1.456   3.562 -1.3856 -0.4689 -0.2596
  112SAPE  C21111661   3.510   1.306   3.469 -0.1289 -0.7662  0.0713
  112SAPE  H11R11662   3.616   1.289   3.443 -0.4023 -2.1022 -0.2818
  112SAPE  C21211663   3.436   1.198   3.503 -0.2447  0.1349  0.3378
  112SAPE  H12R11664   3.494   1.109   3.532  0.0270  1.0117  2.7098
  112SAPE  C21311665   3.293   1.186   3.530  0.0206 -0.0937 -0.0860
  112SAPE  H13R11666   3.238   1.278   3.501  2.2562  1.0605 -0.9363
  112SAPE  H13S11667   3.283   1.162   3.638 -2.5897 -0.1666 -0.2892
  112SAPE  C21411668   3.246   1.074   3.449 -0.0320  0.6203 -0.2633
  112SAPE  H14R11669   3.225   0.988   3.513 -1.0200  1.6162  0.7914
  112SAPE  C21511670   3.228   1.066   3.314  0.6961  0.2326  0.3378
  112SAPE  H15R11671   3.188   0.976   3.264  1.3379  0.4222 -0.5348
  112SAPE  C21611672   3.237   1.190   3.231 -0.3026 -0.5190 -0.0881
  112SAPE  H16R11673   3.222   1.288   3.282 -0.1720 -0.6046  0.1157
  112SAPE  H16S11674   3.155   1.179   3.158 -1.7777  1.6393  1.1495
  112SAPE  C21711675   3.364   1.200   3.145  0.3795  0.0846  0.6383
  112SAPE  H17R11676   3.455   1.199   3.208  1.1897  1.2803 -0.4616
  112SAPE  H17S11677   3.352   1.299   3.095 -1.1144 -0.6415 -0.5376
  112SAPE  C21811678   3.378   1.094   3.028 -0.1014 -0.2508 -0.2253
  112SAPE  H18R11679   3.374   0.991   3.068 -0.0706  0.3576  1.4069
  112SAPE  H18S11680   3.481   1.101   2.986  1.0141  2.2909  2.5465
  112SAPE  C21911681   3.283   1.116   2.907 -0.8335 -0.4135  0.0715
  112SAPE  H19R11682   3.283   1.220   2.869  0.4153 -0.5323 -0.2777
  112SAPE  H19S11683   3.177   1.102   2.939 -1.7832  0.0748 -2.5673
  112SAPE  C22011684   3.325   1.022   2.795 -0.3491 -0.1886  0.4940
  112SAPE  H20R11685   3.312   0.916   2.825  2.2289 -1.3160 -1.9166
  112SAPE  H20S11686   3.431   1.038   2.768 -0.1028  1.1687  2.0634
  112SAPE  H20T11687   3.263   1.037   2.704 -2.9872  4.0814  2.6547
  112SAPE   C3311688   2.910   1.466   2.920  0.2739  0.0676  0.3500
  112SAPE   H3X11689   2.824   1.531   2.895 -0.3069 -1.3246 -1.5564
  112SAPE   H3Y11690   2.997   1.533   2.906 -0.7835  1.3161 -0.5048
  112SAPE   C3411691   2.909   1.424   3.069  0.2060  0.2704 -0.1533
  112SAPE   H4X11692   3.003   1.373   3.097 -1.0656 -0.5873  3.0216
  112SAPE   H4Y11693   2.824   1.357   3.094  0.6363 -0.3151 -0.2335
  112SAPE   C3511694   2.899   1.551   3.160 -0.4486 -0.4658 -0.1394
  112SAPE   H5X11695   2.796   1.591   3.148  0.5616  2.2801 -0.2859
  112SAPE   H5Y11696   2.958   1.636   3.118 -3.3243  0.6945 -2.1242
  112SAPE   C3611697   2.941   1.524   3.303 -0.4818  0.3797  0.2721
  112SAPE   H6X11698   2.989   1.610   3.355  0.2914  0.0623  0.1048
  112SAPE   H6Y11699   3.008   1.435   3.295 -0.8713  0.1715 -0.8869
  112SAPE   C3711700   2.821   1.495   3.393 -0.2709 -0.3593 -0.1440
  112SAPE   H7X11701   2.784   1.397   3.357 -0.9883  0.6783 -2.4278
  112SAPE   H7Y11702   2.736   1.565   3.374  1.4416  1.7993 -0.2495
  112SAPE   C3811703   2.866   1.491   3.539  1.0585  0.9233  0.2739
  112SAPE   H8X11704   2.948   1.563   3.557  2.2453 -0.3105 -0.0218
  112SAPE   H8Y11705   2.903   1.388   3.562 -0.9181 -0.4844 -2.2427
  112SAPE   C3911706   2.750   1.522   3.637 -0.4794 -0.2184  0.0150
  112SAPE   H9X11707   2.766   1.476   3.736 -1.6650 -1.0716 -0.1712
  112SAPE   H9Y11708   2.663   1.468   3.594 -0.5055  0.2029 -0.4800
  112SAPE  C31011709   2.717   1.674   3.657 -0.2588  1.0169  0.7539
  112SAPE  H10X11710   2.712   1.711   3.552 -1.4225  3.1236  1.5050
  112SAPE  H10Y11711   2.801   1.719   3.713  0.6260 -0.0197  0.2945
  112SAPE  C31111712   2.580   1.680   3.725 -0.3978 -0.1091  0.2923
  112SAPE  H11X11713   2.577   1.627   3.823  1.3381  2.0716  1.6141
  112SAPE  H11Y11714   2.522   1.618   3.653  2.7695 -2.7145 -0.3051
  112SAPE  C31211715   2.517   1.813   3.733 -0.6872 -0.1015 -0.2822
  112SAPE  H12X11716   2.512   1.830   3.623 -3.7499 -0.5124 -0.2856
  112SAPE  H12Y11717   2.569   1.901   3.777 -0.8070 -0.9975  1.7550
  112SAPE  C31311718   2.377   1.808   3.785 -0.1319  0.0946 -0.1773
  112SAPE  H13X11719   2.323   1.721   3.741  2.4240 -1.2492 -0.8436
  112SAPE  H13Y11720   2.323   1.900   3.753 -1.5732 -0.4464  0.5975
  112SAPE  C31411721   2.370   1.810   3.938 -0.1307 -0.5296  0.2974
  112SAPE  H14X11722   2.462   1.863   3.970 -0.9276  0.6243  0.7892
  112SAPE  H14Y11723   2.372   1.708   3.981  1.1023 -1.0135 -0.8616
  112SAPE  C31511724   2.246   1.884   3.998  0.3427  0.2268  0.7688
  112SAPE  H15X11725   2.164   1.809   3.995 -0.0212  0.6098  0.9728
  112SAPE  H15Y11726   2.227   1.974   3.935  0.4357  0.4151  1.0087
  112SAPE  C31611727   2.275   1.928   4.138 -0.0278  0.0532  0.1919
  112SAPE  H16X11728   2.180   1.966   4.180 -0.4577  0.8898 -1.4296
  112SAPE  H16Y11729   2.340   2.017   4.124  0.7438 -0.4954  0.1990
  112SAPE  C31711730   2.319   1.819   4.239 -0.2855  0.7342 -0.6360
  112SAPE  H17X11731   2.334   1.872   4.335 -0.4695  0.3177 -0.3721
  112SAPE  H17Y11732   2.419   1.785   4.205 -0.0281  1.6688 -0.8215
  112SAPE  C31811733   2.224   1.696   4.253 -0.1980 -0.3149 -0.3750
  112SAPE  H18X11734   2.134   1.737   4.301 -0.7616 -0.0909 -1.5863
  112SAPE  H18Y11735   2.263   1.634   4.337 -1.0294  0.5148  0.6517
  112SAPE  H18Z11736   2.213   1.646   4.154  1.8730  3.0668 -2.5437
  113SAPE     N11737   0.734   2.228   1.853  0.0146 -0.1709  0.5317
  113SAPE   HN111738   0.759   2.132   1.821 -1.9552 -0.5481  0.0357
  113SAPE   HN211739   0.674   2.216   1.937 -0.7119  1.1242  0.2184
  113SAPE   HN311740   0.678   2.280   1.784  0.6201 -0.3787 -0.1292
  113SAPE   C1211741   0.854   2.305   1.884 -0.0912 -0.1458 -0.0281
  113SAPE  H12A11742   0.890   2.359   1.794  1.9835 -0.2383  0.6916
  113SAPE  H12B11743   0.937   2.240   1.919  1.0922  0.6274 -1.2947
  113SAPE   C1111744   0.830   2.415   1.992  0.0893 -0.5591  0.3311
  113SAPE  H11A11745   0.821   2.376   2.096 -0.7632  2.3587  1.4317
  113SAPE  H11B11746   0.738   2.468   1.960 -0.6798 -1.8275  0.3563
  113SAPE     P11747   0.929   2.655   2.004  0.1904  0.0066 -0.0793
  113SAPE   O1311748   1.036   2.715   1.917 -0.0335  0.1772 -0.5293
  113SAPE   O1411749   0.791   2.700   1.975 -0.2479  0.6300  0.1010
  113SAPE   O1211750   0.947   2.499   2.000  0.7102  0.2640 -0.0252
  113SAPE   O1111751   0.970   2.666   2.155  0.0700 -0.1692 -0.4510
  113SAPE    C111752   1.098   2.616   2.204  1.2685  0.6733  0.1615
  113SAPE    HA11753   1.171   2.608   2.121  0.8654  0.0886 -0.1442
  113SAPE    HB11754   1.136   2.694   2.274  0.1818  1.6264 -0.2934
  113SAPE    C211755   1.084   2.493   2.286 -0.2972  0.4952 -0.2749
  113SAPE    HS11756   1.051   2.407   2.224  0.4911 -1.6884  2.1470
  113SAPE   O2111757   0.991   2.530   2.389  0.7402  0.2588  0.1104
  113SAPE   C2111758   0.916   2.437   2.434  0.2326 -0.3087  0.0220
  113SAPE   O2211759   0.903   2.327   2.383 -0.2529  0.7826 -0.4157
  113SAPE   C2211760   0.839   2.475   2.568  0.3331  0.4078 -0.0428
  113SAPE   H2R11761   0.818   2.584   2.578 -1.0719  0.0430  1.3465
  113SAPE   H2S11762   0.745   2.417   2.560  1.4008 -1.5988  1.1037
  113SAPE    C311763   1.227   2.452   2.327  0.4016  0.4670 -0.4292
  113SAPE    HX11764   1.298   2.440   2.242  1.6683  2.0202  0.3559
  113SAPE    HY11765   1.215   2.355   2.381  1.5464  0.5026 -0.0865
  113SAPE   O3111766   1.272   2.539   2.426 -0.4829 -0.4374  0.0351
  113SAPE   C3111767   1.405   2.557   2.434 -0.0311  0.1372 -0.8023
  113SAPE   O3211768   1.488   2.489   2.376  0.2583  0.1019 -0.2354
  113SAPE   C3211769   1.432   2.666   2.537  0.0940 -0.4095 -0.8464
  113SAPE   H2X11770   1.355   2.746   2.528 -1.4018 -1.3129  2.3352
  113SAPE   H2Y11771   1.522   2.720   2.502 -0.2438 -0.8744 -2.5553
  113SAPE   C2311772   0.909   2.411   2.688  0.5439 -0.1040 -0.4088
  113SAPE   H3R11773   0.912   2.300   2.680 -1.1357 -0.5001  2.6823
  113SAPE   H3S11774   0.842   2.421   2.777 -0.4157 -0.7303 -1.0407
  113SAPE   C2411775   1.054   2.466   2.727  0.8608 -0.6342  0.4626
  113SAPE   H4R11776   1.132   2.402   2.679  0.1662 -1.0648 -0.1061
  113SAPE   H4S11777   1.068   2.453   2.836 -0.7954  0.4302  0.8277
  113SAPE   C2511778   1.074   2.612   2.687 -0.7128  0.1527  0.0137
  113SAPE   H5R11779   1.113   2.630   2.585  0.1234  1.2045  0.4939
  113SAPE   C2611780   1.059   2.724   2.766  0.3533  0.2208  0.0635
  113SAPE   H6R11781   1.090   2.824   2.734 -1.2452  1.3400  1.8133
  113SAPE   C2711782   0.999   2.720   2.902  0.2036  0.2163 -0.5465
  113SAPE   H7R11783   1.021   2.626   2.956 -0.8702 -0.6638 -1.5844
  113SAPE   H7S11784   0.888   2.723   2.890  0.3152  2.3601 -1.6793
  113SAPE   C2811785   1.044   2.836   2.982  0.8143  0.0504 -0.1425
  113SAPE   H8R11786   1.101   2.919   2.937  0.8877 -0.0983 -0.3245
  113SAPE   C2911787   1.043   2.846   3.114  0.8218 -0.4325 -0.0060
  113SAPE   H9R11788   1.053   2.942   3.167  0.9408 -0.6027  0.2833
  113SAPE  C21011789   1.005   2.737   3.201 -0.6062  0.2507 -0.5078
  113SAPE  H10R11790   0.946   2.660   3.147  1.0824 -0.5295 -1.3231
  113SAPE  H10S11791   0.924   2.779   3.265 -2.1575 -0.0827 -2.1568
  113SAPE  C21111792   1.117   2.678   3.283  0.5700 -0.2123  0.4186
  113SAPE  H11R11793   1.185   2.757   3.319  1.2030  1.1728 -3.3532
  113SAPE  C21211794   1.143   2.550   3.315 -0.0071 -0.4858  0.4595
  113SAPE  H12R11795   1.237   2.532   3.370  0.9761 -1.6140 -1.4613
  113SAPE  C21311796   1.070   2.436   3.243  0.3585 -0.4403 -0.2403
  113SAPE  H13R11797   1.075   2.458   3.134 -1.6143 -0.3550 -0.3556
  113SAPE  H13S11798   0.960   2.442   3.259  0.3843  0.6820 -0.3973
  113SAPE  C21411799   1.101   2.294   3.273 -0.3759 -0.2429  0.6740
  113SAPE  H14R11800   1.132   2.277   3.378 -1.1866 -2.1361  0.6505
  113SAPE  C21511801   1.074   2.195   3.193  0.1091  0.5203 -0.2517
  113SAPE  H15R11802   1.111   2.095   3.220 -0.7103  0.7296  1.8916
  113SAPE  C21611803   1.015   2.205   3.052  0.2691 -0.4078  0.2766
  113SAPE  H16R11804   1.097   2.219   2.977 -0.8924 -1.0255 -1.1578
  113SAPE  H16S11805   0.941   2.285   3.031 -3.2165 -3.2116  0.9638
  113SAPE  C21711806   0.948   2.069   3.006 -0.4866 -0.1262 -0.1712
  113SAPE  H17R11807   0.843   2.058   3.041 -0.6697 -0.9294 -0.9502
  113SAPE  H17S11808   1.008   1.984   3.042 -0.5111  0.1470  0.5291
  113SAPE  C21811809   0.941   2.043   2.850 -0.3931  0.3767  0.1289
  113SAPE  H18R11810   0.882   2.130   2.812  1.6447  1.9721  0.4824
  113SAPE  H18S11811   0.885   1.948   2.833 -0.6656  0.3646  1.0494
  113SAPE  C21911812   1.082   2.031   2.779  0.0798 -0.5457 -0.2545
  113SAPE  H19R11813   1.149   1.965   2.838  1.1622 -1.4312 -2.3583
  113SAPE  H19S11814   1.129   2.132   2.771 -1.7110  0.7136  3.0236
  113SAPE  C22011815   1.086   1.984   2.636 -0.0948 -0.0869  0.5116
  113SAPE  H20R11816   1.191   1.991   2.601 -0.4529  1.3804 -0.3886
  113SAPE  H20S11817   1.018   2.047   2.575 -0.4291 -1.3250 -0.4379
  113SAPE  H20T11818   1.061   1.876   2.639  1.7362 -0.6499 -1.6878
  113SAPE   C3311819   1.451   2.608   2.680  0.2970  0.1197  0.0818
  113SAPE   H3X11820   1.538   2.539   2.686  0.2757  0.1776  1.2443
  113SAPE   H3Y11821   1.362   2.546   2.704  0.2096 -0.0335 -0.6148
  113SAPE   C3411822   1.452   2.705   2.794 -0.6816 -0.5125  0.1558
  113SAPE   H4X11823   1.379   2.788   2.785  0.2945  0.4984  1.1930
  113SAPE   H4Y11824   1.542   2.768   2.780 -0.8585  0.0150  1.3174
  113SAPE   C3511825   1.460   2.643   2.934 -0.2186 -0.8372 -0.0857
  113SAPE   H5X11826   1.535   2.561   2.929  1.3457  0.5746 -1.6011
  113SAPE   H5Y11827   1.362   2.599   2.963  0.7316 -2.5901  0.6469
  113SAPE   C3611828   1.515   2.741   3.046 -0.0737  0.5775 -0.1363
  113SAPE   H6X11829   1.448   2.830   3.051  1.7900  1.9599  1.5344
  113SAPE   H6Y11830   1.621   2.764   3.026 -0.4014  2.7240  0.3755
  113SAPE   C3711831   1.503   2.686   3.191 -0.1368  0.5210  0.0445
  113SAPE   H7X11832   1.600   2.633   3.206 -0.6451 -0.3432  0.2750
  113SAPE   H7Y11833   1.422   2.612   3.204 -0.3961  0.3229 -2.2791
  113SAPE   C3811834   1.497   2.800   3.292 -0.4350 -0.2190 -0.4802
  113SAPE   H8X11835   1.586   2.864   3.277 -0.7996  0.0220 -1.6800
  113SAPE   H8Y11836   1.409   2.863   3.269 -1.5416 -1.4809  0.0953
  113SAPE   C3911837   1.488   2.740   3.433  0.2171 -0.4636  0.3353
  113SAPE   H9X11838   1.554   2.651   3.447 -0.0320 -0.6964  0.0469
  113SAPE   H9Y11839   1.384   2.701   3.445  0.0419  0.4152  1.9518
  113SAPE  C31011840   1.510   2.854   3.534  0.4182  0.1593  0.6950
  113SAPE  H10X11841   1.461   2.948   3.500  0.3821 -0.2030 -0.2847
  113SAPE  H10Y11842   1.618   2.880   3.529  0.6812 -1.0493 -0.3968
  113SAPE  C31111843   1.471   2.813   3.673  0.4012  0.0850 -0.2402
  113SAPE  H11X11844   1.536   2.728   3.703 -0.2740  0.2581  1.8812
  113SAPE  H11Y11845   1.367   2.775   3.677  0.2136  0.6944  1.0064
  113SAPE  C31211846   1.489   2.928   3.778 -0.8182  0.1050 -0.1256
  113SAPE  H12X11847   1.433   3.017   3.742  0.3060  1.5897  1.6561
  113SAPE  H12Y11848   1.599   2.941   3.779 -0.8128  0.6135  3.4041
  113SAPE  C31311849   1.451   2.894   3.926 -0.3796  0.7710 -1.3813
  113SAPE  H13X11850   1.528   2.824   3.963 -0.8501  0.0584 -1.7269
  113SAPE  H13Y11851   1.352   2.843   3.923 -1.2541  2.0092  2.1124
  113SAPE  C31411852   1.439   3.012   4.010 -0.5836 -0.6805 -0.2567
  113SAPE  H14X11853   1.387   2.995   4.106 -0.9964  3.3699  0.4344
  113SAPE  H14Y11854   1.376   3.088   3.958 -0.7708 -0.7155 -0.0831
  113SAPE  C31511855   1.569   3.069   4.049 -0.4268  0.0939  0.3855
  113SAPE  H15X11856   1.540   3.164   4.099 -0.1126  0.2350  0.3023
  113SAPE  H15Y11857   1.641   3.082   3.965 -1.1825  1.0466 -0.1382
  113SAPE  C31611858   1.636   2.984   4.164 -0.1020 -0.6438  0.0917
  113SAPE  H16X11859   1.638   2.874   4.151  0.8643 -0.7067  0.6783
  113SAPE  H16Y11860   1.572   3.009   4.251  0.8070  1.4698  0.2206
  113SAPE  C31711861   1.781   3.036   4.186 -0.4586  0.6834  0.7367
  113SAPE  H17X11862   1.809   3.026   4.293 -2.0716  1.5817  1.2931
  113SAPE  H17Y11863   1.799   3.144   4.166  3.7684 -0.0636 -0.3587
  113SAPE  C31811864   1.881   2.950   4.106 -0.1664 -0.1746 -0.1820
  113SAPE  H18X11865   1.882   2.843   4.136  0.8934 -0.2570 -0.4438
  113SAPE  H18Y11866   1.988   2.978   4.121  0.1145 -1.7259  0.9642
  113SAPE  H18Z11867   1.866   2.962   3.997 -0.3362 -2.5206 -0.4681
  114SAPE     N11868   4.168   1.216   2.255  0.7112 -0.0740 -0.5481
  114SAPE   HN111869   4.175   1.269   2.167  3.2135  0.8913  0.1563
  114SAPE   HN211870   4.124   1.288   2.316  1.1127  0.6213 -1.0662
  114SAPE   HN311871   4.266   1.197   2.285  0.5660  1.2811  0.9286
  114SAPE   C1211872   4.095   1.080   2.236 -0.7052 -0.6411  0.0922
  114SAPE  H12A11873   4.163   1.015   2.178  1.4482  2.1505 -0.7715
  114SAPE  H12B11874   4.005   1.096   2.174  0.0948 -2.7111 -1.7373
  114SAPE   C1111875   4.056   1.027   2.377 -0.1156  0.7821  0.7347
  114SAPE  H11A11876   3.979   0.948   2.362 -2.2015  2.5174  1.7619
  114SAPE  H11B11877   4.006   1.107   2.435  1.3591  1.8021  0.6556
  114SAPE     P11878   4.142   0.884   2.569  0.1838  0.1671  0.2456
  114SAPE   O1311879   4.094   0.762   2.508 -0.1051 -0.3695  0.6924
  114SAPE   O1411880   4.266   0.873   2.647  0.0756  0.3767 -0.0689
  114SAPE   O1211881   4.166   0.996   2.452  0.2150  0.1395  0.0453
  114SAPE   O1111882   4.035   0.944   2.673  0.2804 -0.2565  0.0980
  114SAPE    C111883   3.894   0.916   2.680  0.4492 -0.0487 -0.3640
  114SAPE    HA11884   3.837   1.003   2.639  3.2420  2.2526  0.3195
  114SAPE    HB11885   3.861   0.838   2.608 -0.3168  0.3739 -0.4787
  114SAPE    C211886   3.866   0.867   2.821 -0.7063  0.4269 -0.8254
  114SAPE    HS11887   3.757   0.845   2.824 -0.5211 -0.5283 -0.8481
  114SAPE   O2111888   3.895   0.968   2.922  0.1944 -0.1228 -0.1179
  114SAPE   C2111889   3.830   1.088   2.913  0.3099  0.4471  0.2866
  114SAPE   O2211890   3.747   1.115   2.830  0.2361  0.6156 -0.2777
  114SAPE   C2211891   3.880   1.191   3.020  0.6205  0.4113 -0.0909
  114SAPE   H2R11892   3.982   1.170   3.059  0.2623 -0.7975  0.2490
  114SAPE   H2S11893   3.880   1.292   2.975  2.6516 -0.3181 -1.9266
  114SAPE    C311894   3.951   0.739   2.856 -0.5654 -0.0318  0.3255
  114SAPE    HX11895   4.056   0.777   2.862 -0.8137  1.2839 -2.1747
  114SAPE    HY11896   3.943   0.678   2.764 -0.6038 -1.9909  1.5799
  114SAPE   O3111897   3.903   0.676   2.972 -0.0151  0.6718  0.1173
  114SAPE   C3111898   3.962   0.558   2.993 -0.0002 -0.4415 -0.0083
  114SAPE   O3211899   4.042   0.509   2.914  0.5489  0.2459 -0.2307
  114SAPE   C3211900   3.922   0.508   3.129  0.5471 -0.3879  0.2087
  114SAPE   H2X11901   3.820   0.468   3.110  0.3326 -0.1407  0.7956
  114SAPE   H2Y11902   3.914   0.599   3.193 -0.7003  1.1063 -1.9359
  114SAPE   C2311903   3.779   1.193   3.131 -0.3497 -0.7183 -0.6794
  114SAPE   H3R11904   3.670   1.195   3.109 -0.7671  1.8774  1.1841
  114SAPE   H3S11905   3.798   1.285   3.190  0.0446 -0.7925 -0.6874
  114SAPE   C2411906   3.821   1.084   3.232  0.7669  0.4371 -0.2103
  114SAPE   H4R11907   3.930   1.081   3.257  1.1247 -0.5542 -1.7038
  114SAPE   H4S11908   3.807   0.992   3.171 -0.9051  0.7316 -0.2948
  114SAPE   C2511909   3.727   1.066   3.348  0.3098 -0.4981  0.1033
  114SAPE   H5R11910   3.618   1.068   3.329  0.1216  0.7333  1.2184
  114SAPE   C2611911   3.761   1.036   3.474  0.3575 -0.6324 -0.0891
  114SAPE   H6R11912   3.676   1.008   3.539 -0.5415  1.2395 -0.3986
  114SAPE   C2711913   3.898   1.020   3.532 -0.0578 -0.4575  0.2038
  114SAPE   H7R11914   3.977   1.048   3.459 -1.9934 -0.2842 -1.9192
  114SAPE   H7S11915   3.909   0.910   3.547  0.4658 -0.3848  0.4028
  114SAPE   C2811916   3.918   1.093   3.671  0.6944  0.6822  0.3506
  114SAPE   H8R11917   3.948   1.199   3.663 -2.2568  1.4452 -3.1823
  114SAPE   C2911918   3.914   1.046   3.796  0.0330  0.2664  0.1098
  114SAPE   H9R11919   3.918   1.110   3.885 -0.5804 -0.6354  0.7952
  114SAPE  C21011920   3.869   0.905   3.829 -0.3600  0.3323  0.1518
  114SAPE  H10R11921   3.906   0.829   3.758  0.3961 -0.5041  1.3872
  114SAPE  H10S11922   3.758   0.903   3.836 -0.5010  3.4381  0.3018
  114SAPE  C21111923   3.922   0.869   3.970  0.4550 -0.0061  0.2428
  114SAPE  H11R11924   4.032   0.876   3.975  0.5349 -1.5483  2.1384
  114SAPE  C21211925   3.859   0.847   4.091  0.5800  0.4704 -0.2984
  114SAPE  H12R11926   3.912   0.823   4.185 -0.5252 -2.3609 -0.3056
  114SAPE  C21311927   3.707   0.842   4.117  0.3050 -0.5059  0.5309
  114SAPE  H13R11928   3.668   0.810   4.018 -0.9703  0.8963  0.5501
  114SAPE  H13S11929   3.663   0.942   4.137 -2.0239 -1.3953  0.1502
  114SAPE  C21411930   3.678   0.736   4.213  0.4852  0.7929 -0.4507
  114SAPE  H14R11931   3.673   0.634   4.171 -1.4682  0.7864 -0.2680
  114SAPE  C21511932   3.651   0.752   4.343  0.2102  1.1857 -0.0500
  114SAPE  H15R11933   3.626   0.666   4.407  0.1793  0.1955 -1.3761
  114SAPE  C21611934   3.663   0.884   4.423 -0.0408  0.0303  0.0903
  114SAPE  H16R11935   3.562   0.919   4.453 -0.3988  1.7858 -2.7637
  114SAPE  H16S11936   3.714   0.950   4.350 -0.9583 -1.0992 -1.6361
  114SAPE  C21711937   3.754   0.879   4.549  0.1234 -0.7201 -0.1350
  114SAPE  H17R11938   3.736   0.786   4.607 -1.8604 -0.6654 -0.5796
  114SAPE  H17S11939   3.716   0.963   4.612 -0.5456 -0.0396 -1.4065
  114SAPE  C21811940   3.907   0.880   4.512  0.1170  0.4544  0.1779
  114SAPE  H18R11941   3.927   0.957   4.434 -0.2117 -0.3350 -0.7013
  114SAPE  H18S11942   3.940   0.787   4.460 -2.0290 -0.7756  0.8984
  114SAPE  C21911943   3.997   0.909   4.631 -0.6492 -0.3154 -0.1945
  114SAPE  H19R11944   4.096   0.860   4.618  0.3803  1.3712  0.9475
  114SAPE  H19S11945   3.961   0.868   4.728 -0.8779  0.7414  0.1745
  114SAPE  C22011946   4.038   1.057   4.648  0.1579  0.1866 -1.0409
  114SAPE  H20R11947   4.089   1.061   4.746  0.8179 -1.9322 -1.2247
  114SAPE  H20S11948   3.949   1.122   4.647 -2.0145 -2.5410  0.4089
  114SAPE  H20T11949   4.108   1.087   4.566 -0.9893 -1.1967 -2.6199
  114SAPE   C3311950   4.006   0.398   3.192  0.5212  1.0510  0.4018
  114SAPE   H3X11951   4.115   0.415   3.202  0.8569 -0.9983  0.6812
  114SAPE   H3Y11952   4.008   0.313   3.120 -1.0104  0.7141  0.7149
  114SAPE   C3411953   3.973   0.343   3.331 -0.4567 -0.1426  0.1102
  114SAPE   H4X11954   4.033   0.254   3.357 -0.7088 -0.4868 -0.4498
  114SAPE   H4Y11955   3.874   0.295   3.311  0.5610 -1.3877 -2.4665
  114SAPE   C3511956   3.974   0.454   3.439  0.0000 -0.6376  0.3084
  114SAPE   H5X11957   3.895   0.527   3.412 -0.1725 -0.0355  2.3101
  114SAPE   H5Y11958   4.075   0.500   3.431 -0.5986  0.6052 -0.3528
  114SAPE   C3611959   3.953   0.397   3.579 -0.5299 -0.2173 -0.3433
  114SAPE   H6X11960   4.030   0.320   3.602 -0.5765 -0.1191  0.1440
  114SAPE   H6Y11961   3.856   0.343   3.572 -1.1963  0.6161  1.7280
  114SAPE   C3711962   3.960   0.499   3.694 -0.0435  0.2123  0.2192
  114SAPE   H7X11963   3.874   0.568   3.685  1.4081  2.0578 -0.2218
  114SAPE   H7Y11964   4.045   0.569   3.676  0.6849 -0.4534  0.9592
  114SAPE   C3811965   3.973   0.430   3.830 -0.0260 -0.3658 -0.1291
  114SAPE   H8X11966   4.067   0.372   3.819  1.1576  1.4525  0.1245
  114SAPE   H8Y11967   3.898   0.349   3.846 -0.6756 -0.1629 -1.9601
  114SAPE   C3911968   3.975   0.541   3.939 -0.3956  0.4476  0.1863
  114SAPE   H9X11969   3.873   0.584   3.933  0.1716  1.8194 -0.1345
  114SAPE   H9Y11970   4.053   0.612   3.902  1.3772 -1.7633 -0.5018
  114SAPE  C31011971   4.002   0.497   4.079 -0.7544 -0.1480 -0.5924
  114SAPE  H10X11972   4.007   0.588   4.142  0.3983  1.0674 -2.3467
  114SAPE  H10Y11973   4.107   0.459   4.075 -0.4106  0.8768 -3.3181
  114SAPE  C31111974   3.902   0.402   4.137  0.9095  0.2889 -0.0727
  114SAPE  H11X11975   3.899   0.309   4.077 -3.9658  0.3610 -0.3572
  114SAPE  H11Y11976   3.805   0.456   4.130  2.1967  2.4825 -3.8184
  114SAPE  C31211977   3.925   0.354   4.283  0.7550  0.4809 -0.5901
  114SAPE  H12X11978   3.984   0.421   4.349 -0.5001  2.5489 -1.4799
  114SAPE  H12Y11979   3.986   0.262   4.278  1.5909  1.0333 -0.7196
  114SAPE  C31311980   3.799   0.331   4.380 -0.2644  0.2172 -0.2687
  114SAPE  H13X11981   3.724   0.259   4.341  1.8732 -2.6863  0.5502
  114SAPE  H13Y11982   3.747   0.426   4.404 -0.3487  0.1770 -0.2939
  114SAPE  C31411983   3.837   0.273   4.514 -0.4523 -0.6436  0.0196
  114SAPE  H14X11984   3.911   0.341   4.563  1.8515 -2.7486 -0.3768
  114SAPE  H14Y11985   3.891   0.178   4.498  0.6171 -0.5338  2.4716
  114SAPE  C31511986   3.722   0.249   4.616 -0.5986  0.1930 -0.5055
  114SAPE  H15X11987   3.777   0.208   4.703  0.5060 -0.7661 -1.6022
  114SAPE  H15Y11988   3.657   0.165   4.584 -1.3786  0.3264  0.6843
  114SAPE  C31611989   3.652   0.377   4.672 -0.1390 -0.6374  0.4767
  114SAPE  H16X11990   3.596   0.435   4.596 -0.5867 -0.8781  0.6146
  114SAPE  H16Y11991   3.720   0.452   4.717  0.1331 -0.9817  0.6437
  114SAPE  C31711992   3.561   0.337   4.791 -0.0468 -0.0555 -0.5757
  114SAPE  H17X11993   3.633   0.310   4.872 -1.0819  3.9523  1.9689
  114SAPE  H17Y11994   3.500   0.247   4.769  0.9720 -0.7600 -0.5836
  114SAPE  C31811995   3.466   0.451   4.838  0.6048  0.5022  0.0012
  114SAPE  H18X11996   3.405   0.416   4.924 -0.3966  1.6726 -0.2068
  114SAPE  H18Y11997   3.393   0.485   4.761 -0.9835  1.3985  1.8067
  114SAPE  H18Z11998   3.513   0.540   4.884 -2.7125  1.6652  1.5098
  115SAPE     N11999   3.847   2.477   2.132  0.0381 -0.1397 -0.5047
  115SAPE   HN112000   3.745   2.459   2.124 -0.0521 -0.1711  0.5653
  115SAPE   HN212001   3.856   2.581   2.126 -2.9339  0.2857  0.5113
  115SAPE   HN312002   3.898   2.423   2.060 -1.9452 -0.1147 -1.9884
  115SAPE   C1212003   3.902   2.438   2.265 -0.6110  0.7143  0.0247
  115SAPE  H12A12004   4.012   2.445   2.251 -0.4875 -2.5710 -1.5026
  115SAPE  H12B12005   3.884   2.330   2.281  0.0280  0.6674  0.4528
  115SAPE   C1112006   3.841   2.519   2.383  0.3517  0.6070  0.4247
  115SAPE  H11A12007   3.877   2.473   2.477 -0.1824 -0.2302  0.2321
  115SAPE  H11B12008   3.733   2.497   2.375  0.6030 -0.3228 -1.0002
  115SAPE     P12009   3.812   2.773   2.432 -0.0600 -0.3078  0.2194
  115SAPE   O1312010   3.918   2.841   2.501  0.4568 -0.8754 -0.6414
  115SAPE   O1412011   3.723   2.842   2.340  0.0015 -0.0233 -0.7227
  115SAPE   O1212012   3.877   2.654   2.353  0.0968  0.0276  0.4760
  115SAPE   O1112013   3.725   2.698   2.539 -0.5996 -0.5712  0.0923
  115SAPE    C112014   3.778   2.646   2.660  0.2757  0.6423  0.3567
  115SAPE    HA12015   3.715   2.556   2.676  0.9272  0.1978  0.4681
  115SAPE    HB12016   3.887   2.627   2.666  0.0940 -0.0327  2.0966
  115SAPE    C212017   3.743   2.739   2.783  0.4073  0.7577  0.3411
  115SAPE    HS12018   3.823   2.816   2.789  1.7951 -0.3973 -1.6780
  115SAPE   O2112019   3.742   2.647   2.895 -0.1789 -0.2040  0.4464
  115SAPE   C2112020   3.809   2.681   2.995  0.6494  0.2831 -0.1393
  115SAPE   O2212021   3.870   2.789   3.004  0.2452 -0.2181 -0.4439
  115SAPE   C2212022   3.814   2.555   3.095 -0.4025 -0.3687  0.4760
  115SAPE   H2R12023   3.737   2.484   3.054  0.0620 -1.3900  1.3263
  115SAPE   H2S12024   3.914   2.508   3.089 -0.0119  0.2589  1.8724
  115SAPE    C312025   3.595   2.797   2.761 -0.0964 -0.5076 -0.5186
  115SAPE    HX12026   3.529   2.710   2.738  0.2210 -0.8399 -0.1877
  115SAPE    HY12027   3.581   2.861   2.671  0.5879 -0.1619 -0.3879
  115SAPE   O3112028   3.561   2.866   2.882 -0.2639  0.2303 -0.1429
  115SAPE   C3112029   3.602   2.997   2.895  0.1749  0.1802  0.1714
  115SAPE   O3212030   3.649   3.063   2.803  0.1488 -0.0797 -0.1747
  115SAPE   C3212031   3.567   3.041   3.033  0.2893  0.4309 -0.4060
  115SAPE   H2X12032   3.504   2.975   3.096  2.9759 -0.5293  1.4894
  115SAPE   H2Y12033   3.517   3.140   3.023 -1.8665 -0.4436  1.1320
  115SAPE   C2312034   3.776   2.590   3.242  0.1036  0.5582 -0.6328
  115SAPE   H3R12035   3.726   2.495   3.272  0.3265 -0.1588 -2.4172
  115SAPE   H3S12036   3.691   2.661   3.244  0.4397  0.9642 -0.8184
  115SAPE   C2412037   3.889   2.631   3.338  0.3296  0.4427  0.2133
  115SAPE   H4R12038   3.920   2.737   3.325  2.0479 -0.1498 -0.8948
  115SAPE   H4S12039   3.974   2.566   3.311  1.0322  1.3143  0.2617
  115SAPE   C2512040   3.846   2.604   3.476  0.1196  0.1364 -0.5017
  115SAPE   H5R12041   3.860   2.497   3.498  2.3202  0.5495  0.3110
  115SAPE   C2612042   3.794   2.681   3.576 -0.1317  0.4679 -0.1915
  115SAPE   H6R12043   3.764   2.632   3.669 -1.2895  0.6175 -0.4663
  115SAPE   C2712044   3.757   2.828   3.578  0.5687  0.7029  0.3503
  115SAPE   H7R12045   3.647   2.837   3.585  0.7273  1.3890  2.7032
  115SAPE   H7S12046   3.794   2.862   3.478  1.3738 -1.5241 -0.1810
  115SAPE   C2812047   3.818   2.902   3.694  0.0615 -0.3301  0.0716
  115SAPE   H8R12048   3.910   2.960   3.673  0.2695 -0.2967  1.0256
  115SAPE   C2912049   3.780   2.897   3.825 -0.0098 -0.7263  0.2732
  115SAPE   H9R12050   3.845   2.948   3.899  1.9906 -0.9474 -1.2568
  115SAPE  C21012051   3.654   2.835   3.879 -0.6392  0.2757  0.4457
  115SAPE  H10R12052   3.605   2.782   3.794  0.2114  0.6765 -0.3107
  115SAPE  H10S12053   3.601   2.932   3.887 -0.6455  0.2738  0.4232
  115SAPE  C21112054   3.665   2.761   4.008  0.2499  0.1639 -0.4039
  115SAPE  H11R12055   3.706   2.660   4.014 -0.7678 -0.1830  3.0613
  115SAPE  C21212056   3.633   2.815   4.131 -0.0303 -0.4210 -0.2458
  115SAPE  H12R12057   3.623   2.742   4.212 -0.3115  0.6240  0.6777
  115SAPE  C21312058   3.597   2.960   4.165 -0.7113  0.5144  0.3164
  115SAPE  H13R12059   3.489   2.962   4.190 -0.8955 -1.2967 -0.1590
  115SAPE  H13S12060   3.600   3.025   4.075  1.4567  1.5301  1.0545
  115SAPE  C21412061   3.689   3.014   4.263 -0.5308  0.7814 -0.2839
  115SAPE  H14R12062   3.792   2.976   4.253 -1.0673 -0.4560 -1.4814
  115SAPE  C21512063   3.661   3.108   4.354  0.0301  0.1315  0.5647
  115SAPE  H15R12064   3.732   3.126   4.437  2.0333  0.6229 -1.1671
  115SAPE  C21612065   3.529   3.173   4.369 -0.2685  0.3603  0.6893
  115SAPE  H16R12066   3.478   3.182   4.270 -0.8134 -0.0635  0.9282
  115SAPE  H16S12067   3.549   3.275   4.410  0.3246  1.5672 -2.2594
  115SAPE  C21712068   3.445   3.086   4.462 -0.0122  0.2132  0.4911
  115SAPE  H17R12069   3.489   3.083   4.563  1.4772 -2.3060 -0.1324
  115SAPE  H17S12070   3.436   2.981   4.426  0.5331  0.7843 -1.4575
  115SAPE  C21812071   3.307   3.149   4.480 -0.8148  0.1978  0.5768
  115SAPE  H18R12072   3.262   3.167   4.379  1.6928  0.4379 -0.5772
  115SAPE  H18S12073   3.312   3.255   4.515  0.8867  0.5363 -0.5585
  115SAPE  C21912074   3.219   3.078   4.572  0.1164 -0.3424 -0.3452
  115SAPE  H19R12075   3.263   3.075   4.674 -0.3972 -0.1523 -0.1104
  115SAPE  H19S12076   3.183   2.975   4.552 -2.0585  0.3026 -0.0162
  115SAPE  C22012077   3.083   3.161   4.587 -0.1957 -0.0201  0.1305
  115SAPE  H20R12078   3.024   3.127   4.500  1.6110  0.9118 -1.5444
  115SAPE  H20S12079   3.104   3.269   4.575  1.5726 -0.0782  2.0674
  115SAPE  H20T12080   3.043   3.134   4.687  2.8864 -2.6686  0.8535
  115SAPE   C3312081   3.701   3.060   3.121 -0.4633  0.0961  0.5139
  115SAPE   H3X12082   3.774   3.111   3.055 -1.5438  2.7105  1.1918
  115SAPE   H3Y12083   3.730   2.957   3.148  1.9663  0.1166 -1.6105
  115SAPE   C3412084   3.661   3.132   3.249  0.4126 -0.0813  0.3013
  115SAPE   H4X12085   3.587   3.067   3.300  1.6004 -0.8915  1.0466
  115SAPE   H4Y12086   3.615   3.230   3.223  0.6097  0.3334  1.4531
  115SAPE   C3512087   3.762   3.166   3.356 -0.1109 -0.1392 -0.5058
  115SAPE   H5X12088   3.828   3.247   3.318  0.4959 -0.4992 -0.2255
  115SAPE   H5Y12089   3.838   3.087   3.373 -0.5090 -0.1096  1.6520
  115SAPE   C3612090   3.692   3.205   3.492  0.0184 -0.1688 -0.0979
  115SAPE   H6X12091   3.644   3.119   3.544  1.1804  0.5965  2.3952
  115SAPE   H6Y12092   3.607   3.275   3.472  1.3261  1.6654  0.4685
  115SAPE   C3712093   3.771   3.294   3.578 -0.0716 -0.5497  0.3605
  115SAPE   H7X12094   3.799   3.392   3.533 -0.6502 -0.6984 -0.3429
  115SAPE   H7Y12095   3.864   3.235   3.590  0.2413  0.2285  2.0829
  115SAPE   C3812096   3.703   3.297   3.717  0.6486  0.0567  0.5749
  115SAPE   H8X12097   3.701   3.194   3.759 -1.0850  0.7927  2.4642
  115SAPE   H8Y12098   3.598   3.330   3.699 -0.1150 -2.4862 -0.1382
  115SAPE   C3912099   3.777   3.402   3.800 -0.2503  0.4457 -0.4496
  115SAPE   H9X12100   3.771   3.502   3.751 -1.6189  1.5292  1.7771
  115SAPE   H9Y12101   3.884   3.371   3.796 -0.3276  0.2683 -1.5285
  115SAPE  C31012102   3.711   3.409   3.942 -0.6490 -0.2840  0.2480
  115SAPE  H10X12103   3.744   3.314   3.989  2.4723  0.4399 -0.2648
  115SAPE  H10Y12104   3.603   3.405   3.915 -0.0687 -0.5333 -2.3126
  115SAPE  C31112105   3.737   3.535   4.027 -0.1422  0.3861 -0.2139
  115SAPE  H11X12106   3.687   3.507   4.122  0.6297 -0.5303 -0.0592
  115SAPE  H11Y12107   3.678   3.621   3.988 -0.4292  1.3912  2.2289
  115SAPE  C31212108   3.888   3.574   4.043  0.9460  0.4616 -0.3485
  115SAPE  H12X12109   3.892   3.673   4.093  0.6721  0.6742 -0.7431
  115SAPE  H12Y12110   3.931   3.581   3.941  1.6424 -1.3911 -0.2290
  115SAPE  C31312111   3.965   3.470   4.118  0.3021  0.0904 -0.0011
  115SAPE  H13X12112   3.973   3.372   4.067  0.8983  1.1483 -2.0441
  115SAPE  H13Y12113   3.908   3.447   4.211  0.4530 -2.5198 -0.4705
  115SAPE  C31412114   4.096   3.526   4.170  0.2513  0.0162  0.2525
  115SAPE  H14X12115   4.078   3.627   4.212  2.6008  1.8133 -2.6571
  115SAPE  H14Y12116   4.165   3.532   4.083  1.3214 -1.6787  0.9468
  115SAPE  C31512117   4.157   3.437   4.278  0.8346  0.0877  0.2076
  115SAPE  H15X12118   4.266   3.461   4.282  0.9217 -0.3969  0.9328
  115SAPE  H15Y12119   4.157   3.330   4.246  1.4550 -0.0346  0.5861
  115SAPE  C31612120   4.088   3.456   4.406 -0.3768  0.1022 -0.2174
  115SAPE  H16X12121   3.991   3.402   4.407 -0.2301 -0.1676 -0.2305
  115SAPE  H16Y12122   4.065   3.563   4.419  0.3416  0.4119 -1.2927
  115SAPE  C31712123   4.166   3.398   4.529 -0.1951  0.2640  0.1578
  115SAPE  H17X12124   4.274   3.422   4.530  0.0651 -0.7219 -1.4296
  115SAPE  H17Y12125   4.162   3.287   4.525 -1.6580  0.1945  1.9869
  115SAPE  C31812126   4.115   3.452   4.666  0.3711 -0.0658  0.1839
  115SAPE  H18X12127   4.009   3.420   4.674  0.7947 -1.5462  0.0645
  115SAPE  H18Y12128   4.116   3.563   4.661 -1.2273 -0.0919 -2.3947
  115SAPE  H18Z12129   4.166   3.407   4.754 -0.1785  0.0692  0.5753
  116SAPE     N12130   2.507   4.088   1.941 -0.2154  0.4313  0.0672
  116SAPE   HN112131   2.510   4.189   1.916 -1.7682  0.6095  0.5009
  116SAPE   HN212132   2.586   4.079   2.008 -0.0341 -1.2759 -0.3307
  116SAPE   HN312133   2.534   4.035   1.855 -1.1956 -4.7212  2.5298
  116SAPE   C1212134   2.386   4.043   2.001 -0.1342 -0.2824 -0.4235
  116SAPE  H12A12135   2.396   3.937   2.033  0.9666  0.3134  1.3460
  116SAPE  H12B12136   2.297   4.066   1.938 -0.8149  3.2376  1.5241
  116SAPE   C1112137   2.359   4.121   2.136  0.3942 -0.1379  0.4286
  116SAPE  H11A12138   2.424   4.074   2.213  2.5871 -0.6239 -1.6209
  116SAPE  H11B12139   2.251   4.103   2.152  0.2947 -1.1112 -1.1300
  116SAPE     P12140   2.300   4.371   2.180  0.4981 -0.4008  0.0249
  116SAPE   O1312141   2.353   4.504   2.145 -0.3981 -0.1598 -0.2408
  116SAPE   O1412142   2.164   4.344   2.135 -0.2487 -0.0178  0.1305
  116SAPE   O1212143   2.387   4.257   2.125 -0.3093 -0.5814  0.6274
  116SAPE   O1112144   2.314   4.348   2.336  0.0946 -0.6382 -0.1336
  116SAPE    C112145   2.202   4.300   2.413  0.0678 -0.3847  0.3435
  116SAPE    HA12146   2.115   4.365   2.390  0.9228 -0.0219 -2.1616
  116SAPE    HB12147   2.170   4.196   2.390  0.0657 -0.3865  0.3523
  116SAPE    C212148   2.241   4.314   2.568  0.5940  0.0980 -0.3285
  116SAPE    HS12149   2.146   4.303   2.624  0.7359  1.9243  0.3257
  116SAPE   O2112150   2.293   4.442   2.598  0.0731 -0.8925 -0.0067
  116SAPE   C2112151   2.208   4.554   2.601  0.6231  0.8587 -0.3298
  116SAPE   O2212152   2.087   4.550   2.576 -0.4549  0.6702 -0.1788
  116SAPE   C2212153   2.288   4.676   2.646  0.0036  0.0999 -0.2727
  116SAPE   H2R12154   2.363   4.699   2.568  0.5386 -0.8643 -0.0533
  116SAPE   H2S12155   2.210   4.754   2.660 -1.3390 -1.3105  0.4262
  116SAPE    C312156   2.331   4.193   2.613  0.1769 -0.8522  0.5410
  116SAPE    HX12157   2.410   4.189   2.535 -0.4548  0.7886 -0.2197
  116SAPE    HY12158   2.267   4.103   2.602  0.2039 -0.6423 -1.8293
  116SAPE   O3112159   2.363   4.186   2.755 -0.8758 -0.1935 -0.3749
  116SAPE   C3112160   2.483   4.233   2.783 -0.0228  0.1197  0.2814
  116SAPE   O3212161   2.568   4.268   2.703  0.6929  0.0598 -0.5936
  116SAPE   C3212162   2.501   4.243   2.932  0.5478  0.3335  0.3630
  116SAPE   H2X12163   2.553   4.147   2.953 -0.2115 -0.5570 -1.6366
  116SAPE   H2Y12164   2.406   4.240   2.990 -0.3436 -2.1716 -1.0945
  116SAPE   C2312165   2.356   4.658   2.786  0.0396 -0.0562  0.1998
  116SAPE   H3R12166   2.440   4.589   2.765 -0.9256 -0.6611 -1.9455
  116SAPE   H3S12167   2.285   4.619   2.862 -0.2391 -1.3940 -0.7091
  116SAPE   C2412168   2.433   4.785   2.827  0.0142 -0.3118 -0.4941
  116SAPE   H4R12169   2.506   4.825   2.753 -0.0066  4.6368  1.7259
  116SAPE   H4S12170   2.504   4.766   2.911  2.0323  1.9408 -1.5575
  116SAPE   C2512171   2.336   4.904   2.855 -0.4791  0.2674 -0.6852
  116SAPE   H5R12172   2.322   4.967   2.765  1.2166  1.1819 -0.3454
  116SAPE   C2612173   2.308   4.965   2.973 -0.0696  0.4396 -0.4211
  116SAPE   H6R12174   2.249   5.057   2.984  0.8240  0.9490  0.2252
  116SAPE   C2712175   2.359   4.914   3.112 -0.1885  0.0895  0.3654
  116SAPE   H7R12176   2.356   4.803   3.110 -1.2950  0.0840  1.2649
  116SAPE   H7S12177   2.276   4.928   3.185 -1.1120 -1.8703 -0.2432
  116SAPE   C2812178   2.484   4.980   3.164 -0.0312  0.3928  0.2979
  116SAPE   H8R12179   2.563   4.990   3.088  0.3580  2.3487  0.8981
  116SAPE   C2912180   2.513   5.019   3.290  0.8233 -0.7239 -0.0513
  116SAPE   H9R12181   2.610   5.062   3.319 -0.9050  2.0293  2.1677
  116SAPE  C21012182   2.431   4.993   3.413 -0.0636  0.8074  0.0517
  116SAPE  H10R12183   2.332   4.947   3.396  0.6999 -1.5743  1.5721
  116SAPE  H10S12184   2.410   5.082   3.477 -1.2995  2.1218 -2.0749
  116SAPE  C21112185   2.500   4.898   3.499 -1.0948 -0.2043  1.0087
  116SAPE  H11R12186   2.475   4.796   3.467  2.8203 -0.8605 -0.4587
  116SAPE  C21212187   2.571   4.926   3.612 -0.1433 -0.1810 -0.0759
  116SAPE  H12R12188   2.617   4.843   3.667  2.2146  1.9651  1.4068
  116SAPE  C21312189   2.599   5.059   3.674  0.1085 -0.3088  0.4244
  116SAPE  H13R12190   2.584   5.141   3.602 -1.3914 -2.8572 -2.3933
  116SAPE  H13S12191   2.707   5.054   3.701  0.5924  3.0338 -0.5158
  116SAPE  C21412192   2.519   5.085   3.799 -0.0494 -0.1312 -0.0781
  116SAPE  H14R12193   2.409   5.080   3.794 -0.1222  1.7828 -1.2152
  116SAPE  C21512194   2.569   5.120   3.917 -0.2162 -0.0360 -0.2998
  116SAPE  H15R12195   2.492   5.128   3.995  0.0803 -2.5932  0.3681
  116SAPE  C21612196   2.712   5.147   3.955 -0.3334  0.8119 -0.2025
  116SAPE  H16R12197   2.707   5.242   4.012 -1.1164  1.0969 -0.7233
  116SAPE  H16S12198   2.777   5.163   3.866  2.8691 -0.9855  1.6207
  116SAPE  C21712199   2.778   5.033   4.044  0.1680 -0.3103  0.3172
  116SAPE  H17R12200   2.798   4.947   3.977  1.1436 -0.8004  1.2134
  116SAPE  H17S12201   2.706   5.016   4.127 -0.4891  0.6249 -0.0457
  116SAPE  C21812202   2.907   5.089   4.093  0.2302 -0.4101  0.1723
  116SAPE  H18R12203   2.890   5.177   4.159 -0.0841  0.4711 -1.0459
  116SAPE  H18S12204   2.962   5.136   4.008 -0.5095 -0.7486 -0.5105
  116SAPE  C21912205   2.998   4.989   4.164  0.7916 -0.8589 -0.2601
  116SAPE  H19R12206   2.943   4.928   4.240 -0.9247  0.6518 -0.2157
  116SAPE  H19S12207   3.059   5.050   4.234 -1.7533  1.2042  0.3140
  116SAPE  C22012208   3.094   4.907   4.081  0.0784  0.9498 -0.4587
  116SAPE  H20R12209   3.179   4.871   4.142 -0.2559  0.2052 -0.4289
  116SAPE  H20S12210   3.145   4.964   4.000 -0.4824 -0.2555 -1.6877
  116SAPE  H20T12211   3.045   4.815   4.044 -1.1486  1.9970 -1.5422
  116SAPE   C3312212   2.591   4.365   2.975  0.6029 -0.2662 -0.2255
  116SAPE   H3X12213   2.545   4.459   2.940  0.2291 -0.0851  0.7292
  116SAPE   H3Y12214   2.693   4.349   2.932  0.7155 -0.2867  0.0481
  116SAPE   C3412215   2.592   4.391   3.125  0.2957  0.4239  0.7860
  116SAPE   H4X12216   2.650   4.309   3.172 -1.0059  0.2205  2.1180
  116SAPE   H4Y12217   2.482   4.385   3.139 -0.3320  0.3415 -2.9693
  116SAPE   C3512218   2.634   4.532   3.173 -0.3768  0.1770 -0.0293
  116SAPE   H5X12219   2.567   4.611   3.134  0.8525  1.0685 -0.3971
  116SAPE   H5Y12220   2.742   4.552   3.158  0.3441 -1.3178  2.5719
  116SAPE   C3612221   2.618   4.551   3.327 -0.1522 -0.1182 -0.7386
  116SAPE   H6X12222   2.511   4.566   3.352  0.2860  0.2110  1.0999
  116SAPE   H6Y12223   2.677   4.641   3.355 -0.4040  0.6534 -2.5925
  116SAPE   C3712224   2.660   4.438   3.422 -0.4394  0.2409  0.7128
  116SAPE   H7X12225   2.759   4.402   3.386 -0.7023  1.9538 -1.9809
  116SAPE   H7Y12226   2.587   4.358   3.397  1.1400 -0.8866 -0.5032
  116SAPE   C3812227   2.653   4.467   3.571  0.4197  0.6355  0.1987
  116SAPE   H8X12228   2.662   4.375   3.632  0.0610  0.1093 -0.5286
  116SAPE   H8Y12229   2.558   4.518   3.599  0.4631 -0.0256  1.6129
  116SAPE   C3912230   2.785   4.548   3.604  1.0932 -0.1708 -0.4947
  116SAPE   H9X12231   2.784   4.642   3.545 -2.1329  0.5739  0.5442
  116SAPE   H9Y12232   2.872   4.487   3.571  0.0086 -1.1256 -1.7388
  116SAPE  C31012233   2.792   4.599   3.748 -0.1706  0.8158  0.2775
  116SAPE  H10X12234   2.700   4.657   3.771 -1.1918 -0.6044 -0.0474
  116SAPE  H10Y12235   2.881   4.664   3.760 -0.0901  0.6625  0.5256
  116SAPE  C31112236   2.779   4.483   3.848 -0.3395 -0.4950  0.3133
  116SAPE  H11X12237   2.854   4.408   3.813 -0.5211 -0.2094 -0.6963
  116SAPE  H11Y12238   2.673   4.452   3.843 -0.8279  1.2978 -1.8620
  116SAPE  C31212239   2.824   4.525   3.992 -0.2934 -0.2904 -0.6575
  116SAPE  H12X12240   2.926   4.568   4.000 -0.1766 -0.2224 -2.1623
  116SAPE  H12Y12241   2.834   4.429   4.048  2.1360 -0.0761 -0.6146
  116SAPE  C31312242   2.706   4.603   4.047  0.9279  1.3363 -0.5655
  116SAPE  H13X12243   2.617   4.595   3.981  1.3484 -4.6216 -0.9506
  116SAPE  H13Y12244   2.732   4.711   4.059  3.0939  0.9421 -1.2562
  116SAPE  C31412245   2.671   4.543   4.189  0.1676  0.3630 -0.1198
  116SAPE  H14X12246   2.628   4.441   4.179  0.0619 -0.0838  3.6576
  116SAPE  H14Y12247   2.595   4.608   4.238  0.3669  0.3264  0.2355
  116SAPE  C31512248   2.790   4.548   4.290  0.1529 -0.0707 -0.2231
  116SAPE  H15X12249   2.812   4.652   4.321 -0.0759  0.7693 -2.7171
  116SAPE  H15Y12250   2.879   4.510   4.235  0.0298  0.6321 -0.9276
  116SAPE  C31612251   2.761   4.460   4.415  0.0649 -0.4508  0.3141
  116SAPE  H16X12252   2.856   4.444   4.471  0.3378  0.0883  0.0064
  116SAPE  H16Y12253   2.732   4.358   4.383  1.6511 -0.1605 -2.3216
  116SAPE  C31712254   2.663   4.535   4.513 -0.8887  0.3239  0.1160
  116SAPE  H17X12255   2.560   4.530   4.472 -1.9092 -1.2000  2.6334
  116SAPE  H17Y12256   2.693   4.642   4.523  0.4688 -0.0809  0.6315
  116SAPE  C31812257   2.679   4.474   4.647  1.1266 -0.4511  0.8235
  116SAPE  H18X12258   2.668   4.364   4.637 -1.8075 -0.2815  1.4546
  116SAPE  H18Y12259   2.602   4.511   4.718 -1.0357 -0.3728 -1.4783
  116SAPE  H18Z12260   2.782   4.501   4.681  0.4689  2.3318  0.8360
  117SOPE     N12261   0.620   5.323   6.799 -0.1053 -0.4262 -0.0851
  117SOPE   HN112262   0.630   5.384   6.715  1.3684 -0.3317  0.1328
  117SOPE   HN212263   0.532   5.357   6.843  0.5549  0.8851  0.2525
  117SOPE   HN312264   0.706   5.345   6.853  0.8685  0.1307 -1.7660
  117SOPE   C1212265   0.629   5.177   6.769 -0.2891 -0.2871 -0.0548
  117SOPE  H12A12266   0.649   5.113   6.858 -0.3115  0.6451  0.6375
  117SOPE  H12B12267   0.721   5.153   6.712 -1.0862 -1.5270 -0.8766
  117SOPE   C1112268   0.496   5.133   6.694 -1.2437 -0.0976  0.2671
  117SOPE  H11A12269   0.410   5.175   6.750  0.4101  2.5316  0.9902
  117SOPE  H11B12270   0.488   5.022   6.696 -0.2061 -0.1888 -0.3424
  117SOPE     P12271   0.358   5.161   6.471  0.0041  0.2559 -0.0818
  117SOPE   O1312272   0.250   5.232   6.547  0.1928  0.0956  0.3831
  117SOPE   O1412273   0.342   5.017   6.437 -0.0437  0.8989 -0.1588
  117SOPE   O1212274   0.491   5.174   6.558 -0.1502  0.3895 -0.6634
  117SOPE   O1112275   0.401   5.242   6.344 -0.5994  0.9711  0.6665
  117SOPE    C112276   0.383   5.381   6.329  0.0506  0.2393  0.0545
  117SOPE    HA12277   0.443   5.418   6.244  1.7513  0.6482  1.3682
  117SOPE    HB12278   0.423   5.443   6.412  3.8575  0.7303 -1.9345
  117SOPE    C212279   0.238   5.422   6.295  0.3193 -1.3337  0.5404
  117SOPE    HS12280   0.194   5.423   6.398 -0.2405  0.1457  0.3079
  117SOPE   O2112281   0.172   5.312   6.222 -0.6699  0.0850  0.2706
  117SOPE   C2112282   0.050   5.301   6.236  0.5116 -0.5427  0.1999
  117SOPE   O2212283  -0.027   5.360   6.313 -0.3150  0.3760  0.4528
  117SOPE   C2212284  -0.006   5.182   6.160 -0.6452  0.1070  0.4311
  117SOPE   H2R12285  -0.022   5.106   6.239  1.1663 -1.1986 -0.3763
  117SOPE   H2S12286   0.068   5.140   6.089 -0.3637 -0.4631  1.0557
  117SOPE    C312287   0.213   5.561   6.242 -0.7818  0.1273  0.5711
  117SOPE    HX12288   0.246   5.639   6.314  2.6715  0.1662 -0.8461
  117SOPE    HY12289   0.103   5.576   6.239 -0.9650 -0.0643  3.3882
  117SOPE   O3112290   0.283   5.585   6.113 -0.7200 -0.3825 -0.1038
  117SOPE   C3112291   0.274   5.714   6.073 -0.0557  0.0023  0.1584
  117SOPE   O3212292   0.220   5.803   6.131  0.7773 -0.4099  0.3347
  117SOPE   C3212293   0.331   5.717   5.933 -0.2880  0.4820  0.3704
  117SOPE   H2X12294   0.371   5.616   5.912 -0.4958  0.2366  1.1261
  117SOPE   H2Y12295   0.404   5.801   5.938  1.0336 -0.6152  0.1082
  117SOPE   C2312296  -0.133   5.201   6.073  0.2511  0.2463  0.0025
  117SOPE   H3R12297  -0.212   5.255   6.129 -1.9414 -1.1532 -1.6146
  117SOPE   H3S12298  -0.169   5.098   6.054  1.8180 -0.3392  0.0508
  117SOPE   C2412299  -0.122   5.268   5.935  0.3717  0.2339  0.0720
  117SOPE   H4R12300  -0.027   5.242   5.885  0.6838 -0.9466  1.2018
  117SOPE   H4S12301  -0.203   5.233   5.867  0.8765  0.0705 -0.4466
  117SOPE   C2512302  -0.130   5.426   5.947 -0.3124  0.0418 -0.2906
  117SOPE   H5R12303  -0.225   5.469   5.986  0.6758  2.1296 -0.0523
  117SOPE   H5S12304  -0.048   5.457   6.015  0.3022  0.4158 -1.1866
  117SOPE   C2612305  -0.092   5.506   5.821 -0.3213  0.3000 -0.5445
  117SOPE   H6R12306  -0.066   5.610   5.851  2.0676 -0.8584  1.7816
  117SOPE   H6S12307   0.004   5.474   5.774  0.0027 -2.1255  1.5494
  117SOPE   C2712308  -0.189   5.490   5.702 -0.0794  0.8975  0.7099
  117SOPE   H7R12309  -0.224   5.388   5.678  0.6001  0.8785 -0.2313
  117SOPE   H7S12310  -0.282   5.541   5.736 -0.0005 -0.3508  2.9958
  117SOPE   C2812311  -0.137   5.546   5.568  0.3719 -0.2216 -0.1212
  117SOPE   H8R12312  -0.221   5.554   5.497  2.3140  1.1208 -2.4268
  117SOPE   H8S12313  -0.085   5.644   5.579  1.0171 -0.4723 -0.8070
  117SOPE   C2912314  -0.041   5.448   5.503 -0.6128 -0.5968 -0.7591
  117SOPE   H9112315  -0.007   5.376   5.579 -0.8855  0.9517  0.9069
  117SOPE  C21012316   0.004   5.460   5.377  0.4197  0.2508 -0.6332
  117SOPE  H10112317   0.068   5.382   5.334  0.5875  0.3932 -0.6423
  117SOPE  C21112318  -0.044   5.561   5.277  0.3469  0.8789 -0.4876
  117SOPE  H11R12319   0.037   5.583   5.203  1.3252 -2.6200 -0.6472
  117SOPE  H11S12320  -0.070   5.651   5.335 -4.0285 -1.1134  1.0831
  117SOPE  C21212321  -0.171   5.511   5.210  0.2610  0.0813 -0.0131
  117SOPE  H12R12322  -0.235   5.589   5.163 -0.2869 -0.2867  0.1101
  117SOPE  H12S12323  -0.248   5.473   5.280  0.1607 -1.0920 -0.7322
  117SOPE  C21312324  -0.134   5.412   5.100  0.1326  0.0857  0.0171
  117SOPE  H13R12325  -0.227   5.360   5.069  0.3586 -0.4874  0.2779
  117SOPE  H13S12326  -0.064   5.335   5.138 -1.1223 -2.0536 -1.7671
  117SOPE  C21412327  -0.082   5.476   4.968  0.0663  0.3735 -0.5975
  117SOPE  H14R12328   0.006   5.541   4.983  0.6809 -0.9114  1.9559
  117SOPE  H14S12329  -0.169   5.526   4.919  0.2104  2.1788  0.8807
  117SOPE  C21512330  -0.038   5.380   4.855  0.0899 -0.3060 -0.4209
  117SOPE  H15R12331  -0.126   5.315   4.837 -0.3765  1.0481 -3.4599
  117SOPE  H15S12332   0.058   5.333   4.886 -0.2687 -1.2701 -0.7376
  117SOPE  C21612333  -0.022   5.464   4.733 -0.4851  0.2371 -0.8618
  117SOPE  H16R12334   0.065   5.533   4.749 -1.2326  1.3576 -1.4547
  117SOPE  H16S12335  -0.112   5.528   4.721 -1.3498 -0.5316  1.1571
  117SOPE  C21712336  -0.011   5.372   4.609  0.0712  0.0156 -0.5505
  117SOPE  H17R12337   0.023   5.425   4.517  0.4181 -1.4744 -1.3232
  117SOPE  H17S12338  -0.113   5.331   4.590 -1.2958  1.4586  2.9212
  117SOPE  C21812339   0.090   5.262   4.620  0.0814 -0.1293  0.1546
  117SOPE  H18R12340   0.192   5.301   4.641 -0.4353  1.4243 -0.1420
  117SOPE  H18S12341   0.094   5.201   4.527 -1.2763 -0.7534  0.4774
  117SOPE  H18T12342   0.056   5.191   4.699  1.9967  0.8468  1.9709
  117SOPE   C3312343   0.239   5.761   5.815 -0.6230  0.0221  0.1319
  117SOPE   H3X12344   0.202   5.865   5.824 -2.4692 -0.7566  2.4432
  117SOPE   H3Y12345   0.147   5.698   5.809 -0.5890  0.0218 -0.4620
  117SOPE   C3412346   0.327   5.742   5.688 -0.2394 -0.2300  0.1041
  117SOPE   H4X12347   0.357   5.637   5.668  2.0102  0.1773  1.0230
  117SOPE   H4Y12348   0.422   5.800   5.697 -0.5492  0.1930  0.7181
  117SOPE   C3512349   0.260   5.806   5.565  0.0771  0.1452  0.3863
  117SOPE   H5X12350   0.208   5.899   5.597 -1.1222  0.2314 -1.5811
  117SOPE   H5Y12351   0.186   5.732   5.525  0.4284  0.7307 -1.4645
  117SOPE   C3612352   0.353   5.825   5.449  0.2527  0.3276  0.5306
  117SOPE   H6X12353   0.398   5.725   5.432  3.1496  1.3914  1.3820
  117SOPE   H6Y12354   0.433   5.891   5.489  1.7479 -0.9820 -0.2307
  117SOPE   C3712355   0.286   5.887   5.328 -0.8510  1.1048  0.2269
  117SOPE   H7X12356   0.277   5.997   5.330 -1.4253  1.0530  1.6879
  117SOPE   H7Y12357   0.193   5.837   5.293  1.2783 -2.5086 -0.8911
  117SOPE   C3812358   0.381   5.868   5.202 -0.7325 -0.2108  0.5271
  117SOPE   H8X12359   0.426   5.766   5.207  0.3019  0.1089 -1.4578
  117SOPE   H8Y12360   0.462   5.943   5.209 -2.5981  1.9292  0.4201
  117SOPE   C3912361   0.301   5.875   5.073  0.2239  0.1787 -0.2213
  117SOPE   H9X12362   0.238   5.967   5.069 -0.5524 -0.3204  0.3413
  117SOPE   H9Y12363   0.228   5.792   5.065 -0.8909  1.2350 -1.7612
  117SOPE  C31012364   0.384   5.880   4.937 -0.4838 -0.9890 -0.2615
  117SOPE  H10X12365   0.451   5.792   4.935 -0.6352 -1.1010 -0.4794
  117SOPE  H10Y12366   0.444   5.972   4.956  1.5029 -2.0745 -0.9805
  117SOPE  C31112367   0.300   5.890   4.811 -0.6289 -0.4327  0.0422
  117SOPE  H11X12368   0.226   5.972   4.819 -0.7373 -0.4182 -0.9970
  117SOPE  H11Y12369   0.245   5.794   4.800  0.5130 -0.8115 -3.8239
  117SOPE  C31212370   0.387   5.901   4.688  0.8405  0.0895  0.1938
  117SOPE  H12X12371   0.447   5.808   4.681 -1.3667 -1.5089  1.2502
  117SOPE  H12Y12372   0.461   5.984   4.689  1.0424 -0.0876 -0.0307
  117SOPE  C31312373   0.310   5.929   4.554  0.4894  0.1336 -0.0095
  117SOPE  H13X12374   0.225   5.994   4.581 -0.9040 -1.5248 -0.2041
  117SOPE  H13Y12375   0.264   5.837   4.513 -0.6434  0.1296  1.1930
  117SOPE  C31412376   0.392   6.003   4.450  0.1223 -0.0837 -0.0647
  117SOPE  H14X12377   0.463   5.941   4.392 -2.5347  0.1316 -3.9058
  117SOPE  H14Y12378   0.464   6.079   4.487  2.9804 -1.0614 -3.1300
  117SOPE  C31512379   0.285   6.060   4.353 -0.7582  0.4739  0.2135
  117SOPE  H15X12380   0.235   6.144   4.406 -0.7019  1.0596 -0.6329
  117SOPE  H15Y12381   0.198   5.993   4.341 -2.0489  2.3207 -1.3168
  117SOPE  C31612382   0.350   6.101   4.214 -0.2833  0.0762  0.5764
  117SOPE  H16X12383   0.282   6.166   4.154  1.3312 -0.6407 -2.1960
  117SOPE  H16Y12384   0.350   6.008   4.154 -2.8059  0.5811 -0.3292
  117SOPE  C31712385   0.484   6.178   4.224  0.2379 -0.3982  0.0808
  117SOPE  H17X12386   0.555   6.109   4.275 -2.3628 -3.5247 -0.1729
  117SOPE  H17Y12387   0.481   6.261   4.298  0.6642 -0.7273  0.4747
  117SOPE  C31812388   0.543   6.232   4.094  0.1707  0.4452  0.3449
  117SOPE  H18X12389   0.538   6.144   4.026  1.6284  1.0976 -0.6374
  117SOPE  H18Y12390   0.651   6.252   4.109  0.4315 -1.1428  0.8431
  117SOPE  H18Z12391   0.487   6.317   4.049 -0.9240 -1.3932 -1.9957
  118SOPE     N12392   6.676   0.322   6.331  0.1590 -0.1009 -0.1797
  118SOPE   HN112393   6.702   0.223   6.347  0.0129 -0.0493  0.4211
  118SOPE   HN212394   6.606   0.355   6.401 -0.4615  1.2956 -1.4093
  118SOPE   HN312395   6.640   0.340   6.236  0.5596  0.6354 -0.2013
  118SOPE   C1212396   6.787   0.413   6.360 -0.1958 -1.0538  0.4141
  118SOPE  H12A12397   6.870   0.383   6.293 -0.2818 -0.7438  0.1642
  118SOPE  H12B12398   6.822   0.389   6.463  1.0714 -0.4924  0.1361
  118SOPE   C1112399   6.749   0.562   6.354 -0.0777 -0.3562 -0.3049
  118SOPE  H11A12400   6.846   0.616   6.359  0.4353 -1.2455 -0.4042
  118SOPE  H11B12401   6.681   0.589   6.438  0.0303  0.6695 -0.5336
  118SOPE     P12402   6.606   0.737   6.233 -0.1078 -0.6604  0.2755
  118SOPE   O1312403   6.685   0.841   6.303  0.1484  0.1409  0.0900
  118SOPE   O1412404   6.472   0.710   6.282  0.0485  0.3766  0.0712
  118SOPE   O1212405   6.686   0.598   6.226  0.8326 -0.3467 -0.2582
  118SOPE   O1112406   6.603   0.770   6.076 -0.3492  0.3888 -0.4966
  118SOPE    C112407   6.724   0.806   6.009  1.0909 -0.5227 -0.1142
  118SOPE    HA12408   6.814   0.757   6.052  0.6390 -1.9667 -0.7483
  118SOPE    HB12409   6.735   0.915   6.027 -1.5098 -0.3506  0.8504
  118SOPE    C212410   6.709   0.796   5.851  0.2318 -0.1480 -0.2596
  118SOPE    HS12411   6.606   0.833   5.833 -0.0914 -0.6766  0.4457
  118SOPE   O2112412   6.721   0.654   5.818  0.4465  0.0212 -0.4705
  118SOPE   C2112413   6.694   0.633   5.690  0.2154 -0.0803 -0.2175
  118SOPE   O2212414   6.639   0.710   5.613  0.2586 -0.3587 -0.4004
  118SOPE   C2212415   6.724   0.491   5.647 -0.1646 -0.1806 -0.6734
  118SOPE   H2R12416   6.644   0.419   5.673  2.4424 -2.7559  0.8164
  118SOPE   H2S12417   6.815   0.455   5.699 -1.6569 -0.8362  1.6507
  118SOPE    C312418   6.812   0.870   5.770 -1.0602 -0.5839  0.0786
  118SOPE    HX12419   6.786   0.977   5.783 -0.2414 -0.2221 -1.0935
  118SOPE    HY12420   6.812   0.854   5.660 -4.3300  0.3192 -0.1581
  118SOPE   O3112421   6.946   0.850   5.832 -0.1193 -0.1937 -0.7088
  118SOPE   C3112422   7.021   0.761   5.776 -0.0789 -0.2516  0.1994
  118SOPE   O3212423   6.988   0.695   5.679 -0.5000  0.4413 -1.0969
  118SOPE   C3212424   7.152   0.740   5.851  0.6110 -0.5550 -0.3535
  118SOPE   H2X12425   7.203   0.651   5.808  0.8107 -1.0315  0.8196
  118SOPE   H2Y12426   7.121   0.718   5.956  0.4814  0.9285 -0.0684
  118SOPE   C2312427   6.745   0.495   5.499  0.5075  0.3125  0.0266
  118SOPE   H3R12428   6.832   0.555   5.466 -0.9946  1.2905 -2.3540
  118SOPE   H3S12429   6.650   0.533   5.455 -1.1038  0.1268  3.0059
  118SOPE   C2412430   6.778   0.354   5.441 -0.3527  0.3554  0.4072
  118SOPE   H4R12431   6.843   0.288   5.501 -0.3423 -2.5918 -2.5386
  118SOPE   H4S12432   6.676   0.310   5.437  0.3312 -1.3233  0.5092
  118SOPE   C2512433   6.844   0.369   5.303  0.4145  0.3046  0.1200
  118SOPE   H5R12434   6.866   0.475   5.279 -1.5939  0.6687 -0.2518
  118SOPE   H5S12435   6.940   0.313   5.292  0.0242 -0.2404 -0.6008
  118SOPE   C2612436   6.762   0.314   5.182 -0.4562  0.2196 -0.0957
  118SOPE   H6R12437   6.774   0.204   5.186  1.5539  0.4330  1.2378
  118SOPE   H6S12438   6.660   0.354   5.203 -0.8388 -1.0773  0.5757
  118SOPE   C2712439   6.812   0.376   5.054  0.0979  0.0187  0.0893
  118SOPE   H7R12440   6.814   0.487   5.060 -0.0714  0.2043 -2.3666
  118SOPE   H7S12441   6.921   0.355   5.043 -0.0514 -0.8124  0.1312
  118SOPE   C2812442   6.734   0.330   4.928 -0.2616 -0.8838 -0.3210
  118SOPE   H8R12443   6.746   0.220   4.917  0.9421 -0.6654 -1.3792
  118SOPE   H8S12444   6.624   0.348   4.934 -0.1869 -0.8513  1.1989
  118SOPE   C2912445   6.795   0.402   4.812  0.8974 -0.0792 -0.3175
  118SOPE   H9112446   6.904   0.395   4.806  0.8490 -1.0860 -0.1725
  118SOPE  C21012447   6.732   0.479   4.718  0.1237  0.3952 -0.3299
  118SOPE  H10112448   6.791   0.514   4.633  1.8271  0.0516  0.6716
  118SOPE  C21112449   6.586   0.519   4.710 -0.2764  0.2833 -0.3190
  118SOPE  H11R12450   6.522   0.466   4.784 -1.0047  1.4585 -0.0821
  118SOPE  H11S12451   6.537   0.494   4.614  0.9442 -1.9590 -0.4246
  118SOPE  C21212452   6.567   0.669   4.741 -0.5199  0.5421 -0.1127
  118SOPE  H12R12453   6.616   0.690   4.839 -1.7205  1.3015  0.3480
  118SOPE  H12S12454   6.460   0.693   4.757 -1.0271  0.3518 -2.8122
  118SOPE  C21312455   6.625   0.758   4.633  0.4860 -0.3008 -0.3001
  118SOPE  H13R12456   6.581   0.732   4.535 -1.1042  0.7275  0.1031
  118SOPE  H13S12457   6.735   0.745   4.626  0.5728  0.7645 -1.2433
  118SOPE  C21412458   6.596   0.913   4.655 -0.7896  0.6388  0.5405
  118SOPE  H14R12459   6.670   0.940   4.733  1.6406  1.2878 -1.8496
  118SOPE  H14S12460   6.497   0.939   4.697  0.1984 -0.2609  3.7385
  118SOPE  C21512461   6.627   0.997   4.527  0.2507  0.5996 -0.4776
  118SOPE  H15R12462   6.735   0.983   4.502  0.4273  0.2755  0.4313
  118SOPE  H15S12463   6.626   1.102   4.561 -1.5373  0.0881  1.2349
  118SOPE  C21612464   6.541   0.962   4.405  0.3008  0.7199 -0.1618
  118SOPE  H16R12465   6.438   0.955   4.446 -0.6384  2.0360 -2.1054
  118SOPE  H16S12466   6.561   0.859   4.369 -0.5078  0.1515  1.0016
  118SOPE  C21712467   6.554   1.069   4.297  0.1088  0.8229  0.4131
  118SOPE  H17R12468   6.658   1.097   4.270  0.0465  1.5675  0.9036
  118SOPE  H17S12469   6.507   1.159   4.342 -0.1265  0.2752  1.2800
  118SOPE  C21812470   6.467   1.037   4.173 -0.2987 -0.4688  0.0261
  118SOPE  H18R12471   6.441   1.129   4.116  0.8192  0.8089  1.5007
  118SOPE  H18S12472   6.370   0.989   4.196  1.0053 -1.4058  4.4216
  118SOPE  H18T12473   6.525   0.967   4.109 -0.1339  1.4627 -2.0772
  118SOPE   C3312474   7.226   0.873   5.848 -0.3098 -0.2866 -0.1031
  118SOPE   H3X12475   7.314   0.861   5.914 -0.5202  0.5581  0.3463
  118SOPE   H3Y12476   7.168   0.959   5.888  0.8139 -0.3581  1.7993
  118SOPE   C3412477   7.297   0.908   5.716  0.3724  0.3511  0.7838
  118SOPE   H4X12478   7.348   1.006   5.732 -0.7110  0.7841  1.6979
  118SOPE   H4Y12479   7.227   0.926   5.633  0.9300  1.6959  0.5766
  118SOPE   C3512480   7.400   0.810   5.664  0.1239  0.2557 -0.5316
  118SOPE   H5X12481   7.456   0.855   5.580 -0.5775  1.0570 -0.5779
  118SOPE   H5Y12482   7.341   0.719   5.637  0.0828  0.3325 -0.7010
  118SOPE   C3612483   7.506   0.759   5.759 -0.4710 -0.4164 -0.2720
  118SOPE   H6X12484   7.461   0.703   5.843  0.2212 -0.2500  0.2193
  118SOPE   H6Y12485   7.564   0.843   5.803 -0.2372 -0.9551  0.4703
  118SOPE   C3712486   7.597   0.655   5.690  0.0184  0.1842  0.3643
  118SOPE   H7X12487   7.531   0.567   5.672  0.2986 -0.4417  2.1561
  118SOPE   H7Y12488   7.683   0.615   5.748  0.8418  0.3762 -0.6990
  118SOPE   C3812489   7.658   0.703   5.557  0.2575 -0.0091 -0.0457
  118SOPE   H8X12490   7.581   0.722   5.480  0.4059 -1.8092 -0.6876
  118SOPE   H8Y12491   7.723   0.624   5.514 -0.0874 -0.1172 -0.3684
  118SOPE   C3912492   7.734   0.836   5.572  0.7538 -0.1670  0.0293
  118SOPE   H9X12493   7.686   0.896   5.652  0.0544 -1.5993  0.7124
  118SOPE   H9Y12494   7.742   0.898   5.480  1.8920 -1.5131 -0.8209
  118SOPE  C31012495   7.877   0.805   5.623 -1.0392  0.1402 -0.6288
  118SOPE  H10X12496   7.932   0.747   5.547  0.0984 -1.0036  0.9900
  118SOPE  H10Y12497   7.863   0.733   5.707  4.2744 -1.0894 -0.4875
  118SOPE  C31112498   7.962   0.923   5.669 -0.1443  0.0288  0.1114
  118SOPE  H11X12499   8.061   0.876   5.687 -0.1504  0.0068  0.0869
  118SOPE  H11Y12500   7.925   0.959   5.768  1.8833  1.9624  0.2394
  118SOPE  C31212501   7.987   1.044   5.578  0.1021  0.5850  0.3219
  118SOPE  H12X12502   8.049   1.114   5.638  2.2563 -0.7281 -0.2871
  118SOPE  H12Y12503   7.888   1.092   5.560  0.4365  1.5511  0.9781
  118SOPE  C31312504   8.065   1.023   5.445 -0.1900 -0.6788  0.0420
  118SOPE  H13X12505   8.144   0.947   5.464  2.0868  1.3520 -0.8106
  118SOPE  H13Y12506   8.124   1.113   5.420  1.5846 -1.0028  2.6134
  118SOPE  C31412507   7.969   0.981   5.326 -0.5000 -0.4369 -0.2236
  118SOPE  H14X12508   7.893   1.062   5.337 -0.5114 -0.2890 -1.2670
  118SOPE  H14Y12509   7.934   0.877   5.344  0.0498 -0.5541  0.2113
  118SOPE  C31512510   8.033   0.997   5.191  0.4200  0.9457  0.7988
  118SOPE  H15X12511   8.120   0.929   5.181 -0.6386 -0.1331 -2.0021
  118SOPE  H15Y12512   8.070   1.101   5.175  2.3259  0.0615 -1.0206
  118SOPE  C31612513   7.937   0.969   5.072  0.4183  0.7781  0.5327
  118SOPE  H16X12514   7.984   0.999   4.976  0.2644 -0.6841 -0.0262
  118SOPE  H16Y12515   7.853   1.040   5.087  0.5818  1.6703 -2.1544
  118SOPE  C31712516   7.888   0.825   5.051  0.1643 -0.1666  0.6758
  118SOPE  H17X12517   7.851   0.785   5.148  1.2640 -1.6839  0.5101
  118SOPE  H17Y12518   7.973   0.756   5.030 -0.1615 -0.0585 -1.1678
  118SOPE  C31812519   7.776   0.800   4.950 -0.2195  0.2986  0.0481
  118SOPE  H18X12520   7.737   0.696   4.948 -2.0428  0.9414 -2.3547
  118SOPE  H18Y12521   7.801   0.841   4.850 -2.2036  2.6449  0.4168
  118SOPE  H18Z12522   7.684   0.856   4.978 -1.7676 -2.2998  0.4206
  119SOPE     N12523   2.438   6.228   6.479  0.1153  0.1662 -0.1058
  119SOPE   HN112524   2.517   6.291   6.502  1.0227 -1.4907  1.6301
  119SOPE   HN212525   2.342   6.269   6.479 -1.2676 -2.8182  0.1602
  119SOPE   HN312526   2.440   6.154   6.552  2.0204 -0.4307 -0.7103
  119SOPE   C1212527   2.462   6.169   6.344  0.0452 -0.4130  0.1640
  119SOPE  H12A12528   2.376   6.100   6.329  0.8807 -1.7789  1.3804
  119SOPE  H12B12529   2.559   6.119   6.363  1.4715  1.2107 -2.3138
  119SOPE   C1112530   2.487   6.280   6.238 -0.1002  0.1866 -1.0489
  119SOPE  H11A12531   2.391   6.332   6.222  0.8112  2.9356  1.4312
  119SOPE  H11B12532   2.510   6.237   6.138  0.5815  1.8315 -1.6323
  119SOPE     P12533   2.553   6.526   6.311 -0.1668  0.3763 -0.1427
  119SOPE   O1312534   2.667   6.624   6.304  0.0548  0.3082 -0.2962
  119SOPE   O1412535   2.469   6.522   6.434  0.3280  0.3605  0.4735
  119SOPE   O1212536   2.594   6.373   6.278  0.4024 -0.1818 -0.0403
  119SOPE   O1112537   2.457   6.552   6.188 -0.4789  0.5567 -0.0551
  119SOPE    C112538   2.525   6.570   6.061  0.5767 -0.3345  0.3116
  119SOPE    HA12539   2.599   6.489   6.041 -0.4242 -1.2172  0.0814
  119SOPE    HB12540   2.566   6.673   6.062 -3.1334  1.2798  1.1840
  119SOPE    C212541   2.430   6.561   5.931  0.2761 -0.0538  0.0279
  119SOPE    HS12542   2.360   6.647   5.936 -0.3453 -0.4658 -1.2288
  119SOPE   O2112543   2.358   6.433   5.950  0.1112 -0.3062  0.5226
  119SOPE   C2112544   2.239   6.434   5.891  0.1599 -0.4445 -0.2111
  119SOPE   O2212545   2.188   6.533   5.842 -0.1576  0.3203  0.1260
  119SOPE   C2212546   2.180   6.295   5.907  0.0902 -0.0887  0.0009
  119SOPE   H2R12547   2.137   6.297   6.009  0.6267  0.9538  0.2193
  119SOPE   H2S12548   2.260   6.220   5.891  0.3223 -0.2218  1.6386
  119SOPE    C312549   2.497   6.578   5.797  0.0694  0.5673  0.4268
  119SOPE    HX12550   2.418   6.586   5.719 -0.5793  0.1159  1.0265
  119SOPE    HY12551   2.558   6.485   5.789 -1.2939 -0.4992  1.7681
  119SOPE   O3112552   2.577   6.695   5.785 -0.4868 -0.0016  0.3206
  119SOPE   C3112553   2.711   6.680   5.819 -0.8096  0.3813  0.6838
  119SOPE   O3212554   2.756   6.584   5.874  0.3354  0.3121 -0.3832
  119SOPE   C3212555   2.781   6.822   5.796  0.5400  0.0191 -0.1261
  119SOPE   H2X12556   2.718   6.896   5.849 -0.3107  1.8597 -3.4531
  119SOPE   H2Y12557   2.783   6.843   5.687 -2.9404  4.3540  0.3675
  119SOPE   C2312558   2.063   6.263   5.813  0.0524 -0.3291 -0.3894
  119SOPE   H3R12559   1.977   6.328   5.839 -0.0833 -1.1716  1.4207
  119SOPE   H3S12560   2.024   6.163   5.843 -0.3756 -0.1245 -0.2536
  119SOPE   C2412561   2.110   6.276   5.665  0.1773  0.7828 -0.2032
  119SOPE   H4R12562   2.162   6.370   5.638 -1.1997  1.2549 -1.2980
  119SOPE   H4S12563   2.180   6.192   5.643 -0.1116 -0.0064  1.6305
  119SOPE   C2512564   1.992   6.247   5.577  0.2316 -0.1706 -0.2392
  119SOPE   H5R12565   1.985   6.137   5.560 -1.0873 -0.2623  0.7808
  119SOPE   H5S12566   1.892   6.265   5.619 -0.0685  3.1274 -2.0319
  119SOPE   C2612567   1.987   6.316   5.447 -0.1916  0.0916  0.2520
  119SOPE   H6R12568   1.887   6.322   5.400 -0.0694  0.3832  0.0292
  119SOPE   H6S12569   2.035   6.414   5.465  0.8619 -0.5393  1.0014
  119SOPE   C2712570   2.080   6.244   5.345 -0.0949  0.3315  0.4214
  119SOPE   H7R12571   2.184   6.236   5.381  0.4285  0.9055 -0.9029
  119SOPE   H7S12572   2.033   6.143   5.350 -2.1109  1.2207  0.6687
  119SOPE   C2812573   2.089   6.307   5.197 -0.4017 -0.7790  0.1100
  119SOPE   H8R12574   2.153   6.240   5.137 -0.7758 -1.2709  0.2531
  119SOPE   H8S12575   1.986   6.307   5.156 -0.2503  0.1278 -0.2990
  119SOPE   C2912576   2.154   6.444   5.209 -0.2770  0.8717 -0.0682
  119SOPE   H9112577   2.122   6.516   5.285  0.4187 -0.0834  1.1722
  119SOPE  C21012578   2.260   6.483   5.134 -0.1557  0.3695 -0.1421
  119SOPE  H10112579   2.316   6.576   5.148 -1.5007  1.4279 -1.4127
  119SOPE  C21112580   2.342   6.398   5.045  0.7108  0.2603  0.4935
  119SOPE  H11R12581   2.386   6.458   4.962  0.6051 -0.4356 -0.0664
  119SOPE  H11S12582   2.294   6.310   4.998  1.9238  0.2086 -0.7232
  119SOPE  C21212583   2.456   6.332   5.130  0.9522 -0.1470  1.0364
  119SOPE  H12R12584   2.510   6.273   5.053  0.2834 -0.5068  0.8389
  119SOPE  H12S12585   2.413   6.258   5.199 -1.4360 -1.3233 -1.5326
  119SOPE  C21312586   2.552   6.427   5.201  0.5268  0.2895 -0.6745
  119SOPE  H13R12587   2.513   6.467   5.297 -1.2486 -0.0331 -1.2441
  119SOPE  H13S12588   2.589   6.510   5.136 -0.6876  1.2455 -0.1740
  119SOPE  C21412589   2.686   6.348   5.243  0.1460  0.7753  0.0381
  119SOPE  H14R12590   2.725   6.310   5.147  3.6179  4.9018 -0.4769
  119SOPE  H14S12591   2.652   6.267   5.311  2.4119 -0.8030 -0.6155
  119SOPE  C21512592   2.798   6.425   5.313  0.0410  0.3393  0.2884
  119SOPE  H15R12593   2.840   6.505   5.249  0.1376  0.3513  0.3675
  119SOPE  H15S12594   2.883   6.356   5.337 -1.7383 -1.6704  1.1487
  119SOPE  C21612595   2.764   6.493   5.446  0.4467  0.3269 -0.4967
  119SOPE  H16R12596   2.739   6.425   5.530  0.3867  1.1867  0.1962
  119SOPE  H16S12597   2.681   6.565   5.426  0.6584  0.1990 -1.9590
  119SOPE  C21712598   2.887   6.578   5.493 -0.3595  0.0210 -0.1486
  119SOPE  H17R12599   2.843   6.658   5.556  1.2456  2.5175 -1.9680
  119SOPE  H17S12600   2.936   6.631   5.408 -0.6911  2.2274  0.9767
  119SOPE  C21812601   2.989   6.492   5.570  0.4856  0.4641  0.0924
  119SOPE  H18R12602   2.928   6.464   5.659  0.4166  0.3832  0.0186
  119SOPE  H18S12603   3.081   6.540   5.611  0.3246 -0.9960  2.3462
  119SOPE  H18T12604   3.010   6.401   5.511  0.8982  4.0138 -6.0679
  119SOPE   C3312605   2.922   6.838   5.861 -0.3235 -0.6560 -0.6219
  119SOPE   H3X12606   2.905   6.782   5.956 -1.5502 -1.6685 -1.3986
  119SOPE   H3Y12607   2.935   6.946   5.882 -1.1392 -0.6068 -0.3211
  119SOPE   C3412608   3.036   6.796   5.759  0.4654  0.2099 -0.1273
  119SOPE   H4X12609   3.022   6.692   5.722 -0.6896  0.3065  0.0275
  119SOPE   H4Y12610   3.134   6.797   5.812 -0.3317  0.9171  1.4002
  119SOPE   C3512611   3.042   6.886   5.629  0.0142  1.0166  0.4977
  119SOPE   H5X12612   3.017   6.992   5.653 -0.9861  1.0265 -0.4969
  119SOPE   H5Y12613   2.962   6.866   5.554  1.0058  0.7263 -0.5065
  119SOPE   C3612614   3.181   6.894   5.564 -0.3880 -0.4887 -0.3842
  119SOPE   H6X12615   3.199   6.793   5.522  0.8572 -1.6973  2.7457
  119SOPE   H6Y12616   3.269   6.906   5.631  0.3059 -5.2575 -0.0907
  119SOPE   C3712617   3.195   7.011   5.461  0.7680  0.1015  0.1803
  119SOPE   H7X12618   3.302   7.015   5.431  1.2785 -0.2014  1.8546
  119SOPE   H7Y12619   3.158   7.103   5.510 -0.3839 -0.6393  0.7575
  119SOPE   C3812620   3.096   6.999   5.341 -0.6040 -0.3273  0.9661
  119SOPE   H8X12621   3.090   7.098   5.293 -0.2616 -0.1438  1.2973
  119SOPE   H8Y12622   2.994   6.969   5.372 -0.5691  0.2454  1.6508
  119SOPE   C3912623   3.147   6.896   5.239 -0.3467 -0.3739  0.8335
  119SOPE   H9X12624   3.138   6.792   5.277 -2.1985 -1.4496 -2.1705
  119SOPE   H9Y12625   3.257   6.908   5.227 -0.6197  0.0926 -1.9858
  119SOPE  C31012626   3.100   6.912   5.097  0.1452 -0.3348 -0.3891
  119SOPE  H10X12627   3.126   7.011   5.054  1.4785 -0.1160  0.8333
  119SOPE  H10Y12628   2.991   6.902   5.081  0.2988 -0.6919 -1.2928
  119SOPE  C31112629   3.161   6.802   5.007  0.2598  0.1158  0.3793
  119SOPE  H11X12630   3.129   6.707   5.056  0.8454 -0.9707 -1.2783
  119SOPE  H11Y12631   3.272   6.800   5.012  0.2604  0.0705  0.3538
  119SOPE  C31212632   3.113   6.801   4.861  0.3407  0.0134  0.1886
  119SOPE  H12X12633   3.136   6.904   4.828 -1.6230  0.7596  0.9458
  119SOPE  H12Y12634   3.002   6.795   4.849  0.4470 -0.9400 -0.4340
  119SOPE  C31312635   3.173   6.703   4.771  0.2580  0.1808  0.5629
  119SOPE  H13X12636   3.123   6.712   4.672 -3.7379  0.9196  2.4677
  119SOPE  H13Y12637   3.137   6.605   4.810  0.6316  0.2685  1.1259
  119SOPE  C31412638   3.325   6.700   4.758 -0.9415 -0.7668  0.6066
  119SOPE  H14X12639   3.349   6.608   4.701 -4.3570 -0.9998 -0.6985
  119SOPE  H14Y12640   3.372   6.689   4.858 -0.9842  2.6090  1.1134
  119SOPE  C31512641   3.378   6.832   4.695 -0.1466  0.2904  0.1009
  119SOPE  H15X12642   3.334   6.913   4.757 -0.3235 -1.6653  2.6666
  119SOPE  H15Y12643   3.344   6.861   4.593 -0.1907  0.4511  0.1607
  119SOPE  C31612644   3.534   6.853   4.701 -0.0623  0.3499 -0.4956
  119SOPE  H16X12645   3.570   6.911   4.613  1.5094  0.9216  0.4669
  119SOPE  H16Y12646   3.578   6.752   4.710  0.2101  0.6433  2.9626
  119SOPE  C31712647   3.581   6.928   4.828 -0.5077 -1.0065 -0.0570
  119SOPE  H17X12648   3.517   6.891   4.910 -0.1644 -2.3240 -0.3664
  119SOPE  H17Y12649   3.547   7.034   4.828  0.0774 -0.8098  0.2603
  119SOPE  C31812650   3.733   6.918   4.857  1.0864  0.2526 -0.2995
  119SOPE  H18X12651   3.761   6.817   4.893  0.5879  0.3173  0.2933
  119SOPE  H18Y12652   3.769   7.001   4.922 -0.8872  1.8019 -1.0546
  119SOPE  H18Z12653   3.767   6.936   4.753  0.6972  1.8864 -0.1732
  120SOPE     N12654   2.156   1.991   6.346  0.5761  0.3690 -0.2849
  120SOPE   HN112655   2.211   1.966   6.430 -1.6394  0.6493  1.3413
  120SOPE   HN212656   2.142   2.093   6.329  0.2245  0.1233 -1.6678
  120SOPE   HN312657   2.073   1.929   6.343  1.0528 -0.3407  0.7791
  120SOPE   C1212658   2.220   1.942   6.220  0.1266  0.2069 -0.3691
  120SOPE  H12A12659   2.175   2.001   6.137  0.2388  1.7355  0.6171
  120SOPE  H12B12660   2.187   1.836   6.210  0.7227 -0.2688  1.9883
  120SOPE   C1112661   2.373   1.947   6.235 -0.2091  0.1438  0.0455
  120SOPE  H11A12662   2.410   1.871   6.163  1.0128  2.3499 -1.7917
  120SOPE  H11B12663   2.405   1.903   6.333 -1.7410 -0.2823  0.3756
  120SOPE     P12664   2.562   2.099   6.142  0.4133 -0.0190  0.0581
  120SOPE   O1312665   2.658   2.040   6.237  0.0463 -0.2422 -0.4297
  120SOPE   O1412666   2.569   2.243   6.120 -0.1974 -0.1321  0.3291
  120SOPE   O1212667   2.426   2.080   6.214  0.5961  0.4204 -0.5806
  120SOPE   O1112668   2.540   2.017   6.005  0.0020 -0.0619  0.0598
  120SOPE    C112669   2.443   2.047   5.902 -0.3428  0.2710  0.0023
  120SOPE    HA12670   2.395   2.145   5.924 -0.3884  0.1412  0.4813
  120SOPE    HB12671   2.367   1.967   5.891 -1.2881  1.1696 -0.2445
  120SOPE    C212672   2.506   2.061   5.762 -0.1453 -0.7166 -0.2937
  120SOPE    HS12673   2.434   2.135   5.719  1.2523  2.8959  2.9864
  120SOPE   O2112674   2.526   1.934   5.697  0.4671 -0.1597 -0.3150
  120SOPE   C2112675   2.516   1.953   5.570  0.0407  0.1664  0.1524
  120SOPE   O2212676   2.461   2.048   5.508 -0.0705  0.3669  1.1659
  120SOPE   C2212677   2.593   1.835   5.510 -0.6946  0.3665  0.6306
  120SOPE   H2R12678   2.518   1.762   5.475 -0.4556 -0.4699  1.7900
  120SOPE   H2S12679   2.657   1.781   5.584 -1.6032  0.3722  1.4388
  120SOPE    C312680   2.634   2.141   5.759  0.2721 -0.1165 -0.5321
  120SOPE    HX12681   2.710   2.072   5.803  0.7811  1.4698  1.1592
  120SOPE    HY12682   2.630   2.225   5.830  3.5472  0.1719 -0.5088
  120SOPE   O3112683   2.692   2.180   5.629  0.1718 -0.0156 -0.5421
  120SOPE   C3112684   2.634   2.288   5.577  0.0529 -0.7371  0.7882
  120SOPE   O3212685   2.562   2.366   5.640 -0.3746 -0.1356 -0.6671
  120SOPE   C3212686   2.638   2.294   5.419  0.0731  0.6297 -0.1026
  120SOPE   H2X12687   2.647   2.192   5.377  0.2441 -0.0342  1.4545
  120SOPE   H2Y12688   2.738   2.335   5.396  0.7340 -0.3792  0.8424
  120SOPE   C2312689   2.688   1.868   5.392 -0.4391  0.5492  0.3989
  120SOPE   H3R12690   2.750   1.779   5.368  0.7476  1.3384  0.4692
  120SOPE   H3S12691   2.761   1.950   5.408  1.4473 -0.7203 -1.2262
  120SOPE   C2412692   2.608   1.885   5.264  0.2150 -0.0534 -0.2118
  120SOPE   H4R12693   2.556   1.790   5.238  0.1998 -0.6721  1.9036
  120SOPE   H4S12694   2.524   1.951   5.293  0.7925 -0.3940  2.5547
  120SOPE   C2512695   2.692   1.938   5.148 -0.2292  0.0821  0.5235
  120SOPE   H5R12696   2.740   2.037   5.166  4.6766 -1.8746 -0.3957
  120SOPE   H5S12697   2.770   1.866   5.116 -1.1073  0.1424 -2.0211
  120SOPE   C2612698   2.618   1.944   5.013  0.3204 -0.4780 -0.4178
  120SOPE   H6R12699   2.591   1.836   5.008 -0.3342 -0.7364  4.1978
  120SOPE   H6S12700   2.517   1.988   5.021  0.2914 -0.8926  2.4532
  120SOPE   C2712701   2.697   1.989   4.887 -0.2608 -0.5632  0.7515
  120SOPE   H7R12702   2.719   2.098   4.886  0.7840 -0.7723 -0.2372
  120SOPE   H7S12703   2.792   1.932   4.881  0.9614  1.3410  1.2597
  120SOPE   C2812704   2.632   1.950   4.753 -1.5450  0.1938 -0.6784
  120SOPE   H8R12705   2.699   1.975   4.668  0.1981 -1.4533  0.1442
  120SOPE   H8S12706   2.623   1.839   4.752 -2.8309  0.2694  0.2385
  120SOPE   C2912707   2.498   2.012   4.740 -0.0730 -0.2852  0.5221
  120SOPE   H9112708   2.421   1.990   4.815 -0.8274  1.1667  0.2193
  120SOPE  C21012709   2.448   2.084   4.642  0.1966  0.1073  0.2952
  120SOPE  H10112710   2.338   2.094   4.638  0.2603  0.9360 -3.3038
  120SOPE  C21112711   2.509   2.138   4.514  0.8002 -0.5491 -0.0561
  120SOPE  H11R12712   2.445   2.106   4.429  2.9114 -1.4568 -1.4053
  120SOPE  H11S12713   2.610   2.097   4.490  0.4187 -0.1952 -2.5443
  120SOPE  C21212714   2.514   2.292   4.531  0.4539  0.0536 -0.4341
  120SOPE  H12R12715   2.415   2.342   4.540  1.2517  2.1837 -2.3198
  120SOPE  H12S12716   2.556   2.317   4.431  1.5019 -2.8303 -0.8143
  120SOPE  C21312717   2.613   2.347   4.629 -0.1251  0.8668 -0.1552
  120SOPE  H13R12718   2.706   2.286   4.631  0.8794  2.3595  0.5921
  120SOPE  H13S12719   2.576   2.324   4.732  1.7225  0.5597  0.4741
  120SOPE  C21412720   2.639   2.498   4.605 -0.7794 -0.6689 -0.0673
  120SOPE  H14R12721   2.542   2.552   4.618 -1.5594 -1.9817 -0.2488
  120SOPE  H14S12722   2.672   2.513   4.500  0.2253  2.2733  0.5950
  120SOPE  C21512723   2.739   2.562   4.703 -0.0311 -0.6264  0.3481
  120SOPE  H15R12724   2.835   2.507   4.689 -0.7196 -1.7867  0.0516
  120SOPE  H15S12725   2.701   2.543   4.806  0.9999  0.0526  0.8746
  120SOPE  C21612726   2.748   2.716   4.687 -0.2496 -0.2167  0.1481
  120SOPE  H16R12727   2.805   2.759   4.771 -1.1900 -1.8764  1.7133
  120SOPE  H16S12728   2.646   2.760   4.694  0.3479  1.2504 -0.0974
  120SOPE  C21712729   2.802   2.771   4.552 -0.1832 -0.4490  0.6954
  120SOPE  H17R12730   2.768   2.705   4.470 -1.2841  0.5905  0.2751
  120SOPE  H17S12731   2.913   2.775   4.566 -0.3132  1.5173  1.5989
  120SOPE  C21812732   2.764   2.917   4.522  0.0993 -0.2408  0.3449
  120SOPE  H18R12733   2.788   2.980   4.610 -0.7720 -1.0974  1.2157
  120SOPE  H18S12734   2.655   2.933   4.502  0.3500  2.4891  0.6822
  120SOPE  H18T12735   2.813   2.963   4.433 -0.0410 -0.6692  0.0408
  120SOPE   C3312736   2.531   2.368   5.350  0.4731 -0.7417 -1.0913
  120SOPE   H3X12737   2.558   2.475   5.343 -0.8743 -0.1894  1.2952
  120SOPE   H3Y12738   2.433   2.355   5.399 -0.0414  0.3368 -1.7973
  120SOPE   C3412739   2.513   2.342   5.205  0.3184  0.6599 -0.6152
  120SOPE   H4X12740   2.495   2.233   5.195  0.6459  0.2779  2.0667
  120SOPE   H4Y12741   2.609   2.374   5.160  1.6616  1.3365  2.4471
  120SOPE   C3512742   2.399   2.418   5.144  0.5949 -0.0630 -0.3451
  120SOPE   H5X12743   2.409   2.525   5.170 -0.1024 -0.3143  1.0657
  120SOPE   H5Y12744   2.302   2.383   5.188 -2.2871  0.2904 -5.5850
  120SOPE   C3612745   2.385   2.397   4.998 -0.2440  0.0757  0.0888
  120SOPE   H6X12746   2.370   2.288   4.985  1.5650 -0.0678 -0.9988
  120SOPE   H6Y12747   2.479   2.431   4.951 -0.4395  2.6799  1.4110
  120SOPE   C3712748   2.267   2.476   4.939  0.1399 -0.0301  0.1763
  120SOPE   H7X12749   2.290   2.585   4.936 -0.6002  0.1642  1.2063
  120SOPE   H7Y12750   2.176   2.450   4.997 -0.1614  0.7490  0.0635
  120SOPE   C3812751   2.219   2.448   4.791 -0.4794  0.1153  0.4444
  120SOPE   H8X12752   2.213   2.340   4.769 -2.3643 -0.2248  2.3051
  120SOPE   H8Y12753   2.298   2.495   4.729  1.0521 -0.1039  2.1427
  120SOPE   C3912754   2.084   2.503   4.763 -0.0700 -0.7219 -0.0675
  120SOPE   H9X12755   2.071   2.603   4.809  0.2203 -1.2816  1.2804
  120SOPE   H9Y12756   2.008   2.435   4.807 -1.9813 -0.2466 -2.4524
  120SOPE  C31012757   2.054   2.505   4.612  0.7702 -0.0318  0.1026
  120SOPE  H10X12758   1.946   2.520   4.592  1.0924  0.0359 -1.8689
  120SOPE  H10Y12759   2.081   2.403   4.576  0.7197  0.0859 -0.2806
  120SOPE  C31112760   2.124   2.619   4.526 -0.9068  0.4238 -0.4760
  120SOPE  H11X12761   2.233   2.623   4.550 -0.7490 -2.2742 -0.4370
  120SOPE  H11Y12762   2.085   2.717   4.560 -2.3836 -0.5116  0.6890
  120SOPE  C31212763   2.099   2.605   4.380 -0.1176 -0.2738  0.2323
  120SOPE  H12X12764   1.996   2.575   4.354  1.0416 -3.1362 -1.6270
  120SOPE  H12Y12765   2.160   2.518   4.347  2.9151  2.2482 -1.3994
  120SOPE  C31312766   2.143   2.721   4.288  0.1087 -0.5082  0.0481
  120SOPE  H13X12767   2.082   2.810   4.316 -1.4199 -1.2318 -0.8714
  120SOPE  H13Y12768   2.123   2.695   4.182 -0.0018 -1.3061  0.2635
  120SOPE  C31412769   2.291   2.773   4.308 -0.5376 -0.5791  0.4440
  120SOPE  H14X12770   2.300   2.815   4.410  1.0322  2.8969 -0.9985
  120SOPE  H14Y12771   2.310   2.848   4.229 -0.5444 -0.1228  0.8743
  120SOPE  C31512772   2.395   2.659   4.291 -0.0419  0.0900  0.2041
  120SOPE  H15X12773   2.398   2.606   4.193 -0.5425 -0.4030  0.4478
  120SOPE  H15Y12774   2.375   2.581   4.367 -0.0537  0.4110  0.5304
  120SOPE  C31612775   2.539   2.714   4.314 -0.0706  0.0373  0.5584
  120SOPE  H16X12776   2.601   2.622   4.310 -0.1698 -0.0268  0.4856
  120SOPE  H16Y12777   2.553   2.760   4.414 -1.7731  2.8550 -0.3708
  120SOPE  C31712778   2.589   2.812   4.209  0.1395 -0.6849 -0.3474
  120SOPE  H17X12779   2.693   2.838   4.238 -0.1150 -0.1938  0.1455
  120SOPE  H17Y12780   2.537   2.910   4.214  0.1950 -0.7237  1.4478
  120SOPE  C31812781   2.601   2.742   4.073  0.1884  0.2286 -0.2741
  120SOPE  H18X12782   2.679   2.663   4.083  0.7960  0.3812 -3.0715
  120SOPE  H18Y12783   2.642   2.818   4.003 -0.2104 -0.4084 -1.2108
  120SOPE  H18Z12784   2.507   2.698   4.033 -0.0478 -0.5455  1.0789
  121SOPE     N12785   0.102   1.893   6.503 -0.0121 -0.4768 -0.0251
  121SOPE   HN112786   0.046   1.979   6.486 -0.5153 -1.1774 -2.2676
  121SOPE   HN212787   0.043   1.820   6.547 -1.4585 -0.2897 -1.5712
  121SOPE   HN312788   0.192   1.928   6.543 -0.7484  4.8277 -2.2747
  121SOPE   C1212789   0.156   1.843   6.375  0.0464  0.0320 -0.6050
  121SOPE  H12A12790   0.212   1.932   6.340 -1.0255  1.4663  1.1139
  121SOPE  H12B12791   0.082   1.823   6.295 -1.3877 -0.2817  0.7423
  121SOPE   C1112792   0.251   1.719   6.396 -0.6560 -0.4485 -0.1697
  121SOPE  H11A12793   0.270   1.683   6.293 -0.2207 -1.1748  0.1597
  121SOPE  H11B12794   0.195   1.639   6.450 -1.8440  0.7507  0.4416
  121SOPE     P12795   0.503   1.684   6.430 -0.1626 -0.1514 -0.1099
  121SOPE   O1312796   0.474   1.541   6.444 -0.1943 -0.6591 -0.2795
  121SOPE   O1412797   0.618   1.731   6.502  0.1082  0.1349 -0.3410
  121SOPE   O1212798   0.370   1.765   6.460  0.4111 -0.4551 -0.3615
  121SOPE   O1112799   0.531   1.705   6.278 -0.6134 -0.9750  0.4180
  121SOPE    C112800   0.518   1.841   6.228  0.4704  0.1473 -0.1740
  121SOPE    HA12801   0.608   1.902   6.249  0.1542 -0.0276  1.8977
  121SOPE    HB12802   0.437   1.899   6.278  0.5270  1.0098 -1.0684
  121SOPE    C212803   0.494   1.847   6.081  1.0530  0.4460  0.3641
  121SOPE    HS12804   0.468   1.955   6.070 -0.6355  0.2703  2.0623
  121SOPE   O2112805   0.388   1.745   6.054 -0.9182 -0.1618 -0.1084
  121SOPE   C2112806   0.316   1.782   5.948  0.3488 -1.2672 -0.5562
  121SOPE   O2212807   0.322   1.900   5.908  0.4952 -0.0833 -0.2020
  121SOPE   C2212808   0.235   1.661   5.893  0.1088 -0.4875 -0.5183
  121SOPE   H2R12809   0.141   1.663   5.953  0.1632 -1.5768 -0.3777
  121SOPE   H2S12810   0.294   1.567   5.893 -1.3025 -1.4462  1.5118
  121SOPE    C312811   0.627   1.806   5.995 -0.5443 -0.3398 -0.0377
  121SOPE    HX12812   0.645   1.697   6.006  0.7761 -0.0943  0.4274
  121SOPE    HY12813   0.709   1.851   6.056 -0.4975  0.7356 -0.8660
  121SOPE   O3112814   0.609   1.835   5.854 -0.3664 -0.2320  0.2375
  121SOPE   C3112815   0.685   1.931   5.809 -0.5565  0.8894  0.2261
  121SOPE   O3212816   0.789   1.975   5.858  0.5747 -0.5197  0.2106
  121SOPE   C3212817   0.622   1.966   5.675 -0.0318 -0.2640 -0.2030
  121SOPE   H2X12818   0.632   2.077   5.678 -0.0205 -0.2298 -1.2997
  121SOPE   H2Y12819   0.511   1.955   5.680 -0.1220  0.6593  0.0800
  121SOPE   C2312820   0.189   1.675   5.746 -0.4581  0.0338  0.1423
  121SOPE   H3R12821   0.139   1.774   5.742  2.4451  1.5894 -0.3791
  121SOPE   H3S12822   0.112   1.597   5.728 -0.3466  0.0487 -0.3907
  121SOPE   C2412823   0.309   1.669   5.648  0.3318 -0.4005  0.3229
  121SOPE   H4R12824   0.362   1.766   5.658 -2.1612  1.4402 -2.3886
  121SOPE   H4S12825   0.383   1.588   5.660  0.2909 -0.8070 -1.7957
  121SOPE   C2512826   0.249   1.674   5.510  0.3633  0.1291  0.6009
  121SOPE   H5R12827   0.185   1.587   5.484  0.0417  0.7032 -0.6174
  121SOPE   H5S12828   0.190   1.767   5.522 -0.3605 -0.4092  1.3178
  121SOPE   C2612829   0.347   1.697   5.395 -0.8279 -0.0676 -0.2836
  121SOPE   H6R12830   0.407   1.791   5.402 -0.9674  0.0118 -0.1349
  121SOPE   H6S12831   0.419   1.613   5.398  1.1134  1.5446  0.8485
  121SOPE   C2712832   0.277   1.696   5.264 -0.2568 -0.9547  0.6309
  121SOPE   H7R12833   0.240   1.593   5.248  0.8546 -1.0944 -1.2806
  121SOPE   H7S12834   0.194   1.770   5.257  2.2116  2.0607  0.9921
  121SOPE   C2812835   0.375   1.740   5.152 -0.9237 -0.8420  0.2888
  121SOPE   H8R12836   0.401   1.848   5.157  0.6402 -1.0903 -1.3263
  121SOPE   H8S12837   0.473   1.690   5.168  0.0565  0.8634 -0.1069
  121SOPE   C2912838   0.319   1.717   5.012  0.0988  0.2018  1.0747
  121SOPE   H9112839   0.230   1.771   4.978 -0.5431  0.0818  2.4841
  121SOPE  C21012840   0.363   1.617   4.930  0.6529  0.1154 -0.1599
  121SOPE  H10112841   0.305   1.591   4.840 -0.3507 -1.5705  0.9082
  121SOPE  C21112842   0.487   1.540   4.940  0.4804  0.2289 -0.2658
  121SOPE  H11R12843   0.477   1.430   4.944  2.3313 -0.0671 -2.3286
  121SOPE  H11S12844   0.549   1.578   5.024 -0.3978  1.0710  0.0215
  121SOPE  C21212845   0.557   1.564   4.810 -0.0032 -0.0548 -0.4671
  121SOPE  H12R12846   0.660   1.521   4.817 -0.4939 -1.7012 -2.4399
  121SOPE  H12S12847   0.574   1.672   4.790  1.0773 -0.0579  0.3023
  121SOPE  C21312848   0.502   1.488   4.687  0.2670 -0.0301 -0.8338
  121SOPE  H13R12849   0.407   1.527   4.645  0.8351  1.5908 -0.6884
  121SOPE  H13S12850   0.491   1.380   4.712  0.2312  0.2854  0.5637
  121SOPE  C21412851   0.610   1.496   4.572 -0.3062 -0.4066  0.7637
  121SOPE  H14R12852   0.699   1.436   4.601  1.2375  1.9928  1.3331
  121SOPE  H14S12853   0.648   1.600   4.574  1.1252 -0.8464 -0.7696
  121SOPE  C21512854   0.550   1.461   4.435 -0.2967  0.3465  0.6149
  121SOPE  H15R12855   0.467   1.531   4.415 -2.7354 -2.3908  0.5360
  121SOPE  H15S12856   0.511   1.358   4.450 -1.3962  0.8005  0.9176
  121SOPE  C21612857   0.642   1.481   4.319 -0.1111  0.6904 -1.0853
  121SOPE  H16R12858   0.742   1.448   4.355  0.1971  0.7401 -1.8804
  121SOPE  H16S12859   0.653   1.588   4.290  1.7013  0.8878  0.2214
  121SOPE  C21712860   0.606   1.399   4.197  0.4558  0.2636 -0.3451
  121SOPE  H17R12861   0.499   1.401   4.166  0.5045  0.7369 -0.4981
  121SOPE  H17S12862   0.627   1.294   4.224 -0.0877 -0.0414 -1.0603
  121SOPE  C21812863   0.698   1.438   4.072  0.7386 -0.6499 -0.6730
  121SOPE  H18R12864   0.805   1.427   4.099  1.2758 -0.2535 -2.5186
  121SOPE  H18S12865   0.683   1.543   4.040  0.9451 -0.5698 -0.5102
  121SOPE  H18T12866   0.687   1.370   3.986  1.6788  0.2522 -1.5287
  121SOPE   C3312867   0.689   1.901   5.557  0.3168 -0.0083 -0.1713
  121SOPE   H3X12868   0.671   1.791   5.558 -0.9047  0.0880 -2.6373
  121SOPE   H3Y12869   0.798   1.918   5.570  0.2270 -0.5183  1.4430
  121SOPE   C3412870   0.620   1.953   5.429  0.0153  0.5270 -0.1728
  121SOPE   H4X12871   0.654   2.056   5.403 -0.8094  0.3775 -1.9996
  121SOPE   H4Y12872   0.510   1.960   5.439 -0.1150  1.7593 -1.8540
  121SOPE   C3512873   0.659   1.869   5.297  0.7465 -0.3733  0.1975
  121SOPE   H5X12874   0.588   1.904   5.219 -1.3767 -1.9644  1.3209
  121SOPE   H5Y12875   0.623   1.764   5.303  3.8013 -1.6548 -1.4585
  121SOPE   C3612876   0.811   1.853   5.275 -0.2963  0.4999  0.4188
  121SOPE   H6X12877   0.836   1.745   5.279  0.3532  0.5598 -1.4133
  121SOPE   H6Y12878   0.873   1.898   5.355  0.9359 -2.7280  1.4646
  121SOPE   C3712879   0.863   1.898   5.142  0.0962  0.5251 -0.5733
  121SOPE   H7X12880   0.969   1.865   5.130 -0.1292  0.1026 -1.4580
  121SOPE   H7Y12881   0.856   2.008   5.127  1.5377  0.7280  0.0908
  121SOPE   C3812882   0.790   1.847   5.020  0.0641  0.3307  0.6388
  121SOPE   H8X12883   0.692   1.897   5.014 -0.5290 -0.9595 -1.5663
  121SOPE   H8Y12884   0.781   1.736   5.019 -0.1452  0.3304  1.6269
  121SOPE   C3912885   0.874   1.882   4.894  0.8883 -0.9862 -0.0182
  121SOPE   H9X12886   0.983   1.868   4.908  0.6587 -1.6486  1.2677
  121SOPE   H9Y12887   0.876   1.991   4.872  3.7546 -1.3221 -1.9490
  121SOPE  C31012888   0.832   1.809   4.768 -0.4859 -0.0736 -0.7102
  121SOPE  H10X12889   0.744   1.842   4.710  0.2314  2.2742 -0.5493
  121SOPE  H10Y12890   0.801   1.711   4.811 -2.5249  0.7104 -0.2708
  121SOPE  C31112891   0.964   1.781   4.680 -0.4853 -0.1108  0.2939
  121SOPE  H11X12892   1.054   1.763   4.743 -1.2944 -1.4426  1.1156
  121SOPE  H11Y12893   0.985   1.864   4.610 -1.0199 -0.5529 -0.4088
  121SOPE  C31212894   0.959   1.660   4.587 -0.4363  0.9639  0.1656
  121SOPE  H12X12895   0.892   1.683   4.502 -0.0428  2.0040  0.1084
  121SOPE  H12Y12896   0.918   1.569   4.634 -1.8298  0.4794 -1.8812
  121SOPE  C31312897   1.094   1.620   4.545 -0.6204  0.7570 -0.1917
  121SOPE  H13X12898   1.140   1.585   4.640  0.0757  2.6723  0.2327
  121SOPE  H13Y12899   1.143   1.712   4.507 -0.8833  1.0472  0.1580
  121SOPE  C31412900   1.091   1.515   4.432 -0.4879  0.2029 -0.7814
  121SOPE  H14X12901   1.051   1.555   4.336 -0.7831 -1.6682 -1.4765
  121SOPE  H14Y12902   1.024   1.431   4.460  0.7111  0.1545  2.2100
  121SOPE  C31512903   1.237   1.465   4.421  0.3142  0.6162  0.4484
  121SOPE  H15X12904   1.272   1.436   4.522 -1.2045 -0.3861  0.7066
  121SOPE  H15Y12905   1.294   1.556   4.391 -0.4607  1.3407  1.1477
  121SOPE  C31612906   1.262   1.350   4.328 -0.7481  0.0053 -0.3792
  121SOPE  H16X12907   1.220   1.369   4.227 -3.9097 -1.8827  0.4290
  121SOPE  H16Y12908   1.224   1.250   4.358  2.0233 -1.1427 -0.4122
  121SOPE  C31712909   1.409   1.329   4.310  0.0608 -0.5646  0.1171
  121SOPE  H17X12910   1.455   1.335   4.411 -0.6068  2.8550  0.3390
  121SOPE  H17Y12911   1.457   1.405   4.245  1.7140 -3.3135 -2.1472
  121SOPE  C31812912   1.432   1.197   4.245 -0.1092  0.2108  0.1921
  121SOPE  H18X12913   1.390   1.116   4.309 -1.5912  1.3295  0.6944
  121SOPE  H18Y12914   1.537   1.165   4.229 -0.8533 -2.6333  0.3727
  121SOPE  H18Z12915   1.381   1.190   4.146 -0.4731 -2.2647  0.4935
  122SOPE     N12916   1.190   1.803   6.105  0.5485  0.5932  0.2379
  122SOPE   HN112917   1.237   1.884   6.059 -0.8306  0.7262 -1.0250
  122SOPE   HN212918   1.127   1.771   6.029  0.5146  1.0433  0.0732
  122SOPE   HN312919   1.133   1.838   6.185 -0.1718 -0.9040  0.4099
  122SOPE   C1212920   1.294   1.692   6.144  0.0118 -0.4552  0.3803
  122SOPE  H12A12921   1.382   1.696   6.076 -1.5768  0.9057 -1.7185
  122SOPE  H12B12922   1.232   1.600   6.133 -0.2146 -0.1201 -1.4007
  122SOPE   C1112923   1.343   1.707   6.291  0.1565 -0.3458 -0.3625
  122SOPE  H11A12924   1.421   1.784   6.306  1.1432 -1.4089  0.1658
  122SOPE  H11B12925   1.394   1.609   6.301  0.1960 -0.3353 -0.4600
  122SOPE     P12926   1.153   1.613   6.453 -0.1960 -0.3400  0.4531
  122SOPE   O1312927   1.041   1.667   6.534 -0.1049  0.3507 -0.0973
  122SOPE   O1412928   1.243   1.530   6.531 -0.4319  0.4006  0.1643
  122SOPE   O1212929   1.233   1.724   6.375  0.3896  0.4448 -0.4661
  122SOPE   O1112930   1.113   1.518   6.336  0.0042 -0.1570  0.4280
  122SOPE    C112931   0.993   1.447   6.345 -0.5207  0.1173  0.1730
  122SOPE    HA12932   0.910   1.500   6.398 -1.4510 -0.2345 -0.9026
  122SOPE    HB12933   1.007   1.350   6.397 -2.0566  0.9810  2.3685
  122SOPE    C212934   0.941   1.426   6.195 -0.8693 -0.5570 -0.0152
  122SOPE    HS12935   0.855   1.357   6.203 -0.5597 -0.8994  0.4121
  122SOPE   O2112936   1.050   1.377   6.108  0.8580 -0.1143 -0.1144
  122SOPE   C2112937   1.049   1.244   6.092  0.4619 -0.0785 -0.7202
  122SOPE   O2212938   0.972   1.164   6.148  0.7704 -0.2508 -0.2833
  122SOPE   C2212939   1.161   1.202   6.001  0.1433  0.1008 -0.4809
  122SOPE   H2R12940   1.123   1.116   5.942  1.8760 -0.8071 -0.3247
  122SOPE   H2S12941   1.243   1.167   6.068  1.1524 -0.8398 -2.1441
  122SOPE    C312942   0.893   1.561   6.140  1.2510 -0.4951  0.0448
  122SOPE    HX12943   0.973   1.637   6.156  1.8672 -1.4981  2.0028
  122SOPE    HY12944   0.804   1.586   6.203  0.6489 -2.9856  0.2797
  122SOPE   O3112945   0.844   1.555   6.002 -0.0031 -0.1534 -0.4882
  122SOPE   C3112946   0.922   1.611   5.909  0.1573  0.6332 -0.0080
  122SOPE   O3212947   1.018   1.682   5.931  0.3835  0.0357 -0.4505
  122SOPE   C3212948   0.876   1.541   5.770 -0.0711 -0.2277  0.0992
  122SOPE   H2X12949   0.766   1.550   5.769  0.0590  2.2144 -1.7398
  122SOPE   H2Y12950   0.913   1.437   5.776  1.1216  0.2456  2.5287
  122SOPE   C2312951   1.209   1.306   5.896 -0.1969 -0.3808  0.8770
  122SOPE   H3R12952   1.253   1.391   5.953 -2.5106  0.3046  1.7548
  122SOPE   H3S12953   1.119   1.354   5.851 -0.6097 -0.7162  1.3346
  122SOPE   C2412954   1.314   1.261   5.791  0.1077  0.2140  0.1405
  122SOPE   H4R12955   1.407   1.219   5.834  1.6585 -1.5428 -4.3333
  122SOPE   H4S12956   1.263   1.185   5.728 -0.6656  0.9919 -0.1985
  122SOPE   C2512957   1.347   1.381   5.704 -0.3107  0.0823 -0.6226
  122SOPE   H5R12958   1.257   1.428   5.659  0.4471  2.1600 -0.1227
  122SOPE   H5S12959   1.398   1.455   5.770 -0.5072 -2.0741  2.1287
  122SOPE   C2612960   1.442   1.335   5.595 -0.0613 -0.7403  0.2419
  122SOPE   H6R12961   1.504   1.424   5.572 -2.3185  0.8540 -0.0202
  122SOPE   H6S12962   1.499   1.253   5.644 -2.9353 -1.3810  2.9163
  122SOPE   C2712963   1.360   1.287   5.476  0.0906  0.3661 -0.0339
  122SOPE   H7R12964   1.312   1.192   5.507 -1.2621  1.5450  1.7727
  122SOPE   H7S12965   1.272   1.353   5.456 -1.3609 -1.5609 -0.2855
  122SOPE   C2812966   1.438   1.268   5.345  0.2761  0.3173 -0.0920
  122SOPE   H8R12967   1.469   1.369   5.310 -0.8478  0.1296 -1.7251
  122SOPE   H8S12968   1.529   1.215   5.379  0.1206  1.0717  1.5886
  122SOPE   C2912969   1.378   1.202   5.225  0.2523 -0.6689  0.1232
  122SOPE   H9112970   1.305   1.266   5.172 -1.7167 -2.9279 -0.0955
  122SOPE  C21012971   1.404   1.081   5.181 -0.5114  0.0525  0.3730
  122SOPE  H10112972   1.354   1.044   5.090  1.1297  1.6789 -1.2860
  122SOPE  C21112973   1.494   0.974   5.233 -0.7419  0.4256  0.2356
  122SOPE  H11R12974   1.551   0.997   5.325  0.3983  0.6634 -0.5118
  122SOPE  H11S12975   1.571   0.953   5.155 -0.0123  1.8064  0.5517
  122SOPE  C21212976   1.405   0.847   5.247 -0.3238 -0.1547 -0.3100
  122SOPE  H12R12977   1.316   0.846   5.313  1.2811  0.0061  1.9874
  122SOPE  H12S12978   1.471   0.770   5.293  0.1096  0.7184  0.5563
  122SOPE  C21312979   1.368   0.794   5.105 -0.7822 -0.4634  0.4704
  122SOPE  H13R12980   1.458   0.812   5.042  0.4250 -0.9816  1.9898
  122SOPE  H13S12981   1.283   0.853   5.064  0.0479  2.0328  2.1227
  122SOPE  C21412982   1.318   0.654   5.112 -0.2399  0.6108  0.1213
  122SOPE  H14R12983   1.404   0.583   5.120  0.0951  1.1615  2.1288
  122SOPE  H14S12984   1.271   0.630   5.015  1.5403 -0.7167 -0.4676
  122SOPE  C21512985   1.207   0.636   5.217 -0.3214 -0.3731  0.6592
  122SOPE  H15R12986   1.142   0.725   5.206  0.2006 -0.1215 -0.5180
  122SOPE  H15S12987   1.248   0.646   5.320  1.7230 -1.3926 -0.0048
  122SOPE  C21612988   1.121   0.508   5.205  0.5117 -0.1938 -1.2623
  122SOPE  H16R12989   1.178   0.417   5.233  0.4548 -0.3215 -1.5516
  122SOPE  H16S12990   1.091   0.498   5.098  0.4808 -1.5797 -1.1421
  122SOPE  C21712991   0.992   0.505   5.297 -0.7290 -0.3898 -0.3514
  122SOPE  H17R12992   0.941   0.410   5.272 -0.4768 -0.0493 -2.3175
  122SOPE  H17S12993   0.927   0.592   5.272  1.5434  1.0863 -1.5083
  122SOPE  C21812994   1.021   0.506   5.445 -0.3594 -0.6560  0.1343
  122SOPE  H18R12995   1.072   0.414   5.482  0.3891  0.3793  1.8234
  122SOPE  H18S12996   0.928   0.514   5.505  0.6901  1.1643  1.6443
  122SOPE  H18T12997   1.084   0.591   5.480  0.7263 -2.1755  2.0904
  122SOPE   C3312998   0.940   1.600   5.640  0.0245 -0.0272 -0.0035
  122SOPE   H3X12999   1.046   1.568   5.640 -0.5529 -2.3454  2.2636
  122SOPE   H3Y13000   0.942   1.711   5.646 -0.4948 -0.0045 -0.1599
  122SOPE   C3413001   0.888   1.539   5.512 -0.3220  0.2482  0.1124
  122SOPE   H4X13002   0.789   1.580   5.482 -0.4913 -1.3006 -1.6336
  122SOPE   H4Y13003   0.858   1.436   5.539 -1.4843 -0.0208 -1.9271
  122SOPE   C3513004   0.976   1.534   5.388  0.1320  0.4712  1.1718
  122SOPE   H5X13005   1.075   1.489   5.413  0.5556  0.5882 -0.2354
  122SOPE   H5Y13006   0.994   1.642   5.371 -1.0672  0.4012 -0.8382
  122SOPE   C3613007   0.913   1.464   5.261 -0.3803 -0.0722 -0.7828
  122SOPE   H6X13008   0.836   1.536   5.227 -0.9016  0.9266  2.2478
  122SOPE   H6Y13009   0.855   1.373   5.287  0.3238 -0.2419  0.2627
  122SOPE   C3713010   1.016   1.444   5.147 -0.0137  0.3468  0.1145
  122SOPE   H7X13011   1.095   1.374   5.183 -1.5508  0.1224  3.4229
  122SOPE   H7Y13012   1.065   1.543   5.141  2.0918 -0.4274  2.5151
  122SOPE   C3813013   0.944   1.400   5.019 -0.3249  0.2372 -0.1878
  122SOPE   H8X13014   0.857   1.469   5.018  0.4780  1.2928 -1.4840
  122SOPE   H8Y13015   0.907   1.296   5.029  1.3665 -0.3210  0.5842
  122SOPE   C3913016   1.039   1.415   4.907 -0.6292  0.6450  0.5802
  122SOPE   H9X13017   1.058   1.520   4.875  0.6230  0.2553 -0.0544
  122SOPE   H9Y13018   0.988   1.375   4.817  1.7076 -1.6873  0.1832
  122SOPE  C31013019   1.170   1.325   4.916  0.2662  0.5662 -0.3338
  122SOPE  H10X13020   1.146   1.231   4.969  1.8548 -0.0679 -0.6875
  122SOPE  H10Y13021   1.261   1.361   4.969  1.3515 -1.0824 -1.0227
  122SOPE  C31113022   1.232   1.288   4.780  0.3462 -0.1961 -0.3637
  122SOPE  H11X13023   1.251   1.377   4.717 -0.4991  0.2926  0.0685
  122SOPE  H11Y13024   1.171   1.214   4.723 -0.5982 -0.4099  0.8856
  122SOPE  C31213025   1.371   1.214   4.803  0.1207  0.4433  0.0140
  122SOPE  H12X13026   1.349   1.117   4.854 -0.9930  0.2674 -0.7643
  122SOPE  H12Y13027   1.429   1.281   4.870 -1.2098  2.0321 -0.3580
  122SOPE  C31313028   1.446   1.185   4.677 -0.1958  0.3899  0.3210
  122SOPE  H13X13029   1.468   1.288   4.644 -2.3938  2.5070  4.6441
  122SOPE  H13Y13030   1.385   1.140   4.596 -1.9431  1.4587  0.9833
  122SOPE  C31413031   1.569   1.107   4.713  0.0761  0.5249  0.7843
  122SOPE  H14X13032   1.628   1.155   4.795  0.8046 -0.3975  0.8137
  122SOPE  H14Y13033   1.635   1.116   4.624 -1.1292 -1.0848 -0.3199
  122SOPE  C31513034   1.544   0.957   4.749 -0.4757  0.2730  0.2574
  122SOPE  H15X13035   1.476   0.912   4.674  2.1462 -2.0962 -0.8764
  122SOPE  H15Y13036   1.504   0.955   4.853  2.5137 -3.8093  1.6066
  122SOPE  C31613037   1.662   0.862   4.755 -0.7759  0.1227  0.1316
  122SOPE  H16X13038   1.725   0.907   4.835 -2.4461 -0.3457  1.7730
  122SOPE  H16Y13039   1.709   0.851   4.655  1.0045 -1.8679  1.1042
  122SOPE  C31713040   1.608   0.723   4.805  0.3632  0.4797 -0.9639
  122SOPE  H17X13041   1.512   0.701   4.753 -0.6902 -1.3900  1.5650
  122SOPE  H17Y13042   1.607   0.723   4.916  3.0151 -0.5207 -0.8634
  122SOPE  C31813043   1.716   0.621   4.764 -0.0553  0.0772  0.4401
  122SOPE  H18X13044   1.691   0.530   4.823 -0.6054  0.1520  0.3308
  122SOPE  H18Y13045   1.815   0.650   4.805 -0.2805 -2.4412  3.1036
  122SOPE  H18Z13046   1.706   0.602   4.655  0.2682 -2.1606  0.7490
  123SOPE     N13047   6.375   1.888   1.929  0.0849  0.7392  0.7935
  123SOPE   HN113048   6.333   1.910   1.836  0.1787  2.2889  1.0926
  123SOPE   HN213049   6.478   1.895   1.926  0.1627 -0.4156 -1.2661
  123SOPE   HN313050   6.360   1.787   1.951  2.3235  0.4311  1.1598
  123SOPE   C1213051   6.308   1.963   2.045  0.3616  0.2153 -0.3027
  123SOPE  H12A13052   6.330   1.899   2.134  2.1808  0.1595 -0.7398
  123SOPE  H12B13053   6.198   1.962   2.030  0.2210 -1.6457  0.5164
  123SOPE   C1113054   6.350   2.105   2.056  0.5302 -0.3206  0.3389
  123SOPE  H11A13055   6.352   2.134   1.949  1.0188  0.0146  0.4355
  123SOPE  H11B13056   6.448   2.094   2.108 -0.8866  3.2841  4.2832
  123SOPE     P13057   6.258   2.343   2.123  0.3677  0.3705  0.2607
  123SOPE   O1313058   6.164   2.399   2.223  0.6799 -0.2505 -0.4241
  123SOPE   O1413059   6.245   2.388   1.983  0.5907 -0.5886 -0.6225
  123SOPE   O1213060   6.262   2.184   2.130  0.2339 -0.2791 -0.4643
  123SOPE   O1113061   6.402   2.384   2.177  0.6094 -1.1669  0.5584
  123SOPE    C113062   6.450   2.339   2.300 -0.6795 -0.3978  1.1313
  123SOPE    HA13063   6.491   2.237   2.286  0.4818  0.2863 -0.7654
  123SOPE    HB13064   6.370   2.326   2.377 -1.9785 -0.1075 -0.1357
  123SOPE    C213065   6.576   2.412   2.345 -1.1971 -0.1135 -0.0042
  123SOPE    HS13066   6.658   2.397   2.271 -0.9885  0.3137  0.1356
  123SOPE   O2113067   6.614   2.352   2.468  0.3483  0.3873 -0.3032
  123SOPE   C2113068   6.740   2.365   2.509  1.5502 -0.0699 -0.3414
  123SOPE   O2213069   6.824   2.425   2.447 -0.0040  0.4969 -0.1705
  123SOPE   C2213070   6.749   2.302   2.649  0.4970 -0.2672 -0.1802
  123SOPE   H2R13071   6.715   2.196   2.640  0.3311 -0.4341  1.8998
  123SOPE   H2S13072   6.683   2.367   2.710 -0.8539 -0.0939 -1.7207
  123SOPE    C313073   6.566   2.567   2.351 -0.1963  0.4323  0.1207
  123SOPE    HX13074   6.528   2.609   2.256  1.7259 -0.2729 -1.0067
  123SOPE    HY13075   6.667   2.607   2.377  0.2586  0.1087 -1.0852
  123SOPE   O3113076   6.470   2.605   2.451  0.1034 -0.0213 -0.0050
  123SOPE   C3113077   6.497   2.697   2.536  0.0865 -0.0184 -0.2172
  123SOPE   O3213078   6.580   2.784   2.520 -0.4754  0.2781  0.1403
  123SOPE   C3213079   6.397   2.687   2.657 -0.0907  0.0554 -0.4739
  123SOPE   H2X13080   6.372   2.580   2.672  0.2304  0.0413 -0.0182
  123SOPE   H2Y13081   6.310   2.744   2.618  0.4941  0.4850 -1.1593
  123SOPE   C2313082   6.886   2.289   2.698 -0.1168  0.2707  0.4983
  123SOPE   H3R13083   6.962   2.296   2.618 -0.9895 -0.8714 -0.4602
  123SOPE   H3S13084   6.908   2.189   2.742  1.2175  0.6861  0.8334
  123SOPE   C2413085   6.919   2.398   2.805  0.2910 -0.3563 -0.2560
  123SOPE   H4R13086   7.029   2.384   2.810  0.1147 -2.9334 -1.7457
  123SOPE   H4S13087   6.895   2.498   2.761  0.2662 -0.7226 -1.0917
  123SOPE   C2513088   6.847   2.389   2.941  0.3371 -0.6596  0.0980
  123SOPE   H5R13089   6.739   2.386   2.914  0.7223  1.1088 -1.9226
  123SOPE   H5S13090   6.884   2.291   2.977  0.3122 -0.5975  0.2903
  123SOPE   C2613091   6.885   2.498   3.039  0.4321  0.7109 -0.6144
  123SOPE   H6R13092   6.993   2.490   3.060  0.3408 -1.8874 -0.8621
  123SOPE   H6S13093   6.854   2.600   3.007 -1.5316  0.3078 -0.1745
  123SOPE   C2713094   6.803   2.472   3.166 -0.6954 -0.1415 -0.2323
  123SOPE   H7R13095   6.698   2.485   3.133 -0.9301  2.4560  1.2536
  123SOPE   H7S13096   6.804   2.369   3.207 -0.1524 -0.2830 -0.5851
  123SOPE   C2813097   6.836   2.572   3.276  0.3610 -0.3151 -0.3314
  123SOPE   H8R13098   6.830   2.678   3.243  4.3100  0.5357  1.1539
  123SOPE   H8S13099   6.754   2.568   3.351 -0.2293  1.3007 -0.8523
  123SOPE   C2913100   6.966   2.547   3.340 -0.3543  0.1208 -0.5915
  123SOPE   H9113101   7.047   2.523   3.268  0.5612 -0.6679  0.6544
  123SOPE  C21013102   6.994   2.549   3.471  0.5504 -0.7481  0.4219
  123SOPE  H10113103   7.092   2.514   3.508  0.5057 -0.5942  0.6943
  123SOPE  C21113104   6.896   2.580   3.584  0.0098  0.0006  0.2162
  123SOPE  H11R13105   6.825   2.496   3.598  0.3078 -0.5326 -1.2218
  123SOPE  H11S13106   6.832   2.665   3.553  1.3997  0.7913 -0.6477
  123SOPE  C21213107   6.959   2.611   3.719 -0.0204 -0.2419 -0.4391
  123SOPE  H12R13108   6.869   2.626   3.784 -1.1141 -1.4734 -1.6231
  123SOPE  H12S13109   7.025   2.700   3.728  0.6036 -0.7477  0.0254
  123SOPE  C21313110   7.029   2.489   3.772 -0.5105 -0.0109  1.1211
  123SOPE  H13R13111   7.124   2.467   3.720 -2.1860 -2.2283 -1.2462
  123SOPE  H13S13112   6.967   2.397   3.767 -0.3810 -0.0188 -1.0360
  123SOPE  C21413113   7.064   2.494   3.920  0.0197 -0.1068 -0.4019
  123SOPE  H14R13114   7.129   2.405   3.931 -1.0471 -0.8169  0.2146
  123SOPE  H14S13115   6.967   2.478   3.970  0.7107 -2.1014  0.4039
  123SOPE  C21513116   7.139   2.624   3.970  0.9424  0.5847 -0.5636
  123SOPE  H15R13117   7.115   2.642   4.077 -1.0426  0.2182 -0.9115
  123SOPE  H15S13118   7.095   2.716   3.926  2.9091  1.6507 -0.4466
  123SOPE  C21613119   7.289   2.630   3.934 -0.0790  0.7283 -0.7451
  123SOPE  H16R13120   7.337   2.725   3.965  0.9974  0.7661 -2.3901
  123SOPE  H16S13121   7.288   2.640   3.823 -2.8771 -0.1290 -0.8700
  123SOPE  C21713122   7.372   2.509   3.989 -0.1568 -0.2380  0.5489
  123SOPE  H17R13123   7.480   2.524   3.970 -0.6545  1.5673 -1.1958
  123SOPE  H17S13124   7.340   2.416   3.937  1.5268 -0.1382 -0.7346
  123SOPE  C21813125   7.356   2.477   4.136 -0.2544  0.1152 -0.4912
  123SOPE  H18R13126   7.360   2.564   4.205  0.1918  1.1053 -1.7386
  123SOPE  H18S13127   7.432   2.407   4.178  1.8460  3.0538  0.9829
  123SOPE  H18T13128   7.257   2.431   4.156  0.2513 -1.1853 -0.8792
  123SOPE   C3313129   6.455   2.754   2.787  0.5251 -0.9132  0.0887
  123SOPE   H3X13130   6.500   2.852   2.758 -2.3526  0.3982 -0.2734
  123SOPE   H3Y13131   6.530   2.683   2.829  1.1558 -0.5603 -0.4190
  123SOPE   C3413132   6.338   2.798   2.877  0.4277 -0.0913  0.1958
  123SOPE   H4X13133   6.262   2.717   2.871  1.5970 -1.2205  0.1182
  123SOPE   H4Y13134   6.294   2.890   2.835  0.1037 -1.1448 -1.9207
  123SOPE   C3513135   6.379   2.831   3.019  0.0633 -0.0867  0.8614
  123SOPE   H5X13136   6.294   2.894   3.053 -0.1057 -0.0483  0.3852
  123SOPE   H5Y13137   6.475   2.885   3.028 -0.4717  0.9788  0.3746
  123SOPE   C3613138   6.398   2.707   3.103  0.0439  0.1432  0.0272
  123SOPE   H6X13139   6.492   2.657   3.072  1.1595  1.5587  1.0218
  123SOPE   H6Y13140   6.315   2.634   3.095  1.8469 -1.8624 -1.8172
  123SOPE   C3713141   6.416   2.735   3.254 -0.1549 -0.1378  0.1410
  123SOPE   H7X13142   6.484   2.822   3.252 -0.2326  0.0761  2.9965
  123SOPE   H7Y13143   6.463   2.646   3.300 -1.1914 -0.8803 -0.2067
  123SOPE   C3813144   6.284   2.771   3.326  0.5361  0.1416  0.8203
  123SOPE   H8X13145   6.224   2.678   3.337 -0.7980  1.1337  2.4138
  123SOPE   H8Y13146   6.224   2.839   3.261 -1.5964 -2.0184  0.4151
  123SOPE   C3913147   6.285   2.836   3.464 -0.2611  0.4876  0.0329
  123SOPE   H9X13148   6.324   2.940   3.460 -0.4526  0.6735  1.9738
  123SOPE   H9Y13149   6.351   2.766   3.520 -1.2854 -1.7273 -1.3789
  123SOPE  C31013150   6.144   2.834   3.534 -0.1448  0.3162 -0.6466
  123SOPE  H10X13151   6.103   2.737   3.497  2.2069 -0.9256 -0.1328
  123SOPE  H10Y13152   6.085   2.922   3.499 -1.8586 -1.5090 -2.6650
  123SOPE  C31113153   6.144   2.839   3.686  0.2641 -0.2894  0.2300
  123SOPE  H11X13154   6.215   2.913   3.729  0.3317 -0.4093  0.3267
  123SOPE  H11Y13155   6.173   2.738   3.723  0.6916  0.1282  1.0663
  123SOPE  C31213156   6.001   2.875   3.735 -0.6676 -0.0743 -0.0520
  123SOPE  H12X13157   5.933   2.793   3.702  0.5349 -0.6729 -1.1375
  123SOPE  H12Y13158   5.967   2.970   3.689  2.2973  0.6784 -0.9325
  123SOPE  C31313159   5.989   2.883   3.887  0.7398  0.8433  0.1539
  123SOPE  H13X13160   6.044   2.800   3.935 -0.0813 -1.1870 -2.1793
  123SOPE  H13Y13161   5.884   2.887   3.924  0.4536  1.4104 -0.6835
  123SOPE  C31413162   6.035   3.013   3.946  0.1107  0.5473  0.7135
  123SOPE  H14X13163   5.986   3.089   3.881 -0.4989 -1.4035 -1.2266
  123SOPE  H14Y13164   6.146   3.013   3.939  0.1874  2.1773  1.5241
  123SOPE  C31513165   5.992   3.048   4.088  0.1283  0.7456  0.2509
  123SOPE  H15X13166   6.035   2.966   4.149  2.3949 -0.0059 -2.1506
  123SOPE  H15Y13167   5.882   3.037   4.075  0.3773 -1.5784 -0.2964
  123SOPE  C31613168   6.050   3.178   4.133 -0.1942 -0.5457 -0.0948
  123SOPE  H16X13169   6.005   3.252   4.064  0.2138 -0.7670 -0.6080
  123SOPE  H16Y13170   6.160   3.192   4.128 -0.1510 -0.9286 -0.2619
  123SOPE  C31713171   6.027   3.225   4.273  0.3787  0.1768  0.2456
  123SOPE  H17X13172   6.087   3.158   4.338 -1.4519 -1.0268  0.7771
  123SOPE  H17Y13173   5.920   3.202   4.293 -0.2296  0.3419 -2.4016
  123SOPE  C31813174   6.048   3.381   4.290  0.2254  0.2421 -0.0838
  123SOPE  H18X13175   5.963   3.430   4.239  1.2681  1.6174 -0.5507
  123SOPE  H18Y13176   6.147   3.410   4.248  0.6067  1.2414  1.4443
  123SOPE  H18Z13177   6.046   3.406   4.398  1.8533  0.7676 -0.1464
  124SOPE     N13178   1.189   0.027   2.213 -0.6685 -0.3771  0.2806
  124SOPE   HN113179   1.192  -0.032   2.128  0.5934  0.1394 -0.0540
  124SOPE   HN213180   1.119  -0.017   2.277  0.9153  0.2797  2.5707
  124SOPE   HN313181   1.136   0.115   2.196 -1.4912 -0.9639 -0.2545
  124SOPE   C1213182   1.317   0.044   2.294  0.2261  0.4779 -0.4377
  124SOPE  H12A13183   1.283   0.088   2.390  0.1887 -0.4206 -0.0291
  124SOPE  H12B13184   1.379   0.121   2.242  1.2797  0.5053  0.8031
  124SOPE   C1113185   1.377  -0.096   2.321 -0.0027  0.2798  0.1773
  124SOPE  H11A13186   1.296  -0.165   2.354 -0.6533 -2.3659 -5.6758
  124SOPE  H11B13187   1.455  -0.101   2.400 -0.9651 -1.6605  1.0765
  124SOPE     P13188   1.370  -0.279   2.148  0.0439 -0.1158 -0.2019
  124SOPE   O1313189   1.466  -0.339   2.053  0.8589  0.2492  1.0943
  124SOPE   O1413190   1.235  -0.263   2.104  0.7217 -0.6962 -0.7173
  124SOPE   O1213191   1.435  -0.145   2.202  0.1509 -0.1433  0.8229
  124SOPE   O1113192   1.375  -0.379   2.271 -0.5622 -0.2200 -0.0300
  124SOPE    C113193   1.508  -0.392   2.331 -0.3425  0.6994  0.3412
  124SOPE    HA13194   1.510  -0.364   2.438  2.1565  0.3952  0.4367
  124SOPE    HB13195   1.585  -0.320   2.295  2.2827 -1.7673  0.6460
  124SOPE    C213196   1.557  -0.537   2.309 -0.3408 -0.1599  0.2621
  124SOPE    HS13197   1.571  -0.551   2.200 -1.4843 -0.9987  0.2102
  124SOPE   O2113198   1.446  -0.626   2.336 -0.1052  0.0071 -0.9920
  124SOPE   C2113199   1.461  -0.758   2.316  0.1206  0.2738  0.0720
  124SOPE   O2213200   1.559  -0.804   2.256 -0.0665 -0.2020  0.0400
  124SOPE   C2213201   1.357  -0.841   2.395  0.0494 -0.0330 -0.8869
  124SOPE   H2R13202   1.378  -0.947   2.368 -0.1607 -0.3454  0.1500
  124SOPE   H2S13203   1.252  -0.812   2.373 -0.5579 -0.4961  1.2359
  124SOPE    C313204   1.688  -0.576   2.390  0.1988 -0.3190 -0.1539
  124SOPE    HX13205   1.760  -0.492   2.395  2.5575 -2.1918 -1.0165
  124SOPE    HY13206   1.741  -0.655   2.333 -0.8968  0.1020 -1.8449
  124SOPE   O3113207   1.648  -0.626   2.520  0.5796  0.3169 -1.1002
  124SOPE   C3113208   1.665  -0.541   2.621  0.8862 -0.0109  0.1983
  124SOPE   O3213209   1.702  -0.424   2.605 -0.3895  0.4076 -0.1890
  124SOPE   C3213210   1.655  -0.611   2.751  0.8595  0.1103  0.6452
  124SOPE   H2X13211   1.582  -0.694   2.737  1.7853 -0.3369 -2.0144
  124SOPE   H2Y13212   1.624  -0.543   2.834  1.9696  3.5445 -1.5468
  124SOPE   C2313213   1.382  -0.839   2.551 -0.0661 -0.0931  0.2295
  124SOPE   H3R13214   1.345  -0.738   2.579  0.8047  0.4862 -0.6299
  124SOPE   H3S13215   1.489  -0.853   2.574  0.4406  1.6331 -0.8551
  124SOPE   C2413216   1.286  -0.938   2.618  0.6659  0.1898  0.8219
  124SOPE   H4R13217   1.181  -0.926   2.582 -0.2529 -4.8318  1.1067
  124SOPE   H4S13218   1.318  -1.040   2.587  1.6495  0.8960 -0.5523
  124SOPE   C2513219   1.293  -0.943   2.773 -0.3852  0.1009 -0.0457
  124SOPE   H5R13220   1.235  -1.033   2.803  0.5627 -0.4930  0.0467
  124SOPE   H5S13221   1.398  -0.965   2.801 -0.5780  1.2573  1.7087
  124SOPE   C2613222   1.248  -0.816   2.842 -0.1660  0.0658  0.3649
  124SOPE   H6R13223   1.325  -0.742   2.814 -0.8097  0.3546 -0.6855
  124SOPE   H6S13224   1.149  -0.784   2.802  0.1330  0.7525  0.1678
  124SOPE   C2713225   1.239  -0.839   2.997  0.0971  0.4292  0.5531
  124SOPE   H7R13226   1.136  -0.877   3.016 -0.4825  0.5726 -2.0105
  124SOPE   H7S13227   1.306  -0.915   3.041 -2.0328 -0.1253  3.1203
  124SOPE   C2813228   1.256  -0.714   3.081  0.5804 -0.3836  0.7639
  124SOPE   H8R13229   1.238  -0.740   3.187 -0.1834 -1.0723  0.4753
  124SOPE   H8S13230   1.359  -0.671   3.076  0.5678 -0.3348  0.9344
  124SOPE   C2913231   1.157  -0.610   3.041 -0.3670 -0.2661  0.5925
  124SOPE   H9113232   1.162  -0.594   2.932  0.5420 -1.1672  0.4827
  124SOPE  C21013233   1.051  -0.566   3.111  0.3430  0.7742 -0.8578
  124SOPE  H10113234   0.976  -0.497   3.070 -0.1882  0.9603  0.3809
  124SOPE  C21113235   1.029  -0.591   3.256 -0.6801 -0.3097  0.4748
  124SOPE  H11R13236   1.116  -0.625   3.316  1.2711  0.9625 -1.5347
  124SOPE  H11S13237   0.953  -0.672   3.250 -1.4759  0.4704 -0.4483
  124SOPE  C21213238   0.959  -0.475   3.339  0.2335 -0.9910 -0.8768
  124SOPE  H12R13239   0.907  -0.524   3.425  3.4665 -2.4944  0.3842
  124SOPE  H12S13240   0.887  -0.427   3.269  1.4464 -1.1670 -2.3027
  124SOPE  C21313241   1.059  -0.366   3.378 -0.5180 -0.7055  0.2041
  124SOPE  H13R13242   1.133  -0.346   3.297 -1.0892  3.2678  0.4689
  124SOPE  H13S13243   1.109  -0.406   3.469 -0.3772 -0.3581  0.2792
  124SOPE  C21413244   0.995  -0.229   3.417 -0.3599  0.2704  0.0369
  124SOPE  H14R13245   0.918  -0.255   3.493 -4.2716 -1.1231 -3.9494
  124SOPE  H14S13246   0.945  -0.203   3.322  1.4113 -2.7565 -1.8929
  124SOPE  C21513247   1.099  -0.127   3.469 -0.7288 -0.5526 -0.2648
  124SOPE  H15R13248   1.164  -0.132   3.380 -0.1994 -3.0740  0.1836
  124SOPE  H15S13249   1.151  -0.171   3.557 -1.8810  0.7084  1.1081
  124SOPE  C21613250   1.042   0.005   3.517  0.0093 -0.4566 -0.0601
  124SOPE  H16R13251   1.117   0.067   3.572 -0.1812 -0.6648  0.4398
  124SOPE  H16S13252   0.951  -0.003   3.579 -2.0257  1.3126 -2.6090
  124SOPE  C21713253   1.002   0.102   3.405  0.1935  0.4149 -0.3280
  124SOPE  H17R13254   0.937   0.052   3.331 -1.7674 -0.3761  1.7875
  124SOPE  H17S13255   1.095   0.140   3.359  1.2326  3.5599  3.7348
  124SOPE  C21813256   0.921   0.216   3.458 -0.3574 -0.7013  0.4532
  124SOPE  H18R13257   0.880   0.281   3.377  0.8060  3.3560  2.8081
  124SOPE  H18S13258   0.987   0.284   3.516 -0.8781  0.7425 -0.5830
  124SOPE  H18T13259   0.839   0.192   3.530 -0.6191  3.0643  1.6250
  124SOPE   C3313260   1.791  -0.662   2.786  0.5117 -0.1302 -0.6678
  124SOPE   H3X13261   1.853  -0.580   2.831 -0.6576 -0.0180  0.8277
  124SOPE   H3Y13262   1.841  -0.700   2.695  0.5454 -1.5744 -0.0673
  124SOPE   C3413263   1.778  -0.776   2.891  0.2945  0.7654 -0.5287
  124SOPE   H4X13264   1.883  -0.804   2.916  0.9722  1.1284 -2.7614
  124SOPE   H4Y13265   1.718  -0.866   2.864  0.7895  0.2895 -0.0890
  124SOPE   C3513266   1.712  -0.736   3.025  0.7020 -0.3950 -0.6994
  124SOPE   H5X13267   1.601  -0.735   3.014  0.6607  0.4131 -0.2549
  124SOPE   H5Y13268   1.755  -0.642   3.064 -0.1088 -0.2457 -0.1321
  124SOPE   C3613269   1.747  -0.842   3.133 -0.7634 -0.4131 -0.5724
  124SOPE   H6X13270   1.855  -0.862   3.121 -0.6462  0.6896 -1.6013
  124SOPE   H6Y13271   1.695  -0.935   3.103  1.2724 -1.0135 -2.4355
  124SOPE   C3713272   1.713  -0.789   3.276 -0.7364  0.0344  0.6456
  124SOPE   H7X13273   1.776  -0.698   3.286 -0.8416  0.3659 -1.3065
  124SOPE   H7Y13274   1.746  -0.872   3.343  1.4535  0.6103  0.3469
  124SOPE   C3813275   1.568  -0.765   3.303  0.3862  0.1236  0.3950
  124SOPE   H8X13276   1.526  -0.868   3.297  1.0357 -0.1945  1.1540
  124SOPE   H8Y13277   1.529  -0.703   3.219 -0.7297  1.2626  1.6891
  124SOPE   C3913278   1.524  -0.702   3.435 -0.0355 -0.3973 -0.5330
  124SOPE   H9X13279   1.413  -0.695   3.442  0.0959  3.2738 -0.0225
  124SOPE   H9Y13280   1.556  -0.596   3.449 -0.7101 -0.0245 -1.6691
  124SOPE  C31013281   1.567  -0.782   3.560 -0.2201 -0.0378  0.3282
  124SOPE  H10X13282   1.678  -0.775   3.557 -0.1001 -0.9693  1.8188
  124SOPE  H10Y13283   1.546  -0.891   3.551  2.5324 -0.7703  1.7105
  124SOPE  C31113284   1.507  -0.723   3.691  1.0377 -0.3274  0.6624
  124SOPE  H11X13285   1.515  -0.612   3.693  1.4406 -0.2821 -1.3636
  124SOPE  H11Y13286   1.563  -0.763   3.778 -0.1431  2.8892  3.1197
  124SOPE  C31213287   1.365  -0.763   3.710 -0.6130  0.1495  0.1218
  124SOPE  H12X13288   1.340  -0.865   3.673  0.8684 -0.4132  0.6045
  124SOPE  H12Y13289   1.299  -0.707   3.641 -2.0137 -2.3017 -0.6657
  124SOPE  C31313290   1.321  -0.749   3.852  0.4378 -0.3722 -0.5207
  124SOPE  H13X13291   1.213  -0.725   3.845  0.6189  0.9748  0.6797
  124SOPE  H13Y13292   1.374  -0.665   3.902 -0.1981  0.0990 -0.6309
  124SOPE  C31413293   1.328  -0.870   3.937 -0.0346  0.7045  0.0927
  124SOPE  H14X13294   1.434  -0.899   3.952 -0.6472 -1.3258  0.9792
  124SOPE  H14Y13295   1.286  -0.957   3.881  0.9130 -0.5923  1.3005
  124SOPE  C31513296   1.247  -0.855   4.067 -0.4037 -0.0737 -0.6141
  124SOPE  H15X13297   1.144  -0.842   4.028  0.0410  2.0015 -1.2613
  124SOPE  H15Y13298   1.278  -0.767   4.128  0.2858 -1.1000  0.5585
  124SOPE  C31613299   1.265  -0.970   4.164  0.2338 -0.0139  0.3609
  124SOPE  H16X13300   1.370  -0.966   4.200  0.5678 -0.7130 -0.5207
  124SOPE  H16Y13301   1.235  -1.064   4.113  0.1666 -0.0520  0.4699
  124SOPE  C31713302   1.174  -0.953   4.292 -0.8829  0.1941 -0.1509
  124SOPE  H17X13303   1.077  -0.911   4.259 -0.3544  0.7267 -1.0807
  124SOPE  H17Y13304   1.209  -0.864   4.349 -1.0338 -0.5633  1.1626
  124SOPE  C31813305   1.159  -1.071   4.392  0.0534 -0.5425 -0.8796
  124SOPE  H18X13306   1.096  -1.149   4.343  1.3643 -4.0143  2.4003
  124SOPE  H18Y13307   1.118  -1.039   4.491 -1.9367 -1.2965 -1.4118
  124SOPE  H18Z13308   1.261  -1.113   4.406  0.4559  0.1205 -1.8105
  125SOPE     N13309   2.590   0.499   1.765 -0.2193 -0.3812  0.0861
  125SOPE   HN113310   2.573   0.416   1.704  0.8625 -0.8918  0.4613
  125SOPE   HN213311   2.527   0.573   1.728  2.1363  0.3193 -2.9092
  125SOPE   HN313312   2.692   0.513   1.760  0.5633 -4.3942  1.0777
  125SOPE   C1213313   2.549   0.457   1.901  0.1717 -0.4834 -0.2170
  125SOPE  H12A13314   2.439   0.443   1.891 -0.0535 -0.5079  1.8911
  125SOPE  H12B13315   2.574   0.544   1.965 -1.1163  1.3021 -2.0276
  125SOPE   C1113316   2.620   0.320   1.937 -0.4304 -0.2037 -0.0680
  125SOPE  H11A13317   2.565   0.241   1.882  0.5247 -0.8623 -0.1056
  125SOPE  H11B13318   2.600   0.297   2.043 -0.4054 -0.7354 -0.1764
  125SOPE     P13319   2.872   0.346   2.007 -0.0237  0.3840  0.1531
  125SOPE   O1313320   2.874   0.488   2.028  0.0804  0.8544 -0.2615
  125SOPE   O1413321   3.001   0.294   1.954  0.8755 -0.2374 -0.1371
  125SOPE   O1213322   2.758   0.317   1.899 -0.4549  0.0200  0.3639
  125SOPE   O1113323   2.812   0.266   2.133  0.3272  0.2652 -0.1100
  125SOPE    C113324   2.879   0.262   2.260  0.5302  0.0902  0.1898
  125SOPE    HA13325   2.826   0.327   2.333 -0.8210  0.0578 -0.7300
  125SOPE    HB13326   2.983   0.301   2.252  0.0550  1.3963  0.0791
  125SOPE    C213327   2.885   0.119   2.314  0.6174 -0.9407  0.0667
  125SOPE    HS13328   2.778   0.097   2.332 -0.2699  1.8194 -1.2714
  125SOPE   O2113329   2.979   0.117   2.426  0.3089 -0.3500 -0.2127
  125SOPE   C2113330   2.914   0.130   2.544 -0.2685 -0.1608  0.6433
  125SOPE   O2213331   2.794   0.143   2.558  0.0561 -0.1898  0.6649
  125SOPE   C2213332   3.015   0.104   2.655  0.1468  0.3623  0.4216
  125SOPE   H2R13333   3.112   0.070   2.614 -0.8731  0.6016 -2.4645
  125SOPE   H2S13334   2.967   0.024   2.716  0.7016  0.9289  1.6382
  125SOPE    C313335   2.943   0.015   2.207 -0.0434 -0.0897 -0.4132
  125SOPE    HX13336   3.037   0.052   2.160  1.1979 -2.0381  0.3974
  125SOPE    HY13337   2.867   0.007   2.127 -1.8770  1.2571  1.1091
  125SOPE   O3113338   2.982  -0.109   2.272  0.3154 -0.2569  0.1220
  125SOPE   C3113339   2.872  -0.180   2.313 -0.6583 -0.9188  0.6671
  125SOPE   O3213340   2.760  -0.159   2.276  0.4669  0.4947 -0.2665
  125SOPE   C3213341   2.911  -0.264   2.429 -1.1188  0.3783 -0.1755
  125SOPE   H2X13342   3.007  -0.223   2.467 -1.2892  0.8530 -0.2546
  125SOPE   H2Y13343   2.925  -0.369   2.395  4.5840  0.9757 -0.7823
  125SOPE   C2313344   3.031   0.224   2.751  0.5109  0.4317  0.4372
  125SOPE   H3R13345   3.023   0.316   2.689  1.4531 -0.4397 -1.0120
  125SOPE   H3S13346   3.128   0.209   2.803  0.8321 -0.4697 -0.3966
  125SOPE   C2413347   2.922   0.226   2.865  0.2207 -0.4433  0.5369
  125SOPE   H4R13348   2.835   0.254   2.802 -1.0203 -1.3641  1.7683
  125SOPE   H4S13349   2.907   0.122   2.903 -2.4973 -0.3224  0.0351
  125SOPE   C2513350   2.942   0.326   2.970  0.1780  0.3980  0.1063
  125SOPE   H5R13351   3.038   0.297   3.017 -0.0559 -0.1439  0.2523
  125SOPE   H5S13352   2.957   0.425   2.923 -0.7172  0.5190  0.0583
  125SOPE   C2613353   2.828   0.320   3.073  0.0873 -0.2298  0.0528
  125SOPE   H6R13354   2.729   0.314   3.022 -0.9237  3.2811  1.3331
  125SOPE   H6S13355   2.844   0.235   3.143  1.6903 -1.4666 -1.7050
  125SOPE   C2713356   2.820   0.455   3.150 -0.2298  0.1387 -0.0596
  125SOPE   H7R13357   2.837   0.540   3.080  0.1037  0.5071  0.4594
  125SOPE   H7S13358   2.722   0.459   3.202 -0.0903  2.4233  0.1379
  125SOPE   C2813359   2.931   0.463   3.250 -0.5552  0.0225 -0.7879
  125SOPE   H8R13360   2.919   0.386   3.330  2.2897  2.1853  1.9948
  125SOPE   H8S13361   3.025   0.448   3.191 -1.2550 -3.0442 -1.3079
  125SOPE   C2913362   2.926   0.601   3.315 -0.4983  0.1731 -0.1479
  125SOPE   H9113363   2.963   0.679   3.247  1.3676 -1.3481 -0.9835
  125SOPE  C21013364   2.893   0.639   3.441  0.2472 -0.0512  0.7973
  125SOPE  H10113365   2.911   0.741   3.480 -2.8189 -0.0012  2.3655
  125SOPE  C21113366   2.844   0.538   3.542 -0.0143  0.2707  0.7884
  125SOPE  H11R13367   2.917   0.456   3.557 -0.6719 -0.6811 -0.9181
  125SOPE  H11S13368   2.750   0.493   3.502  1.1788 -1.6445 -0.0231
  125SOPE  C21213369   2.815   0.604   3.678  0.6199  0.3453 -0.1280
  125SOPE  H12R13370   2.779   0.523   3.745 -1.4193  1.5610  0.3391
  125SOPE  H12S13371   2.726   0.672   3.675  1.0941  1.0640  1.2062
  125SOPE  C21313372   2.934   0.671   3.736  1.0187  0.6775 -0.0985
  125SOPE  H13R13373   2.937   0.777   3.704 -0.3516  0.2828 -1.6588
  125SOPE  H13S13374   3.026   0.621   3.697 -0.2060 -2.0292  0.2042
  125SOPE  C21413375   2.929   0.657   3.893  0.3527  0.1116  0.4644
  125SOPE  H14R13376   3.017   0.704   3.942  0.9620 -2.7409  2.3229
  125SOPE  H14S13377   2.943   0.549   3.916  2.0166  0.3160  0.5218
  125SOPE  C21513378   2.803   0.706   3.962 -0.1077  0.1158 -0.0769
  125SOPE  H15R13379   2.719   0.632   3.955  1.3583 -1.7243  0.8335
  125SOPE  H15S13380   2.760   0.795   3.912 -0.6718 -2.0576 -3.8664
  125SOPE  C21613381   2.831   0.737   4.111  0.1051 -0.2738  0.2166
  125SOPE  H16R13382   2.896   0.826   4.099 -0.3269 -0.1030 -0.9926
  125SOPE  H16S13383   2.890   0.647   4.138  1.1763 -0.4714 -2.5340
  125SOPE  C21713384   2.709   0.771   4.189  0.3700  0.0119  0.3831
  125SOPE  H17R13385   2.651   0.679   4.211  2.4300 -0.9135  2.3342
  125SOPE  H17S13386   2.641   0.834   4.128 -0.2397 -2.3601 -1.4975
  125SOPE  C21813387   2.735   0.841   4.319 -0.0524  0.3814 -0.8359
  125SOPE  H18R13388   2.816   0.788   4.372  2.1228  3.4667 -0.8376
  125SOPE  H18S13389   2.642   0.849   4.380  0.2621 -0.5641 -0.2284
  125SOPE  H18T13390   2.763   0.947   4.299  1.4854  0.6608  2.2002
  125SOPE   C3313391   2.813  -0.282   2.546  0.3757 -0.0001  0.3409
  125SOPE   H3X13392   2.713  -0.317   2.511  0.5629  0.8182 -1.1024
  125SOPE   H3Y13393   2.783  -0.187   2.595 -0.3468  0.0709 -0.2107
  125SOPE   C3413394   2.860  -0.382   2.651 -0.4224 -0.7808  0.3127
  125SOPE   H4X13395   2.959  -0.357   2.693 -0.1542 -0.3694 -0.5456
  125SOPE   H4Y13396   2.862  -0.480   2.598 -1.6185 -0.9799  0.5846
  125SOPE   C3513397   2.762  -0.410   2.766 -0.2153 -0.1567  0.2728
  125SOPE   H5X13398   2.810  -0.477   2.841 -2.1395  0.6945  2.3671
  125SOPE   H5Y13399   2.685  -0.477   2.723  1.1900 -1.9989  0.5068
  125SOPE   C3613400   2.720  -0.289   2.852  0.1232 -0.2671 -0.3646
  125SOPE   H6X13401   2.654  -0.323   2.934  2.5041 -1.2470  1.2408
  125SOPE   H6Y13402   2.663  -0.219   2.787 -0.2946 -1.2432 -1.0744
  125SOPE   C3713403   2.841  -0.213   2.916  0.6274  0.2652 -0.3397
  125SOPE   H7X13404   2.905  -0.172   2.836  0.1185  0.7962 -0.4814
  125SOPE   H7Y13405   2.895  -0.285   2.981  1.4975  2.4650  1.5355
  125SOPE   C3813406   2.801  -0.107   3.020  0.6729 -0.7235 -0.0284
  125SOPE   H8X13407   2.741  -0.034   2.961 -1.1788 -2.5183 -0.5026
  125SOPE   H8Y13408   2.885  -0.057   3.072  0.8924 -2.2263  1.1492
  125SOPE   C3913409   2.709  -0.175   3.126 -0.1411 -0.2821 -0.2473
  125SOPE   H9X13410   2.757  -0.273   3.145  0.7502 -0.3891 -2.7118
  125SOPE   H9Y13411   2.604  -0.185   3.091  0.5331  0.5914 -2.7108
  125SOPE  C31013412   2.714  -0.116   3.271  0.2152 -0.7030  0.4330
  125SOPE  H10X13413   2.654  -0.022   3.263  1.0669 -0.0575  1.3609
  125SOPE  H10Y13414   2.819  -0.085   3.290  0.1407  0.0368 -0.3104
  125SOPE  C31113415   2.666  -0.214   3.378  0.0581 -0.6220  0.6820
  125SOPE  H11X13416   2.725  -0.308   3.376 -0.0975 -0.7259  0.8840
  125SOPE  H11Y13417   2.560  -0.231   3.349  0.0078 -0.1522  0.5703
  125SOPE  C31213418   2.682  -0.164   3.523  0.7521  0.1290 -0.1939
  125SOPE  H12X13419   2.641  -0.061   3.524  1.0542  0.2671  1.8611
  125SOPE  H12Y13420   2.790  -0.155   3.544  1.5128 -2.0201 -2.7009
  125SOPE  C31313421   2.601  -0.232   3.631  0.5654  0.2351 -0.5135
  125SOPE  H13X13422   2.636  -0.334   3.660 -1.6111 -0.6528 -0.8369
  125SOPE  H13Y13423   2.492  -0.246   3.612  0.6467 -0.9038 -0.2584
  125SOPE  C31413424   2.615  -0.148   3.757  1.0804 -0.6081 -0.4932
  125SOPE  H14X13425   2.577  -0.047   3.731  4.0659  0.2713 -1.8103
  125SOPE  H14Y13426   2.724  -0.138   3.775  1.3395 -0.4819 -2.0142
  125SOPE  C31513427   2.547  -0.207   3.882 -0.6069 -0.1100  0.3214
  125SOPE  H15X13428   2.598  -0.304   3.899 -2.0028 -0.8391  0.4691
  125SOPE  H15Y13429   2.437  -0.217   3.873 -0.3483 -2.3673 -0.9856
  125SOPE  C31613430   2.574  -0.117   4.000  0.0559 -0.2904  0.0308
  125SOPE  H16X13431   2.549  -0.011   3.980  1.9776  0.2672  0.2998
  125SOPE  H16Y13432   2.681  -0.099   4.024 -0.7534 -0.2408  4.3896
  125SOPE  C31713433   2.524  -0.169   4.139  0.4290  0.0715  0.0111
  125SOPE  H17X13434   2.617  -0.215   4.179  0.5703 -0.4455 -0.8752
  125SOPE  H17Y13435   2.458  -0.257   4.128  1.2721 -0.4488 -1.1348
  125SOPE  C31813436   2.460  -0.075   4.248 -0.5006 -0.5504  0.2547
  125SOPE  H18X13437   2.356  -0.044   4.225 -0.0944  0.4510 -0.2937
  125SOPE  H18Y13438   2.520   0.015   4.272  0.7896 -1.7412  1.6532
  125SOPE  H18Z13439   2.456  -0.134   4.342  2.7007 -2.4009 -0.6073
  126SOPE     N13440   6.902   3.971   1.585  0.4238  0.0257  0.2604
  126SOPE   HN113441   6.906   4.055   1.524 -1.0779  0.1752  0.3313
  126SOPE   HN213442   6.996   3.934   1.610 -0.0131 -0.9494  0.5366
  126SOPE   HN313443   6.842   3.898   1.541  1.4011 -1.8555  1.9103
  126SOPE   C1213444   6.832   4.007   1.716 -0.7640  0.0952 -0.2514
  126SOPE  H12A13445   6.886   4.096   1.756 -0.0309 -0.2002 -0.5648
  126SOPE  H12B13446   6.829   3.923   1.789  0.5531  0.1906 -0.0584
  126SOPE   C1113447   6.690   4.057   1.692 -0.7412 -0.1159  0.5626
  126SOPE  H11A13448   6.630   3.990   1.628  1.2713  0.2730 -1.8877
  126SOPE  H11B13449   6.694   4.156   1.641  1.8451  0.3167  1.4363
  126SOPE     P13450   6.576   4.201   1.886 -0.2309  0.3706  0.4645
  126SOPE   O1313451   6.518   4.166   2.015  0.1531 -0.6335 -0.1013
  126SOPE   O1413452   6.496   4.277   1.786  0.9358  0.5705 -0.0930
  126SOPE   O1213453   6.618   4.063   1.822 -0.3004  0.4056  0.7478
  126SOPE   O1113454   6.703   4.285   1.897 -0.7973  0.4085 -0.0344
  126SOPE    C113455   6.689   4.405   1.969 -0.7352 -0.0777 -0.3217
  126SOPE    HA13456   6.586   4.444   1.983 -0.4533  0.4897  0.2016
  126SOPE    HB13457   6.750   4.478   1.912  0.3642 -1.4467 -0.9628
  126SOPE    C213458   6.773   4.400   2.109 -0.4055 -0.2307 -0.2487
  126SOPE    HS13459   6.879   4.378   2.082 -0.7178 -0.6564 -1.1679
  126SOPE   O2113460   6.719   4.300   2.205  0.1298 -0.2440  0.5900
  126SOPE   C2113461   6.776   4.180   2.191  0.4453  0.2298 -0.0423
  126SOPE   O2213462   6.859   4.145   2.110 -0.3946 -0.1110 -0.3974
  126SOPE   C2213463   6.733   4.093   2.314 -1.0894 -0.2741  0.4456
  126SOPE   H2R13464   6.649   4.025   2.289 -0.8238 -1.0845  1.6532
  126SOPE   H2S13465   6.704   4.162   2.396 -0.6756 -0.7010  0.9622
  126SOPE    C313466   6.778   4.534   2.187  0.3559  0.0255  0.3246
  126SOPE    HX13467   6.671   4.565   2.193 -0.1277 -1.1906 -1.1704
  126SOPE    HY13468   6.818   4.613   2.120  1.8673  0.9476  2.2439
  126SOPE   O3113469   6.864   4.540   2.306 -0.2636 -0.5108  0.2180
  126SOPE   C3113470   6.815   4.596   2.413 -0.2677  0.0225 -0.8014
  126SOPE   O3213471   6.700   4.638   2.425  0.3974 -0.4737 -0.4301
  126SOPE   C3213472   6.916   4.583   2.528  0.7425 -0.4382 -0.5472
  126SOPE   H2X13473   6.980   4.673   2.525  0.1061  0.0237 -0.3678
  126SOPE   H2Y13474   6.976   4.490   2.513  0.4138 -0.6892 -0.3117
  126SOPE   C2313475   6.845   4.005   2.371  0.2990  0.4974  0.1104
  126SOPE   H3R13476   6.944   4.055   2.361  0.5569 -0.2694 -1.4956
  126SOPE   H3S13477   6.856   3.914   2.308 -2.4136 -1.0729  1.7253
  126SOPE   C2413478   6.821   3.951   2.517  0.4316 -0.0402  0.8188
  126SOPE   H4R13479   6.727   3.892   2.513  0.1710  0.3909  0.4896
  126SOPE   H4S13480   6.895   3.873   2.542  0.4352 -0.7264 -1.2112
  126SOPE   C2513481   6.796   4.057   2.621 -0.1260 -0.3030 -0.4166
  126SOPE   H5R13482   6.884   4.120   2.598 -0.4820  0.1826 -0.4794
  126SOPE   H5S13483   6.702   4.115   2.609 -1.4443 -1.6167  2.4760
  126SOPE   C2613484   6.805   4.001   2.762  0.2489  0.3961 -0.6770
  126SOPE   H6R13485   6.716   3.939   2.785  0.5670 -0.3035 -1.3006
  126SOPE   H6S13486   6.889   3.929   2.762  0.1939 -0.0240  4.3844
  126SOPE   C2713487   6.828   4.106   2.868 -0.7419 -0.3525  0.6193
  126SOPE   H7R13488   6.900   4.180   2.826 -0.5972 -1.3138 -0.9473
  126SOPE   H7S13489   6.734   4.158   2.896  0.6012  2.2046  0.6349
  126SOPE   C2813490   6.887   4.043   2.997 -1.0875 -0.0181 -0.0167
  126SOPE   H8R13491   6.972   3.981   2.960 -1.8612 -0.0527 -1.8235
  126SOPE   H8S13492   6.919   4.136   3.047  0.5498  0.2355 -1.4262
  126SOPE   C2913493   6.795   3.960   3.082 -0.7954 -0.3182 -0.6021
  126SOPE   H9113494   6.788   3.851   3.070  0.7980 -0.5806  0.5135
  126SOPE  C21013495   6.744   4.012   3.199 -0.2153  0.1086  0.5353
  126SOPE  H10113496   6.685   3.944   3.262 -2.0853 -0.6252 -1.8810
  126SOPE  C21113497   6.753   4.152   3.243  0.4902 -0.3986 -0.1994
  126SOPE  H11R13498   6.653   4.180   3.284  1.0768  1.0582  0.2910
  126SOPE  H11S13499   6.757   4.223   3.158 -4.2831  0.4629 -0.0012
  126SOPE  C21213500   6.867   4.195   3.332 -0.0807  0.0598  0.7339
  126SOPE  H12R13501   6.866   4.305   3.348 -0.6702  0.6891 -2.7912
  126SOPE  H12S13502   6.959   4.188   3.270  0.5023  1.0870  1.4517
  126SOPE  C21313503   6.895   4.106   3.456 -0.5327  0.4238 -0.6161
  126SOPE  H13R13504   6.951   4.019   3.416 -2.1194  0.0489 -2.1732
  126SOPE  H13S13505   6.800   4.075   3.505 -0.3120  0.2357 -0.3031
  126SOPE  C21413506   6.979   4.177   3.559 -0.2128  0.9524 -0.0744
  126SOPE  H14R13507   6.914   4.250   3.612 -1.8911 -0.3460 -0.2526
  126SOPE  H14S13508   7.044   4.245   3.500 -1.4896  1.2045 -1.2437
  126SOPE  C21513509   7.063   4.084   3.642 -0.5337 -0.2761  0.2951
  126SOPE  H15R13510   7.112   4.008   3.578  0.0842  0.1678  0.2288
  126SOPE  H15S13511   6.998   4.023   3.708  0.3703  0.1973  1.6687
  126SOPE  C21613512   7.185   4.137   3.719 -0.4840 -0.4448 -0.2204
  126SOPE  H16R13513   7.250   4.186   3.643 -1.2881 -1.7863 -1.8485
  126SOPE  H16S13514   7.237   4.058   3.777 -0.6559 -1.0803 -0.9151
  126SOPE  C21713515   7.149   4.258   3.810 -0.9659 -0.3417 -0.5448
  126SOPE  H17R13516   7.046   4.291   3.785 -1.7776 -1.7685  0.7791
  126SOPE  H17S13517   7.223   4.340   3.799 -0.0367 -1.0460  0.3168
  126SOPE  C21813518   7.136   4.228   3.960  0.3385 -0.2322 -0.4565
  126SOPE  H18R13519   7.081   4.132   3.966 -1.7487  0.8677 -0.9927
  126SOPE  H18S13520   7.088   4.313   4.013  1.9376  0.1454  0.4568
  126SOPE  H18T13521   7.235   4.204   4.006  0.4371 -0.7928 -0.9414
  126SOPE   C3313522   6.841   4.570   2.664  0.0639  1.2284 -0.3508
  126SOPE   H3X13523   6.760   4.495   2.666  0.6296  0.6178  0.9209
  126SOPE   H3Y13524   6.802   4.672   2.686 -3.1611 -0.1059  0.5280
  126SOPE   C3413525   6.946   4.533   2.772  0.0676 -1.5165 -0.2630
  126SOPE   H4X13526   7.032   4.603   2.768 -0.0785 -1.3133  0.0951
  126SOPE   H4Y13527   7.001   4.440   2.747  1.8638 -0.6975  0.4514
  126SOPE   C3513528   6.899   4.548   2.916 -0.1415 -0.0218 -0.2133
  126SOPE   H5X13529   6.814   4.478   2.934  0.0813 -0.6161 -1.3302
  126SOPE   H5Y13530   6.860   4.650   2.933 -1.1503 -0.6564  1.5693
  126SOPE   C3613531   7.014   4.529   3.013  0.1564  0.2271 -0.2040
  126SOPE   H6X13532   7.099   4.601   3.016  0.5963 -0.3239  1.4190
  126SOPE   H6Y13533   7.067   4.435   2.989 -0.4716  0.3705 -2.3366
  126SOPE   C3713534   6.952   4.537   3.150 -0.2038 -0.1475 -1.0241
  126SOPE   H7X13535   6.872   4.460   3.148 -1.4740  1.0264  0.9430
  126SOPE   H7Y13536   6.903   4.635   3.166 -1.3731 -1.1224  2.3402
  126SOPE   C3813537   7.053   4.513   3.266 -0.1797 -0.1368 -0.1836
  126SOPE   H8X13538   7.149   4.568   3.251 -0.3174  0.1464 -0.0450
  126SOPE   H8Y13539   7.069   4.404   3.273  2.6085  0.2632  1.0629
  126SOPE   C3913540   7.008   4.562   3.404 -0.1460 -0.0676  0.2756
  126SOPE   H9X13541   6.925   4.494   3.430  0.3545 -0.4264  0.9837
  126SOPE   H9Y13542   6.975   4.668   3.394  0.2967  0.0861  0.3838
  126SOPE  C31013543   7.113   4.562   3.521  0.0776 -0.3230  0.3745
  126SOPE  H10X13544   7.199   4.623   3.487  1.0603 -1.8521  0.0265
  126SOPE  H10Y13545   7.147   4.456   3.526  0.2752 -0.2236  1.2729
  126SOPE  C31113546   7.073   4.631   3.650  0.0543  0.8734 -0.1225
  126SOPE  H11X13547   6.989   4.566   3.683  2.2678 -2.4604 -0.6089
  126SOPE  H11Y13548   7.036   4.732   3.623 -0.8921  1.0138  1.5846
  126SOPE  C31213549   7.190   4.634   3.753 -0.6074  0.1747 -0.2425
  126SOPE  H12X13550   7.255   4.544   3.741  0.1814  0.6624  0.2737
  126SOPE  H12Y13551   7.140   4.624   3.851  0.8555  0.2379  0.5378
  126SOPE  C31313552   7.282   4.754   3.737  0.4035 -0.0102  0.2400
  126SOPE  H13X13553   7.329   4.741   3.637  0.4644 -0.3306  0.3086
  126SOPE  H13Y13554   7.355   4.746   3.820  1.9286 -0.3751 -1.0887
  126SOPE  C31413555   7.205   4.886   3.743  0.7832 -0.3456 -0.0136
  126SOPE  H14X13556   7.137   4.890   3.831 -1.1532 -2.1341 -1.3229
  126SOPE  H14Y13557   7.150   4.896   3.647 -0.7239  1.4604  0.9672
  126SOPE  C31513558   7.298   5.006   3.741 -0.4395 -0.1018 -0.6640
  126SOPE  H15X13559   7.382   4.987   3.671 -1.1533 -1.4267 -1.1915
  126SOPE  H15Y13560   7.350   5.028   3.837 -0.0166 -1.7789 -0.4831
  126SOPE  C31613561   7.239   5.134   3.673  0.6864 -0.4480 -0.8431
  126SOPE  H16X13562   7.151   5.170   3.729  1.4976  0.7849 -0.3113
  126SOPE  H16Y13563   7.206   5.104   3.571 -2.0721 -1.9824  0.3921
  126SOPE  C31713564   7.344   5.234   3.677  0.0364 -0.7362 -0.1066
  126SOPE  H17X13565   7.405   5.210   3.587  0.5016 -0.5951  0.1684
  126SOPE  H17Y13566   7.400   5.224   3.772  0.7518  0.5596 -0.3677
  126SOPE  C31813567   7.289   5.381   3.663 -0.8911  0.1852 -0.1786
  126SOPE  H18X13568   7.185   5.383   3.700 -0.6477  0.5187  0.4943
  126SOPE  H18Y13569   7.293   5.413   3.557 -0.1509  0.0231 -0.2098
  126SOPE  H18Z13570   7.351   5.451   3.723 -0.4791 -0.3433  0.0235
  127SOPE     N13571   4.418   3.609   2.646 -0.2226  0.0422  0.0346
  127SOPE   HN113572   4.425   3.704   2.606  0.3742  0.0892  0.2319
  127SOPE   HN213573   4.449   3.536   2.578  0.6922  1.0264 -0.6473
  127SOPE   HN313574   4.319   3.594   2.673  0.0451 -0.0696  0.9750
  127SOPE   C1213575   4.496   3.617   2.761 -0.1962 -0.0333  0.1271
  127SOPE  H12A13576   4.467   3.534   2.829 -2.1418 -0.3189 -0.9600
  127SOPE  H12B13577   4.470   3.712   2.812  0.6884  1.4096 -1.9852
  127SOPE   C1113578   4.651   3.633   2.727  0.0226 -0.2541 -0.5634
  127SOPE  H11A13579   4.681   3.526   2.714  2.6780  0.4583 -0.8840
  127SOPE  H11B13580   4.691   3.691   2.813 -0.5692  0.5893 -0.8536
  127SOPE     P13581   4.811   3.744   2.552  0.0388  0.1273 -0.2680
  127SOPE   O1313582   4.782   3.847   2.447 -0.9689  0.4564  0.2866
  127SOPE   O1413583   4.887   3.623   2.518 -0.4089  0.5521 -0.1345
  127SOPE   O1213584   4.677   3.700   2.608  0.2836  0.2337  0.0955
  127SOPE   O1113585   4.875   3.819   2.674  0.0391 -0.4669 -0.4370
  127SOPE    C113586   4.807   3.937   2.727  0.1074 -0.5419 -0.1645
  127SOPE    HA13587   4.697   3.923   2.724  0.0922 -1.5123  2.1532
  127SOPE    HB13588   4.840   4.021   2.663  1.3853 -0.1970  0.9028
  127SOPE    C213589   4.849   3.974   2.878 -0.1770  0.2010  0.2326
  127SOPE    HS13590   4.949   4.021   2.870 -0.2322  0.7003  2.1518
  127SOPE   O2113591   4.848   3.855   2.970 -0.0987  0.4565 -0.3556
  127SOPE   C2113592   4.964   3.796   2.990  0.2682  0.0596  0.0117
  127SOPE   O2213593   5.073   3.849   2.973  0.2835  0.2072 -0.7933
  127SOPE   C2213594   4.942   3.652   3.035  0.2281 -0.4984  0.8818
  127SOPE   H2R13595   4.906   3.599   2.944 -1.7810  3.1462 -0.6649
  127SOPE   H2S13596   4.861   3.644   3.110  0.1737 -1.4663  0.7339
  127SOPE    C313597   4.746   4.080   2.936  0.0429  0.3729  0.0694
  127SOPE    HX13598   4.653   4.021   2.927  0.3592 -0.0354 -0.5684
  127SOPE    HY13599   4.741   4.165   2.865  0.2046  0.5206  0.2333
  127SOPE   O3113600   4.761   4.118   3.078 -0.0236  0.6236 -0.2372
  127SOPE   C3113601   4.819   4.229   3.092 -0.0177 -0.4566 -0.6990
  127SOPE   O3213602   4.872   4.302   3.010  0.1549  0.5611  0.3696
  127SOPE   C3213603   4.825   4.267   3.243 -0.3338 -0.3329 -0.1218
  127SOPE   H2X13604   4.734   4.236   3.298 -0.1241  1.6560  1.4604
  127SOPE   H2Y13605   4.809   4.376   3.250 -0.6908 -0.4550  1.3606
  127SOPE   C2313606   5.070   3.584   3.085  0.0835 -0.7746  0.1072
  127SOPE   H3R13607   5.158   3.612   3.023  0.3405  0.6899  1.0619
  127SOPE   H3S13608   5.061   3.474   3.074 -0.2050 -0.9635  1.9502
  127SOPE   C2413609   5.094   3.610   3.235  0.1383 -0.0799  0.3057
  127SOPE   H4R13610   5.123   3.717   3.239  2.9903 -0.7829  1.4619
  127SOPE   H4S13611   5.008   3.591   3.303 -0.8507  1.4851 -0.4508
  127SOPE   C2513612   5.220   3.534   3.280  0.1240 -0.2372  0.4583
  127SOPE   H5R13613   5.213   3.433   3.235  2.7158 -0.8073  1.1702
  127SOPE   H5S13614   5.310   3.556   3.218 -1.4154 -0.3001 -1.9112
  127SOPE   C2613615   5.265   3.560   3.424 -0.3433 -0.2553  0.4217
  127SOPE   H6R13616   5.291   3.668   3.434  0.0030 -0.0497 -2.1748
  127SOPE   H6S13617   5.172   3.553   3.484 -0.5586 -2.1689 -0.0724
  127SOPE   C2713618   5.370   3.466   3.481  0.4141 -0.1505 -0.2908
  127SOPE   H7R13619   5.329   3.364   3.464 -2.8718  0.3078  3.4903
  127SOPE   H7S13620   5.470   3.473   3.433 -0.0133 -0.1798 -1.2002
  127SOPE   C2813621   5.381   3.478   3.635  0.1722 -0.0646 -0.3247
  127SOPE   H8R13622   5.301   3.417   3.682  0.1945 -0.5619 -0.9119
  127SOPE   H8S13623   5.467   3.413   3.660  1.5385  2.8555  3.4262
  127SOPE   C2913624   5.433   3.606   3.705  0.2757  0.6330  0.5133
  127SOPE   H9113625   5.516   3.646   3.645 -0.3841 -0.3601 -1.1354
  127SOPE  C21013626   5.387   3.670   3.809  0.5291  0.6306 -0.8970
  127SOPE  H10113627   5.434   3.762   3.847  0.2629 -0.0986  1.4054
  127SOPE  C21113628   5.270   3.621   3.890 -0.2308 -0.2176 -0.2663
  127SOPE  H11R13629   5.295   3.616   3.999  0.7281 -1.9598 -0.5324
  127SOPE  H11S13630   5.240   3.515   3.875  0.8887 -1.0058  2.3659
  127SOPE  C21213631   5.140   3.703   3.866  0.9084  0.1675  0.8679
  127SOPE  H12R13632   5.161   3.812   3.867 -2.1274  0.8243  1.2284
  127SOPE  H12S13633   5.071   3.685   3.951  0.8875 -0.7516  0.6747
  127SOPE  C21313634   5.077   3.657   3.741  0.2337 -0.1999  0.9843
  127SOPE  H13R13635   5.068   3.546   3.741 -1.2261 -0.1075  1.5808
  127SOPE  H13S13636   5.141   3.671   3.651 -0.9014  0.4426  0.2459
  127SOPE  C21413637   4.935   3.710   3.717  0.0556 -0.0675  0.3425
  127SOPE  H14R13638   4.938   3.821   3.725 -3.6622  0.4644 -2.8538
  127SOPE  H14S13639   4.850   3.673   3.779 -0.2967  0.5940  0.2677
  127SOPE  C21513640   4.903   3.691   3.568  0.8686 -0.5628  0.1647
  127SOPE  H15R13641   4.894   3.581   3.552 -0.8508 -0.5391  0.7872
  127SOPE  H15S13642   4.991   3.717   3.506 -0.5541 -1.1346 -2.2031
  127SOPE  C21613643   4.779   3.765   3.516  0.1063  0.5057 -0.1432
  127SOPE  H16R13644   4.764   3.864   3.564 -0.5045 -0.8016  2.5701
  127SOPE  H16S13645   4.694   3.697   3.538 -0.4319  0.8780 -1.0076
  127SOPE  C21713646   4.781   3.765   3.360 -0.0865  0.2416 -0.4804
  127SOPE  H17R13647   4.797   3.664   3.318  2.3519  0.4731 -0.2701
  127SOPE  H17S13648   4.871   3.826   3.338 -0.0093  0.3266  0.0525
  127SOPE  C21813649   4.661   3.830   3.286 -0.5955 -0.5199 -0.0048
  127SOPE  H18R13650   4.628   3.926   3.333 -0.7696 -1.3415  1.6336
  127SOPE  H18S13651   4.572   3.764   3.281 -1.4909  0.7017 -0.8878
  127SOPE  H18T13652   4.691   3.849   3.181 -1.5827  0.5096 -0.1230
  127SOPE   C3313653   4.961   4.225   3.304 -0.0048 -0.3672  0.0056
  127SOPE   H3X13654   4.969   4.267   3.407  0.2921 -1.2344  0.3394
  127SOPE   H3Y13655   5.040   4.271   3.241 -1.6450  3.0937  0.2449
  127SOPE   C3413656   4.969   4.078   3.303  0.2914  0.0837  0.1759
  127SOPE   H4X13657   4.962   4.036   3.201  1.3701  1.6016 -0.5709
  127SOPE   H4Y13658   4.876   4.039   3.350 -0.3124  0.5271 -0.6380
  127SOPE   C3513659   5.084   4.033   3.398 -0.3045  0.2805  0.2788
  127SOPE   H5X13660   5.173   4.063   3.339  0.4229 -1.9975  0.1306
  127SOPE   H5Y13661   5.098   3.924   3.387  0.6632  0.4036  0.1289
  127SOPE   C3613662   5.072   4.067   3.547 -0.0934  0.6694  0.4038
  127SOPE   H6X13663   4.985   4.003   3.573 -0.0917 -1.3372 -3.7018
  127SOPE   H6Y13664   5.046   4.169   3.581 -0.9188  0.2683  1.0038
  127SOPE   C3713665   5.197   4.011   3.617 -0.2692 -0.1840 -0.1390
  127SOPE   H7X13666   5.207   3.901   3.612  1.8187  0.0141 -1.3039
  127SOPE   H7Y13667   5.179   4.022   3.726 -0.1206 -0.2206 -0.1105
  127SOPE   C3813668   5.329   4.082   3.580 -0.2621  1.0912 -0.4138
  127SOPE   H8X13669   5.350   4.091   3.471  1.1495 -2.3565 -0.5428
  127SOPE   H8Y13670   5.408   4.018   3.624 -1.0067  0.1666 -0.4008
  127SOPE   C3913671   5.343   4.217   3.653 -0.4800  0.1462 -0.6364
  127SOPE   H9X13672   5.333   4.217   3.764 -0.0542  0.4112 -0.5949
  127SOPE   H9Y13673   5.259   4.279   3.615 -1.0219  0.0318  0.3458
  127SOPE  C31013674   5.455   4.307   3.616 -0.1847 -0.5869 -0.5406
  127SOPE  H10X13675   5.472   4.305   3.506 -0.4733  2.2384 -0.6941
  127SOPE  H10Y13676   5.549   4.275   3.666 -0.4963  2.0834  2.0014
  127SOPE  C31113677   5.440   4.456   3.656 -0.1028  0.2764 -0.4070
  127SOPE  H11X13678   5.334   4.481   3.634 -0.1289 -0.4843 -1.2032
  127SOPE  H11Y13679   5.497   4.525   3.591  0.2877 -0.2738 -0.6505
  127SOPE  C31213680   5.452   4.479   3.806  0.2360  0.4291  0.6985
  127SOPE  H12X13681   5.551   4.441   3.839  0.8348  2.8399  1.9260
  127SOPE  H12Y13682   5.375   4.423   3.864 -0.4302 -0.7346 -1.2388
  127SOPE  C31313683   5.463   4.625   3.865  0.1317  0.4121 -0.2884
  127SOPE  H13X13684   5.559   4.672   3.835  2.2018 -1.8508  2.2206
  127SOPE  H13Y13685   5.464   4.610   3.975  2.1677  0.0241 -0.3225
  127SOPE  C31413686   5.345   4.709   3.825  0.2574  0.7218  0.1402
  127SOPE  H14X13687   5.254   4.647   3.842  0.9053 -0.2359  0.1170
  127SOPE  H14Y13688   5.337   4.721   3.715 -0.7960 -0.5980  0.0503
  127SOPE  C31513689   5.333   4.834   3.899  0.0022 -0.3613  0.3448
  127SOPE  H15X13690   5.307   4.818   4.006 -0.0538  0.6432  0.4905
  127SOPE  H15Y13691   5.253   4.899   3.857  0.8577 -0.2698 -1.1941
  127SOPE  C31613692   5.472   4.907   3.906 -0.4437  0.1038  0.0042
  127SOPE  H16X13693   5.515   4.924   3.805  0.0542  0.3097  0.2485
  127SOPE  H16Y13694   5.547   4.845   3.960  0.8089  1.5506 -0.0277
  127SOPE  C31713695   5.457   5.041   3.969  0.1254  0.0369  0.0847
  127SOPE  H17X13696   5.430   5.025   4.076  0.9211 -1.1663  0.1145
  127SOPE  H17Y13697   5.365   5.073   3.916 -0.7477 -0.8983  0.9922
  127SOPE  C31813698   5.577   5.128   3.977  0.0848 -0.6951  1.0047
  127SOPE  H18X13699   5.591   5.182   3.881 -0.8893 -0.8846  0.7436
  127SOPE  H18Y13700   5.671   5.074   3.998  0.2054 -1.8208 -2.0209
  127SOPE  H18Z13701   5.559   5.203   4.058  0.3575  0.1700  0.2752
  128SOPE     N13702   3.590   3.070   2.371  0.4282 -0.1892  0.5291
  128SOPE   HN113703   3.632   3.139   2.305  1.2062  1.3400  2.5114
  128SOPE   HN213704   3.637   2.978   2.362  0.0889 -0.2495 -0.8172
  128SOPE   HN313705   3.489   3.053   2.353  0.8007  0.5416 -2.8913
  128SOPE   C1213706   3.601   3.134   2.507 -0.1422  0.2041 -0.3388
  128SOPE  H12A13707   3.711   3.137   2.521 -0.1509 -0.5021 -0.0900
  128SOPE  H12B13708   3.558   3.067   2.584 -0.8176  0.9832 -0.0224
  128SOPE   C1113709   3.541   3.273   2.510  0.1193  0.2075  0.5612
  128SOPE  H11A13710   3.572   3.330   2.601 -2.9313 -0.2817  2.0297
  128SOPE  H11B13711   3.430   3.276   2.513  0.0767  1.4896 -0.7745
  128SOPE     P13712   3.538   3.492   2.359 -0.1453  0.2297 -0.2036
  128SOPE   O1313713   3.393   3.498   2.357 -0.3059 -0.0303  0.7354
  128SOPE   O1413714   3.607   3.552   2.250  0.0286 -0.3039  0.6839
  128SOPE   O1213715   3.594   3.346   2.393 -0.6185 -0.3342 -0.0098
  128SOPE   O1113716   3.591   3.569   2.489  1.3593  0.1678 -0.0903
  128SOPE    C113717   3.725   3.583   2.528  0.3250  0.2343 -0.1835
  128SOPE    HA13718   3.764   3.664   2.463 -2.0130  0.9532 -0.7894
  128SOPE    HB13719   3.771   3.482   2.525  0.8260  0.4031  1.1004
  128SOPE    C213720   3.736   3.625   2.676 -0.0311 -0.3764 -0.0589
  128SOPE    HS13721   3.832   3.680   2.682 -1.6959  2.6832  0.8051
  128SOPE   O2113722   3.728   3.528   2.775 -0.1686  0.0290  0.9797
  128SOPE   C2113723   3.836   3.447   2.784  0.1467  0.1061  0.5591
  128SOPE   O2213724   3.938   3.467   2.718 -0.4011 -0.2710  0.6341
  128SOPE   C2213725   3.822   3.343   2.896  0.0330 -0.5843  0.3375
  128SOPE   H2R13726   3.881   3.251   2.875 -0.4191 -0.8043  0.0063
  128SOPE   H2S13727   3.715   3.314   2.901 -0.4668  0.5056 -2.3831
  128SOPE    C313728   3.622   3.726   2.710 -0.4702  0.2724 -0.4442
  128SOPE    HX13729   3.537   3.657   2.692  0.7877 -1.1185 -1.2813
  128SOPE    HY13730   3.633   3.801   2.629  1.6914  1.4784  0.8482
  128SOPE   O3113731   3.635   3.786   2.841 -0.3604  0.2549 -0.1852
  128SOPE   C3113732   3.517   3.810   2.892  0.0912 -0.2775  0.2741
  128SOPE   O3213733   3.411   3.788   2.837  0.0304 -0.3525  0.5198
  128SOPE   C3213734   3.518   3.872   3.033  0.9688  0.5356  0.0973
  128SOPE   H2X13735   3.606   3.940   3.037  0.7640  1.1225 -2.9298
  128SOPE   H2Y13736   3.526   3.782   3.098  1.6735 -1.1846 -2.2557
  128SOPE   C2313737   3.870   3.405   3.036  0.1619  0.5107 -0.1510
  128SOPE   H3R13738   3.971   3.447   3.021  0.6653 -0.0958  1.4028
  128SOPE   H3S13739   3.864   3.324   3.111  0.0573  0.5734 -0.0910
  128SOPE   C2413740   3.779   3.525   3.088  0.5899 -0.4072 -0.3977
  128SOPE   H4R13741   3.804   3.619   3.034  1.5261 -0.0860  0.5408
  128SOPE   H4S13742   3.672   3.503   3.073  0.5574 -1.8425  1.5361
  128SOPE   C2513743   3.803   3.545   3.237 -0.0531  0.1466  0.4704
  128SOPE   H5R13744   3.771   3.454   3.292 -2.5369  0.0245 -1.0472
  128SOPE   H5S13745   3.912   3.549   3.259  0.0913  2.6094 -0.4448
  128SOPE   C2613746   3.723   3.669   3.291  0.7613  0.2667  0.5156
  128SOPE   H6R13747   3.756   3.758   3.232 -1.6533  0.1550 -1.1389
  128SOPE   H6S13748   3.615   3.653   3.270  0.5876  1.6345  0.2083
  128SOPE   C2713749   3.729   3.692   3.437 -0.2851 -0.1249  0.0092
  128SOPE   H7R13750   3.645   3.758   3.467  0.5273  1.3218 -0.7640
  128SOPE   H7S13751   3.716   3.591   3.479 -3.2357 -0.5797 -1.7686
  128SOPE   C2813752   3.851   3.783   3.478 -0.1768  0.4818 -0.1107
  128SOPE   H8R13753   3.834   3.876   3.421  0.8966 -0.3569 -1.8772
  128SOPE   H8S13754   3.822   3.808   3.583  0.1514 -1.1190  0.3909
  128SOPE   C2913755   3.997   3.738   3.464  0.5534 -0.4841  0.0542
  128SOPE   H9113756   4.026   3.734   3.358  1.5848  3.5408  0.0212
  128SOPE  C21013757   4.093   3.712   3.555  0.1112 -0.0278  0.2986
  128SOPE  H10113758   4.186   3.668   3.518 -0.4755 -0.6067 -0.5292
  128SOPE  C21113759   4.084   3.715   3.707 -0.0006 -0.0113  0.1812
  128SOPE  H11R13760   4.135   3.622   3.741 -0.4561 -0.6606 -0.8658
  128SOPE  H11S13761   3.978   3.701   3.738  0.0974 -0.2159  0.4334
  128SOPE  C21213762   4.146   3.843   3.770 -0.2987 -0.9837 -0.1305
  128SOPE  H12R13763   4.104   3.925   3.709  2.3364  0.1417 -0.5553
  128SOPE  H12S13764   4.255   3.840   3.748 -0.5834 -1.4312 -1.5693
  128SOPE  C21313765   4.123   3.860   3.926 -0.1310 -0.0976 -0.0302
  128SOPE  H13R13766   4.142   3.764   3.978 -1.7595 -0.5138 -0.1475
  128SOPE  H13S13767   4.022   3.896   3.955  0.8479  1.1949  1.9731
  128SOPE  C21413768   4.232   3.949   3.985  0.6221 -0.0597  0.0083
  128SOPE  H14R13769   4.246   4.051   3.943  0.8609  0.8236  2.1198
  128SOPE  H14S13770   4.326   3.897   3.955  0.0996  1.2600 -4.8400
  128SOPE  C21513771   4.225   3.951   4.140 -0.1444 -0.0296  0.1657
  128SOPE  H15R13772   4.180   3.857   4.179  0.1271  0.2447  1.1665
  128SOPE  H15S13773   4.151   4.026   4.174 -0.5367 -0.2319 -0.2189
  128SOPE  C21613774   4.358   3.985   4.207  0.5234 -0.0554 -0.3038
  128SOPE  H16R13775   4.398   4.080   4.164 -1.6376  0.1769 -1.9787
  128SOPE  H16S13776   4.429   3.901   4.189 -1.1082 -1.5916  0.0994
  128SOPE  C21713777   4.333   3.993   4.359 -0.6144 -0.2776 -0.1959
  128SOPE  H17R13778   4.330   3.888   4.395  0.5494  0.1963  1.3853
  128SOPE  H17S13779   4.234   4.039   4.381 -0.8784  0.1751 -2.1756
  128SOPE  C21813780   4.443   4.065   4.433 -0.7666 -0.2043 -0.9191
  128SOPE  H18R13781   4.437   4.173   4.407 -0.5718  0.6389  2.1140
  128SOPE  H18S13782   4.546   4.030   4.413  0.1788  1.6410  0.4566
  128SOPE  H18T13783   4.417   4.065   4.541 -1.2218  2.0052 -0.9699
  128SOPE   C3313784   3.384   3.931   3.067 -0.1824 -0.1981  0.1279
  128SOPE   H3X13785   3.301   3.881   3.014  1.4923 -0.4179 -2.4422
  128SOPE   H3Y13786   3.377   4.041   3.051 -0.8144 -0.4435 -1.3793
  128SOPE   C3413787   3.358   3.909   3.224 -0.0929  1.1711  0.8646
  128SOPE   H4X13788   3.371   3.805   3.262  0.1024  1.9799  3.1384
  128SOPE   H4Y13789   3.247   3.918   3.229 -0.2358 -0.0808  0.4777
  128SOPE   C3513790   3.436   4.011   3.317  0.1027 -0.4717 -0.4526
  128SOPE   H5X13791   3.393   4.113   3.306 -2.7803 -1.7358 -1.9615
  128SOPE   H5Y13792   3.540   4.004   3.279  0.2560 -0.9899  0.0405
  128SOPE   C3613793   3.443   3.954   3.455  0.3572 -0.2703 -0.1270
  128SOPE   H6X13794   3.529   3.995   3.513 -0.3404  1.6499 -0.3911
  128SOPE   H6Y13795   3.467   3.845   3.456 -0.1090 -0.4340  2.8306
  128SOPE   C3713796   3.308   3.976   3.532 -0.0479 -0.2603 -0.1381
  128SOPE   H7X13797   3.219   3.934   3.481 -0.7784 -1.0727  1.7338
  128SOPE   H7Y13798   3.283   4.084   3.522 -1.6262 -0.7411 -1.7796
  128SOPE   C3813799   3.312   3.942   3.685 -0.3552 -0.1472 -0.0771
  128SOPE   H8X13800   3.354   3.840   3.693 -1.9092 -0.7295  1.0942
  128SOPE   H8Y13801   3.209   3.936   3.727 -0.2415 -1.4942  0.0309
  128SOPE   C3913802   3.408   4.039   3.765 -0.0486  0.2938 -0.1181
  128SOPE   H9X13803   3.382   4.147   3.754  0.2302  0.4399  0.6214
  128SOPE   H9Y13804   3.509   4.027   3.719 -0.2180 -2.3557  0.0225
  128SOPE  C31013805   3.415   4.009   3.919  0.0807 -0.7542 -0.1468
  128SOPE  H10X13806   3.451   3.904   3.925  2.1069 -0.0355  2.6011
  128SOPE  H10Y13807   3.321   4.018   3.978  0.4552  1.8321  0.1704
  128SOPE  C31113808   3.524   4.106   3.981  0.1748  0.5133 -0.2104
  128SOPE  H11X13809   3.470   4.203   3.992 -0.4996  0.0355  0.7731
  128SOPE  H11Y13810   3.606   4.126   3.908  0.2042 -0.5484 -0.4849
  128SOPE  C31213811   3.592   4.060   4.118  0.5124 -0.2407  0.3684
  128SOPE  H12X13812   3.517   4.058   4.200 -1.9584 -2.1027 -1.7883
  128SOPE  H12Y13813   3.673   4.132   4.143 -0.3658  1.1061 -0.5443
  128SOPE  C31313814   3.648   3.917   4.117 -0.5098 -0.3340 -0.2753
  128SOPE  H13X13815   3.721   3.906   4.034 -1.6828  0.2340 -1.4248
  128SOPE  H13Y13816   3.555   3.857   4.103 -3.0731  2.3300  3.2920
  128SOPE  C31413817   3.705   3.869   4.249 -0.3398  0.3657  0.7221
  128SOPE  H14X13818   3.709   3.758   4.244 -0.7090  0.3145  1.3896
  128SOPE  H14Y13819   3.639   3.898   4.334 -3.3750 -2.1248 -0.5683
  128SOPE  C31513820   3.850   3.924   4.263 -0.2998  0.3849 -0.1183
  128SOPE  H15X13821   3.864   4.033   4.245  0.8451  0.1285 -0.9173
  128SOPE  H15Y13822   3.919   3.875   4.191 -0.2282  0.3775 -0.0447
  128SOPE  C31613823   3.915   3.883   4.400 -0.7429 -0.0793 -0.2759
  128SOPE  H16X13824   4.012   3.831   4.381 -0.0682  0.5149  1.3378
  128SOPE  H16Y13825   3.851   3.809   4.452  0.4360 -0.8411  0.1513
  128SOPE  C31713826   3.949   3.992   4.501 -0.2383  0.1779  0.4534
  128SOPE  H17X13827   3.849   4.035   4.521 -0.2058  0.6400 -0.3177
  128SOPE  H17Y13828   4.018   4.066   4.454  0.3277 -0.1849  0.7061
  128SOPE  C31813829   4.012   3.931   4.627 -0.1603 -0.7695  0.1694
  128SOPE  H18X13830   4.114   3.893   4.605  0.3751  0.7431 -0.0918
  128SOPE  H18Y13831   3.942   3.854   4.667  1.1461 -2.6944 -1.0415
  128SOPE  H18Z13832   4.030   4.012   4.701 -0.9348  3.5580 -3.8820
  129OSM      N13833   5.753   5.765   6.776  0.1939 -0.3542  0.7095
  129OSM    C1513834   5.770   5.633   6.713 -0.2984 -0.1280  0.2630
  129OSM   H15A13835   5.862   5.622   6.658 -1.3464 -0.1660 -1.5512
  129OSM   H15B13836   5.703   5.614   6.631 -0.6458 -0.4439  0.6120
  129OSM   H15C13837   5.758   5.549   6.780 -1.7175 -0.9311 -0.9306
  129OSM    C1413838   5.628   5.755   6.864  0.7877  0.0509  0.0271
  129OSM   H14A13839   5.654   5.690   6.947 -1.0534 -2.5346 -1.2633
  129OSM   H14B13840   5.540   5.712   6.818  0.6438  0.0422  0.3091
  129OSM   H14C13841   5.590   5.852   6.890 -1.7027 -1.0806  0.9023
  129OSM    C1313842   5.871   5.790   6.858  0.2612  0.3303  0.8788
  129OSM   H13A13843   5.885   5.708   6.927 -0.2093 -2.4962 -2.1398
  129OSM   H13B13844   5.858   5.881   6.915 -3.9999 -0.9317  2.3230
  129OSM   H13C13845   5.956   5.777   6.793 -1.4748  0.4530 -1.5447
  129OSM    C1213846   5.734   5.869   6.663 -0.5474 -0.4558  0.2744
  129OSM   H12A13847   5.811   5.867   6.587 -1.3337  0.5733 -0.5860
  129OSM   H12B13848   5.744   5.963   6.717 -2.1474 -1.0168  1.6234
  129OSM    C1113849   5.594   5.876   6.594  0.1510 -0.1693 -0.0843
  129OSM   H11A13850   5.583   5.953   6.514 -4.1167 -1.6237 -1.1862
  129OSM   H11B13851   5.519   5.904   6.671 -1.9419  0.4370 -2.1938
  129OSM      P13852   5.426   5.685   6.525 -0.5546 -0.3956 -0.3224
  129OSM    O1313853   5.427   5.565   6.441 -0.1719  0.5434 -0.3632
  129OSM    O1413854   5.394   5.674   6.671 -0.2519 -0.2024  0.0556
  129OSM    O1113855   5.336   5.789   6.457  0.1829 -0.4778 -0.0872
  129OSM    O1213856   5.569   5.756   6.520  0.1612  0.0203  0.3883
  129OSM    C1S13857   5.378   5.858   6.343  0.0429 -0.3411 -0.6579
  129OSM    H1S13858   5.371   5.798   6.249 -2.2082 -2.1980  0.6093
  129OSM    H1T13859   5.480   5.900   6.354 -0.0395 -0.1774 -0.5227
  129OSM     NF13860   5.351   6.068   6.208  0.2482 -0.7524  0.5502
  129OSM    HNF13861   5.426   6.133   6.217 -0.6045  0.2518  0.6324
  129OSM    C2S13862   5.296   5.994   6.321  0.4657 -0.0850  0.3345
  129OSM    H2S13863   5.191   5.961   6.305 -0.1746  1.5640  0.9280
  129OSM    C3S13864   5.289   6.067   6.455  0.2487 -0.0963  0.1828
  129OSM    H3S13865   5.392   6.092   6.487  0.6616  3.1919 -3.1029
  129OSM     O313866   5.231   5.998   6.567  0.2944 -0.4822 -0.3255
  129OSM    HO313867   5.244   5.909   6.533  2.4305  0.1778 -1.4157
  129OSM    C4S13868   5.233   6.202   6.430  0.4718 -0.1827  0.7211
  129OSM    H4S13869   5.289   6.278   6.373 -1.9355  1.7667  0.8237
  129OSM    C5S13870   5.104   6.234   6.456  0.1500  0.6111  0.4934
  129OSM    H5S13871   5.032   6.158   6.491  0.7335 -0.9829 -1.5851
  129OSM    C6S13872   5.041   6.357   6.402  0.3786  0.1472  0.2652
  129OSM    H6S13873   5.073   6.449   6.454  2.8857 -0.3307 -0.3052
  129OSM    H6T13874   4.932   6.348   6.422 -0.1076  0.2155 -2.0344
  129OSM    C7S13875   5.051   6.389   6.252 -0.5950  1.1597 -1.1513
  129OSM    H7S13876   5.162   6.387   6.242 -0.4062 -1.2820  0.5918
  129OSM    H7T13877   5.025   6.495   6.232  0.7924  2.2591  2.1845
  129OSM    C8S13878   4.981   6.286   6.159 -0.2927  0.1163 -0.8204
  129OSM    H8S13879   4.873   6.282   6.183 -0.2031 -1.9378 -0.5428
  129OSM    H8T13880   5.035   6.189   6.171  1.8638  1.2418 -0.9109
  129OSM    C9S13881   5.011   6.323   6.012 -0.5066 -0.0288 -0.2081
  129OSM    H9S13882   5.107   6.294   5.966 -0.3069  0.9017 -0.3986
  129OSM    H9T13883   5.018   6.434   6.010 -0.7465 -0.0055  0.2170
  129OSM   C10S13884   4.918   6.269   5.905  0.2833  0.3828 -0.0218
  129OSM   H10S13885   4.822   6.325   5.909  0.0967 -0.0006  1.1759
  129OSM   H10T13886   4.894   6.162   5.919 -0.3940  0.5963  0.4599
  129OSM   C11S13887   4.983   6.288   5.770 -0.1301  0.7300  0.1462
  129OSM   H11S13888   5.075   6.228   5.756 -0.5350  0.6510 -2.6484
  129OSM   H11T13889   5.032   6.388   5.775  1.6648 -0.1240  0.9387
  129OSM   C12S13890   4.892   6.272   5.658  0.0639  0.3568  0.0350
  129OSM   H12S13891   4.816   6.351   5.642  1.3088  1.4726 -0.6408
  129OSM   H12T13892   4.853   6.169   5.674 -1.6291  0.9827  0.1107
  129OSM   C13S13893   4.974   6.265   5.527  0.3872 -0.1681  0.6240
  129OSM   H13S13894   5.050   6.184   5.532 -2.6235 -3.1873  0.7453
  129OSM   H13T13895   5.021   6.365   5.511 -1.4697  0.7172  0.3987
  129OSM   C14S13896   4.881   6.248   5.404  0.2373 -0.2292 -0.2053
  129OSM   H14S13897   4.797   6.320   5.414 -0.6998 -1.2652 -0.4011
  129OSM   H14T13898   4.835   6.147   5.408 -0.0074 -0.0841  1.6864
  129OSM   C15S13899   4.946   6.274   5.265 -0.0713  0.6751 -0.4078
  129OSM   H15S13900   5.022   6.193   5.259 -0.0939  0.7471 -1.8300
  129OSM   H15T13901   5.012   6.362   5.253 -1.1093  1.3974 -0.9662
  129OSM   C16S13902   4.847   6.263   5.149  0.6492 -0.1509 -0.2388
  129OSM   H16S13903   4.801   6.364   5.143  2.3048  0.7792  1.4164
  129OSM   H16T13904   4.767   6.190   5.172 -0.6637  0.1918 -3.2751
  129OSM   C17S13905   4.911   6.242   5.011  0.0098  0.0298 -0.1578
  129OSM   H17S13906   4.841   6.263   4.927  1.4675  2.5635 -0.8365
  129OSM   H17T13907   4.947   6.137   5.001 -0.0790 -0.2871  2.2169
  129OSM   C18S13908   5.034   6.343   4.997  1.0084  0.2025  0.2802
  129OSM   H18S13909   5.096   6.326   4.906  1.4531  1.9111  0.2348
  129OSM   H18T13910   5.100   6.323   5.083 -0.7903 -0.0958  1.6578
  129OSM   H18U13911   4.994   6.445   5.011  2.0272  0.4462  1.5290
  129OSM    C1F13912   5.319   6.022   6.087 -0.7539 -0.1731  0.1266
  129OSM     OF13913   5.235   5.931   6.078 -0.1907 -0.6582 -0.1898
  129OSM    C2F13914   5.384   6.083   5.969  0.1491  0.2262 -0.3323
  129OSM    H2F13915   5.492   6.057   5.972 -0.5542 -2.9674  1.0828
  129OSM    H2G13916   5.370   6.193   5.978 -0.8787 -0.0677  2.7276
  129OSM    C3F13917   5.320   6.032   5.839 -0.3661 -0.2270  0.2614
  129OSM    H3F13918   5.212   6.056   5.840 -0.9191 -2.4368  1.8386
  129OSM    H3G13919   5.327   5.921   5.844 -0.6248 -0.2356  0.4244
  129OSM    C4F13920   5.383   6.086   5.715  0.3609 -0.1903  1.1707
  129OSM    H4F13921   5.493   6.070   5.712  0.3686 -1.4628  4.3380
  129OSM    H4G13922   5.358   6.195   5.712  1.8504  0.1800  1.3966
  129OSM    C5F13923   5.323   6.016   5.589  0.1506 -0.8526  0.2533
  129OSM    H5F13924   5.213   6.025   5.598  0.4383  1.8474  2.8330
  129OSM    H5G13925   5.360   5.911   5.584 -0.8459 -1.1662 -1.5552
  129OSM    C6F13926   5.357   6.094   5.453 -0.2995 -0.3999  0.2756
  129OSM    H6F13927   5.467   6.082   5.446 -0.3670 -0.4511 -0.7540
  129OSM    H6G13928   5.335   6.202   5.471 -0.1612 -0.2353 -0.5214
  129OSM    C7F13929   5.277   6.042   5.337 -0.1211 -0.8753  0.4581
  129OSM    H7F13930   5.173   6.079   5.350 -0.1569 -1.5928  2.6188
  129OSM    H7G13931   5.259   5.933   5.328  0.3742 -0.8777 -0.8284
  129OSM    C8F13932   5.337   6.089   5.206  0.1707  0.3101 -0.6064
  129OSM    H8F13933   5.431   6.031   5.194 -0.5595 -0.8804 -0.6222
  129OSM    H8G13934   5.364   6.196   5.224  0.7098  0.0919 -0.0573
  129OSM    C9F13935   5.242   6.062   5.088 -0.3561  0.1287  0.2313
  129OSM    H9F13936   5.154   6.128   5.092  0.1134  0.7155  1.5959
  129OSM   C10F13937   5.256   5.967   4.992 -0.5253 -0.7586 -0.2513
  129OSM   H10F13938   5.193   5.971   4.902 -1.8080  0.3482  0.6566
  129OSM   C11F13939   5.378   5.879   4.970 -0.7244  0.8654  0.3645
  129OSM   H11F13940   5.357   5.777   5.007 -1.4000  1.5057  1.8208
  129OSM   H11G13941   5.465   5.908   5.033 -1.5798 -0.5792  2.3020
  129OSM   C12F13942   5.426   5.882   4.819 -0.0235 -0.0545 -0.4765
  129OSM   H12F13943   5.356   5.840   4.744  0.0772  1.2338 -1.3124
  129OSM   H12G13944   5.516   5.816   4.811  0.5747  0.5358  1.0144
  129OSM   C13F13945   5.472   6.014   4.752 -0.4519  0.2956 -0.2965
  129OSM   H13F13946   5.534   6.075   4.821  3.0786 -2.3362 -0.8705
  129OSM   H13G13947   5.389   6.079   4.717  0.0357  1.5809  0.8646
  129OSM   C14F13948   5.555   5.985   4.625  0.1409  0.3742  0.1036
  129OSM   H14F13949   5.650   5.931   4.642  0.6085  0.4495 -1.9551
  129OSM   H14G13950   5.571   6.078   4.567  1.2641  0.3978  0.4406
  129OSM   C15F13951   5.483   5.896   4.516  0.2355  0.9790 -0.0346
  129OSM   H15F13952   5.377   5.928   4.526 -0.1385 -0.2694  0.1429
  129OSM   H15G13953   5.507   5.794   4.551  2.9602  1.4427 -0.3730
  129OSM   C16F13954   5.530   5.916   4.366 -0.2415  0.2927  0.2419
  129OSM   H16F13955   5.505   6.021   4.336  1.6563  0.7715  0.2391
  129OSM   H16G13956   5.474   5.843   4.304  0.0579 -0.6825  1.1019
  129OSM   C17F13957   5.678   5.879   4.333  0.0958 -0.2708  0.0871
  129OSM   H17F13958   5.688   5.771   4.355  1.0928  0.3057  2.7477
  129OSM   H17G13959   5.748   5.930   4.401  2.0354  0.1955 -2.1180
  129OSM   C18F13960   5.711   5.912   4.190  0.7860  0.3691  0.1456
  129OSM   H18F13961   5.621   5.910   4.124  0.2571 -1.7986  0.8571
  129OSM   H18G13962   5.794   5.852   4.146  0.5949  0.4362 -0.3221
  129OSM   H18H13963   5.743   6.018   4.191  0.5186  0.5661 -2.6550
  130OSM      N13964   6.274   1.586   6.764 -0.1729  0.2811 -0.3639
  130OSM    C1513965   6.251   1.557   6.910  1.0706 -0.0837 -0.5677
  130OSM   H15A13966   6.200   1.643   6.949 -1.4964 -2.0246  0.7135
  130OSM   H15B13967   6.332   1.535   6.978 -0.0273  1.0162  1.1565
  130OSM   H15C13968   6.176   1.480   6.923  2.6358 -1.4281  1.0122
  130OSM    C1413969   6.142   1.634   6.710  0.0389 -0.3509  0.4478
  130OSM   H14A13970   6.121   1.739   6.730  0.0333 -0.3207  0.2795
  130OSM   H14B13971   6.060   1.571   6.741 -0.4020  0.5142  1.1177
  130OSM   H14C13972   6.137   1.631   6.602 -0.5595 -2.1927  0.5020
  130OSM    C1313973   6.374   1.696   6.753 -0.2770 -0.2724 -0.8183
  130OSM   H13A13974   6.403   1.719   6.651  1.2521 -0.1325 -0.3669
  130OSM   H13B13975   6.465   1.675   6.807 -1.8450  0.4659  2.3220
  130OSM   H13C13976   6.330   1.783   6.797 -0.0847 -1.7310  2.5387
  130OSM    C1213977   6.319   1.460   6.693 -0.2401  0.4351 -0.2362
  130OSM   H12A13978   6.241   1.384   6.696  2.3105 -2.4294 -1.1677
  130OSM   H12B13979   6.408   1.424   6.742 -0.9138 -0.8107  0.1341
  130OSM    C1113980   6.348   1.468   6.537  0.9313 -0.7646 -0.1846
  130OSM   H11A13981   6.255   1.512   6.496  0.2653  0.3230  2.2944
  130OSM   H11B13982   6.367   1.372   6.485  1.3485 -0.3558 -0.7939
  130OSM      P13983   6.600   1.500   6.527  0.2596  0.1327  0.1814
  130OSM    O1313984   6.694   1.609   6.521 -0.0317  0.5581 -0.3049
  130OSM    O1413985   6.616   1.402   6.634  0.4017  0.0549 -0.6852
  130OSM    O1113986   6.613   1.426   6.387  0.6234  0.6008  0.1398
  130OSM    O1213987   6.454   1.559   6.518 -0.2207 -0.3442 -0.2598
  130OSM    C1S13988   6.545   1.474   6.268 -0.1863 -0.4992 -0.3237
  130OSM    H1S13989   6.519   1.581   6.280 -0.7599 -0.3672 -2.3515
  130OSM    H1T13990   6.448   1.423   6.254 -0.2391 -0.1594 -1.2786
  130OSM     NF13991   6.564   1.536   6.038  0.1145  0.5619 -0.3479
  130OSM    HNF13992   6.495   1.493   5.980  0.0722 -0.1085  0.1959
  130OSM    C2S13993   6.633   1.458   6.139 -0.4856  0.3433  0.7346
  130OSM    H2S13994   6.733   1.483   6.179  0.7573 -1.5356 -1.0247
  130OSM    C3S13995   6.648   1.301   6.117  0.3981  0.3934 -0.0224
  130OSM    H3S13996   6.551   1.257   6.085 -1.3347  2.1231  2.5349
  130OSM     O313997   6.674   1.227   6.233 -0.3072  0.8094  0.0799
  130OSM    HO313998   6.656   1.294   6.300 -0.5740 -1.0066  1.9308
  130OSM    C4S13999   6.742   1.265   6.006  0.6822  0.0024 -0.4955
  130OSM    H4S14000   6.684   1.252   5.914 -0.4023  0.7566  0.0620
  130OSM    C5S14001   6.875   1.240   6.008 -0.1014 -0.4471  0.4632
  130OSM    H5S14002   6.928   1.258   6.102 -0.9359  0.5538  0.7633
  130OSM    C6S14003   6.951   1.199   5.884 -0.4591  0.0089  0.0735
  130OSM    H6S14004   6.883   1.172   5.801 -5.4958  1.4113  3.3082
  130OSM    H6T14005   7.018   1.115   5.911  0.2470  0.7207  0.5668
  130OSM    C7S14006   7.047   1.309   5.824  0.4452  0.0732 -0.2026
  130OSM    H7S14007   7.116   1.343   5.904 -1.8178 -1.5795  2.6454
  130OSM    H7T14008   6.996   1.402   5.792 -1.0041 -0.8948 -0.8141
  130OSM    C8S14009   7.133   1.242   5.713 -0.6386 -0.5848 -0.0541
  130OSM    H8S14010   7.216   1.193   5.767 -0.5252 -1.4050 -0.9323
  130OSM    H8T14011   7.193   1.321   5.664  1.8370 -2.3485 -0.0802
  130OSM    C9S14012   7.061   1.162   5.607  0.8823 -0.1120 -0.2151
  130OSM    H9S14013   6.975   1.224   5.572  1.1977 -0.2527 -1.2779
  130OSM    H9T14014   7.017   1.070   5.651 -2.1455  0.0666 -2.5383
  130OSM   C10S14015   7.151   1.133   5.482  0.3684  0.2315  0.0062
  130OSM   H10S14016   7.249   1.085   5.501 -0.5492 -1.8354 -0.1471
  130OSM   H10T14017   7.163   1.232   5.433  0.1824 -0.5495 -1.7177
  130OSM   C11S14018   7.083   1.052   5.373  0.0464  0.5287  0.0999
  130OSM   H11S14019   7.137   1.069   5.277 -0.2137  2.2625  0.2449
  130OSM   H11T14020   6.977   1.085   5.368 -0.5711 -1.1874  0.8915
  130OSM   C12S14021   7.089   0.901   5.406 -0.1711  0.5770  0.5239
  130OSM   H12S14022   7.043   0.901   5.507  0.3377  0.3422  0.7574
  130OSM   H12T14023   7.192   0.863   5.422  0.5950  1.9506 -0.8695
  130OSM   C13S14024   7.005   0.812   5.312 -0.0167  0.7246  1.1408
  130OSM   H13S14025   6.902   0.852   5.310 -0.2252  0.1833 -0.2258
  130OSM   H13T14026   7.004   0.707   5.346  1.0400  0.5612  0.7129
  130OSM   C14S14027   7.056   0.815   5.164  0.3743 -0.0790  0.0127
  130OSM   H14S14028   7.163   0.788   5.156  0.3596 -0.0329 -0.3416
  130OSM   H14T14029   7.040   0.913   5.115  2.2509  0.2034 -0.1079
  130OSM   C15S14030   6.975   0.718   5.070  0.2693 -0.5501 -0.0856
  130OSM   H15S14031   6.866   0.735   5.087  0.4998  0.7863  0.1418
  130OSM   H15T14032   7.003   0.616   5.104  0.1821 -0.4396  0.3188
  130OSM   C16S14033   7.005   0.743   4.924  0.0951  0.0469  0.0603
  130OSM   H16S14034   6.973   0.648   4.875  1.5052 -0.7258  0.5655
  130OSM   H16T14035   7.114   0.741   4.902  0.4094 -1.4771  1.5588
  130OSM   C17S14036   6.926   0.864   4.872  0.5974  0.1962  0.1811
  130OSM   H17S14037   6.937   0.948   4.944 -1.0451  0.2222  0.4316
  130OSM   H17T14038   6.821   0.828   4.862  0.5578  0.6429 -1.2146
  130OSM   C18S14039   6.971   0.899   4.733 -0.3785 -0.9170  0.0526
  130OSM   H18S14040   6.910   0.978   4.684 -0.5308 -1.3564 -0.4802
  130OSM   H18T14041   6.971   0.809   4.667 -1.8430 -0.6134 -0.3869
  130OSM   H18U14042   7.070   0.947   4.744 -1.5597  1.9971 -1.1364
  130OSM    C1F14043   6.580   1.668   6.025 -0.1925 -0.8227  0.3643
  130OSM     OF14044   6.645   1.730   6.109 -0.4094  0.0031  0.4023
  130OSM    C2F14045   6.500   1.731   5.921 -0.2633  0.1023  0.5064
  130OSM    H2F14046   6.391   1.747   5.937 -0.1611  0.6401  0.6681
  130OSM    H2G14047   6.513   1.667   5.831  0.9741  0.7526  0.2060
  130OSM    C3F14048   6.566   1.860   5.875 -0.5197  0.1427 -0.6038
  130OSM    H3F14049   6.676   1.846   5.880 -0.7466 -1.3779  1.0292
  130OSM    H3G14050   6.550   1.940   5.951 -0.0999  0.3594 -0.7407
  130OSM    C4F14051   6.522   1.915   5.739 -0.0852 -0.4076 -0.1466
  130OSM    H4F14052   6.604   1.989   5.724  1.9697 -2.1328  1.8539
  130OSM    H4G14053   6.420   1.958   5.745 -0.1229 -0.4937 -0.1896
  130OSM    C5F14054   6.528   1.820   5.614  0.3310  0.3874  0.2016
  130OSM    H5F14055   6.461   1.732   5.623 -1.2405  1.7453  3.9236
  130OSM    H5G14056   6.632   1.780   5.609  0.0255 -0.3197 -2.8638
  130OSM    C6F14057   6.501   1.892   5.482 -0.9518  0.5321 -0.4924
  130OSM    H6F14058   6.564   1.983   5.472  0.5441 -0.4859 -0.6615
  130OSM    H6G14059   6.393   1.920   5.489 -1.5430 -1.8059  0.6269
  130OSM    C7F14060   6.529   1.792   5.361 -0.1019  0.3066 -0.4428
  130OSM    H7F14061   6.492   1.695   5.402  1.5697 -1.2956 -2.5126
  130OSM    H7G14062   6.639   1.789   5.355 -0.1134 -1.7426 -0.4074
  130OSM    C8F14063   6.454   1.815   5.236  0.6218 -0.1253 -0.4264
  130OSM    H8F14064   6.365   1.749   5.231  0.9228 -0.4667 -1.7016
  130OSM    H8G14065   6.512   1.768   5.154 -0.1327 -1.3804 -0.2623
  130OSM    C9F14066   6.437   1.961   5.191  0.8848  0.4602 -0.2460
  130OSM    H9F14067   6.425   2.024   5.281  1.0014 -0.3245  0.3316
  130OSM   C10F14068   6.436   2.001   5.062 -0.3854  0.8829 -0.1568
  130OSM   H10F14069   6.406   2.107   5.049  0.2961  1.3944  2.0464
  130OSM   C11F14070   6.429   1.913   4.941  0.3841  0.1854 -0.2342
  130OSM   H11F14071   6.388   1.815   4.970  4.4924 -0.7680  3.4882
  130OSM   H11G14072   6.528   1.901   4.890  0.3526 -0.2951 -0.1835
  130OSM   C12F14073   6.330   1.978   4.845 -0.0992 -0.3285  0.4054
  130OSM   H12F14074   6.347   2.083   4.813  0.5779 -1.1362 -2.1145
  130OSM   H12G14075   6.231   1.971   4.895 -1.7040 -1.1380 -2.6904
  130OSM   C13F14076   6.326   1.913   4.707  0.2363 -0.5421 -0.6510
  130OSM   H13F14077   6.306   1.807   4.733  2.3260 -0.6322  0.7506
  130OSM   H13G14078   6.430   1.914   4.668  0.7058 -0.9035  0.5515
  130OSM   C14F14079   6.219   1.978   4.620  0.1144 -0.0257 -0.2397
  130OSM   H14F14080   6.250   2.076   4.579  1.9124  0.1650  1.4124
  130OSM   H14G14081   6.127   1.991   4.681  0.0215  2.6419 -0.8714
  130OSM   C15F14082   6.194   1.895   4.492  0.3014 -0.8625  0.9159
  130OSM   H15F14083   6.148   1.797   4.517 -0.6166 -0.1662  2.0467
  130OSM   H15G14084   6.286   1.858   4.442 -0.5329 -0.9972 -0.5934
  130OSM   C16F14085   6.109   1.974   4.385  0.0270  0.3385 -0.1273
  130OSM   H16F14086   6.164   2.061   4.344 -1.8340  0.7197 -1.9865
  130OSM   H16G14087   6.010   2.008   4.424 -0.3713 -0.4665 -0.4156
  130OSM   C17F14088   6.067   1.894   4.260 -0.4547  0.3995  0.2279
  130OSM   H17F14089   6.160   1.840   4.232 -0.0540  1.8561 -1.4386
  130OSM   H17G14090   6.053   1.969   4.179 -2.5724 -0.5657 -0.3544
  130OSM   C18F14091   5.961   1.792   4.277 -0.5758  0.2355  0.5696
  130OSM   H18F14092   5.981   1.712   4.351 -1.1039  0.2276  0.7052
  130OSM   H18G14093   5.944   1.745   4.178 -0.0442  1.1740  0.0182
  130OSM   H18H14094   5.863   1.839   4.297 -1.9635 -2.3789  0.4074
  131OSM      N14095   1.194   2.849   6.647 -0.1306 -0.6980  0.8863
  131OSM    C1514096   1.214   2.698   6.671  0.0743 -0.0863  0.1510
  131OSM   H15A14097   1.264   2.678   6.764 -0.3635  0.2978  0.4692
  131OSM   H15B14098   1.275   2.648   6.597  1.3215 -0.9753  1.7119
  131OSM   H15C14099   1.116   2.652   6.675  0.6760 -1.4028  0.6265
  131OSM    C1414100   1.098   2.900   6.751  0.5516  0.2562  0.8374
  131OSM   H14A14101   1.115   2.852   6.846  1.3148  0.3116  0.7358
  131OSM   H14B14102   1.000   2.868   6.721  1.3960 -2.7015  0.9941
  131OSM   H14C14103   1.101   3.007   6.770 -1.2063  0.4114  0.4051
  131OSM    C1314104   1.329   2.923   6.673  0.6168  0.0186  0.1139
  131OSM   H13A14105   1.320   3.030   6.663  3.6619  0.3462  0.1213
  131OSM   H13B14106   1.400   2.889   6.600 -0.5935  0.0427 -1.1064
  131OSM   H13C14107   1.362   2.896   6.772  2.3441 -0.6796 -0.6244
  131OSM    C1214108   1.136   2.869   6.506 -0.4032  0.0588 -0.2217
  131OSM   H12A14109   1.133   2.971   6.471  1.2082 -0.1470 -1.0718
  131OSM   H12B14110   1.034   2.833   6.509 -0.2992 -0.4536 -1.8949
  131OSM    C1114111   1.220   2.797   6.397 -0.4784 -0.0824  0.1403
  131OSM   H11A14112   1.166   2.808   6.301 -0.5282 -1.8944 -0.0874
  131OSM   H11B14113   1.201   2.688   6.415  0.2135 -0.0301  1.2607
  131OSM      P14114   1.417   2.938   6.304 -0.4233 -0.2884  0.0533
  131OSM    O1314115   1.497   3.034   6.388  0.6783  0.1011  0.3578
  131OSM    O1414116   1.492   2.874   6.196  0.5846  0.0432  0.2573
  131OSM    O1114117   1.292   3.010   6.247  0.4042 -0.2160  0.1982
  131OSM    O1214118   1.355   2.831   6.403  0.0492  0.4025 -0.5251
  131OSM    C1S14119   1.303   3.130   6.170 -0.1453 -0.0649  0.4239
  131OSM    H1S14120   1.391   3.192   6.198 -0.2278  1.2313 -1.9480
  131OSM    H1T14121   1.212   3.188   6.197 -1.8919 -2.0921 -0.8010
  131OSM     NF14122   1.321   3.240   5.963  0.3323  0.3358  0.0269
  131OSM    HNF14123   1.246   3.305   5.950  0.2520  0.6372  1.7696
  131OSM    C2S14124   1.296   3.108   6.014 -0.4777 -0.0687  0.2735
  131OSM    H2S14125   1.381   3.044   5.985  0.3752  1.4547 -0.7057
  131OSM    C3S14126   1.159   3.046   5.976  0.1988 -0.0957  0.0895
  131OSM    H3S14127   1.082   3.116   6.015 -1.5024 -2.3653  1.0476
  131OSM     O314128   1.135   2.924   6.041  0.5593  0.0443 -0.3864
  131OSM    HO314129   1.184   2.943   6.122  1.5779 -0.8104 -0.7814
  131OSM    C4S14130   1.143   3.037   5.824 -0.8092 -0.4266  1.0538
  131OSM    H4S14131   1.106   3.131   5.782 -1.4859 -0.2765  1.9440
  131OSM    C5S14132   1.189   2.932   5.743 -0.6181 -0.1628 -0.2885
  131OSM    H5S14133   1.237   2.842   5.785 -1.5408 -1.1529 -1.3143
  131OSM    C6S14134   1.175   2.922   5.593 -0.1742  0.3578  0.1931
  131OSM    H6S14135   1.130   2.823   5.571  0.4190  0.0459  0.3604
  131OSM    H6T14136   1.271   2.916   5.538 -0.8820 -1.6618 -0.9260
  131OSM    C7S14137   1.100   3.025   5.509 -0.6424  0.8153  0.2989
  131OSM    H7S14138   1.157   3.120   5.520  1.2397 -0.2035 -0.1360
  131OSM    H7T14139   0.996   3.031   5.547 -0.0840 -0.9773  2.2768
  131OSM    C8S14140   1.081   2.987   5.363 -0.6867  0.2752  0.1644
  131OSM    H8S14141   1.022   2.894   5.349 -0.5135 -0.0807  1.6282
  131OSM    H8T14142   1.176   2.956   5.316 -1.6839 -0.5027 -1.4279
  131OSM    C9S14143   1.028   3.095   5.282 -0.0387 -0.8459  0.3550
  131OSM    H9S14144   1.099   3.180   5.276 -1.8985  0.8492  1.0289
  131OSM    H9T14145   0.931   3.141   5.311  0.2230  0.2880 -0.5222
  131OSM   C10S14146   1.011   3.048   5.136  0.4925  0.1899  0.3297
  131OSM   H10S14147   0.926   2.979   5.122  1.0883 -0.5130  0.1493
  131OSM   H10T14148   1.101   2.990   5.107  1.0794  1.4339 -0.4586
  131OSM   C11S14149   0.988   3.158   5.034  0.0372 -0.9024  0.4984
  131OSM   H11S14150   1.070   3.232   5.044 -0.7300 -0.0584  0.6771
  131OSM   H11T14151   0.903   3.221   5.069  1.2857  1.4018 -0.4756
  131OSM   C12S14152   0.958   3.108   4.893 -0.3027  0.3139  0.2176
  131OSM   H12S14153   0.879   3.030   4.894  0.1619 -0.2314 -1.7890
  131OSM   H12T14154   1.057   3.064   4.866  1.1029  1.6913  2.7381
  131OSM   C13S14155   0.913   3.222   4.799  0.4496 -0.5470  0.2831
  131OSM   H13S14156   0.984   3.306   4.812  0.6813 -0.6350 -0.3636
  131OSM   H13T14157   0.811   3.255   4.827 -0.1022  0.2231 -2.4022
  131OSM   C14S14158   0.914   3.184   4.643  0.2816  0.5226 -0.2911
  131OSM   H14S14159   1.005   3.125   4.621 -0.0461 -0.6593  1.3576
  131OSM   H14T14160   0.906   3.281   4.590  0.4684  1.1067  0.7132
  131OSM   C15S14161   0.798   3.094   4.594  0.5613  0.2880 -0.0868
  131OSM   H15S14162   0.699   3.142   4.610  0.1688 -0.1400 -1.1592
  131OSM   H15T14163   0.791   3.001   4.655  0.0090 -0.1192 -0.7598
  131OSM   C16S14164   0.804   3.056   4.448  0.2616 -0.4341 -0.1598
  131OSM   H16S14165   0.898   3.001   4.427  1.0453  0.3752  1.1556
  131OSM   H16T14166   0.788   3.150   4.391 -1.7121 -0.9516 -0.5430
  131OSM   C17S14167   0.690   2.951   4.410  0.0456 -0.0589 -0.0087
  131OSM   H17S14168   0.591   2.977   4.453 -0.1131 -1.4421  0.4810
  131OSM   H17T14169   0.734   2.864   4.461 -0.7815  0.3050  1.3718
  131OSM   C18S14170   0.690   2.927   4.261  0.0130 -0.1661 -0.1211
  131OSM   H18S14171   0.643   3.014   4.209  0.3041 -0.1920 -0.4329
  131OSM   H18T14172   0.638   2.832   4.236 -0.7321  0.6683 -1.9676
  131OSM   H18U14173   0.797   2.928   4.231  0.4614 -0.0614  1.4007
  131OSM    C1F14174   1.444   3.298   5.970 -0.3557 -0.5968  0.1642
  131OSM     OF14175   1.532   3.225   6.016 -0.6512 -0.4119 -0.3883
  131OSM    C2F14176   1.455   3.441   5.918  0.4803 -0.2193  0.2144
  131OSM    H2F14177   1.456   3.507   6.007  3.0969 -0.5424  0.5012
  131OSM    H2G14178   1.371   3.459   5.847  0.4082  0.8015  0.5450
  131OSM    C3F14179   1.591   3.464   5.854  0.4225  0.2277 -0.2271
  131OSM    H3F14180   1.601   3.539   5.772  1.4760 -1.4945 -1.7722
  131OSM    H3G14181   1.627   3.370   5.806  0.5730  0.4202 -0.4950
  131OSM    C4F14182   1.705   3.512   5.953 -0.3278  0.6790  0.0080
  131OSM    H4F14183   1.725   3.435   6.031 -0.2211  1.7584  1.0662
  131OSM    H4G14184   1.664   3.602   6.003 -2.3089 -0.1703  0.0218
  131OSM    C5F14185   1.836   3.556   5.877 -0.0065  0.0820  0.0726
  131OSM    H5F14186   1.873   3.479   5.806  0.0220 -0.1973  0.3860
  131OSM    H5G14187   1.912   3.579   5.954 -0.3933  3.0326 -0.3083
  131OSM    C6F14188   1.815   3.689   5.808  0.3530 -0.1810 -0.2068
  131OSM    H6F14189   1.775   3.762   5.881 -0.3795  1.1178 -1.8544
  131OSM    H6G14190   1.741   3.683   5.726  1.3893 -0.2427 -1.1557
  131OSM    C7F14191   1.947   3.739   5.745 -0.2585  0.0529  0.4803
  131OSM    H7F14192   2.020   3.749   5.827  0.6712  1.7330 -0.5084
  131OSM    H7G14193   1.938   3.845   5.713  1.4653 -0.0347 -0.4195
  131OSM    C8F14194   2.008   3.653   5.625  0.3422 -0.5854 -0.1353
  131OSM    H8F14195   2.013   3.544   5.644  0.1501 -0.4453  0.7388
  131OSM    H8G14196   2.112   3.693   5.620 -0.2601  0.9864 -0.6287
  131OSM    C9F14197   1.942   3.683   5.493  0.0482 -0.4661  0.1521
  131OSM    H9F14198   1.911   3.788   5.485  0.5213 -0.1298  2.0678
  131OSM   C10F14199   1.904   3.596   5.398 -0.2013 -0.2313  0.5644
  131OSM   H10F14200   1.857   3.638   5.308 -1.3231  0.1680  1.3163
  131OSM   C11F14201   1.935   3.451   5.389  0.0588  0.2771 -0.6300
  131OSM   H11F14202   1.944   3.397   5.485 -0.4713  0.4885 -0.4599
  131OSM   H11G14203   2.036   3.440   5.344  0.1812 -1.6059  0.0263
  131OSM   C12F14204   1.846   3.364   5.306  0.5642 -0.0941 -0.1634
  131OSM   H12F14205   1.880   3.259   5.309  0.2890 -0.2257 -1.1254
  131OSM   H12G14206   1.852   3.394   5.199 -0.0277 -0.9277 -0.4409
  131OSM   C13F14207   1.695   3.367   5.337  0.7866  0.3770  0.3456
  131OSM   H13F14208   1.655   3.470   5.340  0.4851  0.2631  0.3114
  131OSM   H13G14209   1.681   3.341   5.444 -2.7266  3.2397  0.7522
  131OSM   C14F14210   1.621   3.282   5.235 -0.3920  0.0120  0.6024
  131OSM   H14F14211   1.662   3.180   5.245  1.3809  0.6667  0.4277
  131OSM   H14G14212   1.632   3.332   5.136  2.3646  0.3449  0.9950
  131OSM   C15F14213   1.467   3.274   5.247 -0.4026 -0.2396 -0.3345
  131OSM   H15F14214   1.412   3.188   5.203  2.0742 -2.3982  0.5015
  131OSM   H15G14215   1.431   3.361   5.188  1.2116  0.5560 -0.2168
  131OSM   C16F14216   1.408   3.294   5.391 -0.1675  0.3089  0.1748
  131OSM   H16F14217   1.297   3.303   5.392 -0.2025 -0.0545 -0.0479
  131OSM   H16G14218   1.451   3.387   5.434  1.2201  1.3782 -3.1955
  131OSM   C17F14219   1.453   3.183   5.482 -0.7327  0.4857  0.1201
  131OSM   H17F14220   1.559   3.154   5.464 -1.8227 -4.3577  0.0707
  131OSM   H17G14221   1.396   3.095   5.445  1.4500 -1.0043  0.1580
  131OSM   C18F14222   1.427   3.195   5.632  0.4124 -0.2891  0.3846
  131OSM   H18F14223   1.321   3.222   5.653  0.5653  1.8514 -1.1921
  131OSM   H18G14224   1.479   3.286   5.670  1.4126  1.4017 -4.3003
  131OSM   H18H14225   1.455   3.106   5.692  0.9733  1.1327  2.3353
  132OSM      N14226   0.985   0.332   6.850  0.8641  0.1914  0.2549
  132OSM    C1514227   1.045   0.414   6.958  0.3826  0.5672  0.6098
  132OSM   H15A14228   1.099   0.359   7.034  0.8687 -1.3363 -1.0368
  132OSM   H15B14229   0.967   0.476   7.001 -0.5775  0.6627 -1.1757
  132OSM   H15C14230   1.121   0.476   6.914  1.1280 -0.7472 -0.0045
  132OSM    C1414231   0.892   0.238   6.912  0.0999 -0.1321 -0.1012
  132OSM   H14A14232   0.828   0.194   6.836  1.0999  0.0934 -1.0916
  132OSM   H14B14233   0.846   0.278   7.002 -0.9492  1.7006 -1.3735
  132OSM   H14C14234   0.950   0.153   6.945 -0.8174 -0.1244  1.6958
  132OSM    C1314235   0.908   0.418   6.752 -0.6811 -0.0512 -0.1951
  132OSM   H13A14236   0.835   0.481   6.801  0.8445  1.2613  0.4948
  132OSM   H13B14237   0.846   0.356   6.689 -3.4730  3.6090 -1.4220
  132OSM   H13C14238   0.969   0.480   6.689 -0.1061 -0.3470  0.0573
  132OSM    C1214239   1.094   0.264   6.770  0.3849  0.0186  0.7907
  132OSM   H12A14240   1.159   0.212   6.838 -2.9853 -0.5761  3.8568
  132OSM   H12B14241   1.158   0.338   6.725  1.1167 -1.1774 -0.2145
  132OSM    C1114242   1.061   0.171   6.653 -0.8058  0.0540 -0.2222
  132OSM   H11A14243   1.030   0.076   6.702  1.9135  0.3214  2.2650
  132OSM   H11B14244   1.150   0.134   6.598 -1.3610 -0.1944 -0.9860
  132OSM      P14245   1.000   0.301   6.432  0.0051  0.0332  0.3773
  132OSM    O1314246   0.882   0.346   6.361  0.0094 -0.9770 -0.1455
  132OSM    O1414247   1.088   0.412   6.471 -0.2672 -0.9526 -0.5051
  132OSM    O1114248   1.086   0.209   6.351  0.0217  0.1353 -0.6834
  132OSM    O1214249   0.962   0.210   6.555  0.4036  0.0485  0.0310
  132OSM    C1S14250   1.054   0.078   6.319 -0.0066  0.3888  0.3674
  132OSM    H1S14251   0.944   0.066   6.312  0.0371  0.2076  0.0136
  132OSM    H1T14252   1.089  -0.003   6.387 -0.8650 -0.4804 -0.2063
  132OSM     NF14253   1.060  -0.077   6.128 -0.7469  0.1352  0.0438
  132OSM    HNF14254   1.104  -0.161   6.159 -0.6077  0.8770  1.9922
  132OSM    C2S14255   1.116   0.046   6.177  0.5072 -0.2475  0.0287
  132OSM    H2S14256   1.082   0.131   6.115 -0.0361  1.0054  1.9611
  132OSM    C3S14257   1.271   0.061   6.190 -0.3145  0.6141 -0.4917
  132OSM    H3S14258   1.301  -0.011   6.268 -0.7101  0.1703 -0.7369
  132OSM     O314259   1.318   0.186   6.239 -0.2162 -0.6161  0.6166
  132OSM    HO314260   1.242   0.219   6.287  1.4419  1.1651  2.2211
  132OSM    C4S14261   1.347   0.020   6.061  0.3992  0.5510  0.4605
  132OSM    H4S14262   1.317   0.074   5.970 -1.4533  0.1824  0.7989
  132OSM    C5S14263   1.443  -0.078   6.049  0.0160  0.1437 -0.2751
  132OSM    H5S14264   1.480  -0.136   6.135  1.3823 -1.5373 -1.9085
  132OSM    C6S14265   1.519  -0.091   5.922  0.0601 -0.4223  0.1825
  132OSM    H6S14266   1.624  -0.100   5.957  0.6736  0.6134 -1.2789
  132OSM    H6T14267   1.510   0.006   5.869 -1.6900  0.7760  2.5186
  132OSM    C7S14268   1.489  -0.208   5.830 -0.1695 -0.0139  0.8286
  132OSM    H7S14269   1.506  -0.302   5.886 -2.0350 -0.6202  0.4621
  132OSM    H7T14270   1.550  -0.203   5.737 -1.2764 -2.4084 -0.1315
  132OSM    C8S14271   1.341  -0.222   5.791 -0.3037 -0.1862 -0.7260
  132OSM    H8S14272   1.273  -0.228   5.879  0.4564  0.7742 -0.0508
  132OSM    H8T14273   1.315  -0.306   5.722 -0.8505 -0.1060 -0.6235
  132OSM    C9S14274   1.287  -0.104   5.704 -0.0485 -0.1981  0.3245
  132OSM    H9S14275   1.301  -0.003   5.749 -0.6030  1.1452 -2.3195
  132OSM    H9T14276   1.179  -0.104   5.680 -0.1667 -0.9971  0.8216
  132OSM   C10S14277   1.365  -0.106   5.571 -0.6356  0.3329  0.1041
  132OSM   H10S14278   1.385  -0.206   5.526 -1.2825  0.1037  0.3070
  132OSM   H10T14279   1.469  -0.072   5.590 -0.0443 -0.5515 -1.3616
  132OSM   C11S14280   1.307  -0.012   5.461 -0.6698  0.5387  0.7208
  132OSM   H11S14281   1.295   0.085   5.513  1.1850  1.0906  0.2107
  132OSM   H11T14282   1.211  -0.050   5.420 -0.1785  0.0335 -0.0060
  132OSM   C12S14283   1.407   0.018   5.349  0.4806  0.3521  0.0073
  132OSM   H12S14284   1.415  -0.071   5.283 -2.6225  0.6328 -0.9176
  132OSM   H12T14285   1.498   0.044   5.407  0.9560 -1.4964  0.1686
  132OSM   C13S14286   1.353   0.133   5.259  0.7654 -0.4306 -0.1051
  132OSM   H13S14287   1.337   0.228   5.313  0.9361 -0.2638 -0.3443
  132OSM   H13T14288   1.254   0.109   5.214  0.2701  1.2876 -0.0130
  132OSM   C14S14289   1.437   0.171   5.130 -0.5893 -0.0786  0.0842
  132OSM   H14S14290   1.450   0.080   5.067  0.2318  0.8186 -1.0937
  132OSM   H14T14291   1.542   0.196   5.157 -0.9527  0.9222  0.6455
  132OSM   C15S14292   1.371   0.285   5.057 -0.5251 -0.5051  0.2801
  132OSM   H15S14293   1.374   0.372   5.126  0.2329 -1.5235  1.5899
  132OSM   H15T14294   1.269   0.253   5.026  1.3060 -5.9358 -1.2020
  132OSM   C16S14295   1.463   0.324   4.936 -0.3900  0.8264 -0.6293
  132OSM   H16S14296   1.500   0.229   4.891 -2.0850  0.1834 -0.7398
  132OSM   H16T14297   1.554   0.370   4.980 -0.8714  0.2497  1.0419
  132OSM   C17S14298   1.406   0.404   4.830 -0.4715 -0.4688  0.5104
  132OSM   H17S14299   1.478   0.475   4.783  0.3938 -0.6395  1.5381
  132OSM   H17T14300   1.338   0.473   4.885 -0.4036 -0.7974  1.0065
  132OSM   C18S14301   1.320   0.327   4.732 -0.4072  0.1571 -0.3721
  132OSM   H18S14302   1.387   0.268   4.665  0.8782 -0.2867  1.2126
  132OSM   H18T14303   1.255   0.384   4.662 -0.4337  0.2794 -0.2478
  132OSM   H18U14304   1.257   0.246   4.775  2.1424 -2.4764 -1.2235
  132OSM    C1F14305   0.934  -0.088   6.089  0.4386 -0.7908  0.7824
  132OSM     OF14306   0.863   0.011   6.091 -0.1561  0.3096  0.0605
  132OSM    C2F14307   0.886  -0.230   6.050  0.4418 -0.1263 -0.1996
  132OSM    H2F14308   0.809  -0.269   6.121  0.7975  0.1039  0.3227
  132OSM    H2G14309   0.973  -0.299   6.049 -0.4180 -1.2560  0.0533
  132OSM    C3F14310   0.834  -0.244   5.900  0.1996 -0.0872 -0.4742
  132OSM    H3F14311   0.925  -0.222   5.841  0.8675  1.5692  1.0907
  132OSM    H3G14312   0.758  -0.164   5.885 -0.5493 -0.9833 -1.6143
  132OSM    C4F14313   0.769  -0.378   5.869  0.3438  0.8510 -0.5879
  132OSM    H4F14314   0.663  -0.355   5.845  0.4822  0.1656 -1.9638
  132OSM    H4G14315   0.764  -0.444   5.959 -2.7298  0.6464 -0.8020
  132OSM    C5F14316   0.833  -0.459   5.750  0.1892 -0.4230 -0.1483
  132OSM    H5F14317   0.837  -0.395   5.658 -0.8737  2.0804  1.4319
  132OSM    H5G14318   0.776  -0.553   5.735  3.2692 -2.3551 -0.5489
  132OSM    C6F14319   0.979  -0.499   5.779  0.2364  0.2931 -0.6097
  132OSM    H6F14320   0.989  -0.553   5.875 -0.1983  0.7504 -0.3056
  132OSM    H6G14321   1.032  -0.403   5.798 -0.5215  0.7109 -0.5750
  132OSM    C7F14322   1.049  -0.569   5.667 -0.5723 -0.1407 -0.5624
  132OSM    H7F14323   1.095  -0.500   5.593  2.0852 -1.9897 -0.7845
  132OSM    H7G14324   0.985  -0.638   5.607  2.2270 -0.9756 -2.8391
  132OSM    C8F14325   1.172  -0.656   5.709 -0.0163 -0.0719 -0.5024
  132OSM    H8F14326   1.192  -0.734   5.632 -2.2127 -0.2981 -0.9248
  132OSM    H8G14327   1.145  -0.711   5.802 -1.6451  0.0497 -0.8586
  132OSM    C9F14328   1.282  -0.564   5.734  0.6116  0.9120 -0.3765
  132OSM    H9F14329   1.287  -0.512   5.831  0.4046  0.0290  0.1148
  132OSM   C10F14330   1.380  -0.533   5.645 -0.5854 -0.1283 -0.0022
  132OSM   H10F14331   1.461  -0.464   5.672 -1.1981 -0.1919  2.2257
  132OSM   C11F14332   1.402  -0.580   5.504  0.0109  0.3546 -0.6084
  132OSM   H11F14333   1.314  -0.638   5.470 -0.6557  0.2273  1.2541
  132OSM   H11G14334   1.490  -0.646   5.490 -1.8554 -2.4603  0.0927
  132OSM   C12F14335   1.413  -0.449   5.420 -0.3169  0.1828  0.5031
  132OSM   H12F14336   1.500  -0.388   5.453  0.0168 -0.2422  0.4208
  132OSM   H12G14337   1.324  -0.388   5.445 -0.1764  2.3442 -3.4388
  132OSM   C13F14338   1.395  -0.488   5.269  0.1108 -0.6255  0.3751
  132OSM   H13F14339   1.380  -0.397   5.207 -0.3329 -2.2026 -1.9534
  132OSM   H13G14340   1.300  -0.546   5.268 -0.1234 -0.3778 -3.4685
  132OSM   C14F14341   1.506  -0.567   5.197 -0.9565  0.5122  1.0651
  132OSM   H14F14342   1.554  -0.627   5.278  0.3784 -2.1744 -1.5094
  132OSM   H14G14343   1.581  -0.495   5.159 -1.3153  0.0433 -0.6065
  132OSM   C15F14344   1.464  -0.659   5.083  0.0222 -0.7735  0.7121
  132OSM   H15F14345   1.422  -0.592   5.005 -0.4975 -1.7956  0.0900
  132OSM   H15G14346   1.383  -0.730   5.112 -2.7734  1.7243 -0.4958
  132OSM   C16F14347   1.588  -0.724   5.033 -0.3552 -0.1532 -0.4945
  132OSM   H16F14348   1.632  -0.784   5.116 -2.8367 -3.0658 -1.0987
  132OSM   H16G14349   1.659  -0.645   4.999 -1.1152  0.7076 -0.1229
  132OSM   C17F14350   1.576  -0.802   4.896 -0.1682  0.5313 -0.0898
  132OSM   H17F14351   1.488  -0.755   4.847  0.5101  1.7203 -0.1867
  132OSM   H17G14352   1.549  -0.907   4.924 -2.0072  1.2370  0.9989
  132OSM   C18F14353   1.703  -0.787   4.804 -0.4717  0.4727 -0.3675
  132OSM   H18F14354   1.706  -0.846   4.710 -0.2932 -1.1513  0.6055
  132OSM   H18G14355   1.785  -0.825   4.868 -1.1714  0.3986  0.5069
  132OSM   H18H14356   1.722  -0.683   4.772  1.3470  1.4487  3.3999
  133OSM      N14357   5.661   0.083   6.997  0.8194  0.0019 -0.1672
  133OSM    C1514358   5.699   0.072   6.855 -0.0022  0.4270 -0.1526
  133OSM   H15A14359   5.738   0.166   6.819  0.7631 -0.4386 -1.6800
  133OSM   H15B14360   5.615   0.046   6.791  0.5690 -0.2597 -0.6392
  133OSM   H15C14361   5.776  -0.002   6.846  0.4220  0.8766 -0.2278
  133OSM    C1414362   5.604  -0.052   7.035  0.2410  0.5117 -0.2867
  133OSM   H14A14363   5.557  -0.055   7.132 -1.1570  1.9442 -0.8812
  133OSM   H14B14364   5.680  -0.129   7.030  0.0146  0.2724 -0.0915
  133OSM   H14C14365   5.527  -0.070   6.961  0.2155  2.7563 -0.8563
  133OSM    C1314366   5.783   0.110   7.083 -0.2702  0.2685 -0.5740
  133OSM   H13A14367   5.761   0.097   7.188 -2.0313 -0.1129 -0.9591
  133OSM   H13B14368   5.837   0.201   7.061  0.5163 -0.1994 -0.5872
  133OSM   H13C14369   5.851   0.029   7.063  0.0940  0.1362  1.0728
  133OSM    C1214370   5.553   0.185   7.010 -0.0213  0.0063  0.3611
  133OSM   H12A14371   5.515   0.187   7.111  2.3733 -1.9610  1.4001
  133OSM   H12B14372   5.477   0.155   6.940  0.1711  2.6877 -1.1673
  133OSM    C1114373   5.583   0.331   6.981  0.5126 -0.0107  0.1341
  133OSM   H11A14374   5.644   0.376   7.063 -0.4046  0.7278  0.4346
  133OSM   H11B14375   5.483   0.375   7.003  0.4953 -0.8129  1.8947
  133OSM      P14376   5.743   0.447   6.815  0.0768 -0.4451  0.0765
  133OSM    O1314377   5.737   0.562   6.907 -0.7573  0.5227 -0.0624
  133OSM    O1414378   5.872   0.363   6.813 -0.1186 -0.0497  0.2282
  133OSM    O1114379   5.709   0.487   6.665  0.1266  0.3939  0.4778
  133OSM    O1214380   5.621   0.359   6.843 -0.2606  0.3978  0.0722
  133OSM    C1S14381   5.736   0.383   6.567  0.1758  0.0894  0.4400
  133OSM    H1S14382   5.643   0.322   6.556 -1.5699  2.4827  0.9778
  133OSM    H1T14383   5.827   0.323   6.586 -1.0301 -2.9195 -2.3145
  133OSM     NF14384   5.780   0.359   6.324  0.2883 -0.9827  0.2156
  133OSM    HNF14385   5.869   0.330   6.290  0.9492  0.4384  0.6890
  133OSM    C2S14386   5.770   0.456   6.436 -0.3321  0.7262  0.1458
  133OSM    H2S14387   5.678   0.515   6.419 -0.7410  0.3362  0.9119
  133OSM    C3S14388   5.889   0.564   6.447 -0.8519 -0.4964 -0.6999
  133OSM    H3S14389   5.981   0.510   6.477 -0.8454  0.6887  1.6938
  133OSM     O314390   5.869   0.666   6.539 -0.5003  0.2182 -0.5451
  133OSM    HO314391   5.813   0.619   6.601  0.5404  0.5912  0.7334
  133OSM    C4S14392   5.903   0.619   6.311 -0.3901 -0.2270  0.2392
  133OSM    H4S14393   5.975   0.554   6.260  1.0353  0.6106  1.1192
  133OSM    C5S14394   5.841   0.727   6.260  0.0657  0.0080 -0.1999
  133OSM    H5S14395   5.777   0.782   6.330 -1.6643 -1.3990 -0.6208
  133OSM    C6S14396   5.847   0.785   6.126  0.6872 -0.1981  0.2953
  133OSM    H6S14397   5.855   0.895   6.133 -1.7369  0.0862 -0.5910
  133OSM    H6T14398   5.747   0.762   6.083 -0.0602  0.7384  1.4769
  133OSM    C7S14399   5.948   0.748   6.016  0.0847  0.7603 -0.1558
  133OSM    H7S14400   5.936   0.642   5.985  0.8544  1.6634 -4.0773
  133OSM    H7T14401   6.053   0.766   6.048 -0.0976  0.2391  0.7622
  133OSM    C8S14402   5.939   0.844   5.899  0.0611 -0.1191 -0.5262
  133OSM    H8S14403   5.968   0.948   5.926 -1.3803  0.0829  0.3422
  133OSM    H8T14404   5.832   0.851   5.869 -1.6672  0.1994  4.8000
  133OSM    C9S14405   6.022   0.805   5.773  0.1346 -0.2515  0.1013
  133OSM    H9S14406   6.026   0.694   5.766  1.8698 -0.2663  0.9388
  133OSM    H9T14407   6.128   0.829   5.794  0.1096  0.4996 -0.5970
  133OSM   C10S14408   5.971   0.868   5.640  0.6350 -0.1370 -0.6193
  133OSM   H10S14409   5.912   0.957   5.670  1.5252 -0.1110  1.1862
  133OSM   H10T14410   5.904   0.794   5.591 -0.7768  0.6907 -0.0130
  133OSM   C11S14411   6.085   0.917   5.561 -0.1146  0.0414  0.3613
  133OSM   H11S14412   6.157   0.971   5.626 -1.8075 -0.6699  2.9906
  133OSM   H11T14413   6.052   0.983   5.478  6.0922  0.5581 -2.2951
  133OSM   C12S14414   6.153   0.819   5.470 -0.2486 -0.0162 -0.3129
  133OSM   H12S14415   6.190   0.743   5.542 -1.3441 -0.1791  0.1041
  133OSM   H12T14416   6.242   0.866   5.424 -1.0423 -1.2900 -3.3681
  133OSM   C13S14417   6.054   0.763   5.371  0.6375 -0.0839 -0.0558
  133OSM   H13S14418   5.972   0.711   5.426  1.6991 -3.7442 -1.6266
  133OSM   H13T14419   6.090   0.674   5.316 -1.1952 -1.6556  1.1452
  133OSM   C14S14420   5.987   0.853   5.262  0.5852  0.0227  0.5813
  133OSM   H14S14421   6.063   0.920   5.216  1.4357 -2.4011 -1.7925
  133OSM   H14T14422   5.933   0.931   5.320 -1.7195 -0.0283 -1.3507
  133OSM   C15S14423   5.906   0.778   5.154  0.3491  0.3571 -0.7673
  133OSM   H15S14424   5.852   0.702   5.215  2.4032 -0.3529  0.2938
  133OSM   H15T14425   5.975   0.724   5.086  0.3637 -1.6401  0.7263
  133OSM   C16S14426   5.811   0.873   5.079  0.2915 -0.7780  0.2933
  133OSM   H16S14427   5.795   0.965   5.140 -0.8371  0.2337 -1.4569
  133OSM   H16T14428   5.712   0.823   5.069  0.2071 -0.5097 -0.2405
  133OSM   C17S14429   5.864   0.922   4.943 -0.5060  0.1589 -0.3057
  133OSM   H17S14430   5.832   0.856   4.860  0.3213  1.2879 -1.5566
  133OSM   H17T14431   5.975   0.929   4.943 -0.2873 -2.1310  1.4012
  133OSM   C18S14432   5.824   1.059   4.905  0.4457 -0.7786 -0.4950
  133OSM   H18S14433   5.715   1.070   4.891  0.1777 -1.6270  0.7593
  133OSM   H18T14434   5.867   1.101   4.811 -0.6835 -2.6397 -1.9262
  133OSM   H18U14435   5.849   1.131   4.986  0.0845 -1.6221  0.3784
  133OSM    C1F14436   5.682   0.291   6.275  0.2624 -0.7040 -0.8877
  133OSM     OF14437   5.564   0.326   6.295  0.0793  0.6552  0.3133
  133OSM    C2F14438   5.707   0.169   6.196 -0.0611  0.7067 -0.9034
  133OSM    H2F14439   5.643   0.088   6.237  1.0052 -0.7580 -1.9731
  133OSM    H2G14440   5.809   0.138   6.229  0.0011 -0.0373 -1.7283
  133OSM    C3F14441   5.679   0.184   6.048 -0.0852  0.5231  0.3826
  133OSM    H3F14442   5.577   0.221   6.023  0.2268  2.2849  1.5657
  133OSM    H3G14443   5.691   0.081   6.008 -3.6949  0.1315 -0.0376
  133OSM    C4F14444   5.784   0.272   5.978  0.4989  0.1989 -0.3805
  133OSM    H4F14445   5.876   0.232   6.027  0.3838 -1.4011 -1.3722
  133OSM    H4G14446   5.762   0.379   5.992  0.1389  0.1586 -0.6265
  133OSM    C5F14447   5.789   0.249   5.825 -0.7456  0.5188  0.0682
  133OSM    H5F14448   5.686   0.256   5.784 -0.9532 -0.0438  0.4768
  133OSM    H5G14449   5.841   0.151   5.811 -1.5817  0.1608 -0.6638
  133OSM    C6F14450   5.879   0.352   5.759 -0.3843 -0.0674 -0.5780
  133OSM    H6F14451   5.973   0.375   5.814 -1.2410  3.6180 -0.4217
  133OSM    H6G14452   5.823   0.448   5.767 -0.2539  0.0178 -0.6897
  133OSM    C7F14453   5.910   0.305   5.615  0.1692 -0.1142 -0.3933
  133OSM    H7F14454   5.817   0.287   5.556 -2.9193  1.5891  3.5554
  133OSM    H7G14455   5.967   0.209   5.621  0.4797  0.1464  1.0621
  133OSM    C8F14456   5.989   0.411   5.535 -0.0507  0.3172  0.3484
  133OSM    H8F14457   6.074   0.440   5.600 -0.8951  1.0300  1.1618
  133OSM    H8G14458   5.913   0.492   5.530 -1.1797 -0.7667 -1.3898
  133OSM    C9F14459   6.024   0.366   5.390 -0.4108 -0.4069 -0.2830
  133OSM    H9F14460   5.935   0.352   5.327  0.9112 -2.2922 -1.8340
  133OSM   C10F14461   6.149   0.358   5.336 -0.2296  0.7179 -0.3140
  133OSM   H10F14462   6.154   0.324   5.231 -1.5411  1.4822 -0.6442
  133OSM   C11F14463   6.280   0.396   5.403 -0.2224 -0.9715 -0.0624
  133OSM   H11F14464   6.333   0.299   5.406 -0.3407 -1.0124  1.5642
  133OSM   H11G14465   6.261   0.420   5.510 -3.3405  0.6748 -0.8582
  133OSM   C12F14466   6.342   0.521   5.329  0.3469 -0.1204 -0.5987
  133OSM   H12F14467   6.438   0.554   5.374 -1.1388  0.2700  2.5317
  133OSM   H12G14468   6.273   0.606   5.345  1.5892  0.7313  0.5104
  133OSM   C13F14469   6.359   0.506   5.178 -0.1047  0.2375 -0.5010
  133OSM   H13F14470   6.267   0.482   5.121  0.2807 -3.2942  0.1519
  133OSM   H13G14471   6.425   0.418   5.160  1.2959  1.5606 -2.3086
  133OSM   C14F14472   6.429   0.631   5.121 -0.0712 -0.0376 -0.1889
  133OSM   H14F14473   6.441   0.617   5.011  1.6117  2.3540 -0.3642
  133OSM   H14G14474   6.530   0.618   5.165  0.0060 -1.2625 -0.6738
  133OSM   C15F14475   6.359   0.766   5.135  0.2238  0.3564  0.1533
  133OSM   H15F14476   6.347   0.799   5.240 -0.2780  1.5311 -0.2587
  133OSM   H15G14477   6.259   0.747   5.090  0.1386 -0.6284  0.7358
  133OSM   C16F14478   6.422   0.885   5.054  0.7413  0.4953 -0.8977
  133OSM   H16F14479   6.351   0.970   5.059  1.7532  1.2915  0.7471
  133OSM   H16G14480   6.441   0.854   4.949  2.4884 -1.3867 -0.1038
  133OSM   C17F14481   6.549   0.943   5.124  0.1805 -0.5872  0.0027
  133OSM   H17F14482   6.621   0.864   5.157  0.1808  0.1187  1.8240
  133OSM   H17G14483   6.509   0.979   5.222  2.3043 -0.2673  0.8101
  133OSM   C18F14484   6.637   1.055   5.062  0.2799  0.7991 -0.1279
  133OSM   H18F14485   6.568   1.132   5.023  0.3984  2.1148  2.0545
  133OSM   H18G14486   6.694   1.013   4.977 -0.1168 -2.2325  0.9870
  133OSM   H18H14487   6.694   1.121   5.132 -0.7612  2.2745 -0.6102
  134OSM      N14488   4.941   5.541   7.087 -0.1770 -0.5128 -0.3356
  134OSM    C1514489   5.045   5.439   7.047  0.0710  0.4096 -0.1876
  134OSM   H15A14490   5.084   5.434   6.946 -1.1913  1.6948 -0.7728
  134OSM   H15B14491   5.002   5.342   7.067 -1.1843  0.9477 -0.1660
  134OSM   H15C14492   5.133   5.444   7.109  0.0887 -0.9408 -0.0844
  134OSM    C1414493   4.911   5.531   7.228  0.4234  0.1326  0.5008
  134OSM   H14A14494   4.915   5.425   7.250  0.6688 -0.2591 -1.2904
  134OSM   H14B14495   4.810   5.563   7.248  0.1098 -0.7117  0.3192
  134OSM   H14C14496   4.971   5.591   7.296  1.1255  0.7116 -0.5938
  134OSM    C1314497   5.009   5.677   7.074 -0.4706 -0.0311 -0.3975
  134OSM   H13A14498   4.950   5.738   7.140 -2.8079 -0.8034 -1.6612
  134OSM   H13B14499   5.012   5.722   6.975 -1.2202 -0.7124 -0.7384
  134OSM   H13C14500   5.113   5.680   7.103  0.1044  1.2032 -2.3168
  134OSM    C1214501   4.814   5.544   7.012  0.6841  0.2321  0.5270
  134OSM   H12A14502   4.784   5.447   6.976 -1.8289  0.4050  1.9570
  134OSM   H12B14503   4.834   5.616   6.934  1.5017  0.7523  1.1892
  134OSM    C1114504   4.691   5.631   7.063  0.0613  1.3572 -0.0394
  134OSM   H11A14505   4.644   5.583   7.151  4.8252 -0.5113  1.7764
  134OSM   H11B14506   4.611   5.625   6.986  0.3764 -1.5748 -0.2351
  134OSM      P14507   4.731   5.872   6.977 -0.3063  0.0089  0.5471
  134OSM    O1314508   4.732   6.010   7.033 -0.7231 -0.3033  0.1285
  134OSM    O1414509   4.826   5.832   6.869 -0.5358  0.2062  0.6961
  134OSM    O1114510   4.583   5.856   6.920  0.3693 -0.1215 -0.6080
  134OSM    O1214511   4.726   5.766   7.094  0.9509  0.3586  0.0657
  134OSM    C1S14512   4.525   5.947   6.829 -0.3763  0.4121  0.7199
  134OSM    H1S14513   4.591   6.036   6.823  0.5108 -0.2212  1.0675
  134OSM    H1T14514   4.419   5.979   6.846 -0.7791  2.6812 -4.2033
  134OSM     NF14515   4.494   5.984   6.584 -0.8541  0.6151 -0.2049
  134OSM    HNF14516   4.415   5.967   6.525  0.7518  0.8481 -2.5815
  134OSM    C2S14517   4.529   5.888   6.686  0.3673  0.0969  0.4447
  134OSM    H2S14518   4.637   5.864   6.674  0.7218  1.2204  1.2431
  134OSM    C3S14519   4.442   5.759   6.677  0.5030  0.3812  0.0316
  134OSM    H3S14520   4.331   5.772   6.678  0.1164 -2.3417  0.6461
  134OSM     O314521   4.447   5.679   6.795 -0.2229  0.2011 -0.5600
  134OSM    HO314522   4.469   5.747   6.860 -0.7319 -0.4893  0.3619
  134OSM    C4S14523   4.468   5.674   6.558  0.4274  0.0151 -0.2269
  134OSM    H4S14524   4.416   5.710   6.468 -1.4335 -1.8923  0.0154
  134OSM    C5S14525   4.537   5.563   6.550  0.1163  0.0682 -0.2489
  134OSM    H5S14526   4.568   5.516   6.644  1.5611  0.6064 -0.4391
  134OSM    C6S14527   4.567   5.478   6.436 -0.1930 -0.3973 -0.0237
  134OSM    H6S14528   4.498   5.391   6.432 -0.6884  0.0236 -0.9431
  134OSM    H6T14529   4.669   5.438   6.451 -0.3616 -0.0735  2.3317
  134OSM    C7S14530   4.550   5.537   6.290  0.0467 -0.8361 -0.2800
  134OSM    H7S14531   4.627   5.615   6.271  0.0048 -0.8325 -0.4385
  134OSM    H7T14532   4.450   5.585   6.277  0.5851  0.0828 -1.2477
  134OSM    C8S14533   4.565   5.436   6.180 -0.1312  0.5728  0.6777
  134OSM    H8S14534   4.472   5.379   6.159  1.7229 -1.6864 -2.1357
  134OSM    H8T14535   4.641   5.362   6.211  0.3356 -0.0157 -1.6750
  134OSM    C9S14536   4.609   5.504   6.045  0.1365  0.5668 -0.4986
  134OSM    H9S14537   4.704   5.558   6.065  1.0466 -1.1802  0.1727
  134OSM    H9T14538   4.522   5.572   6.037 -0.7362 -0.3979  0.4619
  134OSM   C10S14539   4.623   5.405   5.929  0.4906 -0.4341 -0.0906
  134OSM   H10S14540   4.593   5.299   5.945  1.9352 -1.0695 -1.3416
  134OSM   H10T14541   4.728   5.406   5.893  0.2684  1.0937 -0.7507
  134OSM   C11S14542   4.532   5.455   5.812 -0.3963 -0.7337 -0.2828
  134OSM   H11S14543   4.565   5.557   5.782 -1.1331 -0.3821  0.0616
  134OSM   H11T14544   4.429   5.463   5.853 -0.1899  1.4161 -0.0705
  134OSM   C12S14545   4.541   5.355   5.699 -0.4986  0.5733  0.2941
  134OSM   H12S14546   4.493   5.261   5.735  0.7631 -0.6365 -1.0216
  134OSM   H12T14547   4.646   5.326   5.678 -0.8949 -2.1048  1.5241
  134OSM   C13S14548   4.485   5.405   5.568 -0.2772  0.0412 -0.2367
  134OSM   H13S14549   4.536   5.495   5.528  2.5178 -1.7297 -0.9622
  134OSM   H13T14550   4.381   5.433   5.595 -1.1129 -1.0754 -2.1044
  134OSM   C14S14551   4.492   5.294   5.455 -0.3486 -0.7458 -0.6395
  134OSM   H14S14552   4.451   5.203   5.505 -0.4222  0.1261  0.9464
  134OSM   H14T14553   4.597   5.271   5.427 -0.8107 -1.7338 -1.6498
  134OSM   C15S14554   4.399   5.324   5.340  0.5207  0.2474 -0.3801
  134OSM   H15S14555   4.373   5.427   5.306 -2.2403 -0.6850 -1.3172
  134OSM   H15T14556   4.307   5.262   5.341  2.0807 -2.1971 -0.5808
  134OSM   C16S14557   4.473   5.274   5.218 -0.0558 -0.1305 -0.2079
  134OSM   H16S14558   4.581   5.301   5.207  0.7227 -3.1518 -0.8516
  134OSM   H16T14559   4.438   5.324   5.125  3.4526  0.3602 -1.4455
  134OSM   C17S14560   4.448   5.124   5.214 -0.3769  0.3968 -0.3539
  134OSM   H17S14561   4.349   5.100   5.170 -0.7796  2.2117 -0.5149
  134OSM   H17T14562   4.449   5.073   5.312 -1.4656 -1.1139 -1.0942
  134OSM   C18S14563   4.557   5.061   5.129  0.1887 -0.3094  0.2451
  134OSM   H18S14564   4.551   5.097   5.024 -1.3734  0.1531  0.4711
  134OSM   H18T14565   4.533   4.953   5.118 -0.0953 -0.0812 -1.7050
  134OSM   H18U14566   4.654   5.080   5.180 -0.9722  1.4925  1.9357
  134OSM    C1F14567   4.568   6.096   6.570  0.2147  0.1311  0.4024
  134OSM     OF14568   4.681   6.117   6.615  0.3850 -0.2828  0.2806
  134OSM    C2F14569   4.511   6.190   6.465  0.3617 -0.4673 -0.8303
  134OSM    H2F14570   4.400   6.186   6.473  0.2971  0.1889 -1.2818
  134OSM    H2G14571   4.531   6.139   6.368  1.5373 -0.2903 -0.6947
  134OSM    C3F14572   4.551   6.339   6.474  0.1493 -0.4649 -0.2107
  134OSM    H3F14573   4.661   6.355   6.478 -0.0876  1.1138  0.5896
  134OSM    H3G14574   4.501   6.386   6.561  0.8483  0.8649 -0.5111
  134OSM    C4F14575   4.496   6.418   6.356 -0.3745 -0.2426  0.2807
  134OSM    H4F14576   4.505   6.527   6.377  0.8229 -0.6092  1.7652
  134OSM    H4G14577   4.392   6.387   6.332 -0.1461 -1.7585  1.1719
  134OSM    C5F14578   4.579   6.403   6.228  0.7590 -0.3538  0.1266
  134OSM    H5F14579   4.581   6.294   6.208  0.6573 -0.1333 -1.1953
  134OSM    H5G14580   4.682   6.444   6.241  0.7337  0.3498 -1.6434
  134OSM    C6F14581   4.527   6.459   6.089 -0.3401 -0.3471  0.1057
  134OSM    H6F14582   4.607   6.445   6.014  1.0350  1.2654  1.1925
  134OSM    H6G14583   4.500   6.566   6.101  0.1675 -0.1546 -0.4518
  134OSM    C7F14584   4.400   6.381   6.047 -0.4254 -0.2720  0.2966
  134OSM    H7F14585   4.311   6.422   6.099 -1.3436  0.9211 -2.0947
  134OSM    H7G14586   4.404   6.272   6.068 -0.1329 -0.8791 -2.5126
  134OSM    C8F14587   4.365   6.392   5.893  0.3496  0.2149  0.6830
  134OSM    H8F14588   4.358   6.498   5.858  1.0734 -0.0375 -0.2763
  134OSM    H8G14589   4.265   6.348   5.877  1.2767 -1.0593 -2.2273
  134OSM    C9F14590   4.464   6.319   5.797  0.3423  0.0316  0.1563
  134OSM    H9F14591   4.505   6.222   5.831  2.7197  0.3384 -1.6270
  134OSM   C10F14592   4.504   6.361   5.672 -0.5132  0.3156  0.1602
  134OSM   H10F14593   4.573   6.293   5.621  0.7944 -0.1995  2.4708
  134OSM   C11F14594   4.473   6.490   5.598 -0.5323 -0.0817 -0.2605
  134OSM   H11F14595   4.561   6.557   5.591 -1.5016  1.4946  1.6330
  134OSM   H11G14596   4.392   6.541   5.655 -0.2827 -0.3294  0.3298
  134OSM   C12F14597   4.417   6.465   5.462 -0.3292  0.0472  0.4980
  134OSM   H12F14598   4.401   6.564   5.414  1.9328 -0.6267 -1.8947
  134OSM   H12G14599   4.322   6.407   5.461  0.0228 -0.5414  0.3365
  134OSM   C13F14600   4.514   6.401   5.355 -0.7220  0.7493  0.0355
  134OSM   H13F14601   4.540   6.303   5.401  2.1217  1.7298  0.7586
  134OSM   H13G14602   4.602   6.468   5.352 -0.8973  1.0567  1.1201
  134OSM   C14F14603   4.463   6.395   5.211 -0.1508 -0.2659 -0.1170
  134OSM   H14F14604   4.536   6.345   5.144 -1.0960  1.5364 -2.6489
  134OSM   H14G14605   4.460   6.500   5.175 -0.1127 -0.6412 -1.2507
  134OSM   C15F14606   4.327   6.317   5.199 -0.5465  0.1404  0.1703
  134OSM   H15F14607   4.250   6.373   5.257 -0.4383 -0.8098  1.2757
  134OSM   H15G14608   4.344   6.220   5.251 -2.3165 -0.0362  0.4848
  134OSM   C16F14609   4.289   6.300   5.057  0.0099 -0.2246 -0.7146
  134OSM   H16F14610   4.195   6.242   5.060  1.9056 -3.5187 -0.2510
  134OSM   H16G14611   4.364   6.234   5.008 -0.7412 -0.3431 -1.7593
  134OSM   C17F14612   4.288   6.425   4.974  0.0942  0.5862  0.3568
  134OSM   H17F14613   4.265   6.511   5.041 -0.6437 -0.6909  1.7889
  134OSM   H17G14614   4.197   6.421   4.910  0.2566  2.8632 -0.0915
  134OSM   C18F14615   4.405   6.452   4.879  0.2422  0.2787 -0.0081
  134OSM   H18F14616   4.495   6.486   4.934  0.2286 -0.7363  0.6850
  134OSM   H18G14617   4.373   6.537   4.816  1.0668  0.6868  0.1066
  134OSM   H18H14618   4.413   6.356   4.824 -0.3275  0.0309  0.3325
  135OSM      N14619   4.997   4.796   7.002  0.3857 -0.1961  0.1666
  135OSM    C1514620   4.855   4.827   7.005 -0.9250  0.1093  0.9013
  135OSM   H15A14621   4.818   4.817   7.106 -1.0189  0.5070  0.9076
  135OSM   H15B14622   4.799   4.764   6.938  0.2922 -0.7513  0.6622
  135OSM   H15C14623   4.858   4.932   6.981  2.5543 -0.2625 -1.0386
  135OSM    C1414624   5.083   4.878   7.094  0.1344  0.4125 -0.5702
  135OSM   H14A14625   5.186   4.863   7.067 -0.0454 -1.2710 -0.4582
  135OSM   H14B14626   5.065   4.852   7.198 -0.3742  1.5413 -0.3558
  135OSM   H14C14627   5.059   4.982   7.079 -0.1194  1.1011  3.3584
  135OSM    C1314628   5.001   4.646   7.037 -0.0824 -0.2808  0.7294
  135OSM   H13A14629   5.103   4.611   7.039 -0.3057 -1.4903 -2.7558
  135OSM   H13B14630   4.963   4.580   6.960  0.7066 -0.2705  0.3187
  135OSM   H13C14631   4.956   4.622   7.133  1.5951 -2.9120  0.9420
  135OSM    C1214632   5.051   4.822   6.861 -0.3698 -0.3371  0.8160
  135OSM   H12A14633   4.986   4.766   6.796 -0.3862  1.4495 -0.8116
  135OSM   H12B14634   5.154   4.795   6.842 -0.2078  1.3291 -0.9323
  135OSM    C1114635   5.051   4.966   6.811  0.9112 -0.5302  0.3651
  135OSM   H11A14636   5.114   4.967   6.720 -0.8577 -0.1111 -0.9204
  135OSM   H11B14637   5.105   5.037   6.876  0.2309 -0.6011  1.0216
  135OSM      P14638   4.875   5.164   6.821  0.1741 -0.0287 -0.0468
  135OSM    O1314639   4.754   5.199   6.752  0.4899  0.1360 -0.1507
  135OSM    O1414640   4.877   5.186   6.969  0.3389  0.1105  0.6290
  135OSM    O1114641   4.989   5.245   6.756  0.1389  0.0355 -0.2628
  135OSM    O1214642   4.924   5.014   6.785 -0.0159 -0.8088  0.1066
  135OSM    C1S14643   5.032   5.232   6.625  0.9088 -0.4742  0.0693
  135OSM    H1S14644   4.994   5.135   6.586  1.1377 -0.7042  0.4178
  135OSM    H1T14645   5.142   5.222   6.626  0.7124 -3.7334  1.4363
  135OSM     NF14646   5.037   5.299   6.389  0.1939  0.1590 -0.9501
  135OSM    HNF14647   5.119   5.340   6.350  1.0358 -2.0083 -1.6567
  135OSM    C2S14648   4.998   5.345   6.523 -0.1092  0.0209 -0.0477
  135OSM    H2S14649   4.890   5.368   6.537  0.4667  2.8064  0.4492
  135OSM    C3S14650   5.075   5.477   6.579 -0.6638 -0.1583 -0.0024
  135OSM    H3S14651   5.185   5.462   6.583 -0.6880 -0.4094 -0.2611
  135OSM     O314652   5.042   5.498   6.719 -0.1522  0.0490 -0.0670
  135OSM    HO314653   5.013   5.410   6.744 -1.7714  0.1852 -1.2701
  135OSM    C4S14654   5.061   5.604   6.508 -0.3797  0.2386 -0.5847
  135OSM    H4S14655   5.145   5.619   6.438  0.3127 -0.9704 -0.0518
  135OSM    C5S14656   4.962   5.691   6.512  0.1661  0.7601 -0.4910
  135OSM    H5S14657   4.869   5.658   6.562  0.2687  0.4589 -0.4957
  135OSM    C6S14658   4.948   5.811   6.434  0.4010 -0.0071 -0.4447
  135OSM    H6S14659   5.037   5.829   6.370 -1.0596  0.3578 -2.4421
  135OSM    H6T14660   4.941   5.895   6.506  0.0462 -1.6593  1.5333
  135OSM    C7S14661   4.819   5.817   6.342 -0.1025  0.0804  1.0620
  135OSM    H7S14662   4.728   5.794   6.401 -1.1709 -0.8395 -0.8643
  135OSM    H7T14663   4.825   5.770   6.242 -1.7473  2.5693 -0.3267
  135OSM    C8S14664   4.788   5.961   6.303 -0.6556  0.2358  0.4542
  135OSM    H8S14665   4.873   6.011   6.251 -0.2186 -1.6455 -0.7466
  135OSM    H8T14666   4.739   6.011   6.389 -3.0599  1.0916 -1.3210
  135OSM    C9S14667   4.678   5.964   6.192 -0.7371  0.1169  0.0102
  135OSM    H9S14668   4.638   6.068   6.191  0.3714  0.5613 -0.7223
  135OSM    H9T14669   4.593   5.903   6.229  0.3653 -0.9555  0.8867
  135OSM   C10S14670   4.737   5.919   6.057  0.1488 -0.0097 -0.2580
  135OSM   H10S14671   4.743   5.808   6.061 -1.0879 -0.0663  0.8356
  135OSM   H10T14672   4.836   5.965   6.036 -0.2349  0.8067 -0.3325
  135OSM   C11S14673   4.629   5.951   5.953  0.1877  0.0007  0.3050
  135OSM   H11S14674   4.624   6.059   5.928  0.5341 -0.3937 -1.7030
  135OSM   H11T14675   4.536   5.915   6.002 -0.3557  0.4972 -0.3438
  135OSM   C12S14676   4.627   5.859   5.833 -0.2384 -0.6150 -0.7766
  135OSM   H12S14677   4.624   5.756   5.875 -2.4419 -0.5539 -0.6230
  135OSM   H12T14678   4.719   5.861   5.772 -0.6315  1.0903 -1.3746
  135OSM   C13S14679   4.495   5.880   5.749 -0.8171  0.0997  0.1279
  135OSM   H13S14680   4.447   5.978   5.766 -0.3572  0.6210 -1.3917
  135OSM   H13T14681   4.433   5.790   5.767  1.9416 -2.0532 -0.4953
  135OSM   C14S14682   4.536   5.874   5.600  0.1419  0.2184 -0.0629
  135OSM   H14S14683   4.572   5.776   5.563  1.1539  1.2985 -2.0647
  135OSM   H14T14684   4.622   5.943   5.595  0.8787 -0.3899  2.5824
  135OSM   C15S14685   4.420   5.934   5.512  0.7001 -0.0005  0.7739
  135OSM   H15S14686   4.403   6.044   5.518  0.5017  0.1881 -1.9320
  135OSM   H15T14687   4.325   5.900   5.559  1.4752 -1.2288  1.5230
  135OSM   C16S14688   4.422   5.901   5.368  0.1265  0.0505  0.6355
  135OSM   H16S14689   4.529   5.923   5.349  0.1200  3.1200  3.2862
  135OSM   H16T14690   4.350   5.964   5.312  1.7130  0.8057 -0.6401
  135OSM   C17S14691   4.377   5.763   5.347  0.4930  0.2572  0.3801
  135OSM   H17S14692   4.280   5.744   5.398  0.5442  0.0879  0.4171
  135OSM   H17T14693   4.447   5.691   5.396  0.1239 -0.0417  0.4803
  135OSM   C18S14694   4.351   5.719   5.202  0.4885 -0.2957  0.2872
  135OSM   H18S14695   4.450   5.735   5.152 -0.2664 -0.8228 -1.4576
  135OSM   H18T14696   4.294   5.791   5.139  1.9436  2.6081  2.0784
  135OSM   H18U14697   4.316   5.615   5.188  0.5250 -0.5384  1.9150
  135OSM    C1F14698   4.967   5.211   6.324 -0.1849 -0.1510  0.0522
  135OSM     OF14699   4.859   5.173   6.370 -0.3142 -0.1190 -0.2756
  135OSM    C2F14700   5.032   5.159   6.200 -0.0923 -0.6023  0.1077
  135OSM    H2F14701   5.102   5.080   6.234  0.8353  0.1517  0.0004
  135OSM    H2G14702   5.083   5.242   6.147 -1.5548 -0.1534 -0.6561
  135OSM    C3F14703   4.912   5.082   6.128  0.4299 -0.3164  0.6634
  135OSM    H3F14704   4.842   5.158   6.088  0.6934 -0.0815  0.6415
  135OSM    H3G14705   4.853   5.020   6.198  0.4257  1.6198  2.4815
  135OSM    C4F14706   4.952   5.011   5.996 -0.2956  0.6282  0.1186
  135OSM    H4F14707   5.055   4.972   6.011 -0.5668  0.6861  2.5447
  135OSM    H4G14708   4.891   4.918   6.001  0.6876 -0.1507 -1.2622
  135OSM    C5F14709   4.932   5.087   5.867  0.2622 -0.0129 -0.4218
  135OSM    H5F14710   4.994   5.179   5.866  0.0876  0.1755  1.6473
  135OSM    H5G14711   4.826   5.121   5.860  0.0576 -0.8795 -2.1543
  135OSM    C6F14712   4.957   5.011   5.739 -0.3203 -0.3612 -0.1262
  135OSM    H6F14713   4.908   4.913   5.758  0.5114 -0.8002 -0.2222
  135OSM    H6G14714   5.066   5.004   5.719 -0.6465 -1.6144 -1.5880
  135OSM    C7F14715   4.889   5.064   5.614  0.1292  0.5408  0.6635
  135OSM    H7F14716   4.783   5.050   5.641 -0.8519  0.0644 -2.9229
  135OSM    H7G14717   4.896   4.998   5.525 -0.8088 -0.7186  1.4966
  135OSM    C8F14718   4.911   5.212   5.570  0.5949  0.2644  0.2102
  135OSM    H8F14719   4.903   5.273   5.663 -0.0936 -0.7407  0.8373
  135OSM    H8G14720   4.830   5.242   5.500 -1.7655 -1.7720  1.8965
  135OSM    C9F14721   5.039   5.238   5.493  0.3024 -0.2216 -0.6238
  135OSM    H9F14722   5.125   5.260   5.557 -1.4917  0.9511  1.5113
  135OSM   C10F14723   5.067   5.227   5.360 -0.4835  0.0498 -0.4170
  135OSM   H10F14724   5.170   5.223   5.323 -0.9009 -2.3791 -1.5083
  135OSM   C11F14725   4.962   5.202   5.253  0.5538  0.2926 -0.5694
  135OSM   H11F14726   4.869   5.258   5.279  1.0022 -0.1160  2.2386
  135OSM   H11G14727   4.929   5.096   5.259  0.7365  0.2017 -1.1401
  135OSM   C12F14728   5.018   5.250   5.124  0.3729 -0.2451  0.1324
  135OSM   H12F14729   5.116   5.203   5.101 -0.2527 -1.2916 -0.5041
  135OSM   H12G14730   5.045   5.357   5.134 -0.9096 -0.0922  2.7752
  135OSM   C13F14731   4.929   5.235   5.000 -0.0934  0.7281  0.0288
  135OSM   H13F14732   4.844   5.304   5.020 -1.7027 -1.1836  0.1765
  135OSM   H13G14733   4.889   5.131   4.995  0.9497  0.2918  0.5730
  135OSM   C14F14734   4.991   5.256   4.867 -0.4315  0.2636  0.3093
  135OSM   H14F14735   5.066   5.175   4.851 -0.7207 -1.0304  4.3285
  135OSM   H14G14736   5.043   5.353   4.856  0.5683 -0.4749 -2.1270
  135OSM   C15F14737   4.887   5.241   4.750 -0.7358 -0.5021  0.0208
  135OSM   H15F14738   4.810   5.321   4.748 -0.0536  0.3464 -4.5607
  135OSM   H15G14739   4.839   5.142   4.755  0.3785 -1.1908 -1.7870
  135OSM   C16F14740   4.971   5.240   4.622 -0.0094 -0.3834  0.6586
  135OSM   H16F14741   4.898   5.212   4.543  0.2451  0.5016  0.0876
  135OSM   H16G14742   5.051   5.164   4.633  0.0060 -0.7615 -1.6540
  135OSM   C17F14743   5.026   5.377   4.586 -0.5531  0.0187  0.1508
  135OSM   H17F14744   5.080   5.380   4.488 -1.3631 -0.2754 -0.3116
  135OSM   H17G14745   5.107   5.399   4.658  0.7002 -1.4468 -0.7429
  135OSM   C18F14746   4.926   5.492   4.580 -0.2240 -0.2842 -1.1793
  135OSM   H18F14747   4.866   5.505   4.672  0.2398 -0.7752 -0.7968
  135OSM   H18G14748   4.852   5.478   4.499 -0.4735 -0.7182 -0.8813
  135OSM   H18H14749   4.976   5.591   4.572 -1.3754  0.4580  0.2849
  136OSM      N14750   0.343   5.711   7.264  0.0063  0.0585 -0.4498
  136OSM    C1514751   0.469   5.713   7.342  0.0255 -0.1062  0.0327
  136OSM   H15A14752   0.530   5.626   7.322  0.6183 -0.1381  1.8071
  136OSM   H15B14753   0.450   5.715   7.449  0.3240  1.8235  0.0967
  136OSM   H15C14754   0.531   5.799   7.321 -0.7188  0.2753 -0.6867
  136OSM    C1414755   0.269   5.588   7.313  0.3693  0.4566  0.7049
  136OSM   H14A14756   0.255   5.594   7.420 -2.5517  0.7052  0.3712
  136OSM   H14B14757   0.316   5.494   7.288 -1.1949 -0.1424 -0.0690
  136OSM   H14C14758   0.170   5.584   7.270  0.5061 -1.2752  0.4758
  136OSM    C1314759   0.268   5.838   7.304  0.3703  0.3373 -0.0598
  136OSM   H13A14760   0.273   5.835   7.411 -1.1475 -0.9941  0.0109
  136OSM   H13B14761   0.172   5.820   7.257  1.0894 -0.7375 -1.1940
  136OSM   H13C14762   0.321   5.916   7.250  1.3504 -1.9945 -2.7304
  136OSM    C1214763   0.366   5.697   7.117 -0.0462  0.2846  0.4542
  136OSM   H12A14764   0.277   5.653   7.074 -0.2109  0.6433  0.4308
  136OSM   H12B14765   0.430   5.612   7.097 -1.4690 -0.4596 -1.2695
  136OSM    C1114766   0.423   5.810   7.034  0.3712 -0.0352  0.5692
  136OSM   H11A14767   0.521   5.849   7.070 -0.2548  1.4634  0.7355
  136OSM   H11B14768   0.348   5.891   7.048 -1.5991 -1.9503  1.7519
  136OSM      P14769   0.301   5.771   6.805 -0.0381  0.1730 -0.2253
  136OSM    O1314770   0.295   5.651   6.716  0.0277  0.1872  0.0383
  136OSM    O1414771   0.180   5.801   6.884 -0.1437  0.0873  0.4640
  136OSM    O1114772   0.323   5.900   6.718 -0.1291  0.1985 -0.0403
  136OSM    O1214773   0.428   5.764   6.896 -0.3938 -0.7982 -1.1692
  136OSM    C1S14774   0.428   5.913   6.618  0.2717  0.3265  0.7477
  136OSM    H1S14775   0.496   5.824   6.618 -0.7893 -0.5142  1.4543
  136OSM    H1T14776   0.489   6.003   6.638  0.1375 -0.0125  2.9360
  136OSM     NF14777   0.465   5.915   6.363  0.0290 -0.3054 -0.1635
  136OSM    HNF14778   0.472   5.984   6.291  1.0506 -0.9611 -0.7184
  136OSM    C2S14779   0.368   5.929   6.471  0.3828  0.1871  0.1354
  136OSM    H2S14780   0.286   5.854   6.464 -1.3083  2.0065 -0.7484
  136OSM    C3S14781   0.289   6.058   6.459 -0.8551  0.1168  0.3884
  136OSM    H3S14782   0.354   6.147   6.474  0.6530 -1.0694  1.1836
  136OSM     O314783   0.194   6.064   6.564 -0.4792 -0.2194 -0.1008
  136OSM    HO314784   0.224   5.999   6.629 -2.2587  0.6667  1.7050
  136OSM    C4S14785   0.211   6.076   6.335 -0.3202  0.2156  0.4903
  136OSM    H4S14786   0.109   6.038   6.343  0.5546 -2.0311  2.0755
  136OSM    C5S14787   0.244   6.156   6.234 -0.4554 -0.6558  0.0595
  136OSM    H5S14788   0.337   6.214   6.234 -0.7676 -0.0894 -1.5400
  136OSM    C6S14789   0.159   6.196   6.119  0.0703 -0.3949  0.0010
  136OSM    H6S14790   0.114   6.294   6.145  0.9931  0.3034 -0.9374
  136OSM    H6T14791   0.068   6.132   6.118  0.6501 -1.2881 -2.4689
  136OSM    C7S14792   0.226   6.194   5.974  0.7045 -0.1679 -0.7396
  136OSM    H7S14793   0.283   6.100   5.955  3.2209  1.0312  0.3819
  136OSM    H7T14794   0.295   6.281   5.974  1.6335 -0.8673 -1.7449
  136OSM    C8S14795   0.117   6.214   5.870 -0.0313 -0.6393  0.6206
  136OSM    H8S14796   0.055   6.298   5.908 -0.1471 -0.9957  1.2367
  136OSM    H8T14797   0.055   6.122   5.859 -0.4302 -0.3706  0.6018
  136OSM    C9S14798   0.183   6.272   5.739 -0.2363 -0.5736 -0.4371
  136OSM    H9S14799   0.256   6.205   5.689  1.0619  0.1943  0.3676
  136OSM    H9T14800   0.246   6.363   5.740  1.6490 -1.8226 -0.3768
  136OSM   C10S14801   0.084   6.298   5.627 -0.4479  0.3819 -0.2731
  136OSM   H10S14802   0.011   6.379   5.649 -0.1745  0.5705 -0.0537
  136OSM   H10T14803   0.026   6.204   5.614 -0.6323  0.3768  0.5660
  136OSM   C11S14804   0.152   6.332   5.497 -0.1287 -0.7173  0.6099
  136OSM   H11S14805   0.208   6.243   5.461 -1.0203 -0.4172 -1.6477
  136OSM   H11T14806   0.223   6.415   5.514  0.3268 -0.6422 -1.4344
  136OSM   C12S14807   0.055   6.380   5.390  0.3334 -0.6381  0.7703
  136OSM   H12S14808   0.007   6.466   5.440  1.5202 -0.5772  1.8444
  136OSM   H12T14809  -0.024   6.305   5.370 -0.5266  0.3880  0.2070
  136OSM   C13S14810   0.113   6.424   5.251 -0.1019 -0.2861 -0.1188
  136OSM   H13S14811   0.185   6.505   5.275 -0.6103 -0.4448  2.2051
  136OSM   H13T14812   0.024   6.478   5.214 -0.3768  0.8449  1.9976
  136OSM   C14S14813   0.163   6.314   5.165  0.4105 -0.7397  0.3728
  136OSM   H14S14814   0.085   6.235   5.161 -0.8213  0.4707 -1.6117
  136OSM   H14T14815   0.245   6.267   5.222 -1.6662 -1.1602  3.2419
  136OSM   C15S14816   0.203   6.361   5.025  0.5186 -1.1620 -0.6977
  136OSM   H15S14817   0.287   6.431   5.044 -0.1209 -0.2550 -1.1690
  136OSM   H15T14818   0.125   6.421   4.975  0.1367  0.3550  1.5801
  136OSM   C16S14819   0.258   6.250   4.936  0.6374  0.4781  0.2079
  136OSM   H16S14820   0.171   6.188   4.905  0.9183  0.2558 -0.1477
  136OSM   H16T14821   0.332   6.186   4.987  0.4520  0.8938  1.0123
  136OSM   C17S14822   0.316   6.291   4.799 -0.2334  0.9831 -0.4711
  136OSM   H17S14823   0.388   6.213   4.766 -1.3502 -0.4191  0.2999
  136OSM   H17T14824   0.382   6.379   4.814 -0.9602  1.4014  0.3280
  136OSM   C18S14825   0.223   6.309   4.682  0.6140 -0.2410 -0.2899
  136OSM   H18S14826   0.151   6.225   4.686 -0.6622  0.8431  0.1589
  136OSM   H18T14827   0.280   6.305   4.586  1.0240 -1.4577 -0.0222
  136OSM   H18U14828   0.172   6.407   4.685 -0.8347 -0.8769 -2.1284
  136OSM    C1F14829   0.526   5.802   6.342 -0.7063 -0.6140 -0.0711
  136OSM     OF14830   0.507   5.706   6.411 -0.4081  0.2865 -0.2965
  136OSM    C2F14831   0.634   5.800   6.237 -0.7631 -0.2240  0.2525
  136OSM    H2F14832   0.720   5.852   6.285 -0.8730 -0.7107  0.9879
  136OSM    H2G14833   0.604   5.852   6.143  1.1584  2.0651  0.8087
  136OSM    C3F14834   0.673   5.658   6.186  0.2988  0.7930 -0.0274
  136OSM    H3F14835   0.582   5.606   6.151  0.1374  0.7774  0.4114
  136OSM    H3G14836   0.706   5.588   6.265  0.5057 -1.0344 -1.6723
  136OSM    C4F14837   0.765   5.641   6.061 -0.3254  0.2359 -0.1409
  136OSM    H4F14838   0.764   5.531   6.043  0.8227  0.4708 -1.7727
  136OSM    H4G14839   0.867   5.672   6.091 -0.1052 -0.6236  0.0207
  136OSM    C5F14840   0.726   5.721   5.938  0.1350  0.5441  0.2473
  136OSM    H5F14841   0.757   5.827   5.953 -1.5920  1.5684 -2.6079
  136OSM    H5G14842   0.615   5.726   5.932  0.2302  0.9116 -2.2541
  136OSM    C6F14843   0.776   5.660   5.803  0.4719  0.3313  0.3432
  136OSM    H6F14844   0.726   5.562   5.788  1.5008 -0.3215  1.0345
  136OSM    H6G14845   0.887   5.649   5.807  0.2955 -1.4595  1.2176
  136OSM    C7F14846   0.749   5.746   5.680  0.3510 -0.1326  1.3108
  136OSM    H7F14847   0.774   5.851   5.708 -0.5804  0.3289  0.5075
  136OSM    H7G14848   0.640   5.760   5.668  0.6376  0.4894 -1.4526
  136OSM    C8F14849   0.804   5.688   5.549  0.1878  0.1598  0.4774
  136OSM    H8F14850   0.751   5.591   5.536  1.1568 -0.1908 -1.0843
  136OSM    H8G14851   0.911   5.666   5.571 -0.5560 -2.0826  2.2345
  136OSM    C9F14852   0.776   5.794   5.443  0.5030  0.1591 -0.2683
  136OSM    H9F14853   0.672   5.798   5.407 -0.0625  0.1252  1.2479
  136OSM   C10F14854   0.859   5.886   5.399 -0.4723  0.7092  0.1505
  136OSM   H10F14855   0.833   5.967   5.329 -2.7031  1.0073  1.2401
  136OSM   C11F14856   0.999   5.904   5.449 -0.0352  0.4182 -0.8264
  136OSM   H11F14857   1.015   5.856   5.548 -0.1896 -0.3023 -1.1429
  136OSM   H11G14858   1.016   6.011   5.475 -0.6866 -0.0114  1.7544
  136OSM   C12F14859   1.118   5.868   5.355  0.2016 -0.1113 -0.3793
  136OSM   H12F14860   1.085   5.764   5.334  0.6069 -0.1700 -0.7249
  136OSM   H12G14861   1.212   5.886   5.411  1.9793 -0.0255 -3.2198
  136OSM   C13F14862   1.125   5.953   5.230 -0.0981  0.3366  0.4385
  136OSM   H13F14863   1.128   6.060   5.259 -0.6100  0.1364  1.2677
  136OSM   H13G14864   1.036   5.944   5.165  0.1485  1.5812 -0.0965
  136OSM   C14F14865   1.245   5.908   5.151 -0.1669 -0.3071 -0.4932
  136OSM   H14F14866   1.248   5.797   5.145 -2.9787 -0.5413  0.9771
  136OSM   H14G14867   1.334   5.927   5.215 -0.9000 -2.3142  1.2326
  136OSM   C15F14868   1.249   5.984   5.020 -0.2021 -0.0028  0.3680
  136OSM   H15F14869   1.277   6.092   5.015 -2.4966  0.6442  0.1739
  136OSM   H15G14870   1.150   5.976   4.971  1.3447  1.5985 -3.4640
  136OSM   C16F14871   1.321   5.912   4.904 -0.0338 -0.2358 -0.2113
  136OSM   H16F14872   1.283   5.808   4.891 -0.6663 -0.2887  1.6763
  136OSM   H16G14873   1.425   5.894   4.938 -0.0576 -1.3387 -0.6631
  136OSM   C17F14874   1.320   5.987   4.769 -1.0321  0.0011 -0.0251
  136OSM   H17F14875   1.329   6.096   4.790 -1.4961  0.7804 -3.3070
  136OSM   H17G14876   1.222   5.981   4.717 -1.4528  1.4388  0.5521
  136OSM   C18F14877   1.431   5.941   4.670 -0.3238  0.2599  0.0327
  136OSM   H18F14878   1.451   5.832   4.675  0.4797  0.4653  3.3939
  136OSM   H18G14879   1.526   5.989   4.702  2.3264 -2.7888 -2.4389
  136OSM   H18H14880   1.408   5.970   4.565  1.0454 -1.2807 -0.7455
  137OSM      N14881   2.794   5.421   6.695 -0.1850  0.5214  0.2160
  137OSM    C1514882   2.860   5.510   6.790 -0.5837  1.1867 -0.0550
  137OSM   H15A14883   2.898   5.598   6.740 -1.3321  1.2405 -0.5525
  137OSM   H15B14884   2.940   5.461   6.844 -0.6082  1.6463  0.4041
  137OSM   H15C14885   2.800   5.551   6.870 -1.2683  0.5626 -0.2278
  137OSM    C1414886   2.902   5.359   6.608 -0.4798 -0.1051  0.1359
  137OSM   H14A14887   2.932   5.426   6.529 -0.4117 -0.3803 -0.0709
  137OSM   H14B14888   2.874   5.266   6.561  0.1806 -0.2000 -0.0715
  137OSM   H14C14889   2.994   5.339   6.661  0.0227 -0.0740 -0.7135
  137OSM    C1314890   2.723   5.311   6.773 -0.3174 -0.2106 -0.6918
  137OSM   H13A14891   2.638   5.342   6.833 -1.7205 -0.0570 -2.6668
  137OSM   H13B14892   2.787   5.245   6.829 -0.2215 -0.6574 -1.3252
  137OSM   H13C14893   2.675   5.244   6.703 -2.4447  0.8888 -0.3992
  137OSM    C1214894   2.698   5.491   6.605 -0.2409  0.0560 -0.2551
  137OSM   H12A14895   2.682   5.425   6.521 -1.0188 -1.2114  0.8596
  137OSM   H12B14896   2.749   5.581   6.575  0.1350  0.1871  0.7502
  137OSM    C1114897   2.562   5.542   6.654 -0.1779 -0.3434  0.2912
  137OSM   H11A14898   2.520   5.615   6.581  1.1524  1.0849  0.8976
  137OSM   H11B14899   2.593   5.599   6.744  0.9847 -3.0855  1.7327
  137OSM      P14900   2.388   5.347   6.614 -0.1269 -0.0545  0.0241
  137OSM    O1314901   2.444   5.212   6.642 -0.4158 -0.0880  0.0147
  137OSM    O1414902   2.241   5.370   6.627 -0.0790  0.3163 -0.3423
  137OSM    O1114903   2.426   5.378   6.467 -0.1831 -0.0318  0.4319
  137OSM    O1214904   2.467   5.449   6.702  0.1564  0.9209 -0.5685
  137OSM    C1S14905   2.349   5.304   6.364 -0.4099 -0.7098 -0.3139
  137OSM    H1S14906   2.246   5.347   6.372  1.1331  3.2667  0.7119
  137OSM    H1T14907   2.356   5.196   6.387  0.9172 -0.2559  1.6323
  137OSM     NF14908   2.319   5.264   6.121  0.2734 -0.4410 -0.0156
  137OSM    HNF14909   2.358   5.183   6.078 -0.0420 -0.4663 -0.2597
  137OSM    C2S14910   2.409   5.335   6.217 -0.3590 -0.0055 -0.9472
  137OSM    H2S14911   2.399   5.446   6.207  0.1290  0.4713  2.5536
  137OSM    C3S14912   2.566   5.310   6.213 -0.0056 -0.7073  0.5549
  137OSM    H3S14913   2.572   5.204   6.243  0.7374 -0.9211 -0.3153
  137OSM     O314914   2.635   5.384   6.314  0.1464  0.4900 -0.3480
  137OSM    HO314915   2.565   5.433   6.358 -1.3518  0.0868 -2.1767
  137OSM    C4S14916   2.614   5.324   6.076 -0.5518  0.1380 -0.1952
  137OSM    H4S14917   2.572   5.413   6.025  2.1331  1.5256 -0.1363
  137OSM    C5S14918   2.694   5.239   6.004  0.6699  0.3314  0.0121
  137OSM    H5S14919   2.737   5.146   6.043  2.4226 -0.2783 -3.0418
  137OSM    C6S14920   2.736   5.264   5.862  0.5559 -0.6470  0.7337
  137OSM    H6S14921   2.679   5.198   5.793  1.5750  3.0411 -4.1751
  137OSM    H6T14922   2.845   5.248   5.851  0.7032 -2.1610  3.3604
  137OSM    C7S14923   2.722   5.406   5.804  0.2000  0.2747 -0.2131
  137OSM    H7S14924   2.787   5.471   5.866 -1.1204  0.5185  0.9742
  137OSM    H7T14925   2.616   5.440   5.801 -0.2367 -0.9405 -3.8487
  137OSM    C8S14926   2.775   5.415   5.656  0.0393  0.7951  0.3165
  137OSM    H8S14927   2.878   5.375   5.652 -0.2317  0.1514 -0.7979
  137OSM    H8T14928   2.782   5.520   5.620  0.8969  0.7889  0.4491
  137OSM    C9S14929   2.700   5.330   5.549 -0.4846 -0.3309 -0.0426
  137OSM    H9S14930   2.602   5.376   5.526  0.3855  1.8413  0.4234
  137OSM    H9T14931   2.696   5.235   5.608  5.0008 -0.9782 -0.1661
  137OSM   C10S14932   2.773   5.306   5.424 -0.7136 -0.1842  0.2527
  137OSM   H10S14933   2.727   5.216   5.378 -2.3815  0.6863  0.1340
  137OSM   H10T14934   2.876   5.274   5.449 -1.1690 -1.3450  0.6965
  137OSM   C11S14935   2.775   5.419   5.316  0.5746  0.5857  0.0599
  137OSM   H11S14936   2.828   5.510   5.350  1.9414 -0.2189  0.1322
  137OSM   H11T14937   2.667   5.447   5.309  0.6290  1.3703  1.8244
  137OSM   C12S14938   2.845   5.369   5.181  0.1515  0.3534  0.0010
  137OSM   H12S14939   2.953   5.353   5.200  0.7809  4.1853  0.4029
  137OSM   H12T14940   2.838   5.443   5.098  2.6939  0.6826  0.0161
  137OSM   C13S14941   2.790   5.242   5.126 -0.5016  0.2454 -0.0701
  137OSM   H13S14942   2.688   5.254   5.085  0.7099  0.2774 -3.4679
  137OSM   H13T14943   2.785   5.158   5.198 -2.5357  1.8464  1.8030
  137OSM   C14S14944   2.863   5.206   4.994 -0.2731 -0.2722 -0.4200
  137OSM   H14S14945   2.967   5.173   5.019 -0.4547 -1.4112 -1.0895
  137OSM   H14T14946   2.867   5.298   4.932 -0.5708  1.1251  1.5610
  137OSM   C15S14947   2.786   5.100   4.919  0.9209 -0.6378 -0.0619
  137OSM   H15S14948   2.679   5.125   4.901  1.2064  0.7653  0.0678
  137OSM   H15T14949   2.772   5.018   4.993  0.1765  1.5685  2.4103
  137OSM   C16S14950   2.860   5.041   4.795 -0.1012  0.0967  0.5052
  137OSM   H16S14951   2.959   5.005   4.832  0.3944  2.3904  1.5936
  137OSM   H16T14952   2.886   5.122   4.723  2.7594  0.4181  1.7359
  137OSM   C17S14953   2.785   4.929   4.724 -0.5072 -0.1950  0.0858
  137OSM   H17S14954   2.697   4.967   4.668  0.0531  1.8512  0.4977
  137OSM   H17T14955   2.740   4.871   4.807  0.5714 -1.9687 -0.5061
  137OSM   C18S14956   2.882   4.844   4.643 -0.1776  0.1760 -0.0474
  137OSM   H18S14957   2.925   4.884   4.548  3.2989 -0.7752  0.9800
  137OSM   H18T14958   2.820   4.762   4.601  1.0177  0.3501 -2.3346
  137OSM   H18U14959   2.973   4.813   4.699 -1.6864  0.2908  2.6015
  137OSM    C1F14960   2.191   5.305   6.100 -0.0664  0.8714  0.1160
  137OSM     OF14961   2.150   5.403   6.157 -0.4243 -0.0538 -0.5698
  137OSM    C2F14962   2.107   5.218   6.018  0.3575  0.4293  0.3645
  137OSM    H2F14963   2.013   5.202   6.074  1.1608 -0.1911  1.6076
  137OSM    H2G14964   2.159   5.123   5.992 -1.3010  0.3939 -3.5988
  137OSM    C3F14965   2.092   5.280   5.876 -0.1763  0.7484  0.0036
  137OSM    H3F14966   2.076   5.389   5.883 -1.5006  0.5028  1.3384
  137OSM    H3G14967   2.005   5.226   5.833 -1.1007  2.2186 -0.0287
  137OSM    C4F14968   2.197   5.233   5.776 -0.3344  0.1731  0.2087
  137OSM    H4F14969   2.212   5.124   5.787 -1.9009 -0.1086 -0.2080
  137OSM    H4G14970   2.294   5.278   5.808 -0.7834  0.1818  1.6283
  137OSM    C5F14971   2.167   5.262   5.625  0.2802  0.0935 -1.2365
  137OSM    H5F14972   2.145   5.371   5.616 -1.6474 -0.0550  0.6589
  137OSM    H5G14973   2.064   5.225   5.602 -0.4417  0.1238  1.5631
  137OSM    C6F14974   2.277   5.226   5.527 -0.4995 -0.4784  0.7846
  137OSM    H6F14975   2.301   5.120   5.550 -1.1087 -0.3460  2.0891
  137OSM    H6G14976   2.372   5.284   5.535 -0.9880  1.2631 -3.3559
  137OSM    C7F14977   2.242   5.228   5.379  0.1767  0.9029 -0.1905
  137OSM    H7F14978   2.197   5.327   5.356 -2.3374 -0.2534 -0.5779
  137OSM    H7G14979   2.168   5.149   5.352 -0.5012  1.3694  0.2687
  137OSM    C8F14980   2.356   5.225   5.277 -0.6983  0.2395 -0.4848
  137OSM    H8F14981   2.434   5.289   5.325 -1.7393  2.6607 -1.8899
  137OSM    H8G14982   2.318   5.262   5.180  0.1635 -0.0316 -0.9347
  137OSM    C9F14983   2.414   5.079   5.266  0.0784  0.4954 -0.5547
  137OSM    H9F14984   2.474   5.046   5.352 -0.6025  0.0157 -0.2558
  137OSM   C10F14985   2.393   4.990   5.160  1.5500  0.2304 -0.1748
  137OSM   H10F14986   2.438   4.890   5.167  1.8198  0.4643  3.2341
  137OSM   C11F14987   2.306   5.007   5.042 -0.0694  0.3128  0.2982
  137OSM   H11F14988   2.213   5.059   5.072 -0.4959 -1.3618  2.1193
  137OSM   H11G14989   2.260   4.907   5.025  0.0323 -0.0203  1.8489
  137OSM   C12F14990   2.371   5.055   4.914 -0.3515 -0.1056 -0.3387
  137OSM   H12F14991   2.459   4.988   4.903  1.4333  1.9878  0.4605
  137OSM   H12G14992   2.394   5.163   4.919 -2.2627  0.3238  0.0872
  137OSM   C13F14993   2.292   5.009   4.792  0.4638 -0.3675 -0.4439
  137OSM   H13F14994   2.293   4.901   4.768 -0.6707 -0.5785  0.3548
  137OSM   H13G14995   2.348   5.047   4.705 -2.0171  2.5032 -0.9631
  137OSM   C14F14996   2.161   5.093   4.756  0.1903 -0.1196 -0.3706
  137OSM   H14F14997   2.188   5.193   4.796  0.4520 -0.7934  1.2363
  137OSM   H14G14998   2.067   5.061   4.806 -1.3440  4.8510  0.4620
  137OSM   C15F14999   2.136   5.093   4.600  0.1685 -0.1088  0.2070
  137OSM   H15F15000   2.085   5.004   4.557 -1.7998  0.7692  0.5969
  137OSM   H15G15001   2.244   5.100   4.577  0.8509 -1.0668  2.8214
  137OSM   C16F15002   2.046   5.215   4.567 -0.7163 -0.1180  0.0840
  137OSM   H16F15003   2.087   5.302   4.623 -0.5106  0.1196 -0.4248
  137OSM   H16G15004   1.937   5.214   4.590 -0.8804  0.5047 -0.6145
  137OSM   C17F15005   2.042   5.243   4.421 -0.6230  0.5705  0.6025
  137OSM   H17F15006   2.145   5.226   4.384 -0.0271  0.8082  2.0860
  137OSM   H17G15007   2.019   5.348   4.392 -0.5978  0.3651 -0.1837
  137OSM   C18F15008   1.956   5.148   4.331 -0.2290 -0.2592 -0.5240
  137OSM   H18F15009   1.854   5.180   4.360 -0.1106  0.8672 -1.3195
  137OSM   H18G15010   1.964   5.044   4.370  1.0737 -0.7906 -2.1097
  137OSM   H18H15011   1.982   5.165   4.224  1.1714 -2.2823 -0.5845
  138OSM      N15012   1.062   3.656   6.663  0.1817 -0.2285  0.2369
  138OSM    C1515013   0.954   3.759   6.635 -0.4124  0.0869 -0.3649
  138OSM   H15A15014   1.004   3.847   6.597  1.5888  0.0420  1.9644
  138OSM   H15B15015   0.909   3.777   6.731  0.0965 -1.3615  0.1596
  138OSM   H15C15016   0.880   3.717   6.568 -0.0859  1.7980 -1.8774
  138OSM    C1415017   1.164   3.721   6.753  0.3824 -0.0274 -0.0475
  138OSM   H14A15018   1.241   3.652   6.786  0.3432 -0.7962 -1.4796
  138OSM   H14B15019   1.111   3.760   6.839 -3.1490 -1.1557 -1.5358
  138OSM   H14C15020   1.220   3.802   6.709 -0.8876  0.7528 -0.2550
  138OSM    C1315021   1.013   3.530   6.738  0.3782 -0.2730  0.5156
  138OSM   H13A15022   1.103   3.482   6.777  0.1742 -1.6576 -0.6283
  138OSM   H13B15023   0.957   3.467   6.671 -0.1935  0.0456  0.6876
  138OSM   H13C15024   0.943   3.554   6.816  0.9175 -1.6944  1.4876
  138OSM    C1215025   1.140   3.613   6.533 -0.1009 -0.2665  0.4948
  138OSM   H12A15026   1.207   3.533   6.559 -3.2780 -3.0313  0.8898
  138OSM   H12B15027   1.194   3.699   6.496  1.0156 -1.2248 -0.1564
  138OSM    C1115028   1.050   3.567   6.409 -0.3197  0.3054  0.1007
  138OSM   H11A15029   1.123   3.544   6.329  1.3147  1.1790  1.2955
  138OSM   H11B15030   1.005   3.665   6.384 -2.5948 -0.2040  1.7475
  138OSM      P15031   0.963   3.319   6.459  0.2964 -0.7626 -0.3120
  138OSM    O1315032   1.107   3.299   6.456 -0.5352 -0.0717  0.4287
  138OSM    O1415033   0.890   3.262   6.577 -0.4596  0.2534  0.0097
  138OSM    O1115034   0.883   3.263   6.328 -0.6567  0.6279 -0.1757
  138OSM    O1215035   0.938   3.477   6.446 -0.0237  0.5017  0.6879
  138OSM    C1S15036   0.858   3.355   6.222 -0.1848  0.5926 -0.2871
  138OSM    H1S15037   0.942   3.424   6.201 -0.3045  0.2072 -2.2076
  138OSM    H1T15038   0.764   3.414   6.226 -0.2550  0.4121  1.7598
  138OSM     NF15039   0.861   3.371   5.968  0.3007 -0.5720 -0.2374
  138OSM    HNF15040   0.778   3.412   5.933  0.4811  1.1471  1.2529
  138OSM    C2S15041   0.846   3.272   6.084  0.0839  0.5244  0.4402
  138OSM    H2S15042   0.939   3.213   6.095 -0.4881 -0.1756  1.7336
  138OSM    C3S15043   0.721   3.183   6.071 -0.1820  0.8203  0.4358
  138OSM    H3S15044   0.639   3.258   6.066 -0.4439  0.4661 -2.4209
  138OSM     O315045   0.689   3.096   6.179 -0.1448  0.3299 -0.6413
  138OSM    HO315046   0.764   3.108   6.238 -0.5108  0.7076 -0.2518
  138OSM    C4S15047   0.710   3.104   5.939  0.0065 -0.8023  0.0388
  138OSM    H4S15048   0.671   3.161   5.853  1.0820 -3.2659 -2.2319
  138OSM    C5S15049   0.764   2.980   5.921  0.4994  0.2674 -0.6643
  138OSM    H5S15050   0.823   2.945   6.006  0.0601  0.2026 -0.3821
  138OSM    C6S15051   0.775   2.902   5.794 -0.2589 -0.6848 -0.2682
  138OSM    H6S15052   0.721   2.807   5.815 -0.9774  0.2350  2.4452
  138OSM    H6T15053   0.883   2.884   5.775 -0.8336 -2.8283 -1.9106
  138OSM    C7S15054   0.723   2.956   5.659  0.1685  0.7989 -0.4523
  138OSM    H7S15055   0.796   3.037   5.639  1.5784 -0.4990 -0.7961
  138OSM    H7T15056   0.621   2.998   5.650  0.8087  2.5002 -0.0687
  138OSM    C8S15057   0.736   2.851   5.544  0.2541 -0.2068  0.3243
  138OSM    H8S15058   0.693   2.754   5.576  1.5953 -1.1348 -0.5972
  138OSM    H8T15059   0.845   2.834   5.533  0.4513  0.0111  1.7479
  138OSM    C9S15060   0.687   2.913   5.413  0.3547  0.1447  0.3263
  138OSM    H9S15061   0.720   3.019   5.420  3.9751 -0.8834  0.8528
  138OSM    H9T15062   0.576   2.923   5.415  0.4686  2.4211 -0.8807
  138OSM   C10S15063   0.734   2.839   5.292 -0.0212  0.4247 -0.1625
  138OSM   H10S15064   0.715   2.731   5.312  2.6605 -0.1359 -0.3349
  138OSM   H10T15065   0.842   2.850   5.272  0.0657 -1.6312 -1.0121
  138OSM   C11S15066   0.671   2.899   5.165  0.2213  0.9250  0.1351
  138OSM   H11S15067   0.712   3.001   5.152  1.4149  0.2508 -1.9304
  138OSM   H11T15068   0.562   2.897   5.188  0.2239  0.1104  0.1010
  138OSM   C12S15069   0.687   2.814   5.038 -0.1699 -0.1906 -0.7482
  138OSM   H12S15070   0.636   2.716   5.052 -3.3647  1.1071 -2.2719
  138OSM   H12T15071   0.792   2.782   5.016  0.4972  1.4299 -0.0061
  138OSM   C13S15072   0.608   2.866   4.921 -0.4376 -0.3442 -0.6527
  138OSM   H13S15073   0.681   2.932   4.870  0.5991  1.4906  2.8546
  138OSM   H13T15074   0.525   2.931   4.957  1.0235  0.6210  1.2180
  138OSM   C14S15075   0.551   2.759   4.830 -0.3224  0.0415 -0.3738
  138OSM   H14S15076   0.483   2.698   4.893 -0.3968  0.8804  0.3722
  138OSM   H14T15077   0.634   2.699   4.787  0.0677 -1.0938  1.8348
  138OSM   C15S15078   0.466   2.818   4.718  0.8881 -0.0278 -0.1492
  138OSM   H15S15079   0.495   2.919   4.684 -1.4357  0.6214 -0.3885
  138OSM   H15T15080   0.366   2.830   4.766  2.1641  2.1667  2.1698
  138OSM   C16S15081   0.463   2.726   4.595  0.4143  0.4613  0.3260
  138OSM   H16S15082   0.569   2.711   4.564  0.8959  1.4395  1.4363
  138OSM   H16T15083   0.410   2.769   4.508 -1.4047 -2.5401 -0.2019
  138OSM   C17S15084   0.398   2.582   4.623 -0.5063 -0.0407  0.1676
  138OSM   H17S15085   0.293   2.606   4.650 -0.6211  0.9463 -1.0464
  138OSM   H17T15086   0.459   2.546   4.708 -0.5226 -0.6464 -0.0734
  138OSM   C18S15087   0.412   2.489   4.499 -0.0839 -1.2648 -0.8145
  138OSM   H18S15088   0.397   2.548   4.407  0.6387 -0.4831 -0.4493
  138OSM   H18T15089   0.330   2.414   4.495  0.7558 -2.2386 -0.2696
  138OSM   H18U15090   0.510   2.437   4.486  0.2484 -1.2283  1.2268
  138OSM    C1F15091   0.979   3.425   5.931 -0.1094  0.0669 -0.6874
  138OSM     OF15092   1.083   3.402   5.994  0.3452  0.3153 -1.0917
  138OSM    C2F15093   0.980   3.523   5.821 -0.1828  0.2650 -0.0398
  138OSM    H2F15094   1.085   3.561   5.825  0.5979 -1.8397  1.5905
  138OSM    H2G15095   0.906   3.604   5.839  0.4867  0.7596  0.5507
  138OSM    C3F15096   0.966   3.455   5.684  0.0653 -0.4309  0.5545
  138OSM    H3F15097   0.908   3.362   5.699 -0.7790 -0.0182 -0.1112
  138OSM    H3G15098   1.067   3.430   5.645 -1.3926 -2.6410 -2.0848
  138OSM    C4F15099   0.888   3.540   5.573 -0.4748  0.0420 -0.5706
  138OSM    H4F15100   0.932   3.640   5.554  0.7028  0.0097  1.6539
  138OSM    H4G15101   0.795   3.559   5.630 -0.3294 -2.1250  0.4895
  138OSM    C5F15102   0.868   3.479   5.439  0.4306 -0.3522  0.2464
  138OSM    H5F15103   0.795   3.396   5.447  0.5279 -0.3508  1.2504
  138OSM    H5G15104   0.969   3.447   5.408  1.2584  1.0044  1.4340
  138OSM    C6F15105   0.820   3.564   5.328  0.6664  0.0809  0.4448
  138OSM    H6F15106   0.859   3.668   5.335  2.0621 -0.4232  0.4396
  138OSM    H6G15107   0.710   3.563   5.313  1.0469 -0.4274 -3.1742
  138OSM    C7F15108   0.854   3.512   5.188  0.1800  0.2957  0.4906
  138OSM    H7F15109   0.830   3.404   5.181  0.2635  0.3755 -1.8141
  138OSM    H7G15110   0.965   3.513   5.185  0.1877  0.1117  0.7330
  138OSM    C8F15111   0.780   3.593   5.073  0.0540 -0.0260 -0.1431
  138OSM    H8F15112   0.680   3.606   5.119 -0.3292  0.4776 -1.0957
  138OSM    H8G15113   0.764   3.538   4.978 -1.1006  1.7671 -1.0667
  138OSM    C9F15114   0.834   3.727   5.046 -0.1185  0.0426  0.4346
  138OSM    H9F15115   0.842   3.800   5.129 -0.2136 -0.2269  0.6816
  138OSM   C10F15116   0.882   3.767   4.921  0.7319 -0.5041  0.1934
  138OSM   H10F15117   0.920   3.868   4.902 -3.6780  1.4690  0.6468
  138OSM   C11F15118   0.902   3.685   4.799  0.4151 -0.0318  0.5765
  138OSM   H11F15119   0.891   3.732   4.700  1.9469  3.6869  1.9918
  138OSM   H11G15120   0.845   3.589   4.800  0.0497  0.1265 -1.3591
  138OSM   C12F15121   1.053   3.632   4.790  0.5559 -1.3205  0.5271
  138OSM   H12F15122   1.074   3.562   4.874  0.0309 -0.2010  1.6196
  138OSM   H12G15123   1.119   3.717   4.817 -0.0738 -0.4937 -0.5001
  138OSM   C13F15124   1.100   3.577   4.656 -0.4259  0.2061 -0.1315
  138OSM   H13F15125   1.063   3.650   4.580  2.6485  1.5759 -0.4363
  138OSM   H13G15126   1.059   3.475   4.643 -2.4513  1.0275 -0.6051
  138OSM   C14F15127   1.254   3.558   4.642  0.2669 -0.1229  0.8505
  138OSM   H14F15128   1.293   3.501   4.730  2.3938 -0.1183 -0.0399
  138OSM   H14G15129   1.307   3.655   4.632 -0.8684  0.3459 -1.0415
  138OSM   C15F15130   1.285   3.492   4.507 -0.5974 -0.0495  0.2967
  138OSM   H15F15131   1.389   3.507   4.470  0.0171 -1.5509  1.3394
  138OSM   H15G15132   1.221   3.542   4.430  0.5359  0.0599 -0.6015
  138OSM   C16F15133   1.262   3.343   4.518  0.4395 -0.2626  0.6494
  138OSM   H16F15134   1.157   3.321   4.546  0.5038  1.6278  2.5992
  138OSM   H16G15135   1.326   3.290   4.591 -0.2512 -1.1818  0.6148
  138OSM   C17F15136   1.282   3.279   4.384 -0.3294 -0.0614  0.0620
  138OSM   H17F15137   1.389   3.267   4.358  0.0694  0.9222  1.1822
  138OSM   H17G15138   1.250   3.349   4.304  1.0179  2.2768  1.4852
  138OSM   C18F15139   1.221   3.146   4.362  0.4083  0.7060  0.1581
  138OSM   H18F15140   1.113   3.156   4.389  0.2116 -0.6143 -0.0956
  138OSM   H18G15141   1.251   3.050   4.410  0.7779  0.7869  0.0925
  138OSM   H18H15142   1.223   3.131   4.252 -1.7190  0.7016  0.0676
  139OSM      N15143   0.003   1.214   6.569 -0.6695  0.4525  0.4668
  139OSM    C1515144   0.044   1.350   6.607  0.1314  0.2618 -0.2583
  139OSM   H15A15145  -0.025   1.385   6.681  1.3525 -1.2247  1.6765
  139OSM   H15B15146   0.037   1.430   6.534  1.1601  1.1114  0.5415
  139OSM   H15C15147   0.145   1.348   6.646  0.1102 -1.1155 -0.2477
  139OSM    C1415148  -0.004   1.132   6.693  0.6882 -0.8197 -0.0896
  139OSM   H14A15149   0.082   1.152   6.754  0.1927  2.7875 -0.3413
  139OSM   H14B15150  -0.018   1.029   6.663 -1.0345 -0.4528 -0.6515
  139OSM   H14C15151  -0.084   1.167   6.756 -0.6355 -0.1596 -2.0159
  139OSM    C1315152  -0.124   1.204   6.489  0.0630 -0.3544 -0.3132
  139OSM   H13A15153  -0.125   1.258   6.396  0.1447  0.8442  0.3581
  139OSM   H13B15154  -0.205   1.251   6.542 -2.4180 -2.5348 -1.8958
  139OSM   H13C15155  -0.155   1.101   6.477 -1.1168 -0.1482  0.7707
  139OSM    C1215156   0.112   1.163   6.469 -0.2000  0.1524 -0.4780
  139OSM   H12A15157   0.108   1.231   6.385 -2.4736  0.1164 -0.4666
  139OSM   H12B15158   0.083   1.068   6.427 -1.2013  1.7659 -3.7994
  139OSM    C1115159   0.253   1.145   6.519  0.6306  0.6324 -0.2491
  139OSM   H11A15160   0.291   1.219   6.592  1.3102  2.0115 -1.9310
  139OSM   H11B15161   0.330   1.148   6.438  1.0688  2.8657  0.1897
  139OSM      P15162   0.312   0.889   6.510 -0.1388 -0.0000 -0.4072
  139OSM    O1315163   0.353   0.779   6.600 -0.1198  0.8502 -0.3739
  139OSM    O1415164   0.206   0.867   6.403 -0.1241 -0.9891  0.2485
  139OSM    O1115165   0.439   0.948   6.438  0.2291 -0.3723 -0.3871
  139OSM    O1215166   0.258   1.019   6.586 -0.5323 -0.1142  0.4998
  139OSM    C1S15167   0.520   0.861   6.366 -0.0471 -0.2894  0.3635
  139OSM    H1S15168   0.472   0.761   6.352  2.3804 -1.4662 -0.1382
  139OSM    H1T15169   0.623   0.847   6.403  0.4749 -2.3763 -1.6034
  139OSM     NF15170   0.627   0.818   6.147  0.1500  0.2356  0.3083
  139OSM    HNF15171   0.713   0.850   6.108  1.5519 -0.6748  2.4948
  139OSM    C2S15172   0.546   0.915   6.219  0.2711 -0.3001  0.1035
  139OSM    H2S15173   0.450   0.922   6.164  2.0102 -1.4032 -3.3717
  139OSM    C3S15174   0.617   1.050   6.223  0.1716  0.2198  0.2194
  139OSM    H3S15175   0.718   1.027   6.262 -0.0692 -2.1458 -0.4057
  139OSM     O315176   0.558   1.139   6.317 -0.3922  0.1720 -0.6542
  139OSM    HO315177   0.479   1.092   6.345  1.0489 -0.5643  2.7221
  139OSM    C4S15178   0.642   1.121   6.093  0.4073  0.2608  0.1634
  139OSM    H4S15179   0.733   1.080   6.046  0.1609 -2.2051  1.6568
  139OSM    C5S15180   0.572   1.220   6.029  0.0124  0.2089  0.3278
  139OSM    H5S15181   0.481   1.267   6.069  0.5277  2.3939 -0.9156
  139OSM    C6S15182   0.626   1.279   5.900  0.9639 -0.2778 -0.9881
  139OSM    H6S15183   0.731   1.260   5.869  1.3062  3.9906 -3.2052
  139OSM    H6T15184   0.609   1.387   5.916  2.0291 -0.3627  0.8966
  139OSM    C7S15185   0.540   1.237   5.785 -0.0222  0.7970 -0.2331
  139OSM    H7S15186   0.437   1.277   5.794 -0.4942 -0.7368  2.7754
  139OSM    H7T15187   0.534   1.127   5.771 -1.1241  0.7365  0.5852
  139OSM    C8S15188   0.597   1.289   5.646 -0.1427 -0.1787 -0.3168
  139OSM    H8S15189   0.708   1.283   5.636 -0.1054 -0.9222  0.4447
  139OSM    H8T15190   0.576   1.398   5.659 -1.3539 -0.3372 -0.8739
  139OSM    C9S15191   0.513   1.239   5.522 -0.7230 -0.2038 -0.2049
  139OSM    H9S15192   0.413   1.268   5.559 -1.4733 -2.0626 -0.6483
  139OSM    H9T15193   0.495   1.131   5.503 -0.8538 -0.0127 -1.2163
  139OSM   C10S15194   0.548   1.317   5.389  0.4527 -0.4273 -0.0321
  139OSM   H10S15195   0.613   1.404   5.412  0.0896  0.4110 -1.9803
  139OSM   H10T15196   0.450   1.343   5.342 -0.1113 -1.4682  0.5319
  139OSM   C11S15197   0.612   1.220   5.287 -0.4397  1.3647  0.2073
  139OSM   H11S15198   0.712   1.188   5.323 -0.7417  0.5250  0.3130
  139OSM   H11T15199   0.623   1.282   5.195 -0.9360  2.1003  0.6282
  139OSM   C12S15200   0.527   1.102   5.236 -0.3963  0.4337 -0.1362
  139OSM   H12S15201   0.432   1.097   5.294 -0.2104 -0.4158  0.1083
  139OSM   H12T15202   0.584   1.007   5.247  0.6840  0.7894 -2.2241
  139OSM   C13S15203   0.486   1.115   5.095 -0.1736  0.2065  0.4671
  139OSM   H13S15204   0.569   1.143   5.027 -0.1303  2.7213  1.4126
  139OSM   H13T15205   0.423   1.206   5.086  0.0212  0.4652  1.5066
  139OSM   C14S15206   0.409   0.986   5.050 -0.3537  1.0392 -0.5315
  139OSM   H14S15207   0.337   0.956   5.128 -0.0707  0.1178 -0.6133
  139OSM   H14T15208   0.488   0.908   5.038  0.8803  2.2305 -0.4975
  139OSM   C15S15209   0.334   1.002   4.916 -0.2201 -0.2210  0.1256
  139OSM   H15S15210   0.266   1.088   4.934  1.8762  1.4407  0.5738
  139OSM   H15T15211   0.282   0.906   4.896  0.9028 -0.5066 -1.6136
  139OSM   C16S15212   0.422   1.035   4.794 -0.6797 -0.4003  0.9790
  139OSM   H16S15213   0.507   0.966   4.774  1.0059  2.0367 -0.8580
  139OSM   H16T15214   0.469   1.134   4.814  1.9718 -1.3513 -0.0758
  139OSM   C17S15215   0.328   1.053   4.670 -0.1594  0.3884  0.4103
  139OSM   H17S15216   0.236   1.103   4.708  0.2364  0.1701  1.7056
  139OSM   H17T15217   0.293   0.956   4.629  0.1178  1.0025 -1.3448
  139OSM   C18S15218   0.389   1.138   4.561  0.3402 -0.8463 -0.2387
  139OSM   H18S15219   0.499   1.124   4.559  1.0242  2.8990  2.0923
  139OSM   H18T15220   0.358   1.243   4.575  2.7785  0.0233 -0.8302
  139OSM   H18U15221   0.348   1.112   4.460  1.9871 -2.7032 -0.5000
  139OSM    C1F15222   0.583   0.692   6.118  0.1724  0.5565  0.0951
  139OSM     OF15223   0.467   0.656   6.136  0.3588  0.7038 -0.5085
  139OSM    C2F15224   0.693   0.590   6.065  0.0666  0.0224 -0.7352
  139OSM    H2F15225   0.751   0.567   6.157 -2.2017  2.6324  1.5359
  139OSM    H2G15226   0.755   0.653   5.998 -1.0629  2.4890  0.4192
  139OSM    C3F15227   0.643   0.461   6.000  0.6807 -0.4903  0.2725
  139OSM    H3F15228   0.569   0.494   5.924  3.0185  3.4364 -0.5641
  139OSM    H3G15229   0.588   0.405   6.079 -0.8253  0.1097 -0.3043
  139OSM    C4F15230   0.759   0.379   5.947 -0.2203  0.2016  0.0390
  139OSM    H4F15231   0.833   0.342   6.021 -0.0332  0.1762 -0.1600
  139OSM    H4G15232   0.816   0.441   5.874  0.0830  1.7426  1.5319
  139OSM    C5F15233   0.703   0.249   5.886 -0.0193 -0.3772 -0.3079
  139OSM    H5F15234   0.632   0.275   5.805  0.7794  0.6927 -0.6985
  139OSM    H5G15235   0.655   0.193   5.968  0.3279  0.5876  0.5722
  139OSM    C6F15236   0.813   0.159   5.824  0.1705 -0.9552  0.6802
  139OSM    H6F15237   0.796   0.050   5.812 -1.1921 -0.5461 -1.6952
  139OSM    H6G15238   0.909   0.182   5.876  1.3391 -0.5876 -1.5181
  139OSM    C7F15239   0.842   0.208   5.681  0.3141  0.3497  0.5020
  139OSM    H7F15240   0.943   0.176   5.645  1.0100  1.2894  1.5719
  139OSM    H7G15241   0.835   0.318   5.672 -0.8468  0.2927  0.4972
  139OSM    C8F15242   0.750   0.143   5.583 -0.4372  0.2876 -0.3538
  139OSM    H8F15243   0.650   0.189   5.599 -0.2989  0.3789  0.2670
  139OSM    H8G15244   0.751   0.035   5.610  1.1918  0.5796  0.8798
  139OSM    C9F15245   0.779   0.161   5.436  0.1949 -0.6206  0.4989
  139OSM    H9F15246   0.747   0.258   5.395 -0.2706 -0.6389  0.8139
  139OSM   C10F15247   0.803   0.060   5.352 -0.2910  0.0640  0.2893
  139OSM   H10F15248   0.807   0.083   5.245  0.4500 -1.7104 -0.0935
  139OSM   C11F15249   0.838  -0.089   5.377 -0.5060 -0.0077 -0.4039
  139OSM   H11F15250   0.742  -0.145   5.382 -1.4152  1.6113  2.7830
  139OSM   H11G15251   0.890  -0.095   5.475 -0.3990 -1.0514 -0.5107
  139OSM   C12F15252   0.938  -0.127   5.269 -0.0441  0.3121  0.0158
  139OSM   H12F15253   1.030  -0.066   5.263  0.9302 -1.1891 -1.1669
  139OSM   H12G15254   0.891  -0.140   5.169 -0.2412 -0.4451  0.2042
  139OSM   C13F15255   0.998  -0.270   5.296  0.4054  0.0896 -0.3598
  139OSM   H13F15256   0.910  -0.324   5.336 -1.7702  3.4953 -0.0794
  139OSM   H13G15257   1.056  -0.267   5.390  0.0305  0.9883 -0.1398
  139OSM   C14F15258   1.063  -0.352   5.189 -0.5614 -0.3560  0.4754
  139OSM   H14F15259   1.089  -0.449   5.236  0.1433  0.1446  1.1422
  139OSM   H14G15260   1.164  -0.315   5.162 -0.9921  1.3573  1.1148
  139OSM   C15F15261   0.976  -0.372   5.062 -0.2537  0.5159  0.0179
  139OSM   H15F15262   0.968  -0.273   5.012  1.2643 -0.1643 -1.7156
  139OSM   H15G15263   0.873  -0.406   5.081 -0.3432  0.0597 -1.1720
  139OSM   C16F15264   1.035  -0.479   4.960  0.0294 -0.5972 -0.6939
  139OSM   H16F15265   1.139  -0.449   4.932  0.0552 -1.6369 -1.8195
  139OSM   H16G15266   0.976  -0.480   4.865 -2.0138  1.2099  0.4609
  139OSM   C17F15267   1.029  -0.620   5.005 -0.3423 -0.3926 -0.2298
  139OSM   H17F15268   0.927  -0.640   5.043  0.1345 -1.4214  0.5632
  139OSM   H17G15269   1.092  -0.615   5.097 -0.7202  0.8854 -0.0275
  139OSM   C18F15270   1.079  -0.727   4.910 -0.4382  0.0079 -0.0208
  139OSM   H18F15271   1.030  -0.725   4.810  2.6069 -0.4827 -1.6214
  139OSM   H18G15272   1.053  -0.822   4.962 -0.1499 -1.3133 -2.1575
  139OSM   H18H15273   1.187  -0.716   4.887 -0.6489  2.1318 -0.2150
  140OSM      N15274   1.907   5.157   6.623 -0.7330 -0.0320 -0.3800
  140OSM    C1515275   1.826   5.032   6.652 -0.5615 -0.8561  0.3958
  140OSM   H15A15276   1.868   4.945   6.603  0.4577 -0.1595 -0.0195
  140OSM   H15B15277   1.731   5.045   6.602  0.5455  0.4144 -1.4996
  140OSM   H15C15278   1.814   5.016   6.758  1.3895 -1.1429  0.6141
  140OSM    C1415279   1.824   5.278   6.655 -0.1704 -0.3793  0.0285
  140OSM   H14A15280   1.730   5.266   6.605 -0.6153 -1.1735  1.0072
  140OSM   H14B15281   1.871   5.369   6.621 -1.2854 -0.0831 -0.7616
  140OSM   H14C15282   1.802   5.294   6.760 -3.3067 -1.3082 -0.4034
  140OSM    C1315283   2.029   5.160   6.716  0.5270  0.5035 -0.5170
  140OSM   H13A15284   2.091   5.078   6.681 -0.4774  0.4007 -2.1523
  140OSM   H13B15285   1.995   5.136   6.816  0.5189  1.0350 -0.3925
  140OSM   H13C15286   2.082   5.252   6.701  0.2553  0.8587  0.6503
  140OSM    C1215287   1.953   5.169   6.479  0.7184 -0.9158 -1.1926
  140OSM   H12A15288   2.001   5.264   6.464  0.2520 -0.5635 -0.4956
  140OSM   H12B15289   1.870   5.176   6.410 -0.5470  1.1012  0.4097
  140OSM    C1115290   2.071   5.077   6.428 -0.0135 -0.9531 -0.3920
  140OSM   H11A15291   2.160   5.107   6.486 -0.4251 -1.8721  0.7554
  140OSM   H11B15292   2.081   5.111   6.322 -2.4890 -1.3925 -0.8378
  140OSM      P15293   2.151   4.824   6.477  0.0887 -0.0119  0.1149
  140OSM    O1315294   2.167   4.815   6.625 -0.3148 -0.0443  0.2262
  140OSM    O1415295   2.106   4.703   6.402  0.2156  0.2656 -0.3463
  140OSM    O1115296   2.285   4.882   6.413  0.0897 -0.0497  0.2107
  140OSM    O1215297   2.045   4.936   6.442 -0.0921  0.3626  0.0625
  140OSM    C1S15298   2.314   4.859   6.273  0.5498  0.6848  1.2411
  140OSM    H1S15299   2.245   4.920   6.211  0.1870 -0.6787  0.2737
  140OSM    H1T15300   2.298   4.751   6.252  2.3845  0.5345  0.4828
  140OSM     NF15301   2.479   4.838   6.098  0.0268 -0.1939 -0.1807
  140OSM    HNF15302   2.495   4.740   6.097  2.9407  0.1583  1.1906
  140OSM    C2S15303   2.464   4.890   6.234  0.8132  0.0525 -0.4246
  140OSM    H2S15304   2.468   5.001   6.230  0.1732  0.0710 -0.6285
  140OSM    C3S15305   2.567   4.825   6.336  0.0834 -0.1597  0.0807
  140OSM    H3S15306   2.546   4.716   6.333 -1.2415  0.0235  1.4336
  140OSM     O315307   2.539   4.848   6.468 -0.0903 -0.1316  0.1876
  140OSM    HO315308   2.453   4.889   6.456  0.5029  1.2910  0.5598
  140OSM    C4S15309   2.708   4.858   6.295 -1.0190  0.0936 -0.0896
  140OSM    H4S15310   2.759   4.769   6.255  1.8671  0.9723  1.3556
  140OSM    C5S15311   2.773   4.979   6.300  0.1900 -0.2421  0.4136
  140OSM    H5S15312   2.721   5.069   6.337 -1.1686  0.5749 -3.1019
  140OSM    C6S15313   2.916   4.996   6.258  0.3885 -0.1957 -0.1165
  140OSM    H6S15314   2.960   5.059   6.337  0.6516 -0.1596 -0.2921
  140OSM    H6T15315   2.917   5.066   6.172 -0.6671  0.9142  0.7340
  140OSM    C7S15316   3.002   4.877   6.233 -0.2362  0.3793  0.2146
  140OSM    H7S15317   3.009   4.809   6.320  1.4475 -0.7340 -0.7349
  140OSM    H7T15318   3.105   4.912   6.212 -0.0205 -1.3474 -1.9460
  140OSM    C8S15319   2.974   4.794   6.104  0.3018  0.3575 -0.3045
  140OSM    H8S15320   2.883   4.733   6.125  0.3556  0.3819 -0.0003
  140OSM    H8T15321   3.053   4.717   6.090  0.4772  0.5704 -0.4900
  140OSM    C9S15322   2.958   4.882   5.984 -0.1058  0.6279  0.1717
  140OSM    H9S15323   3.039   4.958   5.983  2.2216 -1.7195  1.0309
  140OSM    H9T15324   2.863   4.939   5.991  0.2730  1.2065  0.7518
  140OSM   C10S15325   2.951   4.806   5.850 -0.0846 -0.4394  0.0149
  140OSM   H10S15326   2.947   4.878   5.766  0.2780  1.1924  1.3285
  140OSM   H10T15327   2.860   4.744   5.836 -0.8901  0.4430  1.1050
  140OSM   C11S15328   3.077   4.717   5.830 -0.2637 -0.2273 -0.1145
  140OSM   H11S15329   3.068   4.626   5.894  0.7187  0.3581  0.8897
  140OSM   H11T15330   3.167   4.776   5.857 -0.4815 -0.2457  0.6759
  140OSM   C12S15331   3.099   4.671   5.687 -1.0505  0.3657 -0.5016
  140OSM   H12S15332   3.200   4.626   5.672 -1.2995  0.4062 -2.4937
  140OSM   H12T15333   3.090   4.751   5.611 -2.0533  0.7424  0.0010
  140OSM   C13S15334   3.013   4.550   5.652 -0.6556 -0.9066  0.7997
  140OSM   H13S15335   2.904   4.572   5.661 -0.0959  1.7026  2.0587
  140OSM   H13T15336   3.052   4.470   5.718  1.3399 -0.1896  0.5390
  140OSM   C14S15337   3.040   4.516   5.505  0.7416  0.1114 -0.9425
  140OSM   H14S15338   3.139   4.545   5.464  2.4348 -0.4428  2.3803
  140OSM   H14T15339   2.982   4.576   5.432  0.7909  0.5225 -0.6437
  140OSM   C15S15340   3.007   4.363   5.460  0.2555  0.2846 -0.3005
  140OSM   H15S15341   3.059   4.292   5.528  3.7807  2.2528 -0.6910
  140OSM   H15T15342   3.026   4.356   5.351 -0.3416  1.1364 -0.4686
  140OSM   C16S15343   2.855   4.332   5.471 -0.0253  0.5821  0.3031
  140OSM   H16S15344   2.784   4.373   5.395 -1.1409 -0.2276  0.8803
  140OSM   H16T15345   2.819   4.364   5.571 -1.3173  0.0282  0.0414
  140OSM   C17S15346   2.827   4.178   5.476  0.8078 -1.0210  0.7002
  140OSM   H17S15347   2.893   4.135   5.554  2.8056  0.3432 -0.1427
  140OSM   H17T15348   2.855   4.144   5.374 -3.8474 -1.2831 -0.7465
  140OSM   C18S15349   2.682   4.146   5.507 -0.0534 -0.5821  1.1370
  140OSM   H18S15350   2.665   4.146   5.617  0.4712 -1.3036  1.2254
  140OSM   H18T15351   2.646   4.052   5.461 -1.4212  0.4451  0.0189
  140OSM   H18U15352   2.613   4.224   5.468  2.5412  1.4618  0.2814
  140OSM    C1F15353   2.432   4.898   5.991 -0.6030 -0.4376  0.0306
  140OSM     OF15354   2.401   5.022   5.991  0.2150  0.4319 -0.4604
  140OSM    C2F15355   2.449   4.823   5.863  0.4151 -0.3505  0.9896
  140OSM    H2F15356   2.358   4.762   5.845  0.3333  0.6393 -2.7991
  140OSM    H2G15357   2.538   4.758   5.873  0.0217 -0.6594  2.7580
  140OSM    C3F15358   2.455   4.917   5.740 -0.2663  0.4976  0.1709
  140OSM    H3F15359   2.528   5.000   5.753 -1.5954  2.0154 -1.3687
  140OSM    H3G15360   2.356   4.967   5.746 -0.9628 -0.4949 -1.9477
  140OSM    C4F15361   2.449   4.852   5.604  0.1127 -0.1680 -0.4058
  140OSM    H4F15362   2.424   4.938   5.538  0.2619 -0.1728 -0.4685
  140OSM    H4G15363   2.372   4.771   5.602 -1.4443  1.0841  2.7667
  140OSM    C5F15364   2.586   4.793   5.569  0.2353  0.2500  0.3007
  140OSM    H5F15365   2.577   4.693   5.618  0.2257 -0.0224 -0.2436
  140OSM    H5G15366   2.669   4.838   5.627 -0.4574  0.1907  1.3639
  140OSM    C6F15367   2.616   4.780   5.422  0.2104  0.0904 -0.2852
  140OSM    H6F15368   2.630   4.878   5.372 -0.2910 -0.7547 -2.1687
  140OSM    H6G15369   2.532   4.732   5.368  1.3293 -0.9549 -1.1482
  140OSM    C7F15370   2.733   4.693   5.392 -0.3640 -0.2771 -0.3096
  140OSM    H7F15371   2.730   4.609   5.465  0.0538  0.1555  0.2170
  140OSM    H7G15372   2.828   4.748   5.411  1.3575 -2.2145 -2.6218
  140OSM    C8F15373   2.742   4.640   5.249 -0.1623 -0.3867  0.0453
  140OSM    H8F15374   2.646   4.589   5.229 -0.6841  0.4310  0.4246
  140OSM    H8G15375   2.824   4.567   5.266 -0.4282 -0.0839  3.0650
  140OSM    C9F15376   2.775   4.750   5.150  0.0172 -0.7595  0.4403
  140OSM    H9F15377   2.735   4.851   5.169  1.1941 -0.4727  1.5342
  140OSM   C10F15378   2.842   4.729   5.036  0.2734 -0.1129 -0.1548
  140OSM   H10F15379   2.874   4.815   4.976 -1.1890  0.6015  0.0556
  140OSM   C11F15380   2.894   4.602   4.977 -0.3810 -0.3091 -0.3419
  140OSM   H11F15381   2.879   4.603   4.867  0.4618  2.8309 -0.5282
  140OSM   H11G15382   2.833   4.513   5.004 -0.5768 -0.9351 -2.6586
  140OSM   C12F15383   3.041   4.571   5.010 -0.3580 -0.5329 -0.1296
  140OSM   H12F15384   3.062   4.539   5.114  0.5798  0.9061  0.1474
  140OSM   H12G15385   3.102   4.661   4.988  1.7487 -2.2980 -1.9297
  140OSM   C13F15386   3.100   4.455   4.916 -0.0288 -0.1637  0.0024
  140OSM   H13F15387   3.208   4.464   4.894 -0.0620 -0.4450 -0.2799
  140OSM   H13G15388   3.035   4.453   4.826 -0.2524  2.2728  0.0381
  140OSM   C14F15389   3.065   4.312   4.976  0.1472 -0.3578  0.4205
  140OSM   H14F15390   2.964   4.316   5.022 -0.0488 -0.7022  0.0296
  140OSM   H14G15391   3.131   4.300   5.065  0.7495  1.9649  0.3583
  140OSM   C15F15392   3.079   4.198   4.875  0.9467 -0.0311  0.4325
  140OSM   H15F15393   3.044   4.109   4.931  3.7021 -1.5536 -0.1310
  140OSM   H15G15394   3.184   4.199   4.839  0.5462  1.1697 -0.8004
  140OSM   C16F15395   3.001   4.209   4.745  0.1453  1.3540  0.2217
  140OSM   H16F15396   3.047   4.282   4.675  0.8836  0.1277 -0.6178
  140OSM   H16G15397   2.902   4.252   4.769 -0.2349  0.9961 -0.6444
  140OSM   C17F15398   2.984   4.074   4.681 -0.0900  0.6419 -0.2655
  140OSM   H17F15399   2.948   3.995   4.751  2.1121 -0.4018 -0.1939
  140OSM   H17G15400   3.089   4.038   4.674 -1.0744 -2.6952  0.2370
  140OSM   C18F15401   2.914   4.064   4.541 -0.0598 -0.3164  0.1970
  140OSM   H18F15402   2.850   3.974   4.536  0.2619 -0.7516  2.7554
  140OSM   H18G15403   2.990   4.052   4.461 -1.9959 -0.2877 -1.7456
  140OSM   H18H15404   2.856   4.156   4.515  0.0028 -0.2683  0.2282
  141OSM      N15405   2.475   4.638   6.828  0.1827 -0.0925  0.4555
  141OSM    C1515406   2.528   4.749   6.923  1.0326 -0.6358 -0.5712
  141OSM   H15A15407   2.635   4.744   6.935  1.2215  0.7774 -1.4550
  141OSM   H15B15408   2.477   4.737   7.018  0.4473  0.6077 -0.7126
  141OSM   H15C15409   2.503   4.847   6.886  2.0720 -1.2998 -3.2191
  141OSM    C1415410   2.505   4.501   6.889 -0.3605  0.3076 -0.1739
  141OSM   H14A15411   2.457   4.489   6.985 -2.3918  2.1552 -0.8618
  141OSM   H14B15412   2.611   4.484   6.903 -0.2772  0.1382 -0.9529
  141OSM   H14C15413   2.479   4.419   6.824 -0.0612  0.3698 -0.3742
  141OSM    C1315414   2.328   4.644   6.802  0.6699  0.3884 -0.0455
  141OSM   H13A15415   2.279   4.729   6.756 -0.3363  0.4662  1.1154
  141OSM   H13B15416   2.277   4.636   6.898  0.9173  1.2106  0.1695
  141OSM   H13C15417   2.302   4.566   6.733 -1.5039  1.4079 -0.4955
  141OSM    C1215418   2.548   4.653   6.691 -0.2534 -0.2805  0.0581
  141OSM   H12A15419   2.525   4.749   6.648  0.3027  0.0340  0.4405
  141OSM   H12B15420   2.509   4.579   6.623 -2.8188 -0.0853  1.2095
  141OSM    C1115421   2.702   4.634   6.684  0.0094 -0.4276  0.2207
  141OSM   H11A15422   2.752   4.708   6.751 -0.8716  1.6851 -1.3414
  141OSM   H11B15423   2.732   4.667   6.583 -0.8192  0.4705  0.2523
  141OSM      P15424   2.755   4.394   6.602  0.0320  0.0970 -0.1564
  141OSM    O1315425   2.849   4.292   6.649 -0.0292  0.8149 -0.0627
  141OSM    O1415426   2.617   4.345   6.565 -0.5556 -0.0067  0.2253
  141OSM    O1115427   2.829   4.471   6.484  1.0036 -1.2434  0.0773
  141OSM    O1215428   2.745   4.502   6.720  0.0959  0.0487  0.6978
  141OSM    C1S15429   2.963   4.451   6.440  0.4809  0.8040  0.7676
  141OSM    H1S15430   3.021   4.410   6.525  1.6056  1.2670  0.2451
  141OSM    H1T15431   3.023   4.544   6.424  1.1865  0.3661  0.8339
  141OSM     NF15432   3.115   4.344   6.291  0.0176  1.0089 -0.0555
  141OSM    HNF15433   3.147   4.403   6.217 -0.6207  0.9982 -0.3461
  141OSM    C2S15434   2.978   4.363   6.320 -0.2765 -0.2630 -0.2760
  141OSM    H2S15435   2.931   4.266   6.350 -0.1940  0.3169  1.8624
  141OSM    C3S15436   2.904   4.429   6.197 -0.6643 -0.2157 -0.3052
  141OSM    H3S15437   2.964   4.519   6.174  0.3653 -0.5374  1.0218
  141OSM     O315438   2.766   4.461   6.224 -0.7707 -0.2731 -0.1964
  141OSM    HO315439   2.767   4.457   6.320 -0.7673 -0.4547 -0.2049
  141OSM    C4S15440   2.911   4.346   6.073 -0.5920 -0.5525 -0.1454
  141OSM    H4S15441   3.009   4.367   6.030 -0.7309 -0.0223 -0.2009
  141OSM    C5S15442   2.825   4.267   6.011  0.3473 -0.9018 -0.2796
  141OSM    H5S15443   2.735   4.240   6.068  0.8555 -1.1405  0.4255
  141OSM    C6S15444   2.837   4.191   5.886 -0.2648 -0.4630  0.1877
  141OSM    H6S15445   2.930   4.216   5.829 -1.4519 -0.0777 -1.6794
  141OSM    H6T15446   2.748   4.206   5.821 -1.0734 -1.9171  0.9109
  141OSM    C7S15447   2.849   4.040   5.905  0.4220  0.2442 -0.3603
  141OSM    H7S15448   2.834   3.984   5.810  0.1156 -3.0771  1.4987
  141OSM    H7T15449   2.781   4.013   5.989 -1.5884  4.7565 -0.2335
  141OSM    C8S15450   2.996   4.001   5.941 -0.1162  0.4689 -0.4003
  141OSM    H8S15451   3.031   4.052   6.033 -0.2851  0.8416 -0.5390
  141OSM    H8T15452   3.067   4.045   5.867  1.6968 -1.0733  0.3405
  141OSM    C9S15453   3.027   3.852   5.957  0.0066  0.1053  0.2984
  141OSM    H9S15454   2.954   3.785   5.907  1.2390  0.3453 -1.9680
  141OSM    H9T15455   3.018   3.845   6.068  2.1119 -0.3698  0.4852
  141OSM   C10S15456   3.166   3.809   5.928 -0.1408  0.0465  0.1083
  141OSM   H10S15457   3.175   3.704   5.963  1.1654  0.2621  0.4742
  141OSM   H10T15458   3.235   3.875   5.984 -0.3137  0.3954 -0.0872
  141OSM   C11S15459   3.209   3.799   5.775  0.2722 -0.2945  0.2590
  141OSM   H11S15460   3.316   3.770   5.765  1.3612  3.1838  0.4453
  141OSM   H11T15461   3.189   3.888   5.712 -0.0326 -0.7915 -0.3616
  141OSM   C12S15462   3.127   3.693   5.710 -0.4555 -0.0393  0.9666
  141OSM   H12S15463   3.021   3.718   5.732 -0.8866 -1.4586  0.5916
  141OSM   H12T15464   3.148   3.596   5.759  1.3867  0.2882  0.8919
  141OSM   C13S15465   3.142   3.701   5.554  0.4682 -0.1797  0.1625
  141OSM   H13S15466   3.101   3.605   5.514  1.2732  0.1453 -1.5302
  141OSM   H13T15467   3.243   3.712   5.511 -0.0922 -0.6863 -1.3535
  141OSM   C14S15468   3.050   3.818   5.498 -0.2622  0.7213 -0.6738
  141OSM   H14S15469   3.102   3.916   5.489 -1.6077  1.3550 -1.8333
  141OSM   H14T15470   2.958   3.834   5.558  0.7398  1.4504  0.7530
  141OSM   C15S15471   3.013   3.797   5.346  0.0511  0.3340  0.5886
  141OSM   H15S15472   3.102   3.746   5.304  0.2728  1.0004  0.2329
  141OSM   H15T15473   3.009   3.899   5.303  0.8388  0.0892 -0.0945
  141OSM   C16S15474   2.877   3.733   5.336 -0.4542 -0.4494  0.6801
  141OSM   H16S15475   2.803   3.797   5.389  0.3778  2.2082 -1.1531
  141OSM   H16T15476   2.884   3.633   5.383  1.3478 -0.6768 -0.0094
  141OSM   C17S15477   2.829   3.711   5.195  0.1332 -0.1169  0.2998
  141OSM   H17S15478   2.909   3.658   5.139  1.9016 -2.2076  4.3927
  141OSM   H17T15479   2.808   3.808   5.146  2.0529  0.0669 -0.2643
  141OSM   C18S15480   2.712   3.624   5.190  0.2901 -0.7790 -0.5118
  141OSM   H18S15481   2.627   3.664   5.249  0.9089 -1.9726  1.2793
  141OSM   H18T15482   2.729   3.527   5.241 -4.7827 -0.7469  1.8254
  141OSM   H18U15483   2.691   3.598   5.084  0.6948 -1.8003 -0.3494
  141OSM    C1F15484   3.205   4.270   6.359  0.3527  0.0480  0.1449
  141OSM     OF15485   3.166   4.190   6.448  0.5172 -0.0586  0.4945
  141OSM    C2F15486   3.345   4.275   6.304 -0.6780  0.0847  0.2729
  141OSM    H2F15487   3.378   4.381   6.309  0.3428 -0.1388 -1.0593
  141OSM    H2G15488   3.348   4.258   6.194 -0.7836  1.1828  0.0912
  141OSM    C3F15489   3.449   4.193   6.386  0.1541 -0.6094  0.1421
  141OSM    H3F15490   3.430   4.084   6.377  1.1473 -0.9035  1.3767
  141OSM    H3G15491   3.431   4.216   6.493  0.5458 -2.3138  0.6079
  141OSM    C4F15492   3.594   4.235   6.360 -0.8530  0.2710 -0.2432
  141OSM    H4F15493   3.663   4.187   6.433  0.3000  0.2701 -1.3042
  141OSM    H4G15494   3.599   4.344   6.380 -0.7912  0.0904  0.7648
  141OSM    C5F15495   3.652   4.197   6.224 -0.6210 -0.1646  0.2532
  141OSM    H5F15496   3.574   4.223   6.150 -0.2268 -1.1996 -0.5604
  141OSM    H5G15497   3.671   4.087   6.228  0.9095 -0.0309 -1.8025
  141OSM    C6F15498   3.784   4.270   6.191  0.4325  0.2710  0.1011
  141OSM    H6F15499   3.836   4.201   6.120  0.5342 -0.0830  0.5152
  141OSM    H6G15500   3.853   4.270   6.277 -0.8340 -1.0566  1.1694
  141OSM    C7F15501   3.760   4.415   6.133 -0.4561  0.4405 -0.0751
  141OSM    H7F15502   3.725   4.474   6.220  0.5723 -0.8964  1.2832
  141OSM    H7G15503   3.677   4.406   6.059  0.8610  0.5978 -1.6252
  141OSM    C8F15504   3.876   4.462   6.058 -0.4492 -0.0021 -0.4753
  141OSM    H8F15505   3.900   4.395   5.973 -1.1761  1.0519 -1.5323
  141OSM    H8G15506   3.961   4.469   6.130 -1.0101  1.1622  0.0876
  141OSM    C9F15507   3.856   4.603   6.013 -0.1594 -0.2251  0.1962
  141OSM    H9F15508   3.901   4.676   6.082  2.5632 -0.5608 -1.0605
  141OSM   C10F15509   3.798   4.656   5.911 -0.2121  0.2522  0.4233
  141OSM   H10F15510   3.811   4.764   5.893 -0.4957  0.5626  1.8994
  141OSM   C11F15511   3.726   4.578   5.802  0.4475  0.6906  0.4118
  141OSM   H11F15512   3.626   4.617   5.772 -0.0271 -0.8479 -0.0884
  141OSM   H11G15513   3.708   4.473   5.834 -2.0593  0.8856 -0.1428
  141OSM   C12F15514   3.823   4.571   5.685 -0.1811 -0.0011  0.7886
  141OSM   H12F15515   3.906   4.501   5.707 -1.4828 -1.1566  2.2894
  141OSM   H12G15516   3.872   4.668   5.664 -0.3213  0.7275  3.5136
  141OSM   C13F15517   3.754   4.515   5.557  0.2676  0.3024  1.1905
  141OSM   H13F15518   3.689   4.432   5.593 -0.5922  0.5548  0.2491
  141OSM   H13G15519   3.835   4.478   5.491 -0.1596  1.2721  0.0778
  141OSM   C14F15520   3.660   4.608   5.487  0.7883  0.4547  0.8460
  141OSM   H14F15521   3.722   4.699   5.471  2.7598 -0.8930  0.4653
  141OSM   H14G15522   3.574   4.624   5.555 -0.1025 -0.6559  0.0149
  141OSM   C15F15523   3.599   4.551   5.359  0.6215 -0.3509 -0.2847
  141OSM   H15F15524   3.679   4.511   5.292  1.0342 -0.5306  0.3012
  141OSM   H15G15525   3.563   4.646   5.315  0.6893  1.1914  2.6904
  141OSM   C16F15526   3.485   4.460   5.392  0.6553  0.2795  0.4186
  141OSM   H16F15527   3.407   4.515   5.449  1.4434  1.9856 -0.0864
  141OSM   H16G15528   3.521   4.382   5.462 -2.0145 -0.7616  0.7789
  141OSM   C17F15529   3.432   4.384   5.279  0.5868  0.1558  0.0545
  141OSM   H17F15530   3.395   4.452   5.199 -1.4283  0.2497  0.9991
  141OSM   H17G15531   3.334   4.347   5.317 -0.1540  2.5277  0.5822
  141OSM   C18F15532   3.535   4.276   5.226  0.3791 -0.2749 -0.1240
  141OSM   H18F15533   3.492   4.216   5.144  1.3532 -1.6019  0.2926
  141OSM   H18G15534   3.550   4.198   5.304  0.8857 -0.9746 -0.9030
  141OSM   H18H15535   3.633   4.322   5.200  0.5682  1.3896  3.0195
  142OSM      N15536   4.568   3.715   7.059 -0.0879 -0.2651 -0.2678
  142OSM    C1515537   4.662   3.796   6.967  0.0459  0.7120  0.1713
  142OSM   H15A15538   4.716   3.881   7.005 -3.1641  1.8781  2.5231
  142OSM   H15B15539   4.610   3.841   6.883  2.0668  3.0369  0.0317
  142OSM   H15C15540   4.726   3.726   6.914  0.0007  0.5225  0.3687
  142OSM    C1415541   4.550   3.583   6.993 -0.4870 -0.0249 -0.3474
  142OSM   H14A15542   4.498   3.510   7.053 -1.3634  1.8262  1.2519
  142OSM   H14B15543   4.650   3.551   6.968  1.8652  3.7183  3.1014
  142OSM   H14C15544   4.492   3.593   6.902 -0.9551 -3.7254 -0.6234
  142OSM    C1315545   4.637   3.694   7.192 -0.3867  0.5782  0.0421
  142OSM   H13A15546   4.654   3.790   7.237 -0.5536 -0.9135  3.6092
  142OSM   H13B15547   4.740   3.665   7.180 -1.6367 -3.9506 -2.0497
  142OSM   H13C15548   4.587   3.625   7.258  1.5560 -0.1483  0.8099
  142OSM    C1215549   4.437   3.788   7.072  0.2828  0.4963  0.5051
  142OSM   H12A15550   4.382   3.735   7.148 -2.0308  2.5854  0.4195
  142OSM   H12B15551   4.375   3.773   6.985 -0.1356  0.1813  0.8493
  142OSM    C1115552   4.437   3.933   7.120  0.1345 -0.4956  0.6720
  142OSM   H11A15553   4.516   3.938   7.198  2.3926 -0.2873 -1.4969
  142OSM   H11B15554   4.336   3.968   7.150  0.1385  0.4360 -0.3282
  142OSM      P15555   4.398   4.051   6.883 -0.3503  0.5248 -0.0173
  142OSM    O1315556   4.332   4.179   6.908  0.8316  0.4963 -0.3827
  142OSM    O1415557   4.482   4.032   6.759  0.3623 -0.2504 -0.6003
  142OSM    O1115558   4.288   3.938   6.883  0.3875  0.1719  0.5231
  142OSM    O1215559   4.479   4.017   7.018  0.3804 -0.7817  0.2876
  142OSM    C1S15560   4.187   3.947   6.782  0.3394  0.5722  0.1701
  142OSM    H1S15561   4.174   4.051   6.744  1.0542  0.9175  0.8420
  142OSM    H1T15562   4.085   3.915   6.814 -0.1479 -0.5193 -2.1905
  142OSM     NF15563   4.143   3.885   6.552 -0.2763  0.0967  0.5983
  142OSM    HNF15564   4.067   3.821   6.541 -0.2134  0.0602  0.3832
  142OSM    C2S15565   4.223   3.861   6.660 -0.3808 -0.1090  0.4475
  142OSM    H2S15566   4.324   3.886   6.621 -1.7709 -0.4957 -3.9613
  142OSM    C3S15567   4.228   3.709   6.698 -0.2704  0.0809  0.1823
  142OSM    H3S15568   4.127   3.687   6.740 -0.2046  1.1901  0.9678
  142OSM     O315569   4.309   3.676   6.808  0.3159  0.0798  0.4002
  142OSM    HO315570   4.325   3.761   6.849 -1.0854  0.5344  0.0478
  142OSM    C4S15571   4.271   3.614   6.589  0.0663  0.4857 -0.7718
  142OSM    H4S15572   4.187   3.558   6.544 -1.0870  0.9437  0.7586
  142OSM    C5S15573   4.397   3.590   6.554  0.2817 -0.6717 -0.3374
  142OSM    H5S15574   4.474   3.652   6.601 -0.2938 -0.4067  0.2675
  142OSM    C6S15575   4.438   3.499   6.435  0.1474 -0.1956 -0.3550
  142OSM    H6S15576   4.506   3.424   6.481  1.0668 -0.6285 -2.3161
  142OSM    H6T15577   4.489   3.554   6.353 -1.9565  1.9792 -0.3425
  142OSM    C7S15578   4.322   3.413   6.370 -0.4392  0.0777 -0.9082
  142OSM    H7S15579   4.238   3.482   6.343 -1.8376 -0.9689  0.6248
  142OSM    H7T15580   4.278   3.348   6.448  0.9174 -1.0690 -1.0605
  142OSM    C8S15581   4.370   3.335   6.249  0.6238 -0.3394  0.6515
  142OSM    H8S15582   4.459   3.278   6.282  1.0473 -0.7298 -1.0682
  142OSM    H8T15583   4.409   3.407   6.174  2.0190 -0.5283  1.1651
  142OSM    C9S15584   4.262   3.242   6.193 -0.4253 -0.1064 -0.6729
  142OSM    H9S15585   4.172   3.306   6.179 -0.6971 -0.2822  0.2326
  142OSM    H9T15586   4.233   3.164   6.267 -2.9347  1.8049  0.5011
  142OSM   C10S15587   4.319   3.172   6.071 -0.5970  0.1834  0.3918
  142OSM   H10S15588   4.283   3.067   6.078  3.4687 -1.2975  1.9598
  142OSM   H10T15589   4.430   3.166   6.073 -0.5948  0.2204  0.3864
  142OSM   C11S15590   4.281   3.233   5.932  0.4171 -0.0184  0.9240
  142OSM   H11S15591   4.306   3.341   5.947 -1.8688  0.7494 -0.2276
  142OSM   H11T15592   4.175   3.221   5.900  0.6911  2.6303 -1.4321
  142OSM   C12S15593   4.374   3.162   5.825  1.2272 -0.5029 -0.3838
  142OSM   H12S15594   4.340   3.056   5.827 -0.7884  0.1066  1.2163
  142OSM   H12T15595   4.483   3.172   5.844  0.8963 -0.2804  1.5530
  142OSM   C13S15596   4.347   3.227   5.689 -0.4821 -0.2988  0.1038
  142OSM   H13S15597   4.374   3.335   5.688  2.3470 -0.8188 -3.9897
  142OSM   H13T15598   4.237   3.215   5.677 -0.5455 -2.2645  1.9115
  142OSM   C14S15599   4.437   3.176   5.571  0.0922 -0.5346  0.1922
  142OSM   H14S15600   4.542   3.210   5.585  0.1323 -0.7683  0.4613
  142OSM   H14T15601   4.383   3.216   5.482  0.4318 -1.4543 -0.4318
  142OSM   C15S15602   4.438   3.019   5.560  0.7704 -0.4136  0.4553
  142OSM   H15S15603   4.337   2.978   5.538  0.0662  0.7412  1.3736
  142OSM   H15T15604   4.478   2.978   5.655  0.3304 -2.7185 -0.2988
  142OSM   C16S15605   4.542   2.977   5.449 -0.6479 -0.0032 -0.8737
  142OSM   H16S15606   4.583   2.877   5.473  0.6928  0.6752 -0.1803
  142OSM   H16T15607   4.638   3.032   5.456 -0.3642 -0.4845 -0.9744
  142OSM   C17S15608   4.492   2.981   5.310 -0.1737 -0.6767 -0.6066
  142OSM   H17S15609   4.471   3.088   5.289  0.8187 -0.1347  0.9786
  142OSM   H17T15610   4.397   2.924   5.316 -0.0325 -0.9774 -1.1506
  142OSM   C18S15611   4.588   2.934   5.202 -0.5207  0.4273  0.6971
  142OSM   H18S15612   4.537   2.940   5.103  0.7862 -1.9062 -0.2038
  142OSM   H18T15613   4.620   2.831   5.228  0.4962  0.6898  0.5343
  142OSM   H18U15614   4.683   2.990   5.196 -0.8435  0.9271  0.1276
  142OSM    C1F15615   4.137   4.006   6.493 -0.2594 -0.7638  0.4907
  142OSM     OF15616   4.219   4.099   6.521  0.2558  0.1492 -0.7224
  142OSM    C2F15617   4.019   4.036   6.397  0.7365  0.2758  0.0726
  142OSM    H2F15618   4.006   4.146   6.401 -0.4831  0.2048 -0.9917
  142OSM    H2G15619   3.924   3.983   6.419  0.5336  0.7519  0.3447
  142OSM    C3F15620   4.059   4.012   6.251 -0.3371  0.3278  0.0460
  142OSM    H3F15621   4.147   4.077   6.228 -0.3773 -0.0746 -1.3727
  142OSM    H3G15622   3.976   4.042   6.184 -2.2069 -0.7239  1.7932
  142OSM    C4F15623   4.100   3.862   6.218 -0.3002  0.0030 -0.3300
  142OSM    H4F15624   4.193   3.827   6.267  1.8670  4.6835 -0.5147
  142OSM    H4G15625   4.128   3.868   6.110 -2.3415  0.7897 -0.8692
  142OSM    C5F15626   3.986   3.759   6.232 -0.3329 -0.1789  0.1966
  142OSM    H5F15627   3.889   3.799   6.196 -0.4821  0.0970  0.8799
  142OSM    H5G15628   3.979   3.728   6.339  0.8317 -2.4167 -0.3078
  142OSM    C6F15629   4.019   3.631   6.156 -0.1062  0.7964  0.9432
  142OSM    H6F15630   4.096   3.580   6.217  0.2326 -0.3464 -0.3864
  142OSM    H6G15631   4.074   3.649   6.061  1.0044  0.8159  1.5821
  142OSM    C7F15632   3.902   3.540   6.128 -0.3054 -0.6039  0.0232
  142OSM    H7F15633   3.832   3.606   6.073 -0.1998 -0.3532  0.1869
  142OSM    H7G15634   3.841   3.527   6.220 -0.9958  0.3212 -0.2813
  142OSM    C8F15635   3.931   3.414   6.053  0.0548 -0.3493 -0.2228
  142OSM    H8F15636   3.989   3.342   6.115  0.9482  0.5126 -0.0416
  142OSM    H8G15637   3.988   3.424   5.958  2.3016 -1.0713  0.9588
  142OSM    C9F15638   3.796   3.362   6.023  0.4419  0.0051  0.2577
  142OSM    H9F15639   3.716   3.408   6.083  0.6345 -0.3765  0.8252
  142OSM   C10F15640   3.765   3.279   5.923 -0.3218 -0.1037  0.1783
  142OSM   H10F15641   3.659   3.250   5.917  0.2277 -3.1661  2.6771
  142OSM   C11F15642   3.868   3.192   5.852  0.8913 -0.2187  0.3372
  142OSM   H11F15643   3.829   3.089   5.837 -1.2902  0.7067 -0.8599
  142OSM   H11G15644   3.967   3.198   5.901  1.9561  0.3336 -1.7850
  142OSM   C12F15645   3.889   3.247   5.702  0.4874  0.2726  0.3456
  142OSM   H12F15646   3.966   3.184   5.652 -0.5097 -0.7105 -0.0126
  142OSM   H12G15647   3.928   3.351   5.701  1.3844 -0.0576  0.5617
  142OSM   C13F15648   3.763   3.251   5.614  0.4657 -0.2071  0.6557
  142OSM   H13F15649   3.698   3.320   5.671  1.8054  0.8875  0.9238
  142OSM   H13G15650   3.729   3.145   5.612 -1.1270  0.2102 -3.5008
  142OSM   C14F15651   3.783   3.297   5.472 -0.8626  0.0686 -0.1169
  142OSM   H14F15652   3.696   3.267   5.410 -1.5969  2.8365 -0.5454
  142OSM   H14G15653   3.870   3.245   5.427 -1.8430 -0.5715 -1.3238
  142OSM   C15F15654   3.794   3.447   5.461  0.4166  0.0378  0.1471
  142OSM   H15F15655   3.896   3.475   5.496  1.7167 -2.4958 -1.3110
  142OSM   H15G15656   3.713   3.502   5.513 -1.5745 -2.8326  0.3095
  142OSM   C16F15657   3.785   3.477   5.311 -0.2327 -0.3102 -0.2066
  142OSM   H16F15658   3.845   3.416   5.239  1.6869  1.7373 -0.4414
  142OSM   H16G15659   3.843   3.567   5.283  0.3490 -0.6687 -0.1824
  142OSM   C17F15660   3.641   3.489   5.245  0.9345  0.2260  0.7026
  142OSM   H17F15661   3.585   3.575   5.288 -0.5631  0.0196 -0.7467
  142OSM   H17G15662   3.573   3.407   5.274 -0.7110  1.2174 -0.2243
  142OSM   C18F15663   3.645   3.517   5.091 -0.5803  0.5115  0.4805
  142OSM   H18F15664   3.722   3.453   5.043 -0.6470  0.8235 -0.0476
  142OSM   H18G15665   3.668   3.625   5.078 -0.1987  0.2880 -0.8160
  142OSM   H18H15666   3.545   3.505   5.045 -1.0073  1.3029  1.1582
  143OSM      N15667   2.751   1.498   6.926 -0.1038 -0.1243 -0.1123
  143OSM    C1515668   2.659   1.600   6.984  0.1190  0.0120  0.0460
  143OSM   H15A15669   2.678   1.694   6.935  2.7159  0.3488  1.4860
  143OSM   H15B15670   2.692   1.616   7.086 -0.4426 -0.5114  0.3186
  143OSM   H15C15671   2.554   1.574   6.992  0.5560 -1.8686  0.3547
  143OSM    C1415672   2.897   1.539   6.940 -0.5997 -0.2013  0.0659
  143OSM   H14A15673   2.913   1.643   6.916  0.5297 -0.2345  0.6373
  143OSM   H14B15674   2.966   1.479   6.884  1.9766  0.4317  2.3602
  143OSM   H14C15675   2.934   1.529   7.041  1.2434 -2.2773 -0.7506
  143OSM    C1315676   2.735   1.368   6.995  0.2629  0.8025  1.1081
  143OSM   H13A15677   2.803   1.294   6.958 -0.0926  0.2376  1.5680
  143OSM   H13B15678   2.640   1.317   6.984 -0.4425  1.9163  1.7375
  143OSM   H13C15679   2.741   1.366   7.103 -0.6588 -0.1641  1.1566
  143OSM    C1215680   2.720   1.472   6.773 -0.9012 -0.4511 -0.6658
  143OSM   H12A15681   2.754   1.566   6.731  2.1861 -0.6946  0.9749
  143OSM   H12B15682   2.614   1.456   6.775 -1.4154  2.2037 -1.7012
  143OSM    C1115683   2.786   1.357   6.695 -0.8546  0.3293 -0.2504
  143OSM   H11A15684   2.742   1.352   6.594  1.3358 -2.2065 -1.2157
  143OSM   H11B15685   2.751   1.263   6.743 -1.2921  0.8406  0.4564
  143OSM      P15686   3.025   1.274   6.615 -0.4629 -0.2690 -0.1575
  143OSM    O1315687   3.165   1.312   6.646  0.3391  0.0346 -0.2056
  143OSM    O1415688   2.984   1.134   6.653  0.1202 -0.5445 -0.2737
  143OSM    O1115689   2.982   1.293   6.461 -0.2808 -0.5480  0.3116
  143OSM    O1215690   2.933   1.374   6.694 -0.2699  0.3936  0.3907
  143OSM    C1S15691   2.981   1.426   6.406  0.2165 -0.3022 -0.1399
  143OSM    H1S15692   3.082   1.468   6.424 -0.2615  2.3116 -2.8240
  143OSM    H1T15693   2.906   1.494   6.452  0.7903  0.4722 -0.3258
  143OSM     NF15694   3.003   1.546   6.196 -0.7264  0.2856 -0.0772
  143OSM    HNF15695   2.927   1.604   6.168 -1.8538  0.1467  2.4582
  143OSM    C2S15696   2.960   1.422   6.251 -0.0869  0.3846  0.1721
  143OSM    H2S15697   3.019   1.339   6.206 -0.8203  0.4057 -0.8457
  143OSM    C3S15698   2.812   1.378   6.230 -0.6178  0.3958 -0.1432
  143OSM    H3S15699   2.747   1.464   6.258 -0.8698  0.9404 -2.1940
  143OSM     O315700   2.777   1.257   6.297 -0.4412 -0.0733 -0.0653
  143OSM    HO315701   2.843   1.256   6.367 -1.4556  4.3146  1.2406
  143OSM    C4S15702   2.793   1.369   6.075 -0.2083 -0.3066 -0.4490
  143OSM    H4S15703   2.806   1.471   6.037  0.9262  0.1008  0.9611
  143OSM    C5S15704   2.795   1.255   5.992  0.1088  0.4204  0.2704
  143OSM    H5S15705   2.816   1.155   6.032 -1.5550 -0.5284 -1.1173
  143OSM    C6S15706   2.778   1.252   5.836  0.0076  0.3139  0.2456
  143OSM    H6S15707   2.714   1.168   5.800 -2.1475  1.8130  0.3984
  143OSM    H6T15708   2.875   1.232   5.786 -0.0584 -0.4802  0.4218
  143OSM    C7S15709   2.703   1.375   5.767  0.4129 -0.9108  0.6692
  143OSM    H7S15710   2.730   1.475   5.808 -4.4299  0.5902  0.8761
  143OSM    H7T15711   2.595   1.371   5.792 -0.0542  1.0139 -0.8291
  143OSM    C8S15712   2.728   1.370   5.617 -0.1236 -0.0795 -0.8314
  143OSM    H8S15713   2.673   1.280   5.584  2.0569 -0.9096 -2.4162
  143OSM    H8T15714   2.834   1.364   5.585 -0.6274 -0.1896 -2.5530
  143OSM    C9S15715   2.670   1.491   5.540 -0.4114  0.7222 -0.4758
  143OSM    H9S15716   2.755   1.562   5.541  0.6627 -0.5237  1.4331
  143OSM    H9T15717   2.602   1.542   5.612  1.6776  1.2562  1.2068
  143OSM   C10S15718   2.602   1.446   5.407  0.1562  0.3969 -0.3543
  143OSM   H10S15719   2.574   1.543   5.360  0.5698  0.5560 -0.2738
  143OSM   H10T15720   2.511   1.386   5.428  1.0013 -0.6015  0.5827
  143OSM   C11S15721   2.703   1.395   5.301  0.1264  0.1812 -0.3557
  143OSM   H11S15722   2.730   1.292   5.336 -0.2154  0.7330  1.6977
  143OSM   H11T15723   2.794   1.458   5.313 -0.6633  1.0733  1.3920
  143OSM   C12S15724   2.648   1.389   5.160 -0.0279  0.3341  0.3594
  143OSM   H12S15725   2.632   1.485   5.108 -1.2019 -1.3473 -2.6284
  143OSM   H12T15726   2.548   1.344   5.174 -0.5601  1.6842  1.0720
  143OSM   C13S15727   2.718   1.297   5.060 -0.0847 -0.0158  0.5041
  143OSM   H13S15728   2.669   1.309   4.961  1.2128 -1.6580 -0.3997
  143OSM   H13T15729   2.703   1.192   5.096 -0.0553 -0.3460 -0.4165
  143OSM   C14S15730   2.873   1.316   5.055 -0.0803 -0.0771  0.2803
  143OSM   H14S15731   2.915   1.307   5.158 -0.5117  1.5401  0.6252
  143OSM   H14T15732   2.876   1.421   5.020  0.4175 -0.5301 -1.0938
  143OSM   C15S15733   2.954   1.227   4.964 -0.3472 -0.0942  0.1944
  143OSM   H15S15734   2.948   1.125   5.006  1.7323 -0.2961  0.1226
  143OSM   H15T15735   3.063   1.247   4.978 -0.3678  0.3423 -0.2123
  143OSM   C16S15736   2.922   1.238   4.814  0.2379  0.4348  0.2622
  143OSM   H16S15737   2.932   1.347   4.793 -0.4384  0.2390 -1.2436
  143OSM   H16T15738   2.817   1.206   4.797  0.4604 -0.8127  1.0915
  143OSM   C17S15739   3.021   1.166   4.721 -0.1856  0.2673  0.0315
  143OSM   H17S15740   3.031   1.058   4.746  0.5550 -0.0533 -1.5167
  143OSM   H17T15741   3.119   1.216   4.738 -0.7764  1.4145  0.1413
  143OSM   C18S15742   3.008   1.187   4.568  0.5408 -0.3846  0.1602
  143OSM   H18S15743   3.104   1.181   4.512 -0.1734  0.3719 -1.2159
  143OSM   H18T15744   2.967   1.286   4.541  1.2950 -0.1685 -0.2301
  143OSM   H18U15745   2.939   1.114   4.519 -0.0082  0.6852 -0.7048
  143OSM    C1F15746   3.131   1.588   6.196  0.3629 -0.4968  0.2627
  143OSM     OF15747   3.221   1.529   6.251  0.4989  0.1933 -0.2417
  143OSM    C2F15748   3.150   1.714   6.125  0.0686 -1.5842 -0.2146
  143OSM    H2F15749   3.197   1.789   6.191 -0.9641 -0.6809 -0.4778
  143OSM    H2G15750   3.054   1.764   6.099  1.1654  1.4874  1.2350
  143OSM    C3F15751   3.235   1.691   6.008  1.0560  0.3462 -0.1215
  143OSM    H3F15752   3.330   1.640   6.033  1.0289 -0.4737 -1.5576
  143OSM    H3G15753   3.265   1.781   5.950  0.3272  1.0730  0.6167
  143OSM    C4F15754   3.157   1.597   5.908  0.1897  0.3944 -0.1810
  143OSM    H4F15755   3.055   1.638   5.891  0.3084  0.9900  0.4984
  143OSM    H4G15756   3.148   1.490   5.936 -3.7872  0.0869 -1.9679
  143OSM    C5F15757   3.226   1.593   5.770  0.9395 -0.3449  0.3946
  143OSM    H5F15758   3.321   1.536   5.763  2.3482  1.6544  1.9486
  143OSM    H5G15759   3.256   1.697   5.743  0.9391 -0.4962 -0.1965
  143OSM    C6F15760   3.135   1.544   5.654  0.5244 -0.0239  0.4355
  143OSM    H6F15761   3.047   1.612   5.654  0.1668 -0.3939 -1.8715
  143OSM    H6G15762   3.086   1.449   5.683 -1.4472  0.9371  0.4122
  143OSM    C7F15763   3.188   1.530   5.508 -0.3708 -0.9160 -0.0888
  143OSM    H7F15764   3.277   1.466   5.494  0.7622  0.3492  1.1119
  143OSM    H7G15765   3.231   1.626   5.474  2.5854 -1.5845  1.4582
  143OSM    C8F15766   3.075   1.477   5.419 -0.0658  0.7344  0.3523
  143OSM    H8F15767   3.085   1.511   5.313 -0.1923  0.4819  0.2588
  143OSM    H8G15768   2.973   1.515   5.441 -0.7739 -1.4443  1.1046
  143OSM    C9F15769   3.071   1.322   5.434 -0.2641 -0.1040 -0.0334
  143OSM    H9F15770   2.998   1.279   5.504  0.5927 -1.0010  0.3457
  143OSM   C10F15771   3.149   1.234   5.365  0.5204 -0.3252  0.2558
  143OSM   H10F15772   3.131   1.127   5.386 -0.0763  0.1049  2.1158
  143OSM   C11F15773   3.253   1.264   5.265 -0.2232  0.3816 -0.3125
  143OSM   H11F15774   3.278   1.373   5.262 -0.4344  0.5803  2.3991
  143OSM   H11G15775   3.213   1.241   5.164 -0.6114  1.2327 -0.3621
  143OSM   C12F15776   3.380   1.179   5.311  0.4667  0.2291  0.4418
  143OSM   H12F15777   3.344   1.074   5.320 -0.9349  0.5444 -1.0625
  143OSM   H12G15778   3.418   1.215   5.409  0.7714  1.1742 -0.0104
  143OSM   C13F15779   3.492   1.196   5.201  0.1564 -0.4225 -0.7942
  143OSM   H13F15780   3.569   1.118   5.220 -0.0154 -0.4760 -0.3119
  143OSM   H13G15781   3.537   1.296   5.217  0.1491 -0.6578  0.9479
  143OSM   C14F15782   3.448   1.179   5.055  0.4725  0.4507 -0.8509
  143OSM   H14F15783   3.364   1.244   5.023 -0.0902  0.1984  0.0653
  143OSM   H14G15784   3.403   1.079   5.040  2.3099 -0.4074 -1.0080
  143OSM   C15F15785   3.557   1.194   4.944 -0.1775 -0.3395 -0.2336
  143OSM   H15F15786   3.647   1.154   4.996 -1.9929 -2.3966  1.5276
  143OSM   H15G15787   3.572   1.303   4.927 -0.6357 -0.0545  1.0431
  143OSM   C16F15788   3.534   1.131   4.807 -1.0114 -0.2664  0.2123
  143OSM   H16F15789   3.527   1.020   4.818 -0.2885 -0.3404 -0.0440
  143OSM   H16G15790   3.633   1.138   4.758 -0.7030  0.9157  0.9672
  143OSM   C17F15791   3.418   1.187   4.726 -0.5387  0.4756 -0.1346
  143OSM   H17F15792   3.448   1.292   4.705  0.3211  0.3926  0.6014
  143OSM   H17G15793   3.319   1.186   4.775  0.0547 -0.9434  1.1269
  143OSM   C18F15794   3.396   1.099   4.601 -0.4911  0.2563  0.3995
  143OSM   H18F15795   3.343   1.154   4.520 -0.8820  2.1101  1.8423
  143OSM   H18G15796   3.349   1.002   4.626  0.7305  0.1617  2.5539
  143OSM   H18H15797   3.495   1.074   4.557 -0.6380 -0.0523  0.2435
  144OSM      N15798   4.314   0.510   6.708  0.3595 -0.0399 -0.4993
  144OSM    C1515799   4.211   0.487   6.816 -0.3074  0.7391 -0.6306
  144OSM   H15A15800   4.240   0.409   6.884 -1.0839  1.0747  0.1106
  144OSM   H15B15801   4.117   0.465   6.767 -1.2994  1.8180  0.6874
  144OSM   H15C15802   4.190   0.578   6.871 -3.2693  0.3039 -0.8514
  144OSM    C1415803   4.447   0.519   6.777 -0.4397  0.3741 -0.3825
  144OSM   H14A15804   4.462   0.435   6.844  0.6892 -0.0383 -1.1372
  144OSM   H14B15805   4.441   0.606   6.841  2.8508 -0.8791  1.8876
  144OSM   H14C15806   4.529   0.519   6.707 -1.8225 -0.5354 -2.0768
  144OSM    C1315807   4.322   0.387   6.627  0.1418  0.8470 -0.0326
  144OSM   H13A15808   4.372   0.404   6.533  1.2820 -0.8189  0.2295
  144OSM   H13B15809   4.223   0.347   6.612  1.7692 -3.0604 -1.6661
  144OSM   H13C15810   4.370   0.304   6.677  1.2182  0.4993 -1.5749
  144OSM    C1215811   4.288   0.635   6.628  0.2005  0.0589 -0.0533
  144OSM   H12A15812   4.199   0.606   6.573  1.3452 -2.6748 -0.6454
  144OSM   H12B15813   4.365   0.648   6.553 -0.1396 -1.4778 -0.7209
  144OSM    C1115814   4.264   0.770   6.696 -1.5067 -0.2927 -0.0694
  144OSM   H11A15815   4.182   0.766   6.771 -1.3213 -2.1300  0.0745
  144OSM   H11B15816   4.209   0.831   6.621 -2.1489 -0.6019  0.1451
  144OSM      P15817   4.484   0.893   6.654 -0.3081  0.1692 -0.1364
  144OSM    O1315818   4.570   0.992   6.721  0.7098 -0.2721  0.0783
  144OSM    O1415819   4.556   0.785   6.586 -0.6113 -0.4823 -0.6362
  144OSM    O1115820   4.398   0.974   6.541  0.0340 -0.0820 -0.2638
  144OSM    O1215821   4.378   0.831   6.758 -0.5532 -0.3197 -0.2631
  144OSM    C1S15822   4.458   1.015   6.413  0.4989  1.0568 -0.2060
  144OSM    H1S15823   4.562   1.051   6.427  0.0425  2.1834  0.4632
  144OSM    H1T15824   4.391   1.099   6.381  0.9261  2.1330  1.5823
  144OSM     NF15825   4.517   0.976   6.188  0.2127 -0.3813  0.5390
  144OSM    HNF15826   4.454   1.015   6.121  0.9777 -1.5452 -0.9336
  144OSM    C2S15827   4.447   0.912   6.299  0.8525  0.4210  0.1253
  144OSM    H2S15828   4.506   0.821   6.321 -1.0061 -0.7745  0.2845
  144OSM    C3S15829   4.308   0.865   6.273 -0.2966 -0.6942 -0.8726
  144OSM    H3S15830   4.249   0.956   6.248 -1.1711 -0.1003  2.8063
  144OSM     O315831   4.240   0.816   6.387  0.4085  0.0373 -0.1721
  144OSM    HO315832   4.285   0.869   6.454 -1.1765  2.7239 -1.0729
  144OSM    C4S15833   4.288   0.780   6.157  0.5351  0.2793  0.3058
  144OSM    H4S15834   4.247   0.833   6.071  0.4785 -2.2490 -1.3381
  144OSM    C5S15835   4.309   0.644   6.145  0.2879  0.1778 -0.3361
  144OSM    H5S15836   4.328   0.582   6.234 -0.7852 -1.2030 -1.0328
  144OSM    C6S15837   4.264   0.576   6.022  0.3846  0.3402 -0.3528
  144OSM    H6S15838   4.356   0.560   5.962  2.4077 -0.7792  2.7657
  144OSM    H6T15839   4.191   0.626   5.955  1.6101  1.4834 -0.8799
  144OSM    C7S15840   4.197   0.442   6.066  0.9251  0.5527  0.6448
  144OSM    H7S15841   4.105   0.466   6.122  1.2248 -0.8694  1.8031
  144OSM    H7T15842   4.263   0.379   6.130 -2.2891 -0.9584  2.6965
  144OSM    C8S15843   4.145   0.360   5.940  0.0655  0.1400  0.7462
  144OSM    H8S15844   4.065   0.422   5.895  2.6077  2.4822 -0.9065
  144OSM    H8T15845   4.097   0.266   5.975 -1.3272 -0.4015 -2.2902
  144OSM    C9S15846   4.252   0.323   5.841  0.0074 -0.2751  1.3851
  144OSM    H9S15847   4.344   0.291   5.894  0.7687  0.8995  0.8132
  144OSM    H9T15848   4.291   0.408   5.781  1.4227 -1.0720  1.1499
  144OSM   C10S15849   4.216   0.201   5.747 -0.0650  0.2384 -0.5671
  144OSM   H10S15850   4.189   0.121   5.819  2.9290  0.6154  1.1606
  144OSM   H10T15851   4.311   0.169   5.698  1.0355  0.3189  1.4225
  144OSM   C11S15852   4.109   0.237   5.649  0.5117 -0.5602  0.0169
  144OSM   H11S15853   4.146   0.320   5.585 -0.4807 -0.2015 -0.0988
  144OSM   H11T15854   4.019   0.265   5.707  0.7959 -0.5115  0.4418
  144OSM   C12S15855   4.064   0.123   5.556 -0.2065 -0.5674  0.1162
  144OSM   H12S15856   4.020   0.050   5.627 -1.5155 -0.4968 -0.6038
  144OSM   H12T15857   4.151   0.062   5.523 -1.0014 -1.1052 -1.0319
  144OSM   C13S15858   3.973   0.170   5.442 -0.1513 -0.1502 -0.0845
  144OSM   H13S15859   3.898   0.242   5.482  1.3017  0.9565  0.7302
  144OSM   H13T15860   3.911   0.080   5.419  0.7142 -1.6148  2.7872
  144OSM   C14S15861   4.052   0.229   5.321  0.2518  0.2835  0.5705
  144OSM   H14S15862   4.145   0.177   5.290  1.1797  1.4203  1.3660
  144OSM   H14T15863   4.108   0.319   5.356  0.9919  0.2269 -0.4183
  144OSM   C15S15864   3.956   0.266   5.198 -0.5132 -0.0515  0.0571
  144OSM   H15S15865   3.877   0.340   5.224 -0.9721 -0.2023 -0.8760
  144OSM   H15T15866   3.913   0.173   5.156 -2.0860  0.7454 -0.1378
  144OSM   C16S15867   4.043   0.327   5.093 -0.2587 -1.1589 -0.3964
  144OSM   H16S15868   4.119   0.249   5.070  1.6791 -0.7524  3.6851
  144OSM   H16T15869   4.099   0.415   5.132  0.5921 -1.9806  0.2742
  144OSM   C17S15870   3.955   0.372   4.973  0.2781 -0.2290  0.1832
  144OSM   H17S15871   3.882   0.445   5.014 -1.7270 -1.2285 -1.3835
  144OSM   H17T15872   3.901   0.292   4.918 -0.6652  0.8825 -0.5324
  144OSM   C18S15873   4.031   0.446   4.870 -0.0535  0.0084  0.3055
  144OSM   H18S15874   3.959   0.474   4.791  0.7532  2.1394  0.2460
  144OSM   H18T15875   4.115   0.380   4.840 -1.5224 -2.3038  0.9860
  144OSM   H18U15876   4.068   0.543   4.910  0.5550  0.5884 -1.5607
  144OSM    C1F15877   4.648   0.999   6.172 -0.4982 -0.3597  0.3396
  144OSM     OF15878   4.733   0.955   6.249  0.2047 -0.3055 -0.2679
  144OSM    C2F15879   4.690   1.102   6.065 -0.4699 -0.0497  0.2055
  144OSM    H2F15880   4.726   1.191   6.120  1.5347 -2.0511  2.3391
  144OSM    H2G15881   4.606   1.137   6.002 -0.2275 -0.3585 -0.3007
  144OSM    C3F15882   4.793   1.037   5.974 -0.2384  0.1299 -0.0610
  144OSM    H3F15883   4.891   1.027   6.025 -0.2897  0.1254  0.0362
  144OSM    H3G15884   4.825   1.106   5.893  3.1032  0.4495  1.3585
  144OSM    C4F15885   4.755   0.904   5.922 -0.3406 -0.1208  0.6282
  144OSM    H4F15886   4.659   0.866   5.963 -0.3789 -0.5569  0.1526
  144OSM    H4G15887   4.837   0.835   5.953 -1.7169 -0.8247  2.9474
  144OSM    C5F15888   4.739   0.901   5.769  0.7878 -0.2909  0.1404
  144OSM    H5F15889   4.745   0.792   5.746 -1.1088 -0.2738 -0.6103
  144OSM    H5G15890   4.823   0.950   5.718 -1.8361  3.1702 -1.2273
  144OSM    C6F15891   4.615   0.972   5.711 -0.8041 -0.2401 -0.4957
  144OSM    H6F15892   4.626   0.974   5.601 -0.4123 -1.5146 -0.5054
  144OSM    H6G15893   4.597   1.078   5.738 -1.1061 -0.5442  0.5718
  144OSM    C7F15894   4.485   0.894   5.746  0.5325 -0.0954 -0.1109
  144OSM    H7F15895   4.457   0.909   5.853  0.5159 -1.7395  0.1403
  144OSM    H7G15896   4.535   0.797   5.728  0.8342 -0.2648  1.4718
  144OSM    C8F15897   4.361   0.916   5.657 -0.3459 -0.1710  0.1626
  144OSM    H8F15898   4.396   0.886   5.555 -1.5098  0.5098 -0.4590
  144OSM    H8G15899   4.325   1.021   5.652 -0.8585 -0.3366  0.3184
  144OSM    C9F15900   4.249   0.828   5.698 -0.3199  0.1272  0.2590
  144OSM    H9F15901   4.200   0.844   5.795  0.5126 -1.1766  0.9359
  144OSM   C10F15902   4.213   0.716   5.633 -0.3647  0.5638  0.0689
  144OSM   H10F15903   4.135   0.652   5.676  1.3151 -1.6591 -0.0065
  144OSM   C11F15904   4.271   0.666   5.509  1.0063 -0.0598  0.3098
  144OSM   H11F15905   4.275   0.746   5.432  2.5748 -2.3638 -2.1914
  144OSM   H11G15906   4.196   0.601   5.460  1.7784 -1.1498  0.5261
  144OSM   C12F15907   4.403   0.596   5.502 -0.1892  0.5971  0.4256
  144OSM   H12F15908   4.426   0.540   5.596 -3.0297 -0.8182  0.3586
  144OSM   H12G15909   4.484   0.671   5.486 -1.2021  1.8028  0.8175
  144OSM   C13F15910   4.412   0.502   5.379 -0.0964  0.5370 -0.6630
  144OSM   H13F15911   4.344   0.415   5.391  1.7017 -0.6521  1.6003
  144OSM   H13G15912   4.517   0.470   5.361 -1.0275 -1.9996 -2.1468
  144OSM   C14F15913   4.353   0.555   5.244 -0.3115 -0.7507  0.1695
  144OSM   H14F15914   4.246   0.587   5.247 -0.1817  0.0395 -2.0151
  144OSM   H14G15915   4.347   0.462   5.184 -1.6408 -1.3738  1.1991
  144OSM   C15F15916   4.453   0.656   5.184  0.1144 -0.5843 -0.3446
  144OSM   H15F15917   4.556   0.621   5.204 -0.0006 -0.1222  1.2378
  144OSM   H15G15918   4.444   0.751   5.242 -0.3415 -1.0764  0.3984
  144OSM   C16F15919   4.428   0.695   5.038  0.8751  0.7516  0.3478
  144OSM   H16F15920   4.447   0.603   4.978 -1.3499  0.8969 -0.6740
  144OSM   H16G15921   4.499   0.778   5.018 -0.0823  1.9525  1.7564
  144OSM   C17F15922   4.286   0.745   5.005 -0.3168 -0.0807 -0.0332
  144OSM   H17F15923   4.215   0.667   5.042 -1.1453  2.2137  3.7330
  144OSM   H17G15924   4.293   0.756   4.895 -1.7001  1.2501 -0.0165
  144OSM   C18F15925   4.226   0.866   5.074  0.3892  0.5556 -0.4064
  144OSM   H18F15926   4.129   0.893   5.026  0.9373 -1.4655 -2.8615
  144OSM   H18G15927   4.286   0.960   5.067  0.7401  0.3635 -0.0399
  144OSM   H18H15928   4.214   0.859   5.184  0.5734  0.2440 -0.4036
  145OSM      N15929   3.578   2.442   7.128 -0.0319 -0.2692  0.5816
  145OSM    C1515930   3.711   2.462   7.189 -0.2586 -0.1861 -0.0810
  145OSM   H15A15931   3.784   2.388   7.157 -1.3125 -1.1692 -0.2806
  145OSM   H15B15932   3.699   2.468   7.296  0.9549  0.5727  0.0373
  145OSM   H15C15933   3.756   2.558   7.168 -0.5372  0.3789  1.7041
  145OSM    C1415934   3.542   2.301   7.142  0.7258  0.1676 -0.1956
  145OSM   H14A15935   3.624   2.253   7.090  3.0455  1.6844  1.8377
  145OSM   H14B15936   3.448   2.271   7.100  0.1124  0.9776  0.5597
  145OSM   H14C15937   3.533   2.270   7.245  2.1527 -2.6070 -0.8016
  145OSM    C1315938   3.474   2.532   7.196  0.4463  0.4720 -0.2129
  145OSM   H13A15939   3.493   2.534   7.303 -1.6845 -0.1656  0.2107
  145OSM   H13B15940   3.375   2.493   7.180  0.9116 -0.8003 -0.0734
  145OSM   H13C15941   3.483   2.635   7.165 -0.9438  1.0710  1.2291
  145OSM    C1215942   3.584   2.477   6.977  0.1271  0.7062 -0.5096
  145OSM   H12A15943   3.489   2.442   6.939  2.0942 -3.8865 -1.8873
  145OSM   H12B15944   3.655   2.416   6.923 -0.6442 -1.8453  1.1572
  145OSM    C1115945   3.601   2.623   6.934 -0.8032  0.9104 -0.0146
  145OSM   H11A15946   3.636   2.626   6.828 -0.0400 -1.7311  0.0933
  145OSM   H11B15947   3.684   2.674   6.988 -0.6148  0.9360 -0.3239
  145OSM      P15948   3.365   2.707   6.846  0.5148 -0.2115 -0.4185
  145OSM    O1315949   3.279   2.589   6.840  0.1979  0.4276 -0.2572
  145OSM    O1415950   3.292   2.831   6.871 -0.1717 -0.4868 -0.0876
  145OSM    O1115951   3.439   2.718   6.710  0.1325 -0.0225  0.0006
  145OSM    O1215952   3.484   2.697   6.949 -0.2784  0.2166  0.6483
  145OSM    C1S15953   3.367   2.765   6.593  0.8476 -0.0762 -0.0489
  145OSM    H1S15954   3.352   2.874   6.606 -3.5789 -0.5856  0.8052
  145OSM    H1T15955   3.264   2.723   6.598 -0.0374  1.9920 -0.0052
  145OSM     NF15956   3.382   2.800   6.348  0.4154  0.2181 -0.3123
  145OSM    HNF15957   3.315   2.753   6.292 -1.2580  0.2354  1.5589
  145OSM    C2S15958   3.434   2.720   6.458 -0.3502 -0.6656 -0.0117
  145OSM    H2S15959   3.541   2.746   6.466 -0.4232 -0.6044  0.9382
  145OSM    C3S15960   3.421   2.567   6.446  0.4767  0.5139  0.2219
  145OSM    H3S15961   3.312   2.549   6.436  0.3245 -0.5662  2.9149
  145OSM     O315962   3.465   2.497   6.563  0.2589  0.1869 -0.5238
  145OSM    HO315963   3.438   2.561   6.630  1.3325  1.2522 -1.0841
  145OSM    C4S15964   3.493   2.513   6.325 -0.1140  0.8481  0.4404
  145OSM    H4S15965   3.417   2.480   6.253 -0.1296  1.0622  0.3608
  145OSM    C5S15966   3.620   2.486   6.303  0.2648  0.2977  0.5079
  145OSM    H5S15967   3.689   2.494   6.388 -0.1975 -1.3157  1.0646
  145OSM    C6S15968   3.662   2.415   6.175 -0.1921 -0.4664  0.0812
  145OSM    H6S15969   3.694   2.492   6.101  0.3291 -0.9556 -0.2025
  145OSM    H6T15970   3.581   2.353   6.130 -1.5906  1.0432  0.4261
  145OSM    C7S15971   3.781   2.329   6.213  0.0462  0.1691  0.9135
  145OSM    H7S15972   3.749   2.260   6.294 -1.9608  0.7578  0.6710
  145OSM    H7T15973   3.859   2.394   6.258  0.4296  1.2431 -1.1627
  145OSM    C8S15974   3.828   2.252   6.092  0.0054 -0.6085  0.8250
  145OSM    H8S15975   3.751   2.204   6.029 -1.0769 -0.0600  1.7105
  145OSM    H8T15976   3.888   2.166   6.129  0.0395 -1.0310 -0.1791
  145OSM    C9S15977   3.906   2.354   6.003  0.4309 -0.2308 -0.7323
  145OSM    H9S15978   3.992   2.405   6.051  0.3233 -2.3926  1.9770
  145OSM    H9T15979   3.847   2.439   5.964  2.4923  2.3852  1.4871
  145OSM   C10S15980   3.982   2.294   5.890  0.5123  0.0823  0.2565
  145OSM   H10S15981   3.918   2.214   5.845 -0.2862  0.5921  0.4747
  145OSM   H10T15982   4.063   2.236   5.939  0.5352 -0.4466 -0.3747
  145OSM   C11S15983   4.023   2.390   5.780  0.9987  0.8560  0.2050
  145OSM   H11S15984   4.096   2.341   5.712 -1.4106 -0.9110 -1.2714
  145OSM   H11T15985   4.068   2.479   5.828  1.5975  2.4790 -3.0698
  145OSM   C12S15986   3.915   2.444   5.685  0.3270  0.3558 -1.0413
  145OSM   H12S15987   3.859   2.530   5.728  0.7996  2.1554 -3.7887
  145OSM   H12T15988   3.854   2.352   5.676  2.7621 -1.3627 -0.9079
  145OSM   C13S15989   3.979   2.483   5.553 -0.2265 -0.4020  0.5987
  145OSM   H13S15990   4.031   2.397   5.506  0.0418  0.0872 -0.0161
  145OSM   H13T15991   4.063   2.550   5.580 -0.9894  1.5297 -1.4731
  145OSM   C14S15992   3.876   2.539   5.447 -0.0879  0.0169  0.2169
  145OSM   H14S15993   3.845   2.637   5.489 -2.9803 -0.1310 -1.3237
  145OSM   H14T15994   3.787   2.474   5.453 -0.3798  0.1685 -1.7807
  145OSM   C15S15995   3.939   2.552   5.306 -0.5618 -0.3674  0.2861
  145OSM   H15S15996   3.980   2.455   5.269  1.6975  1.5612 -2.8213
  145OSM   H15T15997   4.027   2.620   5.316 -0.8793  0.2917 -1.1425
  145OSM   C16S15998   3.840   2.607   5.196  0.2932  1.2242 -0.6416
  145OSM   H16S15999   3.796   2.702   5.234 -1.4561  1.5211 -3.1670
  145OSM   H16T16000   3.761   2.532   5.175  0.2620  0.6059  1.4691
  145OSM   C17S16001   3.915   2.633   5.062 -0.4564 -0.5386 -0.5389
  145OSM   H17S16002   3.972   2.542   5.033 -0.8609 -1.1049  0.3883
  145OSM   H17T16003   3.989   2.715   5.076 -1.0539 -0.0769 -0.0170
  145OSM   C18S16004   3.824   2.672   4.951  1.0633 -0.8256 -0.1474
  145OSM   H18S16005   3.861   2.661   4.847  1.2756  2.1599 -0.4957
  145OSM   H18T16006   3.805   2.781   4.962  1.8012 -0.6963 -0.1177
  145OSM   H18U16007   3.721   2.629   4.952  0.6004  0.2217 -0.6515
  145OSM    C1F16008   3.403   2.932   6.326  0.4764  0.2689  0.0105
  145OSM     OF16009   3.488   2.990   6.389  0.0431  0.0209 -0.2723
  145OSM    C2F16010   3.311   2.999   6.223  0.1472 -0.0401 -0.0250
  145OSM    H2F16011   3.248   3.075   6.274 -1.4044 -1.4877  0.2816
  145OSM    H2G16012   3.253   2.934   6.154 -2.9567  1.6330  0.8445
  145OSM    C3F16013   3.407   3.085   6.131 -0.2711 -0.2272  1.0088
  145OSM    H3F16014   3.453   3.159   6.200  0.4549 -1.2978  1.7044
  145OSM    H3G16015   3.350   3.145   6.057  1.4720  1.3057  0.8504
  145OSM    C4F16016   3.528   3.017   6.062  0.8400  0.6839  0.3602
  145OSM    H4F16017   3.594   2.978   6.142 -1.7434 -1.2355  1.7156
  145OSM    H4G16018   3.579   3.097   6.003  0.3471  0.4572 -0.3839
  145OSM    C5F16019   3.481   2.899   5.976 -0.2949 -0.6749  0.6477
  145OSM    H5F16020   3.380   2.926   5.939 -1.2062 -3.2724  0.9835
  145OSM    H5G16021   3.463   2.799   6.022 -1.8164 -0.5472  0.3772
  145OSM    C6F16022   3.562   2.900   5.846 -0.1828  0.4685  0.1566
  145OSM    H6F16023   3.667   2.879   5.874  0.0410  1.7124  0.3393
  145OSM    H6G16024   3.556   3.002   5.802  0.6786  0.6464  0.4224
  145OSM    C7F16025   3.520   2.787   5.737  0.1381 -0.2424  0.8029
  145OSM    H7F16026   3.412   2.800   5.712  0.5596  0.3267 -0.8423
  145OSM    H7G16027   3.526   2.683   5.774 -2.9724 -0.9931 -0.4535
  145OSM    C8F16028   3.600   2.807   5.606 -0.1118  0.0623 -0.1416
  145OSM    H8F16029   3.701   2.776   5.639 -0.1108 -0.4588 -0.6248
  145OSM    H8G16030   3.596   2.917   5.590  1.2177  0.0458 -0.6821
  145OSM    C9F16031   3.565   2.719   5.490 -0.9067  0.2916 -0.3647
  145OSM    H9F16032   3.587   2.612   5.504 -0.2875  0.4647  0.0185
  145OSM   C10F16033   3.528   2.755   5.369 -0.7800 -0.3706  0.2716
  145OSM   H10F16034   3.509   2.673   5.299 -1.5082 -0.0591  0.0949
  145OSM   C11F16035   3.487   2.894   5.322  0.4398 -0.0484  0.4007
  145OSM   H11F16036   3.488   2.976   5.396 -2.0205  1.3260 -0.9701
  145OSM   H11G16037   3.390   2.882   5.270  0.6621 -2.0169  0.3393
  145OSM   C12F16038   3.590   2.941   5.218 -0.9651  0.4223 -0.0466
  145OSM   H12F16039   3.626   2.855   5.158 -0.9580  0.0038  0.5434
  145OSM   H12G16040   3.665   2.981   5.290 -0.5267  0.9048 -0.7592
  145OSM   C13F16041   3.548   3.051   5.128 -0.6837  0.4314 -0.1788
  145OSM   H13F16042   3.568   3.147   5.181  0.1237  0.2547 -0.1585
  145OSM   H13G16043   3.439   3.057   5.105 -0.1753  2.9801 -2.4450
  145OSM   C14F16044   3.614   3.049   4.992 -0.3058 -0.3678  0.4536
  145OSM   H14F16045   3.582   2.961   4.932  2.7740 -1.5028  0.2928
  145OSM   H14G16046   3.718   3.031   5.025 -0.4772  1.4216  2.1287
  145OSM   C15F16047   3.608   3.173   4.907 -0.0140 -1.2582 -1.0911
  145OSM   H15F16048   3.621   3.266   4.966 -1.7972  1.1967 -4.2406
  145OSM   H15G16049   3.502   3.187   4.878 -0.8722 -1.9364  1.4797
  145OSM   C16F16050   3.702   3.156   4.789 -0.1844 -0.2925  0.4264
  145OSM   H16F16051   3.694   3.242   4.718 -2.1567 -1.4855 -0.9002
  145OSM   H16G16052   3.657   3.077   4.725  2.2660 -0.7196 -0.9090
  145OSM   C17F16053   3.852   3.125   4.812  0.2893  0.1126 -0.3882
  145OSM   H17F16054   3.865   3.038   4.880 -0.3499 -0.3830 -0.8856
  145OSM   H17G16055   3.909   3.214   4.844 -2.7004  1.6020  1.2551
  145OSM   C18F16056   3.916   3.073   4.678 -0.4277 -0.2100 -0.6366
  145OSM   H18F16057   3.860   2.982   4.650 -2.1107  0.8584 -0.8732
  145OSM   H18G16058   4.025   3.051   4.673 -0.6343 -1.0663 -1.8773
  145OSM   H18H16059   3.891   3.149   4.600  0.0862  0.4182 -0.1994
  146OSM      N16060   2.986   3.343   6.705 -1.4006 -0.0556  0.4698
  146OSM    C1516061   3.079   3.240   6.760 -0.0271 -0.4981  0.2912
  146OSM   H15A16062   3.174   3.280   6.795 -0.0931 -0.1624  0.0968
  146OSM   H15B16063   3.106   3.160   6.694  0.0738 -1.7903  1.8398
  146OSM   H15C16064   3.039   3.190   6.847  1.8294  0.5879  1.8559
  146OSM    C1416065   2.856   3.278   6.679 -0.4080 -0.4832  0.5591
  146OSM   H14A16066   2.794   3.346   6.621  0.6223 -0.4270 -0.5240
  146OSM   H14B16067   2.807   3.250   6.771  1.1471 -1.6058  1.0807
  146OSM   H14C16068   2.884   3.192   6.621 -0.7309 -0.1517 -0.1009
  146OSM    C1316069   2.974   3.448   6.813 -0.2528 -0.1583 -1.0486
  146OSM   H13A16070   2.913   3.533   6.784 -1.3940 -0.6995 -0.2968
  146OSM   H13B16071   3.071   3.481   6.847 -0.4956  0.0370 -0.5211
  146OSM   H13C16072   2.914   3.414   6.897  3.4656  0.9400  2.3879
  146OSM    C1216073   3.042   3.398   6.567  0.2917 -0.3821 -0.0010
  146OSM   H12A16074   3.135   3.449   6.583 -1.1272  3.3107 -2.3450
  146OSM   H12B16075   2.971   3.471   6.532  0.1337 -1.0235 -1.0713
  146OSM    C1116076   3.073   3.287   6.457  0.1381 -0.0301  0.5360
  146OSM   H11A16077   3.164   3.229   6.480  1.1617  1.2646 -0.1185
  146OSM   H11B16078   3.109   3.337   6.365  0.0634  0.6766  0.8822
  146OSM      P16079   2.833   3.235   6.349 -0.2090 -0.2259  0.4250
  146OSM    O1316080   2.741   3.124   6.365 -0.0330  0.1833 -0.5892
  146OSM    O1416081   2.785   3.375   6.377  0.7195  0.4301 -0.0442
  146OSM    O1116082   2.881   3.221   6.197 -0.3932  0.1581  0.7637
  146OSM    O1216083   2.967   3.202   6.428  0.0434 -0.6892 -0.3779
  146OSM    C1S16084   2.865   3.099   6.131 -0.5641 -0.0095  1.1335
  146OSM    H1S16085   2.763   3.054   6.129 -1.4871  1.9732  1.1745
  146OSM    H1T16086   2.936   3.024   6.170  0.1282 -0.4549 -0.8936
  146OSM     NF16087   2.874   2.993   5.902  0.4786 -0.9145 -0.1829
  146OSM    HNF16088   2.959   2.945   5.885  1.6924  0.8626  0.5882
  146OSM    C2S16089   2.904   3.114   5.980  0.3953 -0.5707  0.0918
  146OSM    H2S16090   2.842   3.200   5.946 -0.9283 -1.7829 -0.6487
  146OSM    C3S16091   3.051   3.170   5.973  0.0148 -0.0406  0.4270
  146OSM    H3S16092   3.119   3.102   6.028  1.1753 -0.0788 -0.9989
  146OSM     O316093   3.079   3.297   6.039 -0.5329  0.1433 -0.0937
  146OSM    HO316094   2.999   3.303   6.092 -1.2154  0.5679 -1.1609
  146OSM    C4S16095   3.097   3.186   5.831 -0.7729  0.0419 -0.9605
  146OSM    H4S16096   3.053   3.257   5.759  0.8060 -0.4884 -2.5015
  146OSM    C5S16097   3.201   3.126   5.778 -0.1408 -0.9001 -0.2984
  146OSM    H5S16098   3.242   3.038   5.830  1.1059  0.5600  1.3237
  146OSM    C6S16099   3.250   3.151   5.636 -0.0359 -0.1036  0.1620
  146OSM    H6S16100   3.170   3.130   5.561  1.4288  0.5142 -1.6422
  146OSM    H6T16101   3.334   3.082   5.616 -0.3941 -0.2443 -0.8968
  146OSM    C7S16102   3.297   3.295   5.620 -0.2305 -0.1813 -0.0883
  146OSM    H7S16103   3.371   3.321   5.699  0.2823  0.4572 -0.7595
  146OSM    H7T16104   3.218   3.370   5.640  2.2373  1.9670  2.4903
  146OSM    C8S16105   3.347   3.328   5.473 -0.4872  0.4727 -0.0812
  146OSM    H8S16106   3.438   3.273   5.441 -0.5380 -1.1965  2.3444
  146OSM    H8T16107   3.376   3.435   5.488  1.1434 -0.1268  1.4215
  146OSM    C9S16108   3.250   3.304   5.359 -0.0704  0.8628 -0.0478
  146OSM    H9S16109   3.145   3.306   5.395 -0.2281 -1.7818 -0.1936
  146OSM    H9T16110   3.270   3.200   5.328 -0.3931 -0.2685  3.1603
  146OSM   C10S16111   3.262   3.402   5.248 -0.4609 -0.7318 -0.7229
  146OSM   H10S16112   3.363   3.411   5.201 -0.2595  0.3977 -0.0991
  146OSM   H10T16113   3.241   3.505   5.285  0.0160 -1.8001  2.9405
  146OSM   C11S16114   3.171   3.364   5.134  0.0700 -0.1030 -0.1942
  146OSM   H11S16115   3.075   3.407   5.171  1.3671  1.2777  1.7486
  146OSM   H11T16116   3.179   3.257   5.107  1.0309 -0.6237  1.9566
  146OSM   C12S16117   3.198   3.457   5.017 -0.1409  0.3027 -0.0895
  146OSM   H12S16118   3.240   3.555   5.048  1.2766 -0.3384  0.1123
  146OSM   H12T16119   3.100   3.473   4.966 -0.6257 -0.7180  0.5015
  146OSM   C13S16120   3.303   3.393   4.919  0.9222 -0.4888 -0.0413
  146OSM   H13S16121   3.254   3.310   4.864  0.4250 -1.3551  1.6337
  146OSM   H13T16122   3.386   3.344   4.973  2.1179  1.5671  0.0581
  146OSM   C14S16123   3.361   3.499   4.824  0.2277 -0.8866 -0.2818
  146OSM   H14S16124   3.398   3.586   4.882  1.0825 -0.8203 -0.9180
  146OSM   H14T16125   3.283   3.529   4.750 -0.7835  2.4671  1.8756
  146OSM   C15S16126   3.474   3.442   4.740  0.5040 -0.1136  0.4214
  146OSM   H15S16127   3.462   3.333   4.723  0.7197 -0.1030  0.1910
  146OSM   H15T16128   3.556   3.456   4.814  3.0184 -1.6171 -1.9129
  146OSM   C16S16129   3.504   3.511   4.604  0.2211  0.6098 -0.3108
  146OSM   H16S16130   3.461   3.613   4.605 -0.4140  0.3486 -0.4276
  146OSM   H16T16131   3.455   3.441   4.533  0.5386  0.2763 -0.2047
  146OSM   C17S16132   3.655   3.506   4.569  0.2078 -0.6520  0.6271
  146OSM   H17S16133   3.684   3.399   4.573  0.4559 -0.6459 -0.5858
  146OSM   H17T16134   3.716   3.564   4.641  2.7766  0.1312 -2.0404
  146OSM   C18S16135   3.687   3.560   4.425  0.5365 -0.7480  0.0826
  146OSM   H18S16136   3.797   3.569   4.425  0.4984  1.5201  3.6256
  146OSM   H18T16137   3.645   3.662   4.408  1.1738 -0.4957  0.0131
  146OSM   H18U16138   3.643   3.498   4.343  1.1974  1.0370 -1.7072
  146OSM    C1F16139   2.751   2.966   5.860  0.6093 -0.1015  0.0302
  146OSM     OF16140   2.651   3.031   5.894 -0.0598  0.6585  0.3603
  146OSM    C2F16141   2.731   2.851   5.762 -0.2440  0.3766  0.2395
  146OSM    H2F16142   2.730   2.753   5.815 -0.7645  0.4151  0.3098
  146OSM    H2G16143   2.811   2.848   5.686  0.0365  0.6619  0.5182
  146OSM    C3F16144   2.597   2.874   5.685 -0.1125  0.2172 -0.3170
  146OSM    H3F16145   2.602   2.976   5.640  0.3553  0.4680  0.2835
  146OSM    H3G16146   2.508   2.875   5.751  0.3875  0.7294  0.3672
  146OSM    C4F16147   2.571   2.764   5.579  0.4932  0.2326  0.1248
  146OSM    H4F16148   2.534   2.672   5.630 -2.6786  0.3994 -1.6284
  146OSM    H4G16149   2.666   2.753   5.521 -0.4557  0.7971 -1.6056
  146OSM    C5F16150   2.457   2.796   5.483  0.0670 -0.4788  0.2978
  146OSM    H5F16151   2.367   2.830   5.539  0.6625  1.9214 -0.1126
  146OSM    H5G16152   2.432   2.704   5.426 -3.5801  0.2731  0.4092
  146OSM    C6F16153   2.498   2.902   5.382 -0.3414  0.2239 -0.0233
  146OSM    H6F16154   2.585   2.876   5.318 -1.2555  2.5057 -2.3749
  146OSM    H6G16155   2.527   2.986   5.449 -1.1755 -0.0403  0.6930
  146OSM    C7F16156   2.394   2.946   5.278  0.2405  0.0255 -0.1706
  146OSM    H7F16157   2.438   3.036   5.230  1.4225 -0.4574 -0.0409
  146OSM    H7G16158   2.303   2.979   5.332  0.2983 -0.1230  0.0187
  146OSM    C8F16159   2.358   2.851   5.171 -0.6833 -0.0324  0.4640
  146OSM    H8F16160   2.294   2.903   5.097  0.1120  0.8526  0.3827
  146OSM    H8G16161   2.295   2.769   5.211 -1.1971  0.8988  1.6321
  146OSM    C9F16162   2.484   2.800   5.102 -0.5449  0.1625  0.6071
  146OSM    H9F16163   2.525   2.709   5.148  1.9250  0.4864 -0.7435
  146OSM   C10F16164   2.560   2.865   5.007 -0.2975 -0.2498 -0.3399
  146OSM   H10F16165   2.646   2.813   4.964  0.2880  0.7755 -0.4354
  146OSM   C11F16166   2.519   2.997   4.944 -0.3450 -0.4623  0.9430
  146OSM   H11F16167   2.431   3.045   4.992 -0.7506  0.6611 -0.8321
  146OSM   H11G16168   2.491   2.975   4.839  2.0807 -0.3716  0.2030
  146OSM   C12F16169   2.636   3.100   4.949 -0.0279 -0.6389  0.1941
  146OSM   H12F16170   2.728   3.060   4.902 -0.9988 -1.3779 -1.1315
  146OSM   H12G16171   2.643   3.127   5.057 -0.3359 -0.7717  0.2491
  146OSM   C13F16172   2.588   3.229   4.879  0.5956  0.2285 -0.3092
  146OSM   H13F16173   2.510   3.270   4.946  1.2567 -0.0425  0.6532
  146OSM   H13G16174   2.548   3.198   4.780 -0.7344  0.8564  0.0135
  146OSM   C14F16175   2.700   3.337   4.871 -0.7725 -0.2574  0.0135
  146OSM   H14F16176   2.762   3.329   4.963  1.5245  0.1325 -1.4021
  146OSM   H14G16177   2.768   3.295   4.793 -0.0738  1.7615 -0.5147
  146OSM   C15F16178   2.654   3.473   4.850 -0.5478 -0.2559 -0.3786
  146OSM   H15F16179   2.606   3.495   4.948  0.9664  0.1276  0.3027
  146OSM   H15G16180   2.579   3.484   4.768 -1.4823 -0.5172  0.4195
  146OSM   C16F16181   2.761   3.586   4.833 -0.1590  0.4217  0.0263
  146OSM   H16F16182   2.837   3.577   4.913  3.1777 -0.4459 -2.9647
  146OSM   H16G16183   2.699   3.678   4.836 -0.1556  0.4565 -0.6605
  146OSM   C17F16184   2.821   3.578   4.698  0.0472  0.1066  1.0171
  146OSM   H17F16185   2.745   3.576   4.617  0.1031 -2.3807  0.9622
  146OSM   H17G16186   2.872   3.482   4.675 -0.2655  0.3152 -0.7004
  146OSM   C18F16187   2.908   3.701   4.685  0.3193  0.7308 -0.9232
  146OSM   H18F16188   2.998   3.680   4.747 -0.5330 -1.6558 -0.4090
  146OSM   H18G16189   2.868   3.794   4.729  2.8255  0.3749  2.5556
  146OSM   H18H16190   2.942   3.712   4.579  2.3473 -0.2115 -0.4159
  147OSM      N16191   4.926   5.354   1.890 -0.3530  0.4608 -0.3008
  147OSM    C1516192   4.888   5.504   1.889  0.6369  0.1167 -0.4345
  147OSM   H15A16193   4.919   5.567   1.971 -0.1472  0.5715 -0.4857
  147OSM   H15B16194   4.781   5.501   1.903  0.4841  0.8122 -1.3366
  147OSM   H15C16195   4.917   5.546   1.793 -0.9136  1.7309 -0.2413
  147OSM    C1416196   4.870   5.283   1.768 -0.8221 -0.2342  0.3549
  147OSM   H14A16197   4.871   5.177   1.790  0.7354 -0.2667  0.2481
  147OSM   H14B16198   4.932   5.298   1.682  1.6376  0.4388  2.1302
  147OSM   H14C16199   4.766   5.308   1.755 -0.7364  0.6371  1.2039
  147OSM    C1316200   5.072   5.353   1.900 -0.4553 -0.6119  0.3955
  147OSM   H13A16201   5.111   5.409   1.984  0.7671 -0.9118  0.0444
  147OSM   H13B16202   5.111   5.403   1.812  0.9354 -0.7685  0.8941
  147OSM   H13C16203   5.109   5.252   1.914 -0.5985 -0.9614 -1.5319
  147OSM    C1216204   4.872   5.289   2.010 -0.0660 -0.4256 -0.3158
  147OSM   H12A16205   4.892   5.349   2.097  0.6122  0.1599 -0.8606
  147OSM   H12B16206   4.933   5.201   2.018  1.0812  0.3569 -0.3154
  147OSM    C1116207   4.716   5.254   2.016  0.4817  0.1451  0.0009
  147OSM   H11A16208   4.710   5.199   2.112 -1.9443 -2.0684 -1.2966
  147OSM   H11B16209   4.678   5.187   1.936 -1.8357 -0.5981  1.6358
  147OSM      P16210   4.519   5.384   2.114 -0.1052  0.1444  0.3271
  147OSM    O1316211   4.432   5.493   2.076  0.0668 -0.0302  0.6144
  147OSM    O1416212   4.452   5.250   2.121  0.4992 -0.4891 -0.1902
  147OSM    O1116213   4.598   5.417   2.250  0.0565  0.0516  0.6627
  147OSM    O1216214   4.639   5.376   2.015  0.3286  0.1706 -0.1284
  147OSM    C1S16215   4.530   5.370   2.371  0.4184  0.1180  0.6783
  147OSM    H1S16216   4.506   5.261   2.381  1.3909 -0.1006  0.6683
  147OSM    H1T16217   4.435   5.424   2.392  0.3315 -0.4087  1.7147
  147OSM     NF16218   4.570   5.328   2.615 -0.2968  0.5213  0.3566
  147OSM    HNF16219   4.502   5.375   2.671  0.5288 -1.6878  3.4782
  147OSM    C2S16220   4.622   5.391   2.501  0.0441 -0.3193  0.5013
  147OSM    H2S16221   4.719   5.348   2.468 -0.4221 -0.8295 -0.2307
  147OSM    C3S16222   4.664   5.548   2.512  0.6286  0.2993  0.3383
  147OSM    H3S16223   4.564   5.595   2.526 -1.0157 -2.6375 -0.5058
  147OSM     O316224   4.732   5.598   2.401 -0.0778  0.5263 -0.2190
  147OSM    HO316225   4.702   5.536   2.334 -0.9764 -1.4811  1.8802
  147OSM    C4S16226   4.738   5.566   2.636 -0.2329 -0.7071 -0.1131
  147OSM    H4S16227   4.685   5.635   2.704 -1.0727 -1.1995 -0.2448
  147OSM    C5S16228   4.857   5.514   2.679  0.5923  0.9868  0.2843
  147OSM    H5S16229   4.901   5.433   2.619  1.8561  0.8884  1.2945
  147OSM    C6S16230   4.906   5.537   2.822 -0.0284 -0.0790 -0.2509
  147OSM    H6S16231   5.007   5.495   2.841  0.1244  0.5085  0.2534
  147OSM    H6T16232   4.835   5.491   2.895  0.7474  0.2924  0.7638
  147OSM    C7S16233   4.915   5.683   2.868  0.0465 -0.7307  0.1989
  147OSM    H7S16234   4.809   5.714   2.863 -0.1117 -1.4129 -0.9428
  147OSM    H7T16235   4.977   5.736   2.793  0.8359  0.8755  1.8856
  147OSM    C8S16236   4.984   5.716   3.001  0.4875 -0.0586 -0.6596
  147OSM    H8S16237   5.093   5.697   2.992  0.4130 -1.4517  0.8586
  147OSM    H8T16238   4.936   5.642   3.069  3.8892  0.2769  2.3836
  147OSM    C9S16239   4.945   5.852   3.066  0.2222 -0.5741  0.4032
  147OSM    H9S16240   4.835   5.866   3.062  0.2290 -0.7198 -2.3386
  147OSM    H9T16241   4.980   5.938   3.004  2.6786  0.3285  2.8180
  147OSM   C10S16242   4.998   5.867   3.209  0.6200  0.6330  0.5280
  147OSM   H10S16243   4.963   5.779   3.267 -1.7330  1.6064  0.7150
  147OSM   H10T16244   4.949   5.949   3.265 -1.2620 -1.7539  2.6350
  147OSM   C11S16245   5.147   5.886   3.215  0.3248 -0.0510 -0.5193
  147OSM   H11S16246   5.180   5.972   3.153  1.4934  0.7830  1.1959
  147OSM   H11T16247   5.192   5.789   3.182 -1.2771 -0.9275 -0.2455
  147OSM   C12S16248   5.195   5.915   3.359  0.4271  0.0549  0.0721
  147OSM   H12S16249   5.165   6.019   3.384  0.5333  0.2731 -0.6715
  147OSM   H12T16250   5.305   5.926   3.347  0.1242  2.7070 -0.9847
  147OSM   C13S16251   5.144   5.814   3.471 -0.2096  0.0512 -0.0282
  147OSM   H13S16252   5.163   5.709   3.440  0.1199  0.2620 -0.5645
  147OSM   H13T16253   5.034   5.831   3.471 -0.0534  1.3658 -1.3883
  147OSM   C14S16254   5.204   5.837   3.610 -0.7427  0.3472 -0.1692
  147OSM   H14S16255   5.312   5.859   3.599 -0.8707  1.1056  0.0600
  147OSM   H14T16256   5.183   5.746   3.672  0.0119  0.7606  0.7205
  147OSM   C15S16257   5.139   5.953   3.686  0.0941 -0.3466 -0.1256
  147OSM   H15S16258   5.028   5.949   3.679 -0.2042  2.2086  1.6713
  147OSM   H15T16259   5.163   6.050   3.639 -0.8300 -0.6515 -1.3010
  147OSM   C16S16260   5.186   5.943   3.830  0.0714  0.0244  0.1422
  147OSM   H16S16261   5.297   5.940   3.838  0.1654  2.2419  0.2251
  147OSM   H16T16262   5.147   5.850   3.877  0.4081  0.3314  1.0685
  147OSM   C17S16263   5.120   6.048   3.920  0.1643 -0.4015 -0.3196
  147OSM   H17S16264   5.014   6.014   3.917  0.0549 -0.0237 -2.5600
  147OSM   H17T16265   5.138   6.155   3.896  0.8154  0.2250  2.5390
  147OSM   C18S16266   5.174   6.041   4.067 -0.6117 -0.2002  0.2051
  147OSM   H18S16267   5.165   5.937   4.106 -0.0696 -0.1491  0.4840
  147OSM   H18T16268   5.110   6.115   4.119  0.1271  2.0737 -1.9560
  147OSM   H18U16269   5.276   6.085   4.059 -1.2562  0.9616 -2.7505
  147OSM    C1F16270   4.599   5.195   2.626  0.1736 -0.5346  0.1023
  147OSM     OF16271   4.692   5.155   2.560 -0.2127  0.7365  0.6189
  147OSM    C2F16272   4.533   5.109   2.724  0.2336 -0.3246 -0.0051
  147OSM    H2F16273   4.531   5.002   2.697  1.3455 -0.5096  0.6142
  147OSM    H2G16274   4.426   5.135   2.741  1.0091  2.1294  1.8091
  147OSM    C3F16275   4.613   5.120   2.854 -0.7402  0.1764  0.4041
  147OSM    H3F16276   4.632   5.228   2.871  0.8399 -0.1141  0.6972
  147OSM    H3G16277   4.714   5.079   2.830 -0.8260  2.1957 -4.6263
  147OSM    C4F16278   4.557   5.060   2.979 -0.0507 -0.1440 -0.3270
  147OSM    H4F16279   4.569   4.950   2.976  1.0698 -0.0988  1.3930
  147OSM    H4G16280   4.451   5.086   2.996  0.2427  0.2438  1.0427
  147OSM    C5F16281   4.628   5.113   3.104  0.1219  0.5983  0.6244
  147OSM    H5F16282   4.647   5.222   3.098  0.0973  0.6704  1.6725
  147OSM    H5G16283   4.723   5.057   3.121 -0.1700 -0.1980 -0.2253
  147OSM    C6F16284   4.538   5.087   3.229 -0.0874  0.3541  0.0524
  147OSM    H6F16285   4.485   4.989   3.228 -3.9003  2.2531 -0.2194
  147OSM    H6G16286   4.457   5.163   3.227  1.0984  1.7513  1.9657
  147OSM    C7F16287   4.622   5.108   3.356  0.1846 -0.2557 -0.0729
  147OSM    H7F16288   4.676   5.205   3.354  0.4924 -0.4245 -2.7467
  147OSM    H7G16289   4.706   5.036   3.366 -0.7880 -1.0984  3.5982
  147OSM    C8F16290   4.539   5.091   3.487 -0.0351  0.4702 -0.2537
  147OSM    H8F16291   4.467   5.006   3.489 -0.1063  0.4603 -1.8294
  147OSM    H8G16292   4.478   5.183   3.495  0.5006  0.7982  0.0567
  147OSM    C9F16293   4.629   5.081   3.608  0.1108 -0.1144 -0.3398
  147OSM    H9F16294   4.693   4.992   3.620  0.2656  0.1519  0.9937
  147OSM   C10F16295   4.624   5.169   3.716  0.5768  0.0232  0.0813
  147OSM   H10F16296   4.684   5.151   3.807 -0.1696  1.1534  0.8172
  147OSM   C11F16297   4.541   5.295   3.721 -0.1343 -0.3192 -0.1760
  147OSM   H11F16298   4.539   5.352   3.625 -2.3552  2.7404  1.5142
  147OSM   H11G16299   4.598   5.372   3.778 -1.6086  1.6287 -1.2079
  147OSM   C12F16300   4.401   5.273   3.781  0.1760  0.2529 -0.1007
  147OSM   H12F16301   4.414   5.225   3.881 -1.4642  0.2294  0.1247
  147OSM   H12G16302   4.356   5.192   3.720  0.3678 -2.3627  2.9462
  147OSM   C13F16303   4.307   5.389   3.796 -0.0230  0.5621  0.7995
  147OSM   H13F16304   4.204   5.373   3.836 -0.3812  2.0080  0.5006
  147OSM   H13G16305   4.292   5.427   3.693 -3.2973  1.5177  1.5180
  147OSM   C14F16306   4.369   5.508   3.870  0.1839 -0.1570 -0.2018
  147OSM   H14F16307   4.282   5.577   3.865  1.3995  1.4370 -0.0605
  147OSM   H14G16308   4.459   5.552   3.822 -0.1384  1.4740  0.6112
  147OSM   C15F16309   4.405   5.467   4.011  0.2555 -0.0231 -0.8162
  147OSM   H15F16310   4.471   5.380   3.993 -1.5277 -1.4053 -0.9212
  147OSM   H15G16311   4.315   5.429   4.065  1.4599 -1.2170  0.4157
  147OSM   C16F16312   4.477   5.578   4.089 -0.2213 -0.4924  0.1662
  147OSM   H16F16313   4.561   5.619   4.028 -1.0639  1.2308  0.1004
  147OSM   H16G16314   4.528   5.532   4.176 -0.3205  0.3862  0.7082
  147OSM   C17F16315   4.383   5.695   4.130 -0.5183 -0.4574 -0.2938
  147OSM   H17F16316   4.288   5.681   4.075 -0.5633 -0.1370 -0.2961
  147OSM   H17G16317   4.428   5.789   4.092 -1.2064  0.2470  0.5871
  147OSM   C18F16318   4.371   5.709   4.282  0.2990 -0.2918 -0.0766
  147OSM   H18F16319   4.321   5.619   4.323  1.4020 -0.5639  0.7039
  147OSM   H18G16320   4.304   5.795   4.308  1.0807  0.7986 -1.5059
  147OSM   H18H16321   4.469   5.730   4.328  0.1334 -0.4081  0.3330
  148OSM      N16322   5.897   4.414   2.192  0.4578  0.7540  0.6874
  148OSM    C1516323   5.840   4.279   2.197 -0.3443  0.3264 -0.2270
  148OSM   H15A16324   5.848   4.238   2.097  1.2558  0.2333 -0.0824
  148OSM   H15B16325   5.737   4.291   2.229 -0.1335  3.1811 -0.4072
  148OSM   H15C16326   5.898   4.210   2.256 -0.3011 -1.0660 -1.7975
  148OSM    C1416327   6.032   4.390   2.128 -0.4986  0.0503  0.8633
  148OSM   H14A16328   6.098   4.318   2.174  0.3151 -1.1657 -1.9730
  148OSM   H14B16329   6.095   4.478   2.129 -0.0673 -0.2588  1.5862
  148OSM   H14C16330   6.016   4.350   2.029 -3.2413 -1.3907  1.7543
  148OSM    C1316331   5.824   4.507   2.109  0.2844  0.2129  0.3951
  148OSM   H13A16332   5.834   4.475   2.006  1.5518 -0.7319  0.7892
  148OSM   H13B16333   5.864   4.606   2.121  3.1097 -0.4901 -1.9473
  148OSM   H13C16334   5.720   4.510   2.139  0.1288  1.3820 -0.1936
  148OSM    C1216335   5.903   4.466   2.334  0.5561  0.2732  0.7070
  148OSM   H12A16336   5.950   4.564   2.328 -0.6964  0.8159 -1.1830
  148OSM   H12B16337   5.969   4.392   2.375  1.3596  0.7724  0.3566
  148OSM    C1116338   5.783   4.480   2.424  0.3220  0.5749 -0.2831
  148OSM   H11A16339   5.812   4.473   2.531  0.0184 -0.7209 -0.2665
  148OSM   H11B16340   5.710   4.406   2.385  1.9280  0.0136 -2.4715
  148OSM      P16341   5.578   4.659   2.396 -0.5816  0.4575 -0.1808
  148OSM    O1316342   5.581   4.797   2.453 -0.2175  0.0661  0.0319
  148OSM    O1416343   5.539   4.649   2.254 -0.2938 -0.1905 -0.6622
  148OSM    O1116344   5.500   4.558   2.484  0.2591  0.4594 -0.4525
  148OSM    O1216345   5.730   4.609   2.401  0.3472 -0.1186 -0.0501
  148OSM    C1S16346   5.534   4.544   2.624  0.4089  0.2505  0.5975
  148OSM    H1S16347   5.610   4.615   2.664 -1.4760  0.7447  3.6914
  148OSM    H1T16348   5.566   4.440   2.645  1.2861  0.1646 -1.0211
  148OSM     NF16349   5.413   4.562   2.851 -0.4439  0.3192 -0.2193
  148OSM    HNF16350   5.356   4.494   2.894 -0.2627 -0.7546 -1.6078
  148OSM    C2S16351   5.397   4.578   2.710 -0.2764  0.0432  0.5654
  148OSM    H2S16352   5.388   4.684   2.680  1.4727 -0.2788 -1.3048
  148OSM    C3S16353   5.275   4.501   2.656  0.1489 -0.4937 -0.1313
  148OSM    H3S16354   5.298   4.394   2.675 -1.8507 -0.6841  1.4796
  148OSM     O316355   5.242   4.515   2.520  0.0182  0.1112  0.0479
  148OSM    HO316356   5.306   4.583   2.495  1.5451 -0.7438  1.4180
  148OSM    C4S16357   5.155   4.536   2.748  0.8148  0.3611  0.3576
  148OSM    H4S16358   5.140   4.489   2.846 -0.5765 -1.0349 -0.4903
  148OSM    C5S16359   5.070   4.634   2.717  0.0634  0.4430  0.4332
  148OSM    H5S16360   5.088   4.690   2.624 -1.0528  0.6937  0.3473
  148OSM    C6S16361   4.967   4.691   2.814 -0.1936  0.1225 -0.5189
  148OSM    H6S16362   4.868   4.652   2.779 -0.3054  0.9149 -1.1101
  148OSM    H6T16363   4.955   4.799   2.794  0.4117  0.1964 -0.4811
  148OSM    C7S16364   4.990   4.674   2.965 -0.5948  0.2457 -0.0628
  148OSM    H7S16365   5.098   4.690   2.988 -0.5089 -0.9043  0.3997
  148OSM    H7T16366   4.962   4.571   2.997  0.6148  0.1710  0.8305
  148OSM    C8S16367   4.902   4.773   3.041  0.1661  1.2489  0.1893
  148OSM    H8S16368   4.796   4.740   3.038  1.2598 -2.9454  0.5344
  148OSM    H8T16369   4.919   4.871   2.993 -0.0089  1.4837  0.5981
  148OSM    C9S16370   4.934   4.788   3.194  0.0288 -0.0594  0.0759
  148OSM    H9S16371   4.864   4.856   3.248 -0.9522 -0.7210 -0.3241
  148OSM    H9T16372   5.031   4.842   3.191  0.3731 -0.7178 -0.9618
  148OSM   C10S16373   4.953   4.650   3.264 -0.2808 -1.0242  0.1964
  148OSM   H10S16374   5.028   4.587   3.211  1.1884  0.8079 -0.0258
  148OSM   H10T16375   4.849   4.613   3.266 -0.4424 -0.5701  0.1100
  148OSM   C11S16376   4.984   4.670   3.417  0.3874  0.4216 -0.2306
  148OSM   H11S16377   4.923   4.740   3.478  1.4136  0.5876  0.6207
  148OSM   H11T16378   5.089   4.705   3.421  0.2607  0.7868 -0.0449
  148OSM   C12S16379   4.970   4.539   3.493  0.0162  0.7091  0.4901
  148OSM   H12S16380   5.049   4.472   3.453 -0.9876 -0.7448  0.8140
  148OSM   H12T16381   4.875   4.489   3.464  0.9913 -0.4877 -0.7661
  148OSM   C13S16382   4.979   4.552   3.649  0.4497  0.2152  0.5169
  148OSM   H13S16383   4.917   4.636   3.686 -0.4234  0.7694 -2.0200
  148OSM   H13T16384   5.086   4.564   3.677  0.7794  0.5614 -0.7880
  148OSM   C14S16385   4.924   4.427   3.715  0.1688 -0.2474  0.0515
  148OSM   H14S16386   5.003   4.351   3.698 -0.0936 -0.3972 -0.5486
  148OSM   H14T16387   4.836   4.390   3.658 -0.0643  0.8364 -0.3110
  148OSM   C15S16388   4.907   4.417   3.868  0.1828  0.0859  0.2745
  148OSM   H15S16389   4.879   4.315   3.901 -0.3019  0.3559  0.7198
  148OSM   H15T16390   4.827   4.488   3.896  0.5428  0.1495  1.1970
  148OSM   C16S16391   5.040   4.444   3.941  0.9902  0.5602 -0.0439
  148OSM   H16S16392   5.063   4.548   3.907 -0.4116  1.1716  0.7936
  148OSM   H16T16393   5.124   4.385   3.898  1.9688  1.5326  0.4650
  148OSM   C17S16394   5.034   4.424   4.093 -0.4671 -0.8684 -0.5098
  148OSM   H17S16395   5.136   4.417   4.136 -1.0504  1.1860  1.3914
  148OSM   H17T16396   4.981   4.327   4.097  1.3171 -1.8383  1.6664
  148OSM   C18S16397   4.958   4.540   4.174 -0.6158  0.6645 -0.0509
  148OSM   H18S16398   4.945   4.494   4.274 -0.2519 -3.0707 -1.5792
  148OSM   H18T16399   4.863   4.565   4.122 -1.5903  1.4610  1.9987
  148OSM   H18U16400   5.014   4.636   4.182 -0.3612  0.5221 -0.0964
  148OSM    C1F16401   5.482   4.656   2.921 -0.5954 -0.5319 -0.4077
  148OSM     OF16402   5.549   4.742   2.867 -0.2715 -0.3205 -0.4970
  148OSM    C2F16403   5.457   4.657   3.067 -0.2326 -0.4041  0.2451
  148OSM    H2F16404   5.528   4.580   3.105  0.7855 -0.6494 -2.0079
  148OSM    H2G16405   5.354   4.625   3.094  0.1939 -1.3533  0.8276
  148OSM    C3F16406   5.477   4.793   3.144 -0.2204 -0.0138  0.0040
  148OSM    H3F16407   5.415   4.866   3.088 -0.1926  0.3354  0.4241
  148OSM    H3G16408   5.584   4.820   3.140  0.5768 -2.7654  0.2634
  148OSM    C4F16409   5.431   4.783   3.286 -0.2529 -0.1678  0.3346
  148OSM    H4F16410   5.503   4.725   3.348 -1.1433 -1.7162 -0.0298
  148OSM    H4G16411   5.335   4.729   3.305  1.2096 -3.3523 -0.7080
  148OSM    C5F16412   5.410   4.916   3.355 -0.4926 -0.0132 -0.2987
  148OSM    H5F16413   5.338   4.980   3.299  0.8157  2.9793  1.1911
  148OSM    H5G16414   5.505   4.975   3.357 -0.4241 -0.1461  0.9598
  148OSM    C6F16415   5.364   4.894   3.502  0.6977 -0.6982 -0.1981
  148OSM    H6F16416   5.447   4.849   3.560 -1.7360 -0.8271  3.4677
  148OSM    H6G16417   5.285   4.816   3.497 -0.5520  0.5988 -2.9677
  148OSM    C7F16418   5.320   5.024   3.572 -0.0009  0.4827  0.3768
  148OSM    H7F16419   5.405   5.095   3.579 -1.4953  2.3412  0.2706
  148OSM    H7G16420   5.284   4.989   3.671  0.9979  1.8104  1.2300
  148OSM    C8F16421   5.220   5.106   3.489 -0.2907  0.1343 -0.3359
  148OSM    H8F16422   5.275   5.130   3.396 -0.7190 -0.5440 -0.7669
  148OSM    H8G16423   5.206   5.203   3.542  0.7408 -2.0636  4.5686
  148OSM    C9F16424   5.087   5.044   3.464 -0.5015 -0.1573  0.7187
  148OSM    H9F16425   5.068   4.997   3.366 -4.6151  0.0127  1.2614
  148OSM   C10F16426   4.977   5.039   3.549 -0.2754  0.0186 -0.5354
  148OSM   H10F16427   4.883   5.007   3.503 -0.6477  1.3055 -0.6976
  148OSM   C11F16428   4.974   5.080   3.691  0.6214 -0.0026 -0.6518
  148OSM   H11F16429   4.905   5.166   3.705  0.0970 -0.4061 -0.7448
  148OSM   H11G16430   5.069   5.126   3.727  1.8608 -2.2736 -0.8492
  148OSM   C12F16431   4.951   4.956   3.782  0.4138  0.1578 -0.1607
  148OSM   H12F16432   5.022   4.873   3.767 -0.8303 -1.3344  1.7778
  148OSM   H12G16433   4.853   4.910   3.756 -0.2284 -0.4034  2.8559
  148OSM   C13F16434   4.966   4.989   3.933  0.6765 -0.1192 -0.1494
  148OSM   H13F16435   4.895   5.067   3.969  0.6723  0.2346 -0.9030
  148OSM   H13G16436   5.068   5.032   3.943 -0.2330  2.0840  0.2523
  148OSM   C14F16437   4.961   4.860   4.025  0.0491  0.6508 -0.2080
  148OSM   H14F16438   5.051   4.802   3.993  3.2978  3.0099  3.6253
  148OSM   H14G16439   4.871   4.801   3.997 -0.7766  1.7239  0.1336
  148OSM   C15F16440   4.958   4.910   4.176 -0.0318 -0.4058 -0.2348
  148OSM   H15F16441   4.909   4.830   4.236 -1.2460  0.2820 -0.2837
  148OSM   H15G16442   4.890   4.996   4.193  0.3274 -0.1035 -0.3165
  148OSM   C16F16443   5.095   4.937   4.241 -0.0458 -0.7923  0.4822
  148OSM   H16F16444   5.155   5.011   4.184 -0.6457  0.9313  1.9638
  148OSM   H16G16445   5.148   4.840   4.250 -0.2304 -0.8735  0.6999
  148OSM   C17F16446   5.083   4.991   4.393 -0.0387 -0.4553 -0.3609
  148OSM   H17F16447   5.044   4.904   4.450 -4.3396  0.1885 -1.9385
  148OSM   H17G16448   5.014   5.076   4.412 -1.0127 -1.3727  0.3432
  148OSM   C18F16449   5.219   5.029   4.442 -0.5146 -0.1265 -0.4674
  148OSM   H18F16450   5.267   4.943   4.493 -1.5624 -0.1427  0.5233
  148OSM   H18G16451   5.227   5.115   4.511  1.6820 -0.0501 -0.7314
  148OSM   H18H16452   5.277   5.061   4.352 -1.1551 -2.6775 -1.8935
  149OSM      N16453   5.045   4.531   2.174 -0.1331  0.3791 -0.1176
  149OSM    C1516454   4.938   4.438   2.223 -0.2595  0.3691 -0.5870
  149OSM   H15A16455   4.842   4.460   2.177 -0.2959 -2.5253 -2.1884
  149OSM   H15B16456   4.926   4.437   2.330 -2.4160 -0.0206 -0.7836
  149OSM   H15C16457   4.959   4.335   2.199  1.1357  0.6654 -0.7139
  149OSM    C1416458   5.170   4.448   2.193 -0.6353 -0.8493  0.1745
  149OSM   H14A16459   5.195   4.438   2.298  1.1200  0.4988 -0.0744
  149OSM   H14B16460   5.251   4.491   2.137  0.2810 -1.0831  1.2904
  149OSM   H14C16461   5.151   4.348   2.157  1.8577 -1.7459  1.1788
  149OSM    C1316462   5.039   4.553   2.027  0.1503 -0.1420  0.3083
  149OSM   H13A16463   5.036   4.464   1.966  0.3858  0.1168 -0.0866
  149OSM   H13B16464   5.124   4.616   2.004  0.0476 -0.0518  0.1685
  149OSM   H13C16465   4.954   4.616   2.004 -1.0693 -1.8092  0.0932
  149OSM    C1216466   5.051   4.656   2.253  0.2905 -0.3820  0.1009
  149OSM   H12A16467   5.048   4.630   2.357  1.5371 -1.5005 -0.1120
  149OSM   H12B16468   4.960   4.712   2.236 -0.6552 -2.1024 -0.6547
  149OSM    C1116469   5.179   4.755   2.242 -0.5412 -0.5217 -0.0687
  149OSM   H11A16470   5.276   4.701   2.245  1.0696  2.2328  2.2663
  149OSM   H11B16471   5.173   4.821   2.331 -1.1129  0.4917 -0.8333
  149OSM      P16472   5.056   4.942   2.106  0.3204  0.0674 -0.0252
  149OSM    O1316473   5.104   5.046   2.012 -0.3518  0.1715  0.1436
  149OSM    O1416474   4.930   4.873   2.066 -0.1223 -0.4512  0.0377
  149OSM    O1116475   5.031   5.013   2.249  0.1046  0.8531 -0.4686
  149OSM    O1216476   5.179   4.842   2.125 -0.5841 -0.0517  0.2976
  149OSM    C1S16477   5.120   5.111   2.301 -0.1404 -0.1116 -0.2233
  149OSM    H1S16478   5.106   5.204   2.243  0.9508 -0.9826 -1.9739
  149OSM    H1T16479   5.224   5.074   2.291 -0.5263 -1.0923 -0.7575
  149OSM     NF16480   5.193   5.244   2.500 -0.0424 -0.9467 -0.3922
  149OSM    HNF16481   5.262   5.207   2.562 -0.2649 -1.5463 -0.4892
  149OSM    C2S16482   5.085   5.156   2.446 -0.2047  0.2252  0.4873
  149OSM    H2S16483   4.989   5.212   2.440 -1.1827 -1.4954 -0.7044
  149OSM    C3S16484   5.049   5.029   2.534  0.1042 -0.6795  0.7011
  149OSM    H3S16485   5.143   4.971   2.524  1.5650  1.8502 -1.6785
  149OSM     O316486   4.946   4.947   2.485 -0.3476  0.1658  0.3566
  149OSM    HO316487   4.934   4.972   2.393 -1.5320 -0.1738  0.4047
  149OSM    C4S16488   5.038   5.068   2.680 -0.5671 -0.1190 -0.2142
  149OSM    H4S16489   4.956   5.140   2.687  1.1266  1.7705  1.3775
  149OSM    C5S16490   5.121   5.040   2.779 -0.3962 -0.2309  0.0157
  149OSM    H5S16491   5.205   4.971   2.766 -1.1720 -2.2637  4.0728
  149OSM    C6S16492   5.114   5.090   2.920  0.0706 -0.0743 -0.3009
  149OSM    H6S16493   5.204   5.152   2.941  2.2174 -3.1536  0.3559
  149OSM    H6T16494   5.136   5.010   2.994  1.5115  0.4148 -0.1588
  149OSM    C7S16495   4.981   5.148   2.964 -0.5789 -0.4496  1.0145
  149OSM    H7S16496   4.907   5.066   2.948  0.9541 -1.7452  0.3892
  149OSM    H7T16497   4.943   5.232   2.901 -0.0466  0.0691  1.3800
  149OSM    C8S16498   4.971   5.201   3.109 -0.5336 -0.4401 -0.2964
  149OSM    H8S16499   5.015   5.127   3.180  0.6251  2.6904  2.5697
  149OSM    H8T16500   4.863   5.220   3.130 -0.3197  1.3076 -0.6097
  149OSM    C9S16501   5.046   5.334   3.126 -0.4004  0.1625  1.1462
  149OSM    H9S16502   5.001   5.411   3.060  1.5004  0.9009  0.6471
  149OSM    H9T16503   5.154   5.326   3.100 -0.9161  0.2736 -1.2796
  149OSM   C10S16504   5.050   5.369   3.274 -0.4432 -0.6527 -0.6934
  149OSM   H10S16505   5.127   5.446   3.294 -2.3639  0.5785  2.7028
  149OSM   H10T16506   5.087   5.290   3.342 -0.1534  1.9895  2.4803
  149OSM   C11S16507   4.914   5.408   3.328 -0.5204 -0.3632  0.1201
  149OSM   H11S16508   4.826   5.347   3.299 -0.8298 -1.5192  3.1092
  149OSM   H11T16509   4.901   5.509   3.286 -1.0668  0.0646  1.2715
  149OSM   C12S16510   4.920   5.406   3.479  0.6458  0.7346  0.1707
  149OSM   H12S16511   4.924   5.302   3.517  0.3780  0.1550 -1.3214
  149OSM   H12T16512   4.820   5.436   3.517  0.1837  0.2069 -0.6118
  149OSM   C13S16513   5.015   5.507   3.543 -0.4656 -0.2236  0.0301
  149OSM   H13S16514   4.986   5.607   3.505  1.1802  1.1837  2.2173
  149OSM   H13T16515   5.113   5.482   3.498 -1.7974 -0.2974 -3.0554
  149OSM   C14S16516   5.008   5.498   3.696 -0.7180 -1.0517  0.0515
  149OSM   H14S16517   5.108   5.517   3.742 -1.2105  1.5590  0.1585
  149OSM   H14T16518   4.970   5.397   3.723 -2.1023 -0.9415 -1.3622
  149OSM   C15S16519   4.903   5.600   3.763 -0.3977 -0.4274  0.7213
  149OSM   H15S16520   4.802   5.559   3.740 -0.3166 -0.0110 -0.4769
  149OSM   H15T16521   4.918   5.696   3.708 -0.5506 -1.2865 -0.8731
  149OSM   C16S16522   4.923   5.615   3.913  0.4138 -0.3502  0.2845
  149OSM   H16S16523   4.855   5.701   3.936  1.8607  1.0181 -0.3529
  149OSM   H16T16524   5.030   5.620   3.940  1.2666 -2.9311 -2.1714
  149OSM   C17S16525   4.872   5.488   3.989 -0.2425 -0.1723 -0.1114
  149OSM   H17S16526   4.942   5.405   3.965  0.3916  0.5200 -0.7486
  149OSM   H17T16527   4.774   5.466   3.943  0.1302  1.4964 -1.8353
  149OSM   C18S16528   4.849   5.490   4.147 -0.3884  0.0983  0.1850
  149OSM   H18S16529   4.816   5.389   4.181 -1.0830  0.4227  0.4917
  149OSM   H18T16530   4.775   5.566   4.180  0.8474  2.0190 -1.2641
  149OSM   H18U16531   4.947   5.514   4.193 -0.1795  0.0793 -0.2368
  149OSM    C1F16532   5.200   5.368   2.447 -0.1269 -0.2935 -0.6624
  149OSM     OF16533   5.112   5.419   2.375  0.3214 -0.6034 -0.0778
  149OSM    C2F16534   5.327   5.441   2.471  0.0232 -0.3969 -0.2216
  149OSM    H2F16535   5.359   5.496   2.379 -2.6718  0.0778 -0.9548
  149OSM    H2G16536   5.414   5.385   2.512  0.7271 -1.2440 -2.6994
  149OSM    C3F16537   5.290   5.560   2.574 -1.0152  0.6776  0.6880
  149OSM    H3F16538   5.216   5.516   2.644 -3.0577  0.6020 -1.3918
  149OSM    H3G16539   5.239   5.634   2.509 -0.9888  2.3583  2.4732
  149OSM    C4F16540   5.413   5.631   2.646 -0.4940 -0.2759  0.0811
  149OSM    H4F16541   5.448   5.708   2.574  2.0356 -3.0656 -1.9665
  149OSM    H4G16542   5.494   5.555   2.639  2.1196  2.1961  1.4577
  149OSM    C5F16543   5.382   5.677   2.787  0.0736 -0.3357 -0.3043
  149OSM    H5F16544   5.357   5.585   2.843 -1.1121 -0.1214 -0.4406
  149OSM    H5G16545   5.289   5.739   2.790 -0.7679 -1.5882  2.4496
  149OSM    C6F16546   5.494   5.752   2.867  0.6868  0.3370  1.0211
  149OSM    H6F16547   5.522   5.845   2.813  1.9651 -0.3521  0.4497
  149OSM    H6G16548   5.578   5.680   2.857 -0.0826 -0.3494 -1.1033
  149OSM    C7F16549   5.453   5.767   3.010  0.3241  0.6807 -0.6420
  149OSM    H7F16550   5.424   5.668   3.050  3.3114  0.2998  0.8699
  149OSM    H7G16551   5.369   5.838   3.021 -1.0822 -1.0112 -0.0768
  149OSM    C8F16552   5.564   5.816   3.099 -0.0747 -0.2853  0.2340
  149OSM    H8F16553   5.556   5.775   3.202  3.0175 -0.2781  0.5701
  149OSM    H8G16554   5.548   5.926   3.103  1.5461 -0.0374  0.5989
  149OSM    C9F16555   5.705   5.800   3.053  1.6721 -0.3801  0.3688
  149OSM    H9F16556   5.721   5.815   2.946 -2.4163  0.4698 -0.2914
  149OSM   C10F16557   5.813   5.811   3.134  0.1938  0.7292 -0.3380
  149OSM   H10F16558   5.911   5.782   3.092  0.7051  2.3418 -0.3344
  149OSM   C11F16559   5.808   5.818   3.284 -0.6271  0.6146  0.5027
  149OSM   H11F16560   5.850   5.728   3.333  0.0967  1.3894  1.3368
  149OSM   H11G16561   5.708   5.811   3.331 -0.2565 -1.2516  1.0949
  149OSM   C12F16562   5.884   5.936   3.345 -0.0532  0.0083  0.5975
  149OSM   H12F16563   5.822   6.026   3.324  1.8488  1.0660 -0.9221
  149OSM   H12G16564   5.989   5.949   3.310  0.4851  0.3902  2.2695
  149OSM   C13F16565   5.907   5.929   3.496  0.2989 -0.3150  1.2908
  149OSM   H13F16566   5.983   5.851   3.517 -1.3292 -2.9752 -1.8187
  149OSM   H13G16567   5.807   5.905   3.538 -0.7904 -1.5066 -1.7507
  149OSM   C14F16568   5.958   6.062   3.549 -0.7625  0.3972  0.7803
  149OSM   H14F16569   5.882   6.142   3.535 -0.2292  0.9214  0.8046
  149OSM   H14G16570   6.049   6.098   3.495 -1.4271  0.7980 -0.1108
  149OSM   C15F16571   5.997   6.052   3.695 -0.1503  0.3760 -0.5280
  149OSM   H15F16572   6.062   5.963   3.706  0.2464  0.5253 -1.5600
  149OSM   H15G16573   5.907   6.035   3.758 -1.8258 -0.0092 -2.9052
  149OSM   C16F16574   6.082   6.172   3.738  0.0707 -0.0934  0.1086
  149OSM   H16F16575   6.016   6.260   3.722  0.0879 -0.0309  0.3675
  149OSM   H16G16576   6.167   6.177   3.667  0.6685  1.5237  0.8759
  149OSM   C17F16577   6.134   6.155   3.881 -0.3030 -0.7464  0.2123
  149OSM   H17F16578   6.216   6.080   3.886  0.3454 -0.1448 -1.0870
  149OSM   H17G16579   6.042   6.129   3.938 -1.3351 -2.6314 -2.1559
  149OSM   C18F16580   6.186   6.285   3.938 -0.0230 -0.5457  0.1502
  149OSM   H18F16581   6.277   6.316   3.882  0.2530 -0.3628  0.6955
  149OSM   H18G16582   6.209   6.280   4.046  0.5557  1.0421  0.1216
  149OSM   H18H16583   6.106   6.360   3.922 -0.6699 -1.5899 -1.7864
  150OSM      N16584   1.791   1.627   1.942 -0.2871  0.4963  0.3999
  150OSM    C1516585   1.684   1.642   2.054  0.0792  0.2397  0.3241
  150OSM   H15A16586   1.582   1.648   2.020  0.9066  2.3532 -2.0640
  150OSM   H15B16587   1.709   1.727   2.115  0.8660  0.7765 -0.7120
  150OSM   H15C16588   1.699   1.559   2.122 -1.6038  1.8544  2.7851
  150OSM    C1416589   1.752   1.507   1.858  0.2894  0.5924 -0.3104
  150OSM   H14A16590   1.747   1.420   1.923  1.2560  2.0781  1.8703
  150OSM   H14B16591   1.829   1.506   1.782 -0.7253  0.6065 -1.3750
  150OSM   H14C16592   1.657   1.530   1.811  1.4144  3.5634 -1.3256
  150OSM    C1316593   1.794   1.749   1.861 -0.0624  0.0839  0.3919
  150OSM   H13A16594   1.844   1.824   1.921  2.0383 -1.2109  0.3509
  150OSM   H13B16595   1.699   1.792   1.832  1.6679  1.7073 -3.5319
  150OSM   H13C16596   1.842   1.731   1.766 -1.0332  1.0016 -0.2908
  150OSM    C1216597   1.925   1.599   2.001  0.0887  0.2664  0.0591
  150OSM   H12A16598   1.996   1.585   1.922  0.4231 -0.3511  0.4648
  150OSM   H12B16599   1.915   1.506   2.056  0.5386  0.2268  0.0740
  150OSM    C1116600   1.990   1.707   2.088  0.5338  0.1725  0.0485
  150OSM   H11A16601   1.994   1.677   2.195  0.1697  0.9008  0.2773
  150OSM   H11B16602   1.924   1.797   2.083 -0.3810 -0.3816  1.3030
  150OSM      P16603   2.237   1.652   2.102 -0.1785 -0.2840  0.1156
  150OSM    O1316604   2.198   1.512   2.105  0.5506 -0.1382  0.5963
  150OSM    O1416605   2.373   1.673   2.042  0.5899 -0.4892 -0.1381
  150OSM    O1116606   2.229   1.709   2.249  0.3120 -0.1893 -0.0395
  150OSM    O1216607   2.122   1.730   2.028  0.0029 -0.1322  0.3283
  150OSM    C1S16608   2.236   1.850   2.280  0.2140  0.0590 -0.3394
  150OSM    H1S16609   2.146   1.905   2.244  0.1931 -0.1896 -0.6748
  150OSM    H1T16610   2.324   1.907   2.242 -1.1786  1.8038 -1.0659
  150OSM     NF16611   2.212   2.013   2.479  0.1538 -0.0432  0.1933
  150OSM    HNF16612   2.289   2.076   2.483  1.0379 -1.0360 -0.6213
  150OSM    C2S16613   2.244   1.871   2.443  0.4932  0.1701  0.4921
  150OSM    H2S16614   2.175   1.797   2.488  0.8077 -1.5877 -1.7365
  150OSM    C3S16615   2.382   1.827   2.491  0.1020  0.0269  0.0441
  150OSM    H3S16616   2.450   1.905   2.449 -0.7870  1.4513  1.1512
  150OSM     O316617   2.423   1.696   2.442 -0.1975  0.2943  0.3381
  150OSM    HO316618   2.361   1.671   2.374  0.6917  2.1869 -1.2518
  150OSM    C4S16619   2.408   1.843   2.643  0.5246  0.0920  0.9140
  150OSM    H4S16620   2.412   1.951   2.662  2.1232  1.0367 -3.5284
  150OSM    C5S16621   2.427   1.746   2.736  0.6518 -0.4935  0.2576
  150OSM    H5S16622   2.420   1.639   2.709  0.6463 -0.8258  1.5303
  150OSM    C6S16623   2.447   1.777   2.883 -0.3296 -0.4247  0.8606
  150OSM    H6S16624   2.417   1.696   2.952 -0.6837  0.0484  1.2647
  150OSM    H6T16625   2.405   1.874   2.916  1.4868  0.4337  0.7790
  150OSM    C7S16626   2.600   1.804   2.897  0.0598 -1.1330 -0.7368
  150OSM    H7S16627   2.640   1.891   2.840  2.5693 -1.1241  0.9060
  150OSM    H7T16628   2.650   1.714   2.854  0.9219 -1.2742  0.5291
  150OSM    C8S16629   2.635   1.826   3.044 -0.1270 -0.1360  0.6519
  150OSM    H8S16630   2.743   1.848   3.063 -0.2245  0.7471  0.2196
  150OSM    H8T16631   2.618   1.737   3.107  1.0462  0.2084  1.4951
  150OSM    C9S16632   2.577   1.949   3.125 -0.1777 -0.6341  0.3407
  150OSM    H9S16633   2.469   1.954   3.150  0.0199  2.2419  0.9627
  150OSM    H9T16634   2.592   2.041   3.065  1.1182 -1.5499 -0.7945
  150OSM   C10S16635   2.649   1.961   3.257  0.1727 -0.8559 -0.4215
  150OSM   H10S16636   2.667   1.856   3.291  1.8504 -0.6933 -0.7597
  150OSM   H10T16637   2.569   2.003   3.322  0.1935  0.0084 -0.9498
  150OSM   C11S16638   2.777   2.037   3.265 -0.1515  0.1285 -0.2031
  150OSM   H11S16639   2.780   2.143   3.235  3.3720  0.2631  0.2224
  150OSM   H11T16640   2.858   1.987   3.208  0.2615 -0.6208  0.9924
  150OSM   C12S16641   2.826   2.034   3.413  0.3872 -0.0921  0.0482
  150OSM   H12S16642   2.935   2.057   3.413  0.5393 -0.8145  0.0530
  150OSM   H12T16643   2.816   1.928   3.445 -1.1362  0.2149  0.6854
  150OSM   C13S16644   2.760   2.134   3.514  0.1201  0.1589  0.1261
  150OSM   H13S16645   2.651   2.151   3.498  0.8155  3.0947 -2.4954
  150OSM   H13T16646   2.797   2.238   3.501  1.9975 -0.1292  2.4469
  150OSM   C14S16647   2.783   2.095   3.657  0.4801 -0.6906 -0.1981
  150OSM   H14S16648   2.891   2.101   3.683  0.2621  2.9347  0.3679
  150OSM   H14T16649   2.747   1.992   3.678 -0.4192 -0.1057  1.3092
  150OSM   C15S16650   2.704   2.181   3.747 -0.2582 -0.0549  0.1824
  150OSM   H15S16651   2.597   2.175   3.719  0.0212  1.3037 -1.2626
  150OSM   H15T16652   2.722   2.289   3.731 -3.2049  0.5280  0.1862
  150OSM   C16S16653   2.717   2.139   3.897  0.4779  0.2743  0.2092
  150OSM   H16S16654   2.814   2.089   3.918 -0.9245 -2.7844  0.0713
  150OSM   H16T16655   2.641   2.058   3.909 -0.0498  0.7051 -0.1505
  150OSM   C17S16656   2.696   2.248   4.003  0.3576  0.4166  0.6941
  150OSM   H17S16657   2.598   2.300   3.997  0.0172 -0.1290  1.4277
  150OSM   H17T16658   2.775   2.326   3.997  0.2503  0.4562 -0.7279
  150OSM   C18S16659   2.700   2.189   4.150  0.5638  0.0026  0.7803
  150OSM   H18S16660   2.668   2.274   4.214  3.7589  2.7756 -0.9967
  150OSM   H18T16661   2.805   2.157   4.167  0.0215 -2.3174  0.1000
  150OSM   H18U16662   2.640   2.096   4.142  0.4937  0.1501 -0.5964
  150OSM    C1F16663   2.086   2.060   2.471  0.3784  0.3187 -0.4303
  150OSM     OF16664   1.996   1.986   2.442  0.2584  0.1018  0.1099
  150OSM    C2F16665   2.060   2.203   2.495 -0.0049 -0.5096  0.2603
  150OSM    H2F16666   2.051   2.258   2.399 -4.4228  4.3219  2.8624
  150OSM    H2G16667   2.142   2.253   2.551 -1.3436 -0.0197  1.8691
  150OSM    C3F16668   1.923   2.246   2.557 -0.4572  0.2309  0.4510
  150OSM    H3F16669   1.889   2.174   2.635  1.1288  0.1123  1.0688
  150OSM    H3G16670   1.846   2.262   2.478  0.5396  1.3594 -0.3208
  150OSM    C4F16671   1.926   2.382   2.628  0.3753  0.5201 -0.5843
  150OSM    H4F16672   1.921   2.466   2.556 -2.6674  1.1467  0.2171
  150OSM    H4G16673   2.022   2.398   2.682  0.9005 -0.6935 -1.1105
  150OSM    C5F16674   1.803   2.390   2.716  0.6702  0.0386 -0.5468
  150OSM    H5F16675   1.795   2.297   2.777  1.2968 -0.4877 -1.2431
  150OSM    H5G16676   1.710   2.384   2.656  0.5652  0.2337 -0.4047
  150OSM    C6F16677   1.814   2.516   2.802  0.1700 -0.8954 -0.0048
  150OSM    H6F16678   1.718   2.538   2.852 -0.6894 -0.0757 -1.9004
  150OSM    H6G16679   1.833   2.593   2.724 -0.1006 -0.8806 -0.0576
  150OSM    C7F16680   1.919   2.510   2.918  0.3851  0.8426 -0.1297
  150OSM    H7F16681   2.017   2.517   2.866  0.0705 -1.9419 -1.2949
  150OSM    H7G16682   1.925   2.409   2.964 -1.3062  0.7675  0.0027
  150OSM    C8F16683   1.898   2.623   3.022 -0.0900 -0.3680  0.2446
  150OSM    H8F16684   1.795   2.606   3.059 -1.0779  0.1659 -2.0619
  150OSM    H8G16685   1.905   2.720   2.969  1.9926 -0.5986 -0.0051
  150OSM    C9F16686   2.007   2.631   3.130 -0.1461  0.7824 -1.0488
  150OSM    H9F16687   2.102   2.677   3.099  0.6994 -0.8756 -1.0099
  150OSM   C10F16688   1.995   2.564   3.252  0.0867 -0.4589 -0.2447
  150OSM   H10F16689   2.072   2.561   3.330 -1.8793  0.1312  1.8340
  150OSM   C11F16690   1.876   2.492   3.310  0.2779  0.1280  0.3295
  150OSM   H11F16691   1.901   2.384   3.319 -0.1796  0.1061  1.6849
  150OSM   H11G16692   1.797   2.498   3.232  1.7421 -0.3074 -1.2516
  150OSM   C12F16693   1.812   2.535   3.442  0.6672 -0.0113  0.4504
  150OSM   H12F16694   1.707   2.500   3.451  0.2701  1.2645  1.1098
  150OSM   H12G16695   1.805   2.646   3.447  2.1593  0.0693  3.5938
  150OSM   C13F16696   1.895   2.480   3.560  0.4835  0.1205 -0.3487
  150OSM   H13F16697   1.999   2.520   3.551 -0.0414  1.5661 -0.2064
  150OSM   H13G16698   1.909   2.370   3.552 -1.1387 -0.2149  1.0604
  150OSM   C14F16699   1.860   2.537   3.702  0.4577  0.3051  0.3634
  150OSM   H14F16700   1.832   2.645   3.707 -5.0097 -0.8215  0.4446
  150OSM   H14G16701   1.945   2.513   3.769  0.8502  1.4681  0.3060
  150OSM   C15F16702   1.727   2.465   3.754 -0.3388 -0.1553  0.1016
  150OSM   H15F16703   1.732   2.355   3.735 -0.4894 -0.4235  1.5549
  150OSM   H15G16704   1.639   2.513   3.705 -0.4222  0.0990  0.5029
  150OSM   C16F16705   1.693   2.481   3.907  0.0003  1.0673  0.2053
  150OSM   H16F16706   1.719   2.575   3.960  0.5799  0.6324  0.7139
  150OSM   H16G16707   1.750   2.405   3.966  0.2507 -0.0410 -1.3831
  150OSM   C17F16708   1.547   2.462   3.936  0.9156  0.3954 -0.0622
  150OSM   H17F16709   1.527   2.359   3.901 -0.9062 -0.3308  2.7832
  150OSM   H17G16710   1.487   2.537   3.881  0.9373  1.8714  1.7985
  150OSM   C18F16711   1.517   2.460   4.082 -0.4774  0.0473  0.0223
  150OSM   H18F16712   1.545   2.557   4.129 -0.1021 -0.1193  0.1466
  150OSM   H18G16713   1.578   2.384   4.135 -0.2418 -0.6909 -1.2686
  150OSM   H18H16714   1.409   2.439   4.096 -0.7076  1.0075 -0.2371
  151OSM      N16715   0.530   0.728   1.740 -0.6869  0.0843  0.2572
  151OSM    C1516716   0.388   0.686   1.733 -0.2707  0.4244 -0.2098
  151OSM   H15A16717   0.352   0.645   1.640  1.1593 -1.7117  0.1047
  151OSM   H15B16718   0.320   0.765   1.762  1.8322  2.9636 -1.7219
  151OSM   H15C16719   0.369   0.606   1.803 -3.5954  1.4518  0.2578
  151OSM    C1416720   0.615   0.610   1.703 -0.6238  0.4861 -0.3830
  151OSM   H14A16721   0.641   0.546   1.787 -1.1759 -0.7122 -1.0962
  151OSM   H14B16722   0.718   0.640   1.688 -0.3077  0.3670  1.2793
  151OSM   H14C16723   0.584   0.558   1.614 -0.1113  1.8017 -1.3651
  151OSM    C1316724   0.549   0.828   1.637  0.0184  1.1616  0.0650
  151OSM   H13A16725   0.501   0.794   1.546  1.1582 -0.6453  0.0880
  151OSM   H13B16726   0.653   0.843   1.612  0.2318 -0.1787  0.0954
  151OSM   H13C16727   0.507   0.923   1.666 -1.2019  0.9939 -1.0615
  151OSM    C1216728   0.569   0.790   1.872 -0.0377  0.3382 -0.2016
  151OSM   H12A16729   0.491   0.861   1.894 -0.3844  0.2566 -1.1236
  151OSM   H12B16730   0.658   0.851   1.867 -0.1067  0.6084  1.4171
  151OSM    C1116731   0.604   0.694   1.992 -0.0156 -0.3811  0.3014
  151OSM   H11A16732   0.624   0.756   2.082 -1.9433 -0.0329  0.5314
  151OSM   H11B16733   0.698   0.638   1.970 -0.0924 -0.0824 -0.8359
  151OSM      P16734   0.528   0.461   2.072  0.2673  0.4772  0.4996
  151OSM    O1316735   0.418   0.378   2.121  0.0577 -0.1774 -0.6907
  151OSM    O1416736   0.622   0.395   1.976 -0.7208 -0.1445  0.0677
  151OSM    O1116737   0.609   0.505   2.197 -0.2196  0.1438 -0.5878
  151OSM    O1216738   0.486   0.601   2.006  0.3789 -0.2665 -0.1973
  151OSM    C1S16739   0.562   0.580   2.311 -0.3402  0.3876  0.5724
  151OSM    H1S16740   0.486   0.653   2.276 -1.1499 -0.9174 -0.4938
  151OSM    H1T16741   0.638   0.647   2.356 -0.5468  1.2035 -0.2591
  151OSM     NF16742   0.500   0.578   2.555 -0.6971  0.3253  0.8210
  151OSM    HNF16743   0.577   0.578   2.619  1.1823 -0.4892 -1.3069
  151OSM    C2S16744   0.525   0.492   2.438 -0.7060 -0.4046  0.1802
  151OSM    H2S16745   0.427   0.441   2.421 -0.9925 -0.6276  2.2323
  151OSM    C3S16746   0.641   0.390   2.471  0.0645  0.5616  0.0599
  151OSM    H3S16747   0.725   0.455   2.504  0.4531  0.8834 -1.4763
  151OSM     O316748   0.689   0.315   2.363 -0.0117 -0.1367  0.7743
  151OSM    HO316749   0.647   0.355   2.287 -0.3850 -0.1227  0.9864
  151OSM    C4S16750   0.600   0.298   2.584 -0.1884 -0.6498  0.1532
  151OSM    H4S16751   0.508   0.248   2.551  0.4078 -1.5853 -0.1127
  151OSM    C5S16752   0.663   0.283   2.703  0.4601  0.5881 -0.0082
  151OSM    H5S16753   0.743   0.355   2.723 -0.4944  1.6728  0.0364
  151OSM    C6S16754   0.617   0.203   2.818  0.1269  0.5085  0.2859
  151OSM    H6S16755   0.563   0.116   2.774  0.9016 -0.0742  0.4612
  151OSM    H6T16756   0.530   0.245   2.873 -0.9145 -1.9021  0.6185
  151OSM    C7S16757   0.729   0.149   2.903 -0.1973  0.0330  0.4044
  151OSM    H7S16758   0.774   0.228   2.968 -0.0546  0.2305  0.0692
  151OSM    H7T16759   0.795   0.081   2.846 -2.2952 -3.2757  1.6274
  151OSM    C8S16760   0.674   0.041   3.004 -0.5042 -1.0398 -0.0936
  151OSM    H8S16761   0.598   0.094   3.066 -0.8423 -0.6198 -0.8382
  151OSM    H8T16762   0.758   0.011   3.069 -1.3271 -2.5675  0.3006
  151OSM    C9S16763   0.613  -0.088   2.941  0.1313 -0.9962  0.9289
  151OSM    H9S16764   0.695  -0.136   2.882  2.2583  2.5651  0.6711
  151OSM    H9T16765   0.522  -0.065   2.882 -0.5583  0.3226  2.4359
  151OSM   C10S16766   0.568  -0.178   3.060  0.0980  0.6248  0.5375
  151OSM   H10S16767   0.481  -0.120   3.095  0.6759  0.4822  2.3229
  151OSM   H10T16768   0.643  -0.174   3.143 -0.0844 -0.1547  0.7447
  151OSM   C11S16769   0.533  -0.327   3.042 -0.1193 -0.4010  0.0367
  151OSM   H11S16770   0.627  -0.381   3.016 -0.2022 -0.0010 -1.1791
  151OSM   H11T16771   0.470  -0.325   2.950 -1.1498 -0.1895  0.7213
  151OSM   C12S16772   0.444  -0.385   3.159 -0.3160 -0.6230  0.0245
  151OSM   H12S16773   0.398  -0.478   3.118  2.5272 -2.7288  1.2629
  151OSM   H12T16774   0.376  -0.298   3.169 -2.4551 -2.0053 -1.6080
  151OSM   C13S16775   0.513  -0.413   3.292 -0.4377 -1.2577 -1.1916
  151OSM   H13S16776   0.554  -0.321   3.339 -2.8220 -1.7013  2.1587
  151OSM   H13T16777   0.604  -0.476   3.279  0.4029 -0.1640 -0.7924
  151OSM   C14S16778   0.416  -0.479   3.390 -0.6891 -0.7003 -0.0251
  151OSM   H14S16779   0.387  -0.581   3.357 -1.1864 -0.7250  0.4813
  151OSM   H14T16780   0.321  -0.423   3.381  0.5814  1.4817 -0.5967
  151OSM   C15S16781   0.464  -0.479   3.535  0.3116 -0.0772  0.6356
  151OSM   H15S16782   0.484  -0.375   3.567  0.1717  0.6652 -1.5168
  151OSM   H15T16783   0.546  -0.553   3.552  0.2372 -0.7806 -1.6950
  151OSM   C16S16784   0.360  -0.538   3.638  0.4433  0.1079  0.2844
  151OSM   H16S16785   0.342  -0.639   3.596 -0.4116  0.7742 -1.0436
  151OSM   H16T16786   0.271  -0.472   3.641  0.2366 -0.0700 -1.0380
  151OSM   C17S16787   0.410  -0.564   3.782 -0.0527 -0.2666 -0.3142
  151OSM   H17S16788   0.484  -0.645   3.771  1.0244  0.8377 -1.5243
  151OSM   H17T16789   0.328  -0.611   3.840  0.1548  0.9763  1.0800
  151OSM   C18S16790   0.484  -0.447   3.849  0.1880 -0.4776 -0.4645
  151OSM   H18S16791   0.569  -0.442   3.777  0.6521  0.0577  0.1201
  151OSM   H18T16792   0.514  -0.473   3.952 -2.5109 -0.9085  0.3074
  151OSM   H18U16793   0.412  -0.362   3.849  0.8107  0.0557  0.0231
  151OSM    C1F16794   0.387   0.654   2.575  0.2014 -0.2190 -0.1002
  151OSM     OF16795   0.313   0.681   2.482  0.6363 -0.1940 -0.3667
  151OSM    C2F16796   0.376   0.698   2.718 -0.3696 -0.4273 -0.3338
  151OSM    H2F16797   0.474   0.723   2.762 -1.2542  1.1005  0.8622
  151OSM    H2G16798   0.336   0.608   2.769  1.8651 -1.9128 -1.0698
  151OSM    C3F16799   0.283   0.818   2.737  0.0104  0.1281 -0.2267
  151OSM    H3F16800   0.184   0.781   2.703  0.6767 -0.8097 -1.2071
  151OSM    H3G16801   0.310   0.908   2.677 -1.5685  1.7082  1.2950
  151OSM    C4F16802   0.269   0.839   2.891 -0.4400  0.0480  0.2876
  151OSM    H4F16803   0.364   0.828   2.949 -0.1680 -0.7922 -0.3137
  151OSM    H4G16804   0.204   0.764   2.941  0.2344 -0.1732  0.8477
  151OSM    C5F16805   0.211   0.972   2.931  0.7706 -0.6494  0.3883
  151OSM    H5F16806   0.127   0.995   2.862  0.6120 -0.1014  0.7594
  151OSM    H5G16807   0.285   1.054   2.926 -0.4690  0.5431  0.8229
  151OSM    C6F16808   0.153   0.974   3.074 -0.2021 -0.0798 -0.5292
  151OSM    H6F16809   0.081   0.890   3.082 -0.3729  0.0055 -1.1044
  151OSM    H6G16810   0.100   1.071   3.067  2.3364  1.3503 -1.3665
  151OSM    C7F16811   0.257   0.975   3.184  0.2806  0.3177 -0.6896
  151OSM    H7F16812   0.299   1.077   3.189  0.4180  0.3678 -2.3204
  151OSM    H7G16813   0.342   0.904   3.172  1.4356  1.8682 -1.9796
  151OSM    C8F16814   0.196   0.935   3.326  0.0354  0.2098 -0.2327
  151OSM    H8F16815   0.153   0.834   3.306  1.0507 -0.1828 -0.5371
  151OSM    H8G16816   0.113   1.007   3.339  1.2442  1.7353 -0.7257
  151OSM    C9F16817   0.291   0.935   3.440 -0.8414 -0.0680  0.2862
  151OSM    H9F16818   0.362   1.019   3.428  0.4106 -0.7476  2.4014
  151OSM   C10F16819   0.293   0.869   3.558  0.1164  0.2087 -0.1110
  151OSM   H10F16820   0.388   0.875   3.613 -0.1561  1.1771  0.2737
  151OSM   C11F16821   0.200   0.752   3.590  0.5908 -0.0532 -0.1480
  151OSM   H11F16822   0.196   0.672   3.514  1.4249 -0.3388  0.0920
  151OSM   H11G16823   0.100   0.800   3.589  0.9145  0.6567  0.4230
  151OSM   C12F16824   0.225   0.705   3.728  0.0099  0.0129 -0.1197
  151OSM   H12F16825   0.133   0.654   3.763 -0.1141  1.4591  1.8093
  151OSM   H12G16826   0.248   0.787   3.799  0.5659 -1.1320  1.0636
  151OSM   C13F16827   0.333   0.601   3.742  0.2127 -0.6595 -0.3455
  151OSM   H13F16828   0.426   0.640   3.694  0.3770  0.7493  1.0384
  151OSM   H13G16829   0.299   0.523   3.670 -1.0817  0.6590 -1.2416
  151OSM   C14F16830   0.367   0.540   3.878 -0.6539 -0.3305  0.3678
  151OSM   H14F16831   0.265   0.507   3.910 -1.2629  1.3783  0.2688
  151OSM   H14G16832   0.407   0.614   3.950  0.8229 -1.6596  0.9720
  151OSM   C15F16833   0.458   0.407   3.888 -0.3307 -0.1489 -0.0348
  151OSM   H15F16834   0.405   0.327   3.832 -0.1200  0.3887 -1.0297
  151OSM   H15G16835   0.450   0.377   3.994 -0.0579  2.2569  0.7053
  151OSM   C16F16836   0.596   0.424   3.837 -0.2033 -0.5499 -0.1142
  151OSM   H16F16837   0.645   0.502   3.899 -0.1601  1.4897 -2.5433
  151OSM   H16G16838   0.604   0.461   3.732  0.1176 -2.6026 -0.8558
  151OSM   C17F16839   0.672   0.290   3.857 -0.4134  0.7800 -0.4438
  151OSM   H17F16840   0.626   0.215   3.790 -2.4305  0.7655  0.8845
  151OSM   H17G16841   0.643   0.256   3.958 -1.9086 -0.1946 -1.1672
  151OSM   C18F16842   0.826   0.294   3.838 -0.4464  0.0812 -1.3165
  151OSM   H18F16843   0.863   0.310   3.734 -0.6437 -3.9639 -2.1607
  151OSM   H18G16844   0.872   0.196   3.861 -1.0549 -0.2036 -1.3139
  151OSM   H18H16845   0.860   0.374   3.907 -2.8654  0.9348 -1.0335
  152OSM      N16846   4.380   5.818   2.269  0.2098  0.5171 -0.4892
  152OSM    C1516847   4.320   5.854   2.137  0.1949  0.2817  0.3413
  152OSM   H15A16848   4.227   5.899   2.168  0.6535  1.8136 -0.4120
  152OSM   H15B16849   4.302   5.773   2.068  0.8826 -0.0269  0.5150
  152OSM   H15C16850   4.376   5.933   2.089 -0.2126  0.3340 -0.0547
  152OSM    C1416851   4.301   5.719   2.339  0.0825  0.2355  0.6802
  152OSM   H14A16852   4.295   5.631   2.277  0.2449  1.2324 -0.8243
  152OSM   H14B16853   4.195   5.739   2.347  0.1306  0.9397 -0.1624
  152OSM   H14C16854   4.344   5.690   2.433  0.4010  3.3046  1.5926
  152OSM    C1316855   4.520   5.775   2.249  0.2316 -0.1877 -0.1178
  152OSM   H13A16856   4.570   5.768   2.344  1.0015  0.7444 -0.4408
  152OSM   H13B16857   4.573   5.859   2.207  0.7006 -0.2507  0.3417
  152OSM   H13C16858   4.530   5.685   2.190  1.5637  0.3677 -0.7672
  152OSM    C1216859   4.381   5.941   2.349 -0.1913  0.1100 -0.0860
  152OSM   H12A16860   4.436   6.012   2.290 -2.8072  1.9651 -0.4450
  152OSM   H12B16861   4.439   5.926   2.440  1.3933  0.3825 -1.0127
  152OSM    C1116862   4.250   6.009   2.382 -0.3113  0.4888  0.9585
  152OSM   H11A16863   4.273   6.094   2.451 -0.5360  0.6120  0.8821
  152OSM   H11B16864   4.190   5.938   2.443  0.0563  0.2707  1.0708
  152OSM      P16865   4.030   6.113   2.280 -0.1290 -0.4794 -0.0556
  152OSM    O1316866   3.996   6.220   2.180 -0.9933 -0.0994  0.0561
  152OSM    O1416867   3.940   5.996   2.285 -0.1501  0.6864  0.6142
  152OSM    O1116868   4.025   6.183   2.422  0.1802 -0.3535 -0.1644
  152OSM    O1216869   4.181   6.063   2.264  0.5009 -0.4403 -0.2638
  152OSM    C1S16870   3.991   6.108   2.538 -0.2333  0.0426  0.2768
  152OSM    H1S16871   4.081   6.082   2.597 -2.4596  2.2342  5.2196
  152OSM    H1T16872   3.938   6.011   2.522  1.9291 -2.2390  4.8787
  152OSM     NF16873   3.857   6.116   2.757 -0.0314  0.2485 -0.0264
  152OSM    HNF16874   3.760   6.100   2.768 -0.1922  0.3797 -1.1073
  152OSM    C2S16875   3.904   6.190   2.643  1.2210 -0.0145  0.4882
  152OSM    H2S16876   3.980   6.262   2.680  0.7232  0.8713 -0.1736
  152OSM    C3S16877   3.786   6.268   2.577 -0.1695 -0.0433 -0.1220
  152OSM    H3S16878   3.704   6.194   2.573  0.5105 -1.0266  2.3177
  152OSM     O316879   3.808   6.320   2.447 -0.1504  0.2679 -0.0423
  152OSM    HO316880   3.899   6.298   2.429  1.1992  4.7946 -0.0086
  152OSM    C4S16881   3.738   6.382   2.660  0.6096 -0.3805 -0.3145
  152OSM    H4S16882   3.658   6.357   2.731  0.3673 -2.2762 -1.2154
  152OSM    C5S16883   3.803   6.498   2.692 -0.2978 -1.0256 -0.4903
  152OSM    H5S16884   3.901   6.504   2.642 -1.0351 -1.7862 -2.1055
  152OSM    C6S16885   3.771   6.585   2.815 -0.6424  0.3625  0.5218
  152OSM    H6S16886   3.732   6.679   2.771 -1.1980  0.6988  1.6934
  152OSM    H6T16887   3.859   6.626   2.870  0.0376  0.6666 -0.7591
  152OSM    C7S16888   3.662   6.535   2.913 -0.3084 -0.1110 -0.6770
  152OSM    H7S16889   3.680   6.429   2.940  0.1954  0.1986  0.2472
  152OSM    H7T16890   3.566   6.533   2.856  0.1783  0.9770 -1.5592
  152OSM    C8S16891   3.652   6.615   3.040  0.3246  0.0599  0.2324
  152OSM    H8S16892   3.630   6.719   3.006  0.5678 -0.1138 -0.4692
  152OSM    H8T16893   3.749   6.605   3.093 -1.3164 -3.8307  2.9287
  152OSM    C9S16894   3.532   6.574   3.127  0.0440 -0.0137 -0.3630
  152OSM    H9S16895   3.532   6.463   3.121  0.8092 -0.0624  0.2673
  152OSM    H9T16896   3.439   6.606   3.075 -1.6875 -2.9639  0.6639
  152OSM   C10S16897   3.553   6.620   3.269  0.3865 -0.1190  0.0571
  152OSM   H10S16898   3.569   6.730   3.275 -1.7753  0.2636 -0.1747
  152OSM   H10T16899   3.643   6.576   3.317  0.2960 -3.0289 -2.1526
  152OSM   C11S16900   3.429   6.589   3.353 -0.2251  0.5439  0.4986
  152OSM   H11S16901   3.423   6.479   3.364 -0.1216  0.4903  0.0398
  152OSM   H11T16902   3.340   6.627   3.298 -0.8160  0.0370  1.0874
  152OSM   C12S16903   3.439   6.646   3.496  0.0961  0.3029  0.0182
  152OSM   H12S16904   3.361   6.592   3.555  0.4845 -0.9729 -0.5898
  152OSM   H12T16905   3.420   6.755   3.502 -1.4916  0.0278  0.4095
  152OSM   C13S16906   3.576   6.612   3.568 -0.0451 -0.1251 -0.3734
  152OSM   H13S16907   3.657   6.661   3.510  0.3324 -0.5395 -0.1993
  152OSM   H13T16908   3.583   6.501   3.573  1.1509 -0.0183  0.8675
  152OSM   C14S16909   3.572   6.665   3.709  0.0861 -0.0708 -0.0505
  152OSM   H14S16910   3.479   6.649   3.767  0.4143 -0.0265  0.5005
  152OSM   H14T16911   3.579   6.775   3.691 -0.4800 -0.3381 -2.1220
  152OSM   C15S16912   3.684   6.610   3.802  0.2530  0.5198 -0.3895
  152OSM   H15S16913   3.694   6.673   3.892  0.2932  1.0801 -0.7813
  152OSM   H15T16914   3.782   6.627   3.753  0.1451  1.2232 -0.3754
  152OSM   C16S16915   3.670   6.459   3.845 -0.5597  0.1379 -0.4719
  152OSM   H16S16916   3.765   6.434   3.896 -0.7218 -2.6832 -1.3703
  152OSM   H16T16917   3.649   6.403   3.751 -0.2047 -0.9175  0.0635
  152OSM   C17S16918   3.547   6.431   3.936  0.3527 -0.4692 -0.2035
  152OSM   H17S16919   3.541   6.320   3.946 -0.3108 -0.5658 -1.4723
  152OSM   H17T16920   3.453   6.464   3.888  0.5475  0.4340  0.0261
  152OSM   C18S16921   3.557   6.500   4.073  0.5568 -0.0978 -0.3309
  152OSM   H18S16922   3.590   6.605   4.065 -0.9288  0.5361  1.2665
  152OSM   H18T16923   3.622   6.440   4.140 -0.5717 -1.2154 -0.1825
  152OSM   H18U16924   3.459   6.497   4.127  0.4097 -1.3036 -0.6287
  152OSM    C1F16925   3.942   6.036   2.822 -0.1269  0.1935  0.5438
  152OSM     OF16926   4.060   6.061   2.838 -0.1015 -0.1459  0.6442
  152OSM    C2F16927   3.877   5.914   2.867  0.1380  0.1146 -0.9890
  152OSM    H2F16928   3.833   5.850   2.788  1.1280 -0.6210 -0.9567
  152OSM    H2G16929   3.791   5.942   2.932  1.7306  1.0396  0.8276
  152OSM    C3F16930   3.975   5.819   2.951  0.3214 -0.0356 -0.0605
  152OSM    H3F16931   4.069   5.801   2.894  1.0795 -0.0551  1.1758
  152OSM    H3G16932   3.942   5.714   2.956  1.6014 -0.8522 -4.4209
  152OSM    C4F16933   4.007   5.879   3.086 -0.0436  0.1174  0.1397
  152OSM    H4F16934   4.005   5.990   3.089  0.3236  0.1611 -0.7109
  152OSM    H4G16935   4.110   5.853   3.117  0.4923  1.5847 -0.3235
  152OSM    C5F16936   3.911   5.824   3.195 -0.1246 -0.4544 -0.0194
  152OSM    H5F16937   3.943   5.719   3.208  2.4694  0.2718  0.0792
  152OSM    H5G16938   3.806   5.822   3.159  0.3325 -2.6085 -1.3832
  152OSM    C6F16939   3.908   5.912   3.327  0.2228  0.2222 -0.1925
  152OSM    H6F16940   3.815   5.885   3.381  0.4547  0.4428  0.3223
  152OSM    H6G16941   3.908   6.019   3.300  1.0476  0.0793 -0.8080
  152OSM    C7F16942   4.038   5.878   3.410 -0.1890 -0.9722 -0.8618
  152OSM    H7F16943   4.121   5.883   3.335  1.3891  0.4849  0.8825
  152OSM    H7G16944   4.038   5.774   3.448  2.8813 -0.0351  2.1534
  152OSM    C8F16945   4.061   5.957   3.546  0.2362 -0.9426  0.0251
  152OSM    H8F16946   4.074   6.061   3.508  0.8727 -0.8415  0.5023
  152OSM    H8G16947   4.158   5.929   3.592  2.2611  2.4108 -1.7629
  152OSM    C9F16948   3.947   5.940   3.642 -0.1035 -0.2276 -0.6759
  152OSM    H9F16949   3.855   5.967   3.588  0.5446  1.2351 -1.1199
  152OSM   C10F16950   3.946   5.875   3.759  0.8765 -0.5936  0.1180
  152OSM   H10F16951   3.853   5.890   3.815 -0.4509 -0.5618 -1.9979
  152OSM   C11F16952   4.067   5.837   3.835 -0.2943 -1.0314 -0.7058
  152OSM   H11F16953   4.138   5.771   3.781  1.2966 -0.0225  0.0894
  152OSM   H11G16954   4.034   5.778   3.924 -0.5880  0.2733  0.0732
  152OSM   C12F16955   4.158   5.963   3.880  0.7095  0.3112 -0.1116
  152OSM   H12F16956   4.188   6.017   3.788  1.2726  0.7045  0.2996
  152OSM   H12G16957   4.248   5.920   3.928  0.9651  0.8514 -0.0982
  152OSM   C13F16958   4.097   6.051   3.985  0.2013  0.5247 -0.8996
  152OSM   H13F16959   4.021   5.987   4.035 -1.0930  0.3672 -2.9511
  152OSM   H13G16960   4.032   6.123   3.931  0.3700 -0.4287 -2.4344
  152OSM   C14F16961   4.184   6.121   4.085 -0.1968  0.3006  0.2439
  152OSM   H14F16962   4.233   6.212   4.045  2.9034 -1.5995 -0.7010
  152OSM   H14G16963   4.277   6.065   4.110  0.1751  1.3956  1.3919
  152OSM   C15F16964   4.106   6.155   4.208  0.0041  0.1467 -0.5967
  152OSM   H15F16965   4.068   6.062   4.258  0.9888  0.3150  0.5197
  152OSM   H15G16966   4.027   6.230   4.185 -0.2499  0.5073  1.2692
  152OSM   C16F16967   4.196   6.220   4.319 -0.1457 -0.1788  0.0569
  152OSM   H16F16968   4.222   6.326   4.298 -0.2897  0.4302  2.7125
  152OSM   H16G16969   4.287   6.158   4.336 -0.5725 -0.8476 -0.0549
  152OSM   C17F16970   4.118   6.230   4.454 -0.2621 -0.1960  0.0606
  152OSM   H17F16971   4.080   6.128   4.474 -1.8871  0.2578 -0.5181
  152OSM   H17G16972   4.035   6.303   4.451 -0.3261 -0.2495  0.5441
  152OSM   C18F16973   4.210   6.269   4.569  0.4756  0.9623 -0.5386
  152OSM   H18F16974   4.268   6.361   4.545  2.6354  0.0911  1.0257
  152OSM   H18G16975   4.278   6.182   4.578  0.4606  1.0529  0.5826
  152OSM   H18H16976   4.157   6.289   4.665  2.2087 -0.4030  0.7650
  153OSM      N16977   3.623   5.947   2.204 -0.2274 -0.0083  0.4178
  153OSM    C1516978   3.686   6.060   2.131  0.1320 -0.6399 -0.6595
  153OSM   H15A16979   3.702   6.036   2.027 -0.2377 -2.8734 -0.2422
  153OSM   H15B16980   3.788   6.067   2.167  0.2544 -0.3469 -1.0540
  153OSM   H15C16981   3.633   6.154   2.142 -0.4632 -0.9524 -0.8294
  153OSM    C1416982   3.494   5.919   2.124 -0.3381 -0.2286 -0.2381
  153OSM   H14A16983   3.514   5.833   2.060  0.8429 -0.9821  1.0744
  153OSM   H14B16984   3.460   6.005   2.070 -0.7844 -2.2883 -3.5379
  153OSM   H14C16985   3.417   5.876   2.186 -0.7887 -0.3584 -0.8796
  153OSM    C1316986   3.705   5.827   2.200  0.2222  0.2270  0.1207
  153OSM   H13A16987   3.809   5.851   2.216  0.3114 -0.5323  0.7275
  153OSM   H13B16988   3.703   5.786   2.100 -0.8219 -0.3186  0.3554
  153OSM   H13C16989   3.671   5.742   2.256 -1.2140 -0.3895 -1.6001
  153OSM    C1216990   3.593   5.980   2.345  0.0878  0.2539  0.0404
  153OSM   H12A16991   3.514   6.054   2.352  1.3457  1.5991  0.4761
  153OSM   H12B16992   3.681   6.027   2.388  0.5031  0.7947 -1.3523
  153OSM    C1116993   3.544   5.870   2.441 -0.1552  0.0684  0.4328
  153OSM   H11A16994   3.561   5.904   2.546  0.9337  2.2906 -0.3746
  153OSM   H11B16995   3.615   5.784   2.437 -0.6566 -0.3172 -2.2397
  153OSM      P16996   3.292   5.906   2.433  0.2083  0.0429 -0.0882
  153OSM    O1316997   3.238   5.933   2.297  0.5136 -0.0207  0.0115
  153OSM    O1416998   3.203   5.838   2.530  0.5942  0.0576 -0.5465
  153OSM    O1116999   3.344   6.043   2.496  0.0306  0.0212 -0.1015
  153OSM    O1217000   3.419   5.817   2.403 -0.6945  0.0184 -0.0968
  153OSM    C1S17001   3.336   6.063   2.643  0.7916  0.1122  0.3391
  153OSM    H1S17002   3.414   5.995   2.683 -0.3192 -2.5749 -1.6983
  153OSM    H1T17003   3.239   6.036   2.689  0.8960  3.0896  2.5837
  153OSM     NF17004   3.367   6.218   2.827 -0.1249 -0.2962 -0.4104
  153OSM    HNF17005   3.282   6.243   2.873 -0.5084 -2.2830  0.0764
  153OSM    C2S17006   3.364   6.211   2.685 -0.1452 -0.2653 -0.4838
  153OSM    H2S17007   3.463   6.239   2.644 -0.7896  0.1532 -1.8205
  153OSM    C3S17008   3.258   6.300   2.619 -0.1635 -0.6917 -0.1970
  153OSM    H3S17009   3.159   6.262   2.651 -0.9123  1.5907  0.4505
  153OSM     O317010   3.264   6.289   2.477 -0.4145 -0.0698 -0.0659
  153OSM    HO317011   3.285   6.197   2.464  0.0526 -0.0658  0.5537
  153OSM    C4S17012   3.280   6.438   2.669 -0.9324 -0.8775  0.1560
  153OSM    H4S17013   3.235   6.449   2.769  2.2999  2.6486  1.4429
  153OSM    C5S17014   3.337   6.548   2.612  1.0671  0.1386 -0.4221
  153OSM    H5S17015   3.375   6.547   2.509 -1.1463  2.1662 -1.3752
  153OSM    C6S17016   3.355   6.682   2.679  0.3339 -1.1180  0.1472
  153OSM    H6S17017   3.323   6.759   2.605  0.1273 -1.8648 -0.5626
  153OSM    H6T17018   3.465   6.692   2.694  0.4175  0.1230 -1.0646
  153OSM    C7S17019   3.280   6.702   2.814  0.2966 -0.1616 -0.0659
  153OSM    H7S17020   3.314   6.629   2.890  1.6040 -0.6387 -1.0752
  153OSM    H7T17021   3.172   6.677   2.805  0.1772  0.5423 -0.7397
  153OSM    C8S17022   3.283   6.842   2.872 -0.1295  0.4525  0.7431
  153OSM    H8S17023   3.233   6.923   2.814 -0.9051 -0.2800  0.3543
  153OSM    H8T17024   3.382   6.891   2.877 -0.6609  1.6254  0.1921
  153OSM    C9S17025   3.211   6.842   3.011 -0.0385 -0.8040  0.2408
  153OSM    H9S17026   3.250   6.761   3.078 -1.5758 -0.1336  2.0403
  153OSM    H9T17027   3.106   6.819   2.985  0.3712 -1.6225 -0.7509
  153OSM   C10S17028   3.219   6.972   3.096  0.3271 -0.3035 -0.0804
  153OSM   H10S17029   3.162   7.050   3.042  1.6019 -1.4255 -3.2457
  153OSM   H10T17030   3.325   7.005   3.090  0.6688 -0.9291  1.8112
  153OSM   C11S17031   3.184   6.946   3.243  0.1473 -0.4768 -0.1119
  153OSM   H11S17032   3.255   6.908   3.318 -1.4966 -0.7864  1.3617
  153OSM   H11T17033   3.102   6.871   3.246 -1.1884  0.9392  0.0518
  153OSM   C12S17034   3.128   7.070   3.316 -0.5751  0.0776 -0.0246
  153OSM   H12S17035   3.039   7.121   3.273 -0.5281  1.1375  1.0477
  153OSM   H12T17036   3.211   7.144   3.317  0.7968 -1.4085 -0.0696
  153OSM   C13S17037   3.098   7.022   3.456  0.5703  0.3126  0.0787
  153OSM   H13S17038   3.184   7.001   3.523 -0.3999 -0.3763  1.1648
  153OSM   H13T17039   3.048   6.923   3.441  1.9135 -0.5448  1.0436
  153OSM   C14S17040   3.010   7.137   3.524 -0.3871  0.7770  0.4710
  153OSM   H14S17041   2.927   7.155   3.453 -0.7340 -1.3972  0.2410
  153OSM   H14T17042   3.070   7.229   3.537 -2.6599  2.4562 -0.3152
  153OSM   C15S17043   2.958   7.088   3.650 -0.1601 -0.6079  0.5349
  153OSM   H15S17044   3.036   7.041   3.713  0.0695  0.0902  0.7804
  153OSM   H15T17045   2.883   7.009   3.630 -0.5488 -0.2120  0.4099
  153OSM   C16S17046   2.891   7.197   3.743 -0.0262 -0.5311 -0.5092
  153OSM   H16S17047   2.802   7.232   3.686  0.8731 -0.3722 -1.8802
  153OSM   H16T17048   2.954   7.284   3.769  1.1336 -2.1945  2.8433
  153OSM   C17S17049   2.840   7.124   3.872 -0.1691  0.0866  0.0667
  153OSM   H17S17050   2.922   7.063   3.916 -1.1860 -1.3099  0.0809
  153OSM   H17T17051   2.762   7.060   3.828 -0.8800  1.0539 -0.1243
  153OSM   C18S17052   2.759   7.210   3.970 -0.6490 -0.0344  0.4138
  153OSM   H18S17053   2.822   7.289   4.015 -1.0480  0.3607  0.2824
  153OSM   H18T17054   2.703   7.148   4.043 -0.3684 -1.6896 -0.6984
  153OSM   H18U17055   2.688   7.273   3.913  1.1609  0.7063 -1.1557
  153OSM    C1F17056   3.474   6.180   2.898 -0.4502  0.4187 -0.3568
  153OSM     OF17057   3.573   6.145   2.834 -0.5694 -0.2249 -0.5719
  153OSM    C2F17058   3.467   6.187   3.045  0.5161 -0.1893  0.9127
  153OSM    H2F17059   3.383   6.124   3.079  1.1281 -0.7059  1.4851
  153OSM    H2G17060   3.440   6.291   3.073 -1.5605 -0.7324  1.0738
  153OSM    C3F17061   3.597   6.142   3.100 -0.4499  0.4280 -0.4234
  153OSM    H3F17062   3.689   6.191   3.062 -0.8006  0.4224 -1.3059
  153OSM    H3G17063   3.613   6.034   3.079 -0.6548  0.9443 -3.8291
  153OSM    C4F17064   3.607   6.176   3.257  0.3316 -0.0644 -0.5972
  153OSM    H4F17065   3.572   6.279   3.278  3.2987  0.7368  0.9973
  153OSM    H4G17066   3.713   6.175   3.290  0.1495 -0.2221 -0.0115
  153OSM    C5F17067   3.535   6.075   3.354 -0.8582  0.3179 -0.1842
  153OSM    H5F17068   3.579   5.974   3.334  0.0979  0.6415  0.2399
  153OSM    H5G17069   3.427   6.080   3.328 -1.4488 -3.1166  1.0579
  153OSM    C6F17070   3.555   6.109   3.500  0.9279 -0.1064  0.1246
  153OSM    H6F17071   3.540   6.217   3.523  1.8018  0.5048 -1.8740
  153OSM    H6G17072   3.659   6.098   3.537  0.6542  0.0657  0.9489
  153OSM    C7F17073   3.454   6.030   3.585  0.3525 -0.0668  0.7026
  153OSM    H7F17074   3.473   5.920   3.580  1.2047  0.0649  1.0122
  153OSM    H7G17075   3.352   6.050   3.546 -0.4883 -0.6363  2.4992
  153OSM    C8F17076   3.479   6.087   3.722 -0.5715  0.2806 -0.4838
  153OSM    H8F17077   3.445   6.193   3.725 -0.5968  0.2899  2.8438
  153OSM    H8G17078   3.586   6.081   3.749 -0.9959 -0.4232  1.1926
  153OSM    C9F17079   3.394   6.017   3.831 -0.8524 -0.5068 -0.4493
  153OSM    H9F17080   3.289   6.050   3.840 -0.3413  0.9201  0.4775
  153OSM   C10F17081   3.436   5.933   3.925  0.3151 -0.6259  0.2228
  153OSM   H10F17082   3.365   5.896   4.000  0.9165 -0.3350  0.9361
  153OSM   C11F17083   3.575   5.888   3.937 -0.2415  0.4005  0.8117
  153OSM   H11F17084   3.649   5.959   3.896  1.1224 -0.3156  1.9319
  153OSM   H11G17085   3.589   5.789   3.889  0.1515  0.1811  1.3613
  153OSM   C12F17086   3.620   5.880   4.087 -0.6954 -0.2523 -0.6673
  153OSM   H12F17087   3.718   5.828   4.079 -1.1728 -1.0631 -1.3912
  153OSM   H12G17088   3.547   5.816   4.143  0.3863 -0.5884  0.3991
  153OSM   C13F17089   3.656   6.020   4.153  0.1838  0.7275 -0.7079
  153OSM   H13F17090   3.576   6.097   4.149 -0.6475  0.4536  3.9864
  153OSM   H13G17091   3.733   6.056   4.082 -1.3492  0.6060 -2.4976
  153OSM   C14F17092   3.710   6.012   4.300  0.2573 -0.2657  0.5553
  153OSM   H14F17093   3.619   5.985   4.357  1.0775 -2.8972  0.7603
  153OSM   H14G17094   3.751   6.111   4.330 -0.3288  0.7486 -1.7172
  153OSM   C15F17095   3.813   5.903   4.319  0.2836  0.3784 -0.2848
  153OSM   H15F17096   3.882   5.920   4.234 -3.7940  3.5862 -3.3739
  153OSM   H15G17097   3.760   5.806   4.315  1.9967 -0.6848  1.3518
  153OSM   C16F17098   3.874   5.910   4.460 -0.7059 -0.0432 -0.1269
  153OSM   H16F17099   3.790   5.899   4.533 -0.8573 -0.7889 -0.4039
  153OSM   H16G17100   3.927   6.006   4.480 -1.0702 -0.3114  2.5609
  153OSM   C17F17101   3.963   5.793   4.485  0.3222 -0.2621 -0.0352
  153OSM   H17F17102   4.021   5.783   4.390  0.4847  1.3175 -0.1317
  153OSM   H17G17103   3.906   5.697   4.490  1.1981 -0.8582 -1.0167
  153OSM   C18F17104   4.068   5.804   4.600 -0.3721  0.4776 -0.0821
  153OSM   H18F17105   4.011   5.815   4.694  0.7810  2.5426  0.4491
  153OSM   H18G17106   4.122   5.901   4.598 -1.0183  0.9012  1.4453
  153OSM   H18H17107   4.133   5.715   4.612  1.2575  1.6993  0.4723
  154OSM      N17108   2.799   5.914   2.356 -0.5175 -0.4337  0.8355
  154OSM    C1517109   2.817   5.777   2.304 -0.3906 -0.1926 -0.2253
  154OSM   H15A17110   2.910   5.773   2.249 -2.1628 -1.0308 -3.4414
  154OSM   H15B17111   2.725   5.745   2.257 -2.2256  1.4688  1.9972
  154OSM   H15C17112   2.819   5.700   2.380 -1.8203 -0.8873 -0.8370
  154OSM    C1417113   2.920   5.944   2.438 -0.2548 -0.0402 -0.2950
  154OSM   H14A17114   2.945   5.875   2.518 -0.7107 -1.3015 -1.2020
  154OSM   H14B17115   2.912   6.043   2.480 -2.1226 -1.2652  2.5856
  154OSM   H14C17116   3.012   5.934   2.382 -1.2114 -0.9997 -1.7574
  154OSM    C1317117   2.807   6.011   2.245 -0.5106 -0.3635 -0.9903
  154OSM   H13A17118   2.726   6.003   2.175  0.0600  0.9361 -1.8264
  154OSM   H13B17119   2.901   6.008   2.194  0.5472 -2.4414  0.8878
  154OSM   H13C17120   2.808   6.110   2.289  0.1649 -1.4698  1.7418
  154OSM    C1217121   2.675   5.934   2.432  0.2939  0.1290  0.0927
  154OSM   H12A17122   2.588   5.912   2.371 -0.0512 -0.8899  0.9032
  154OSM   H12B17123   2.664   6.040   2.451 -1.3624  0.0565 -0.2714
  154OSM    C1117124   2.658   5.858   2.565  0.7347  0.9283  0.2271
  154OSM   H11A17125   2.557   5.884   2.605 -1.1061 -2.8759 -1.3592
  154OSM   H11B17126   2.736   5.892   2.635  0.8372  1.9590 -0.3798
  154OSM      P17127   2.736   5.622   2.644 -0.4184  0.2664 -0.0965
  154OSM    O1317128   2.673   5.486   2.652 -0.5347  0.0718 -0.7140
  154OSM    O1417129   2.880   5.631   2.618  0.3288 -0.0226 -0.7343
  154OSM    O1117130   2.716   5.687   2.789 -0.0784 -0.4981 -0.4132
  154OSM    O1217131   2.659   5.711   2.547 -0.3959 -0.2871  0.8250
  154OSM    C1S17132   2.588   5.684   2.855  1.2219  0.2683 -0.9751
  154OSM    H1S17133   2.524   5.597   2.830 -0.7411  0.6920  1.9530
  154OSM    H1T17134   2.534   5.780   2.837  0.6577  0.3788  1.0520
  154OSM     NF17135   2.469   5.614   3.058  0.6997  0.7583  0.2353
  154OSM    HNF17136   2.406   5.683   3.094 -3.2415 -2.5740  0.4365
  154OSM    C2S17137   2.592   5.657   3.010 -0.0775 -0.6046  0.1348
  154OSM    H2S17138   2.674   5.586   3.036  1.1688  2.0226  4.3130
  154OSM    C3S17139   2.637   5.789   3.080 -0.2763  0.4108  0.1854
  154OSM    H3S17140   2.557   5.862   3.054 -1.5070 -0.7330  0.6122
  154OSM     O317141   2.766   5.824   3.029 -1.1626  0.1801  0.3516
  154OSM    HO317142   2.775   5.761   2.958  2.4745  0.1935  0.6269
  154OSM    C4S17143   2.657   5.788   3.231 -0.4951 -0.2522  0.4253
  154OSM    H4S17144   2.741   5.724   3.261 -1.5221 -1.3294  1.1075
  154OSM    C5S17145   2.595   5.871   3.316  0.4155 -0.4444  0.2455
  154OSM    H5S17146   2.517   5.944   3.290  0.6017  0.5592  2.3366
  154OSM    C6S17147   2.650   5.880   3.459 -0.8449 -1.2662  0.0711
  154OSM    H6S17148   2.695   5.980   3.479 -1.9315 -0.5895 -0.7451
  154OSM    H6T17149   2.739   5.815   3.473  1.1902  0.7495 -2.4182
  154OSM    C7S17150   2.540   5.862   3.565 -0.1226 -0.4442 -0.4980
  154OSM    H7S17151   2.506   5.758   3.542  1.9264 -1.6896  1.6833
  154OSM    H7T17152   2.454   5.929   3.543  0.5268  0.9714  1.0965
  154OSM    C8S17153   2.588   5.880   3.707  0.0294  0.0763  0.3369
  154OSM    H8S17154   2.612   5.988   3.717 -0.3646  0.1321  0.7232
  154OSM    H8T17155   2.683   5.825   3.722  0.9179  1.2171 -0.9035
  154OSM    C9S17156   2.490   5.834   3.810  0.2326  1.1403  0.7159
  154OSM    H9S17157   2.473   5.725   3.797  1.4418  0.8337  1.5543
  154OSM    H9T17158   2.392   5.885   3.798 -0.3086 -0.2232 -1.1147
  154OSM   C10S17159   2.540   5.850   3.953 -1.1754  0.4727  0.6435
  154OSM   H10S17160   2.637   5.798   3.966 -2.1023 -1.4501  0.1112
  154OSM   H10T17161   2.469   5.803   4.023 -0.6569 -1.3532 -0.0167
  154OSM   C11S17162   2.541   5.998   3.995 -0.2268 -0.0549  0.6977
  154OSM   H11S17163   2.466   6.053   3.935  0.7613  1.5412  0.8650
  154OSM   H11T17164   2.640   6.035   3.960 -0.9623  0.7334 -0.6127
  154OSM   C12S17165   2.508   6.018   4.144 -0.5202  0.1298 -0.0232
  154OSM   H12S17166   2.414   5.963   4.166  0.1772 -0.5272  1.4353
  154OSM   H12T17167   2.499   6.126   4.167  0.6023  0.0289  0.9897
  154OSM   C13S17168   2.629   5.973   4.228  0.1506 -0.3523 -0.9029
  154OSM   H13S17169   2.722   6.028   4.202 -0.2634  1.3509  0.9807
  154OSM   H13T17170   2.652   5.866   4.208 -3.6673 -1.7024  0.9878
  154OSM   C14S17171   2.597   5.983   4.372  0.0524  0.2866 -0.1792
  154OSM   H14S17172   2.500   5.933   4.390  0.5528 -0.4178  0.6354
  154OSM   H14T17173   2.593   6.089   4.403 -0.6884  0.2019  0.0358
  154OSM   C15S17174   2.702   5.910   4.464  0.4203  0.1548  0.4569
  154OSM   H15S17175   2.800   5.956   4.441 -0.1241  1.8508  1.3764
  154OSM   H15T17176   2.716   5.800   4.451  3.1483  0.3118  1.3727
  154OSM   C16S17177   2.666   5.936   4.608  0.1794  0.4950  0.2875
  154OSM   H16S17178   2.587   5.859   4.625  3.0704 -2.8698 -0.2810
  154OSM   H16T17179   2.620   6.035   4.629  0.5733  0.7220  0.1025
  154OSM   C17S17180   2.776   5.886   4.710  0.4836 -0.2371  0.2480
  154OSM   H17S17181   2.815   5.784   4.688  4.2157  0.9715  0.5295
  154OSM   H17T17182   2.722   5.869   4.805 -1.4954 -1.6503 -1.0281
  154OSM   C18S17183   2.890   5.986   4.729 -0.2582  0.5220 -0.0721
  154OSM   H18S17184   2.965   5.952   4.804  0.6994  0.1208 -1.1821
  154OSM   H18T17185   2.858   6.091   4.747 -0.5201  1.1399 -3.5190
  154OSM   H18U17186   2.944   6.003   4.633  1.0955 -1.3805  0.2825
  154OSM    C1F17187   2.414   5.498   3.031  0.1398 -0.5706 -0.5192
  154OSM     OF17188   2.482   5.407   2.987 -0.0496  0.6546 -0.2619
  154OSM    C2F17189   2.265   5.470   3.066 -0.5338 -0.8106 -0.4125
  154OSM    H2F17190   2.200   5.494   2.980  1.0903 -0.5114 -1.6107
  154OSM    H2G17191   2.228   5.546   3.139 -3.1240 -1.8542 -0.5293
  154OSM    C3F17192   2.255   5.332   3.143 -0.1933 -0.6470 -0.1588
  154OSM    H3F17193   2.292   5.252   3.075 -2.1766 -1.0100 -0.8613
  154OSM    H3G17194   2.148   5.304   3.156  0.1331 -0.8838  2.8213
  154OSM    C4F17195   2.322   5.314   3.286 -0.1261  0.2461  0.0036
  154OSM    H4F17196   2.431   5.306   3.267  0.1875  0.2447  1.6912
  154OSM    H4G17197   2.277   5.220   3.324 -1.3456  0.6592 -0.3599
  154OSM    C5F17198   2.280   5.424   3.389 -0.1376 -0.0369  0.2147
  154OSM    H5F17199   2.182   5.465   3.354 -0.2373 -0.3372  0.1385
  154OSM    H5G17200   2.353   5.507   3.377 -0.0709  0.5082  3.4502
  154OSM    C6F17201   2.279   5.378   3.533 -0.1399  0.0438 -0.3201
  154OSM    H6F17202   2.384   5.368   3.566 -0.6398  1.3032  1.8698
  154OSM    H6G17203   2.252   5.271   3.539 -0.7676  0.2643  2.5557
  154OSM    C7F17204   2.205   5.471   3.632  0.2711  0.2806  0.8435
  154OSM    H7F17205   2.250   5.570   3.610  1.0600 -0.4019 -0.8090
  154OSM    H7G17206   2.235   5.427   3.729  2.5741  0.0595  0.1153
  154OSM    C8F17207   2.046   5.476   3.624 -0.3136 -0.1346  0.0791
  154OSM    H8F17208   2.015   5.369   3.632 -0.5712 -0.4133 -3.0800
  154OSM    H8G17209   2.022   5.521   3.525  0.1703 -1.6025 -0.7519
  154OSM    C9F17210   1.988   5.563   3.736 -0.2090  0.8184  0.4608
  154OSM    H9F17211   2.023   5.666   3.720 -1.0826  1.1109  0.3487
  154OSM   C10F17212   1.914   5.541   3.852  0.2665 -0.5306 -0.4599
  154OSM   H10F17213   1.867   5.625   3.905  0.1684 -1.2284  0.5896
  154OSM   C11F17214   1.849   5.416   3.895  0.5752  1.0867  0.4519
  154OSM   H11F17215   1.912   5.331   3.861  0.1145  0.5303  0.9674
  154OSM   H11G17216   1.751   5.418   3.843  2.0815  0.5132 -2.6481
  154OSM   C12F17217   1.828   5.404   4.052  0.5943  0.3573  0.0620
  154OSM   H12F17218   1.784   5.498   4.092 -0.5795  0.9590 -2.4429
  154OSM   H12G17219   1.927   5.391   4.101  0.6991 -2.3054 -0.7075
  154OSM   C13F17220   1.729   5.293   4.101 -0.4685 -0.3929  0.8577
  154OSM   H13F17221   1.625   5.330   4.086  0.6061  1.7536 -2.2250
  154OSM   H13G17222   1.749   5.284   4.210  3.7361 -3.0042  0.0913
  154OSM   C14F17223   1.744   5.160   4.034  0.1576  0.3839 -0.0503
  154OSM   H14F17224   1.854   5.142   4.039  0.0255 -0.4423  0.0984
  154OSM   H14G17225   1.703   5.147   3.932 -1.3050  2.0209  0.2858
  154OSM   C15F17226   1.674   5.045   4.114  0.3697 -0.4248 -0.1577
  154OSM   H15F17227   1.566   5.069   4.118  0.4774 -0.1382  2.5498
  154OSM   H15G17228   1.720   5.038   4.215  1.3688 -1.1386 -0.6473
  154OSM   C16F17229   1.690   4.911   4.037 -0.4464 -0.1338 -0.0635
  154OSM   H16F17230   1.696   4.923   3.927 -1.2392  1.7605  0.0453
  154OSM   H16G17231   1.617   4.833   4.066  1.4537 -1.6714  0.7586
  154OSM   C17F17232   1.829   4.840   4.072 -0.3455 -0.1658  0.3364
  154OSM   H17F17233   1.921   4.901   4.057  0.3680 -0.4963  2.9184
  154OSM   H17G17234   1.835   4.750   4.007 -0.2614  1.3451 -1.8649
  154OSM   C18F17235   1.836   4.786   4.217  0.1519 -0.1947  0.4500
  154OSM   H18F17236   1.909   4.839   4.281  3.8507 -3.3008 -0.8054
  154OSM   H18G17237   1.895   4.691   4.217  2.6336  1.2456  1.2829
  154OSM   H18H17238   1.732   4.770   4.252  0.0003  0.6286  0.3860
  155OSM      N17239   5.908   2.580   2.055  0.1894 -0.0936  0.0150
  155OSM    C1517240   5.794   2.656   1.996  0.1924  0.2087  0.2615
  155OSM   H15A17241   5.739   2.585   1.937  1.0315 -0.4878  0.2971
  155OSM   H15B17242   5.815   2.746   1.941 -0.7538  2.3563  3.1711
  155OSM   H15C17243   5.734   2.690   2.080  0.3263 -1.0032  0.8742
  155OSM    C1417244   5.853   2.468   2.131  0.6211 -0.3132 -0.2800
  155OSM   H14A17245   5.783   2.408   2.074 -1.1436  0.2250  1.2333
  155OSM   H14B17246   5.798   2.494   2.220 -2.5370 -2.0987 -1.5347
  155OSM   H14C17247   5.934   2.403   2.163  0.9575  1.3036  2.4229
  155OSM    C1317248   5.989   2.520   1.948  0.4468 -0.3352  0.4242
  155OSM   H13A17249   6.083   2.487   1.988 -0.0747  1.7948  3.7717
  155OSM   H13B17250   6.026   2.584   1.869 -0.9078 -0.8646 -0.7067
  155OSM   H13C17251   5.930   2.445   1.897  2.1429 -1.5116  0.1125
  155OSM    C1217252   5.991   2.677   2.138 -0.0872 -0.3063  0.2564
  155OSM   H12A17253   6.027   2.752   2.070 -0.9426  1.3274  1.5242
  155OSM   H12B17254   6.075   2.617   2.169  0.9874 -0.3303 -2.4516
  155OSM    C1117255   5.919   2.756   2.249  1.0443  0.0054 -0.6662
  155OSM   H11A17256   5.987   2.807   2.321 -0.2227  2.5653 -1.1641
  155OSM   H11B17257   5.855   2.684   2.306  0.3889 -0.3282 -1.7831
  155OSM      P17258   5.903   3.006   2.145 -0.0858 -0.5604 -0.0260
  155OSM    O1317259   6.044   3.005   2.185 -0.1624  0.2077 -0.3064
  155OSM    O1417260   5.865   3.038   2.007  0.4571 -0.2196 -0.3047
  155OSM    O1117261   5.830   3.105   2.243  0.7171 -0.4948  0.6838
  155OSM    O1217262   5.839   2.868   2.193 -0.3850 -0.1368  0.4355
  155OSM    C1S17263   5.852   3.098   2.384 -0.3810 -0.6474  0.5201
  155OSM    H1S17264   5.879   2.999   2.427  2.5982  0.6370  1.8671
  155OSM    H1T17265   5.768   3.144   2.441  0.0363  1.0127 -0.1376
  155OSM     NF17266   5.995   3.159   2.573 -0.3222  0.3545 -0.5760
  155OSM    HNF17267   5.980   3.248   2.615  2.1949  0.6713 -0.1818
  155OSM    C2S17268   5.979   3.185   2.427  0.0912 -0.0475 -0.5186
  155OSM    H2S17269   6.072   3.144   2.383 -0.1525  1.0737 -2.1833
  155OSM    C3S17270   5.958   3.339   2.386  0.1877  0.4807  0.0658
  155OSM    H3S17271   5.863   3.371   2.434 -0.6590  0.7248 -1.6877
  155OSM     O317272   5.940   3.363   2.245  0.2521  0.6683 -0.3436
  155OSM    HO317273   5.904   3.287   2.200 -1.7963  1.8350 -0.7924
  155OSM    C4S17274   6.062   3.437   2.440 -0.4972  0.8427 -0.6019
  155OSM    H4S17275   6.031   3.496   2.527  3.6376  1.7708  0.4112
  155OSM    C5S17276   6.187   3.457   2.391 -0.1542  0.1571 -0.4657
  155OSM    H5S17277   6.213   3.414   2.293 -0.8090 -0.3916 -0.4084
  155OSM    C6S17278   6.283   3.562   2.431  0.2677  0.7433 -0.1183
  155OSM    H6S17279   6.290   3.639   2.351 -1.8279  1.2399  0.1277
  155OSM    H6T17280   6.381   3.509   2.432 -1.1593 -2.1105  0.3044
  155OSM    C7S17281   6.266   3.649   2.553 -0.4854 -0.9401 -0.2801
  155OSM    H7S17282   6.273   3.578   2.638  2.4291 -0.1525  0.2714
  155OSM    H7T17283   6.167   3.699   2.556  0.2232  0.5436 -0.3652
  155OSM    C8S17284   6.378   3.748   2.564  0.4787 -0.5834 -0.2955
  155OSM    H8S17285   6.371   3.821   2.480 -0.5842  0.0845  0.3488
  155OSM    H8T17286   6.480   3.704   2.564  0.3199 -1.0760  2.1397
  155OSM    C9S17287   6.374   3.822   2.696  0.7906  0.5305  0.5303
  155OSM    H9S17288   6.279   3.877   2.713  1.0252 -0.1486  5.4802
  155OSM    H9T17289   6.461   3.891   2.704  0.2694  1.0455  2.0543
  155OSM   C10S17290   6.376   3.739   2.828 -0.3218  0.6002 -1.0093
  155OSM   H10S17291   6.463   3.670   2.827 -0.0751  0.8799 -0.1614
  155OSM   H10T17292   6.288   3.673   2.826 -0.2424  0.4231 -4.3832
  155OSM   C11S17293   6.366   3.826   2.950  0.4029  0.9909 -0.6759
  155OSM   H11S17294   6.258   3.852   2.954 -0.0503 -0.6853  4.0089
  155OSM   H11T17295   6.428   3.917   2.937  0.1302  1.2765 -0.0049
  155OSM   C12S17296   6.396   3.751   3.076 -0.6185 -0.1750 -1.1280
  155OSM   H12S17297   6.496   3.703   3.066  0.0120  0.9606 -0.5268
  155OSM   H12T17298   6.325   3.667   3.085 -0.8086 -0.1901 -2.5852
  155OSM   C13S17299   6.397   3.851   3.198 -0.0312 -0.9595 -0.2128
  155OSM   H13S17300   6.295   3.890   3.217 -0.4638 -2.2605  0.2299
  155OSM   H13T17301   6.457   3.945   3.193  1.8489 -2.1515 -1.4397
  155OSM   C14S17302   6.450   3.776   3.324  0.0182 -0.4454 -0.1487
  155OSM   H14S17303   6.555   3.748   3.302 -0.5872 -1.2610 -2.1591
  155OSM   H14T17304   6.395   3.683   3.350 -0.9247  0.1467  0.0207
  155OSM   C15S17305   6.445   3.871   3.449  0.1291  0.5977  1.0034
  155OSM   H15S17306   6.355   3.931   3.428 -0.5601 -0.5461  0.5991
  155OSM   H15T17307   6.536   3.935   3.445 -1.5452  3.0707 -2.0990
  155OSM   C16S17308   6.404   3.795   3.571 -1.0239 -0.2926 -1.1829
  155OSM   H16S17309   6.483   3.720   3.592  0.3053  1.1075 -1.0257
  155OSM   H16T17310   6.305   3.746   3.564 -0.6315 -1.5553  1.1972
  155OSM   C17S17311   6.404   3.883   3.697  0.1358  0.6476 -0.1714
  155OSM   H17S17312   6.320   3.954   3.690 -2.3244 -2.2236 -2.9501
  155OSM   H17T17313   6.500   3.939   3.697 -0.2274  1.2948 -1.1151
  155OSM   C18S17314   6.388   3.804   3.823 -0.4612  0.8514 -0.0788
  155OSM   H18S17315   6.394   3.866   3.914  0.4752 -1.3066  1.4158
  155OSM   H18T17316   6.464   3.723   3.815  2.1035  3.2255 -1.5616
  155OSM   H18U17317   6.286   3.760   3.820  0.3473 -1.0894 -1.5158
  155OSM    C1F17318   6.025   3.044   2.644  0.3446 -0.4623 -0.3132
  155OSM     OF17319   6.058   2.936   2.592  0.0578  0.3094  0.4083
  155OSM    C2F17320   6.028   3.065   2.793 -0.3641  0.9433  1.1291
  155OSM    H2F17321   5.963   3.151   2.821 -1.4726  0.8636 -0.9668
  155OSM    H2G17322   6.128   3.097   2.829 -0.5600  1.1627  1.4901
  155OSM    C3F17323   5.996   2.930   2.855  0.1567  0.4505 -0.5939
  155OSM    H3F17324   6.081   2.861   2.833 -0.6405 -0.6782 -0.2426
  155OSM    H3G17325   5.905   2.877   2.820  1.2282 -2.0238  0.1201
  155OSM    C4F17326   5.992   2.936   3.014 -0.2892 -0.3087 -0.8937
  155OSM    H4F17327   6.061   3.017   3.046 -1.3498 -0.2801  1.4800
  155OSM    H4G17328   6.014   2.840   3.065 -4.1320 -1.6671 -1.4684
  155OSM    C5F17329   5.849   2.974   3.072 -0.3147 -0.3229 -0.4780
  155OSM    H5F17330   5.787   2.902   3.015 -1.4242 -0.0323  0.3446
  155OSM    H5G17331   5.813   3.073   3.036  0.5584 -0.0021 -0.4965
  155OSM    C6F17332   5.829   2.959   3.223 -0.1088 -0.3216 -0.7452
  155OSM    H6F17333   5.861   2.855   3.246 -2.8162 -0.6313  2.4069
  155OSM    H6G17334   5.724   2.970   3.255  0.3937 -0.2311  0.9621
  155OSM    C7F17335   5.927   3.045   3.300 -0.4201 -0.7445 -0.4239
  155OSM    H7F17336   6.026   2.997   3.283 -0.9338 -1.5926 -1.1766
  155OSM    H7G17337   5.905   3.043   3.408 -2.2412  1.5872 -0.6663
  155OSM    C8F17338   5.930   3.196   3.263 -0.2197  0.1032  0.2172
  155OSM    H8F17339   5.923   3.209   3.153 -1.9494  4.3458  0.6379
  155OSM    H8G17340   6.029   3.231   3.302 -0.5511 -1.0341  2.2451
  155OSM    C9F17341   5.821   3.275   3.323  0.9265  0.0199 -0.4034
  155OSM    H9F17342   5.725   3.278   3.268  0.9323 -1.1281 -0.5077
  155OSM   C10F17343   5.829   3.342   3.441  0.2017 -0.0566 -0.4814
  155OSM   H10F17344   5.731   3.374   3.478 -0.2092 -1.9560  0.1532
  155OSM   C11F17345   5.940   3.323   3.537  0.2126  0.4527 -0.3031
  155OSM   H11F17346   6.001   3.416   3.540 -0.3490  0.8215 -0.0775
  155OSM   H11G17347   6.010   3.242   3.508  0.0874 -0.1134  0.9417
  155OSM   C12F17348   5.895   3.309   3.683  1.5047 -0.3926 -0.1492
  155OSM   H12F17349   5.978   3.301   3.756  0.8360  1.7673  0.9316
  155OSM   H12G17350   5.834   3.217   3.695  1.7081 -0.2399  2.5834
  155OSM   C13F17351   5.809   3.425   3.735 -0.3326  0.4271 -0.7372
  155OSM   H13F17352   5.723   3.455   3.671 -0.8442  0.0170 -0.2526
  155OSM   H13G17353   5.869   3.517   3.748  1.9446 -1.2917  1.9630
  155OSM   C14F17354   5.752   3.394   3.878  0.6147 -1.1947 -0.4669
  155OSM   H14F17355   5.718   3.491   3.923 -3.2149 -1.4682 -2.3301
  155OSM   H14G17356   5.839   3.367   3.942 -0.7149 -1.9824  1.0804
  155OSM   C15F17357   5.629   3.308   3.891  0.3900  0.1403  0.4467
  155OSM   H15F17358   5.659   3.210   3.849 -1.3585  0.1677 -0.9763
  155OSM   H15G17359   5.535   3.338   3.840 -0.5690 -0.1963  1.9458
  155OSM   C16F17360   5.604   3.279   4.040  0.7844  0.2072  0.1120
  155OSM   H16F17361   5.563   3.374   4.082 -1.1379  0.3235 -1.8442
  155OSM   H16G17362   5.698   3.256   4.093  1.7832  1.0208 -1.2431
  155OSM   C17F17363   5.512   3.152   4.057 -0.8972  0.5403  0.0435
  155OSM   H17F17364   5.566   3.064   4.016 -0.2847  0.9277  0.0011
  155OSM   H17G17365   5.424   3.166   3.991 -0.0266  1.2125 -1.0114
  155OSM   C18F17366   5.489   3.130   4.207  0.3131 -0.0745 -0.3569
  155OSM   H18F17367   5.428   3.038   4.214  0.4845 -0.2677 -1.2917
  155OSM   H18G17368   5.422   3.208   4.250 -2.9032 -3.0038  0.4251
  155OSM   H18H17369   5.578   3.110   4.270 -0.1433 -1.6276 -0.1648
  156OSM      N17370   2.349   2.651   1.725 -0.6661 -0.5153 -0.0355
  156OSM    C1517371   2.296   2.621   1.584 -0.2895 -0.9105 -0.1720
  156OSM   H15A17372   2.244   2.526   1.578 -1.1276 -0.5077  0.4782
  156OSM   H15B17373   2.373   2.609   1.509 -0.2745 -3.4581  0.1356
  156OSM   H15C17374   2.235   2.705   1.555 -0.3737 -1.0505 -0.4093
  156OSM    C1417375   2.435   2.533   1.766 -0.7226  0.1045  0.3331
  156OSM   H14A17376   2.388   2.437   1.747  0.9981 -0.6945 -0.1383
  156OSM   H14B17377   2.470   2.538   1.868  4.0968 -2.6385 -0.8723
  156OSM   H14C17378   2.536   2.541   1.728 -0.7152 -0.3581  0.2411
  156OSM    C1317379   2.440   2.770   1.713  0.0137  0.3044  0.1368
  156OSM   H13A17380   2.390   2.863   1.692 -0.0312  0.9846  2.8473
  156OSM   H13B17381   2.510   2.756   1.632 -0.1653  1.8253 -0.3119
  156OSM   H13C17382   2.498   2.785   1.803 -0.6563 -2.3252  1.0887
  156OSM    C1217383   2.240   2.670   1.825  0.5595  0.2458 -0.2507
  156OSM   H12A17384   2.187   2.576   1.821  1.1451 -0.0965 -0.1101
  156OSM   H12B17385   2.179   2.751   1.787  2.0756  2.1151  1.0500
  156OSM    C1117386   2.271   2.711   1.976  0.2827 -0.1838  0.8691
  156OSM   H11A17387   2.339   2.639   2.027  1.0811  1.3445  2.0252
  156OSM   H11B17388   2.179   2.698   2.036 -0.4339 -1.6064 -0.4357
  156OSM      P17389   2.226   2.962   1.958 -0.0873  0.2680  0.3212
  156OSM    O1317390   2.310   3.079   1.968 -0.2857 -0.1030 -0.3615
  156OSM    O1417391   2.147   2.963   1.832  0.4381  0.3203  0.2338
  156OSM    O1117392   2.117   2.957   2.081 -0.0533 -0.5411  0.4537
  156OSM    O1217393   2.324   2.838   1.972  0.2495  0.1260 -0.0356
  156OSM    C1S17394   2.158   2.931   2.212  0.1671  0.7349 -0.2844
  156OSM    H1S17395   2.267   2.947   2.224  0.3933 -0.9120  0.1147
  156OSM    H1T17396   2.152   2.820   2.219 -1.2501  0.8269  0.3568
  156OSM     NF17397   2.142   2.956   2.462 -0.0233 -0.4259 -0.2273
  156OSM    HNF17398   2.102   2.878   2.510  1.1128 -1.0351 -0.2409
  156OSM    C2S17399   2.078   2.988   2.337  0.2288 -0.4153  0.5495
  156OSM    H2S17400   2.072   3.099   2.334  0.8488 -0.4100 -2.0435
  156OSM    C3S17401   1.930   2.936   2.327 -0.0588 -0.2559 -0.2791
  156OSM    H3S17402   1.931   2.825   2.334 -0.2087 -0.3938 -1.8998
  156OSM     O317403   1.868   2.960   2.205 -0.5105 -0.2685 -0.2111
  156OSM    HO317404   1.943   2.971   2.147  0.4749  1.8205  1.3422
  156OSM    C4S17405   1.849   3.000   2.435  0.5791  0.1377  0.7967
  156OSM    H4S17406   1.812   3.101   2.415  1.7506  0.4243  0.0022
  156OSM    C5S17407   1.812   2.942   2.546 -0.1530 -0.2921 -0.4680
  156OSM    H5S17408   1.844   2.838   2.561  0.9608  0.2073  0.8267
  156OSM    C6S17409   1.737   3.007   2.656 -0.9311 -0.3787 -0.1186
  156OSM    H6S17410   1.629   2.985   2.639 -1.1522  0.4854  0.1214
  156OSM    H6T17411   1.760   3.115   2.652 -0.6838 -0.4300 -0.1339
  156OSM    C7S17412   1.790   2.958   2.793 -0.0106  0.3096 -0.0957
  156OSM    H7S17413   1.899   2.978   2.792 -0.0395  0.4669 -0.5485
  156OSM    H7T17414   1.776   2.848   2.801  0.5926  0.0381 -2.3041
  156OSM    C8S17415   1.723   3.027   2.916 -0.2317  1.0011 -0.1277
  156OSM    H8S17416   1.621   2.985   2.923  0.2667 -0.0809  0.9775
  156OSM    H8T17417   1.709   3.136   2.897 -1.7518  0.6238 -1.3853
  156OSM    C9S17418   1.810   3.010   3.038  0.5239 -0.3643  0.1651
  156OSM    H9S17419   1.917   3.018   3.009  0.9512  0.9902  1.9329
  156OSM    H9T17420   1.798   2.910   3.084 -1.4937  0.1368  0.8253
  156OSM   C10S17421   1.755   3.114   3.146 -0.7001 -0.2108  0.1763
  156OSM   H10S17422   1.654   3.089   3.185 -0.4849  0.1681  0.9900
  156OSM   H10T17423   1.746   3.213   3.096 -1.4897  0.3382  1.3656
  156OSM   C11S17424   1.844   3.141   3.264  0.3957 -0.0037  0.1551
  156OSM   H11S17425   1.830   3.250   3.279  0.6251 -0.1838  1.7806
  156OSM   H11T17426   1.951   3.119   3.241  0.6042  1.3748 -0.3211
  156OSM   C12S17427   1.785   3.065   3.386  0.3251  0.1378 -0.0349
  156OSM   H12S17428   1.770   2.958   3.360 -1.5663 -0.1669  2.0305
  156OSM   H12T17429   1.683   3.100   3.409  0.3161  1.2017 -1.5309
  156OSM   C13S17430   1.871   3.064   3.510  0.1935  0.0793 -0.1131
  156OSM   H13S17431   1.803   3.103   3.588 -1.5488  0.2939 -1.6632
  156OSM   H13T17432   1.955   3.136   3.508  1.5387 -1.3863  1.1213
  156OSM   C14S17433   1.922   2.934   3.560 -0.0983 -0.2459 -0.2431
  156OSM   H14S17434   2.006   2.906   3.492  0.7677  1.1842  0.1859
  156OSM   H14T17435   1.850   2.850   3.558  0.6230 -0.9012 -2.8752
  156OSM   C15S17436   1.993   2.953   3.698 -0.1096  0.1381  0.3738
  156OSM   H15S17437   1.927   3.011   3.767 -0.7277 -0.0499 -0.0494
  156OSM   H15T17438   2.077   3.023   3.676 -0.6299  0.9508  0.8951
  156OSM   C16S17439   2.045   2.817   3.742 -0.0260  0.2917 -0.3162
  156OSM   H16S17440   2.094   2.761   3.660 -0.4016 -2.3296  1.1287
  156OSM   H16T17441   1.966   2.765   3.801  0.5728 -1.9394 -1.3719
  156OSM   C17S17442   2.163   2.825   3.837  0.2024 -0.3600 -0.7572
  156OSM   H17S17443   2.129   2.889   3.921  0.8519 -0.5382 -0.3531
  156OSM   H17T17444   2.252   2.864   3.782  2.3334 -2.0821  1.2372
  156OSM   C18S17445   2.192   2.690   3.892  0.3639 -0.4718 -0.3866
  156OSM   H18S17446   2.259   2.714   3.978 -0.1924 -1.1074  0.2372
  156OSM   H18T17447   2.249   2.629   3.819  0.0803 -2.1326  0.7340
  156OSM   H18U17448   2.102   2.637   3.930 -0.3775  0.7653 -0.3554
  156OSM    C1F17449   2.271   2.999   2.493  0.4508  0.0549  0.2720
  156OSM     OF17450   2.325   3.093   2.434  0.2916 -0.1297 -0.4181
  156OSM    C2F17451   2.347   2.931   2.606 -0.5182  0.2202 -0.3047
  156OSM    H2F17452   2.427   3.002   2.636  0.3928 -1.4877  1.5032
  156OSM    H2G17453   2.403   2.842   2.571  0.9556  1.3943 -1.0734
  156OSM    C3F17454   2.258   2.913   2.727 -0.3037  0.3415 -0.6512
  156OSM    H3F17455   2.188   2.828   2.710  1.2201 -1.0898 -0.0313
  156OSM    H3G17456   2.196   3.003   2.747 -1.9780 -0.9768  0.3469
  156OSM    C4F17457   2.340   2.898   2.860 -0.4981  0.0593  0.7087
  156OSM    H4F17458   2.429   2.964   2.853  2.4370 -3.7017 -2.0994
  156OSM    H4G17459   2.385   2.796   2.861  0.8551  0.5933 -0.9925
  156OSM    C5F17460   2.257   2.942   2.979  0.1497  0.9811  0.1528
  156OSM    H5F17461   2.177   2.866   2.994 -0.4858  1.5295 -0.3992
  156OSM    H5G17462   2.206   3.041   2.971 -0.0945  0.7256 -1.9096
  156OSM    C6F17463   2.331   2.949   3.115  0.0966  0.4129  0.6600
  156OSM    H6F17464   2.409   3.026   3.099  0.8067 -0.9184 -3.4308
  156OSM    H6G17465   2.389   2.855   3.133  3.1481  2.2042  0.8184
  156OSM    C7F17466   2.244   2.985   3.238  0.6414 -0.1942 -0.1126
  156OSM    H7F17467   2.160   2.914   3.248  1.9790 -2.0869 -1.5810
  156OSM    H7G17468   2.195   3.083   3.220  0.0292 -0.8509 -2.2884
  156OSM    C8F17469   2.318   2.973   3.377  0.1726 -0.5604 -0.0329
  156OSM    H8F17470   2.349   2.868   3.398 -1.5651 -1.3003 -0.9785
  156OSM    H8G17471   2.236   2.995   3.449 -2.6547  1.2472 -3.5061
  156OSM    C9F17472   2.423   3.072   3.394 -0.6223 -0.2994 -0.3168
  156OSM    H9F17473   2.494   3.076   3.309  1.0210  1.5222  1.0362
  156OSM   C10F17474   2.432   3.177   3.477  0.1728  0.2730  0.3069
  156OSM   H10F17475   2.518   3.239   3.449  0.3483 -1.5812 -4.0859
  156OSM   C11F17476   2.340   3.211   3.597 -0.0045  0.3352 -0.5083
  156OSM   H11F17477   2.237   3.170   3.588  0.6547 -1.5761  0.0416
  156OSM   H11G17478   2.331   3.319   3.618 -2.0557  0.0284  0.3736
  156OSM   C12F17479   2.404   3.154   3.727 -0.0453 -0.1400 -0.2642
  156OSM   H12F17480   2.505   3.197   3.745 -0.8337  0.9435  2.0350
  156OSM   H12G17481   2.418   3.044   3.721 -1.5944 -0.4042  0.5361
  156OSM   C13F17482   2.319   3.193   3.844  0.4096 -0.3508 -0.6942
  156OSM   H13F17483   2.211   3.182   3.818 -0.3102  1.5059  1.2382
  156OSM   H13G17484   2.326   3.304   3.841  1.5463 -0.4041 -0.2987
  156OSM   C14F17485   2.353   3.132   3.977  0.1839 -0.4791 -0.3109
  156OSM   H14F17486   2.462   3.134   3.996  0.2794  0.0753 -0.8891
  156OSM   H14G17487   2.317   3.027   3.970 -3.1671  0.5671 -0.6479
  156OSM   C15F17488   2.270   3.192   4.093 -0.3732 -0.0367 -0.6623
  156OSM   H15F17489   2.163   3.162   4.086 -0.1547 -0.5732 -1.9297
  156OSM   H15G17490   2.287   3.302   4.096  3.8810 -0.5326 -0.1523
  156OSM   C16F17491   2.314   3.142   4.236  0.5055  0.1702  0.2126
  156OSM   H16F17492   2.424   3.128   4.243  0.8332  1.1451 -2.1160
  156OSM   H16G17493   2.269   3.040   4.239 -2.0561  1.0123 -3.0701
  156OSM   C17F17494   2.281   3.226   4.356  0.2386  0.2060 -0.1533
  156OSM   H17F17495   2.170   3.226   4.367  0.0196  0.5975 -2.1199
  156OSM   H17G17496   2.327   3.327   4.361  0.0737  0.3933 -1.8990
  156OSM   C18F17497   2.332   3.164   4.490  0.0949 -0.8800  0.0278
  156OSM   H18F17498   2.431   3.118   4.471 -0.0152 -1.0400 -0.1654
  156OSM   H18G17499   2.258   3.096   4.538  1.9160 -2.2228  1.0760
  156OSM   H18H17500   2.346   3.249   4.561 -0.7295 -1.2908  0.6932
  157OSM      N17501   1.622   4.394   1.607  0.2072 -0.6207  0.0949
  157OSM    C1517502   1.520   4.506   1.583 -0.0062  0.2245 -0.2958
  157OSM   H15A17503   1.421   4.481   1.617 -1.4144  3.9061 -1.2747
  157OSM   H15B17504   1.503   4.529   1.479 -3.5224 -0.0617  0.0949
  157OSM   H15C17505   1.551   4.594   1.638 -0.3688 -0.1731  0.5770
  157OSM    C1417506   1.582   4.274   1.528 -0.1276 -0.4750 -0.2987
  157OSM   H14A17507   1.494   4.230   1.573  0.5089 -1.4645  0.0278
  157OSM   H14B17508   1.658   4.197   1.528 -2.4402 -2.9578 -2.1430
  157OSM   H14C17509   1.570   4.300   1.424 -0.9262 -1.5663 -0.5056
  157OSM    C1317510   1.750   4.434   1.552 -0.2573  0.0815  0.8681
  157OSM   H13A17511   1.814   4.349   1.532  0.1158  0.0417  2.1241
  157OSM   H13B17512   1.802   4.498   1.622 -0.4329 -0.1565  1.2174
  157OSM   H13C17513   1.736   4.489   1.461 -4.6520 -2.9559 -0.5814
  157OSM    C1217514   1.633   4.365   1.756  0.2388  0.2326 -0.1754
  157OSM   H12A17515   1.532   4.348   1.788  1.0870 -1.2448  1.9542
  157OSM   H12B17516   1.648   4.460   1.805 -1.1398 -0.3961  1.5831
  157OSM    C1117517   1.716   4.244   1.802 -0.4014  0.3790  0.1771
  157OSM   H11A17518   1.735   4.254   1.911 -1.6707  2.4747  0.2685
  157OSM   H11B17519   1.815   4.251   1.752 -1.2071  1.7949 -1.3277
  157OSM      P17520   1.513   4.099   1.828 -0.2514 -0.6002 -0.4769
  157OSM    O1317521   1.482   4.200   1.930  0.1677  0.3439 -0.7972
  157OSM    O1417522   1.420   4.087   1.714  0.0031 -0.4796  0.1422
  157OSM    O1117523   1.516   3.961   1.895  0.0134  0.2130 -0.1263
  157OSM    O1217524   1.664   4.118   1.769  0.3794 -0.0373  0.2381
  157OSM    C1S17525   1.618   3.931   1.995  0.1397  0.2987 -1.4319
  157OSM    H1S17526   1.647   4.016   2.061 -1.5476  0.0787 -0.3343
  157OSM    H1T17527   1.706   3.889   1.942  0.8911  0.9270 -0.7069
  157OSM     NF17528   1.646   3.828   2.223 -0.2337 -0.0232 -0.1439
  157OSM    HNF17529   1.710   3.751   2.234  0.5511  0.6903  0.4462
  157OSM    C2S17530   1.566   3.830   2.106  0.0862  0.6688 -0.0555
  157OSM    H2S17531   1.467   3.860   2.147 -1.2567 -1.2734 -1.6941
  157OSM    C3S17532   1.550   3.686   2.043 -0.1755 -0.4274  0.5707
  157OSM    H3S17533   1.652   3.648   2.019  1.2232  2.1267  1.9800
  157OSM     O317534   1.496   3.691   1.915 -0.1547  0.2693 -0.8850
  157OSM    HO317535   1.482   3.783   1.894  0.5737  0.7035  0.4904
  157OSM    C4S17536   1.487   3.588   2.136 -0.0727  0.4287 -0.3085
  157OSM    H4S17537   1.566   3.531   2.188  0.6752  1.7294  0.0385
  157OSM    C5S17538   1.353   3.555   2.149  0.2449 -0.0347  0.0814
  157OSM    H5S17539   1.275   3.613   2.096 -0.2586 -0.6061  0.1851
  157OSM    C6S17540   1.294   3.461   2.249  0.3982 -0.0253 -0.3215
  157OSM    H6S17541   1.266   3.362   2.205  0.4680 -0.4352  0.5325
  157OSM    H6T17542   1.202   3.501   2.297  0.8955 -1.7169  2.2590
  157OSM    C7S17543   1.370   3.418   2.380  0.0127 -0.1566  0.2743
  157OSM    H7S17544   1.381   3.513   2.436  0.1108  0.8096 -1.3043
  157OSM    H7T17545   1.462   3.368   2.341 -1.3071 -0.3513 -2.9001
  157OSM    C8S17546   1.283   3.316   2.451  0.0145  0.6107 -0.3091
  157OSM    H8S17547   1.276   3.234   2.376 -0.2193  1.2197 -0.9583
  157OSM    H8T17548   1.181   3.354   2.473  1.2394  2.6777  2.2798
  157OSM    C9S17549   1.350   3.271   2.577 -0.7109  0.5838  0.0411
  157OSM    H9S17550   1.321   3.339   2.660  1.0356  0.6455  0.6338
  157OSM    H9T17551   1.460   3.285   2.571 -0.9708  2.3272 -1.3478
  157OSM   C10S17552   1.313   3.126   2.618 -0.0585  0.3577  0.4717
  157OSM   H10S17553   1.366   3.063   2.543 -3.3499 -2.3638  0.1511
  157OSM   H10T17554   1.207   3.095   2.603  0.4609 -2.0051  1.2604
  157OSM   C11S17555   1.354   3.085   2.762 -0.6388 -0.5619 -0.0467
  157OSM   H11S17556   1.461   3.111   2.774 -0.7060  0.6517 -1.7436
  157OSM   H11T17557   1.336   2.979   2.793  0.9148 -0.2001  2.4351
  157OSM   C12S17558   1.279   3.169   2.869 -0.5782  0.9458 -0.1563
  157OSM   H12S17559   1.171   3.148   2.855 -0.6763  0.6334  0.9790
  157OSM   H12T17560   1.291   3.279   2.864  0.4701  0.8243 -0.7052
  157OSM   C13S17561   1.323   3.127   3.006 -0.3772  0.1742  0.6203
  157OSM   H13S17562   1.433   3.118   3.022 -0.4409 -1.9083  0.1293
  157OSM   H13T17563   1.286   3.023   3.015 -2.7904  0.9997  0.9434
  157OSM   C14S17564   1.283   3.217   3.126 -0.0567  0.4646  0.0067
  157OSM   H14S17565   1.179   3.256   3.122 -0.8108 -1.3823  0.5107
  157OSM   H14T17566   1.354   3.303   3.128  0.8718 -0.0884 -3.2135
  157OSM   C15S17567   1.307   3.146   3.265  0.2708  0.1512  1.0118
  157OSM   H15S17568   1.412   3.112   3.255  0.4402  0.7456  0.7308
  157OSM   H15T17569   1.251   3.050   3.266  1.3914 -0.6867 -2.4992
  157OSM   C16S17570   1.282   3.242   3.383 -0.0077  0.2888 -0.1503
  157OSM   H16S17571   1.179   3.284   3.381 -0.4919 -0.8611 -0.6345
  157OSM   H16T17572   1.342   3.331   3.357 -0.1633 -0.1920 -2.3860
  157OSM   C17S17573   1.308   3.195   3.529  0.2437  0.1307 -0.1328
  157OSM   H17S17574   1.419   3.192   3.536  0.3082 -2.1090 -1.2222
  157OSM   H17T17575   1.272   3.095   3.558  2.0819 -0.6125 -0.2770
  157OSM   C18S17576   1.256   3.294   3.631 -0.3647 -0.0514  0.1659
  157OSM   H18S17577   1.282   3.394   3.590  0.1706 -0.5903 -0.8567
  157OSM   H18T17578   1.292   3.279   3.735 -1.7401  1.2711  0.8723
  157OSM   H18U17579   1.145   3.286   3.641 -0.3237 -1.5073 -0.3390
  157OSM    C1F17580   1.661   3.933   2.307  0.0418  0.2354  0.5296
  157OSM     OF17581   1.615   4.045   2.288  0.5136 -0.0156 -0.0225
  157OSM    C2F17582   1.734   3.908   2.427 -0.6829  0.1258 -0.4201
  157OSM    H2F17583   1.810   3.828   2.425 -0.0190  0.5807  2.2723
  157OSM    H2G17584   1.672   3.872   2.512 -2.0268  0.7826 -1.0859
  157OSM    C3F17585   1.802   4.040   2.494 -0.6196 -0.2739 -0.3936
  157OSM    H3F17586   1.741   4.133   2.484 -2.7599 -1.3909  1.4817
  157OSM    H3G17587   1.896   4.039   2.435  0.0285 -1.3144  0.6329
  157OSM    C4F17588   1.838   4.022   2.644  0.6314 -0.9766  0.8611
  157OSM    H4F17589   1.908   3.936   2.651 -0.2344 -1.6421  1.5368
  157OSM    H4G17590   1.753   3.977   2.700 -1.5036  0.7720 -0.7661
  157OSM    C5F17591   1.901   4.150   2.710  0.0323 -0.6649  0.2953
  157OSM    H5F17592   1.828   4.233   2.710  2.7785  1.9421 -1.4224
  157OSM    H5G17593   1.990   4.200   2.666 -0.4859 -1.1050 -1.2971
  157OSM    C6F17594   1.941   4.121   2.854  0.2276  0.8214 -0.2064
  157OSM    H6F17595   1.858   4.071   2.908 -0.0327  0.5643 -0.8359
  157OSM    H6G17596   1.961   4.219   2.902  0.8810  0.9641 -0.7647
  157OSM    C7F17597   2.065   4.029   2.861 -0.4338 -0.0454  0.0638
  157OSM    H7F17598   2.142   4.067   2.790 -0.5467  3.6352  1.7159
  157OSM    H7G17599   2.042   3.922   2.841 -0.2654 -0.2255  0.8152
  157OSM    C8F17600   2.121   4.026   3.000 -0.6244  0.3010 -0.8859
  157OSM    H8F17601   2.045   3.968   3.057 -0.0058  1.4613  1.2051
  157OSM    H8G17602   2.138   4.128   3.039 -0.0984 -0.7935  2.0060
  157OSM    C9F17603   2.253   3.953   3.013  0.1308 -0.5038  0.0355
  157OSM    H9F17604   2.281   3.897   2.922 -1.2227 -2.0204  0.5007
  157OSM   C10F17605   2.325   3.943   3.119 -0.3670  0.4050 -0.2818
  157OSM   H10F17606   2.420   3.889   3.109  0.1459  1.3255 -0.6048
  157OSM   C11F17607   2.287   4.002   3.245  0.1625 -0.0235  0.5138
  157OSM   H11F17608   2.261   3.917   3.311 -1.5987  0.2041  0.1739
  157OSM   H11G17609   2.198   4.068   3.241  0.2605  0.0893  0.0761
  157OSM   C12F17610   2.399   4.085   3.307 -0.0193  0.2592 -0.6486
  157OSM   H12F17611   2.392   4.187   3.263 -1.4937  0.7620  0.6789
  157OSM   H12G17612   2.498   4.049   3.271 -1.7202 -2.5122 -3.0647
  157OSM   C13F17613   2.388   4.104   3.461  0.0707 -0.0012 -0.0738
  157OSM   H13F17614   2.286   4.148   3.467 -0.2091 -0.5193 -0.9145
  157OSM   H13G17615   2.460   4.186   3.481 -0.6556  1.1057 -1.7244
  157OSM   C14F17616   2.404   3.981   3.548 -1.2957  0.6210  0.2679
  157OSM   H14F17617   2.506   3.944   3.522 -1.1880  2.6437 -2.7608
  157OSM   H14G17618   2.327   3.908   3.515 -0.7890 -0.0687  0.5764
  157OSM   C15F17619   2.398   4.008   3.697  0.2817 -0.2673 -0.1409
  157OSM   H15F17620   2.473   4.087   3.719  0.0285  0.4381 -1.6851
  157OSM   H15G17621   2.427   3.913   3.747 -0.1181 -2.1335 -3.1539
  157OSM   C16F17622   2.259   4.048   3.748 -0.0878 -0.4688 -0.2638
  157OSM   H16F17623   2.175   3.976   3.735 -0.9304  0.6832 -1.5055
  157OSM   H16G17624   2.228   4.133   3.683 -0.9047  0.5619  1.4168
  157OSM   C17F17625   2.268   4.091   3.891 -0.4869 -0.0606 -0.7302
  157OSM   H17F17626   2.308   4.194   3.902 -0.7254 -0.0594  0.1534
  157OSM   H17G17627   2.343   4.027   3.942  0.3990  1.8979  0.5439
  157OSM   C18F17628   2.136   4.077   3.974  0.4803 -0.1819  0.4931
  157OSM   H18F17629   2.055   4.127   3.917  3.2225  2.1676 -1.7111
  157OSM   H18G17630   2.162   4.116   4.074 -2.2885 -1.3310  1.7437
  157OSM   H18H17631   2.119   3.968   3.989  0.5973 -0.0595  1.6073
  158OSM      N17632   4.741   0.330   2.181 -1.1064 -0.7692 -0.5435
  158OSM    C1517633   4.662   0.452   2.197  0.8086  0.1165 -0.2977
  158OSM   H15A17634   4.720   0.543   2.196  0.0088  0.7169  1.8305
  158OSM   H15B17635   4.608   0.451   2.291  0.1151 -1.5681 -0.6779
  158OSM   H15C17636   4.594   0.467   2.115  0.3680  2.4067  0.4022
  158OSM    C1417637   4.845   0.321   2.292  0.2183  0.0291  0.1163
  158OSM   H14A17638   4.815   0.355   2.390  0.1580  1.0499 -0.2428
  158OSM   H14B17639   4.919   0.389   2.255 -0.9943 -0.5979 -3.9110
  158OSM   H14C17640   4.894   0.225   2.298  1.2051  0.5569  0.7699
  158OSM    C1317641   4.657   0.212   2.198  0.0146  0.2363 -0.6424
  158OSM   H13A17642   4.720   0.125   2.191 -0.0941  0.1484 -0.5193
  158OSM   H13B17643   4.583   0.219   2.120 -1.5437  4.6409  0.8847
  158OSM   H13C17644   4.618   0.211   2.299 -1.3665  1.3998 -1.1212
  158OSM    C1217645   4.815   0.321   2.049  0.8742 -0.3313  0.0418
  158OSM   H12A17646   4.746   0.319   1.967  1.1690 -1.0091 -0.1898
  158OSM   H12B17647   4.877   0.232   2.052 -0.4604 -1.2918 -0.1090
  158OSM    C1117648   4.919   0.440   2.019  0.5168 -0.6115 -0.1119
  158OSM   H11A17649   4.871   0.540   2.021 -0.3894 -0.8510 -3.2921
  158OSM   H11B17650   4.939   0.433   1.910 -1.7537  0.1021 -0.6242
  158OSM      P17651   5.135   0.539   2.122  0.2611 -0.5589 -0.5844
  158OSM    O1317652   5.271   0.497   2.080  0.1256 -0.3681 -0.3463
  158OSM    O1417653   5.077   0.666   2.068 -0.0307 -0.3821 -0.0332
  158OSM    O1117654   5.130   0.548   2.282  0.1889  0.1775 -0.2353
  158OSM    O1217655   5.034   0.425   2.103 -0.2289  0.1111 -0.1598
  158OSM    C1S17656   5.211   0.461   2.361  0.3601 -0.1872 -0.0594
  158OSM    H1S17657   5.297   0.413   2.311  0.3025 -0.4484  0.0904
  158OSM    H1T17658   5.156   0.367   2.383  2.6539 -1.7593 -0.7044
  158OSM     NF17659   5.346   0.443   2.573  0.2020  0.3838 -0.2615
  158OSM    HNF17660   5.304   0.385   2.642 -0.3763  1.1415  0.0449
  158OSM    C2S17661   5.256   0.530   2.496 -0.3933  0.3277 -0.3112
  158OSM    H2S17662   5.318   0.618   2.469 -1.9050  1.9580  1.2411
  158OSM    C3S17663   5.141   0.580   2.584  0.8444  0.1763 -0.1740
  158OSM    H3S17664   5.081   0.490   2.610  1.8321 -0.3219  0.4914
  158OSM     O317665   5.050   0.659   2.507 -0.3886 -0.4062  0.4691
  158OSM    HO317666   5.082   0.641   2.418  2.0017  2.2391  0.6397
  158OSM    C4S17667   5.186   0.651   2.710 -0.0539  0.1853 -0.1506
  158OSM    H4S17668   5.257   0.734   2.695 -1.3470  1.2555 -0.5257
  158OSM    C5S17669   5.137   0.611   2.826  0.2684 -0.0960 -0.7207
  158OSM    H5S17670   5.063   0.530   2.815 -0.6846  0.7414 -0.6278
  158OSM    C6S17671   5.176   0.660   2.965 -0.5368  0.5318  0.1186
  158OSM    H6S17672   5.090   0.702   3.023  1.1258 -1.7136  4.7346
  158OSM    H6T17673   5.248   0.740   2.940  0.9134 -0.2574  1.5909
  158OSM    C7S17674   5.261   0.584   3.070 -0.1278 -0.3850  0.1193
  158OSM    H7S17675   5.326   0.503   3.032  1.0849  0.5296  0.1952
  158OSM    H7T17676   5.185   0.534   3.134  1.1168 -0.6984  1.3968
  158OSM    C8S17677   5.331   0.677   3.172 -0.1031  0.5989  0.2878
  158OSM    H8S17678   5.263   0.759   3.202 -2.2567 -0.8271 -0.4561
  158OSM    H8T17679   5.421   0.729   3.131 -1.2137  0.2268 -2.8606
  158OSM    C9S17680   5.376   0.610   3.299 -0.1836  0.2133  0.3398
  158OSM    H9S17681   5.460   0.672   3.338 -0.7341  1.5859 -0.5710
  158OSM    H9T17682   5.417   0.509   3.284 -1.0849 -0.1677  0.3572
  158OSM   C10S17683   5.265   0.593   3.399  0.0486 -0.3425 -0.2884
  158OSM   H10S17684   5.222   0.492   3.388  2.4756 -1.6567  1.3091
  158OSM   H10T17685   5.185   0.667   3.376  0.8627 -0.4616 -4.3695
  158OSM   C11S17686   5.317   0.602   3.540  0.1593  0.2781  0.1162
  158OSM   H11S17687   5.390   0.521   3.562  0.3289  0.3317 -0.2493
  158OSM   H11T17688   5.237   0.603   3.618 -1.7238  1.5356 -1.7158
  158OSM   C12S17689   5.390   0.730   3.562 -0.1665 -0.0765 -0.4074
  158OSM   H12S17690   5.342   0.808   3.499  0.3306  0.0146 -0.6708
  158OSM   H12T17691   5.496   0.717   3.534  0.4142  0.6141  1.3212
  158OSM   C13S17692   5.398   0.770   3.707 -0.5254 -0.1661 -0.4966
  158OSM   H13S17693   5.486   0.837   3.710 -1.2818  0.8104  1.1350
  158OSM   H13T17694   5.414   0.686   3.778 -2.1468 -0.4821 -0.4646
  158OSM   C14S17695   5.276   0.850   3.752  0.3970  0.5288 -0.0748
  158OSM   H14S17696   5.189   0.781   3.749 -0.4410  1.5871 -0.9665
  158OSM   H14T17697   5.263   0.929   3.675 -1.2938  0.3680  0.0093
  158OSM   C15S17698   5.299   0.933   3.877 -0.3809 -0.3775  0.3674
  158OSM   H15S17699   5.217   1.005   3.896  1.1011  1.6546 -0.4916
  158OSM   H15T17700   5.388   0.998   3.864 -0.8558  0.1375 -0.3960
  158OSM   C16S17701   5.312   0.849   4.005  0.7086  0.2958  0.9492
  158OSM   H16S17702   5.406   0.789   4.002 -0.5154 -1.8604 -3.4363
  158OSM   H16T17703   5.223   0.786   4.025  0.4407  0.2521 -0.2983
  158OSM   C17S17704   5.308   0.932   4.136  0.0017 -0.1061  0.0533
  158OSM   H17S17705   5.205   0.926   4.177 -0.2432 -0.0778 -0.5542
  158OSM   H17T17706   5.332   1.035   4.103  1.1598 -1.0082 -2.0718
  158OSM   C18S17707   5.411   0.879   4.233  0.9005 -0.8538 -0.2985
  158OSM   H18S17708   5.393   0.770   4.242  0.0357 -0.9581 -2.7139
  158OSM   H18T17709   5.413   0.915   4.338 -1.3549 -1.6447  0.0689
  158OSM   H18U17710   5.513   0.889   4.190  0.4360  0.7111 -1.1099
  158OSM    C1F17711   5.465   0.412   2.532  0.2702 -0.0338 -0.6519
  158OSM     OF17712   5.511   0.453   2.427  0.1357 -0.0542 -0.2367
  158OSM    C2F17713   5.530   0.308   2.618  0.0285  0.0464  0.3334
  158OSM    H2F17714   5.460   0.224   2.636  0.6435 -0.2755  1.2916
  158OSM    H2G17715   5.568   0.352   2.712  1.6493  0.2465 -0.3762
  158OSM    C3F17716   5.655   0.241   2.566 -0.5560  0.6925  0.4081
  158OSM    H3F17717   5.738   0.314   2.563 -0.3901  0.4914  0.0056
  158OSM    H3G17718   5.638   0.203   2.463  0.5937 -0.9524  0.7846
  158OSM    C4F17719   5.714   0.120   2.646  1.0525  0.4869  0.1461
  158OSM    H4F17720   5.800   0.077   2.589  1.3178  0.8506  0.2711
  158OSM    H4G17721   5.639   0.043   2.674  2.2521 -0.5764  0.5448
  158OSM    C5F17722   5.768   0.183   2.776 -0.0321  0.3729 -0.6458
  158OSM    H5F17723   5.686   0.204   2.849  0.9239  1.7388  0.0857
  158OSM    H5G17724   5.816   0.281   2.756  0.0191  0.2833 -0.9715
  158OSM    C6F17725   5.879   0.097   2.845  0.0662  0.0360 -0.1861
  158OSM    H6F17726   5.944   0.066   2.760  0.5442 -0.8865  0.4958
  158OSM    H6G17727   5.833   0.009   2.895 -0.7699  1.1624  1.0708
  158OSM    C7F17728   5.960   0.184   2.945 -0.0457  0.2744 -0.7756
  158OSM    H7F17729   5.892   0.227   3.021  0.7529  0.4750 -0.1588
  158OSM    H7G17730   6.009   0.268   2.892  0.7452  0.0794 -0.3689
  158OSM    C8F17731   6.070   0.104   3.010  0.4137  0.0759 -0.1458
  158OSM    H8F17732   6.136   0.176   3.062 -0.0268  2.7039 -2.9475
  158OSM    H8G17733   6.134   0.063   2.928 -0.1939 -1.6097  0.1743
  158OSM    C9F17734   6.024  -0.005   3.107  0.3471  0.9100  0.0189
  158OSM    H9F17735   5.948  -0.071   3.062 -0.0879  0.6103  1.1676
  158OSM   C10F17736   6.059  -0.019   3.240 -0.3314 -0.6310  0.2776
  158OSM   H10F17737   5.998  -0.086   3.302 -3.4682  1.3231 -0.4655
  158OSM   C11F17738   6.151   0.071   3.317  0.3665  0.6378  0.6788
  158OSM   H11F17739   6.104   0.123   3.403 -1.1489  1.3430 -0.5439
  158OSM   H11G17740   6.199   0.152   3.257  0.4070 -3.0047 -4.9175
  158OSM   C12F17741   6.267  -0.007   3.380  0.4160 -0.0503  0.4744
  158OSM   H12F17742   6.329  -0.045   3.295 -1.5871 -0.9993 -0.6417
  158OSM   H12G17743   6.226  -0.088   3.444 -0.2716 -0.0406  0.0540
  158OSM   C13F17744   6.363   0.087   3.464  0.8093  0.8490 -0.2943
  158OSM   H13F17745   6.301   0.164   3.514 -1.1924 -1.2271  0.5957
  158OSM   H13G17746   6.432   0.148   3.402  1.8401  0.0107  0.0008
  158OSM   C14F17747   6.452   0.010   3.566 -0.2956 -0.0369  0.5234
  158OSM   H14F17748   6.521  -0.050   3.503 -1.5646 -0.4409 -0.5444
  158OSM   H14G17749   6.382  -0.058   3.620  2.2664 -0.9050  2.9790
  158OSM   C15F17750   6.514   0.100   3.672 -0.0952 -0.8574 -0.0090
  158OSM   H15F17751   6.434   0.159   3.722  0.6483 -0.9670  1.3425
  158OSM   H15G17752   6.586   0.169   3.624  1.5291 -0.3842  2.8829
  158OSM   C16F17753   6.608   0.009   3.754 -0.7336  0.4210  0.3695
  158OSM   H16F17754   6.675   0.068   3.821 -0.8710 -0.4085  1.2618
  158OSM   H16G17755   6.659  -0.058   3.682  0.2135  2.5119 -1.0031
  158OSM   C17F17756   6.527  -0.074   3.863 -0.7225 -0.0632  0.4857
  158OSM   H17F17757   6.598  -0.124   3.933 -0.2945  0.0118  0.1157
  158OSM   H17G17758   6.469  -0.156   3.815  3.4123 -1.9602 -1.8725
  158OSM   C18F17759   6.439   0.023   3.952  0.1538 -0.0746  0.6407
  158OSM   H18F17760   6.505   0.107   3.982  2.8122 -1.4328 -0.8745
  158OSM   H18G17761   6.399  -0.031   4.040  0.3422  1.8848  2.0012
  158OSM   H18H17762   6.350   0.063   3.900 -1.3289 -0.8199  2.5140
  159OSM      N17763   6.814   2.507   1.582 -0.6214  0.4828  0.2931
  159OSM    C1517764   6.718   2.393   1.618 -0.7834 -0.2333  0.1054
  159OSM   H15A17765   6.758   2.294   1.598 -0.4449 -0.2719  0.9258
  159OSM   H15B17766   6.625   2.393   1.564 -0.1864  1.7226 -1.0395
  159OSM   H15C17767   6.699   2.390   1.724 -1.0153  2.1450  0.1737
  159OSM    C1417768   6.947   2.471   1.628  0.2680  0.5671  0.4048
  159OSM   H14A17769   6.941   2.485   1.735 -1.4911  1.1316  0.2735
  159OSM   H14B17770   7.024   2.533   1.584 -0.8880  1.5551 -0.2977
  159OSM   H14C17771   6.960   2.365   1.613 -0.4845 -0.1966  4.1828
  159OSM    C1317772   6.832   2.513   1.435 -0.5598  0.8841  0.1620
  159OSM   H13A17773   6.742   2.508   1.374 -0.2314 -0.5943 -0.2448
  159OSM   H13B17774   6.890   2.426   1.410 -0.5536  0.4098  1.7546
  159OSM   H13C17775   6.899   2.593   1.405  0.5403  0.2760  0.9444
  159OSM    C1217776   6.765   2.636   1.644 -0.1229 -0.9244  0.1392
  159OSM   H12A17777   6.668   2.670   1.610 -0.0486 -1.2558 -0.4062
  159OSM   H12B17778   6.827   2.716   1.607 -1.9552  0.8486  0.6950
  159OSM    C1117779   6.770   2.666   1.791  0.4088 -0.2918 -0.4572
  159OSM   H11A17780   6.689   2.615   1.847 -0.2114  0.1377 -0.9628
  159OSM   H11B17781   6.740   2.773   1.796 -1.1548 -0.7408  0.8591
  159OSM      P17782   6.998   2.755   1.872 -0.2853 -0.1353 -0.3375
  159OSM    O1317783   7.132   2.711   1.911 -0.6300  0.3655  0.3528
  159OSM    O1417784   7.004   2.837   1.750  1.0538  0.5625  0.2668
  159OSM    O1117785   6.924   2.831   1.990 -0.5647 -0.2098  0.0371
  159OSM    O1217786   6.902   2.632   1.841 -0.0646 -0.4842 -0.4654
  159OSM    C1S17787   6.891   2.766   2.111 -0.1814  0.4709  0.0879
  159OSM    H1S17788   6.978   2.712   2.153 -1.8003 -0.6552  2.2517
  159OSM    H1T17789   6.820   2.681   2.101 -0.5364  0.7278  0.3778
  159OSM     NF17790   6.813   2.815   2.348 -0.1015  0.2521  0.6508
  159OSM    HNF17791   6.729   2.831   2.400 -0.0721 -0.8221  1.0676
  159OSM    C2S17792   6.825   2.865   2.216  0.7464 -1.4367  0.6334
  159OSM    H2S17793   6.900   2.946   2.226 -1.7708  1.4717 -2.0211
  159OSM    C3S17794   6.703   2.941   2.157 -0.0296 -0.8922  0.6011
  159OSM    H3S17795   6.621   2.870   2.133 -0.5099 -0.3328  0.5811
  159OSM     O317796   6.725   3.001   2.029  0.5307 -0.2989 -0.3111
  159OSM    HO317797   6.807   2.956   2.006  0.7831 -0.2103  0.4107
  159OSM    C4S17798   6.654   3.048   2.256  0.1286  0.2140  0.2387
  159OSM    H4S17799   6.721   3.135   2.259  2.5983 -1.5515  0.2080
  159OSM    C5S17800   6.533   3.053   2.309 -0.1166 -0.1481  0.4167
  159OSM    H5S17801   6.459   2.979   2.277 -0.6387  1.2285 -1.8189
  159OSM    C6S17802   6.489   3.168   2.398 -0.3737  0.0604  0.0214
  159OSM    H6S17803   6.385   3.201   2.378  0.2871  0.8950 -2.4668
  159OSM    H6T17804   6.541   3.265   2.382  1.1975 -1.0524 -2.1133
  159OSM    C7S17805   6.503   3.112   2.539  0.0674  0.1228 -0.0218
  159OSM    H7S17806   6.607   3.080   2.559  0.4544  0.1341 -1.8855
  159OSM    H7T17807   6.445   3.017   2.541  2.4950 -1.4175  1.0192
  159OSM    C8S17808   6.446   3.209   2.642  0.1054 -0.2908 -0.8245
  159OSM    H8S17809   6.340   3.210   2.610  0.2425 -0.3307 -1.2891
  159OSM    H8T17810   6.482   3.313   2.626  0.5862 -0.1715  0.8560
  159OSM    C9S17811   6.456   3.161   2.783 -0.4958  0.3846 -0.3641
  159OSM    H9S17812   6.561   3.140   2.815 -0.8608 -1.6476 -0.3756
  159OSM    H9T17813   6.400   3.066   2.782 -0.4373  0.3475 -1.5798
  159OSM   C10S17814   6.388   3.259   2.875 -0.6830 -0.4015  0.3167
  159OSM   H10S17815   6.287   3.278   2.833  0.2707 -0.9642 -2.4120
  159OSM   H10T17816   6.440   3.355   2.894 -0.2107 -0.5450 -0.2526
  159OSM   C11S17817   6.387   3.198   3.011 -0.4702  0.2910 -0.7993
  159OSM   H11S17818   6.496   3.186   3.031 -0.5657 -1.4771 -1.2479
  159OSM   H11T17819   6.341   3.097   3.009 -0.8230  0.4100  0.2972
  159OSM   C12S17820   6.327   3.286   3.115 -0.3051 -0.4320  0.0077
  159OSM   H12S17821   6.224   3.322   3.094 -0.5084 -0.2479  1.2573
  159OSM   H12T17822   6.395   3.374   3.118  1.0935 -1.4547 -1.0231
  159OSM   C13S17823   6.332   3.227   3.258  0.4534 -0.1715  0.0100
  159OSM   H13S17824   6.434   3.191   3.281 -0.5648 -2.5050  1.2093
  159OSM   H13T17825   6.268   3.139   3.284  0.3947  0.0823  0.7145
  159OSM   C14S17826   6.304   3.335   3.367 -0.2453  0.6290 -0.7145
  159OSM   H14S17827   6.196   3.359   3.379 -0.1646  0.5306  0.3337
  159OSM   H14T17828   6.360   3.426   3.338  1.9504 -1.6531 -4.3449
  159OSM   C15S17829   6.363   3.279   3.500 -0.2863 -0.2354  0.2236
  159OSM   H15S17830   6.471   3.253   3.490 -0.4062 -0.3175 -0.9478
  159OSM   H15T17831   6.314   3.181   3.518 -0.1749 -0.4473 -0.6048
  159OSM   C16S17832   6.344   3.370   3.623  0.3482  0.2592  0.3242
  159OSM   H16S17833   6.238   3.402   3.635 -0.5795 -1.4568 -2.3704
  159OSM   H16T17834   6.408   3.460   3.612 -0.2196  0.6110 -0.1672
  159OSM   C17S17835   6.382   3.299   3.757 -0.1956  0.3529 -0.4374
  159OSM   H17S17836   6.366   3.379   3.833 -2.7362 -0.5787  0.0902
  159OSM   H17T17837   6.489   3.274   3.742 -0.7989 -2.6711 -0.3214
  159OSM   C18S17838   6.306   3.167   3.791 -0.0835  0.8668  0.2427
  159OSM   H18S17839   6.318   3.094   3.709  0.3299 -0.7309  1.6791
  159OSM   H18T17840   6.197   3.188   3.804 -0.9389 -0.3935 -3.4645
  159OSM   H18U17841   6.352   3.119   3.879  3.5329 -0.1151 -1.9833
  159OSM    C1F17842   6.924   2.777   2.418  0.4773  0.2677 -1.3421
  159OSM     OF17843   7.039   2.783   2.371  0.3677  0.7930  0.1458
  159OSM    C2F17844   6.901   2.728   2.557 -0.7829 -0.1500 -0.1474
  159OSM    H2F17845   6.977   2.660   2.602 -2.6024 -2.3399 -0.2109
  159OSM    H2G17846   6.810   2.666   2.547 -0.5643 -0.3430 -1.0476
  159OSM    C3F17847   6.866   2.853   2.649  0.1193 -0.1764  0.4668
  159OSM    H3F17848   6.784   2.907   2.598  0.2623 -0.3848  0.0133
  159OSM    H3G17849   6.953   2.920   2.634 -0.3956  0.2940 -0.4335
  159OSM    C4F17850   6.833   2.812   2.794 -0.8899 -0.2349 -0.4941
  159OSM    H4F17851   6.923   2.759   2.832 -0.3950  1.4332  0.7482
  159OSM    H4G17852   6.744   2.746   2.799 -0.3890 -0.8479  3.8770
  159OSM    C5F17853   6.812   2.933   2.883  0.2253  0.0423 -0.0247
  159OSM    H5F17854   6.728   2.999   2.852 -1.2916 -0.2759  3.0008
  159OSM    H5G17855   6.908   2.988   2.871  0.1553 -0.0598 -1.1585
  159OSM    C6F17856   6.782   2.893   3.034  0.0398  0.0513  1.0008
  159OSM    H6F17857   6.846   2.806   3.058 -0.8333 -1.3815 -1.4880
  159OSM    H6G17858   6.676   2.859   3.037 -0.1156  0.5250  1.0122
  159OSM    C7F17859   6.807   3.009   3.138 -0.4527  0.4446 -1.0766
  159OSM    H7F17860   6.736   3.093   3.126  0.9691  2.2728  2.0534
  159OSM    H7G17861   6.911   3.042   3.117 -0.3531  0.9986  0.2191
  159OSM    C8F17862   6.800   2.956   3.288 -0.1397  0.2679 -0.1250
  159OSM    H8F17863   6.880   2.881   3.301 -0.6021 -0.0164  1.2594
  159OSM    H8G17864   6.709   2.896   3.309  0.8698 -1.3101 -0.0685
  159OSM    C9F17865   6.818   3.065   3.393  0.4054  0.0651  0.3010
  159OSM    H9F17866   6.884   3.143   3.352  1.0785 -1.4397 -1.6413
  159OSM   C10F17867   6.739   3.096   3.498  0.4210  0.3737  0.0830
  159OSM   H10F17868   6.769   3.181   3.561  2.8534 -0.3959  0.0719
  159OSM   C11F17869   6.637   3.003   3.550  0.0691  0.6863 -0.1051
  159OSM   H11F17870   6.651   2.898   3.516  0.1732  0.8926 -0.7187
  159OSM   H11G17871   6.533   3.024   3.517 -0.7501 -1.1390  1.1597
  159OSM   C12F17872   6.621   2.993   3.695 -0.3615  0.2953  0.5040
  159OSM   H12F17873   6.518   2.960   3.720 -0.3658 -1.9239 -1.9142
  159OSM   H12G17874   6.630   3.093   3.741  0.1996  0.6238 -0.3002
  159OSM   C13F17875   6.719   2.898   3.761  0.0356  0.2305 -0.0229
  159OSM   H13F17876   6.823   2.921   3.731 -0.2673 -2.3209 -3.6819
  159OSM   H13G17877   6.693   2.800   3.715 -0.1481  0.6718 -0.8661
  159OSM   C14F17878   6.689   2.896   3.912  0.2345  0.4050 -0.6038
  159OSM   H14F17879   6.581   2.883   3.936  1.1558 -2.5594  2.9191
  159OSM   H14G17880   6.722   2.993   3.954  0.1368 -0.1951  0.9351
  159OSM   C15F17881   6.762   2.780   3.977 -0.9033  0.0976 -0.4999
  159OSM   H15F17882   6.870   2.790   3.952 -1.2270 -0.3944 -2.2427
  159OSM   H15G17883   6.736   2.679   3.939  0.5688 -0.3139 -0.4792
  159OSM   C16F17884   6.758   2.794   4.126 -1.0805  0.2838  0.7351
  159OSM   H16F17885   6.655   2.823   4.158 -1.2441  0.6093 -0.0748
  159OSM   H16G17886   6.831   2.871   4.160 -1.1845  0.4058  0.6847
  159OSM   C17F17887   6.781   2.658   4.192  0.2980  0.3405 -0.3105
  159OSM   H17F17888   6.869   2.606   4.148  0.0322 -0.9135  0.5945
  159OSM   H17G17889   6.695   2.597   4.159  0.9712  0.3426 -2.1826
  159OSM   C18F17890   6.775   2.658   4.343 -0.1450  0.4263 -0.1813
  159OSM   H18F17891   6.731   2.560   4.372 -0.3439  0.1527 -1.3371
  159OSM   H18G17892   6.713   2.741   4.381  0.8054  1.7707 -1.4431
  159OSM   H18H17893   6.877   2.655   4.388 -0.1264  2.4433 -0.0176
  160OSM      N17894   4.533   2.924   2.130  0.1918 -0.2170  0.1566
  160OSM    C1517895   4.440   2.810   2.122 -1.2767 -0.0010 -0.5757
  160OSM   H15A17896   4.345   2.837   2.166 -0.1938  2.3583  0.4228
  160OSM   H15B17897   4.484   2.717   2.155  0.0896 -0.0244 -2.3308
  160OSM   H15C17898   4.422   2.791   2.017  0.1743 -2.6901 -0.4508
  160OSM    C1417899   4.654   2.896   2.049 -0.1754 -0.2775 -0.0079
  160OSM   H14A17900   4.720   2.838   2.111  0.3985  0.4924  0.1221
  160OSM   H14B17901   4.707   2.988   2.027  2.2847 -0.6603  3.5228
  160OSM   H14C17902   4.634   2.852   1.952  0.4306  1.2935 -0.8898
  160OSM    C1317903   4.462   3.044   2.070  0.2038  0.5682  0.4697
  160OSM   H13A17904   4.532   3.127   2.069 -1.2849  1.9591  2.4605
  160OSM   H13B17905   4.384   3.078   2.136 -0.5501 -0.2796  0.0448
  160OSM   H13C17906   4.415   3.022   1.976  0.3440 -0.1080  0.5524
  160OSM    C1217907   4.582   2.950   2.268 -0.9511  0.3707 -0.0611
  160OSM   H12A17908   4.513   3.013   2.323  1.9060  0.7496  3.4086
  160OSM   H12B17909   4.670   3.010   2.251  0.0442 -1.0087  0.0990
  160OSM    C1117910   4.619   2.830   2.360  0.0805 -0.2049  0.1956
  160OSM   H11A17911   4.532   2.762   2.371  2.0162 -2.6022  1.4717
  160OSM   H11B17912   4.646   2.876   2.457  1.1034 -0.5558  0.0885
  160OSM      P17913   4.877   2.832   2.310 -0.2507 -0.0102  0.2601
  160OSM    O1317914   4.968   2.755   2.223  0.0544 -0.5059 -0.1955
  160OSM    O1417915   4.872   2.978   2.280 -0.0683 -0.0640 -0.1205
  160OSM    O1117916   4.919   2.805   2.468  0.2330  0.5918  0.0923
  160OSM    O1217917   4.734   2.770   2.308  0.4390 -0.2557  0.0231
  160OSM    C1S17918   4.884   2.672   2.514 -0.3011  0.0020  0.2638
  160OSM    H1S17919   4.924   2.591   2.449 -0.7519 -0.1381  0.1595
  160OSM    H1T17920   4.774   2.657   2.518 -0.3393  0.0783 -0.3602
  160OSM     NF17921   4.957   2.506   2.693  0.0100 -0.3202  0.9216
  160OSM    HNF17922   4.869   2.465   2.718 -0.2211  0.0748  0.7583
  160OSM    C2S17923   4.946   2.646   2.654 -0.6056  0.6161  1.1026
  160OSM    H2S17924   5.049   2.688   2.649 -0.9598  1.6344  1.8679
  160OSM    C3S17925   4.874   2.734   2.758  0.3051 -0.0911 -0.4336
  160OSM    H3S17926   4.775   2.684   2.763  0.4592 -0.6062 -1.9436
  160OSM     O317927   4.870   2.869   2.722  0.3748  0.0499 -0.2433
  160OSM    HO317928   4.885   2.857   2.628 -0.5734 -2.1402 -0.1719
  160OSM    C4S17929   4.947   2.727   2.890 -0.5917 -0.4889 -0.9211
  160OSM    H4S17930   4.904   2.658   2.963 -0.0614 -1.3568 -1.4228
  160OSM    C5S17931   5.059   2.791   2.927 -0.4353 -0.4117  0.3436
  160OSM    H5S17932   5.111   2.847   2.848  1.6697  1.3327  2.8162
  160OSM    C6S17933   5.133   2.783   3.058 -0.6026 -0.1071  0.1527
  160OSM    H6S17934   5.174   2.884   3.077  2.5109 -0.5907 -3.1071
  160OSM    H6T17935   5.217   2.711   3.051  0.7099  1.2236  1.6433
  160OSM    C7S17936   5.034   2.730   3.168 -0.1427 -0.8235  0.5118
  160OSM    H7S17937   5.004   2.628   3.137 -0.5773 -0.7089  0.5561
  160OSM    H7T17938   4.945   2.795   3.169 -0.2151 -0.8606 -1.3545
  160OSM    C8S17939   5.092   2.723   3.315 -0.5231 -0.3078  1.0929
  160OSM    H8S17940   5.140   2.820   3.340  0.6890 -0.9459  1.3123
  160OSM    H8T17941   5.168   2.642   3.322  0.3917  0.5625  1.3771
  160OSM    C9S17942   4.983   2.690   3.418 -0.1860  0.9173  0.3125
  160OSM    H9S17943   4.940   2.591   3.394  0.4406  0.8878 -0.7492
  160OSM    H9T17944   4.901   2.764   3.408 -1.3108 -0.5198 -1.9908
  160OSM   C10S17945   5.031   2.710   3.564 -0.3732 -0.2549  0.0340
  160OSM   H10S17946   5.060   2.815   3.582  1.8306 -0.8054 -0.0072
  160OSM   H10T17947   5.123   2.656   3.593 -1.0181  0.0091  2.8734
  160OSM   C11S17948   4.924   2.691   3.666 -0.0471 -0.4987  0.4030
  160OSM   H11S17949   4.866   2.604   3.629  1.0635 -0.3197 -1.9571
  160OSM   H11T17950   4.853   2.777   3.667 -0.8550 -1.0676 -1.8447
  160OSM   C12S17951   4.973   2.675   3.809 -0.0477 -0.1312  0.2567
  160OSM   H12S17952   5.024   2.766   3.848 -0.1050  0.5587 -1.2144
  160OSM   H12T17953   5.047   2.592   3.819  1.2693  1.0961  1.1868
  160OSM   C13S17954   4.866   2.650   3.914 -0.3985  0.0375  0.5455
  160OSM   H13S17955   4.796   2.581   3.864 -0.3528  0.9591 -0.8506
  160OSM   H13T17956   4.811   2.746   3.927  1.4949  1.0155  1.8838
  160OSM   C14S17957   4.923   2.620   4.051  0.1518  0.2188  1.2259
  160OSM   H14S17958   5.008   2.686   4.078  1.0299 -0.5555  0.4003
  160OSM   H14T17959   4.978   2.527   4.028 -0.4730  0.6521 -2.5776
  160OSM   C15S17960   4.809   2.594   4.155  0.0274 -0.4945 -0.0493
  160OSM   H15S17961   4.740   2.523   4.105 -0.8217  0.9167 -0.9363
  160OSM   H15T17962   4.745   2.682   4.175 -0.8922 -1.8632  3.8809
  160OSM   C16S17963   4.854   2.537   4.282 -0.7648 -0.1488  0.4321
  160OSM   H16S17964   4.925   2.607   4.330  0.0927  1.0563 -2.3935
  160OSM   H16T17965   4.917   2.447   4.266  1.3556  1.3959 -0.4065
  160OSM   C17S17966   4.740   2.504   4.377 -0.3900 -0.5916 -0.4118
  160OSM   H17S17967   4.679   2.421   4.335  0.7810 -0.7684 -1.8327
  160OSM   H17T17968   4.675   2.594   4.390  1.2729  0.5762  0.1493
  160OSM   C18S17969   4.799   2.465   4.516  0.1801  0.3056 -0.5801
  160OSM   H18S17970   4.868   2.543   4.555  0.9663 -0.9165  0.5642
  160OSM   H18T17971   4.859   2.372   4.505  0.0518 -0.3219  2.8607
  160OSM   H18U17972   4.717   2.428   4.581 -0.9302  1.2317 -1.4262
  160OSM    C1F17973   5.060   2.432   2.654  0.4851 -0.1171  0.1421
  160OSM     OF17974   5.138   2.470   2.567 -0.2341 -0.1724 -0.0556
  160OSM    C2F17975   5.069   2.298   2.711 -0.2661 -0.1426  0.3803
  160OSM    H2F17976   5.048   2.224   2.631  0.5395  1.4138 -1.3239
  160OSM    H2G17977   5.008   2.272   2.800  0.8450 -0.8089  0.9750
  160OSM    C3F17978   5.206   2.270   2.759 -0.7044  0.1400  0.2893
  160OSM    H3F17979   5.275   2.292   2.674 -1.2835  0.8863  0.0001
  160OSM    H3G17980   5.223   2.162   2.776  0.1199  0.2773  0.4043
  160OSM    C4F17981   5.240   2.345   2.894  0.3724  0.3066  0.6552
  160OSM    H4F17982   5.219   2.453   2.880  0.2799  0.1045 -1.0448
  160OSM    H4G17983   5.349   2.332   2.906  0.5089  1.0630  0.2829
  160OSM    C5F17984   5.159   2.303   3.018 -0.4919  0.2929  0.0888
  160OSM    H5F17985   5.147   2.193   3.009  2.2126 -0.0225 -0.5522
  160OSM    H5G17986   5.056   2.346   3.017 -1.3261 -1.3006  3.3594
  160OSM    C6F17987   5.212   2.350   3.152  0.5564  0.0786 -0.1939
  160OSM    H6F17988   5.237   2.457   3.137 -1.3872  0.6748  0.5866
  160OSM    H6G17989   5.300   2.285   3.173 -0.4083 -1.0403  0.4639
  160OSM    C7F17990   5.116   2.321   3.269  0.1360 -0.3371 -0.1627
  160OSM    H7F17991   5.079   2.216   3.260  0.9986 -1.0368  3.3143
  160OSM    H7G17992   5.023   2.377   3.243  0.8405  0.7066 -0.4975
  160OSM    C8F17993   5.176   2.341   3.411 -0.4172 -0.1697  0.2482
  160OSM    H8F17994   5.231   2.438   3.409  1.5683 -1.2098 -2.9516
  160OSM    H8G17995   5.243   2.255   3.431  0.7356  0.1615 -1.8678
  160OSM    C9F17996   5.075   2.353   3.523  0.5925 -0.4619  0.5505
  160OSM    H9F17997   4.969   2.368   3.500  0.2315 -0.8866  1.8579
  160OSM   C10F17998   5.099   2.313   3.653  0.5642 -0.1881  0.0385
  160OSM   H10F17999   5.021   2.341   3.726  1.3929  1.7037  0.2473
  160OSM   C11F18000   5.233   2.276   3.707  0.0646 -0.0353 -0.3643
  160OSM   H11F18001   5.313   2.323   3.646  0.1210 -0.0168 -0.2763
  160OSM   H11G18002   5.257   2.168   3.703  2.3906  0.4710 -2.1678
  160OSM   C12F18003   5.249   2.326   3.854 -0.8184 -0.0631 -0.1696
  160OSM   H12F18004   5.207   2.426   3.874  0.1799  0.2399  0.4768
  160OSM   H12G18005   5.357   2.333   3.876 -0.4214 -1.0074 -1.6925
  160OSM   C13F18006   5.200   2.223   3.954  0.0492 -0.2579  0.0100
  160OSM   H13F18007   5.263   2.132   3.951  0.5984  0.1391 -0.6323
  160OSM   H13G18008   5.092   2.197   3.950  0.0517 -0.7713  2.2181
  160OSM   C14F18009   5.218   2.273   4.100  0.6280  0.0716 -0.6460
  160OSM   H14F18010   5.160   2.366   4.117  0.8115  0.0084  0.3971
  160OSM   H14G18011   5.324   2.292   4.127  0.6041  0.4752 -0.8331
  160OSM   C15F18012   5.156   2.183   4.202  0.0241 -0.1828 -0.5230
  160OSM   H15F18013   5.180   2.079   4.172  0.5176  0.5543 -2.8305
  160OSM   H15G18014   5.044   2.183   4.201 -0.0393 -1.4478  1.2536
  160OSM   C16F18015   5.188   2.231   4.349  1.0222 -0.5851  0.0065
  160OSM   H16F18016   5.149   2.332   4.372  0.8747 -0.8255  0.8492
  160OSM   H16G18017   5.298   2.216   4.358  0.8011 -2.3565  0.2239
  160OSM   C17F18018   5.123   2.139   4.454 -0.1929 -0.2726  0.1279
  160OSM   H17F18019   5.019   2.175   4.468  0.7325  3.6720 -1.6486
  160OSM   H17G18020   5.180   2.162   4.547 -1.1032  2.3804  0.1311
  160OSM   C18F18021   5.140   1.987   4.437  0.5115 -0.4898  0.9115
  160OSM   H18F18022   5.124   1.939   4.536  0.5672  0.5112  1.4258
  160OSM   H18G18023   5.241   1.964   4.396  0.2471  1.2102 -0.8121
  160OSM   H18H18024   5.073   1.962   4.353 -0.4882  4.3692 -0.0326
  161OSM      N18025   3.372   2.836   1.764  0.0930  0.3463  0.1239
  161OSM    C1518026   3.345   2.879   1.623 -0.1343  0.3498 -0.4768
  161OSM   H15A18027   3.415   2.823   1.564  0.4828  1.0759 -0.4493
  161OSM   H15B18028   3.349   2.986   1.608 -0.0959  0.6597  1.4725
  161OSM   H15C18029   3.243   2.859   1.592  0.3602 -1.3248 -1.1500
  161OSM    C1418030   3.350   2.692   1.784 -0.3441  0.8558  0.4216
  161OSM   H14A18031   3.261   2.651   1.739  1.9495 -2.4802 -1.6008
  161OSM   H14B18032   3.350   2.657   1.886 -3.0882  1.2830  0.6317
  161OSM   H14C18033   3.435   2.634   1.749  0.4299  2.1781  0.0476
  161OSM    C1318034   3.502   2.880   1.809 -0.3189  0.6431  0.6382
  161OSM   H13A18035   3.590   2.845   1.758 -0.6987 -0.2843  0.5889
  161OSM   H13B18036   3.511   2.849   1.912 -0.4322  0.5853  0.6314
  161OSM   H13C18037   3.507   2.988   1.816  0.1488  0.6765 -0.1073
  161OSM    C1218038   3.262   2.901   1.852 -0.1824 -0.1638  0.2193
  161OSM   H12A18039   3.163   2.881   1.815 -0.0716 -1.8329  0.7420
  161OSM   H12B18040   3.283   3.007   1.845  1.1699 -0.4660 -0.6045
  161OSM    C1118041   3.269   2.877   2.005 -0.3727 -0.2619  0.2332
  161OSM   H11A18042   3.211   2.955   2.058 -0.5321 -2.2534  3.2010
  161OSM   H11B18043   3.374   2.897   2.036 -0.6453  0.9995  0.3981
  161OSM      P18044   3.271   2.662   2.158 -0.6069  0.0467 -0.6476
  161OSM    O1318045   3.186   2.544   2.184  0.0827  0.0774 -0.5201
  161OSM    O1418046   3.418   2.649   2.141 -0.2065 -0.3622  0.2671
  161OSM    O1118047   3.247   2.768   2.272  0.0996  0.4354 -0.3801
  161OSM    O1218048   3.213   2.749   2.034  0.1049  0.7564  0.5151
  161OSM    C1S18049   3.117   2.795   2.317  0.3893 -0.1274 -0.3291
  161OSM    H1S18050   3.070   2.699   2.349  0.5305  0.2520  1.0865
  161OSM    H1T18051   3.055   2.844   2.239  1.4906  0.4887 -0.8337
  161OSM     NF18052   2.979   2.896   2.488 -0.4042 -0.4618 -0.2180
  161OSM    HNF18053   2.945   2.985   2.458  1.5521  0.4530  0.1238
  161OSM    C2S18054   3.118   2.882   2.447  0.1857 -0.3576  0.1319
  161OSM    H2S18055   3.162   2.821   2.529 -2.3346 -0.9073  1.1754
  161OSM    C3S18056   3.204   3.009   2.438  0.5054  0.4868  0.2728
  161OSM    H3S18057   3.158   3.083   2.369 -0.4952 -0.5841 -0.2427
  161OSM     O318058   3.333   2.989   2.389  0.2577 -0.7888  0.2001
  161OSM    HO318059   3.327   2.899   2.357  1.2643 -0.3552 -1.2910
  161OSM    C4S18060   3.200   3.066   2.574 -0.4387  0.1780  0.0123
  161OSM    H4S18061   3.131   3.151   2.587 -0.4406  0.7743 -3.1326
  161OSM    C5S18062   3.264   3.016   2.686 -0.1658 -0.0165 -0.2141
  161OSM    H5S18063   3.327   2.926   2.680 -1.3663 -0.8341 -1.0535
  161OSM    C6S18064   3.255   3.080   2.824  0.4727 -0.2855 -0.1941
  161OSM    H6S18065   3.179   3.160   2.814  0.7333 -0.3107 -3.8556
  161OSM    H6T18066   3.348   3.131   2.858 -0.5700  0.0295  2.3921
  161OSM    C7S18067   3.205   2.985   2.932 -0.5816  0.0528 -0.3246
  161OSM    H7S18068   3.264   2.892   2.948 -2.4766 -1.0111  0.7742
  161OSM    H7T18069   3.106   2.940   2.911 -0.1285 -1.0730 -0.1557
  161OSM    C8S18070   3.213   3.052   3.072 -0.5281  0.1902 -0.0497
  161OSM    H8S18071   3.122   3.112   3.093  1.5685  3.0384  1.5012
  161OSM    H8T18072   3.303   3.116   3.077  1.4216 -2.2825 -1.5558
  161OSM    C9S18073   3.208   2.947   3.188 -0.6373  0.6330  0.1177
  161OSM    H9S18074   3.297   2.888   3.159  1.1837  3.7199 -1.0902
  161OSM    H9T18075   3.120   2.882   3.208  1.3399 -1.7549  1.7038
  161OSM   C10S18076   3.228   3.027   3.324 -0.5790 -0.3313  0.3168
  161OSM   H10S18077   3.130   3.078   3.333 -0.9277 -0.8738 -0.3299
  161OSM   H10T18078   3.298   3.108   3.292  0.2929 -2.1294 -2.8725
  161OSM   C11S18079   3.273   2.947   3.443 -0.2627  0.3887 -0.1751
  161OSM   H11S18080   3.375   2.912   3.415 -0.6670 -0.9579 -0.0306
  161OSM   H11T18081   3.216   2.857   3.474  2.2355 -1.0059  0.6850
  161OSM   C12S18082   3.286   3.042   3.567  0.2313 -0.1089 -0.3845
  161OSM   H12S18083   3.190   3.096   3.580 -0.6868 -0.9812 -2.9533
  161OSM   H12T18084   3.362   3.122   3.556 -0.0353  0.3339  0.8463
  161OSM   C13S18085   3.303   2.961   3.701  0.1232 -0.1343  0.2150
  161OSM   H13S18086   3.394   2.897   3.699 -0.0058 -0.3665  1.0895
  161OSM   H13T18087   3.226   2.882   3.689  2.3623 -2.2764 -0.8568
  161OSM   C14S18088   3.285   3.050   3.824  0.1777 -0.3109 -0.4214
  161OSM   H14S18089   3.189   3.106   3.821  0.6072  0.4384 -0.6406
  161OSM   H14T18090   3.361   3.131   3.813  1.9485 -2.1128 -2.5846
  161OSM   C15S18091   3.293   2.967   3.957 -0.3611 -0.5597 -0.3362
  161OSM   H15S18092   3.400   2.953   3.983 -0.7643 -1.0987  1.0890
  161OSM   H15T18093   3.276   2.859   3.935  0.0484 -0.7807  0.4184
  161OSM   C16S18094   3.227   3.033   4.075 -0.2368  1.0492 -0.0138
  161OSM   H16S18095   3.264   3.138   4.076 -0.1767  1.0433 -0.8822
  161OSM   H16T18096   3.255   2.983   4.171 -1.0058 -0.2560 -0.4471
  161OSM   C17S18097   3.074   3.016   4.058  0.8302  0.7107 -0.5542
  161OSM   H17S18098   3.056   2.910   4.031  0.9054  0.3775  0.6437
  161OSM   H17T18099   3.043   3.078   3.971 -0.6178 -0.9752 -1.2870
  161OSM   C18S18100   2.991   3.051   4.191 -0.8701 -0.3958  0.7026
  161OSM   H18S18101   2.883   3.035   4.171 -0.7868  1.1287 -1.2219
  161OSM   H18T18102   3.014   3.155   4.223  4.2204 -0.8242 -0.7174
  161OSM   H18U18103   3.018   2.978   4.270  0.0381 -1.7046 -0.7588
  161OSM    C1F18104   2.899   2.798   2.538 -0.6785  0.2421  0.1074
  161OSM     OF18105   2.955   2.694   2.570  0.1052  0.0397  0.0084
  161OSM    C2F18106   2.750   2.820   2.549  0.1831 -0.0347  0.2325
  161OSM    H2F18107   2.697   2.731   2.510 -0.0318  0.2327 -0.0884
  161OSM    H2G18108   2.723   2.913   2.494 -1.6775 -1.2772 -1.0627
  161OSM    C3F18109   2.708   2.828   2.697  1.0663 -0.1712 -0.9095
  161OSM    H3F18110   2.747   2.741   2.755 -2.1409 -1.1870 -0.1026
  161OSM    H3G18111   2.598   2.833   2.709  1.1667  2.0514 -0.3648
  161OSM    C4F18112   2.749   2.964   2.760  0.6825 -0.0802  0.5242
  161OSM    H4F18113   2.726   3.053   2.698  0.5356  1.0313  2.1232
  161OSM    H4G18114   2.859   2.956   2.769  0.8932 -0.7773 -1.9815
  161OSM    C5F18115   2.690   3.000   2.904  0.3783  0.1385  0.3820
  161OSM    H5F18116   2.648   2.898   2.921  0.9359 -0.4436 -1.5036
  161OSM    H5G18117   2.608   3.074   2.892  0.0996  0.0192  1.4525
  161OSM    C6F18118   2.795   3.039   3.009  0.5729  0.4239 -0.2177
  161OSM    H6F18119   2.854   3.126   2.971  2.8912  0.5545  3.2018
  161OSM    H6G18120   2.853   2.947   3.029 -1.3881 -0.5158  1.5794
  161OSM    C7F18121   2.738   3.086   3.145 -0.1894  0.3935 -0.2045
  161OSM    H7F18122   2.669   3.010   3.189 -1.0375 -0.3586 -2.6766
  161OSM    H7G18123   2.677   3.179   3.148  2.4034  2.1964 -0.0123
  161OSM    C8F18124   2.852   3.118   3.248  0.3521  0.3245 -0.7986
  161OSM    H8F18125   2.908   3.209   3.219  2.2505  0.0902  1.7136
  161OSM    H8G18126   2.923   3.032   3.253 -2.1965 -1.8829  0.3602
  161OSM    C9F18127   2.804   3.171   3.384  0.3290  0.7309  0.5430
  161OSM    H9F18128   2.750   3.266   3.388  0.3513  0.8092 -0.8432
  161OSM   C10F18129   2.825   3.093   3.495  0.0193 -0.6649  0.4658
  161OSM   H10F18130   2.801   3.134   3.594 -0.3208 -0.6428  0.3745
  161OSM   C11F18131   2.897   2.964   3.512  0.0765 -0.6439  0.4588
  161OSM   H11F18132   2.973   2.989   3.589 -1.2669  1.3643  1.2129
  161OSM   H11G18133   2.955   2.934   3.422  0.5289 -0.1324  0.5756
  161OSM   C12F18134   2.803   2.863   3.583 -0.2055 -1.0259 -0.1777
  161OSM   H12F18135   2.732   2.915   3.651  1.4142  1.5822 -0.3516
  161OSM   H12G18136   2.871   2.789   3.631  0.9637  0.4681  0.5760
  161OSM   C13F18137   2.725   2.782   3.480 -0.2366 -0.2816  0.3037
  161OSM   H13F18138   2.788   2.731   3.405 -1.3929 -0.8366 -0.3157
  161OSM   H13G18139   2.654   2.858   3.440 -0.0982 -0.3646 -0.1023
  161OSM   C14F18140   2.648   2.675   3.558 -0.0850 -0.1911  0.3132
  161OSM   H14F18141   2.580   2.727   3.629  1.2486  2.1546 -0.0109
  161OSM   H14G18142   2.717   2.611   3.616  0.4045  1.3558  1.5151
  161OSM   C15F18143   2.569   2.586   3.463  0.2150  0.4802  0.1351
  161OSM   H15F18144   2.490   2.649   3.415 -0.5829 -0.5817  0.0208
  161OSM   H15G18145   2.522   2.512   3.531  2.9407 -1.3592  0.1537
  161OSM   C16F18146   2.642   2.509   3.353  0.5537  0.3046  0.2765
  161OSM   H16F18147   2.711   2.436   3.400 -1.0888 -1.7951 -0.4542
  161OSM   H16G18148   2.707   2.581   3.299  1.4711 -0.1018  0.8034
  161OSM   C17F18149   2.538   2.433   3.269 -1.0709  1.7635 -0.9810
  161OSM   H17F18150   2.470   2.376   3.337  1.5252  0.2837  0.5330
  161OSM   H17G18151   2.578   2.352   3.205 -1.5805  0.0347  0.7698
  161OSM   C18F18152   2.463   2.521   3.174 -0.3823 -0.2240  0.3155
  161OSM   H18F18153   2.416   2.615   3.211  0.9014  0.3230  0.5986
  161OSM   H18G18154   2.376   2.466   3.129  1.5641 -0.9218 -2.9554
  161OSM   H18H18155   2.520   2.548   3.082 -1.0022 -0.8237 -0.2622
  162OSM      N18156   3.062   2.301   1.895  0.3685  0.0676  0.2089
  162OSM    C1518157   3.066   2.244   2.034 -0.0895  0.3543 -0.2778
  162OSM   H15A18158   2.970   2.205   2.062  0.0254 -0.0304 -0.4092
  162OSM   H15B18159   3.085   2.319   2.109 -0.4820  0.8431 -0.6643
  162OSM   H15C18160   3.142   2.170   2.054 -1.0822 -1.8331 -3.7400
  162OSM    C1418161   3.195   2.384   1.878 -0.5580 -0.1526 -0.3170
  162OSM   H14A18162   3.279   2.317   1.868  0.6004  1.2736 -0.3103
  162OSM   H14B18163   3.218   2.448   1.961  3.1557  0.3255 -1.5375
  162OSM   H14C18164   3.187   2.442   1.787  2.3942  0.6953 -0.1208
  162OSM    C1318165   3.079   2.186   1.801 -0.1723  0.1654  0.5761
  162OSM   H13A18166   2.988   2.129   1.787  0.0068  0.1674 -0.6861
  162OSM   H13B18167   3.157   2.118   1.832  0.8917  0.7918 -0.6519
  162OSM   H13C18168   3.104   2.228   1.705 -0.0981  1.2230  1.0455
  162OSM    C1218169   2.938   2.380   1.885  0.7012 -0.2026  0.4548
  162OSM   H12A18170   2.943   2.450   1.803 -0.2546 -1.1954 -0.4888
  162OSM   H12B18171   2.926   2.440   1.974 -2.4314  0.5742 -0.3657
  162OSM    C1118172   2.811   2.300   1.868  0.8745  0.1072 -0.5775
  162OSM   H11A18173   2.811   2.228   1.783 -3.1081  0.9793 -1.5470
  162OSM   H11B18174   2.736   2.375   1.835 -0.2773 -1.2946 -1.2542
  162OSM      P18175   2.688   2.101   2.003 -0.1446  0.5933 -0.0009
  162OSM    O1318176   2.541   2.124   1.983  0.2381 -0.0790 -0.4034
  162OSM    O1418177   2.754   1.997   1.917 -0.7364 -0.1405 -0.4902
  162OSM    O1118178   2.714   2.063   2.155  0.2703  0.3570 -0.7880
  162OSM    O1218179   2.767   2.239   1.987  0.0162  0.3569 -0.2541
  162OSM    C1S18180   2.661   2.155   2.246  0.2666 -0.8530 -0.5167
  162OSM    H1S18181   2.551   2.140   2.255  0.4415 -1.3978  0.9714
  162OSM    H1T18182   2.675   2.260   2.214 -0.9579 -0.5923 -0.2329
  162OSM     NF18183   2.667   2.244   2.489 -0.3565  0.6934  0.9599
  162OSM    HNF18184   2.726   2.319   2.518  0.5944 -0.6642  2.6983
  162OSM    C2S18185   2.719   2.142   2.391 -0.2542  0.0215 -0.1142
  162OSM    H2S18186   2.675   2.047   2.429 -0.5790  0.3339  0.3117
  162OSM    C3S18187   2.868   2.131   2.392 -0.9504 -0.1173  0.3299
  162OSM    H3S18188   2.918   2.228   2.370 -1.0922 -0.2805 -0.7686
  162OSM     O318189   2.924   2.040   2.297 -0.1153  0.0148  0.3843
  162OSM    HO318190   2.847   2.029   2.241 -0.0794 -0.4966  0.4328
  162OSM    C4S18191   2.911   2.084   2.534 -0.7919 -0.1784  0.1030
  162OSM    H4S18192   2.895   1.976   2.548  1.7001 -0.2601  3.8819
  162OSM    C5S18193   2.993   2.143   2.620  0.8482  0.0259  0.1077
  162OSM    H5S18194   3.027   2.246   2.601  0.1147  0.0044 -1.4262
  162OSM    C6S18195   3.042   2.079   2.747  0.6266 -0.0346  0.5837
  162OSM    H6S18196   2.962   2.098   2.821  1.1261 -1.4785  1.5238
  162OSM    H6T18197   3.136   2.130   2.777  0.7580  0.3258 -0.3823
  162OSM    C7S18198   3.058   1.926   2.749 -0.5990 -0.2863  0.7298
  162OSM    H7S18199   3.082   1.879   2.651 -1.5813 -1.5888  1.0784
  162OSM    H7T18200   2.955   1.891   2.771 -1.1459  1.0157  0.3427
  162OSM    C8S18201   3.152   1.867   2.852  0.3773  0.4825 -0.6403
  162OSM    H8S18202   3.258   1.897   2.839  0.8910 -1.0907 -0.3823
  162OSM    H8T18203   3.145   1.757   2.836  0.9215  0.6254 -1.9517
  162OSM    C9S18204   3.115   1.910   2.998  0.0853 -0.2993 -0.0467
  162OSM    H9S18205   3.016   1.884   3.043  0.9963 -2.6922  0.7419
  162OSM    H9T18206   3.137   2.018   2.992 -0.7407 -0.1547 -0.6222
  162OSM   C10S18207   3.204   1.845   3.098 -0.5672 -0.3511 -0.1229
  162OSM   H10S18208   3.312   1.860   3.076 -1.0804  2.4779 -1.0895
  162OSM   H10T18209   3.194   1.734   3.091  1.7764 -0.5364 -1.9073
  162OSM   C11S18210   3.172   1.885   3.242 -0.0132 -0.6756 -0.1423
  162OSM   H11S18211   3.061   1.884   3.250 -0.1376  1.2918 -0.9679
  162OSM   H11T18212   3.202   1.990   3.262  0.7438 -0.9929  0.4386
  162OSM   C12S18213   3.237   1.798   3.348 -0.8785  0.0660 -0.3329
  162OSM   H12S18214   3.344   1.823   3.363 -0.7297 -1.1514  0.9425
  162OSM   H12T18215   3.226   1.688   3.334 -2.4309  0.2930 -1.0433
  162OSM   C13S18216   3.168   1.826   3.487 -0.1128 -0.0954  0.2749
  162OSM   H13S18217   3.067   1.782   3.496  0.7932 -2.0971  1.1321
  162OSM   H13T18218   3.160   1.936   3.505 -3.2730  0.1934 -2.1694
  162OSM   C14S18219   3.243   1.758   3.598 -0.4656  0.6611  0.2701
  162OSM   H14S18220   3.346   1.799   3.604  0.0431 -0.4636 -0.6505
  162OSM   H14T18221   3.262   1.649   3.586  1.3651  0.6121  2.7329
  162OSM   C15S18222   3.173   1.777   3.733 -0.9980 -0.9281 -0.3572
  162OSM   H15S18223   3.072   1.731   3.735 -1.9278  1.0347  0.5004
  162OSM   H15T18224   3.151   1.885   3.752  0.9006 -0.7766  1.3407
  162OSM   C16S18225   3.253   1.734   3.856  0.2077  0.3986 -0.2305
  162OSM   H16S18226   3.354   1.779   3.849  0.3962 -0.2621 -2.3131
  162OSM   H16T18227   3.276   1.626   3.848 -0.9189  0.1647 -0.5292
  162OSM   C17S18228   3.192   1.765   3.997 -0.4629  0.7879  0.4765
  162OSM   H17S18229   3.262   1.717   4.068  0.7470  0.7593 -0.7005
  162OSM   H17T18230   3.091   1.719   4.007  0.0513 -0.1360  1.7010
  162OSM   C18S18231   3.188   1.914   4.031  0.2176  0.1606  0.3368
  162OSM   H18S18232   3.281   1.965   3.997  0.5771 -0.8307 -0.2112
  162OSM   H18T18233   3.169   1.942   4.137 -3.4521  1.8908 -0.6273
  162OSM   H18U18234   3.112   1.971   3.973 -0.2485 -1.5182 -0.7786
  162OSM    C1F18235   2.536   2.264   2.518  0.8914 -0.3676  0.6665
  162OSM     OF18236   2.453   2.190   2.463 -0.0460 -0.3534 -0.2541
  162OSM    C2F18237   2.505   2.377   2.609 -0.2086 -0.3849 -0.4356
  162OSM    H2F18238   2.485   2.469   2.550 -0.2595  0.1272  0.3560
  162OSM    H2G18239   2.603   2.394   2.659 -0.7359  2.5606 -0.2353
  162OSM    C3F18240   2.390   2.354   2.706 -0.8947  0.1009  0.0474
  162OSM    H3F18241   2.303   2.319   2.645  0.0688  0.2909 -1.4993
  162OSM    H3G18242   2.371   2.455   2.747 -1.2447  0.3750 -0.7598
  162OSM    C4F18243   2.425   2.259   2.829 -0.4091  0.0251  1.1106
  162OSM    H4F18244   2.489   2.320   2.897  2.1210 -1.6398  0.3343
  162OSM    H4G18245   2.482   2.169   2.798 -1.4895  0.2281 -1.7005
  162OSM    C5F18246   2.310   2.219   2.920  1.2615  0.1013 -0.0407
  162OSM    H5F18247   2.266   2.317   2.948  3.0299  0.4325  1.8366
  162OSM    H5G18248   2.354   2.159   3.003  0.5524 -0.7788 -0.2833
  162OSM    C6F18249   2.201   2.136   2.851 -0.0075  0.4410 -0.9894
  162OSM    H6F18250   2.247   2.036   2.866 -1.3433 -0.0858 -0.1820
  162OSM    H6G18251   2.190   2.161   2.743  0.9817  0.4371 -1.0995
  162OSM    C7F18252   2.059   2.135   2.916 -0.2499  0.1959  0.2441
  162OSM    H7F18253   2.008   2.051   2.864  0.2754 -1.1534  1.8271
  162OSM    H7G18254   2.007   2.230   2.894 -0.0102  0.1325 -0.6631
  162OSM    C8F18255   2.060   2.089   3.061  1.0462 -1.4951  0.1752
  162OSM    H8F18256   2.148   2.022   3.068  0.3400 -2.5581 -0.7392
  162OSM    H8G18257   1.964   2.037   3.083 -1.6183  2.4941 -0.9923
  162OSM    C9F18258   2.086   2.211   3.151 -0.3065  0.3181 -0.5255
  162OSM    H9F18259   2.021   2.297   3.129 -1.9518 -0.6232  0.3734
  162OSM   C10F18260   2.177   2.219   3.260  0.0138 -0.7892  0.7826
  162OSM   H10F18261   2.196   2.315   3.311 -0.5673  0.0765 -0.5673
  162OSM   C11F18262   2.267   2.103   3.306  0.0589 -1.0149  0.5398
  162OSM   H11F18263   2.369   2.134   3.273 -0.2320 -2.2503 -1.6982
  162OSM   H11G18264   2.247   2.005   3.258 -0.9040 -0.1311 -0.9281
  162OSM   C12F18265   2.274   2.076   3.462 -0.1433 -0.2982 -0.5450
  162OSM   H12F18266   2.374   2.030   3.474  1.3893  2.9687  0.2595
  162OSM   H12G18267   2.188   2.011   3.492  2.4521 -3.2624  1.0567
  162OSM   C13F18268   2.272   2.205   3.547  0.0877  0.9889 -0.4643
  162OSM   H13F18269   2.171   2.251   3.537 -0.1135  0.6534 -0.0431
  162OSM   H13G18270   2.352   2.272   3.509 -0.5504  0.8206 -2.1698
  162OSM   C14F18271   2.287   2.173   3.701  0.2629 -0.1831  0.6294
  162OSM   H14F18272   2.384   2.119   3.708  0.0164 -0.9757 -1.4478
  162OSM   H14G18273   2.190   2.121   3.714 -0.6443  0.0069 -3.9728
  162OSM   C15F18274   2.289   2.296   3.790 -0.1968  0.6998  0.4128
  162OSM   H15F18275   2.200   2.354   3.757 -0.1090 -0.6538 -2.5033
  162OSM   H15G18276   2.378   2.360   3.771 -1.1646  2.3304  1.1751
  162OSM   C16F18277   2.285   2.247   3.941  0.1001  0.1392  0.1052
  162OSM   H16F18278   2.378   2.188   3.950 -1.0161 -1.6097  0.6561
  162OSM   H16G18279   2.196   2.183   3.960  1.1882 -1.0603  1.3019
  162OSM   C17F18280   2.283   2.356   4.049 -0.2401  0.7667 -0.2651
  162OSM   H17F18281   2.187   2.411   4.036 -2.0483 -2.1673 -0.1657
  162OSM   H17G18282   2.374   2.419   4.042  1.3384 -0.8609  3.1977
  162OSM   C18F18283   2.283   2.290   4.187 -0.1368 -0.0635 -0.1039
  162OSM   H18F18284   2.180   2.254   4.207  0.1728 -0.2966  1.1355
  162OSM   H18G18285   2.303   2.372   4.259  2.1559 -0.5436 -0.0994
  162OSM   H18H18286   2.366   2.216   4.194  0.1288  0.1916 -0.4930
  163OSM      N18287   2.758   4.405   2.175 -0.1746  0.2691 -0.0622
  163OSM    C1518288   2.879   4.434   2.247 -0.1909  0.2038 -0.0499
  163OSM   H15A18289   2.937   4.344   2.262  0.9789  1.3139  2.8705
  163OSM   H15B18290   2.861   4.480   2.343 -0.4774  4.0090 -1.7509
  163OSM   H15C18291   2.941   4.502   2.191  2.8486 -2.5119 -0.3024
  163OSM    C1418292   2.683   4.531   2.136 -0.4219 -0.2185 -0.5911
  163OSM   H14A18293   2.748   4.596   2.079  1.2484 -1.5490 -0.2898
  163OSM   H14B18294   2.643   4.590   2.218 -0.4086 -1.1359  0.0890
  163OSM   H14C18295   2.591   4.512   2.083 -1.3716 -0.1587  0.9507
  163OSM    C1318296   2.789   4.342   2.041  0.8337  0.5284  0.2139
  163OSM   H13A18297   2.811   4.237   2.050 -2.6579 -0.2742  1.0683
  163OSM   H13B18298   2.854   4.403   1.979 -0.9528  1.2057 -1.0998
  163OSM   H13C18299   2.698   4.343   1.982  2.3130  1.0492 -2.1953
  163OSM    C1218300   2.663   4.312   2.258 -0.2159  0.2854  0.2604
  163OSM   H12A18301   2.576   4.294   2.197  0.3383 -1.2115 -0.1440
  163OSM   H12B18302   2.643   4.374   2.344  0.9273  1.5317 -0.3188
  163OSM    C1118303   2.721   4.165   2.285  0.4154  0.6822 -0.0575
  163OSM   H11A18304   2.660   4.137   2.374  0.7578 -0.2054 -0.0876
  163OSM   H11B18305   2.827   4.161   2.316  0.4549 -0.2362 -0.2805
  163OSM      P18306   2.739   3.934   2.178 -0.3060 -0.2320  0.5194
  163OSM    O1318307   2.625   3.860   2.118 -0.0504  0.5651  0.3013
  163OSM    O1418308   2.875   3.917   2.115  0.1391 -0.0001 -0.0008
  163OSM    O1118309   2.755   3.898   2.331 -0.3284  0.3517 -0.1491
  163OSM    O1218310   2.703   4.086   2.169  0.4663  0.0806  0.2744
  163OSM    C1S18311   2.682   3.794   2.388  0.1741 -0.1545 -0.4624
  163OSM    H1S18312   2.691   3.698   2.335 -1.0300 -0.6946  0.2533
  163OSM    H1T18313   2.575   3.826   2.381 -0.3319 -0.9143  2.3698
  163OSM     NF18314   2.632   3.652   2.597 -0.0386 -0.1378  0.2093
  163OSM    HNF18315   2.567   3.659   2.671 -1.3694 -3.0442 -0.5180
  163OSM    C2S18316   2.700   3.765   2.544  0.0451 -0.1868 -0.2788
  163OSM    H2S18317   2.809   3.744   2.544 -0.1118 -1.0767  0.7576
  163OSM    C3S18318   2.686   3.892   2.624 -0.1385 -0.5774  0.1163
  163OSM    H3S18319   2.581   3.929   2.633 -0.0382 -0.3432  0.3205
  163OSM     O318320   2.761   3.996   2.570 -0.2957  0.5482 -0.0234
  163OSM    HO318321   2.784   3.965   2.482  0.5450 -1.0144  0.7129
  163OSM    C4S18322   2.748   3.868   2.760  0.1711  0.6865  0.1833
  163OSM    H4S18323   2.856   3.846   2.764 -0.2201 -1.3463  1.8550
  163OSM    C5S18324   2.670   3.856   2.868  0.2340 -0.0607  0.1301
  163OSM    H5S18325   2.562   3.843   2.852  0.1239 -2.4473  2.1612
  163OSM    C6S18326   2.714   3.817   3.005 -0.7219 -0.0246 -0.4721
  163OSM    H6S18327   2.808   3.758   3.003 -2.0935 -2.3758 -0.0108
  163OSM    H6T18328   2.636   3.756   3.056 -1.8441  1.2711 -0.5764
  163OSM    C7S18329   2.743   3.940   3.098  0.5652  0.0118 -0.0238
  163OSM    H7S18330   2.649   3.994   3.119  0.4877  0.3834 -1.2636
  163OSM    H7T18331   2.820   3.999   3.044  0.7807  2.4987  2.7922
  163OSM    C8S18332   2.797   3.907   3.231 -0.2534 -0.0932 -0.9564
  163OSM    H8S18333   2.902   3.873   3.221 -0.0059 -0.4058  2.0051
  163OSM    H8T18334   2.743   3.830   3.290  0.0115  1.7972  1.9513
  163OSM    C9S18335   2.800   4.036   3.305 -0.5010 -0.0587 -0.6247
  163OSM    H9S18336   2.707   4.097   3.307  1.1379  2.6430  2.0646
  163OSM    H9T18337   2.869   4.107   3.255 -1.6750  0.5985 -1.3355
  163OSM   C10S18338   2.856   4.011   3.444 -0.4754  0.6978 -0.3565
  163OSM   H10S18339   2.955   3.962   3.437 -0.9977 -0.1580 -2.3632
  163OSM   H10T18340   2.789   3.939   3.495 -0.2438  0.8311  0.1514
  163OSM   C11S18341   2.861   4.135   3.538 -1.0369 -0.4403 -0.4450
  163OSM   H11S18342   2.763   4.176   3.568 -0.2275  0.2411  1.4075
  163OSM   H11T18343   2.913   4.218   3.486 -0.3489 -1.9421 -2.2801
  163OSM   C12S18344   2.929   4.108   3.678  0.7877 -0.7473 -0.0887
  163OSM   H12S18345   2.905   4.204   3.727  0.3528 -0.3064 -1.1518
  163OSM   H12T18346   3.039   4.092   3.679  0.9688  0.3264  1.5475
  163OSM   C13S18347   2.854   4.003   3.769  0.5033  0.2398 -0.0289
  163OSM   H13S18348   2.843   3.905   3.718 -2.3814 -0.3700  1.5578
  163OSM   H13T18349   2.747   4.032   3.774  0.6524  0.5282  3.6499
  163OSM   C14S18350   2.893   3.988   3.916 -0.2699 -0.3333 -0.6207
  163OSM   H14S18351   2.877   4.090   3.958 -2.6369 -0.2161 -1.6432
  163OSM   H14T18352   3.000   3.962   3.931 -0.1050  1.1179  1.2433
  163OSM   C15S18353   2.814   3.877   3.980 -0.2858 -0.4020  0.4596
  163OSM   H15S18354   2.856   3.776   3.963 -0.4511 -0.7701  2.0920
  163OSM   H15T18355   2.709   3.880   3.943  0.2209  1.0949 -0.9789
  163OSM   C16S18356   2.816   3.887   4.134  0.4395 -0.7768 -0.0673
  163OSM   H16S18357   2.748   3.968   4.166  0.1764 -0.2053 -1.9568
  163OSM   H16T18358   2.922   3.911   4.159  0.6980 -0.1960 -1.5680
  163OSM   C17S18359   2.769   3.754   4.199  0.0599 -0.2019 -0.0778
  163OSM   H17S18360   2.803   3.665   4.142 -2.4234  0.0918 -2.2364
  163OSM   H17T18361   2.658   3.750   4.203 -0.0900  0.7895 -1.9093
  163OSM   C18S18362   2.807   3.745   4.351 -0.5213 -0.0633 -0.0193
  163OSM   H18S18363   2.760   3.820   4.418  0.2864 -1.6239  2.4356
  163OSM   H18T18364   2.918   3.750   4.365 -0.5990 -1.0915  1.0465
  163OSM   H18U18365   2.774   3.650   4.397 -1.0550  0.4791  0.7253
  163OSM    C1F18366   2.659   3.531   2.554  0.1468  0.7566  1.0364
  163OSM     OF18367   2.749   3.501   2.476 -0.6501 -0.1396 -0.0753
  163OSM    C2F18368   2.560   3.424   2.585 -0.3072 -0.0775 -0.3121
  163OSM    H2F18369   2.513   3.390   2.490  0.7210 -1.9566 -0.2116
  163OSM    H2G18370   2.473   3.463   2.642  0.5076 -1.0426  1.7108
  163OSM    C3F18371   2.634   3.315   2.654  0.7561  0.0569  0.8180
  163OSM    H3F18372   2.714   3.276   2.588  0.4439 -0.6143  0.8326
  163OSM    H3G18373   2.566   3.231   2.678  0.8788 -0.8463 -1.7850
  163OSM    C4F18374   2.704   3.351   2.789  0.4330  1.2043  0.0076
  163OSM    H4F18375   2.777   3.434   2.773  1.8941 -0.1060 -0.3794
  163OSM    H4G18376   2.759   3.266   2.835 -0.3456  2.5274  3.7489
  163OSM    C5F18377   2.610   3.401   2.904 -0.2322  0.6366  0.1502
  163OSM    H5F18378   2.537   3.319   2.922 -1.3068  1.3340 -0.8995
  163OSM    H5G18379   2.557   3.487   2.857  0.3199  0.4220 -0.9132
  163OSM    C6F18380   2.677   3.438   3.029  0.4739 -0.4229 -0.2670
  163OSM    H6F18381   2.738   3.531   3.017 -0.4238  0.3300  0.7670
  163OSM    H6G18382   2.738   3.351   3.062  0.2961 -0.5418 -0.2514
  163OSM    C7F18383   2.568   3.477   3.139 -0.5276  0.7551  0.5214
  163OSM    H7F18384   2.503   3.392   3.167 -1.2570  1.1431  0.0509
  163OSM    H7G18385   2.503   3.556   3.095 -3.1400 -2.1316 -1.1240
  163OSM    C8F18386   2.640   3.540   3.261  0.1341  0.5696 -0.1055
  163OSM    H8F18387   2.707   3.621   3.225 -0.6262  0.9184 -0.7552
  163OSM    H8G18388   2.708   3.469   3.313  1.2531  1.1258 -0.7796
  163OSM    C9F18389   2.540   3.596   3.356 -0.4450  0.2591 -0.3069
  163OSM    H9F18390   2.439   3.619   3.318 -1.0084  2.0226  2.0740
  163OSM   C10F18391   2.570   3.619   3.485  0.1099 -0.1036  0.6188
  163OSM   H10F18392   2.484   3.651   3.547 -1.5182 -1.0889 -1.0217
  163OSM   C11F18393   2.698   3.591   3.565  0.4396 -0.2225 -0.5581
  163OSM   H11F18394   2.725   3.672   3.635 -0.1509 -0.8252  0.3954
  163OSM   H11G18395   2.777   3.554   3.496 -0.2899 -0.3964 -1.3209
  163OSM   C12F18396   2.655   3.481   3.672  0.2998 -0.3218 -0.2806
  163OSM   H12F18397   2.623   3.380   3.638  1.4619 -0.8695  0.1957
  163OSM   H12G18398   2.562   3.516   3.720  1.1676  0.4981  0.8533
  163OSM   C13F18399   2.760   3.460   3.781  0.2391  0.3821  0.2989
  163OSM   H13F18400   2.778   3.567   3.807  2.2939  0.1892 -0.1020
  163OSM   H13G18401   2.850   3.414   3.734 -0.9531 -3.5336  1.4837
  163OSM   C14F18402   2.698   3.370   3.895 -0.0800 -0.0031  0.2417
  163OSM   H14F18403   2.737   3.267   3.880  0.3193  0.1814 -0.0157
  163OSM   H14G18404   2.587   3.367   3.892 -0.0456 -0.6309 -1.5288
  163OSM   C15F18405   2.727   3.417   4.035 -0.3893 -0.8051  0.5031
  163OSM   H15F18406   2.668   3.511   4.044  0.5457 -0.0866 -0.5782
  163OSM   H15G18407   2.835   3.438   4.051 -0.5575  0.0282  0.5972
  163OSM   C16F18408   2.690   3.327   4.154 -0.0800  0.9058  0.6822
  163OSM   H16F18409   2.758   3.240   4.154  0.0922  1.0362  0.3241
  163OSM   H16G18410   2.589   3.280   4.158  1.4210 -2.6620  0.0264
  163OSM   C17F18411   2.732   3.398   4.289 -0.3063 -0.8270  0.0146
  163OSM   H17F18412   2.677   3.493   4.306 -0.9310 -1.1386 -0.2385
  163OSM   H17G18413   2.840   3.422   4.283 -0.5012 -0.0729 -0.5982
  163OSM   C18F18414   2.693   3.297   4.389  0.1931 -0.2403  0.0983
  163OSM   H18F18415   2.736   3.196   4.370 -0.9352 -1.1232  1.9019
  163OSM   H18G18416   2.585   3.280   4.372  0.5136 -1.4395 -0.8940
  163OSM   H18H18417   2.701   3.338   4.492 -1.1313  2.0855 -0.6706
  164OSM      N18418   4.990   2.184   2.107  0.7174  0.3848  0.1653
  164OSM    C1518419   5.115   2.130   2.166  0.3612 -0.0375 -0.8545
  164OSM   H15A18420   5.095   2.085   2.262 -0.3626  1.1308 -0.4376
  164OSM   H15B18421   5.195   2.201   2.185  1.0945 -1.4747  2.0098
  164OSM   H15C18422   5.147   2.056   2.094  1.7882  0.7283 -1.0539
  164OSM    C1418423   5.027   2.213   1.967  0.0641  0.0777 -0.0470
  164OSM   H14A18424   5.107   2.285   1.980  1.2282 -1.2566  0.3763
  164OSM   H14B18425   4.945   2.258   1.914 -1.4016 -1.6758  0.6412
  164OSM   H14C18426   5.073   2.135   1.909  0.8292  0.0443  0.5786
  164OSM    C1318427   4.879   2.083   2.098 -0.1038 -0.1653  0.1911
  164OSM   H13A18428   4.933   1.989   2.094 -0.5285 -0.3696 -3.4133
  164OSM   H13B18429   4.832   2.083   2.001  0.6086  0.7785 -0.1716
  164OSM   H13C18430   4.805   2.097   2.175  0.7116 -1.6973  1.3134
  164OSM    C1218431   4.939   2.303   2.179  0.3714 -0.4164 -0.2483
  164OSM   H12A18432   4.847   2.333   2.131 -0.6025 -0.9361  1.2139
  164OSM   H12B18433   5.007   2.383   2.154 -0.2453 -0.7806 -3.4846
  164OSM    C1118434   4.922   2.299   2.334 -0.0970 -0.3380 -0.0028
  164OSM   H11A18435   4.879   2.397   2.365  0.8296  0.3962 -0.9648
  164OSM   H11B18436   5.022   2.284   2.380 -0.4723  0.5320  1.1456
  164OSM      P18437   4.679   2.199   2.357  0.6293 -0.8686 -0.2133
  164OSM    O1318438   4.648   2.323   2.286 -0.6446  0.3407  0.1177
  164OSM    O1418439   4.626   2.078   2.296  0.0754 -0.6206 -0.1164
  164OSM    O1118440   4.625   2.218   2.507 -0.0958  0.2839  0.2060
  164OSM    O1218441   4.840   2.188   2.374  0.2505 -0.4942  0.2099
  164OSM    C1S18442   4.714   2.207   2.617  0.0792 -0.2641  0.3353
  164OSM    H1S18443   4.778   2.296   2.634  2.8476 -2.2193  0.8546
  164OSM    H1T18444   4.780   2.118   2.602 -1.4822 -1.1253 -2.0275
  164OSM     NF18445   4.700   2.216   2.860  0.4769 -0.6773  0.4288
  164OSM    HNF18446   4.726   2.138   2.917  0.9835 -2.3514 -1.9041
  164OSM    C2S18447   4.633   2.172   2.743 -0.3120  1.2441 -0.3364
  164OSM    H2S18448   4.531   2.217   2.734 -1.1048 -0.4739 -0.2364
  164OSM    C3S18449   4.586   2.019   2.751 -0.0003 -0.0409 -0.3882
  164OSM    H3S18450   4.685   1.973   2.773  0.2605  1.0768  0.9510
  164OSM     O318451   4.537   1.964   2.630 -0.1919  0.5002  0.3209
  164OSM    HO318452   4.554   2.033   2.566 -0.9518  1.9817  1.6347
  164OSM    C4S18453   4.488   2.001   2.869 -0.4052  0.9151 -0.1720
  164OSM    H4S18454   4.527   1.930   2.944 -1.2566 -1.9559 -2.2702
  164OSM    C5S18455   4.361   2.034   2.875 -0.0245 -0.2044  0.1331
  164OSM    H5S18456   4.312   2.070   2.783 -0.2393 -1.9802 -0.4915
  164OSM    C6S18457   4.269   1.989   2.982  0.2223 -0.2413  0.8196
  164OSM    H6S18458   4.215   1.894   2.963 -1.9093  1.0956 -0.1400
  164OSM    H6T18459   4.185   2.060   2.996  0.4049 -0.0591  0.9924
  164OSM    C7S18460   4.335   1.989   3.122  0.1728 -0.0749  1.0828
  164OSM    H7S18461   4.381   2.090   3.132 -1.8041  0.9922  0.1118
  164OSM    H7T18462   4.411   1.908   3.118  1.4163  1.1050 -1.4630
  164OSM    C8S18463   4.240   1.938   3.226 -1.0126  0.0667 -0.4075
  164OSM    H8S18464   4.187   1.854   3.177 -1.8607  1.0779 -1.2685
  164OSM    H8T18465   4.160   2.009   3.255 -1.1142  0.3018 -1.2402
  164OSM    C9S18466   4.336   1.907   3.346  0.2888 -0.4234 -0.2175
  164OSM    H9S18467   4.399   1.998   3.359 -0.1715 -0.3359  1.7139
  164OSM    H9T18468   4.409   1.825   3.329  0.8479 -0.6014  2.5713
  164OSM   C10S18469   4.264   1.881   3.482 -0.1137 -0.4463  0.5304
  164OSM   H10S18470   4.190   1.798   3.484 -0.8341  0.1900  0.8066
  164OSM   H10T18471   4.205   1.974   3.497  2.7911  1.2778  1.8865
  164OSM   C11S18472   4.349   1.864   3.605  0.0195  0.2278  0.2255
  164OSM   H11S18473   4.417   1.952   3.602 -1.1663  1.2067  1.0433
  164OSM   H11T18474   4.406   1.771   3.584  0.0236  0.4542 -0.8634
  164OSM   C12S18475   4.263   1.874   3.738  0.5725  0.4071 -0.5272
  164OSM   H12S18476   4.193   1.788   3.744  1.9596 -0.8171 -1.2598
  164OSM   H12T18477   4.199   1.964   3.725 -3.0702 -2.3817 -6.2067
  164OSM   C13S18478   4.348   1.898   3.860 -0.0603  0.3947  0.6650
  164OSM   H13S18479   4.402   1.991   3.833  3.0713 -1.3748  0.3407
  164OSM   H13T18480   4.426   1.820   3.869  0.9612  1.1780 -0.9476
  164OSM   C14S18481   4.265   1.905   3.987  0.0458  0.2752 -0.0308
  164OSM   H14S18482   4.187   1.983   3.973 -2.7190 -2.8062 -3.9339
  164OSM   H14T18483   4.326   1.952   4.068 -2.7218  2.3214  1.0122
  164OSM   C15S18484   4.224   1.775   4.046 -0.5273 -0.0246  0.3369
  164OSM   H15S18485   4.293   1.692   4.021  2.4493  2.0594  1.1964
  164OSM   H15T18486   4.126   1.748   4.001 -1.5233  3.0000  0.4548
  164OSM   C16S18487   4.220   1.765   4.198  0.1051 -0.2089 -0.1780
  164OSM   H16S18488   4.163   1.841   4.255 -0.8391 -0.4405 -0.7899
  164OSM   H16T18489   4.327   1.771   4.226 -0.1744  1.4516  0.6677
  164OSM   C17S18490   4.172   1.625   4.242 -0.3686  0.0283 -0.0736
  164OSM   H17S18491   4.246   1.548   4.212  0.0430  1.1133 -2.0305
  164OSM   H17T18492   4.077   1.606   4.188 -0.7507 -0.0446  0.6158
  164OSM   C18S18493   4.136   1.613   4.393 -0.1035  0.6937 -0.3394
  164OSM   H18S18494   4.120   1.504   4.406 -0.6804  0.6971 -0.9521
  164OSM   H18T18495   4.045   1.673   4.415  1.1821  2.5745  0.0794
  164OSM   H18U18496   4.220   1.651   4.455  0.6486 -0.1514 -0.8187
  164OSM    C1F18497   4.730   2.341   2.896  0.4079  0.0018 -0.4681
  164OSM     OF18498   4.713   2.434   2.815  0.4767  0.4278 -0.8847
  164OSM    C2F18499   4.777   2.365   3.038  0.4299 -0.1790  0.2119
  164OSM    H2F18500   4.825   2.464   3.048  0.8469 -0.4534  1.0177
  164OSM    H2G18501   4.851   2.284   3.054 -0.7087 -1.3807 -0.3462
  164OSM    C3F18502   4.665   2.340   3.140  0.2556 -0.1478  0.0649
  164OSM    H3F18503   4.612   2.243   3.131 -0.6021  0.3035  0.1132
  164OSM    H3G18504   4.587   2.419   3.131 -0.0123 -0.4920 -0.6827
  164OSM    C4F18505   4.732   2.344   3.283 -0.4541  0.2441 -0.1013
  164OSM    H4F18506   4.764   2.450   3.291 -0.5807  0.3167 -0.5492
  164OSM    H4G18507   4.821   2.277   3.279 -0.5939  0.1302 -2.1766
  164OSM    C5F18508   4.632   2.311   3.394  0.3582 -0.1384  0.0052
  164OSM    H5F18509   4.582   2.216   3.364  0.1870  0.0368 -0.2692
  164OSM    H5G18510   4.551   2.387   3.396  1.6006  1.2348 -0.0372
  164OSM    C6F18511   4.702   2.292   3.529  0.4882  0.5152 -0.6757
  164OSM    H6F18512   4.762   2.377   3.568  1.5670 -0.5328  0.0371
  164OSM    H6G18513   4.769   2.204   3.523 -0.9554 -0.6293 -0.5831
  164OSM    C7F18514   4.608   2.264   3.641  0.4093  0.4164 -0.7761
  164OSM    H7F18515   4.532   2.195   3.598  1.6075 -0.8343 -0.9360
  164OSM    H7G18516   4.557   2.354   3.681  0.2073  0.1139 -0.3434
  164OSM    C8F18517   4.660   2.186   3.774 -0.3694  0.1176  0.2257
  164OSM    H8F18518   4.711   2.092   3.742  2.2592  2.2080 -2.1748
  164OSM    H8G18519   4.574   2.152   3.836 -1.2279 -1.6934 -1.8279
  164OSM    C9F18520   4.753   2.274   3.858 -0.2776  0.2248  0.2427
  164OSM    H9F18521   4.768   2.375   3.817 -0.0063 -0.2252 -0.8048
  164OSM   C10F18522   4.809   2.244   3.972 -0.9115  0.5113 -0.6056
  164OSM   H10F18523   4.868   2.322   4.023  0.2157 -2.0309  2.3379
  164OSM   C11F18524   4.789   2.117   4.057 -0.7316 -0.0115  0.5183
  164OSM   H11F18525   4.886   2.063   4.066 -0.1149  0.2945 -2.9191
  164OSM   H11G18526   4.711   2.048   4.019  0.3960 -1.1958  0.2504
  164OSM   C12F18527   4.744   2.157   4.198 -0.4156  0.1761 -0.0456
  164OSM   H12F18528   4.648   2.211   4.211 -1.0140 -0.6908 -0.7610
  164OSM   H12G18529   4.819   2.233   4.229  1.0267 -0.5314 -1.6114
  164OSM   C13F18530   4.728   2.045   4.298 -0.4540  0.1849 -0.6892
  164OSM   H13F18531   4.816   1.981   4.275 -1.1122 -0.2735 -2.0503
  164OSM   H13G18532   4.643   1.978   4.272 -0.4520  0.3004 -1.0052
  164OSM   C14F18533   4.721   2.094   4.443 -0.1326  0.0522  0.0995
  164OSM   H14F18534   4.631   2.157   4.462 -1.3211 -1.5976  0.1708
  164OSM   H14G18535   4.820   2.140   4.464  0.4742 -1.8780  1.7103
  164OSM   C15F18536   4.705   1.977   4.534  1.1091 -0.9355 -0.1705
  164OSM   H15F18537   4.775   1.892   4.517  0.4023 -1.3069 -1.3638
  164OSM   H15G18538   4.618   1.919   4.497 -0.2549 -0.9436  2.8432
  164OSM   C16F18539   4.682   2.014   4.685  0.8654  1.2600  0.8414
  164OSM   H16F18540   4.760   2.087   4.715  0.4562  2.8351 -1.6803
  164OSM   H16G18541   4.693   1.921   4.746 -2.3773 -0.0754 -0.3892
  164OSM   C17F18542   4.536   2.055   4.698  1.0446  0.5327  0.4173
  164OSM   H17F18543   4.466   1.970   4.686 -0.7524  1.3778  3.5546
  164OSM   H17G18544   4.510   2.118   4.611  2.6839  1.3962  0.5086
  164OSM   C18F18545   4.510   2.124   4.832  0.8495 -0.2568  0.3354
  164OSM   H18F18546   4.551   2.071   4.920 -0.9313 -0.3199  1.1714
  164OSM   H18G18547   4.401   2.134   4.850  0.7307 -0.9270  0.0075
  164OSM   H18H18548   4.554   2.226   4.838 -0.9469  0.8311 -2.4918
  165SAPS     N18549   0.151   5.415   6.727 -0.3786  0.4010  0.1662
  165SAPS   HN118550   0.057   5.422   6.683 -1.0171 -1.1976  1.1714
  165SAPS   HN218551   0.201   5.504   6.710 -0.5192  0.1269 -1.9924
  165SAPS   HN318552   0.200   5.346   6.665 -0.0145  0.5326  0.3060
  165SAPS   C1218553   0.142   5.371   6.876  1.0867 -0.4569  0.5229
  165SAPS  H12A18554   0.104   5.270   6.884 -0.6215  0.0776 -0.3412
  165SAPS   C1318555   0.274   5.378   6.949  0.0362 -0.9244  0.5758
  165SAPS  O13A18556   0.385   5.393   6.888 -0.0476 -0.0640  0.3297
  165SAPS  O13B18557   0.266   5.383   7.073  0.1204 -0.4945 -0.2649
  165SAPS   C1118558   0.033   5.458   6.947 -0.1512 -0.1821 -0.3114
  165SAPS  H11A18559   0.069   5.563   6.955 -0.8470  0.0265  0.1340
  165SAPS  H11B18560   0.032   5.432   7.055  0.2030  1.6491  0.1642
  165SAPS     P18561  -0.215   5.531   6.923  0.2523  0.2716  0.4466
  165SAPS   O1318562  -0.326   5.433   6.887  0.8332 -0.1038  0.2850
  165SAPS   O1418563  -0.200   5.571   7.065 -0.6084  0.2881 -0.3274
  165SAPS   O1218564  -0.090   5.452   6.877  0.0541  0.0484  0.0647
  165SAPS   O1118565  -0.231   5.655   6.831 -0.0763 -0.6278  0.0032
  165SAPS    C118566  -0.137   5.721   6.760  0.2811  0.4485 -0.5462
  165SAPS    HA18567  -0.110   5.809   6.823 -0.1083  0.4439 -0.3694
  165SAPS    HB18568  -0.044   5.667   6.733  0.7048  1.3646 -0.9697
  165SAPS    C218569  -0.201   5.780   6.630  0.2685  0.0386  0.0520
  165SAPS    HS18570  -0.273   5.858   6.663  0.3357 -0.1344  0.6180
  165SAPS   O2118571  -0.262   5.665   6.560 -0.4650  0.3879 -0.2720
  165SAPS   C2118572  -0.395   5.648   6.566  0.3511  0.1534  0.5659
  165SAPS   O2218573  -0.473   5.727   6.605  0.1290 -1.3617 -0.5785
  165SAPS   C2218574  -0.435   5.515   6.504  0.2973  0.2146 -0.0440
  165SAPS   H2R18575  -0.381   5.434   6.557  1.1263 -0.2404 -1.5017
  165SAPS   H2S18576  -0.543   5.494   6.518  0.3276 -0.2015 -0.4058
  165SAPS    C318577  -0.086   5.848   6.542  0.6239 -0.2360  0.4119
  165SAPS    HX18578  -0.004   5.778   6.512 -0.8250 -1.7483 -0.1641
  165SAPS    HY18579  -0.047   5.928   6.609  1.5405 -0.1314 -0.2247
  165SAPS   O3118580  -0.137   5.929   6.432 -0.2499  0.1624 -0.6604
  165SAPS   C3118581  -0.137   5.866   6.312 -0.4230 -0.1887 -0.5946
  165SAPS   O3218582  -0.122   5.746   6.303  0.1090  0.6034  0.6017
  165SAPS   C3218583  -0.166   5.966   6.195  0.4914 -0.1791  0.1440
  165SAPS   H2X18584  -0.116   6.064   6.213  1.4657 -1.0384  2.5198
  165SAPS   H2Y18585  -0.276   5.982   6.197  0.3972 -0.8366  0.3196
  165SAPS   C2318586  -0.407   5.510   6.353 -0.4488 -0.0749 -0.2481
  165SAPS   H3R18587  -0.424   5.412   6.304 -0.4206  1.5187 -3.7833
  165SAPS   H3S18588  -0.300   5.533   6.339 -0.0575 -0.6445  1.5378
  165SAPS   C2418589  -0.484   5.615   6.272  0.0226 -0.1938  0.1184
  165SAPS   H4R18590  -0.462   5.716   6.312 -2.1689 -0.3309  1.8173
  165SAPS   H4S18591  -0.594   5.603   6.277  0.0947 -0.5345  1.0215
  165SAPS   C2518592  -0.428   5.623   6.127  0.4046  0.2549  0.5194
  165SAPS   H5R18593  -0.323   5.656   6.130  0.1709  0.9387  1.4206
  165SAPS   C2618594  -0.487   5.595   6.010  0.3792 -0.8046 -0.1710
  165SAPS   H6R18595  -0.427   5.594   5.918  0.2958 -2.4058 -0.2256
  165SAPS   C2718596  -0.633   5.549   5.995  0.4359  0.4642 -0.5718
  165SAPS   H7R18597  -0.691   5.642   5.975 -1.0291 -0.0748  0.8718
  165SAPS   H7S18598  -0.668   5.503   6.090 -0.6874 -0.9589 -1.6370
  165SAPS   C2818599  -0.639   5.450   5.876 -0.3662 -0.3795 -0.5524
  165SAPS   H8R18600  -0.624   5.343   5.900  1.1176 -0.4836 -1.7836
  165SAPS   C2918601  -0.680   5.468   5.748  0.2610 -0.0898  0.3742
  165SAPS   H9R18602  -0.664   5.389   5.673  1.0946 -0.7951  1.2857
  165SAPS  C21018603  -0.706   5.605   5.682 -0.2551 -0.2060 -0.0789
  165SAPS  H10R18604  -0.731   5.685   5.755 -0.2248 -1.0093  0.8406
  165SAPS  H10S18605  -0.795   5.595   5.616  0.5429  0.8319 -1.3516
  165SAPS  C21118606  -0.593   5.660   5.600 -0.0507  0.1386 -0.5029
  165SAPS  H11R18607  -0.511   5.710   5.655  0.6307 -0.7347 -0.6936
  165SAPS  C21218608  -0.594   5.675   5.466  0.3812 -0.0744 -0.3381
  165SAPS  H12R18609  -0.517   5.738   5.419 -1.4863  2.9392  0.4408
  165SAPS  C21318610  -0.708   5.635   5.376  0.6342  0.0137  0.3887
  165SAPS  H13R18611  -0.719   5.720   5.306  0.4483  1.7462  2.4413
  165SAPS  H13S18612  -0.803   5.644   5.434  0.4256 -1.0240  0.2386
  165SAPS  C21418613  -0.690   5.502   5.312  0.1970 -0.7102  0.4003
  165SAPS  H14R18614  -0.751   5.417   5.346 -1.3030 -0.1667 -0.8228
  165SAPS  C21518615  -0.615   5.471   5.207 -0.2158 -0.8128  0.4655
  165SAPS  H15R18616  -0.623   5.371   5.162 -0.3197 -0.5003 -0.2239
  165SAPS  C21618617  -0.526   5.558   5.119  0.3182 -0.1272  0.0430
  165SAPS  H16R18618  -0.429   5.511   5.092  0.2646  0.2700 -0.9126
  165SAPS  H16S18619  -0.497   5.651   5.173  1.8181 -0.0357 -0.8501
  165SAPS  C21718620  -0.594   5.593   4.987 -0.9534  0.4390  0.1953
  165SAPS  H17R18621  -0.666   5.676   5.007  0.1418  1.4717 -0.0239
  165SAPS  H17S18622  -0.635   5.501   4.941  0.7991 -0.9912  1.3838
  165SAPS  C21818623  -0.486   5.623   4.875  0.7401  0.2342 -0.8926
  165SAPS  H18R18624  -0.432   5.537   4.830 -0.9544 -0.9187 -0.8118
  165SAPS  H18S18625  -0.415   5.701   4.911  0.6080 -0.4025  0.8328
  165SAPS  C21918626  -0.550   5.683   4.744  0.4738 -0.1915 -0.1087
  165SAPS  H19R18627  -0.464   5.735   4.696  1.1534  0.0938  1.3470
  165SAPS  H19S18628  -0.622   5.763   4.770  1.7581  1.7707 -2.2132
  165SAPS  C22018629  -0.624   5.582   4.649 -0.6255  0.8421 -0.6317
  165SAPS  H20R18630  -0.565   5.489   4.659  0.4459  1.5725  0.0781
  165SAPS  H20S18631  -0.629   5.609   4.541  1.2339  0.3169 -0.8833
  165SAPS  H20T18632  -0.727   5.569   4.687  0.0078 -1.6319  0.4620
  165SAPS   C3318633  -0.124   5.917   6.050 -0.1249  0.9454  0.2108
  165SAPS   H3X18634  -0.098   5.809   6.051  3.3474  1.5158 -3.0348
  165SAPS   H3Y18635  -0.040   5.972   6.002 -1.0784  0.5631 -2.0250
  165SAPS   C3418636  -0.231   5.944   5.941 -0.1325 -0.5121 -0.6033
  165SAPS   H4X18637  -0.250   6.052   5.959  1.2572 -0.2128 -0.8672
  165SAPS   H4Y18638  -0.317   5.880   5.972 -0.6352  1.3457  2.3583
  165SAPS   C3518639  -0.183   5.916   5.794 -0.2088 -0.1363  0.7043
  165SAPS   H5X18640  -0.151   5.810   5.782 -0.4267 -0.1128 -0.1511
  165SAPS   H5Y18641  -0.103   5.990   5.774 -2.7108  2.2278 -1.3438
  165SAPS   C3618642  -0.293   5.952   5.697 -0.1904  0.1916  0.2487
  165SAPS   H6X18643  -0.323   6.058   5.714  0.7757  0.8047 -1.6506
  165SAPS   H6Y18644  -0.380   5.890   5.727 -1.2319  1.8805  0.8638
  165SAPS   C3718645  -0.258   5.934   5.548  0.1243  0.0810 -0.0482
  165SAPS   H7X18646  -0.350   5.962   5.491 -1.1230 -3.2263  0.0920
  165SAPS   H7Y18647  -0.255   5.826   5.523  0.9137  0.1774 -0.3883
  165SAPS   C3818648  -0.149   6.017   5.490 -0.4864 -0.1279 -0.3338
  165SAPS   H8X18649  -0.055   5.990   5.541 -1.0843 -1.6155  0.0152
  165SAPS   H8Y18650  -0.176   6.124   5.504 -1.0206 -0.4677  1.4476
  165SAPS   C3918651  -0.118   5.998   5.342  0.0110  0.5879 -0.0900
  165SAPS   H9X18652  -0.093   5.892   5.320 -1.1491  0.1674  0.5118
  165SAPS   H9Y18653  -0.027   6.058   5.319  1.9605 -2.0596  0.2444
  165SAPS  C31018654  -0.240   6.031   5.246 -0.4735 -0.1792 -0.1820
  165SAPS  H10X18655  -0.258   6.139   5.263  1.5513 -0.0931  1.8408
  165SAPS  H10Y18656  -0.328   5.968   5.272  0.0109 -0.0457  1.9009
  165SAPS  C31118657  -0.204   5.995   5.099  0.2735 -0.3275  0.2028
  165SAPS  H11X18658  -0.169   5.890   5.096  0.2200 -0.3610  0.7567
  165SAPS  H11Y18659  -0.112   6.053   5.072  1.6653 -2.0569  1.0333
  165SAPS  C31218660  -0.303   6.019   4.991  0.4868  0.2929 -0.2958
  165SAPS  H12X18661  -0.314   6.128   4.972  1.2757  0.3265 -0.5679
  165SAPS  H12Y18662  -0.404   5.975   5.008  0.4959 -0.0055 -1.0075
  165SAPS  C31318663  -0.267   5.966   4.852 -0.4811  0.0962  0.2166
  165SAPS  H13X18664  -0.355   5.967   4.784  0.1330 -0.1808 -0.6128
  165SAPS  H13Y18665  -0.228   5.862   4.848 -1.0131 -0.1251  0.6617
  165SAPS  C31418666  -0.153   6.043   4.782 -0.4978  0.1977 -0.4099
  165SAPS  H14X18667  -0.065   6.003   4.836 -0.6911  0.4304  0.0896
  165SAPS  H14Y18668  -0.154   6.150   4.812  0.1871 -0.4005  1.9374
  165SAPS  C31518669  -0.139   6.012   4.632  0.1627 -0.2884  0.0506
  165SAPS  H15X18670  -0.043   6.058   4.600 -0.3139  0.7700  0.0988
  165SAPS  H15Y18671  -0.228   6.038   4.570  0.4441 -1.0161 -0.6949
  165SAPS  C31618672  -0.109   5.866   4.604 -0.4261  0.2697 -0.1196
  165SAPS  H16X18673  -0.196   5.814   4.649  0.6464 -0.3731  1.2726
  165SAPS  H16Y18674  -0.018   5.832   4.657  0.7975 -0.0147 -2.2864
  165SAPS  C31718675  -0.097   5.844   4.452 -0.1184  0.2273 -0.2392
  165SAPS  H17X18676  -0.005   5.902   4.430  1.2737 -1.9658 -0.4258
  165SAPS  H17Y18677  -0.186   5.900   4.415 -0.5407 -0.0903  0.2782
  165SAPS  C31818678  -0.078   5.698   4.425 -0.2605  0.1350  0.6034
  165SAPS  H18X18679  -0.121   5.665   4.328  0.8433 -1.3908  0.6013
  165SAPS  H18Y18680  -0.145   5.636   4.487 -1.1881 -1.8495 -2.1662
  165SAPS  H18Z18681   0.027   5.662   4.433 -0.6632 -1.0302  0.7135
  166SAPS     N18682   3.761   6.540   7.171 -0.3135  0.5757 -0.6738
  166SAPS   HN118683   3.841   6.475   7.158 -2.1469 -1.8767 -0.5554
  166SAPS   HN218684   3.760   6.582   7.266 -0.8466  1.9976 -1.2764
  166SAPS   HN318685   3.679   6.477   7.155  1.4351 -2.0052 -0.0559
  166SAPS   C1218686   3.768   6.641   7.062  0.3422 -0.4871  0.6034
  166SAPS  H12A18687   3.722   6.603   6.972  0.2917  1.0945 -0.0819
  166SAPS   C1318688   3.699   6.784   7.078 -0.1328 -0.4313  0.0487
  166SAPS  O13A18689   3.650   6.814   7.189  0.4037  0.2023 -0.5587
  166SAPS  O13B18690   3.691   6.859   6.980 -0.0458  0.5889  0.0843
  166SAPS   C1118691   3.917   6.673   7.032 -0.2429 -0.3979  0.4138
  166SAPS  H11A18692   3.951   6.716   7.129 -1.6668  1.1446  0.2722
  166SAPS  H11B18693   3.928   6.752   6.956  1.5048 -0.4374  0.5871
  166SAPS     P18694   3.989   6.507   6.840 -0.4741 -0.1589  0.1470
  166SAPS   O1318695   4.101   6.408   6.845 -0.2285 -0.0666 -0.1525
  166SAPS   O1418696   3.862   6.453   6.803  0.1439  0.0181 -0.1359
  166SAPS   O1218697   3.982   6.553   6.991  0.4027  0.1416  0.1966
  166SAPS   O1118698   4.021   6.639   6.761  0.0850  0.1589 -0.0805
  166SAPS    C118699   4.132   6.660   6.676 -0.0821  0.3280  0.5870
  166SAPS    HA18700   4.228   6.681   6.728 -0.7713  0.5133  1.8154
  166SAPS    HB18701   4.136   6.573   6.607 -1.1548  0.8445 -0.1642
  166SAPS    C218702   4.121   6.789   6.591 -0.0128 -0.3177  0.5405
  166SAPS    HS18703   4.136   6.873   6.662  3.6159  0.8409 -1.3609
  166SAPS   O2118704   4.000   6.801   6.515  0.2095 -0.3585  0.1921
  166SAPS   C2118705   3.909   6.884   6.561  1.0306 -0.2999 -0.4546
  166SAPS   O2218706   3.921   6.955   6.662  0.7278  0.0998 -0.0498
  166SAPS   C2218707   3.794   6.887   6.465 -0.9603  0.0385 -0.3261
  166SAPS   H2R18708   3.790   6.794   6.404 -0.0118  0.5670 -1.2288
  166SAPS   H2S18709   3.704   6.895   6.530 -0.6265  3.2671 -0.1012
  166SAPS    C318710   4.239   6.788   6.496 -0.2515 -0.2042  0.0309
  166SAPS    HX18711   4.234   6.701   6.428  1.0903  0.1564 -0.5592
  166SAPS    HY18712   4.330   6.777   6.558  0.1556 -0.3588 -0.5871
  166SAPS   O3118713   4.242   6.898   6.409  0.0816 -0.2964  0.5035
  166SAPS   C3118714   4.293   7.007   6.470  0.2238 -0.0345  0.5436
  166SAPS   O3218715   4.328   7.021   6.582 -0.0759  0.3758  0.6806
  166SAPS   C3218716   4.317   7.109   6.362 -0.1365 -0.0125 -0.1128
  166SAPS   H2X18717   4.406   7.169   6.391  0.3705 -0.6144 -0.3938
  166SAPS   H2Y18718   4.227   7.174   6.359  0.0842  0.4713  2.1163
  166SAPS   C2318719   3.792   7.008   6.361  0.2757  0.3391  0.9626
  166SAPS   H3R18720   3.820   7.099   6.420 -0.1010  1.5001 -0.5765
  166SAPS   H3S18721   3.694   7.029   6.312  1.8173  2.4824 -1.4723
  166SAPS   C2418722   3.882   6.995   6.238 -0.7414  0.0984 -0.6980
  166SAPS   H4R18723   3.980   6.969   6.283 -1.8181 -3.1906  0.0188
  166SAPS   H4S18724   3.888   7.095   6.190  0.5250  0.5776  0.4093
  166SAPS   C2518725   3.852   6.881   6.137  0.1618  0.3179 -0.0261
  166SAPS   H5R18726   3.879   6.781   6.175  0.3676 -0.1270 -1.2975
  166SAPS   C2618727   3.801   6.899   6.016  0.3647  0.0678  0.0729
  166SAPS   H6R18728   3.783   6.810   5.953 -0.1336 -1.9722  2.8959
  166SAPS   C2718729   3.770   7.031   5.962  0.2642 -0.5890 -0.1618
  166SAPS   H7R18730   3.865   7.089   5.949 -0.0024  0.4178  1.9518
  166SAPS   H7S18731   3.713   7.095   6.033  1.3769 -1.7172  1.8317
  166SAPS   C2818732   3.699   7.033   5.833  0.4682  0.0827  0.7118
  166SAPS   H8R18733   3.759   7.003   5.746  1.1377  0.3951  1.0584
  166SAPS   C2918734   3.577   7.079   5.800  0.3757  0.6990  0.6771
  166SAPS   H9R18735   3.533   7.078   5.699 -2.1618 -0.6348  1.6973
  166SAPS  C21018736   3.470   7.135   5.899 -1.2319  0.6244  0.4606
  166SAPS  H10R18737   3.484   7.245   5.898 -1.8217  0.7234  1.3873
  166SAPS  H10S18738   3.498   7.109   6.003 -3.2510  2.4840  1.5498
  166SAPS  C21118739   3.336   7.084   5.866  0.2611 -0.0281  0.2393
  166SAPS  H11R18740   3.327   6.976   5.886  0.8293  0.3596  2.9834
  166SAPS  C21218741   3.218   7.147   5.834  0.0195  0.8516 -0.4384
  166SAPS  H12R18742   3.131   7.086   5.807  0.6098  0.7149 -2.1007
  166SAPS  C21318743   3.201   7.294   5.809  0.2115 -0.0200  0.0361
  166SAPS  H13R18744   3.150   7.315   5.713  0.4075  3.8059  0.6183
  166SAPS  H13S18745   3.300   7.338   5.784  1.1121 -2.5673 -1.1463
  166SAPS  C21418746   3.132   7.360   5.927  0.5121  0.8533  0.3838
  166SAPS  H14R18747   3.087   7.292   6.001 -0.2038  1.3299  0.3885
  166SAPS  C21518748   3.143   7.488   5.958  0.0052  0.0959 -0.9282
  166SAPS  H15R18749   3.116   7.529   6.057 -1.8371  0.7536 -1.6684
  166SAPS  C21618750   3.216   7.592   5.875 -0.0823 -0.1041  0.6932
  166SAPS  H16R18751   3.258   7.542   5.785 -0.9279 -1.4734  1.0222
  166SAPS  H16S18752   3.304   7.628   5.931 -0.2138 -1.6285  1.9318
  166SAPS  C21718753   3.130   7.710   5.829  0.0464 -0.1372 -0.4293
  166SAPS  H17R18754   3.042   7.658   5.786  0.2258  0.9944 -2.3107
  166SAPS  H17S18755   3.181   7.767   5.748  0.5464  0.4572  0.2821
  166SAPS  C21818756   3.103   7.796   5.952  0.2854 -0.8083 -0.0556
  166SAPS  H18R18757   3.191   7.864   5.956 -1.2861  1.4254 -1.1607
  166SAPS  H18S18758   3.098   7.736   6.045 -0.7178  0.4496  0.7422
  166SAPS  C21918759   2.988   7.900   5.933 -0.9549 -0.1277  0.7412
  166SAPS  H19R18760   2.994   7.949   5.833 -2.6948 -0.8288  0.2594
  166SAPS  H19S18761   2.996   7.970   6.019 -1.5079 -2.8017  3.1095
  166SAPS  C22018762   2.850   7.829   5.938 -0.1609  0.5280  0.1963
  166SAPS  H20R18763   2.834   7.769   5.846  0.1134  1.6395 -0.6040
  166SAPS  H20S18764   2.788   7.920   5.919  1.1682  1.5365  0.5056
  166SAPS  H20T18765   2.817   7.787   6.035 -0.8258  1.1817  0.2656
  166SAPS   C3318766   4.338   7.067   6.209 -0.7851  0.7573 -0.6444
  166SAPS   H3X18767   4.352   7.158   6.147 -2.1262  0.7706 -0.9679
  166SAPS   H3Y18768   4.244   7.017   6.177 -1.1310 -0.3579  1.9361
  166SAPS   C3418769   4.456   6.973   6.191 -0.0022 -1.1248 -0.0765
  166SAPS   H4X18770   4.428   6.872   6.228 -0.8697 -1.3900 -1.3637
  166SAPS   H4Y18771   4.533   7.022   6.254 -1.1283 -0.5698  0.9031
  166SAPS   C3518772   4.506   6.964   6.047  0.0957 -0.4769  0.3107
  166SAPS   H5X18773   4.598   6.904   6.034  1.7826  1.0441  3.8328
  166SAPS   H5Y18774   4.534   7.070   6.026 -1.5617  0.1375  1.0469
  166SAPS   C3618775   4.407   6.925   5.937  0.2372  0.2684  0.5143
  166SAPS   H6X18776   4.317   6.988   5.957  0.6826  1.3494 -0.7441
  166SAPS   H6Y18777   4.372   6.824   5.966  0.7117  0.7351  2.9120
  166SAPS   C3718778   4.460   6.935   5.794 -0.4390  0.1476  0.2007
  166SAPS   H7X18779   4.561   6.888   5.802 -0.6323 -0.0284  2.1126
  166SAPS   H7Y18780   4.479   7.043   5.775  1.1910 -0.0280  0.6652
  166SAPS   C3818781   4.386   6.865   5.678  0.5069 -0.7756 -0.3988
  166SAPS   H8X18782   4.294   6.921   5.649 -0.1398 -1.5323  0.1785
  166SAPS   H8Y18783   4.357   6.761   5.704  1.3375 -1.3006 -1.4771
  166SAPS   C3918784   4.481   6.858   5.558 -0.0393 -0.1768 -0.5680
  166SAPS   H9X18785   4.441   6.773   5.499 -1.4552 -0.3170  0.5298
  166SAPS   H9Y18786   4.589   6.836   5.574  0.0947  1.1374  0.5250
  166SAPS  C31018787   4.466   6.989   5.483 -0.3766 -0.2842  0.4078
  166SAPS  H10X18788   4.493   7.078   5.543  0.8449 -0.6099  0.3564
  166SAPS  H10Y18789   4.359   7.009   5.461 -0.5491 -1.6308 -0.0940
  166SAPS  C31118790   4.537   6.998   5.349  0.3492 -0.0717  0.3052
  166SAPS  H11X18791   4.506   6.908   5.291 -0.9960 -0.1464  1.1000
  166SAPS  H11Y18792   4.645   6.997   5.373 -0.0663  0.0428  2.3259
  166SAPS  C31218793   4.497   7.129   5.284  0.2207  0.0455 -0.4866
  166SAPS  H12X18794   4.511   7.209   5.359  2.9065  0.5080 -1.3755
  166SAPS  H12Y18795   4.390   7.138   5.255  0.5508 -1.3100 -2.3482
  166SAPS  C31318796   4.589   7.162   5.161  0.1569  0.0256 -0.5069
  166SAPS  H13X18797   4.584   7.065   5.109 -6.6651 -0.3291 -0.1726
  166SAPS  H13Y18798   4.689   7.175   5.207 -1.1954 -0.1596  2.7928
  166SAPS  C31418799   4.546   7.282   5.084  0.0762  0.1153  0.0006
  166SAPS  H14X18800   4.584   7.376   5.128  0.3876  0.2122 -0.4681
  166SAPS  H14Y18801   4.435   7.279   5.075  0.0581  1.1879 -0.2724
  166SAPS  C31518802   4.608   7.270   4.943 -0.4539 -0.2237  0.1818
  166SAPS  H15X18803   4.552   7.341   4.879 -0.2282  0.8166  1.1025
  166SAPS  H15Y18804   4.602   7.166   4.904  0.3411 -0.1015 -0.2963
  166SAPS  C31618805   4.752   7.328   4.933 -0.2723 -0.3984 -0.6080
  166SAPS  H16X18806   4.814   7.304   5.022  0.6870 -1.0307 -1.4221
  166SAPS  H16Y18807   4.749   7.439   4.926 -2.2136 -0.4955 -2.3136
  166SAPS  C31718808   4.830   7.285   4.806  0.4015  0.2178 -0.0452
  166SAPS  H17X18809   4.776   7.323   4.717  0.8735  1.3619  0.1409
  166SAPS  H17Y18810   4.838   7.175   4.813  0.1142  0.2499  0.9943
  166SAPS  C31818811   4.960   7.365   4.785 -0.2493 -0.2855  0.5986
  166SAPS  H18X18812   4.956   7.475   4.768 -0.4429 -0.5029 -0.8780
  166SAPS  H18Y18813   5.010   7.317   4.698  3.7303  0.0313  2.4976
  166SAPS  H18Z18814   5.025   7.360   4.875  0.3979  1.9448  0.3195
  167SAPS     N18815   1.493   0.095   6.746  0.6205 -0.3519 -0.2892
  167SAPS   HN118816   1.483   0.090   6.643 -1.2282  1.9911 -0.3131
  167SAPS   HN218817   1.424   0.044   6.804  0.4820  0.1966  0.0319
  167SAPS   HN318818   1.491   0.196   6.772 -0.7620 -0.6058  0.7142
  167SAPS   C1218819   1.630   0.033   6.766  0.5645 -0.2414  0.2993
  167SAPS  H12A18820   1.692   0.046   6.678  1.2365 -3.9739  0.0695
  167SAPS   C1318821   1.716   0.089   6.883 -0.5402  0.5048  0.6500
  167SAPS  O13A18822   1.662   0.161   6.971  0.7207 -0.4649  0.4236
  167SAPS  O13B18823   1.822   0.020   6.914  0.3788 -0.4050  0.1820
  167SAPS   C1118824   1.609  -0.112   6.789  0.1177  0.4517 -0.1201
  167SAPS  H11A18825   1.556  -0.128   6.885 -2.3515 -3.7837 -1.8879
  167SAPS  H11B18826   1.701  -0.173   6.796 -0.8500 -1.4529 -2.4865
  167SAPS     P18827   1.577  -0.271   6.583  0.0643 -0.3345 -0.1772
  167SAPS   O1318828   1.620  -0.396   6.654  0.1183  0.0066  0.1689
  167SAPS   O1418829   1.478  -0.282   6.471  0.2139 -0.9623 -0.3650
  167SAPS   O1218830   1.526  -0.163   6.681 -0.1862 -0.0797 -0.8313
  167SAPS   O1118831   1.707  -0.212   6.523 -0.4334 -0.2768 -0.2095
  167SAPS    C118832   1.778  -0.265   6.412  0.1661 -0.7495  1.3537
  167SAPS    HA18833   1.887  -0.243   6.414  0.0094  2.1942 -3.5629
  167SAPS    HB18834   1.765  -0.375   6.404  0.7737 -0.9667  2.9253
  167SAPS    C218835   1.746  -0.189   6.270  0.1578  0.7524  0.3479
  167SAPS    HS18836   1.637  -0.209   6.256  0.1029 -0.4675  2.1350
  167SAPS   O2118837   1.833  -0.239   6.162  0.6534  0.1728 -0.8248
  167SAPS   C2118838   1.800  -0.363   6.120  0.3713  0.3297 -0.0293
  167SAPS   O2218839   1.717  -0.429   6.177 -0.2183  1.2044 -0.2991
  167SAPS   C2218840   1.872  -0.396   5.986 -0.3869  0.1978 -0.3083
  167SAPS   H2R18841   1.963  -0.332   5.982 -1.4407  1.7922 -0.1765
  167SAPS   H2S18842   1.907  -0.501   5.994  0.3759  0.5885  2.6326
  167SAPS    C318843   1.771  -0.034   6.269 -0.2875 -0.2306  0.4852
  167SAPS    HX18844   1.874  -0.019   6.307 -1.1404  0.6854  2.6010
  167SAPS    HY18845   1.698   0.013   6.339 -0.9355  0.6220 -0.7337
  167SAPS   O3118846   1.755   0.022   6.139 -0.1485 -0.0456 -0.1464
  167SAPS   C3118847   1.778   0.153   6.145 -0.2989 -0.1541 -0.5681
  167SAPS   O3218848   1.800   0.214   6.251 -0.4405  0.6508 -0.6958
  167SAPS   C3218849   1.758   0.212   6.005  0.5717  0.9959 -0.5439
  167SAPS   H2X18850   1.696   0.149   5.937  1.6132  0.2163 -0.7839
  167SAPS   H2Y18851   1.856   0.183   5.962 -0.0300  0.0818 -1.3530
  167SAPS   C2318852   1.788  -0.392   5.858 -0.7276 -0.0727  0.8401
  167SAPS   H3R18853   1.721  -0.305   5.870 -0.5835  0.2939 -0.8308
  167SAPS   H3S18854   1.734  -0.489   5.855  1.1163 -1.2075  1.8248
  167SAPS   C2418855   1.866  -0.364   5.726 -0.1901  0.2611  0.0322
  167SAPS   H4R18856   1.957  -0.429   5.727 -1.0904 -1.0383 -0.0688
  167SAPS   H4S18857   1.879  -0.254   5.722 -1.6108  0.4515  0.3861
  167SAPS   C2518858   1.802  -0.411   5.604  0.0908 -0.2433 -1.1335
  167SAPS   H5R18859   1.782  -0.520   5.602  1.1165 -0.4737 -4.0618
  167SAPS   C2618860   1.756  -0.328   5.510 -0.6207  0.0340 -0.0740
  167SAPS   H6R18861   1.711  -0.380   5.425 -1.3403 -0.4233  0.5714
  167SAPS   C2718862   1.758  -0.177   5.484 -0.1155 -0.2801 -0.0317
  167SAPS   H7R18863   1.706  -0.128   5.570  1.7961  0.4914  0.7263
  167SAPS   H7S18864   1.699  -0.151   5.393 -3.2781 -2.4861  1.1829
  167SAPS   C2818865   1.895  -0.116   5.462 -0.0649  0.0312  0.7080
  167SAPS   H8R18866   1.933  -0.053   5.544  2.4669  0.1704 -0.4764
  167SAPS   C2918867   1.983  -0.154   5.361 -0.0011  0.2960  0.1981
  167SAPS   H9R18868   2.085  -0.113   5.363 -0.2658  1.0936 -1.1513
  167SAPS  C21018869   1.955  -0.249   5.250 -0.0669 -0.3259  0.3421
  167SAPS  H10R18870   1.869  -0.314   5.276 -1.3285  0.5156 -1.4666
  167SAPS  H10S18871   2.033  -0.324   5.222 -1.4322 -1.5129 -0.4541
  167SAPS  C21118872   1.916  -0.169   5.126 -0.2113  0.1566  0.1950
  167SAPS  H11R18873   1.990  -0.095   5.091  0.3580 -1.1366 -1.4811
  167SAPS  C21218874   1.794  -0.163   5.062  0.3544 -0.0079  0.1603
  167SAPS  H12R18875   1.783  -0.089   4.981  3.5619 -1.4181 -1.7363
  167SAPS  C21318876   1.685  -0.259   5.085  0.2940 -0.0805  0.4219
  167SAPS  H13R18877   1.589  -0.207   5.108  0.2355  1.0536 -2.1281
  167SAPS  H13S18878   1.706  -0.335   5.164  0.4027 -0.0390  0.4329
  167SAPS  C21418879   1.650  -0.338   4.962  0.4419  0.0214  0.1817
  167SAPS  H14R18880   1.732  -0.404   4.930 -0.8177 -1.2721 -0.4808
  167SAPS  C21518881   1.538  -0.343   4.888  0.0215  0.4367 -0.5161
  167SAPS  H15R18882   1.546  -0.399   4.794  0.7631  2.1207 -1.5052
  167SAPS  C21618883   1.412  -0.265   4.902 -0.8272 -0.3381  0.2864
  167SAPS  H16R18884   1.415  -0.233   5.008 -0.8487 -2.3535  0.9273
  167SAPS  H16S18885   1.323  -0.331   4.894 -1.0997 -0.1817  1.7433
  167SAPS  C21718886   1.408  -0.142   4.812 -0.0418 -0.0156  0.2766
  167SAPS  H17R18887   1.462  -0.165   4.717  1.7996 -3.3912  1.9365
  167SAPS  H17S18888   1.470  -0.063   4.858  0.7469 -0.7169  0.4314
  167SAPS  C21818889   1.260  -0.090   4.793 -0.5032  0.0107 -0.3122
  167SAPS  H18R18890   1.205  -0.183   4.767  0.4683 -0.0718 -2.2623
  167SAPS  H18S18891   1.254  -0.023   4.704  0.9614  2.0441  1.0126
  167SAPS  C21918892   1.213  -0.019   4.924  0.3332  0.2817  0.3067
  167SAPS  H19R18893   1.289   0.061   4.929  1.6032 -0.7043 -1.8040
  167SAPS  H19S18894   1.220  -0.091   5.008  0.2796 -1.1034 -0.8301
  167SAPS  C22018895   1.074   0.036   4.920 -0.2537  0.2132 -1.0906
  167SAPS  H20R18896   1.070   0.119   4.845 -1.1186  1.9802  0.8000
  167SAPS  H20S18897   1.052   0.072   5.023 -0.4531 -0.7209 -0.7968
  167SAPS  H20T18898   1.003  -0.044   4.890  0.9363 -0.7214 -1.4967
  167SAPS   C3318899   1.724   0.362   6.009  0.0756  0.6515  0.0279
  167SAPS   H3X18900   1.789   0.425   6.073  1.6632 -1.5508  0.7047
  167SAPS   H3Y18901   1.625   0.363   6.060  0.3389 -0.4087  0.5936
  167SAPS   C3418902   1.715   0.420   5.867 -0.0625 -0.0759  0.3237
  167SAPS   H4X18903   1.686   0.527   5.866 -1.7646 -0.4964 -0.9402
  167SAPS   H4Y18904   1.638   0.369   5.804 -0.1265 -0.4607  0.7104
  167SAPS   C3518905   1.845   0.395   5.789 -0.1545 -0.2604  0.0539
  167SAPS   H5X18906   1.856   0.286   5.766 -1.7073  0.1093 -2.8127
  167SAPS   H5Y18907   1.926   0.423   5.860  0.4324 -0.0816 -0.6806
  167SAPS   C3618908   1.862   0.500   5.679 -0.5483 -0.8062  0.2912
  167SAPS   H6X18909   1.841   0.605   5.707  1.9179 -0.4597  1.1202
  167SAPS   H6Y18910   1.801   0.471   5.591  1.2474 -0.7535 -1.0336
  167SAPS   C3718911   2.004   0.523   5.622  0.1722 -0.3313  0.4061
  167SAPS   H7X18912   2.072   0.543   5.707 -2.1606  2.8225  1.7361
  167SAPS   H7Y18913   2.010   0.606   5.547  1.0615  0.3359  1.1879
  167SAPS   C3818914   2.046   0.394   5.548 -0.4964 -0.0360  0.3209
  167SAPS   H8X18915   1.988   0.381   5.455  0.6898  0.3373 -0.4870
  167SAPS   H8Y18916   2.015   0.309   5.614 -1.7683  1.2758  1.4981
  167SAPS   C3918917   2.198   0.400   5.529 -0.3286 -0.3788  0.8203
  167SAPS   H9X18918   2.257   0.396   5.623 -0.3155 -2.2546  0.7783
  167SAPS   H9Y18919   2.230   0.499   5.491 -2.0927 -0.1943 -0.3209
  167SAPS  C31018920   2.250   0.281   5.441  0.2062  0.4646 -0.0822
  167SAPS  H10X18921   2.204   0.192   5.488 -0.1677 -0.9790 -2.9229
  167SAPS  H10Y18922   2.359   0.270   5.455 -0.0894  1.1289  3.8157
  167SAPS  C31118923   2.196   0.280   5.302 -0.3630  0.2622 -0.2289
  167SAPS  H11X18924   2.232   0.374   5.254 -1.1726  0.7027  0.0128
  167SAPS  H11Y18925   2.087   0.297   5.288 -0.8219 -0.3681  2.0968
  167SAPS  C31218926   2.236   0.152   5.221  0.1968  0.4887  0.4608
  167SAPS  H12X18927   2.190   0.068   5.277 -1.6042  0.6285 -0.7346
  167SAPS  H12Y18928   2.345   0.133   5.207  0.0588 -0.2784  0.4213
  167SAPS  C31318929   2.178   0.159   5.077 -0.2993  0.7128 -0.2973
  167SAPS  H13X18930   2.192   0.258   5.029  1.0727 -0.4104 -2.3758
  167SAPS  H13Y18931   2.069   0.136   5.073 -0.0661 -0.2432 -2.1548
  167SAPS  C31418932   2.242   0.058   4.982 -0.7155  0.7650 -0.0823
  167SAPS  H14X18933   2.250  -0.042   5.029 -0.3505  0.8844  0.1148
  167SAPS  H14Y18934   2.344   0.095   4.957  0.3527 -1.9210 -0.0031
  167SAPS  C31518935   2.160   0.035   4.857 -0.2944  0.6916  0.5535
  167SAPS  H15X18936   2.167   0.132   4.803 -1.1624  2.0507  2.7609
  167SAPS  H15Y18937   2.055   0.013   4.884  0.8293 -0.7621  4.4053
  167SAPS  C31618938   2.212  -0.085   4.784  0.4434  0.2944  0.1214
  167SAPS  H16X18939   2.183  -0.180   4.832 -1.8501  1.9594  2.3292
  167SAPS  H16Y18940   2.322  -0.079   4.797  0.2250  1.5569  1.8328
  167SAPS  C31718941   2.169  -0.069   4.637 -0.2385  0.0408  0.0825
  167SAPS  H17X18942   2.197   0.027   4.588  1.2033  0.1126  0.9869
  167SAPS  H17Y18943   2.058  -0.066   4.635 -0.2095  0.7947 -0.6035
  167SAPS  C31818944   2.223  -0.178   4.550  0.4378  0.7630  0.7137
  167SAPS  H18X18945   2.185  -0.173   4.446 -0.0512 -2.4611  0.6226
  167SAPS  H18Y18946   2.184  -0.275   4.590  0.2310 -0.2317 -1.7411
  167SAPS  H18Z18947   2.334  -0.187   4.546  0.3428 -1.1044 -3.4760
  168SAPS     N18948   6.373   0.024   6.689  0.1168  0.6019 -0.2947
  168SAPS   HN118949   6.302  -0.052   6.679  0.6503  0.1296 -0.5493
  168SAPS   HN218950   6.470  -0.012   6.696  0.0897  0.2937 -1.3633
  168SAPS   HN318951   6.354   0.071   6.780 -1.0362 -1.3653  0.5496
  168SAPS   C1218952   6.370   0.125   6.581  0.5121  0.3076  1.0342
  168SAPS  H12A18953   6.270   0.157   6.555  0.5253 -1.5083 -1.7265
  168SAPS   C1318954   6.455   0.252   6.596  0.1457 -0.6788 -0.7484
  168SAPS  O13A18955   6.507   0.269   6.708  0.7866 -0.4033 -0.0554
  168SAPS  O13B18956   6.469   0.341   6.507 -0.1270 -0.0804  0.4842
  168SAPS   C1118957   6.426   0.053   6.456 -0.0938  0.1690  0.1052
  168SAPS  H11A18958   6.452   0.123   6.374  1.2156 -0.3165  0.0855
  168SAPS  H11B18959   6.362  -0.019   6.401  1.0775 -1.7743  1.1891
  168SAPS     P18960   6.646  -0.064   6.371  0.1155  0.3422  0.2687
  168SAPS   O1318961   6.732   0.054   6.355 -0.0271  0.0782  0.4919
  168SAPS   O1418962   6.699  -0.201   6.392 -0.4914 -0.2458 -0.0915
  168SAPS   O1218963   6.543  -0.029   6.491  0.0249 -0.2489 -0.2281
  168SAPS   O1118964   6.548  -0.071   6.246  0.2029  0.1985 -0.2743
  168SAPS    C118965   6.487  -0.192   6.198 -0.2277  0.0285 -0.4366
  168SAPS    HA18966   6.568  -0.260   6.164  1.5220  1.5999  0.3954
  168SAPS    HB18967   6.427  -0.238   6.279  2.0647 -1.0551  0.7329
  168SAPS    C218968   6.400  -0.156   6.078 -0.5205  0.1668 -0.7299
  168SAPS    HS18969   6.348  -0.248   6.045 -2.9487  0.7771  1.1966
  168SAPS   O2118970   6.470  -0.093   5.971 -0.1731 -0.1896  0.4974
  168SAPS   C2118971   6.552  -0.170   5.895  0.8056 -0.7069 -0.6850
  168SAPS   O2218972   6.535  -0.288   5.889  0.4087  0.4277  0.5356
  168SAPS   C2218973   6.665  -0.086   5.838  0.4699 -0.0700 -0.5094
  168SAPS   H2R18974   6.619  -0.010   5.771  1.2969  0.0892 -0.9086
  168SAPS   H2S18975   6.715  -0.041   5.927  1.6352 -0.2805 -1.0403
  168SAPS    C318976   6.295  -0.048   6.122 -0.0749 -0.5464  0.2208
  168SAPS    HX18977   6.353   0.038   6.164 -2.3568  1.6573 -0.8661
  168SAPS    HY18978   6.233  -0.082   6.207 -0.1069 -2.3702 -0.5020
  168SAPS   O3118979   6.218  -0.013   6.005 -0.5325  0.3140 -0.4562
  168SAPS   C3118980   6.237   0.116   5.959  0.2694 -0.5258 -0.2263
  168SAPS   O3218981   6.293   0.208   6.018 -0.1866  0.2760  0.2372
  168SAPS   C3218982   6.167   0.126   5.825 -0.2250  0.0685  0.2326
  168SAPS   H2X18983   6.071   0.180   5.838  0.1143  0.5669  0.7008
  168SAPS   H2Y18984   6.148   0.019   5.801  1.4363  0.2572 -2.2974
  168SAPS   C2318985   6.769  -0.179   5.769  1.1034  0.3246 -0.0393
  168SAPS   H3R18986   6.723  -0.243   5.690  3.6935 -1.0302 -0.5739
  168SAPS   H3S18987   6.808  -0.244   5.850 -0.2354  0.4988  0.7717
  168SAPS   C2418988   6.869  -0.095   5.698 -0.2644 -0.2877  0.5046
  168SAPS   H4R18989   6.931  -0.162   5.634 -0.2779 -0.0650  0.2544
  168SAPS   H4S18990   6.936  -0.036   5.764 -0.6893 -0.2954  0.9521
  168SAPS   C2518991   6.811   0.004   5.601 -0.5296  0.9183 -0.8148
  168SAPS   H5R18992   6.772   0.094   5.651  0.0020 -0.6266  2.7139
  168SAPS   C2618993   6.811  -0.005   5.467 -0.3808 -0.4270 -0.0905
  168SAPS   H6R18994   6.776   0.087   5.418 -0.3606  0.3190  1.2613
  168SAPS   C2718995   6.856  -0.121   5.382  0.4986 -0.1974  0.0603
  168SAPS   H7R18996   6.815  -0.213   5.428 -0.9107  0.3771  0.0006
  168SAPS   H7S18997   6.967  -0.128   5.383  0.4970 -0.4169 -0.6897
  168SAPS   C2818998   6.794  -0.111   5.239 -0.5125 -0.0112 -0.1197
  168SAPS   H8R18999   6.686  -0.090   5.229 -0.0623  3.5762  1.0210
  168SAPS   C2919000   6.869  -0.138   5.131 -0.5194 -0.2889 -0.8391
  168SAPS   H9R19001   6.807  -0.147   5.040 -4.0956 -1.0211  1.4417
  168SAPS  C21019002   7.016  -0.165   5.116 -0.3770  0.0274 -0.3028
  168SAPS  H10R19003   7.054  -0.207   5.212 -0.4695  1.0801  0.2079
  168SAPS  H10S19004   7.073  -0.070   5.103  1.3874 -1.0903 -1.1674
  168SAPS  C21119005   7.061  -0.255   5.001  0.6856  0.4379  0.0349
  168SAPS  H11R19006   7.088  -0.360   5.023 -1.4449 -0.2835 -0.5092
  168SAPS  C21219007   7.061  -0.228   4.873  0.5721  0.1614  0.4017
  168SAPS  H12R19008   7.093  -0.312   4.809  2.1253 -0.8608  2.3719
  168SAPS  C21319009   7.021  -0.101   4.806  1.2526 -0.5997  0.7191
  168SAPS  H13R19010   7.115  -0.059   4.764  0.2328 -0.2824 -1.3593
  168SAPS  H13S19011   6.988  -0.017   4.871 -0.4155 -1.0958  0.5515
  168SAPS  C21419012   6.937  -0.127   4.680  0.2137 -0.5477 -0.5827
  168SAPS  H14R19013   6.900  -0.229   4.662  0.4852 -0.5598 -1.1119
  168SAPS  C21519014   6.893  -0.028   4.597  0.2792 -0.2868  0.0193
  168SAPS  H15R19015   6.827  -0.054   4.513  0.0171  0.8752 -0.1474
  168SAPS  C21619016   6.933   0.119   4.617  0.1387  0.2352 -0.7019
  168SAPS  H16R19017   6.969   0.132   4.721 -1.2472 -2.3751  0.1967
  168SAPS  H16S19018   6.848   0.190   4.603  1.8628  2.6636  0.4664
  168SAPS  C21719019   7.054   0.170   4.524 -0.0838  0.8083  0.5721
  168SAPS  H17R19020   7.030   0.167   4.416  0.2078 -0.6470  0.5312
  168SAPS  H17S19021   7.147   0.113   4.544  1.0371  2.2494 -0.3176
  168SAPS  C21819022   7.071   0.320   4.552 -0.5292  0.3220 -0.7762
  168SAPS  H18R19023   7.097   0.336   4.659 -0.1657 -0.1524 -0.7892
  168SAPS  H18S19024   6.977   0.373   4.525  0.0664  0.3215 -3.0693
  168SAPS  C21919025   7.181   0.387   4.461  0.1092 -0.1797 -0.6404
  168SAPS  H19R19026   7.153   0.361   4.357 -0.7183 -1.4225 -0.1284
  168SAPS  H19S19027   7.283   0.350   4.484 -0.3681 -1.9030 -1.1991
  168SAPS  C22019028   7.184   0.536   4.479  1.2232 -0.2970  0.0664
  168SAPS  H20R19029   7.082   0.580   4.472  0.9736 -1.0223 -0.9726
  168SAPS  H20S19030   7.255   0.593   4.416 -1.4841  1.8207 -1.3093
  168SAPS  H20T19031   7.222   0.547   4.583 -0.7461  0.3846  0.7701
  168SAPS   C3319032   6.266   0.189   5.721  0.1822 -0.0067  0.1421
  168SAPS   H3X19033   6.300   0.290   5.751  2.8133 -1.0956  1.1748
  168SAPS   H3Y19034   6.214   0.203   5.624 -0.0909  0.0071  0.2899
  168SAPS   C3419035   6.393   0.107   5.698 -0.4083 -0.1400  0.2499
  168SAPS   H4X19036   6.373   0.003   5.733 -0.3850 -1.0006 -2.0970
  168SAPS   H4Y19037   6.465   0.139   5.776 -0.4679 -1.5204  0.9195
  168SAPS   C3519038   6.453   0.106   5.561  0.6625  0.0851 -0.6049
  168SAPS   H5X19039   6.545   0.044   5.564 -0.4504 -1.6327  1.9899
  168SAPS   H5Y19040   6.462   0.214   5.540 -0.2979  0.5033  0.9470
  168SAPS   C3619041   6.353   0.047   5.459  0.4032 -0.4077  0.3044
  168SAPS   H6X19042   6.257   0.101   5.451  0.9340  0.3683 -1.2043
  168SAPS   H6Y19043   6.343  -0.062   5.481  1.8137 -0.4622  0.7843
  168SAPS   C3719044   6.407   0.060   5.310 -0.1851 -0.7761 -0.4277
  168SAPS   H7X19045   6.491  -0.013   5.306 -0.9269 -1.6103 -1.8145
  168SAPS   H7Y19046   6.449   0.162   5.302  0.4449 -0.9325  0.7391
  168SAPS   C3819047   6.298   0.023   5.207  0.2954  0.0964 -0.1495
  168SAPS   H8X19048   6.206   0.082   5.228 -1.7206 -2.6492 -0.6856
  168SAPS   H8Y19049   6.283  -0.081   5.242 -1.6018  1.0062  2.0291
  168SAPS   C3919050   6.335   0.048   5.067 -0.0789 -0.5248 -0.1919
  168SAPS   H9X19051   6.350   0.157   5.052 -1.4467 -0.5308 -1.8967
  168SAPS   H9Y19052   6.257   0.003   5.002  0.9562 -0.8880 -1.2418
  168SAPS  C31019053   6.468  -0.010   5.027  0.3985  0.3287  0.6742
  168SAPS  H10X19054   6.472  -0.119   5.046 -3.3273 -0.2550 -1.1142
  168SAPS  H10Y19055   6.549   0.038   5.087  1.2381 -0.2988  0.0637
  168SAPS  C31119056   6.506   0.017   4.880 -0.0202  0.0877  0.4216
  168SAPS  H11X19057   6.597  -0.040   4.852 -0.0125  0.7979 -1.0451
  168SAPS  H11Y19058   6.529   0.125   4.871  1.8325 -0.1172  1.9418
  168SAPS  C31219059   6.396  -0.039   4.787 -0.1817 -0.0441 -0.1379
  168SAPS  H12X19060   6.300   0.016   4.799 -0.4621  0.7426 -4.3950
  168SAPS  H12Y19061   6.387  -0.148   4.807 -2.8597 -0.2202 -1.8157
  168SAPS  C31319062   6.421  -0.024   4.632 -0.4170 -0.0733 -0.3218
  168SAPS  H13X19063   6.320  -0.025   4.585 -0.4534 -1.3407 -0.2394
  168SAPS  H13Y19064   6.477  -0.112   4.596  0.6863 -0.2069  1.5912
  168SAPS  C31419065   6.496   0.103   4.590 -0.8136  0.2069  0.1546
  168SAPS  H14X19066   6.602   0.102   4.623 -0.9354  0.2538  0.5569
  168SAPS  H14Y19067   6.440   0.192   4.628 -0.9996  0.7205 -1.2753
  168SAPS  C31519068   6.498   0.120   4.435  0.1232 -0.5987  0.2733
  168SAPS  H15X19069   6.399   0.084   4.398  0.4670 -0.2385 -1.0403
  168SAPS  H15Y19070   6.562   0.044   4.385 -1.0777 -1.2253 -0.3585
  168SAPS  C31619071   6.540   0.251   4.370  0.0428  0.0172 -0.6172
  168SAPS  H16X19072   6.472   0.327   4.414  1.0977 -0.4326  1.9941
  168SAPS  H16Y19073   6.534   0.259   4.260 -1.1273 -0.4698 -0.6086
  168SAPS  C31719074   6.686   0.288   4.385  0.2474 -0.1997  0.1694
  168SAPS  H17X19075   6.751   0.218   4.328  1.4478  0.8355  0.2088
  168SAPS  H17Y19076   6.710   0.281   4.493 -2.7218  1.0277  1.0145
  168SAPS  C31819077   6.716   0.424   4.331  0.0132 -0.9174 -0.2320
  168SAPS  H18X19078   6.680   0.511   4.390  2.2507 -0.0288 -0.0766
  168SAPS  H18Y19079   6.691   0.427   4.223  1.2987 -1.6617 -0.5668
  168SAPS  H18Z19080   6.825   0.445   4.324 -0.0686 -1.0106 -2.2066
  169SAPS     N19081   1.857   2.732   6.160 -0.2328  0.3996 -0.1439
  169SAPS   HN119082   1.862   2.763   6.061 -4.0456 -0.2097 -0.6812
  169SAPS   HN219083   1.932   2.667   6.192 -0.7397  0.4224  1.1709
  169SAPS   HN319084   1.765   2.683   6.169 -0.7629  1.6916  2.4389
  169SAPS   C1219085   1.835   2.849   6.244 -0.7971  0.0071  0.7521
  169SAPS  H12A19086   1.759   2.901   6.189 -1.2929 -0.3152  1.1242
  169SAPS   C1319087   1.778   2.817   6.389 -0.7685  0.3001  0.7907
  169SAPS  O13A19088   1.735   2.702   6.409  0.1269 -0.6331  0.3492
  169SAPS  O13B19089   1.834   2.876   6.485 -0.4830 -0.9728 -0.0268
  169SAPS   C1119090   1.973   2.920   6.260 -0.5987 -0.9432  0.1710
  169SAPS  H11A19091   2.033   2.866   6.337 -2.6998 -0.0333  2.5953
  169SAPS  H11B19092   1.944   3.016   6.308  0.9197  0.1193 -0.9504
  169SAPS     P19093   2.163   3.019   6.108 -0.0498  0.1082  0.1817
  169SAPS   O1319094   2.242   3.016   6.233 -0.0484  0.1787 -0.1424
  169SAPS   O1419095   2.233   2.975   5.986 -0.7648 -0.0530 -0.0713
  169SAPS   O1219096   2.030   2.943   6.127 -0.1337  0.0301  0.0946
  169SAPS   O1119097   2.117   3.167   6.083  0.2501 -0.4684 -0.1777
  169SAPS    C119098   1.989   3.198   6.018 -0.1190 -0.1172 -0.1775
  169SAPS    HA19099   1.904   3.147   6.068 -1.2985  1.6074 -0.3223
  169SAPS    HB19100   1.980   3.308   6.031 -1.1783 -0.1955 -0.1711
  169SAPS    C219101   1.999   3.163   5.867 -0.1482 -0.2431  0.2382
  169SAPS    HS19102   2.027   3.057   5.850 -0.5757 -0.3659  0.2847
  169SAPS   O2119103   2.098   3.253   5.807  0.1213  0.0378  0.2311
  169SAPS   C2119104   2.170   3.216   5.697  0.4167 -0.0712 -0.3739
  169SAPS   O2219105   2.156   3.110   5.638  0.3831 -0.2018 -0.0366
  169SAPS   C2219106   2.264   3.328   5.657 -0.2749  0.2273 -0.7966
  169SAPS   H2R19107   2.210   3.420   5.624  1.1079  1.6239  0.6561
  169SAPS   H2S19108   2.318   3.351   5.751  2.9629  1.3006 -2.7727
  169SAPS    C319109   1.858   3.174   5.806  0.4679 -0.3316 -0.6699
  169SAPS    HX19110   1.819   3.273   5.836  1.1921 -0.0790 -0.5568
  169SAPS    HY19111   1.793   3.104   5.864 -1.2024 -0.0075 -2.0613
  169SAPS   O3119112   1.839   3.155   5.660  0.1020 -0.3713  0.0301
  169SAPS   C3119113   1.848   3.028   5.624 -1.0840  0.2850 -0.3043
  169SAPS   O3219114   1.870   2.936   5.702 -0.2093 -0.2087  0.5468
  169SAPS   C3219115   1.818   3.004   5.474  0.1722  0.0656  0.4891
  169SAPS   H2X19116   1.745   3.086   5.456 -1.3612 -1.2444  0.5026
  169SAPS   H2Y19117   1.773   2.902   5.477  0.0542  0.0672 -0.8490
  169SAPS   C2319118   2.358   3.290   5.543  0.2102 -0.3092 -0.2203
  169SAPS   H3R19119   2.304   3.241   5.459  2.3942 -2.2644 -0.6010
  169SAPS   H3S19120   2.432   3.219   5.587 -0.1310 -1.5937 -1.6375
  169SAPS   C2419121   2.436   3.411   5.490  0.4094  0.3468  0.1118
  169SAPS   H4R19122   2.509   3.368   5.418 -0.6309 -0.0072 -0.7769
  169SAPS   H4S19123   2.496   3.462   5.568 -0.0877  4.0539 -1.6865
  169SAPS   C2519124   2.349   3.511   5.413 -0.2431 -0.3450  0.6445
  169SAPS   H5R19125   2.325   3.605   5.464 -2.1242 -0.4096 -0.0297
  169SAPS   C2619126   2.316   3.507   5.283  0.4456  0.1558  0.0036
  169SAPS   H6R19127   2.257   3.594   5.247 -0.7552 -1.4682 -2.2216
  169SAPS   C2719128   2.340   3.388   5.189 -0.6023  0.1310 -0.1129
  169SAPS   H7R19129   2.377   3.299   5.243 -1.1952 -1.1037 -1.6871
  169SAPS   H7S19130   2.422   3.415   5.118 -0.4640 -1.0083 -0.3947
  169SAPS   C2819131   2.213   3.345   5.129 -0.1061  0.2291  0.4456
  169SAPS   H8R19132   2.151   3.287   5.199 -1.9546 -2.1051 -2.8272
  169SAPS   C2919133   2.165   3.375   5.006  0.3697  0.2523  0.0822
  169SAPS   H9R19134   2.071   3.336   4.965  0.5507  0.5640 -0.6542
  169SAPS  C21019135   2.245   3.456   4.902 -0.5094 -0.0589  0.1199
  169SAPS  H10R19136   2.269   3.399   4.809  0.4223  3.5928 -2.0801
  169SAPS  H10S19137   2.336   3.507   4.941 -1.6282  2.8989 -0.8281
  169SAPS  C21119138   2.159   3.571   4.857  0.6760  0.2117  0.2001
  169SAPS  H11R19139   2.051   3.551   4.850  0.4892  1.0839  0.4432
  169SAPS  C21219140   2.191   3.699   4.833  0.2751  0.2923 -0.0904
  169SAPS  H12R19141   2.108   3.764   4.801  1.1329  1.3062 -0.3195
  169SAPS  C21319142   2.330   3.754   4.832 -0.1057 -0.0054  0.5689
  169SAPS  H13R19143   2.354   3.788   4.729  0.8164 -3.6348 -0.5305
  169SAPS  H13S19144   2.407   3.680   4.862 -1.0965 -1.5606 -0.6159
  169SAPS  C21419145   2.352   3.873   4.927 -0.0765  0.4721 -0.3635
  169SAPS  H14R19146   2.287   3.857   5.014  0.5234 -0.2101 -0.0346
  169SAPS  C21519147   2.438   3.972   4.922 -0.1398 -0.2851  0.0193
  169SAPS  H15R19148   2.426   4.062   4.984  2.6575  0.5266 -0.4924
  169SAPS  C21619149   2.538   3.990   4.807 -0.2734 -1.5119 -0.2939
  169SAPS  H16R19150   2.553   3.898   4.745  0.9172 -0.4787 -1.6115
  169SAPS  H16S19151   2.637   4.005   4.856 -1.1074  1.7869  0.6234
  169SAPS  C21719152   2.504   4.111   4.715 -0.1637 -0.2124 -0.0191
  169SAPS  H17R19153   2.584   4.140   4.644 -1.4303 -0.6506 -1.6689
  169SAPS  H17S19154   2.476   4.201   4.774 -0.5276  1.1850 -2.2128
  169SAPS  C21819155   2.377   4.075   4.634 -0.0117 -0.1403 -0.0303
  169SAPS  H18R19156   2.292   4.069   4.705  0.2339  0.8785  0.3661
  169SAPS  H18S19157   2.393   3.979   4.580  0.6729 -1.1812  1.8994
  169SAPS  C21919158   2.334   4.182   4.539 -0.1590 -0.6355  0.5990
  169SAPS  H19R19159   2.343   4.290   4.563 -1.4216 -0.3260 -0.2094
  169SAPS  H19S19160   2.224   4.169   4.534  0.1221 -3.1758 -1.0879
  169SAPS  C22019161   2.395   4.165   4.402  0.3348  0.4059  0.1629
  169SAPS  H20R19162   2.372   4.072   4.345  4.1998 -0.4323 -0.2956
  169SAPS  H20S19163   2.506   4.168   4.410  0.3636 -1.4938  0.9878
  169SAPS  H20T19164   2.371   4.262   4.353 -2.6883 -0.1285  0.3955
  169SAPS   C3319165   1.944   2.987   5.392 -0.5655  0.1584  0.3884
  169SAPS   H3X19166   2.003   2.895   5.414  0.9324  1.0982  0.4979
  169SAPS   H3Y19167   2.020   3.064   5.417 -1.9353  1.0469  2.0097
  169SAPS   C3419168   1.904   2.981   5.240  0.4807 -0.2553  0.9909
  169SAPS   H4X19169   1.853   3.079   5.224  0.0122 -0.5297  0.7953
  169SAPS   H4Y19170   1.824   2.908   5.218  0.4881  0.9358 -4.3953
  169SAPS   C3519171   2.019   2.985   5.146  0.2853 -0.1075 -0.4154
  169SAPS   H5X19172   2.079   2.892   5.157 -1.1528 -1.1069 -0.8166
  169SAPS   H5Y19173   2.080   3.070   5.183  0.3680  0.3445 -1.5727
  169SAPS   C3619174   1.971   3.015   5.002 -0.2748 -0.1701  0.9779
  169SAPS   H6X19175   1.922   3.114   4.988  1.7934  0.7341 -0.5381
  169SAPS   H6Y19176   1.898   2.937   4.972  1.2421 -1.7060  1.1242
  169SAPS   C3719177   2.092   3.019   4.900  0.3740  0.1410  0.4637
  169SAPS   H7X19178   2.148   2.924   4.911 -0.1839 -0.5509 -2.0208
  169SAPS   H7Y19179   2.153   3.110   4.918 -0.1054  1.0949 -2.3405
  169SAPS   C3819180   2.041   3.030   4.750  0.6760  0.6376 -0.2975
  169SAPS   H8X19181   1.962   2.954   4.731 -0.2242  2.0775 -2.7288
  169SAPS   H8Y19182   2.127   3.008   4.684 -1.5709  0.8252 -3.5389
  169SAPS   C3919183   1.982   3.162   4.693 -0.4673  0.2036  0.3916
  169SAPS   H9X19184   2.069   3.230   4.683 -0.9389  0.8817  0.7943
  169SAPS   H9Y19185   1.909   3.202   4.767  1.4391  0.7219  2.0820
  169SAPS  C31019186   1.906   3.147   4.561  0.0688 -0.1680 -0.2507
  169SAPS  H10X19187   1.849   3.052   4.571  1.7172 -1.0455  1.5150
  169SAPS  H10Y19188   1.979   3.120   4.482 -1.1325 -0.3252 -1.3354
  169SAPS  C31119189   1.820   3.266   4.532 -0.3210 -1.1083 -0.2005
  169SAPS  H11X19190   1.787   3.267   4.425  0.9736  0.6936 -0.6355
  169SAPS  H11Y19191   1.873   3.361   4.554 -0.2715 -1.2301  0.2142
  169SAPS  C31219192   1.690   3.273   4.611 -0.1118  1.0829  0.0381
  169SAPS  H12X19193   1.704   3.254   4.720 -0.7931  2.2279  0.3507
  169SAPS  H12Y19194   1.626   3.188   4.578 -1.4349  2.9027 -2.3909
  169SAPS  C31319195   1.615   3.410   4.600 -0.0810  1.3122 -0.9933
  169SAPS  H13X19196   1.512   3.406   4.642 -0.1914 -1.2926 -1.3420
  169SAPS  H13Y19197   1.601   3.435   4.493  1.0191 -3.3749 -2.4992
  169SAPS  C31419198   1.694   3.521   4.672  0.3186 -0.2386  0.9263
  169SAPS  H14X19199   1.641   3.616   4.653  1.2892  0.1145 -0.1466
  169SAPS  H14Y19200   1.798   3.531   4.634  0.2668 -0.7751  0.6340
  169SAPS  C31519201   1.697   3.511   4.825 -0.4170  0.6388 -0.1208
  169SAPS  H15X19202   1.776   3.435   4.843  0.4754  1.4355 -0.5743
  169SAPS  H15Y19203   1.600   3.466   4.856  0.8861 -1.9949  0.4454
  169SAPS  C31619204   1.732   3.648   4.887  0.0603  0.2731 -0.3906
  169SAPS  H16X19205   1.660   3.725   4.854 -1.1031 -0.6098  0.0195
  169SAPS  H16Y19206   1.831   3.671   4.841  0.1924 -0.1675 -0.3287
  169SAPS  C31719207   1.744   3.661   5.040  0.7455 -0.4086 -0.2744
  169SAPS  H17X19208   1.810   3.581   5.080  0.9289 -0.4591 -0.6675
  169SAPS  H17Y19209   1.642   3.637   5.077 -0.3017  1.8770 -1.4559
  169SAPS  C31819210   1.799   3.795   5.087  0.1098 -0.3745  0.2984
  169SAPS  H18X19211   1.910   3.798   5.084  0.0885 -0.0932 -0.2719
  169SAPS  H18Y19212   1.771   3.801   5.194 -0.7377 -2.1796  0.2250
  169SAPS  H18Z19213   1.756   3.877   5.025 -0.5483 -0.9738 -0.0645
  170SAPS     N19214   3.646   3.429   7.252  0.1661  0.6493 -0.8599
  170SAPS   HN119215   3.734   3.417   7.199 -0.0844 -0.4467 -1.0521
  170SAPS   HN219216   3.661   3.420   7.355 -3.4907 -0.5005 -0.2559
  170SAPS   HN319217   3.593   3.341   7.232 -0.0930  0.6089 -0.0492
  170SAPS   C1219218   3.582   3.557   7.227 -0.4371 -0.3973 -0.3445
  170SAPS  H12A19219   3.500   3.570   7.295 -1.5321 -3.3424 -0.9345
  170SAPS   C1319220   3.683   3.678   7.257  0.4123 -0.8576  0.3578
  170SAPS  O13A19221   3.804   3.661   7.284 -0.1087  0.0967  0.2455
  170SAPS  O13B19222   3.639   3.793   7.216  0.4307  0.1373 -0.3155
  170SAPS   C1119223   3.532   3.565   7.080  0.1385 -0.7706  1.2227
  170SAPS  H11A19224   3.610   3.582   7.004 -1.1159 -1.9404 -0.3858
  170SAPS  H11B19225   3.462   3.651   7.080  1.1224  0.0714 -0.2703
  170SAPS     P19226   3.381   3.461   6.892 -0.0263  0.2223  0.1640
  170SAPS   O1319227   3.365   3.325   6.849  0.1048 -0.0917  0.3872
  170SAPS   O1419228   3.257   3.542   6.893 -0.1932 -0.4253 -0.3081
  170SAPS   O1219229   3.456   3.457   7.030 -0.1209  0.1378  0.3814
  170SAPS   O1119230   3.480   3.537   6.798  0.5562 -0.2918  0.0536
  170SAPS    C119231   3.587   3.470   6.721  0.3730 -0.1401 -0.1951
  170SAPS    HA19232   3.649   3.412   6.794 -1.0753  1.9589  2.9126
  170SAPS    HB19233   3.536   3.399   6.653 -0.3983  0.1436  0.0786
  170SAPS    C219234   3.676   3.566   6.641  0.0114 -0.5724  0.3021
  170SAPS    HS19235   3.709   3.639   6.718  0.4609 -0.2643 -0.1777
  170SAPS   O2119236   3.601   3.627   6.539  0.9902 -0.8106  0.7397
  170SAPS   C2119237   3.638   3.744   6.492 -0.1246  0.3844  0.0650
  170SAPS   O2219238   3.729   3.809   6.548  0.3881 -0.2748 -0.0677
  170SAPS   C2219239   3.558   3.782   6.367  0.2413  0.1001 -0.5254
  170SAPS   H2R19240   3.453   3.789   6.401  1.0118 -0.1181  2.0757
  170SAPS   H2S19241   3.590   3.888   6.363 -0.3006  0.3713  1.3505
  170SAPS    C319242   3.802   3.495   6.593 -0.1636  0.4323  0.1667
  170SAPS    HX19243   3.860   3.453   6.679 -1.2999 -0.8440  0.3482
  170SAPS    HY19244   3.859   3.568   6.531 -0.1353 -0.6261 -1.1092
  170SAPS   O3119245   3.758   3.386   6.512  0.0224  0.3370 -0.4107
  170SAPS   C3119246   3.854   3.304   6.470  1.1935  0.6094  1.0067
  170SAPS   O3219247   3.970   3.308   6.489 -0.2224 -0.4223  0.1305
  170SAPS   C3219248   3.787   3.194   6.376 -0.5048  0.4568 -0.0297
  170SAPS   H2X19249   3.818   3.204   6.270 -1.5859  0.2218 -0.3826
  170SAPS   H2Y19250   3.678   3.205   6.392 -0.2815  0.3111  1.7907
  170SAPS   C2319251   3.577   3.699   6.240 -0.2476  0.5197  0.1554
  170SAPS   H3R19252   3.548   3.593   6.261  1.8041 -0.1099  0.0621
  170SAPS   H3S19253   3.686   3.688   6.218 -0.4481 -1.6965  0.0026
  170SAPS   C2419254   3.496   3.755   6.122  0.2549  0.6607  0.8289
  170SAPS   H4R19255   3.517   3.863   6.112 -1.1884  0.8130 -1.0927
  170SAPS   H4S19256   3.388   3.738   6.144 -0.2155  0.0868 -1.6785
  170SAPS   C2519257   3.522   3.690   5.988 -0.4499  0.3789  0.2094
  170SAPS   H5R19258   3.461   3.601   5.968  0.5070  0.1398 -1.8622
  170SAPS   C2619259   3.632   3.705   5.913 -0.2072 -0.4999  0.1777
  170SAPS   H6R19260   3.635   3.649   5.818  1.7414 -2.8221  1.4854
  170SAPS   C2719261   3.727   3.818   5.933 -1.3134 -0.7232  0.4464
  170SAPS   H7R19262   3.765   3.821   6.037  0.4001  0.5737 -0.1558
  170SAPS   H7S19263   3.683   3.919   5.918  0.2883 -0.0150  0.3066
  170SAPS   C2819264   3.851   3.811   5.843 -0.6546 -0.3708  0.3124
  170SAPS   H8R19265   3.873   3.712   5.799  1.4920 -0.5355  1.6530
  170SAPS   C2919266   3.945   3.906   5.833  0.2873  0.5772  0.1533
  170SAPS   H9R19267   4.039   3.883   5.780 -0.0079 -1.4615  0.4699
  170SAPS  C21019268   3.930   4.052   5.885 -0.2484 -0.1324 -0.4342
  170SAPS  H10R19269   4.006   4.078   5.961 -0.3750  1.7177 -0.8957
  170SAPS  H10S19270   3.837   4.080   5.938 -1.2458 -1.4622 -1.3883
  170SAPS  C21119271   3.927   4.158   5.776  0.1132 -0.4075  0.4381
  170SAPS  H11R19272   3.827   4.171   5.731  0.9292  0.9080 -1.0894
  170SAPS  C21219273   4.020   4.245   5.737  0.0045  1.0245  0.5960
  170SAPS  H12R19274   3.990   4.312   5.655 -3.6007 -1.0187  0.0279
  170SAPS  C21319275   4.155   4.270   5.788 -0.5657 -0.0207 -0.6976
  170SAPS  H13R19276   4.235   4.275   5.711  0.2622 -1.7689 -0.0208
  170SAPS  H13S19277   4.186   4.186   5.854  0.0840  1.6318  1.2116
  170SAPS  C21419278   4.166   4.396   5.870  0.3430  0.8486 -0.6618
  170SAPS  H14R19279   4.111   4.480   5.825 -0.9320 -0.0748 -0.8856
  170SAPS  C21519280   4.240   4.422   5.983  0.4726  0.1185  0.1654
  170SAPS  H15R19281   4.236   4.526   6.018  0.2940  0.7823 -1.7172
  170SAPS  C21619282   4.328   4.330   6.071 -0.1526 -0.0700  0.6419
  170SAPS  H16R19283   4.435   4.338   6.044 -0.5228  1.6575 -0.4227
  170SAPS  H16S19284   4.295   4.226   6.051  0.4891 -0.6439  2.3630
  170SAPS  C21719285   4.296   4.354   6.222 -0.8249 -0.2355  0.7210
  170SAPS  H17R19286   4.310   4.255   6.271 -2.4789  0.0574  1.8543
  170SAPS  H17S19287   4.187   4.375   6.234 -1.1467 -0.5327 -1.2471
  170SAPS  C21819288   4.392   4.451   6.281 -0.4556  0.4977 -0.0785
  170SAPS  H18R19289   4.492   4.439   6.232  0.4973 -1.3417  2.1424
  170SAPS  H18S19290   4.414   4.424   6.386  0.6716  1.4531 -0.0458
  170SAPS  C21919291   4.349   4.598   6.279  0.0652 -0.5137  0.2025
  170SAPS  H19R19292   4.347   4.625   6.171  2.1951 -0.9563  0.0066
  170SAPS  H19S19293   4.433   4.665   6.306 -0.6963  0.9797 -0.9757
  170SAPS  C22019294   4.218   4.644   6.353  0.6585  0.7270  0.3829
  170SAPS  H20R19295   4.142   4.565   6.333  1.4630 -0.1056  0.5605
  170SAPS  H20S19296   4.188   4.746   6.322  1.8492  0.9674 -0.0146
  170SAPS  H20T19297   4.239   4.653   6.462 -0.6728 -1.6809  0.9280
  170SAPS   C3319298   3.828   3.058   6.433 -0.0670 -0.4541 -0.5167
  170SAPS   H3X19299   3.732   3.003   6.428 -1.1047  1.2499 -0.0153
  170SAPS   H3Y19300   3.858   3.070   6.539 -0.9739 -2.2527 -0.0176
  170SAPS   C3419301   3.942   2.980   6.365 -0.3844  0.7395  0.4053
  170SAPS   H4X19302   3.950   2.875   6.400 -0.6721  0.7242  0.4355
  170SAPS   H4Y19303   4.045   3.016   6.382  1.4330 -3.7575  0.2182
  170SAPS   C3519304   3.924   2.969   6.212 -0.3893 -0.0929  0.4438
  170SAPS   H5X19305   3.951   3.070   6.177  0.0318  0.4659  2.2596
  170SAPS   H5Y19306   3.818   2.947   6.191 -0.7189  1.7143  0.1131
  170SAPS   C3619307   4.022   2.869   6.147  0.1991  0.2235  0.8436
  170SAPS   H6X19308   4.008   2.764   6.180  0.8411  0.2468  1.2083
  170SAPS   H6Y19309   4.128   2.889   6.175  0.8310 -1.2468 -0.3658
  170SAPS   C3719310   4.007   2.883   5.995 -0.9919 -0.1442 -0.2794
  170SAPS   H7X19311   4.047   2.983   5.969  1.0181 -1.3385 -2.1060
  170SAPS   H7Y19312   3.899   2.883   5.971 -0.6421  0.2621 -1.9586
  170SAPS   C3819313   4.080   2.768   5.921 -0.0909  0.3584  0.2998
  170SAPS   H8X19314   4.014   2.679   5.929 -1.0938  1.1616  1.3295
  170SAPS   H8Y19315   4.174   2.738   5.971 -0.5350 -0.7008  0.5206
  170SAPS   C3919316   4.126   2.809   5.777 -0.1109  0.1340 -0.5490
  170SAPS   H9X19317   4.174   2.727   5.720  3.2851  2.4117 -1.2414
  170SAPS   H9Y19318   4.201   2.890   5.783 -1.6280  1.6669 -1.4873
  170SAPS  C31019319   4.008   2.859   5.689 -0.1276  0.3190 -0.5832
  170SAPS  H10X19320   3.968   2.958   5.722 -1.1752 -0.0378 -0.7424
  170SAPS  H10Y19321   3.927   2.783   5.693  1.2574 -1.2061 -0.7595
  170SAPS  C31119322   4.050   2.880   5.543  0.3907 -0.8387  0.2610
  170SAPS  H11X19323   4.075   2.787   5.488 -0.2135 -0.4391 -0.7053
  170SAPS  H11Y19324   4.134   2.952   5.553 -1.0793  0.6344  4.1270
  170SAPS  C31219325   3.936   2.940   5.453  0.0558 -0.1684  0.2492
  170SAPS  H12X19326   3.904   3.041   5.487  2.0115  0.2918  0.8028
  170SAPS  H12Y19327   3.835   2.894   5.442 -0.2847  0.7878 -0.9556
  170SAPS  C31319328   3.979   2.950   5.303  0.2722  0.6281  0.0651
  170SAPS  H13X19329   3.894   2.965   5.233  0.8560 -1.8836 -1.3265
  170SAPS  H13Y19330   4.025   2.854   5.271  0.4463  1.4928 -2.5142
  170SAPS  C31419331   4.093   3.056   5.274  0.2510  0.1773 -0.1654
  170SAPS  H14X19332   4.180   3.043   5.342 -1.3490  1.4221  2.2798
  170SAPS  H14Y19333   4.064   3.160   5.302  1.6820  0.1309  1.6773
  170SAPS  C31519334   4.126   3.077   5.125 -0.6833  0.5755 -0.8123
  170SAPS  H15X19335   4.028   3.090   5.072  0.2036  0.8350 -2.4727
  170SAPS  H15Y19336   4.177   2.987   5.086 -1.3521 -0.0583 -0.2363
  170SAPS  C31619337   4.209   3.204   5.104  0.1907 -0.3467  0.2074
  170SAPS  H16X19338   4.311   3.195   5.149  0.2275 -1.3474 -0.0400
  170SAPS  H16Y19339   4.142   3.284   5.141 -1.7772 -1.8251  0.0419
  170SAPS  C31719340   4.221   3.247   4.955  0.6735 -0.7049 -0.5313
  170SAPS  H17X19341   4.242   3.355   4.967 -1.8657 -0.3309  1.5534
  170SAPS  H17Y19342   4.127   3.233   4.897  0.0771 -1.8349  0.6420
  170SAPS  C31819343   4.342   3.173   4.885 -0.3618 -0.2666  0.4067
  170SAPS  H18X19344   4.311   3.069   4.862 -0.0474 -0.5662  1.3041
  170SAPS  H18Y19345   4.431   3.195   4.948 -0.6230  1.6068  0.1878
  170SAPS  H18Z19346   4.365   3.215   4.785  0.0651 -0.3653  0.4613
  171SAPS     N19347   3.279   1.802   7.211  0.6174  0.2389 -1.1552
  171SAPS   HN119348   3.376   1.772   7.190  0.5006 -0.3830 -0.8459
  171SAPS   HN219349   3.289   1.904   7.222 -3.6101  0.8997 -1.7709
  171SAPS   HN319350   3.246   1.755   7.298  2.2808  2.4157  0.7478
  171SAPS   C1219351   3.175   1.785   7.108 -0.3814  0.9856  0.6481
  171SAPS  H12A19352   3.174   1.680   7.084  2.5445  0.9729  0.2042
  171SAPS   C1319353   3.033   1.828   7.154 -1.0861 -0.4573 -0.2308
  171SAPS  O13A19354   3.023   1.860   7.279 -0.3214 -0.2712 -0.1727
  171SAPS  O13B19355   2.934   1.803   7.081 -0.2077 -0.4313  0.2330
  171SAPS   C1119356   3.226   1.849   6.979  1.3180 -0.7289 -0.3023
  171SAPS  H11A19357   3.254   1.956   6.992  0.0447 -0.3292 -0.6440
  171SAPS  H11B19358   3.149   1.848   6.899  1.4217 -0.2806 -0.4129
  171SAPS     P19359   3.354   1.719   6.793  0.0621 -0.0280  0.1297
  171SAPS   O1319360   3.499   1.711   6.753 -0.0025  0.0361 -0.0850
  171SAPS   O1419361   3.277   1.591   6.784  0.5905 -0.0463  0.2582
  171SAPS   O1219362   3.344   1.771   6.946  0.1948 -0.3972  0.2204
  171SAPS   O1119363   3.294   1.841   6.713 -0.1792 -0.0346  0.1433
  171SAPS    C119364   3.283   1.846   6.574 -0.0557  0.2713  0.7077
  171SAPS    HA19365   3.373   1.804   6.524 -2.4891 -2.5230 -1.7385
  171SAPS    HB19366   3.200   1.782   6.536  0.0402  0.4129  0.2605
  171SAPS    C219367   3.256   1.996   6.524 -0.5356 -0.3788  0.1667
  171SAPS    HS19368   3.177   2.038   6.590 -0.6420 -0.6150  0.1877
  171SAPS   O2119369   3.215   1.986   6.386 -0.7193  0.0095  0.3043
  171SAPS   C2119370   3.141   2.099   6.349 -0.1816  0.6449 -0.0040
  171SAPS   O2219371   3.125   2.192   6.423 -0.5646  0.2551 -0.9810
  171SAPS   C2219372   3.085   2.087   6.214 -0.7183  0.6103  0.3802
  171SAPS   H2R19373   3.171   2.092   6.145  0.1540 -1.1900  1.2789
  171SAPS   H2S19374   3.055   1.983   6.191  1.7836  0.6580 -4.1395
  171SAPS    C319375   3.384   2.087   6.543 -0.1140  0.8057  0.4605
  171SAPS    HX19376   3.414   2.083   6.650  0.9630  0.3220  0.1438
  171SAPS    HY19377   3.358   2.194   6.524 -2.1421  0.1950 -0.5544
  171SAPS   O3119378   3.488   2.039   6.451 -0.0411 -0.3774  0.0241
  171SAPS   C3119379   3.484   2.093   6.329  0.3976  0.6305  0.0743
  171SAPS   O3219380   3.418   2.186   6.291  1.0629  0.2409 -0.2072
  171SAPS   C3219381   3.576   2.020   6.236  0.3275 -0.2699  0.4218
  171SAPS   H2X19382   3.568   1.913   6.264 -2.2786  0.0982  1.2735
  171SAPS   H2Y19383   3.682   2.048   6.253  0.2548  1.7513 -1.8668
  171SAPS   C2319384   2.973   2.191   6.160  0.4349 -0.3262  0.5649
  171SAPS   H3R19385   2.991   2.294   6.197 -0.1168  0.5044 -1.3336
  171SAPS   H3S19386   2.874   2.154   6.193  0.4446  0.1412  1.1384
  171SAPS   C2419387   2.971   2.195   6.006  0.3389 -0.1355  0.5246
  171SAPS   H4R19388   3.075   2.222   5.980  0.2833 -0.5043 -0.0989
  171SAPS   H4S19389   2.890   2.269   5.986  1.6514  1.1355 -0.2832
  171SAPS   C2519390   2.946   2.061   5.949 -0.3489  0.2651 -0.3131
  171SAPS   H5R19391   2.876   2.007   6.015 -0.3055  3.2862  2.4404
  171SAPS   C2619392   2.994   2.007   5.833  0.7557 -0.2008 -0.3683
  171SAPS   H6R19393   2.969   1.905   5.800 -2.2033  0.8158 -1.7000
  171SAPS   C2719394   3.096   2.074   5.740  0.2057 -0.0177  0.7628
  171SAPS   H7R19395   3.170   1.996   5.712  0.3173  0.5172 -0.5321
  171SAPS   H7S19396   3.163   2.152   5.782  0.0182  1.2142 -1.1190
  171SAPS   C2819397   3.015   2.136   5.625  0.4328  0.3980 -0.1247
  171SAPS   H8R19398   2.953   2.217   5.665  1.0512  0.7548  0.1358
  171SAPS   C2919399   3.008   2.089   5.500 -0.0257 -0.2541  0.0477
  171SAPS   H9R19400   2.932   2.133   5.433 -1.5126  1.0384  2.4430
  171SAPS  C21019401   3.086   1.968   5.449  0.7986 -0.4895  0.2092
  171SAPS  H10R19402   3.002   1.908   5.407 -0.8919  1.5361  0.5081
  171SAPS  H10S19403   3.135   1.909   5.529  0.4710 -0.8388  0.1565
  171SAPS  C21119404   3.184   2.006   5.344 -0.0931 -0.1258 -0.2874
  171SAPS  H11R19405   3.255   2.079   5.384 -0.3891 -0.8719  1.6941
  171SAPS  C21219406   3.202   1.940   5.226  0.1002 -0.0790  0.3532
  171SAPS  H12R19407   3.283   1.980   5.163 -0.5239 -1.3876 -1.3564
  171SAPS  C21319408   3.121   1.824   5.171 -1.1424 -0.1268  0.2824
  171SAPS  H13R19409   3.046   1.877   5.109 -0.8410  0.8612  0.7361
  171SAPS  H13S19410   3.060   1.786   5.256 -0.4199 -0.1919  0.7772
  171SAPS  C21419411   3.199   1.714   5.106 -0.1418 -0.1417 -0.3603
  171SAPS  H14R19412   3.280   1.667   5.162 -0.3917 -1.1411 -0.8184
  171SAPS  C21519413   3.175   1.658   4.982 -0.3874  0.4158  0.1540
  171SAPS  H15R19414   3.243   1.573   4.962 -0.1506  0.2124  1.7073
  171SAPS  C21619415   3.066   1.698   4.883  0.3348  0.2386  0.4043
  171SAPS  H16R19416   3.073   1.808   4.869 -1.7826  0.7774  2.8080
  171SAPS  H16S19417   2.968   1.678   4.931 -0.2051 -1.2202 -1.2099
  171SAPS  C21719418   3.061   1.617   4.749  0.6108  0.0028 -0.2992
  171SAPS  H17R19419   2.960   1.619   4.704 -0.1797  2.0058  1.3684
  171SAPS  H17S19420   3.074   1.510   4.774 -1.5681 -1.2846 -3.9670
  171SAPS  C21819421   3.162   1.653   4.637 -0.3256  0.7097  0.0450
  171SAPS  H18R19422   3.266   1.666   4.672  0.3715 -0.2646 -1.5792
  171SAPS  H18S19423   3.122   1.749   4.597  0.1053  0.7355 -0.3345
  171SAPS  C21919424   3.167   1.554   4.519 -0.2968  0.0038  0.4164
  171SAPS  H19R19425   3.064   1.518   4.498 -0.4063  1.6874 -2.5418
  171SAPS  H19S19426   3.230   1.471   4.558  0.8111  0.4550 -0.3412
  171SAPS  C22019427   3.232   1.598   4.384  0.8871  0.3889  0.7129
  171SAPS  H20R19428   3.189   1.694   4.349 -1.3595 -0.8705 -0.2093
  171SAPS  H20S19429   3.215   1.529   4.298  0.4838  0.3629  0.8109
  171SAPS  H20T19430   3.342   1.595   4.399  0.9237 -0.1196  0.3859
  171SAPS   C3319431   3.519   2.035   6.091  0.8808  0.0582  0.2314
  171SAPS   H3X19432   3.521   2.131   6.035  1.2086 -0.5760 -0.8811
  171SAPS   H3Y19433   3.413   2.016   6.116  1.9637 -1.7529  4.2696
  171SAPS   C3419434   3.577   1.925   6.005  0.6077  0.2663  0.1017
  171SAPS   H4X19435   3.543   1.823   6.035  0.5989  0.1637 -0.2487
  171SAPS   H4Y19436   3.688   1.926   6.017  0.5286 -0.1364  0.9060
  171SAPS   C3519437   3.527   1.924   5.854  0.1002 -0.2977 -0.1587
  171SAPS   H5X19438   3.417   1.907   5.861 -0.0505  0.6056 -0.2469
  171SAPS   H5Y19439   3.580   1.839   5.806  2.7912  0.1055  1.8514
  171SAPS   C3619440   3.555   2.051   5.772  0.6113 -0.3107 -0.3931
  171SAPS   H6X19441   3.661   2.081   5.791  1.0153 -1.3026 -1.0397
  171SAPS   H6Y19442   3.492   2.136   5.807  0.5602 -0.3927 -0.2882
  171SAPS   C3719443   3.537   2.027   5.617 -0.2155 -0.0937 -0.0281
  171SAPS   H7X19444   3.428   2.016   5.598 -0.1437  0.0538 -0.5379
  171SAPS   H7Y19445   3.586   1.934   5.584 -0.7419  0.0343 -1.2578
  171SAPS   C3819446   3.583   2.137   5.531 -0.0442 -0.2645 -0.1588
  171SAPS   H8X19447   3.689   2.156   5.555 -0.3582  0.4615  0.7231
  171SAPS   H8Y19448   3.535   2.230   5.567 -0.0937 -0.1259 -0.5769
  171SAPS   C3919449   3.572   2.100   5.385 -0.0505 -0.2486 -0.0067
  171SAPS   H9X19450   3.465   2.087   5.358  0.2640 -0.0801 -1.4075
  171SAPS   H9Y19451   3.620   2.001   5.375  0.2940 -0.1564  0.6560
  171SAPS  C31019452   3.642   2.203   5.292  0.2600  0.1522  0.0404
  171SAPS  H10X19453   3.744   2.222   5.330 -0.4925  1.6898  1.4167
  171SAPS  H10Y19454   3.583   2.295   5.312  1.7146  0.6961  2.1392
  171SAPS  C31119455   3.632   2.163   5.141 -0.8806 -0.3332 -0.7035
  171SAPS  H11X19456   3.532   2.115   5.131 -0.1603 -2.0508 -0.0646
  171SAPS  H11Y19457   3.713   2.092   5.113  2.0170  1.7247  1.8944
  171SAPS  C31219458   3.629   2.283   5.049  0.0052 -0.3131  0.4213
  171SAPS  H12X19459   3.732   2.325   5.048 -0.2048  0.1977 -0.5575
  171SAPS  H12Y19460   3.552   2.358   5.080  1.8612  1.3142  1.2710
  171SAPS  C31319461   3.592   2.249   4.901 -0.1337 -0.2435 -0.3147
  171SAPS  H13X19462   3.481   2.238   4.901 -0.2222  0.5456  0.1637
  171SAPS  H13Y19463   3.643   2.154   4.875  2.1052  1.2338 -1.6566
  171SAPS  C31419464   3.630   2.344   4.788 -0.1896 -0.4201  0.4179
  171SAPS  H14X19465   3.736   2.373   4.800 -0.5510  0.5881  1.3381
  171SAPS  H14Y19466   3.561   2.429   4.803 -0.5894 -0.6098 -0.3066
  171SAPS  C31519467   3.606   2.266   4.660 -0.1151 -0.2447  0.3308
  171SAPS  H15X19468   3.497   2.262   4.639  0.3960 -0.6676 -2.8170
  171SAPS  H15Y19469   3.646   2.166   4.684 -0.0451  0.2114  2.2475
  171SAPS  C31619470   3.684   2.311   4.529 -0.5327  0.3568  0.3047
  171SAPS  H16X19471   3.711   2.224   4.466  1.3548  0.0785  1.4241
  171SAPS  H16Y19472   3.779   2.357   4.566 -1.0703  1.0886  0.8071
  171SAPS  C31719473   3.623   2.410   4.433 -0.5800  1.3009 -0.0168
  171SAPS  H17X19474   3.549   2.357   4.369 -3.1156  0.5830  3.2727
  171SAPS  H17Y19475   3.707   2.437   4.365 -0.7351 -0.0740 -0.7901
  171SAPS  C31819476   3.546   2.534   4.495 -0.4634 -0.0898 -0.2172
  171SAPS  H18X19477   3.614   2.592   4.562 -1.5107 -0.2715  1.0577
  171SAPS  H18Y19478   3.456   2.497   4.550 -0.1994  0.1315  0.3785
  171SAPS  H18Z19479   3.501   2.609   4.427 -0.6317  1.0390  1.0767
  172SAPS     N19480   1.744   1.114   6.760  0.1707 -0.4107 -0.3960
  172SAPS   HN119481   1.842   1.111   6.725  1.7451  1.6212  3.1966
  172SAPS   HN219482   1.741   1.063   6.851 -0.2665 -0.3690 -0.3852
  172SAPS   HN319483   1.685   1.067   6.688  0.6602  0.9085 -1.7069
  172SAPS   C1219484   1.717   1.253   6.786  0.6511 -0.4738  0.7192
  172SAPS  H12A19485   1.622   1.277   6.741  1.9232  3.6504 -0.2139
  172SAPS   C1319486   1.713   1.295   6.931 -0.1628  0.4178  0.5130
  172SAPS  O13A19487   1.717   1.211   7.024  0.1353  0.1170 -0.0326
  172SAPS  O13B19488   1.654   1.403   6.952 -0.1142 -0.0908  0.5168
  172SAPS   C1119489   1.815   1.335   6.703 -0.2159  0.1996 -0.3976
  172SAPS  H11A19490   1.774   1.437   6.708  0.2195  0.2955  2.3027
  172SAPS  H11B19491   1.804   1.306   6.596 -0.7421  3.3473 -1.2737
  172SAPS     P19492   2.058   1.236   6.705  0.3399 -0.2598  0.0265
  172SAPS   O1319493   2.187   1.283   6.743 -0.0612 -0.1757 -0.2518
  172SAPS   O1419494   2.004   1.108   6.739  1.1958  0.1734 -0.4771
  172SAPS   O1219495   1.949   1.340   6.751  0.1781  0.1488 -0.5017
  172SAPS   O1119496   2.058   1.248   6.545  0.2728 -0.1807  0.0606
  172SAPS    C119497   2.036   1.386   6.498 -0.8598 -1.0089  0.3076
  172SAPS    HA19498   1.933   1.427   6.497  0.2672  2.1085  1.7086
  172SAPS    HB19499   2.094   1.458   6.558  0.9871 -2.6268  0.5722
  172SAPS    C219500   2.100   1.396   6.358  0.7895  0.2407  0.0610
  172SAPS    HS19501   2.085   1.496   6.311 -1.1237  1.1885  2.4980
  172SAPS   O2119502   2.060   1.286   6.272  0.2494 -0.1967 -0.2585
  172SAPS   C2119503   1.936   1.298   6.240  0.2716  0.3607  0.1095
  172SAPS   O2219504   1.865   1.399   6.252  0.3360 -0.6580  0.0573
  172SAPS   C2219505   1.879   1.178   6.165 -0.4626 -0.2022 -0.9855
  172SAPS   H2R19506   1.852   1.106   6.244  0.0186  0.8016  0.1291
  172SAPS   H2S19507   1.787   1.207   6.110 -0.8583 -0.8179 -0.6574
  172SAPS    C319508   2.251   1.378   6.361  0.0782  0.2998 -0.1483
  172SAPS    HX19509   2.268   1.275   6.398 -0.8407  0.7359  1.6279
  172SAPS    HY19510   2.299   1.447   6.433 -0.8473 -0.1334  0.9199
  172SAPS   O3119511   2.312   1.388   6.231 -0.3204  0.1952  0.6428
  172SAPS   C3119512   2.331   1.510   6.180 -0.2471 -0.4090 -0.6047
  172SAPS   O3219513   2.274   1.611   6.212  0.0238 -0.3319  0.6991
  172SAPS   C3219514   2.439   1.490   6.071  0.0736  0.0234 -0.4184
  172SAPS   H2X19515   2.439   1.388   6.026  3.0424 -0.0962 -0.3289
  172SAPS   H2Y19516   2.537   1.514   6.117  1.3674 -0.4780 -2.7266
  172SAPS   C2319517   1.974   1.103   6.077  0.2708  0.1544  0.3541
  172SAPS   H3R19518   1.935   0.999   6.080 -0.0671  0.2708  0.0085
  172SAPS   H3S19519   2.079   1.103   6.115  0.7977  0.1495 -1.0492
  172SAPS   C2419520   1.974   1.136   5.931 -0.1367 -0.0772  0.0036
  172SAPS   H4R19521   1.870   1.112   5.897 -1.0592 -0.3671  2.8066
  172SAPS   H4S19522   2.047   1.068   5.884 -0.8035  0.0961 -1.3390
  172SAPS   C2519523   2.013   1.282   5.897 -0.3908  0.4013  0.0645
  172SAPS   H5R19524   2.076   1.337   5.969 -0.1147 -0.1034  0.2113
  172SAPS   C2619525   1.968   1.354   5.792 -0.5273 -0.1996  0.5345
  172SAPS   H6R19526   1.996   1.461   5.787  2.8733 -1.0017 -3.1049
  172SAPS   C2719527   1.876   1.305   5.692  0.0158 -0.2225  0.0115
  172SAPS   H7R19528   1.801   1.386   5.677  0.0942 -0.0222  0.6734
  172SAPS   H7S19529   1.821   1.215   5.727 -1.4808 -0.4167 -2.5848
  172SAPS   C2819530   1.938   1.263   5.568 -0.0485  0.2622  0.4995
  172SAPS   H8R19531   2.002   1.175   5.583 -0.3215 -0.3146 -1.4456
  172SAPS   C2919532   1.895   1.303   5.442 -0.7544 -0.6149 -0.0709
  172SAPS   H9R19533   1.951   1.282   5.350 -1.6432  3.6361 -1.8043
  172SAPS  C21019534   1.797   1.417   5.422  0.0937  0.5743 -0.1564
  172SAPS  H10R19535   1.794   1.489   5.506 -0.7718  0.7680 -0.3466
  172SAPS  H10S19536   1.694   1.384   5.400  0.9687 -1.3303 -1.7666
  172SAPS  C21119537   1.831   1.506   5.303  0.4453  0.0647 -0.3954
  172SAPS  H11R19538   1.889   1.593   5.339  1.6992 -0.5137 -0.9760
  172SAPS  C21219539   1.805   1.484   5.168 -0.1775  0.6429  0.3722
  172SAPS  H12R19540   1.836   1.568   5.104  1.7953 -0.8340 -0.6837
  172SAPS  C21319541   1.730   1.373   5.101 -0.5047 -0.1748 -0.3281
  172SAPS  H13R19542   1.710   1.417   5.001  0.9349  3.2330  0.7603
  172SAPS  H13S19543   1.632   1.351   5.148  0.2272 -1.5262  0.6440
  172SAPS  C21419544   1.812   1.247   5.092  0.3233  0.7415 -0.2387
  172SAPS  H14R19545   1.789   1.178   5.174  0.8832  1.5351  0.6119
  172SAPS  C21519546   1.912   1.220   5.001  0.6153  0.1194  0.1732
  172SAPS  H15R19547   1.970   1.127   5.011  0.7228  0.2662  0.9145
  172SAPS  C21619548   1.984   1.311   4.905 -0.7165 -0.4213  0.4472
  172SAPS  H16R19549   2.092   1.310   4.930 -0.4453  0.4996 -0.5971
  172SAPS  H16S19550   1.951   1.412   4.935 -1.6610 -0.8800  0.9909
  172SAPS  C21719551   1.955   1.289   4.753 -0.4836  0.1502 -0.3580
  172SAPS  H17R19552   1.846   1.307   4.747 -0.7550 -1.7788 -2.1403
  172SAPS  H17S19553   1.980   1.186   4.723  0.7427  0.0865  0.7698
  172SAPS  C21819554   2.030   1.391   4.670 -0.9965  0.5950  0.1645
  172SAPS  H18R19555   2.035   1.349   4.568 -0.2062  0.0562  0.4107
  172SAPS  H18S19556   2.136   1.394   4.704  0.2718 -2.1437 -2.9637
  172SAPS  C21919557   1.959   1.530   4.667 -0.4370  0.7492  0.0405
  172SAPS  H19R19558   1.965   1.576   4.768 -1.3545 -2.7852  1.8788
  172SAPS  H19S19559   1.862   1.508   4.619 -0.1114 -0.6597 -0.0213
  172SAPS  C22019560   2.036   1.620   4.561 -0.5053 -0.0267 -0.5469
  172SAPS  H20R19561   2.141   1.633   4.596 -0.8233 -0.1525  0.4958
  172SAPS  H20S19562   1.999   1.722   4.535 -0.4936  0.5543  1.4934
  172SAPS  H20T19563   2.048   1.564   4.466 -2.7184 -1.1441 -0.2289
  172SAPS   C3319564   2.409   1.581   5.954 -0.2739 -0.4128  0.5053
  172SAPS   H3X19565   2.506   1.620   5.915 -1.3963  0.6466 -1.3508
  172SAPS   H3Y19566   2.353   1.669   5.990 -0.5385  0.8609 -2.7262
  172SAPS   C3419567   2.324   1.520   5.836  0.0662 -0.0586 -0.3847
  172SAPS   H4X19568   2.235   1.474   5.883  1.4221  0.1182  2.6398
  172SAPS   H4Y19569   2.381   1.434   5.795 -2.2339 -1.1687 -1.3932
  172SAPS   C3519570   2.292   1.616   5.729 -0.4523 -0.4934  0.1821
  172SAPS   H5X19571   2.389   1.654   5.692 -0.1575 -1.7982 -0.4365
  172SAPS   H5Y19572   2.223   1.697   5.762 -0.2081 -1.3947  3.2770
  172SAPS   C3619573   2.229   1.541   5.608  0.4209  0.0890 -0.7643
  172SAPS   H6X19574   2.133   1.493   5.639  0.8514 -0.5568 -0.4109
  172SAPS   H6Y19575   2.300   1.457   5.590 -0.9355 -1.2967  0.0119
  172SAPS   C3719576   2.216   1.625   5.479  0.0165  0.3177 -0.1577
  172SAPS   H7X19577   2.290   1.707   5.494 -1.7786  1.9503  0.1173
  172SAPS   H7Y19578   2.118   1.676   5.478  0.2102  0.7964  1.5510
  172SAPS   C3819579   2.232   1.544   5.354  1.1444  0.5479  0.2097
  172SAPS   H8X19580   2.151   1.473   5.329  1.6694  0.2515 -0.6956
  172SAPS   H8Y19581   2.327   1.487   5.362  1.6768  1.0740 -1.7432
  172SAPS   C3919582   2.247   1.623   5.222  0.1447 -0.6022 -0.0772
  172SAPS   H9X19583   2.325   1.701   5.233  1.3456 -1.8465  0.5383
  172SAPS   H9Y19584   2.148   1.674   5.219  0.9381  1.0424  0.2238
  172SAPS  C31019585   2.268   1.532   5.095 -0.3856  0.8850 -0.4598
  172SAPS  H10X19586   2.168   1.490   5.075 -1.0799  2.7893 -1.2134
  172SAPS  H10Y19587   2.345   1.458   5.127 -0.3335  0.7765 -0.8355
  172SAPS  C31119588   2.336   1.614   4.980  0.2718  0.0470 -0.1162
  172SAPS  H11X19589   2.415   1.670   5.035  0.3041 -0.4412  0.3321
  172SAPS  H11Y19590   2.263   1.692   4.949  0.8190  1.4920  2.0242
  172SAPS  C31219591   2.396   1.532   4.865  0.2563  0.2220 -0.0264
  172SAPS  H12X19592   2.307   1.481   4.823 -0.1518  1.1536 -0.3124
  172SAPS  H12Y19593   2.473   1.460   4.899  0.8843  1.9896  2.6103
  172SAPS  C31319594   2.452   1.618   4.746  1.0268 -0.3866 -0.1707
  172SAPS  H13X19595   2.540   1.675   4.784 -0.4753  1.0794  1.2651
  172SAPS  H13Y19596   2.380   1.701   4.728  0.7351 -0.7352 -0.6435
  172SAPS  C31419597   2.497   1.536   4.621 -0.3098  0.7440 -0.0805
  172SAPS  H14X19598   2.513   1.602   4.532  2.6273 -1.2398 -1.1768
  172SAPS  H14Y19599   2.422   1.458   4.601  1.3901 -0.9074 -0.3161
  172SAPS  C31519600   2.634   1.461   4.658  0.2692 -0.0380  0.2431
  172SAPS  H15X19601   2.611   1.401   4.749 -1.2961 -1.2339 -0.8892
  172SAPS  H15Y19602   2.713   1.531   4.690  0.3499 -0.5307  1.1746
  172SAPS  C31619603   2.677   1.373   4.539 -0.2333  0.7217 -0.8146
  172SAPS  H16X19604   2.674   1.435   4.447  0.7892 -1.0787 -2.1178
  172SAPS  H16Y19605   2.783   1.342   4.548 -0.3521  0.4263 -0.3944
  172SAPS  C31719606   2.589   1.247   4.509 -0.0448  0.0909  0.1140
  172SAPS  H17X19607   2.623   1.215   4.408 -1.3346 -0.8609 -0.0382
  172SAPS  H17Y19608   2.483   1.280   4.503 -0.7492 -2.2299 -1.0294
  172SAPS  C31819609   2.615   1.125   4.599  0.6500 -0.2634 -0.6792
  172SAPS  H18X19610   2.723   1.105   4.617  0.3727 -0.4854  0.9686
  172SAPS  H18Y19611   2.577   1.031   4.555 -1.0349 -0.5766  1.3021
  172SAPS  H18Z19612   2.567   1.139   4.698  1.2665 -1.5199 -0.1731
  173SAPS     N19613   6.612   0.645   2.326 -0.3842  0.0766 -0.3419
  173SAPS   HN119614   6.658   0.586   2.255 -2.3262 -1.3949 -0.4696
  173SAPS   HN219615   6.660   0.737   2.314 -0.0406 -0.2814 -1.9101
  173SAPS   HN319616   6.629   0.605   2.420  1.6704  0.8265 -0.3591
  173SAPS   C1219617   6.465   0.659   2.285  0.3407 -0.2231  0.0766
  173SAPS  H12A19618   6.426   0.743   2.341  0.0274  0.7309 -1.5092
  173SAPS   C1319619   6.452   0.708   2.140  0.2756  0.1110 -0.3993
  173SAPS  O13A19620   6.548   0.760   2.078 -0.3382 -0.5747 -0.1808
  173SAPS  O13B19621   6.336   0.718   2.088  0.2154  0.3556 -0.5578
  173SAPS   C1119622   6.394   0.520   2.302 -0.0328  1.0291 -0.0189
  173SAPS  H11A19623   6.290   0.525   2.264  0.3318 -2.1308 -1.7641
  173SAPS  H11B19624   6.382   0.514   2.412 -2.1026  0.0472 -0.2499
  173SAPS     P19625   6.402   0.280   2.182 -0.3114 -0.2066  0.1221
  173SAPS   O1319626   6.264   0.304   2.136 -0.1254 -0.2971 -0.0772
  173SAPS   O1419627   6.492   0.226   2.076  0.5490 -0.3188  0.0965
  173SAPS   O1219628   6.466   0.409   2.240  0.1183 -0.1425 -0.4264
  173SAPS   O1119629   6.401   0.180   2.303  0.1221 -0.7597  0.5074
  173SAPS    C119630   6.370   0.210   2.436  0.2799  0.7417 -0.3094
  173SAPS    HA19631   6.413   0.131   2.501  0.5722  0.2836 -1.0472
  173SAPS    HB19632   6.420   0.305   2.463  0.4790  0.8931 -1.1709
  173SAPS    C219633   6.221   0.216   2.476 -0.6408 -0.6818 -0.1706
  173SAPS    HS19634   6.161   0.138   2.424 -0.1315  0.0840 -1.9636
  173SAPS   O2119635   6.188   0.348   2.428  0.3373  0.2083  0.6468
  173SAPS   C2119636   6.056   0.366   2.419 -0.1866  0.4129 -0.1183
  173SAPS   O2219637   5.971   0.280   2.441 -0.3916 -0.5517 -0.1531
  173SAPS   C2219638   6.025   0.512   2.376  0.1039  0.2606  0.0439
  173SAPS   H2R19639   6.121   0.566   2.358  0.6834 -0.6038  0.4591
  173SAPS   H2S19640   5.970   0.517   2.280 -0.8130  1.1695  0.5998
  173SAPS    C319641   6.203   0.199   2.630  0.7459  1.0136 -0.4057
  173SAPS    HX19642   6.209   0.091   2.654  0.6735  0.9583 -0.6317
  173SAPS    HY19643   6.096   0.216   2.656  0.3115 -0.4179 -1.1615
  173SAPS   O3119644   6.298   0.272   2.706 -0.0995  0.2737  0.6253
  173SAPS   C3119645   6.245   0.390   2.743 -0.0007  0.7972  0.1954
  173SAPS   O3219646   6.131   0.427   2.718 -0.1277 -0.0720 -0.0822
  173SAPS   C3219647   6.344   0.458   2.841 -0.2314  0.2447 -0.0579
  173SAPS   H2X19648   6.440   0.483   2.792 -1.7227  2.2729 -2.1096
  173SAPS   H2Y19649   6.359   0.386   2.925 -0.0732 -1.6147 -1.6039
  173SAPS   C2319650   5.957   0.588   2.485  0.1002 -0.3543 -0.2520
  173SAPS   H3R19651   6.015   0.598   2.580  0.6542 -2.1006 -0.3782
  173SAPS   H3S19652   5.864   0.531   2.503 -2.8667  3.3519 -2.4420
  173SAPS   C2419653   5.911   0.723   2.442 -0.7392 -0.2007  0.5060
  173SAPS   H4R19654   5.870   0.722   2.339  2.2095 -0.2453 -0.7767
  173SAPS   H4S19655   6.007   0.774   2.415  0.5685 -2.8600 -0.1776
  173SAPS   C2519656   5.826   0.807   2.536 -0.7511 -0.5510 -0.0476
  173SAPS   H5R19657   5.829   0.909   2.494  1.5936 -0.6719 -0.2981
  173SAPS   C2619658   5.760   0.791   2.646  0.1581  0.0503  0.3759
  173SAPS   H6R19659   5.714   0.881   2.691  2.2519  0.9221  0.9033
  173SAPS   C2719660   5.741   0.658   2.714 -0.3453  0.4550 -0.3543
  173SAPS   H7R19661   5.832   0.619   2.763 -0.0483  1.9287  0.3303
  173SAPS   H7S19662   5.719   0.581   2.637  0.6140 -0.6358  0.4478
  173SAPS   C2819663   5.630   0.660   2.816  0.1502  0.1244 -0.7919
  173SAPS   H8R19664   5.541   0.718   2.790  0.4075 -0.2627 -2.6356
  173SAPS   C2919665   5.628   0.594   2.933  0.1919  0.2553 -0.1878
  173SAPS   H9R19666   5.533   0.595   2.989 -0.0592  1.9862 -0.5939
  173SAPS  C21019667   5.740   0.506   2.990  0.9194  0.2509  0.1623
  173SAPS  H10R19668   5.773   0.443   2.904  2.7064 -0.8051  1.5709
  173SAPS  H10S19669   5.693   0.441   3.067  0.1983 -0.4600 -0.8471
  173SAPS  C21119670   5.869   0.568   3.034 -0.5085  0.4646  0.0799
  173SAPS  H11R19671   5.940   0.600   2.957  0.4512 -1.1223  0.2664
  173SAPS  C21219672   5.903   0.607   3.152 -1.0147 -0.4885 -0.6001
  173SAPS  H12R19673   6.005   0.648   3.161 -0.9499 -0.7888  0.0372
  173SAPS  C21319674   5.836   0.603   3.285 -0.0688 -0.2430  0.1091
  173SAPS  H13R19675   5.738   0.552   3.275  0.1294 -0.1761 -3.0481
  173SAPS  H13S19676   5.803   0.703   3.321 -0.4952 -0.9390  1.7354
  173SAPS  C21419677   5.923   0.547   3.391  0.2555 -0.1143  0.0565
  173SAPS  H14R19678   5.994   0.468   3.363  2.0518  1.6670 -0.6594
  173SAPS  C21519679   5.933   0.580   3.516 -0.1182 -0.2238  1.1435
  173SAPS  H15R19680   6.016   0.531   3.568  2.2789  0.3340 -1.8597
  173SAPS  C21619681   5.859   0.681   3.596  0.0911 -0.2709 -0.2903
  173SAPS  H16R19682   5.819   0.762   3.531  0.4400  0.0555 -0.1079
  173SAPS  H16S19683   5.931   0.732   3.664  0.3572 -1.9793  0.7686
  173SAPS  C21719684   5.742   0.627   3.675  0.5374  0.0968  0.1753
  173SAPS  H17R19685   5.675   0.564   3.612  1.6473 -0.2082 -0.7571
  173SAPS  H17S19686   5.679   0.712   3.708  1.1435 -0.0667  1.8481
  173SAPS  C21819687   5.784   0.555   3.808 -0.4139 -0.0934 -0.0284
  173SAPS  H18R19688   5.850   0.469   3.784 -0.8084 -0.4370  0.1022
  173SAPS  H18S19689   5.696   0.504   3.854  0.1877 -0.3730  0.8334
  173SAPS  C21919690   5.854   0.650   3.914  0.1307 -0.1126  0.5807
  173SAPS  H19R19691   5.953   0.678   3.872  0.8954 -1.4502  1.3873
  173SAPS  H19S19692   5.889   0.594   4.003 -0.7273 -2.3106 -0.3867
  173SAPS  C22019693   5.766   0.777   3.945 -0.0821 -0.1177 -0.6244
  173SAPS  H20R19694   5.759   0.825   3.845  0.2900 -2.9939 -2.1275
  173SAPS  H20S19695   5.821   0.851   4.008 -1.4201 -1.6378  2.5563
  173SAPS  H20T19696   5.663   0.753   3.978 -0.2160 -0.9963 -1.6495
  173SAPS   C3319697   6.284   0.586   2.895  0.5173  1.0730 -0.0190
  173SAPS   H3X19698   6.198   0.561   2.961 -0.1758 -0.1839 -1.3372
  173SAPS   H3Y19699   6.242   0.654   2.819  1.2349  2.5489  0.8661
  173SAPS   C3419700   6.376   0.668   2.992 -0.4581  0.0447  0.6171
  173SAPS   H4X19701   6.313   0.758   3.011 -1.8972 -0.8701  0.2822
  173SAPS   H4Y19702   6.464   0.703   2.933 -1.2426  0.6366 -0.2297
  173SAPS   C3519703   6.438   0.610   3.117 -0.6901  0.1668 -0.5630
  173SAPS   H5X19704   6.481   0.690   3.181  1.7941  0.1840 -2.0937
  173SAPS   H5Y19705   6.516   0.541   3.078  0.1784  0.4088  0.6681
  173SAPS   C3619706   6.344   0.542   3.213 -0.0479  0.2908 -0.0942
  173SAPS   H6X19707   6.286   0.458   3.169  2.0227 -1.2344 -0.0884
  173SAPS   H6Y19708   6.272   0.615   3.255  0.5383  0.3204  0.8973
  173SAPS   C3719709   6.417   0.480   3.335 -0.9073 -1.0088  0.1949
  173SAPS   H7X19710   6.512   0.535   3.352  0.0122 -2.1709 -0.9398
  173SAPS   H7Y19711   6.439   0.377   3.302  2.7417 -0.1246 -0.6503
  173SAPS   C3819712   6.333   0.482   3.469 -1.0781  0.1570  0.1745
  173SAPS   H8X19713   6.246   0.417   3.448  0.5020 -2.0175 -0.0387
  173SAPS   H8Y19714   6.294   0.585   3.475  2.9590  1.9110 -0.1627
  173SAPS   C3919715   6.416   0.459   3.592  0.5417  0.2795 -0.6093
  173SAPS   H9X19716   6.520   0.490   3.571  0.8158 -1.4822 -2.0925
  173SAPS   H9Y19717   6.423   0.349   3.603  0.2814  0.3247  0.1075
  173SAPS  C31019718   6.349   0.505   3.723 -0.1332  0.2908  0.0863
  173SAPS  H10X19719   6.253   0.451   3.717  1.0547 -1.7403 -2.6900
  173SAPS  H10Y19720   6.339   0.614   3.740 -0.3564  0.0567  1.5440
  173SAPS  C31119721   6.450   0.457   3.832  0.7447 -0.2907  0.1890
  173SAPS  H11X19722   6.546   0.511   3.829 -0.0258  1.1035 -0.0214
  173SAPS  H11Y19723   6.469   0.347   3.828 -0.7799 -0.5936  0.3670
  173SAPS  C31219724   6.413   0.497   3.974  0.1631  0.1754 -0.0876
  173SAPS  H12X19725   6.372   0.599   3.963  0.3789  0.5773  2.2788
  173SAPS  H12Y19726   6.503   0.504   4.039  0.2536  0.2552 -0.2219
  173SAPS  C31319727   6.305   0.417   4.052 -0.4946  0.1248 -0.1862
  173SAPS  H13X19728   6.290   0.451   4.157 -1.0114 -0.1645 -0.1587
  173SAPS  H13Y19729   6.347   0.315   4.049  0.2910  0.4508 -3.2889
  173SAPS  C31419730   6.162   0.404   3.998  0.0292  0.1468  1.3554
  173SAPS  H14X19731   6.131   0.495   3.942  1.4297  0.3117  0.8145
  173SAPS  H14Y19732   6.098   0.406   4.089  0.2141  0.6619  1.4772
  173SAPS  C31519733   6.136   0.269   3.919 -0.1535  0.4878  0.5590
  173SAPS  H15X19734   6.133   0.190   3.997 -1.4153 -0.7145 -0.6445
  173SAPS  H15Y19735   6.224   0.249   3.855 -1.6440 -1.7502 -0.9294
  173SAPS  C31619736   6.014   0.262   3.817 -0.5973 -0.1025  0.2761
  173SAPS  H16X19737   6.021   0.342   3.740 -0.1086 -1.2705 -0.9466
  173SAPS  H16Y19738   5.921   0.274   3.876 -0.8704 -1.4357  0.1469
  173SAPS  C31719739   6.016   0.122   3.754 -0.3930  0.0797 -0.1807
  173SAPS  H17X19740   6.008   0.052   3.839  0.0659 -1.9452 -1.7249
  173SAPS  H17Y19741   6.110   0.112   3.695  0.0802  0.7191  0.4407
  173SAPS  C31819742   5.903   0.106   3.658  0.1375 -0.1586  0.3200
  173SAPS  H18X19743   5.912   0.182   3.578 -0.3226  0.8847  1.2314
  173SAPS  H18Y19744   5.803   0.114   3.707 -0.8496 -1.3205 -1.3898
  173SAPS  H18Z19745   5.903   0.005   3.611 -0.1008  1.2116 -2.9136
  174SAPS     N19746   2.192   6.479   2.229  0.3546 -0.5319  0.2203
  174SAPS   HN119747   2.205   6.527   2.321 -0.5279  2.2350 -0.9847
  174SAPS   HN219748   2.140   6.543   2.166 -2.8441 -1.4909  1.6546
  174SAPS   HN319749   2.117   6.407   2.245  0.7681 -0.7611  1.2508
  174SAPS   C1219750   2.303   6.417   2.158  0.2057  0.5186 -0.5028
  174SAPS  H12A19751   2.265   6.361   2.074  0.2330 -0.0852 -0.1205
  174SAPS   C1319752   2.393   6.532   2.095  0.3962 -0.2578  0.5228
  174SAPS  O13A19753   2.346   6.651   2.091 -0.1504 -0.0904 -0.6137
  174SAPS  O13B19754   2.485   6.490   2.007  0.7460 -0.5577  0.0411
  174SAPS   C1119755   2.381   6.318   2.255  0.2321 -0.2294  0.0235
  174SAPS  H11A19756   2.437   6.374   2.333  3.4415 -2.0325 -0.7824
  174SAPS  H11B19757   2.465   6.270   2.199  1.0552  0.3347  0.7457
  174SAPS     P19758   2.327   6.073   2.323 -0.0482 -0.6357 -0.1493
  174SAPS   O1319759   2.208   5.994   2.284 -0.2033 -0.0178 -0.2245
  174SAPS   O1419760   2.448   6.043   2.251 -0.3094 -0.1111 -0.5226
  174SAPS   O1219761   2.292   6.225   2.309 -0.0564  0.1793  0.5789
  174SAPS   O1119762   2.344   6.073   2.482 -0.3774 -0.2016 -0.3657
  174SAPS    C119763   2.284   5.964   2.560  0.5311  0.7430  0.2127
  174SAPS    HA19764   2.179   5.949   2.528  0.1567  1.1668  1.1930
  174SAPS    HB19765   2.354   5.878   2.554  0.9040  0.9163  1.5461
  174SAPS    C219766   2.270   6.002   2.710 -0.1261 -0.2987  0.1640
  174SAPS    HS19767   2.193   6.082   2.712 -1.1632 -0.9365 -4.4367
  174SAPS   O2119768   2.401   6.049   2.759 -0.0764 -0.3046 -0.2415
  174SAPS   C2119769   2.399   6.162   2.839 -0.3217 -0.7491 -0.6253
  174SAPS   O2219770   2.300   6.230   2.860 -0.0945 -0.5024  0.0506
  174SAPS   C2219771   2.548   6.182   2.885  0.2956  0.8141  0.7952
  174SAPS   H2R19772   2.607   6.090   2.867  0.9376  1.2335  0.7367
  174SAPS   H2S19773   2.583   6.259   2.813 -1.1455  2.0335  1.3343
  174SAPS    C319774   2.216   5.878   2.788 -0.1327 -0.2354 -0.4780
  174SAPS    HX19775   2.289   5.794   2.796  0.9679  0.8125  1.3244
  174SAPS    HY19776   2.140   5.848   2.713  1.4978  1.1229 -2.8116
  174SAPS   O3119777   2.146   5.924   2.903 -0.2157 -0.3716  0.0322
  174SAPS   C3119778   2.206   5.891   3.016 -0.2046  0.1167  0.4401
  174SAPS   O3219779   2.304   5.823   3.030 -0.6110  0.5980 -0.6254
  174SAPS   C3219780   2.139   5.970   3.131 -0.6004  0.7075 -0.9113
  174SAPS   H2X19781   2.031   5.945   3.120 -0.3029  0.2301 -3.0688
  174SAPS   H2Y19782   2.138   6.078   3.105 -2.7493  1.0208  0.2056
  174SAPS   C2319783   2.571   6.225   3.029  0.6324 -0.1416  0.2146
  174SAPS   H3R19784   2.677   6.203   3.054  0.9742 -1.0647 -1.8965
  174SAPS   H3S19785   2.514   6.164   3.103  1.1187 -0.3281  0.4382
  174SAPS   C2419786   2.538   6.376   3.054 -0.0095  0.1350 -0.0204
  174SAPS   H4R19787   2.431   6.392   3.030  0.2280  1.8705 -0.0333
  174SAPS   H4S19788   2.594   6.438   2.980  0.1175 -1.0724 -0.9711
  174SAPS   C2519789   2.579   6.416   3.194  0.2245  0.1467  0.5834
  174SAPS   H5R19790   2.662   6.489   3.191 -0.8480  1.3794 -0.0409
  174SAPS   C2619791   2.523   6.387   3.314  0.4712 -0.1303  0.0686
  174SAPS   H6R19792   2.567   6.437   3.402 -0.5629  0.0208  0.5156
  174SAPS   C2719793   2.404   6.298   3.329  0.4426  0.4453 -0.8300
  174SAPS   H7R19794   2.440   6.202   3.372  1.5413  1.0344 -0.3789
  174SAPS   H7S19795   2.354   6.273   3.233  0.4924 -1.0911 -0.4704
  174SAPS   C2819796   2.306   6.351   3.430  0.2587 -0.2874  0.4813
  174SAPS   H8R19797   2.241   6.429   3.388 -3.0207 -1.8986  2.1611
  174SAPS   C2919798   2.291   6.328   3.567 -0.8616  0.3285  0.6065
  174SAPS   H9R19799   2.211   6.379   3.621 -0.6780 -0.0273  1.2193
  174SAPS  C21019800   2.366   6.221   3.645 -0.8851  0.0678  0.0294
  174SAPS  H10R19801   2.444   6.174   3.582  0.7593  0.2674  1.8262
  174SAPS  H10S19802   2.299   6.135   3.668  1.4025 -1.3848  1.6860
  174SAPS  C21119803   2.430   6.295   3.767  0.0784 -0.2997  0.5704
  174SAPS  H11R19804   2.531   6.339   3.765 -0.7357  1.7373  1.6152
  174SAPS  C21219805   2.368   6.321   3.882 -0.0956 -0.1643 -0.0974
  174SAPS  H12R19806   2.418   6.362   3.972 -1.1858  0.4526  0.2575
  174SAPS  C21319807   2.226   6.295   3.916 -0.6297 -0.3110  0.9861
  174SAPS  H13R19808   2.160   6.275   3.830 -1.0743  1.0920  0.9752
  174SAPS  H13S19809   2.184   6.395   3.942 -1.8562 -0.8017  0.9316
  174SAPS  C21419810   2.194   6.186   4.014  0.6372 -0.0828 -0.8883
  174SAPS  H14R19811   2.209   6.085   3.974  0.2752  0.0313 -1.3178
  174SAPS  C21519812   2.162   6.192   4.147  0.2544 -0.0248  0.5808
  174SAPS  H15R19813   2.143   6.095   4.194  2.5316  0.1054  1.9486
  174SAPS  C21619814   2.142   6.317   4.228 -0.0816 -0.1992 -0.0996
  174SAPS  H16R19815   2.033   6.329   4.240 -0.0115 -0.0902  0.4772
  174SAPS  H16S19816   2.165   6.405   4.164  1.0481 -0.6517 -0.3537
  174SAPS  C21719817   2.204   6.323   4.362 -0.2232  0.0445  0.6077
  174SAPS  H17R19818   2.222   6.429   4.390 -0.1000  0.2751 -0.3068
  174SAPS  H17S19819   2.305   6.278   4.373 -0.3669 -0.0230  1.7817
  174SAPS  C21819820   2.121   6.254   4.469  0.1749 -0.2145 -0.3984
  174SAPS  H18R19821   2.019   6.297   4.482  1.0655  1.7389  0.5533
  174SAPS  H18S19822   2.168   6.297   4.560  0.4567  0.1231 -0.7042
  174SAPS  C21919823   2.122   6.107   4.474  0.3741  0.0500 -0.2697
  174SAPS  H19R19824   2.224   6.070   4.453 -0.2114 -1.1862 -1.0539
  174SAPS  H19S19825   2.059   6.082   4.386 -0.0558  2.2935 -0.6705
  174SAPS  C22019826   2.056   6.053   4.603  0.2164 -0.1807 -0.9806
  174SAPS  H20R19827   1.956   6.101   4.606  0.5571  0.5123  1.1008
  174SAPS  H20S19828   2.117   6.080   4.691  0.9346 -0.4755 -1.3786
  174SAPS  H20T19829   2.053   5.942   4.604  0.6344 -0.1961  0.1906
  174SAPS   C3319830   2.197   5.932   3.270  1.0812  0.4248  0.2760
  174SAPS   H3X19831   2.291   5.991   3.280  0.5812  0.9223  2.5672
  174SAPS   H3Y19832   2.213   5.823   3.274  2.1693  0.5625 -0.0410
  174SAPS   C3419833   2.107   5.981   3.382 -0.1526 -0.4058  0.1633
  174SAPS   H4X19834   1.997   5.983   3.366 -0.0053 -0.6517 -0.9630
  174SAPS   H4Y19835   2.125   6.090   3.381  0.2218 -0.4375 -1.8731
  174SAPS   C3519836   2.145   5.915   3.519  0.5667 -0.4936 -0.5580
  174SAPS   H5X19837   2.249   5.943   3.547  0.5833 -1.1362  0.0503
  174SAPS   H5Y19838   2.149   5.804   3.520  1.5490 -0.5061  2.6164
  174SAPS   C3619839   2.054   5.963   3.628  0.2743  0.3080  0.5727
  174SAPS   H6X19840   2.062   6.073   3.642 -2.6908  0.6876 -0.1305
  174SAPS   H6Y19841   2.086   5.914   3.723 -1.6639 -2.7048 -0.1739
  174SAPS   C3719842   1.905   5.924   3.601  0.0927  0.2017 -0.7463
  174SAPS   H7X19843   1.898   5.839   3.529 -3.5388 -0.2314 -0.0649
  174SAPS   H7Y19844   1.858   6.014   3.556 -2.3031 -0.6378 -0.0644
  174SAPS   C3819845   1.817   5.898   3.731 -0.2037  0.3726  0.4255
  174SAPS   H8X19846   1.860   5.811   3.785 -0.6155  0.6166  1.1608
  174SAPS   H8Y19847   1.712   5.878   3.701 -0.1892 -0.9339  1.1533
  174SAPS   C3919848   1.826   6.026   3.808  0.0307  0.1956  0.3925
  174SAPS   H9X19849   1.800   6.109   3.739  3.3457  1.0110 -0.0429
  174SAPS   H9Y19850   1.929   6.040   3.847  0.2448  0.0157 -0.1043
  174SAPS  C31019851   1.754   6.028   3.945 -0.3972  0.2278 -0.5019
  174SAPS  H10X19852   1.801   5.954   4.014 -1.4487 -0.4218 -0.4674
  174SAPS  H10Y19853   1.649   6.007   3.916  0.7120 -2.2523 -3.2376
  174SAPS  C31119854   1.758   6.171   3.999 -0.0138 -0.0688 -1.0228
  174SAPS  H11X19855   1.730   6.239   3.915  0.4033  0.4188 -0.7727
  174SAPS  H11Y19856   1.862   6.199   4.027  1.0848 -3.6411 -1.1010
  174SAPS  C31219857   1.666   6.182   4.124  0.6637 -0.6229  0.3494
  174SAPS  H12X19858   1.697   6.102   4.194  0.5671  0.0932  1.2291
  174SAPS  H12Y19859   1.561   6.155   4.099  1.4588 -2.7373 -0.9512
  174SAPS  C31319860   1.672   6.313   4.208  0.2150 -0.6256  0.0947
  174SAPS  H13X19861   1.609   6.386   4.154  1.9302  0.9169  0.1053
  174SAPS  H13Y19862   1.777   6.351   4.213  0.2163 -0.3915 -1.3902
  174SAPS  C31419863   1.623   6.295   4.352 -0.0059  0.2567  0.0555
  174SAPS  H14X19864   1.663   6.387   4.400  0.0426 -0.1130  0.7372
  174SAPS  H14Y19865   1.667   6.207   4.404 -0.9312  0.1547  0.6715
  174SAPS  C31519866   1.475   6.293   4.367 -0.1345 -0.2054  0.3403
  174SAPS  H15X19867   1.433   6.191   4.367  0.8054 -0.6905  3.1904
  174SAPS  H15Y19868   1.423   6.348   4.286 -0.6514 -0.8214  0.2500
  174SAPS  C31619869   1.432   6.381   4.490 -0.6172 -0.0706 -0.3804
  174SAPS  H16X19870   1.482   6.481   4.488 -0.6821 -0.0050  0.6504
  174SAPS  H16Y19871   1.464   6.327   4.582  0.0313  0.1130 -0.4926
  174SAPS  C31719872   1.278   6.409   4.489 -0.1195 -0.5655 -0.4944
  174SAPS  H17X19873   1.213   6.319   4.492 -0.8839 -0.1212  3.8195
  174SAPS  H17Y19874   1.249   6.477   4.407 -0.2877  1.2824  1.0271
  174SAPS  C31819875   1.245   6.487   4.616 -0.3271 -0.0638 -0.5995
  174SAPS  H18X19876   1.157   6.555   4.618  0.8623  1.5550 -1.1975
  174SAPS  H18Y19877   1.328   6.560   4.626  1.5660 -2.0332 -1.1772
  174SAPS  H18Z19878   1.252   6.417   4.702  1.0194  1.9020  1.0185
  175SAPS     N19879   0.660   4.229   1.937  0.4181  1.0891 -0.2334
  175SAPS   HN119880   0.730   4.306   1.944  1.7818 -0.1397  0.1132
  175SAPS   HN219881   0.634   4.204   2.035  1.3578 -0.6482 -0.3889
  175SAPS   HN319882   0.719   4.156   1.893  1.3941  2.0919 -0.6392
  175SAPS   C1219883   0.533   4.255   1.857 -0.4557  0.2311  0.0021
  175SAPS  H12A19884   0.564   4.327   1.782 -0.4700 -0.6983 -0.9149
  175SAPS   C1319885   0.468   4.134   1.778  0.7711 -0.4660 -0.3507
  175SAPS  O13A19886   0.508   4.013   1.795  0.0691 -0.2294  0.2671
  175SAPS  O13B19887   0.382   4.156   1.691 -0.4005 -0.0922  0.1234
  175SAPS   C1119888   0.429   4.337   1.936  1.3803  0.2587 -0.3735
  175SAPS  H11A19889   0.384   4.280   2.020 -0.7577  1.9899 -0.2464
  175SAPS  H11B19890   0.342   4.358   1.870 -0.2742 -1.1283  1.2196
  175SAPS     P19891   0.433   4.601   1.916 -0.1565 -0.1814 -0.4422
  175SAPS   O1319892   0.496   4.717   1.994 -0.2765  0.3612  0.3402
  175SAPS   O1419893   0.452   4.590   1.769  0.1779 -0.0610 -0.3459
  175SAPS   O1219894   0.481   4.463   1.983 -0.4934  0.4992  0.1617
  175SAPS   O1119895   0.276   4.593   1.947  0.1813  0.4542 -0.1870
  175SAPS    C119896   0.203   4.653   2.051 -0.5894  0.0607  0.2518
  175SAPS    HA19897   0.223   4.761   2.043  2.6438 -0.4703 -0.1513
  175SAPS    HB19898   0.096   4.634   2.030 -0.1889 -3.1191  0.4775
  175SAPS    C219899   0.238   4.611   2.195 -0.6944 -0.1295 -0.0970
  175SAPS    HS19900   0.348   4.611   2.202 -0.7068  1.6803  0.5099
  175SAPS   O2119901   0.177   4.480   2.208 -0.2223  0.6240 -0.6544
  175SAPS   C2119902   0.243   4.377   2.274 -0.2777  0.6975 -0.3933
  175SAPS   O2219903   0.351   4.395   2.335  0.1248 -0.1343  0.3226
  175SAPS   C2219904   0.159   4.250   2.261  0.0185  0.4236  0.1827
  175SAPS   H2R19905   0.054   4.282   2.283 -0.2562 -0.5964  0.3874
  175SAPS   H2S19906   0.151   4.228   2.152 -1.6868 -0.0068  0.3593
  175SAPS    C319907   0.194   4.719   2.294 -0.2133  0.5860 -0.6351
  175SAPS    HX19908   0.089   4.737   2.264 -0.8924 -2.4494 -0.4078
  175SAPS    HY19909   0.256   4.809   2.276  1.5982 -0.2695  0.8975
  175SAPS   O3119910   0.199   4.676   2.434 -0.0853 -0.2578  0.2599
  175SAPS   C3119911   0.329   4.666   2.481  0.3549  0.7831  0.5757
  175SAPS   O3219912   0.419   4.703   2.412 -1.0605  0.1852  0.1259
  175SAPS   C3219913   0.334   4.612   2.630 -0.7289  0.1007  0.9609
  175SAPS   H2X19914   0.242   4.552   2.648 -0.1507 -0.8399  0.8352
  175SAPS   H2Y19915   0.339   4.706   2.690  0.3826  0.0899  0.9093
  175SAPS   C2319916   0.205   4.124   2.338 -0.8638 -0.8365 -0.1305
  175SAPS   H3R19917   0.311   4.098   2.319 -1.4699 -2.4187 -1.6625
  175SAPS   H3S19918   0.150   4.034   2.303 -0.8058 -1.1997  0.6872
  175SAPS   C2419919   0.173   4.148   2.485  0.0834 -0.5271 -0.5701
  175SAPS   H4R19920   0.070   4.187   2.496 -0.4458 -1.6022 -1.5545
  175SAPS   H4S19921   0.237   4.229   2.527  0.6356 -1.1491 -0.2018
  175SAPS   C2519922   0.186   4.023   2.566  0.1318  0.5815 -0.9643
  175SAPS   H5R19923   0.161   3.930   2.513  1.5028 -0.5989  0.3291
  175SAPS   C2619924   0.244   4.002   2.689  0.2951 -0.2582  0.5575
  175SAPS   H6R19925   0.260   3.899   2.726  0.9201  0.3112  1.9595
  175SAPS   C2719926   0.284   4.108   2.782 -0.1236  0.3722  0.1046
  175SAPS   H7R19927   0.205   4.119   2.859  0.0139 -1.2964  0.5208
  175SAPS   H7S19928   0.279   4.210   2.738 -3.4128 -0.4535 -1.7442
  175SAPS   C2819929   0.415   4.073   2.851 -0.0070 -0.5759  0.0944
  175SAPS   H8R19930   0.504   4.077   2.787  0.3433 -1.0740  0.5313
  175SAPS   C2919931   0.433   4.024   2.973 -0.2063 -0.0811  0.2317
  175SAPS   H9R19932   0.536   3.992   2.999  1.0393  0.9417 -2.9696
  175SAPS  C21019933   0.326   3.994   3.077  0.1058 -0.1950  0.2371
  175SAPS  H10R19934   0.367   3.917   3.145  0.6260  0.1943  0.3734
  175SAPS  H10S19935   0.239   3.948   3.026  0.5864 -1.6172  0.6409
  175SAPS  C21119936   0.266   4.107   3.160 -0.2902  0.7773 -0.1651
  175SAPS  H11R19937   0.203   4.188   3.120 -1.2856  1.0852  1.8750
  175SAPS  C21219938   0.279   4.116   3.296  0.1805  0.4773 -0.2324
  175SAPS  H12R19939   0.234   4.203   3.347 -3.7508 -0.2910 -2.0382
  175SAPS  C21319940   0.356   4.023   3.394  0.1435 -0.4484 -0.1241
  175SAPS  H13R19941   0.337   3.914   3.385  1.3471 -0.5621 -1.6559
  175SAPS  H13S19942   0.318   4.054   3.494 -1.5400  1.8111 -1.3934
  175SAPS  C21419943   0.500   4.041   3.382 -0.0156 -0.4317  0.4288
  175SAPS  H14R19944   0.540   4.036   3.280  0.6222  2.7116  0.4491
  175SAPS  C21519945   0.586   4.045   3.485 -0.5452 -0.1690  0.2753
  175SAPS  H15R19946   0.693   4.054   3.462 -1.1310 -0.4598 -3.1321
  175SAPS  C21619947   0.552   4.019   3.631 -0.3004 -0.1329  0.2464
  175SAPS  H16R19948   0.457   3.961   3.624 -0.0393 -0.4935 -0.4751
  175SAPS  H16S19949   0.549   4.114   3.688 -1.5103  0.4356 -0.7045
  175SAPS  C21719950   0.649   3.918   3.704 -0.0519  0.1242  0.1831
  175SAPS  H17R19951   0.677   3.826   3.648 -1.0667  0.3879 -0.8177
  175SAPS  H17S19952   0.604   3.877   3.797  1.4516  0.6933  1.1898
  175SAPS  C21819953   0.780   3.987   3.753  0.1743  0.2130 -0.2300
  175SAPS  H18R19954   0.843   4.028   3.670 -0.4639 -0.0876 -0.8734
  175SAPS  H18S19955   0.839   3.903   3.795 -3.2936 -1.9726  0.6776
  175SAPS  C21919956   0.773   4.086   3.865 -0.3784 -0.2095  0.3981
  175SAPS  H19R19957   0.699   4.032   3.927  0.4679 -1.2020  0.5695
  175SAPS  H19S19958   0.730   4.182   3.830  0.6211  0.1853  0.2215
  175SAPS  C22019959   0.907   4.106   3.936 -1.0010 -0.3124  0.2058
  175SAPS  H20R19960   0.981   4.153   3.868  0.3344 -1.7827  0.5773
  175SAPS  H20S19961   0.944   4.011   3.981  3.2646  2.1621  2.5233
  175SAPS  H20T19962   0.897   4.172   4.025 -2.2287 -1.6031  1.0744
  175SAPS   C3319963   0.465   4.538   2.644 -0.6601 -0.2468 -0.1910
  175SAPS   H3X19964   0.548   4.613   2.640 -0.1930 -0.6958  0.8879
  175SAPS   H3Y19965   0.493   4.462   2.567  0.8207  0.2819 -0.2191
  175SAPS   C3419966   0.495   4.461   2.781 -0.2185 -0.2153 -0.0283
  175SAPS   H4X19967   0.596   4.415   2.775  0.0874  0.2428  1.2973
  175SAPS   H4Y19968   0.416   4.385   2.798 -0.5935  0.1149 -0.2814
  175SAPS   C3519969   0.507   4.561   2.904 -0.3174  0.1532 -0.1111
  175SAPS   H5X19970   0.414   4.621   2.906  0.0502  0.7483 -0.7078
  175SAPS   H5Y19971   0.598   4.619   2.881  0.8068 -0.3433  2.6962
  175SAPS   C3619972   0.523   4.484   3.038  0.6141  0.0277  0.4732
  175SAPS   H6X19973   0.580   4.560   3.095 -0.0377  0.9381 -0.0592
  175SAPS   H6Y19974   0.595   4.402   3.019 -0.4714 -0.4807 -1.8387
  175SAPS   C3719975   0.392   4.447   3.113 -0.2908  0.6638 -0.2655
  175SAPS   H7X19976   0.344   4.368   3.052 -0.3753  1.0481 -0.7091
  175SAPS   H7Y19977   0.323   4.534   3.113 -2.9139 -1.1647  3.7121
  175SAPS   C3819978   0.423   4.402   3.256  0.0112  0.4296 -0.4677
  175SAPS   H8X19979   0.483   4.308   3.246  0.7767  0.9445 -0.8268
  175SAPS   H8Y19980   0.330   4.378   3.312  1.2819 -0.2239  1.4824
  175SAPS   C3919981   0.492   4.503   3.347 -0.4394 -0.0445  0.6092
  175SAPS   H9X19982   0.440   4.600   3.333  1.4748  0.6999 -2.1569
  175SAPS   H9Y19983   0.599   4.510   3.319 -0.5899 -2.3939 -0.8014
  175SAPS  C31019984   0.490   4.458   3.493 -0.4947 -0.2021  0.2771
  175SAPS  H10X19985   0.514   4.349   3.491  2.8045  0.3782 -3.4355
  175SAPS  H10Y19986   0.386   4.472   3.528 -1.1061  1.7412 -2.0407
  175SAPS  C31119987   0.582   4.531   3.589 -0.4682 -0.0059 -0.9448
  175SAPS  H11X19988   0.554   4.637   3.605  0.0956  0.1407 -0.9285
  175SAPS  H11Y19989   0.688   4.540   3.559 -0.1038  0.3646  0.4173
  175SAPS  C31219990   0.573   4.454   3.724  0.5960 -1.0544  0.2947
  175SAPS  H12X19991   0.598   4.352   3.690  0.0171 -0.9822 -0.3903
  175SAPS  H12Y19992   0.466   4.463   3.752  0.5165 -0.1777 -0.2365
  175SAPS  C31319993   0.681   4.501   3.829 -0.4506 -0.2043 -0.0957
  175SAPS  H13X19994   0.654   4.608   3.843 -0.9048 -0.3772  0.3932
  175SAPS  H13Y19995   0.782   4.499   3.785 -0.3117 -1.1627  0.2583
  175SAPS  C31419996   0.669   4.447   3.974  0.6325 -0.1578 -0.2219
  175SAPS  H14X19997   0.689   4.338   3.973  2.9123  0.1247  2.6277
  175SAPS  H14Y19998   0.563   4.451   4.009  0.6548  1.7381 -0.2589
  175SAPS  C31519999   0.769   4.500   4.077 -0.8927 -0.7844 -0.5725
  175SAPS  H15X20000   0.864   4.466   4.030 -0.5275  1.2021 -1.3702
  175SAPS  H15Y20001   0.760   4.452   4.177  0.7867  1.1703  0.5835
  175SAPS  C31620002   0.781   4.653   4.120 -0.5251  0.2307  0.0898
  175SAPS  H16X20003   0.693   4.688   4.177  0.8382  2.2573  1.0637
  175SAPS  H16Y20004   0.782   4.703   4.021  1.9937  2.4438  1.1030
  175SAPS  C31720005   0.919   4.675   4.187  0.5542  0.4022 -0.0861
  175SAPS  H17X20006   0.997   4.625   4.126  1.3436  1.6771 -0.1501
  175SAPS  H17Y20007   0.926   4.635   4.291  0.5589  1.1720  0.2197
  175SAPS  C31820008   0.940   4.825   4.188  0.3904 -0.5989  0.0065
  175SAPS  H18X20009   1.025   4.866   4.247 -1.1842  2.3575  0.3958
  175SAPS  H18Y20010   0.850   4.867   4.236  1.0279 -1.0576  1.6514
  175SAPS  H18Z20011   0.952   4.857   4.082 -1.9253 -2.2045 -0.8258
  176SAPS     N20012   6.996   1.352   1.955 -0.0380  0.5892 -0.0349
  176SAPS   HN120013   7.036   1.302   1.873 -2.6661 -0.8988 -0.5180
  176SAPS   HN220014   6.905   1.389   1.923  0.0960  2.7855  1.9328
  176SAPS   HN320015   7.048   1.440   1.973 -0.7138  0.8616  0.5840
  176SAPS   C1220016   6.987   1.269   2.081  0.1066 -0.0217 -0.0853
  176SAPS  H12A20017   6.949   1.334   2.159 -0.2155 -0.8598  0.4693
  176SAPS   C1320018   6.880   1.149   2.080 -0.0019 -0.1080  0.1571
  176SAPS  O13A20019   6.805   1.120   1.983 -0.1489 -0.0789  0.3371
  176SAPS  O13B20020   6.879   1.080   2.187 -0.0955 -0.1106 -0.1236
  176SAPS   C1120021   7.134   1.227   2.129 -0.0589  0.3022  1.0972
  176SAPS  H11A20022   7.127   1.157   2.215  0.3558 -0.8697  0.2074
  176SAPS  H11B20023   7.169   1.327   2.163 -1.9362  1.0570  0.9086
  176SAPS     P20024   7.349   1.127   2.042 -0.1180  0.1601 -0.2622
  176SAPS   O1320025   7.384   1.033   1.933 -0.2647 -0.3532 -0.1942
  176SAPS   O1420026   7.422   1.250   2.037  0.0642 -0.2197 -0.7965
  176SAPS   O1220027   7.198   1.163   2.027 -0.0858  0.2466 -0.0925
  176SAPS   O1120028   7.348   1.066   2.188 -0.8151 -0.4062  0.5352
  176SAPS    C120029   7.480   1.031   2.239  0.1881 -0.3905  0.2577
  176SAPS    HA20030   7.508   0.940   2.183  1.6910 -0.2076  0.6829
  176SAPS    HB20031   7.560   1.103   2.212  0.1963 -1.1817 -2.0886
  176SAPS    C220032   7.481   1.012   2.390  1.1040  0.1729  0.6968
  176SAPS    HS20033   7.414   0.926   2.414  0.9787  0.2117  0.4867
  176SAPS   O2120034   7.440   1.128   2.453  0.0883  0.1525 -0.3698
  176SAPS   C2120035   7.310   1.155   2.469 -0.5555 -0.6923 -0.5278
  176SAPS   O2220036   7.225   1.066   2.460  0.0121 -0.1142 -0.0382
  176SAPS   C2220037   7.299   1.305   2.516  0.2412  0.4494  0.0272
  176SAPS   H2R20038   7.386   1.364   2.480  0.8629 -0.0762  0.6401
  176SAPS   H2S20039   7.210   1.347   2.465 -0.9017  0.6241  2.0579
  176SAPS    C320040   7.618   0.967   2.439  0.1293  0.3618 -0.9018
  176SAPS    HX20041   7.709   1.026   2.413  1.3641 -0.4192  1.4218
  176SAPS    HY20042   7.635   0.870   2.388 -1.2648  0.2542 -1.1928
  176SAPS   O3120043   7.617   0.946   2.587 -0.0303 -0.2966  0.1860
  176SAPS   C3120044   7.659   1.047   2.656  0.3012  0.4171  0.1252
  176SAPS   O3220045   7.698   1.155   2.616 -0.4859  0.3977 -0.0390
  176SAPS   C3220046   7.658   1.012   2.806 -0.1411 -0.6949  0.1350
  176SAPS   H2X20047   7.723   0.922   2.815 -0.5223 -0.9617  0.2459
  176SAPS   H2Y20048   7.555   0.984   2.837 -1.1007  1.1122 -1.2336
  176SAPS   C2320049   7.269   1.311   2.672 -0.0571 -0.3003 -0.7373
  176SAPS   H3R20050   7.370   1.294   2.714 -0.3574  0.1747  0.2092
  176SAPS   H3S20051   7.210   1.227   2.714  1.3653 -1.9913 -1.9947
  176SAPS   C2420052   7.232   1.455   2.708  0.4430  0.8302 -0.2957
  176SAPS   H4R20053   7.311   1.517   2.660 -1.2951  1.6236 -2.2818
  176SAPS   H4S20054   7.228   1.465   2.819  0.2949 -0.1864 -0.2061
  176SAPS   C2520055   7.094   1.480   2.652  0.1616  0.2074 -0.8091
  176SAPS   H5R20056   7.088   1.534   2.556  2.0067  1.0849 -0.4687
  176SAPS   C2620057   6.971   1.435   2.697 -0.5596 -0.0493 -0.1996
  176SAPS   H6R20058   6.880   1.472   2.646 -0.1945  0.6597 -0.3477
  176SAPS   C2720059   6.945   1.351   2.817  0.8253  0.2438  0.1527
  176SAPS   H7R20060   7.031   1.282   2.832 -0.1308 -0.9878  0.2273
  176SAPS   H7S20061   6.852   1.293   2.794  0.8666 -0.8642  2.4307
  176SAPS   C2820062   6.924   1.447   2.938 -0.5217  0.3629  0.5667
  176SAPS   H8R20063   6.849   1.526   2.924 -2.4287 -1.7308 -2.0655
  176SAPS   C2920064   6.999   1.446   3.051  0.2086 -0.5552 -0.0456
  176SAPS   H9R20065   6.951   1.500   3.133 -0.5901  0.6165 -1.2467
  176SAPS  C21020066   7.105   1.350   3.090 -0.5662  0.1710  0.2264
  176SAPS  H10R20067   7.145   1.290   3.005 -0.8062 -1.1712  1.0357
  176SAPS  H10S20068   7.069   1.278   3.166 -2.1372 -0.2386 -0.8755
  176SAPS  C21120069   7.229   1.425   3.131  0.0897  1.0450 -0.3905
  176SAPS  H11R20070   7.285   1.491   3.063  2.1272 -0.1774  0.0111
  176SAPS  C21220071   7.301   1.402   3.245 -0.5868 -0.7774  1.1456
  176SAPS  H12R20072   7.389   1.466   3.259  1.1618 -3.4846  3.8411
  176SAPS  C21320073   7.274   1.317   3.366  0.4705  0.4032  0.2697
  176SAPS  H13R20074   7.366   1.255   3.372 -0.5357 -1.4362 -2.0197
  176SAPS  H13S20075   7.192   1.246   3.342 -0.8146  2.1196 -0.6236
  176SAPS  C21420076   7.267   1.392   3.495  0.7498 -0.3507 -0.0106
  176SAPS  H14R20077   7.343   1.369   3.571  0.2164 -2.2460  0.0193
  176SAPS  C21520078   7.164   1.474   3.536  0.3604 -0.3786 -0.1985
  176SAPS  H15R20079   7.165   1.534   3.628 -0.8002  1.4189 -1.2816
  176SAPS  C21620080   7.042   1.505   3.451  0.5045 -0.3323 -1.2811
  176SAPS  H16R20081   6.999   1.406   3.426 -2.1899  0.0891  1.1855
  176SAPS  H16S20082   7.062   1.560   3.356  2.7723  1.4457  0.1055
  176SAPS  C21720083   6.926   1.584   3.521  0.5979 -0.4088 -0.9141
  176SAPS  H17R20084   6.964   1.664   3.588 -1.3599 -0.2254  0.0305
  176SAPS  H17S20085   6.876   1.515   3.592 -0.2514  1.0589 -0.0591
  176SAPS  C21820086   6.818   1.627   3.421  0.3901  0.5590  0.4308
  176SAPS  H18R20087   6.797   1.547   3.347  3.3715  0.6921 -0.6691
  176SAPS  H18S20088   6.851   1.722   3.375  0.4496  0.3401  0.0158
  176SAPS  C21920089   6.688   1.681   3.488  0.1998  0.1391  0.0653
  176SAPS  H19R20090   6.647   1.605   3.558  3.0740 -1.1071  0.5499
  176SAPS  H19S20091   6.617   1.714   3.409  2.2442 -1.0991 -2.4389
  176SAPS  C22020092   6.714   1.805   3.563 -0.2253  0.0707 -0.4982
  176SAPS  H20R20093   6.752   1.889   3.501 -0.7225  0.7349  0.0708
  176SAPS  H20S20094   6.789   1.798   3.646 -1.7758 -0.5340  0.9090
  176SAPS  H20T20095   6.623   1.851   3.607  0.0468  1.3540 -1.2129
  176SAPS   C3320096   7.716   1.123   2.904 -0.1992 -0.6155  0.3483
  176SAPS   H3X20097   7.665   1.220   2.892  2.9861  1.3617  1.4523
  176SAPS   H3Y20098   7.821   1.152   2.880 -0.3627  0.5762  1.0050
  176SAPS   C3420099   7.703   1.068   3.046  0.2103  0.0645  0.0664
  176SAPS   H4X20100   7.760   0.973   3.056  2.3605  1.1295 -1.5219
  176SAPS   H4Y20101   7.594   1.045   3.050  0.2739 -0.0796  2.2512
  176SAPS   C3520102   7.732   1.170   3.152 -0.1089  0.0373  0.0698
  176SAPS   H5X20103   7.669   1.259   3.134 -0.1234 -0.2280 -1.2819
  176SAPS   H5Y20104   7.838   1.200   3.136  0.5429 -2.8487 -1.7229
  176SAPS   C3620105   7.698   1.130   3.292 -0.6151  0.3201 -0.5044
  176SAPS   H6X20106   7.784   1.065   3.317 -0.2920  0.3670 -1.4605
  176SAPS   H6Y20107   7.598   1.082   3.285  0.5702 -2.2764 -0.7133
  176SAPS   C3720108   7.691   1.249   3.394  0.9835  0.4290 -0.2256
  176SAPS   H7X20109   7.613   1.321   3.360 -1.4364 -1.2456  1.4461
  176SAPS   H7Y20110   7.782   1.308   3.419  1.2614 -0.6947  1.6201
  176SAPS   C3820111   7.649   1.191   3.532 -0.0214 -0.5631  0.0911
  176SAPS   H8X20112   7.726   1.119   3.569  0.3588  0.0348  0.4864
  176SAPS   H8Y20113   7.555   1.133   3.516 -1.7259  1.5796  1.6843
  176SAPS   C3920114   7.619   1.287   3.647 -0.0505  0.3374 -0.4982
  176SAPS   H9X20115   7.541   1.362   3.625 -0.1497  0.2500 -0.4450
  176SAPS   H9Y20116   7.704   1.355   3.669  1.0232 -0.8758 -0.7818
  176SAPS  C31020117   7.594   1.211   3.776  0.4705  0.3815  0.6087
  176SAPS  H10X20118   7.564   1.289   3.850 -0.1422  0.0289  0.7401
  176SAPS  H10Y20119   7.683   1.163   3.822  0.2722  0.5016  1.1335
  176SAPS  C31120120   7.482   1.112   3.761  0.2810  0.2731 -0.1977
  176SAPS  H11X20121   7.517   1.025   3.701  3.5906  0.3693  1.3529
  176SAPS  H11Y20122   7.387   1.151   3.719 -0.2014  1.4322  1.8205
  176SAPS  C31220123   7.434   1.049   3.899 -0.4554 -0.0711  0.3066
  176SAPS  H12X20124   7.331   1.008   3.894  0.3958 -2.1625 -1.5571
  176SAPS  H12Y20125   7.438   1.136   3.968  1.7415  0.2379 -0.1482
  176SAPS  C31320126   7.521   0.936   3.953  0.6373  0.2420  0.0294
  176SAPS  H13X20127   7.623   0.978   3.945  0.6111  0.0912 -1.3580
  176SAPS  H13Y20128   7.507   0.851   3.883 -2.8935 -0.3717  1.2930
  176SAPS  C31420129   7.485   0.889   4.095 -0.3235  0.3678  0.3161
  176SAPS  H14X20130   7.393   0.827   4.092 -0.2350  0.2628 -0.4116
  176SAPS  H14Y20131   7.469   0.978   4.159 -0.9286 -0.6137  1.5709
  176SAPS  C31520132   7.603   0.815   4.152  0.1718 -0.1774 -0.1219
  176SAPS  H15X20133   7.691   0.878   4.178 -0.2747  0.8331 -1.0015
  176SAPS  H15Y20134   7.626   0.745   4.069  0.1469  2.1234 -2.1771
  176SAPS  C31620135   7.567   0.736   4.280 -0.1106  0.3632 -0.3265
  176SAPS  H16X20136   7.638   0.657   4.314  1.7949  2.9880  2.3257
  176SAPS  H16Y20137   7.467   0.691   4.265 -0.0021 -0.8112  2.0918
  176SAPS  C31720138   7.557   0.821   4.409 -0.2777  0.1758 -0.2189
  176SAPS  H17X20139   7.459   0.872   4.413  0.5215  1.6927  2.3756
  176SAPS  H17Y20140   7.623   0.910   4.393 -1.6170  1.2650  0.1357
  176SAPS  C31820141   7.610   0.758   4.541 -0.1484  0.6518 -0.7243
  176SAPS  H18X20142   7.715   0.724   4.533  0.0315  1.1501 -0.5198
  176SAPS  H18Y20143   7.533   0.683   4.567 -1.2635  2.2028  0.6957
  176SAPS  H18Z20144   7.603   0.827   4.628 -1.8809  1.1645 -1.2229
  177SAPS     N20145   0.819   0.077   2.440 -0.0977  0.2975 -0.1957
  177SAPS   HN120146   0.880   0.132   2.504 -1.4345 -1.2026  2.5619
  177SAPS   HN220147   0.878   0.033   2.367  1.4912  0.3536  1.0194
  177SAPS   HN320148   0.758   0.141   2.386 -1.2078 -0.4213  0.1684
  177SAPS   C1220149   0.721  -0.011   2.505  0.5355 -0.2491  0.0954
  177SAPS  H12A20150   0.711   0.037   2.601  1.5826  0.1113  0.0415
  177SAPS   C1320151   0.576  -0.020   2.441 -0.5036  0.5709  0.1115
  177SAPS  O13A20152   0.549   0.038   2.331  0.1169 -0.0755  0.1928
  177SAPS  O13B20153   0.497  -0.102   2.496  0.1113  0.0199 -0.3116
  177SAPS   C1120154   0.780  -0.144   2.540 -0.6405 -0.3828  0.1517
  177SAPS  H11A20155   0.703  -0.201   2.597  1.3015 -2.9737  0.3432
  177SAPS  H11B20156   0.864  -0.124   2.610 -1.6001  1.7315  0.7941
  177SAPS     P20157   0.958  -0.246   2.375 -0.3542  0.1647 -0.0511
  177SAPS   O1320158   0.961  -0.362   2.285 -0.1398 -0.1682  0.3094
  177SAPS   O1420159   1.008  -0.117   2.331 -0.1125  0.2719 -0.2642
  177SAPS   O1220160   0.811  -0.225   2.427  0.1589  0.2217  0.1644
  177SAPS   O1120161   1.029  -0.281   2.513  0.0301 -0.3538  1.0831
  177SAPS    C120162   1.018  -0.419   2.557  0.2136  0.4249  0.4174
  177SAPS    HA20163   0.915  -0.439   2.594 -0.0611  0.8729 -0.0983
  177SAPS    HB20164   1.042  -0.498   2.484 -3.7254 -0.6815  0.0675
  177SAPS    C220165   1.107  -0.437   2.687 -0.2079  0.5826  0.4703
  177SAPS    HS20166   1.090  -0.540   2.724  0.3084  0.4871  0.4545
  177SAPS   O2120167   1.091  -0.338   2.790  0.5258  0.2501 -0.3817
  177SAPS   C2120168   0.966  -0.318   2.840 -0.3292 -0.8540  0.1163
  177SAPS   O2220169   0.866  -0.382   2.822  0.0627 -0.3109 -0.4637
  177SAPS   C2220170   0.974  -0.207   2.944  0.2002  0.4587 -0.4216
  177SAPS   H2R20171   0.900  -0.131   2.908 -2.9321 -1.0871  2.2495
  177SAPS   H2S20172   0.936  -0.247   3.040 -1.8035 -1.0968 -1.7649
  177SAPS    C320173   1.251  -0.439   2.644 -0.3043 -0.7778 -0.3239
  177SAPS    HX20174   1.270  -0.348   2.584 -0.6872 -1.3551 -1.3536
  177SAPS    HY20175   1.258  -0.528   2.578  2.4627 -0.9762  0.1192
  177SAPS   O3120176   1.343  -0.439   2.756  0.2674  0.3927 -0.0349
  177SAPS   C3120177   1.399  -0.320   2.785  0.5019 -0.4092 -0.3149
  177SAPS   O3220178   1.400  -0.222   2.713  0.0380 -0.1745 -0.0532
  177SAPS   C3220179   1.450  -0.323   2.932 -0.7046  0.0731  0.9201
  177SAPS   H2X20180   1.471  -0.430   2.953 -1.6577 -0.7299 -1.7095
  177SAPS   H2Y20181   1.372  -0.294   3.005 -1.7345 -0.8871  0.2317
  177SAPS   C2320182   1.109  -0.142   2.966  0.1256  0.2694 -0.0123
  177SAPS   H3R20183   1.137  -0.093   2.871  1.0587  1.7403  1.0007
  177SAPS   H3S20184   1.189  -0.212   2.999  0.3963  0.5378 -0.1037
  177SAPS   C2420185   1.109  -0.037   3.072  1.0001  0.0222 -0.3069
  177SAPS   H4R20186   1.065  -0.087   3.161 -0.6861 -1.1270 -1.7115
  177SAPS   H4S20187   1.028   0.038   3.056 -0.3682 -0.8812  1.9081
  177SAPS   C2520188   1.230   0.036   3.101 -1.2130 -0.1981 -0.2120
  177SAPS   H5R20189   1.298  -0.007   3.176 -2.7837 -1.9715  0.2613
  177SAPS   C2620190   1.289   0.126   3.022  0.0267  0.5882  0.6657
  177SAPS   H6R20191   1.389   0.154   3.059 -0.1277 -0.7494  2.2042
  177SAPS   C2720192   1.233   0.201   2.907  0.5636 -0.6379 -0.0398
  177SAPS   H7R20193   1.143   0.146   2.873 -0.7135  2.5976 -2.4272
  177SAPS   H7S20194   1.298   0.204   2.816  1.0872  0.3163  0.3607
  177SAPS   C2820195   1.189   0.338   2.955  0.1991  0.2224 -0.5012
  177SAPS   H8R20196   1.090   0.329   3.002  0.2710  2.5316  0.1981
  177SAPS   C2920197   1.247   0.457   2.929 -0.1809  0.2623  0.6012
  177SAPS   H9R20198   1.218   0.538   2.998 -0.5442  1.3401 -0.7664
  177SAPS  C21020199   1.376   0.472   2.847  0.0639  0.3575 -0.1534
  177SAPS  H10R20200   1.350   0.446   2.743  0.1024  0.3144 -0.1523
  177SAPS  H10S20201   1.451   0.395   2.875 -1.8744 -1.3847  0.4934
  177SAPS  C21120202   1.438   0.608   2.837  0.1104 -0.4903 -0.0269
  177SAPS  H11R20203   1.443   0.656   2.738 -2.0053  0.2410  0.1675
  177SAPS  C21220204   1.502   0.672   2.937  0.8396 -0.0352  0.6999
  177SAPS  H12R20205   1.555   0.766   2.915 -0.2473  0.3393 -0.4325
  177SAPS  C21320206   1.495   0.631   3.084  0.3581  0.4237 -0.2552
  177SAPS  H13R20207   1.594   0.589   3.111 -0.0284  0.9416  2.1357
  177SAPS  H13S20208   1.417   0.555   3.108  1.5028  0.1920  3.2558
  177SAPS  C21420209   1.471   0.747   3.180 -0.1574 -0.3261  0.1828
  177SAPS  H14R20210   1.492   0.844   3.132 -0.7254 -1.3331 -2.2931
  177SAPS  C21520211   1.410   0.729   3.298  0.2392 -0.0719  0.5540
  177SAPS  H15R20212   1.384   0.818   3.358  1.0924  0.1521  0.5976
  177SAPS  C21620213   1.361   0.600   3.356 -0.1662 -0.5423 -0.7974
  177SAPS  H16R20214   1.317   0.530   3.282  0.3313 -1.5145 -0.1979
  177SAPS  H16S20215   1.281   0.615   3.432 -0.7389 -1.4654 -1.1983
  177SAPS  C21720216   1.483   0.533   3.431  0.2326  0.1144 -0.4584
  177SAPS  H17R20217   1.542   0.607   3.489 -1.6011  2.3392 -1.2633
  177SAPS  H17S20218   1.552   0.486   3.359  1.0539  1.0287 -0.2931
  177SAPS  C21820219   1.451   0.425   3.535 -1.0200  0.2001  0.0090
  177SAPS  H18R20220   1.410   0.470   3.628 -1.0135 -1.0275  0.6279
  177SAPS  H18S20221   1.542   0.371   3.569 -2.1023 -0.4361  2.0271
  177SAPS  C21920222   1.350   0.318   3.497 -0.1304  0.3761  0.5876
  177SAPS  H19R20223   1.259   0.341   3.438  0.3970 -0.2103 -0.4960
  177SAPS  H19S20224   1.316   0.270   3.591 -0.0427 -1.5643 -0.3318
  177SAPS  C22020225   1.416   0.198   3.416  0.4646 -0.3952  0.0029
  177SAPS  H20R20226   1.461   0.243   3.325  2.1300 -1.1135  0.4393
  177SAPS  H20S20227   1.335   0.128   3.387 -2.5022  3.4833 -1.9811
  177SAPS  H20T20228   1.486   0.139   3.479 -0.8981 -3.9603 -1.5723
  177SAPS   C3320229   1.587  -0.241   2.948 -0.0155 -0.3097 -0.7958
  177SAPS   H3X20230   1.567  -0.132   2.938 -3.7221 -0.8118 -0.4531
  177SAPS   H3Y20231   1.662  -0.283   2.879  0.9028 -0.3285  0.1900
  177SAPS   C3420232   1.650  -0.276   3.086 -0.0852  0.0137  0.1233
  177SAPS   H4X20233   1.757  -0.251   3.074 -0.5755  1.4893 -1.7545
  177SAPS   H4Y20234   1.631  -0.384   3.102 -1.4980  0.0258 -1.1853
  177SAPS   C3520235   1.591  -0.197   3.207 -0.1927  0.6243  0.2425
  177SAPS   H5X20236   1.494  -0.147   3.186 -0.8041  0.4870  2.5151
  177SAPS   H5Y20237   1.658  -0.114   3.238 -0.1542 -0.0190  2.0003
  177SAPS   C3620238   1.570  -0.289   3.326 -0.6139 -0.6018 -0.0863
  177SAPS   H6X20239   1.665  -0.341   3.352  0.2889  0.9031 -0.2358
  177SAPS   H6Y20240   1.498  -0.371   3.303 -0.8876 -0.5058  0.4035
  177SAPS   C3720241   1.535  -0.221   3.457  0.3790  0.1070 -0.3677
  177SAPS   H7X20242   1.445  -0.159   3.433  0.0290  0.0562  0.7378
  177SAPS   H7Y20243   1.613  -0.150   3.492  0.4924  0.3741 -1.1538
  177SAPS   C3820244   1.494  -0.327   3.565 -0.0257  0.6903  0.0661
  177SAPS   H8X20245   1.581  -0.392   3.587 -0.4560 -0.1676 -0.6801
  177SAPS   H8Y20246   1.436  -0.402   3.507  0.1721  1.6515 -1.4435
  177SAPS   C3920247   1.420  -0.268   3.687  0.5412  0.4239  0.3226
  177SAPS   H9X20248   1.312  -0.295   3.685  0.4702  0.0186  3.8235
  177SAPS   H9Y20249   1.405  -0.158   3.685  1.7946  0.7013  2.7973
  177SAPS  C31020250   1.497  -0.290   3.815 -0.1263  0.2827  0.5390
  177SAPS  H10X20251   1.602  -0.256   3.805  0.5222 -1.6929  0.1616
  177SAPS  H10Y20252   1.499  -0.398   3.839  1.2172  0.2206  0.2232
  177SAPS  C31120253   1.457  -0.219   3.939 -0.0017  0.6955 -0.8794
  177SAPS  H11X20254   1.346  -0.219   3.944 -0.0743 -2.9204  2.6032
  177SAPS  H11Y20255   1.494  -0.115   3.931  1.0193  0.3645 -0.6151
  177SAPS  C31220256   1.489  -0.294   4.070 -0.1877 -0.2121  0.0650
  177SAPS  H12X20257   1.599  -0.286   4.086 -0.3775 -1.4060  2.4508
  177SAPS  H12Y20258   1.455  -0.399   4.052 -3.2679  0.8034 -0.6130
  177SAPS  C31320259   1.428  -0.235   4.196 -0.4328 -0.4299 -0.0083
  177SAPS  H13X20260   1.449  -0.303   4.282 -1.5556 -0.6492  0.1030
  177SAPS  H13Y20261   1.317  -0.227   4.191 -0.6064 -2.0966  0.3471
  177SAPS  C31420262   1.482  -0.092   4.236 -0.2921 -0.1960 -0.0362
  177SAPS  H14X20263   1.531  -0.047   4.148  0.2932 -0.9063 -0.0828
  177SAPS  H14Y20264   1.557  -0.104   4.317 -1.3609 -2.3533  0.7209
  177SAPS  C31520265   1.369   0.009   4.300 -0.4909 -0.6747  0.2463
  177SAPS  H15X20266   1.327  -0.045   4.387  0.2168 -1.6315  0.0080
  177SAPS  H15Y20267   1.285   0.036   4.232 -0.3165  1.7577  0.8799
  177SAPS  C31620268   1.426   0.154   4.319 -0.2153  0.8025 -0.8645
  177SAPS  H16X20269   1.344   0.226   4.340 -2.7606 -2.0827 -0.2415
  177SAPS  H16Y20270   1.478   0.169   4.221 -0.0996  0.9457 -0.7820
  177SAPS  C31720271   1.524   0.156   4.426  1.0525  0.4201 -0.1689
  177SAPS  H17X20272   1.609   0.087   4.405 -1.6986 -2.4497 -3.0309
  177SAPS  H17Y20273   1.476   0.114   4.516 -0.5405 -1.6851 -1.8953
  177SAPS  C31820274   1.577   0.299   4.466 -0.5582  0.1274 -0.2441
  177SAPS  H18X20275   1.636   0.354   4.389 -1.6021  0.9317 -0.5094
  177SAPS  H18Y20276   1.643   0.287   4.554 -0.7967 -2.0745 -0.3267
  177SAPS  H18Z20277   1.487   0.360   4.490  0.3650  1.0543  0.9744
  178SAPS     N20278   0.977   0.483   2.023  0.1315  0.1881 -0.0330
  178SAPS   HN120279   0.994   0.399   1.965  3.6931 -0.1234  1.1675
  178SAPS   HN220280   0.918   0.553   1.973  0.3538  0.0296 -0.5225
  178SAPS   HN320281   1.068   0.533   2.031 -0.6627  1.4710  2.0712
  178SAPS   C1220282   0.944   0.448   2.158  0.7712 -0.0713  0.1420
  178SAPS  H12A20283   0.836   0.449   2.160  0.7563  0.7617 -0.3481
  178SAPS   C1320284   1.004   0.309   2.193 -0.1083 -0.8404  0.0134
  178SAPS  O13A20285   1.068   0.242   2.105 -0.4329 -0.4634  0.2142
  178SAPS  O13B20286   1.003   0.263   2.311  0.2800  0.2781 -0.0278
  178SAPS   C1120287   0.994   0.564   2.250 -0.1251 -0.0940 -0.7227
  178SAPS  H11A20288   1.098   0.587   2.221 -0.4014  0.6244 -1.1771
  178SAPS  H11B20289   0.992   0.530   2.356 -1.6714 -0.7434 -0.9273
  178SAPS     P20290   0.938   0.819   2.302 -0.0123 -0.5970  0.0841
  178SAPS   O1320291   0.905   0.930   2.208 -0.4301 -0.6503  0.2087
  178SAPS   O1420292   0.881   0.813   2.440  0.3756 -0.5430  0.0894
  178SAPS   O1220293   0.906   0.683   2.228  0.2929 -0.2067 -0.4718
  178SAPS   O1120294   1.092   0.813   2.309 -0.6260 -0.4238  0.5627
  178SAPS    C120295   1.164   0.782   2.423  0.3580  0.2873 -0.7914
  178SAPS    HA20296   1.106   0.708   2.482  0.1156  1.6467  0.7444
  178SAPS    HB20297   1.263   0.736   2.401  1.9348  3.0870 -0.1268
  178SAPS    C220298   1.180   0.914   2.513  0.2289  0.7220 -0.0965
  178SAPS    HS20299   1.074   0.939   2.533  0.2379  1.1750 -0.5957
  178SAPS   O2120300   1.242   1.012   2.427 -0.0190 -0.6936 -0.4514
  178SAPS   C2120301   1.200   1.133   2.447 -0.2712 -0.3261 -0.0672
  178SAPS   O2220302   1.105   1.159   2.523  0.2196  0.0611  1.1626
  178SAPS   C2220303   1.291   1.231   2.375 -0.3390 -0.3903  0.3290
  178SAPS   H2R20304   1.293   1.194   2.270 -0.1985 -1.3339  0.6496
  178SAPS   H2S20305   1.248   1.333   2.361  0.7357 -0.0951 -0.9846
  178SAPS    C320306   1.280   0.876   2.629 -0.8011 -0.3226 -0.2750
  178SAPS    HX20307   1.386   0.892   2.601 -0.0015 -0.0423  2.5894
  178SAPS    HY20308   1.264   0.773   2.667 -2.2019  0.3010  0.9676
  178SAPS   O3120309   1.274   0.964   2.743 -0.3169  0.2970  0.3677
  178SAPS   C3120310   1.157   0.962   2.807 -0.1384 -0.2489  0.1377
  178SAPS   O3220311   1.062   0.894   2.768  0.1821  0.5828  0.1412
  178SAPS   C3220312   1.148   1.074   2.916 -0.3854 -0.6213  0.1696
  178SAPS   H2X20313   1.060   1.041   2.974 -1.8529 -0.1411 -1.6981
  178SAPS   H2Y20314   1.127   1.166   2.857  2.3424  0.4584  0.7079
  178SAPS   C2320315   1.432   1.233   2.442  0.4785  0.0632  0.6944
  178SAPS   H3R20316   1.501   1.279   2.368 -0.6593  0.6583 -0.0265
  178SAPS   H3S20317   1.478   1.132   2.451  1.8252  0.6195  0.2715
  178SAPS   C2420318   1.436   1.307   2.573 -0.2449 -0.4540  0.1476
  178SAPS   H4R20319   1.545   1.318   2.592  0.0929  0.0470 -1.9029
  178SAPS   H4S20320   1.408   1.242   2.659  2.8882  0.8237  2.3270
  178SAPS   C2520321   1.370   1.442   2.581  0.6112 -0.6387 -0.3798
  178SAPS   H5R20322   1.367   1.510   2.496 -0.4932  0.2849  0.3743
  178SAPS   C2620323   1.302   1.490   2.695 -0.6672 -0.2705  0.8747
  178SAPS   H6R20324   1.260   1.591   2.687  0.2528 -0.0186 -1.7504
  178SAPS   C2720325   1.277   1.425   2.833  1.1220 -0.2357  0.5725
  178SAPS   H7R20326   1.288   1.315   2.826  0.6701 -0.2475 -0.0923
  178SAPS   H7S20327   1.173   1.457   2.859  0.3657 -0.5496 -1.7951
  178SAPS   C2820328   1.386   1.470   2.923  0.1443  0.1778 -0.5804
  178SAPS   H8R20329   1.489   1.452   2.890  0.3026 -1.8238  0.8273
  178SAPS   C2920330   1.363   1.539   3.040 -0.2670  0.0103  0.6564
  178SAPS   H9R20331   1.448   1.580   3.097  0.2117  1.2075 -0.8422
  178SAPS  C21020332   1.232   1.569   3.105  0.4643  0.2980 -0.8343
  178SAPS  H10R20333   1.244   1.536   3.210  1.7132  0.1990 -0.9848
  178SAPS  H10S20334   1.156   1.505   3.055  0.3300 -2.2632  2.3341
  178SAPS  C21120335   1.189   1.713   3.109  0.2724  0.2408 -0.3519
  178SAPS  H11R20336   1.162   1.759   3.012  3.9327 -1.4659 -2.3805
  178SAPS  C21220337   1.162   1.785   3.222 -0.5623 -0.2450  0.0924
  178SAPS  H12R20338   1.127   1.888   3.209 -0.8237 -0.1777  1.1676
  178SAPS  C21320339   1.171   1.751   3.364  0.0366  0.8715 -0.7953
  178SAPS  H13R20340   1.274   1.728   3.396 -0.8703 -0.7229  1.2009
  178SAPS  H13S20341   1.113   1.658   3.379  0.1139  0.9931  0.2947
  178SAPS  C21420342   1.104   1.854   3.452 -0.2984 -0.0975  0.0589
  178SAPS  H14R20343   1.040   1.929   3.404  0.5799  0.4774 -0.2275
  178SAPS  C21520344   1.098   1.836   3.584 -0.2496 -0.0369  0.0844
  178SAPS  H15R20345   1.042   1.908   3.645 -0.3276  0.7158 -0.8562
  178SAPS  C21620346   1.183   1.743   3.666  0.1639  0.8427  0.3324
  178SAPS  H16R20347   1.289   1.741   3.631 -0.4894  0.3093 -1.7533
  178SAPS  H16S20348   1.134   1.643   3.660 -2.2250  1.9472  0.3909
  178SAPS  C21720349   1.188   1.775   3.812 -0.5208 -0.0170 -0.5518
  178SAPS  H17R20350   1.083   1.756   3.842 -0.0161 -0.6976  0.8977
  178SAPS  H17S20351   1.212   1.884   3.819 -0.0904 -0.2134  1.9624
  178SAPS  C21820352   1.285   1.695   3.898  0.8430  0.2621 -0.5181
  178SAPS  H18R20353   1.241   1.714   3.998 -0.6964  1.7047 -1.4153
  178SAPS  H18S20354   1.387   1.735   3.879  0.5575  0.5506 -1.4910
  178SAPS  C21920355   1.289   1.539   3.875  0.3054 -0.3288 -0.3664
  178SAPS  H19R20356   1.311   1.512   3.769  0.2698  1.3808 -0.8480
  178SAPS  H19S20357   1.182   1.514   3.891 -0.0390  0.4977 -1.2542
  178SAPS  C22020358   1.378   1.454   3.963  0.1759  0.0964  0.3556
  178SAPS  H20R20359   1.392   1.346   3.942  0.5163  0.5260 -1.8886
  178SAPS  H20S20360   1.338   1.447   4.067  1.6541  0.0817  0.9545
  178SAPS  H20T20361   1.476   1.506   3.976  0.2229 -0.4105  2.3933
  178SAPS   C3320362   1.269   1.074   3.009  0.0907  0.6080  0.0935
  178SAPS   H3X20363   1.364   1.104   2.959 -0.5553 -0.2463 -1.7687
  178SAPS   H3Y20364   1.287   0.974   3.053  1.9520  1.5643  1.6742
  178SAPS   C3420365   1.239   1.164   3.127 -0.4493  0.3558 -0.3101
  178SAPS   H4X20366   1.196   1.262   3.096 -0.9642  0.7015  1.4165
  178SAPS   H4Y20367   1.333   1.185   3.182 -0.6775  3.1122 -0.8328
  178SAPS   C3520368   1.141   1.098   3.232  0.4735  0.3838 -0.3317
  178SAPS   H5X20369   1.181   0.996   3.245  1.1909  0.3718 -2.2284
  178SAPS   H5Y20370   1.038   1.093   3.190  0.3836  1.5725 -0.3032
  178SAPS   C3620371   1.127   1.195   3.348 -0.2795 -0.2620  0.7052
  178SAPS   H6X20372   1.059   1.277   3.317 -1.3332 -0.4536  2.4145
  178SAPS   H6Y20373   1.229   1.234   3.368 -0.7042  0.3985  1.6392
  178SAPS   C3720374   1.087   1.129   3.479 -0.5150  0.2146 -0.7864
  178SAPS   H7X20375   1.173   1.080   3.529 -0.8105  0.1292 -0.3563
  178SAPS   H7Y20376   1.006   1.053   3.467  0.9008 -1.2855 -1.1300
  178SAPS   C3820377   1.036   1.229   3.582 -0.3980 -0.8726 -0.1118
  178SAPS   H8X20378   0.945   1.277   3.542  0.8411  2.3799  0.6382
  178SAPS   H8Y20379   1.119   1.302   3.593 -1.2202  0.0879 -0.1440
  178SAPS   C3920380   1.016   1.171   3.721 -0.4417  0.1269  0.0307
  178SAPS   H9X20381   1.098   1.101   3.749 -0.0487 -0.5881 -2.5842
  178SAPS   H9Y20382   0.933   1.098   3.709  1.0770 -1.7233  0.2548
  178SAPS  C31020383   0.976   1.258   3.833 -0.0634 -0.1820  0.2556
  178SAPS  H10X20384   0.865   1.261   3.840 -0.3900  1.5080 -3.1600
  178SAPS  H10Y20385   1.005   1.364   3.819  2.4886 -0.6411  1.4672
  178SAPS  C31120386   1.042   1.224   3.970  0.4459  0.3474  0.3893
  178SAPS  H11X20387   1.002   1.306   4.034  2.0492  1.8475 -0.4378
  178SAPS  H11Y20388   1.153   1.230   3.971  0.6301 -1.8447  2.5818
  178SAPS  C31220389   0.986   1.088   4.018 -0.5477  0.9822  0.4894
  178SAPS  H12X20390   1.036   1.010   3.957 -0.8901  0.8120  0.4234
  178SAPS  H12Y20391   0.877   1.082   3.995 -0.3342 -0.7753 -0.2188
  178SAPS  C31320392   0.997   1.065   4.166 -0.2683  0.0381 -0.2727
  178SAPS  H13X20393   1.105   1.051   4.191 -0.0303  1.9242 -0.1250
  178SAPS  H13Y20394   0.943   0.971   4.189 -0.7716  0.4232  0.1371
  178SAPS  C31420395   0.935   1.166   4.272 -1.1241 -0.0971  0.4596
  178SAPS  H14X20396   0.834   1.203   4.242 -1.0437 -0.7087 -0.5913
  178SAPS  H14Y20397   1.000   1.255   4.279 -0.0104 -0.9269  0.9645
  178SAPS  C31520398   0.930   1.101   4.410 -0.7130  0.0042 -0.0871
  178SAPS  H15X20399   1.031   1.100   4.456 -1.1830  0.5327  0.9658
  178SAPS  H15Y20400   0.881   1.001   4.397 -2.7419  0.9913 -0.4305
  178SAPS  C31620401   0.838   1.180   4.504  0.0229  0.4250 -0.7684
  178SAPS  H16X20402   0.736   1.181   4.461 -0.5799  1.5008  0.6403
  178SAPS  H16Y20403   0.875   1.284   4.519  1.0787 -0.1902  1.3443
  178SAPS  C31720404   0.827   1.089   4.632  0.7279 -0.4366 -0.3412
  178SAPS  H17X20405   0.923   1.047   4.669 -0.4149 -0.2369  3.2561
  178SAPS  H17Y20406   0.769   1.001   4.598  1.5703 -1.6260  1.1728
  178SAPS  C31820407   0.745   1.155   4.744 -0.0349  0.5093  0.3399
  178SAPS  H18X20408   0.651   1.202   4.706  0.2082  1.6634  1.1227
  178SAPS  H18Y20409   0.798   1.236   4.798  0.3258  0.8531 -0.5018
  178SAPS  H18Z20410   0.723   1.071   4.813  0.2167 -0.1583 -0.3668
  179SAPS     N20411   0.593   3.931   1.552 -0.2157 -0.1841  0.1160
  179SAPS   HN120412   0.590   4.022   1.502 -1.4293 -0.3610 -0.1847
  179SAPS   HN220413   0.554   3.948   1.647  2.5950  0.8274  1.1889
  179SAPS   HN320414   0.690   3.895   1.559  0.5174  1.0133 -2.4807
  179SAPS   C1220415   0.517   3.838   1.469  0.1676 -0.5745 -0.0378
  179SAPS  H12A20416   0.414   3.871   1.469  0.2778 -0.0621  2.2759
  179SAPS   C1320417   0.577   3.826   1.327  0.1210  0.2970 -0.1834
  179SAPS  O13A20418   0.696   3.853   1.302 -0.5958 -0.3515 -0.2481
  179SAPS  O13B20419   0.513   3.751   1.254  0.1323  0.6712  0.5087
  179SAPS   C1120420   0.537   3.696   1.532 -0.1665 -0.0564 -0.1638
  179SAPS  H11A20421   0.635   3.652   1.507 -0.8364 -2.1302  0.6530
  179SAPS  H11B20422   0.465   3.618   1.498 -1.4061 -0.0123  2.1427
  179SAPS     P20423   0.546   3.580   1.760 -0.2362  0.4417  0.2538
  179SAPS   O1320424   0.669   3.517   1.716  0.2620 -0.0428 -0.4264
  179SAPS   O1420425   0.518   3.608   1.902 -0.4387  0.0886  0.0768
  179SAPS   O1220426   0.520   3.708   1.670 -0.4131  0.1761 -0.4138
  179SAPS   O1120427   0.434   3.486   1.707  0.7117 -0.3876  0.7391
  179SAPS    C120428   0.290   3.533   1.711 -0.0727 -0.1945  0.3694
  179SAPS    HA20429   0.281   3.642   1.731  5.0842  0.5784 -0.2165
  179SAPS    HB20430   0.245   3.507   1.613  0.8663  1.0577 -0.4205
  179SAPS    C220431   0.204   3.451   1.815  0.0373  0.3173  0.0775
  179SAPS    HS20432   0.098   3.478   1.799  0.2416  2.0538  1.3827
  179SAPS   O2120433   0.236   3.471   1.953 -0.0075  0.3411  0.6986
  179SAPS   C2120434   0.208   3.584   2.004 -1.0072 -0.4230 -0.4488
  179SAPS   O2220435   0.140   3.675   1.957 -0.3175  0.3016  0.0603
  179SAPS   C2220436   0.270   3.589   2.145  0.3570  0.0877 -0.1804
  179SAPS   H2R20437   0.229   3.494   2.187  0.9132  0.1017  0.4031
  179SAPS   H2S20438   0.381   3.580   2.149  0.4215 -0.0333 -1.7569
  179SAPS    C320439   0.217   3.300   1.786  0.5514 -0.6515  0.5836
  179SAPS    HX20440   0.310   3.270   1.733  1.1550  0.9852  0.6561
  179SAPS    HY20441   0.135   3.274   1.716  1.7754 -2.2416 -0.3180
  179SAPS   O3120442   0.215   3.227   1.910  0.1973 -0.4799 -0.4197
  179SAPS   C3120443   0.091   3.175   1.939 -0.6006 -0.6317  0.5229
  179SAPS   O3220444  -0.006   3.185   1.870 -0.3350  0.5529 -0.6499
  179SAPS   C3220445   0.100   3.113   2.079  0.5465  0.0938  0.1185
  179SAPS   H2X20446   0.148   3.013   2.081  0.6371  0.1466  2.4779
  179SAPS   H2Y20447  -0.006   3.084   2.091  0.1947  0.7927 -1.1005
  179SAPS   C2320448   0.223   3.699   2.236 -0.0133  0.3759  0.6052
  179SAPS   H3R20449   0.112   3.698   2.242 -0.0430 -3.1327  1.7496
  179SAPS   H3S20450   0.259   3.803   2.220 -1.9635  0.8905 -0.7124
  179SAPS   C2420451   0.260   3.665   2.383  0.2578 -0.0030 -0.3622
  179SAPS   H4R20452   0.216   3.570   2.420 -0.7756  0.1695 -1.1158
  179SAPS   H4S20453   0.228   3.752   2.443 -1.9264 -0.9884 -0.0102
  179SAPS   C2520454   0.409   3.649   2.406  0.5021  0.1515  0.2607
  179SAPS   H5R20455   0.463   3.666   2.312 -0.7909 -1.5641 -0.8614
  179SAPS   C2620456   0.478   3.625   2.518  0.0561 -0.4468  0.6201
  179SAPS   H6R20457   0.585   3.606   2.497 -0.1301 -0.2963 -0.5626
  179SAPS   C2720458   0.430   3.591   2.659 -0.7753 -0.1864  0.7736
  179SAPS   H7R20459   0.326   3.556   2.644 -0.6014 -0.4203  0.0342
  179SAPS   H7S20460   0.413   3.683   2.718  1.9679  0.3348  0.8953
  179SAPS   C2820461   0.519   3.498   2.730 -0.0217 -0.0961  0.0485
  179SAPS   H8R20462   0.524   3.401   2.679 -0.7416  0.1915 -0.6051
  179SAPS   C2920463   0.591   3.509   2.843 -0.0713 -0.1846 -0.1732
  179SAPS   H9R20464   0.633   3.421   2.892  0.9762  0.5588  0.2951
  179SAPS  C21020465   0.595   3.642   2.921  0.5315  0.0538  0.0755
  179SAPS  H10R20466   0.488   3.671   2.931 -0.1209 -0.8890 -2.9570
  179SAPS  H10S20467   0.637   3.725   2.861 -1.3821  0.3444 -0.9702
  179SAPS  C21120468   0.674   3.632   3.050  0.1141  0.0324  0.0347
  179SAPS  H11R20469   0.775   3.671   3.064 -1.0195  3.5102 -0.6380
  179SAPS  C21220470   0.606   3.614   3.166 -0.0878 -0.0332  0.5187
  179SAPS  H12R20471   0.664   3.618   3.259  1.9948  2.1721 -0.7648
  179SAPS  C21320472   0.461   3.572   3.183 -0.4930  0.9629  0.0419
  179SAPS  H13R20473   0.415   3.532   3.090 -0.1558  0.7647 -0.0393
  179SAPS  H13S20474   0.392   3.651   3.220  0.1773  0.2345  3.1529
  179SAPS  C21420475   0.469   3.457   3.283 -0.3297 -0.0768  0.2250
  179SAPS  H14R20476   0.512   3.366   3.240  1.3221  1.7140 -2.1414
  179SAPS  C21520477   0.450   3.470   3.411  0.5692  0.1409 -0.9329
  179SAPS  H15R20478   0.460   3.384   3.479  1.0449 -0.1379 -1.3480
  179SAPS  C21620479   0.407   3.604   3.481 -0.4831 -0.8500 -0.0607
  179SAPS  H16R20480   0.304   3.634   3.452  0.3651  2.7359  0.0775
  179SAPS  H16S20481   0.463   3.693   3.445 -1.2197 -0.3363  0.0415
  179SAPS  C21720482   0.417   3.603   3.637  0.2186  0.3840 -0.0058
  179SAPS  H17R20483   0.513   3.652   3.664  1.5200 -1.8701 -0.1982
  179SAPS  H17S20484   0.425   3.495   3.665 -0.8000  0.0848 -0.7920
  179SAPS  C21820485   0.300   3.664   3.710  0.3802  0.3856 -0.0697
  179SAPS  H18R20486   0.213   3.603   3.676  0.1711 -1.0069  2.6627
  179SAPS  H18S20487   0.279   3.770   3.685 -0.5803  0.8598  2.5522
  179SAPS  C21920488   0.302   3.647   3.861  0.3795  0.6566  0.4690
  179SAPS  H19R20489   0.379   3.718   3.896 -0.9525  2.2897  0.2231
  179SAPS  H19S20490   0.333   3.543   3.888 -0.5111  0.4165  0.6073
  179SAPS  C22020491   0.172   3.686   3.931 -0.1703  0.3958 -0.3996
  179SAPS  H20R20492   0.086   3.618   3.915 -0.7200  0.8497  0.4960
  179SAPS  H20S20493   0.139   3.787   3.898 -0.5998 -0.9980 -4.9001
  179SAPS  H20T20494   0.190   3.674   4.040  2.3501 -1.7326 -0.9498
  179SAPS   C3320495   0.145   3.203   2.198  0.4607 -0.2744  0.4504
  179SAPS   H3X20496   0.114   3.308   2.182  1.7247  0.2245  1.1522
  179SAPS   H3Y20497   0.255   3.218   2.201  0.3340  0.8685 -0.2726
  179SAPS   C3420498   0.094   3.153   2.330  0.2843 -0.3084  0.1919
  179SAPS   H4X20499   0.106   3.043   2.326 -2.6256 -0.6607 -2.0676
  179SAPS   H4Y20500  -0.015   3.173   2.341  0.7367  2.1387  0.8742
  179SAPS   C3520501   0.176   3.218   2.440 -0.0724  0.4455 -0.0332
  179SAPS   H5X20502   0.166   3.329   2.440 -2.5094  0.2699 -0.1105
  179SAPS   H5Y20503   0.280   3.191   2.410 -0.6857 -1.0549 -0.8882
  179SAPS   C3620504   0.146   3.164   2.586 -1.1437  0.0801  0.3388
  179SAPS   H6X20505   0.127   3.055   2.583 -1.5903  0.1745 -0.8795
  179SAPS   H6Y20506   0.056   3.220   2.620 -0.1872  1.3426  0.8721
  179SAPS   C3720507   0.259   3.205   2.687  0.1178  0.1461  0.1046
  179SAPS   H7X20508   0.275   3.315   2.694  1.6961 -0.0768  0.1815
  179SAPS   H7Y20509   0.350   3.145   2.665  0.4828  1.0183 -0.8204
  179SAPS   C3820510   0.216   3.165   2.830  0.0279  0.7194 -0.4119
  179SAPS   H8X20511   0.212   3.057   2.852  1.7146  0.8395  0.6764
  179SAPS   H8Y20512   0.111   3.202   2.834 -0.4431 -0.6517  0.9527
  179SAPS   C3920513   0.300   3.240   2.939  1.0839 -0.6353  0.2210
  179SAPS   H9X20514   0.300   3.348   2.911 -2.4849 -1.4024 -3.8723
  179SAPS   H9Y20515   0.406   3.210   2.951  1.0152 -1.2397 -0.5873
  179SAPS  C31020516   0.240   3.214   3.076 -0.0129 -0.5725 -0.4832
  179SAPS  H10X20517   0.130   3.229   3.070 -0.3038 -1.4855  1.7683
  179SAPS  H10Y20518   0.293   3.291   3.136  0.5601 -1.7935  0.6318
  179SAPS  C31120519   0.270   3.083   3.144 -0.4066 -0.4905  0.1030
  179SAPS  H11X20520   0.379   3.065   3.134 -0.1182  1.1727 -0.0322
  179SAPS  H11Y20521   0.204   3.006   3.100 -1.0341 -0.2123  0.5317
  179SAPS  C31220522   0.236   3.080   3.302 -0.4944  0.2988  0.3804
  179SAPS  H12X20523   0.135   3.126   3.306 -1.5955 -1.5966 -2.4197
  179SAPS  H12Y20524   0.321   3.130   3.353 -0.3485  1.8378 -1.2585
  179SAPS  C31320525   0.233   2.939   3.363 -0.1044  0.7493  0.9702
  179SAPS  H13X20526   0.321   2.885   3.319  2.1523  2.2493  3.3788
  179SAPS  H13Y20527   0.141   2.888   3.326  0.3460 -0.4842  1.4951
  179SAPS  C31420528   0.234   2.935   3.513  0.5892  0.0231  0.3389
  179SAPS  H14X20529   0.219   2.829   3.540  0.6819 -0.1920 -0.4226
  179SAPS  H14Y20530   0.138   2.971   3.556  0.1492 -0.7364  0.0062
  179SAPS  C31520531   0.347   3.011   3.581 -0.4286 -0.5792 -0.3423
  179SAPS  H15X20532   0.314   3.114   3.605  1.0817  0.4241 -2.2974
  179SAPS  H15Y20533   0.432   3.022   3.510 -0.6559  0.2330 -0.4970
  179SAPS  C31620534   0.398   2.946   3.711 -0.2517  0.2933  0.3618
  179SAPS  H16X20535   0.413   2.836   3.705 -0.4044  0.1190  2.4319
  179SAPS  H16Y20536   0.327   2.954   3.796 -1.3641 -1.0375 -0.4030
  179SAPS  C31720537   0.546   2.992   3.752 -0.6619 -0.7032  0.0059
  179SAPS  H17X20538   0.547   3.101   3.733  0.0872 -0.4840  1.2207
  179SAPS  H17Y20539   0.619   2.961   3.674 -0.8452  0.4087 -0.6281
  179SAPS  C31820540   0.591   2.965   3.897  0.5138  0.0989 -0.4555
  179SAPS  H18X20541   0.684   3.016   3.927 -0.5765  1.8867  0.0245
  179SAPS  H18Y20542   0.599   2.855   3.914 -1.1975  0.0486  0.2560
  179SAPS  H18Z20543   0.515   3.002   3.970  2.5448 -2.1987  3.1201
  180SAPS     N20544   3.140   3.900   2.174 -0.3002  0.1798 -0.1042
  180SAPS   HN120545   3.126   3.912   2.276 -1.3742 -2.0862  0.0797
  180SAPS   HN220546   3.044   3.893   2.134 -0.5044  0.0661  0.3944
  180SAPS   HN320547   3.204   3.820   2.154  0.0016  0.5172 -0.4915
  180SAPS   C1220548   3.201   4.028   2.126  0.0849  0.1021  0.6390
  180SAPS  H12A20549   3.304   4.023   2.157  0.0889 -0.6156  0.5200
  180SAPS   C1320550   3.227   4.052   1.971 -0.1960 -0.2522  0.1159
  180SAPS  O13A20551   3.177   3.973   1.885  0.1230 -0.4465  0.4824
  180SAPS  O13B20552   3.294   4.151   1.936  0.0580 -0.6340 -0.4035
  180SAPS   C1120553   3.107   4.141   2.181 -0.0533 -0.2406 -0.2166
  180SAPS  H11A20554   3.007   4.116   2.140  1.2229 -2.1326 -2.3537
  180SAPS  H11B20555   3.147   4.236   2.139 -0.2546  0.1189  0.3899
  180SAPS     P20556   3.186   4.243   2.407 -0.3070 -0.6243  0.6226
  180SAPS   O1320557   3.328   4.198   2.425  0.2040  0.3876  0.2127
  180SAPS   O1420558   3.172   4.377   2.340  0.2788  0.3098 -0.4223
  180SAPS   O1220559   3.091   4.144   2.328 -0.3014 -0.0572 -0.0907
  180SAPS   O1120560   3.117   4.243   2.549  0.4686 -0.3390  0.5760
  180SAPS    C120561   2.975   4.265   2.562 -0.0530 -0.1686 -0.1935
  180SAPS    HA20562   2.937   4.337   2.486 -0.2554 -1.3449 -1.2428
  180SAPS    HB20563   2.917   4.178   2.524 -2.4102  1.1577  0.1172
  180SAPS    C220564   2.930   4.315   2.708  0.4942 -0.4412 -0.2397
  180SAPS    HS20565   2.827   4.356   2.698  1.1145  1.4172  0.6142
  180SAPS   O2120566   3.022   4.405   2.773 -0.0246  0.2705 -0.1821
  180SAPS   C2120567   3.016   4.520   2.717 -0.3313 -0.5585  0.3745
  180SAPS   O2220568   2.938   4.560   2.628  0.0497  0.3806  0.4426
  180SAPS   C2220569   3.109   4.624   2.784  0.4500  1.2029  0.4281
  180SAPS   H2R20570   3.181   4.575   2.852  0.4841  0.6929  0.0255
  180SAPS   H2S20571   3.160   4.660   2.692 -1.0234 -0.0302 -0.9384
  180SAPS    C320572   2.919   4.185   2.794  0.3071 -0.4695 -0.2707
  180SAPS    HX20573   2.994   4.107   2.769  1.1101  0.0750  0.4016
  180SAPS    HY20574   2.821   4.140   2.767  1.0948 -1.8515 -0.9412
  180SAPS   O3120575   2.911   4.217   2.937 -0.0004  0.8916  0.5887
  180SAPS   C3120576   3.024   4.235   3.011  0.4696 -0.8567  0.2995
  180SAPS   O3220577   3.133   4.193   2.980  0.4010  0.1050 -0.1570
  180SAPS   C3220578   2.990   4.316   3.140  0.1716  0.8072  0.3780
  180SAPS   H2X20579   3.043   4.262   3.222  1.8435 -0.3597 -1.3799
  180SAPS   H2Y20580   2.880   4.303   3.146  0.4574 -2.8672  0.3683
  180SAPS   C2320581   3.045   4.750   2.840  0.1187 -0.2545  0.8613
  180SAPS   H3R20582   2.983   4.799   2.762 -0.4753 -0.5078  1.1690
  180SAPS   H3S20583   3.119   4.830   2.863 -3.3564  2.5188  3.5544
  180SAPS   C2420584   2.953   4.725   2.964 -0.4232 -0.1229 -0.9592
  180SAPS   H4R20585   3.024   4.719   3.049 -1.2029  0.3488 -0.2550
  180SAPS   H4S20586   2.892   4.632   2.954 -0.8251  0.1410 -1.0005
  180SAPS   C2520587   2.847   4.835   2.987  0.0780  0.2060  0.4670
  180SAPS   H5R20588   2.825   4.887   2.893 -1.2473 -0.8371  0.1715
  180SAPS   C2620589   2.828   4.899   3.105 -0.6605  0.1487  0.2959
  180SAPS   H6R20590   2.761   4.986   3.113 -1.3928 -0.2430 -1.2191
  180SAPS   C2720591   2.895   4.848   3.234 -0.0479 -0.2540  0.3996
  180SAPS   H7R20592   2.915   4.739   3.236  0.6047 -0.1306  0.9581
  180SAPS   H7S20593   2.828   4.846   3.323 -1.8527 -1.4812 -0.9237
  180SAPS   C2820594   3.030   4.916   3.260  0.3042 -0.5914  0.1503
  180SAPS   H8R20595   3.071   4.981   3.181 -0.6585 -1.1545 -0.8545
  180SAPS   C2920596   3.098   4.898   3.375 -0.4461  0.3085  0.2799
  180SAPS   H9R20597   3.186   4.962   3.389  0.4905  0.0331 -3.3144
  180SAPS  C21020598   3.067   4.813   3.495  0.3514 -0.3458 -0.2544
  180SAPS  H10R20599   3.164   4.786   3.542 -0.1877 -0.2179  0.9501
  180SAPS  H10S20600   3.011   4.723   3.463  0.7887 -0.3425 -1.0610
  180SAPS  C21120601   2.988   4.870   3.612  0.7341  0.0184  0.0381
  180SAPS  H11R20602   2.888   4.827   3.633 -0.0482  2.2364  1.1717
  180SAPS  C21220603   3.038   4.958   3.696 -0.1495 -0.0913 -0.5813
  180SAPS  H12R20604   2.981   4.988   3.786  0.3672 -2.4588  0.6279
  180SAPS  C21320605   3.163   5.033   3.680 -0.8269 -0.7047 -0.5205
  180SAPS  H13R20606   3.201   5.038   3.575  0.1102 -0.0241 -0.1650
  180SAPS  H13S20607   3.240   4.974   3.734 -0.2672 -1.5323 -2.1455
  180SAPS  C21420608   3.143   5.177   3.735  0.0499 -0.3843  0.7061
  180SAPS  H14R20609   3.126   5.181   3.843  1.5478 -2.6392  1.0784
  180SAPS  C21520610   3.129   5.287   3.661 -0.3638 -0.1821 -1.0408
  180SAPS  H15R20611   3.122   5.383   3.715 -1.1879 -0.7661 -0.0927
  180SAPS  C21620612   3.138   5.308   3.514 -0.4568  0.0839 -0.3795
  180SAPS  H16R20613   3.084   5.395   3.471 -1.6607 -1.0160 -1.1730
  180SAPS  H16S20614   3.113   5.213   3.462  0.2883 -0.3976  0.1103
  180SAPS  C21720615   3.292   5.332   3.497 -0.3912 -0.7210 -0.0929
  180SAPS  H17R20616   3.308   5.316   3.388 -0.4833 -0.8293 -0.0903
  180SAPS  H17S20617   3.356   5.269   3.562  2.0650  3.0361  1.4921
  180SAPS  C21820618   3.323   5.483   3.522  0.3518 -0.6647  0.2153
  180SAPS  H18R20619   3.288   5.521   3.621 -0.1843  1.2113 -0.6604
  180SAPS  H18S20620   3.284   5.538   3.435 -0.1966 -0.3613  0.6457
  180SAPS  C21920621   3.476   5.509   3.514 -0.5033 -0.1249 -0.4349
  180SAPS  H19R20622   3.528   5.475   3.423  3.6176  1.4041  1.1259
  180SAPS  H19S20623   3.531   5.464   3.599  0.7825 -1.9435 -2.1532
  180SAPS  C22020624   3.502   5.660   3.510  0.1918  0.3610 -0.6251
  180SAPS  H20R20625   3.605   5.679   3.472 -0.2587  0.6923 -1.6955
  180SAPS  H20S20626   3.423   5.713   3.453  0.4236  2.4737  0.8944
  180SAPS  H20T20627   3.499   5.704   3.612  0.2915 -0.6363 -0.1753
  180SAPS   C3320628   3.046   4.458   3.138 -0.1918 -0.2992  0.2598
  180SAPS   H3X20629   2.995   4.533   3.202 -1.5424 -1.5564  0.7188
  180SAPS   H3Y20630   3.026   4.484   3.032 -0.7208  0.1532  0.4631
  180SAPS   C3420631   3.198   4.478   3.170  0.3318  0.2212 -0.4638
  180SAPS   H4X20632   3.236   4.558   3.101  0.0647  1.2311  0.5322
  180SAPS   H4Y20633   3.252   4.389   3.133  2.2056  0.9072  0.4945
  180SAPS   C3520634   3.235   4.526   3.305  0.6719 -0.4383  0.1648
  180SAPS   H5X20635   3.170   4.614   3.326  1.5097 -0.1047  1.4909
  180SAPS   H5Y20636   3.340   4.562   3.312  0.6258 -0.1900 -0.3848
  180SAPS   C3620637   3.192   4.428   3.413 -0.1844  0.0025  0.4996
  180SAPS   H6X20638   3.232   4.328   3.382  1.4209  0.4565  0.9958
  180SAPS   H6Y20639   3.083   4.410   3.416 -0.2593  0.0641 -0.8456
  180SAPS   C3720640   3.229   4.455   3.558  0.3339  0.3378  0.0943
  180SAPS   H7X20641   3.182   4.552   3.583 -2.4619 -0.7253 -0.6287
  180SAPS   H7Y20642   3.339   4.463   3.568  0.3743  0.5147 -0.4705
  180SAPS   C3820643   3.178   4.347   3.655  0.1525  0.1836 -0.3254
  180SAPS   H8X20644   3.238   4.258   3.625  0.4118  1.0746 -2.6350
  180SAPS   H8Y20645   3.069   4.342   3.634  0.0227 -3.3757  0.4345
  180SAPS   C3920646   3.190   4.404   3.798 -0.0336 -0.6744 -0.4941
  180SAPS   H9X20647   3.139   4.503   3.799  0.8175 -0.2349  1.0579
  180SAPS   H9Y20648   3.298   4.408   3.822  0.0293 -2.2600 -0.3965
  180SAPS  C31020649   3.130   4.307   3.907 -0.2615 -0.0932 -0.3745
  180SAPS  H10X20650   3.154   4.204   3.872 -0.4946 -0.5731  0.8204
  180SAPS  H10Y20651   3.020   4.323   3.898 -0.6445 -0.6338  2.4548
  180SAPS  C31120652   3.171   4.329   4.052  0.2802  0.4075  0.0168
  180SAPS  H11X20653   3.176   4.439   4.064  2.5089  0.7279 -2.8184
  180SAPS  H11Y20654   3.278   4.304   4.067 -0.0908 -0.5123  1.2692
  180SAPS  C31220655   3.087   4.255   4.159  0.0779 -0.5718 -0.4060
  180SAPS  H12X20656   3.112   4.147   4.158 -0.3042 -0.7158  1.2752
  180SAPS  H12Y20657   2.976   4.262   4.155 -0.1149 -2.6733  0.1707
  180SAPS  C31320658   3.119   4.319   4.296 -0.7681 -0.5035 -0.1465
  180SAPS  H13X20659   3.038   4.277   4.359 -1.2025  0.9246  0.2885
  180SAPS  H13Y20660   3.102   4.428   4.279  0.4527 -0.4780 -1.3903
  180SAPS  C31420661   3.263   4.315   4.350 -0.6236  0.0635  0.1317
  180SAPS  H14X20662   3.324   4.383   4.288 -0.2306 -0.7954 -0.4461
  180SAPS  H14Y20663   3.307   4.213   4.354  0.1070  0.3880  0.6188
  180SAPS  C31520664   3.284   4.369   4.501  0.0984  0.1268  0.4343
  180SAPS  H15X20665   3.395   4.377   4.508  0.4095 -1.4956 -1.5260
  180SAPS  H15Y20666   3.233   4.297   4.569 -2.0819  0.8500 -0.3579
  180SAPS  C31620667   3.217   4.510   4.521 -1.4322  0.1433  0.3531
  180SAPS  H16X20668   3.233   4.533   4.628 -0.8616 -1.7700  0.7316
  180SAPS  H16Y20669   3.111   4.490   4.498 -1.0957 -0.4699 -0.7474
  180SAPS  C31720670   3.269   4.620   4.425  0.0848  0.5144  0.3031
  180SAPS  H17X20671   3.226   4.602   4.324  0.7168 -2.4153  0.4733
  180SAPS  H17Y20672   3.377   4.598   4.410 -0.4965 -1.1229 -2.0060
  180SAPS  C31820673   3.233   4.758   4.470  0.9658  0.2847 -0.3606
  180SAPS  H18X20674   3.196   4.815   4.382 -1.4220  1.3447  1.2001
  180SAPS  H18Y20675   3.317   4.811   4.520  0.6563  1.7411 -1.3272
  180SAPS  H18Z20676   3.140   4.754   4.532  0.8289 -3.2380 -0.5889
  181POPC     N20677   6.909   4.631   6.266 -0.5156 -0.6220 -0.0175
  181POPC   C1220678   6.878   4.596   6.118 -0.2456  0.0497 -0.0106
  181POPC  H12A20679   6.891   4.687   6.063  0.0375 -0.2007 -0.3612
  181POPC  H12B20680   6.774   4.565   6.114  0.0714 -0.9393 -2.3223
  181POPC   C1320681   7.057   4.659   6.279 -0.3089 -0.5502  0.2412
  181POPC  H13A20682   7.074   4.739   6.209  0.8683 -0.9245  0.0802
  181POPC  H13B20683   7.091   4.697   6.374  1.2372  0.8109 -0.8117
  181POPC  H13C20684   7.103   4.566   6.247 -0.2556 -0.3966 -0.1230
  181POPC   C1420685   6.835   4.763   6.291 -0.3848 -0.7103  0.3515
  181POPC  H14A20686   6.866   4.804   6.386  1.1125  1.6669 -1.0650
  181POPC  H14B20687   6.855   4.831   6.209  1.5447 -1.3480  0.2525
  181POPC  H14C20688   6.729   4.744   6.289 -0.4418 -0.3558 -1.2928
  181POPC   C1520689   6.860   4.519   6.353  0.3314 -0.9061  0.8603
  181POPC  H15A20690   6.761   4.499   6.315  0.4008  0.9362 -0.4729
  181POPC  H15B20691   6.832   4.547   6.453 -0.1774  0.6275  0.3187
  181POPC  H15C20692   6.916   4.428   6.343 -1.1933 -1.9024  1.1105
  181POPC   C1120693   6.959   4.483   6.042 -0.9563  0.1807  0.6433
  181POPC  H11A20694   7.067   4.507   6.053 -0.4865 -0.8595 -1.1874
  181POPC  H11B20695   6.931   4.495   5.935  2.7510  1.0072 -0.4136
  181POPC     P20696   7.051   4.241   6.084  0.4607 -0.0972  0.6358
  181POPC   O1320697   7.018   4.126   6.166  0.4910  0.3438 -0.2375
  181POPC   O1420698   7.192   4.291   6.101  0.2134 -0.1755  0.6250
  181POPC   O1220699   6.938   4.353   6.100  0.0336 -0.1155 -0.5911
  181POPC   O1120700   7.031   4.193   5.937  0.1432 -0.6366  0.6212
  181POPC    C120701   6.909   4.178   5.876 -0.1779  0.3726  0.1369
  181POPC    HA20702   6.829   4.252   5.899 -0.0711  0.7128 -0.5391
  181POPC    HB20703   6.867   4.078   5.898 -0.9774 -0.1085 -3.0487
  181POPC    C220704   6.924   4.184   5.724  0.8328 -0.3128 -0.2257
  181POPC    HS20705   6.828   4.168   5.670  0.3621 -0.5109  0.6645
  181POPC   O2120706   7.020   4.085   5.689 -0.1239  0.8658  0.3862
  181POPC   C2120707   6.996   3.997   5.599  0.3692  0.7876  0.1798
  181POPC   O2220708   6.894   3.991   5.533 -0.2318 -0.2532  0.1631
  181POPC   C2220709   7.106   3.887   5.595  0.2820 -0.0803  0.2643
  181POPC   H2R20710   7.073   3.802   5.658  2.2181  0.2628  1.8309
  181POPC   H2S20711   7.205   3.926   5.625  0.3675 -0.1891  0.1235
  181POPC    C320712   6.982   4.323   5.674 -0.7263 -0.3841  0.3006
  181POPC    HX20713   7.085   4.324   5.714 -0.3420 -1.5965 -0.6074
  181POPC    HY20714   6.921   4.403   5.722 -0.0213  0.2987  0.0752
  181POPC   O3120715   6.975   4.334   5.531 -0.0092 -0.7485 -0.5033
  181POPC   C3120716   7.088   4.306   5.466  0.5322 -0.5246 -0.3795
  181POPC   O3220717   7.197   4.291   5.516 -0.0560  0.9703  0.1378
  181POPC   C3220718   7.057   4.327   5.321 -0.1392  0.5006  0.1385
  181POPC   H2X20719   7.155   4.345   5.273 -0.1349  1.2556  0.4066
  181POPC   H2Y20720   6.980   4.407   5.311 -0.8075  0.2138  2.4183
  181POPC   C2320721   7.113   3.836   5.447  0.6551 -0.7273  0.0432
  181POPC   H3R20722   7.122   3.920   5.375  3.8363 -0.3081  0.7726
  181POPC   H3S20723   7.023   3.785   5.407  0.6998 -0.3364 -0.5716
  181POPC   C2420724   7.225   3.731   5.436  0.6015  0.0260  0.6270
  181POPC   H4R20725   7.205   3.654   5.514  2.0283 -2.0463 -0.9395
  181POPC   H4S20726   7.324   3.780   5.450  0.9007  0.5972 -2.6342
  181POPC   C2520727   7.241   3.651   5.301  0.0445 -0.4289  0.4593
  181POPC   H5R20728   7.165   3.569   5.307  0.4948 -0.7952  1.3734
  181POPC   H5S20729   7.337   3.597   5.291  0.4246  0.2246  0.5682
  181POPC   C2620730   7.233   3.748   5.184 -0.2707 -0.0102 -0.0568
  181POPC   H6R20731   7.286   3.842   5.209 -1.3623  1.1971 -2.0153
  181POPC   H6S20732   7.128   3.779   5.162  0.1300  1.9456  0.5630
  181POPC   C2720733   7.296   3.697   5.052  0.2710  0.3008 -0.1435
  181POPC   H7R20734   7.222   3.633   4.999 -0.7154  0.3893  1.0679
  181POPC   H7S20735   7.393   3.648   5.074 -0.8981 -1.1912  2.2013
  181POPC   C2820736   7.326   3.805   4.955  0.6475  0.0095 -0.4565
  181POPC   H8R20737   7.404   3.874   4.992  0.5669  0.0991 -0.4532
  181POPC   H8S20738   7.235   3.865   4.936 -0.1776 -1.1206 -0.1520
  181POPC   C2920739   7.401   3.760   4.828 -0.3125  0.0833  0.3304
  181POPC   H9120740   7.483   3.688   4.840  0.3612  0.4134 -1.9320
  181POPC  C21020741   7.363   3.801   4.704  0.0218  0.7001  0.0043
  181POPC  H10120742   7.421   3.756   4.622 -1.5837  0.3391 -0.9688
  181POPC  C21120743   7.250   3.885   4.661 -0.5181  0.2139  0.4539
  181POPC  H11R20744   7.290   3.954   4.584 -0.8390 -0.3174 -0.2009
  181POPC  H11S20745   7.195   3.945   4.736 -0.8774 -1.3540  1.4991
  181POPC  C21220746   7.147   3.792   4.600  0.3425 -0.6410  0.5780
  181POPC  H12R20747   7.063   3.857   4.571  0.6238 -0.0162  1.1264
  181POPC  H12S20748   7.104   3.718   4.672 -2.3551  0.5914  0.3526
  181POPC  C21320749   7.182   3.710   4.467 -0.3315 -0.2140  0.2070
  181POPC  H13R20750   7.258   3.631   4.486  1.3567  1.2917 -0.0006
  181POPC  H13S20751   7.231   3.775   4.391  1.4000 -0.6906  0.8548
  181POPC  C21420752   7.057   3.642   4.414  0.5175  0.2695 -0.1545
  181POPC  H14R20753   6.996   3.603   4.498 -0.8103  0.6191 -0.9234
  181POPC  H14S20754   7.081   3.545   4.365 -1.7995  0.4343 -1.7974
  181POPC  C21520755   6.968   3.738   4.328 -0.0767 -0.2399 -0.1484
  181POPC  H15R20756   7.032   3.793   4.256  0.8125 -0.1820  0.6741
  181POPC  H15S20757   6.932   3.812   4.402  2.0833 -0.5285  1.2635
  181POPC  C21620758   6.853   3.662   4.253  0.6229 -0.3418  0.4680
  181POPC  H16R20759   6.779   3.642   4.333 -1.6105 -0.4910 -1.5198
  181POPC  H16S20760   6.900   3.576   4.201 -0.2035  0.2113 -1.2649
  181POPC  C21720761   6.786   3.751   4.149  0.2955 -0.1076 -0.4531
  181POPC  H17R20762   6.847   3.760   4.056 -0.8950 -0.3055 -1.2756
  181POPC  H17S20763   6.779   3.856   4.186 -0.2516 -0.5381  0.7082
  181POPC  C21820764   6.643   3.697   4.129  0.2322  0.8838 -0.4458
  181POPC  H18R20765   6.587   3.761   4.058 -0.4643  2.5902  1.5397
  181POPC  H18S20766   6.588   3.698   4.226 -1.8372  1.2398 -1.5684
  181POPC  H18T20767   6.641   3.589   4.102  2.7192  0.0409  2.2202
  181POPC   C3320768   6.990   4.191   5.258  1.1428 -0.8023 -0.5395
  181POPC   H3X20769   6.886   4.202   5.298  1.9813  1.6972  1.1568
  181POPC   H3Y20770   7.041   4.109   5.313  1.2564 -0.0040  0.5687
  181POPC   C3420771   6.999   4.171   5.108  0.8709  0.0408  0.1795
  181POPC   H4X20772   6.924   4.092   5.083  2.1551 -1.7781  1.7325
  181POPC   H4Y20773   7.098   4.129   5.081  0.7093  1.2098 -2.4689
  181POPC   C3520774   6.975   4.293   5.022 -0.2485  0.4073  0.1029
  181POPC   H5X20775   7.045   4.376   5.046 -0.1448  0.2512  0.3429
  181POPC   H5Y20776   6.875   4.331   5.052 -2.0564 -5.3717  2.7874
  181POPC   C3620777   6.965   4.254   4.875 -0.4365 -0.0263 -0.1765
  181POPC   H6X20778   6.886   4.177   4.865  0.0860 -0.4336 -1.4226
  181POPC   H6Y20779   7.068   4.227   4.843  0.0575  0.5895  0.8397
  181POPC   C3720780   6.922   4.380   4.790  0.0986  0.8889 -0.3254
  181POPC   H7X20781   7.003   4.454   4.803  0.5332  0.1737  1.3638
  181POPC   H7Y20782   6.826   4.418   4.832 -1.1804 -0.2874 -2.0174
  181POPC   C3820783   6.891   4.344   4.642  0.5198  0.4674 -0.2089
  181POPC   H8X20784   6.885   4.451   4.612  0.5131  1.0580  1.8099
  181POPC   H8Y20785   6.787   4.306   4.626  0.1864  1.0566  0.5018
  181POPC   C3920786   7.004   4.261   4.582 -0.4413 -0.2051  0.4672
  181POPC   H9X20787   7.004   4.161   4.630 -0.1488 -0.3227  0.2209
  181POPC   H9Y20788   7.086   4.335   4.595 -0.5114  0.6383 -2.8913
  181POPC  C31020789   6.982   4.249   4.429 -0.2397  0.3452 -0.5054
  181POPC  H10X20790   6.982   4.352   4.389 -2.1277  0.6990  0.3323
  181POPC  H10Y20791   6.885   4.198   4.415 -0.0067 -0.5093  0.8288
  181POPC  C31120792   7.087   4.158   4.361 -0.3308 -0.6097  0.0817
  181POPC  H11X20793   7.068   4.168   4.252 -2.2537 -0.8752  0.3631
  181POPC  H11Y20794   7.061   4.055   4.394  0.4842 -0.8708 -0.0482
  181POPC  C31220795   7.238   4.197   4.381 -0.4793  0.0700  0.0874
  181POPC  H12X20796   7.307   4.122   4.338 -0.7459 -0.4252  0.5207
  181POPC  H12Y20797   7.254   4.202   4.490 -1.2097 -1.3284  0.2809
  181POPC  C31320798   7.270   4.342   4.329  0.5062 -0.0275  0.6339
  181POPC  H13X20799   7.189   4.405   4.372  2.1789  0.2779  3.6488
  181POPC  H13Y20800   7.266   4.340   4.218 -1.1180 -2.0370  0.6450
  181POPC  C31420801   7.399   4.402   4.389 -0.8697  0.3712 -0.4145
  181POPC  H14X20802   7.484   4.335   4.361 -1.4141 -0.2742 -0.5461
  181POPC  H14Y20803   7.398   4.378   4.497  5.9197  3.7671  1.0151
  181POPC  C31520804   7.414   4.549   4.371 -0.6638  0.2185 -0.4294
  181POPC  H15X20805   7.514   4.559   4.418  0.1647 -1.5829 -1.6707
  181POPC  H15Y20806   7.335   4.604   4.426 -2.0313 -0.8628 -1.2325
  181POPC  C31620807   7.410   4.595   4.225 -0.5019 -0.2562 -0.1440
  181POPC  H16X20808   7.311   4.576   4.179 -1.3657  0.2541  1.4504
  181POPC  H16Y20809   7.488   4.539   4.168 -1.0879 -0.0973 -1.1215
  181POPC  H16Z20810   7.432   4.703   4.218 -2.0612  0.4061  3.1714
  182POPC     N20811   3.651   5.973   7.109  0.2908  0.0439  0.3557
  182POPC   C1220812   3.717   5.834   7.086  0.6987 -0.1846  0.0082
  182POPC  H12A20813   3.649   5.754   7.112  0.6072 -0.0944  0.0489
  182POPC  H12B20814   3.800   5.823   7.153 -0.4721 -1.4833  1.3194
  182POPC   C1320815   3.527   5.984   7.019  0.0794  0.4139 -0.0631
  182POPC  H13A20816   3.478   6.074   7.050  2.0415  1.9648 -1.2045
  182POPC  H13B20817   3.563   5.992   6.917 -3.0329  0.8049 -1.2505
  182POPC  H13C20818   3.466   5.895   7.026  0.9025 -0.1275  0.3872
  182POPC   C1420819   3.606   5.993   7.251 -0.0126 -0.8644  0.2759
  182POPC  H14A20820   3.507   5.952   7.262 -0.0355 -1.2979 -1.3423
  182POPC  H14B20821   3.678   5.960   7.325 -0.1365 -0.9302  0.3663
  182POPC  H14C20822   3.594   6.100   7.264 -0.8366 -1.0571  1.1842
  182POPC   C1520823   3.739   6.083   7.082  0.0830 -0.3108  0.3415
  182POPC  H15A20824   3.685   6.172   7.051 -0.8951 -1.2887 -0.8890
  182POPC  H15B20825   3.816   6.058   7.010  0.6886  0.7846  0.5850
  182POPC  H15C20826   3.788   6.103   7.176 -0.0384 -0.5626  0.4596
  182POPC   C1120827   3.759   5.802   6.945  0.8027  0.2640  0.9384
  182POPC  H11A20828   3.838   5.723   6.950  1.2478  0.4016 -1.9070
  182POPC  H11B20829   3.808   5.891   6.900 -0.7502 -0.2327 -1.9844
  182POPC     P20830   3.625   5.604   6.814  0.2330 -0.6196  0.0102
  182POPC   O1320831   3.480   5.589   6.776  0.0108 -0.3263 -0.7772
  182POPC   O1420832   3.678   5.506   6.916  0.1633  0.1631  0.0053
  182POPC   O1220833   3.644   5.753   6.868 -0.0691  0.1292  0.0372
  182POPC   O1120834   3.718   5.596   6.689  0.1609  0.2651  0.8431
  182POPC    C120835   3.711   5.710   6.600 -0.2550  0.1994 -0.9597
  182POPC    HA20836   3.752   5.797   6.656 -1.2628 -0.6130  1.1422
  182POPC    HB20837   3.604   5.731   6.578 -0.6919  0.4875  1.1643
  182POPC    C220838   3.801   5.689   6.472  0.8385 -0.2158 -0.0465
  182POPC    HS20839   3.855   5.780   6.438 -0.3100  0.8492  0.8678
  182POPC   O2120840   3.720   5.637   6.364  0.2805  0.0649  0.7473
  182POPC   C2120841   3.638   5.727   6.307 -0.1288  0.2883  1.1577
  182POPC   O2220842   3.643   5.848   6.331  0.3266 -0.2129 -0.0582
  182POPC   C2220843   3.571   5.651   6.197  0.6115  0.3282  0.6613
  182POPC   H2R20844   3.517   5.565   6.242 -2.8911  0.4137 -2.8541
  182POPC   H2S20845   3.648   5.618   6.124 -1.2569 -0.4624 -1.0392
  182POPC    C320846   3.926   5.592   6.504  0.7126  0.1306  0.5804
  182POPC    HX20847   3.885   5.492   6.533 -1.3244  0.5657 -0.6141
  182POPC    HY20848   3.987   5.637   6.584  0.5482 -0.0968  0.8381
  182POPC   O3120849   4.020   5.590   6.390  0.8327 -0.5472  0.4045
  182POPC   C3120850   3.996   5.510   6.286 -0.4808 -0.6810 -0.1797
  182POPC   O3220851   3.905   5.429   6.288  0.4091  0.9382  0.3048
  182POPC   C3220852   4.099   5.526   6.169  0.6811 -0.0537  0.4287
  182POPC   H2X20853   4.184   5.460   6.197  1.8644  1.6472  0.9856
  182POPC   H2Y20854   4.131   5.632   6.161  0.1482 -0.0027 -1.7057
  182POPC   C2320855   3.484   5.745   6.108  0.6317  0.3120  0.7279
  182POPC   H3R20856   3.415   5.803   6.173 -1.0621 -2.0145  1.1478
  182POPC   H3S20857   3.416   5.681   6.048 -2.6126  1.9930  2.3488
  182POPC   C2420858   3.568   5.827   6.016 -0.1155  0.1819 -0.0961
  182POPC   H4R20859   3.657   5.867   6.069  0.1325 -2.2224  1.4407
  182POPC   H4S20860   3.514   5.915   5.978 -0.6880 -0.8180 -1.6956
  182POPC   C2520861   3.622   5.761   5.887 -0.0235 -0.8972  0.0122
  182POPC   H5R20862   3.644   5.652   5.897  0.8649 -0.7898 -0.6209
  182POPC   H5S20863   3.723   5.798   5.858  0.4352 -1.5030  0.7768
  182POPC   C2620864   3.537   5.779   5.764  0.1123 -0.0299 -0.0237
  182POPC   H6R20865   3.524   5.888   5.743  0.4029 -0.1380 -0.8098
  182POPC   H6S20866   3.435   5.745   5.792 -1.1873  2.4225 -1.3440
  182POPC   C2720867   3.582   5.707   5.638 -0.6180 -0.6237 -0.7870
  182POPC   H7R20868   3.534   5.610   5.613 -0.1768 -1.1533  0.3362
  182POPC   H7S20869   3.689   5.678   5.652 -0.8360 -1.8705 -1.5199
  182POPC   C2820870   3.584   5.806   5.517 -0.1026 -0.8389 -0.9348
  182POPC   H8R20871   3.660   5.774   5.443  0.5009 -0.8096 -0.3305
  182POPC   H8S20872   3.612   5.904   5.561 -1.3911 -0.7964 -0.1634
  182POPC   C2920873   3.449   5.830   5.456 -0.2846  0.3577 -0.1590
  182POPC   H9120874   3.371   5.756   5.480 -1.3266  1.1797 -0.9339
  182POPC  C21020875   3.416   5.932   5.378  0.1940 -0.1403  0.4767
  182POPC  H10120876   3.314   5.938   5.339 -0.7873  1.3252  3.0815
  182POPC  C21120877   3.520   6.034   5.332  0.6668 -0.8880 -0.6639
  182POPC  H11R20878   3.624   6.003   5.358  1.9683  2.1460 -1.7856
  182POPC  H11S20879   3.507   6.133   5.381 -1.8127 -1.2634 -0.4212
  182POPC  C21220880   3.500   6.050   5.183  0.4156  0.5115  0.7288
  182POPC  H12R20881   3.554   6.139   5.147  0.8080  1.1226  2.6916
  182POPC  H12S20882   3.392   6.057   5.156  0.4265  1.8329  0.9787
  182POPC  C21320883   3.556   5.917   5.114 -0.7619 -0.7193 -0.5014
  182POPC  H13R20884   3.543   5.831   5.183  1.1933 -0.6514 -0.0098
  182POPC  H13S20885   3.665   5.937   5.109 -0.8240  0.7581  1.9510
  182POPC  C21420886   3.501   5.895   4.973 -0.4269 -0.5457 -0.1819
  182POPC  H14R20887   3.537   5.979   4.910  1.4049 -0.3395  1.0591
  182POPC  H14S20888   3.390   5.900   4.968 -0.4162 -0.0808  0.0129
  182POPC  C21520889   3.547   5.762   4.916 -0.2324 -0.2812  0.4203
  182POPC  H15R20890   3.476   5.679   4.939 -0.5416 -0.8082 -2.1788
  182POPC  H15S20891   3.637   5.732   4.974 -0.0822 -0.8819 -0.1125
  182POPC  C21620892   3.577   5.775   4.762  0.5072  0.1300  0.1076
  182POPC  H16R20893   3.675   5.825   4.744  1.1124 -1.0653 -0.0500
  182POPC  H16S20894   3.495   5.825   4.707  0.6097  1.7535  1.3577
  182POPC  C21720895   3.590   5.636   4.704 -0.3386 -0.7447 -0.3106
  182POPC  H17R20896   3.503   5.574   4.733 -0.4690 -0.8658 -0.9392
  182POPC  H17S20897   3.682   5.585   4.741  0.8726  0.7055 -1.2482
  182POPC  C21820898   3.607   5.644   4.556  0.2241  0.0045 -0.4677
  182POPC  H18R20899   3.702   5.697   4.537  0.3013  0.1871  0.3719
  182POPC  H18S20900   3.522   5.703   4.514 -0.5395 -0.2625  0.6551
  182POPC  H18T20901   3.623   5.542   4.516  1.5001  0.1246 -0.2937
  182POPC   C3320902   4.038   5.490   6.035  0.1921 -0.2384  0.6068
  182POPC   H3X20903   3.946   5.544   6.007  1.5223  1.9623  0.2112
  182POPC   H3Y20904   4.003   5.385   6.028  1.8354 -0.9293  1.9322
  182POPC   C3420905   4.154   5.509   5.938 -0.1704 -0.2515  0.3876
  182POPC   H4X20906   4.238   5.443   5.969  0.2973  0.1449 -0.0341
  182POPC   H4Y20907   4.206   5.607   5.946  0.3198 -0.3920 -0.9384
  182POPC   C3520908   4.133   5.457   5.791  0.2717  0.7266  0.0702
  182POPC   H5X20909   4.086   5.357   5.789  2.1255 -0.1973 -1.1553
  182POPC   H5Y20910   4.236   5.450   5.750 -0.0727  0.0515 -0.7122
  182POPC   C3620911   4.058   5.564   5.704 -0.0730 -0.2625 -0.1352
  182POPC   H6X20912   4.079   5.670   5.731  0.9411 -0.3386 -0.5658
  182POPC   H6Y20913   3.949   5.552   5.715 -0.1965  0.1380 -0.8339
  182POPC   C3720914   4.084   5.555   5.553  0.1744  0.2768  0.2901
  182POPC   H7X20915   4.033   5.463   5.515 -0.5522  0.3832  0.9924
  182POPC   H7Y20916   4.194   5.548   5.538  0.3788 -0.3440  1.8844
  182POPC   C3820917   4.018   5.676   5.479 -0.0523 -0.6073  0.3864
  182POPC   H8X20918   4.088   5.760   5.503  0.2239 -1.0640  1.2390
  182POPC   H8Y20919   3.918   5.692   5.524 -0.8073 -0.3609 -1.3238
  182POPC   C3920920   4.004   5.670   5.328 -0.3207 -0.3652 -0.7956
  182POPC   H9X20921   3.917   5.603   5.310  1.5212 -2.0816 -4.5650
  182POPC   H9Y20922   4.092   5.623   5.277  0.0704 -0.1080 -0.3595
  182POPC  C31020923   3.985   5.816   5.281  0.0259  0.4345 -0.3769
  182POPC  H10X20924   4.080   5.866   5.310 -0.5218  0.2018  2.0658
  182POPC  H10Y20925   3.901   5.868   5.332 -0.6662  1.0382 -2.0567
  182POPC  C31120926   3.950   5.813   5.133  0.9711  0.9154  0.2745
  182POPC  H11X20927   3.849   5.770   5.115  0.3655  1.2442  2.5720
  182POPC  H11Y20928   4.024   5.755   5.072 -0.1124  2.1406 -2.3813
  182POPC  C31220929   3.968   5.955   5.079  0.0164 -0.1641  0.4066
  182POPC  H12X20930   4.071   5.988   5.105 -0.3758 -0.2892  2.2576
  182POPC  H12Y20931   3.907   6.032   5.130  0.7901  1.3190 -0.8197
  182POPC  C31320932   3.947   5.965   4.925 -1.0757  0.4898  0.1417
  182POPC  H13X20933   3.850   5.916   4.904 -0.3836 -0.5463 -0.7955
  182POPC  H13Y20934   4.034   5.921   4.871  2.8500  3.9603  2.9070
  182POPC  C31420935   3.940   6.110   4.876 -0.6723  0.1174  0.6988
  182POPC  H14X20936   4.039   6.158   4.888 -0.4923  0.4199 -1.5377
  182POPC  H14Y20937   3.870   6.177   4.932 -0.0133 -0.4926  2.3246
  182POPC  C31520938   3.900   6.106   4.722  0.2558 -0.2450 -0.0076
  182POPC  H15X20939   3.822   6.027   4.711 -0.1556  0.0568  0.6519
  182POPC  H15Y20940   3.987   6.085   4.657 -1.0437  0.9022 -2.2274
  182POPC  C31620941   3.852   6.240   4.664 -0.3000 -0.4705 -0.1631
  182POPC  H16X20942   3.932   6.317   4.658 -0.9668  0.1926 -0.7357
  182POPC  H16Y20943   3.774   6.275   4.735 -1.4291 -2.1583 -0.5089
  182POPC  H16Z20944   3.805   6.230   4.564 -1.1602 -1.2087  0.2992
  183POPC     N20945   5.818   2.617   6.463  0.1725 -0.1558  0.4609
  183POPC   C1220946   5.821   2.497   6.374 -0.0019  0.6763 -0.5314
  183POPC  H12A20947   5.920   2.484   6.333  0.7806  1.5334  0.9934
  183POPC  H12B20948   5.750   2.512   6.294  0.9323 -0.6491 -1.6652
  183POPC   C1320949   5.686   2.626   6.536 -0.2029  0.5921  0.0441
  183POPC  H13A20950   5.608   2.609   6.463  1.2534 -1.6938 -1.0983
  183POPC  H13B20951   5.673   2.551   6.612  1.4374  0.4105  0.1659
  183POPC  H13C20952   5.663   2.721   6.581 -1.4842  0.2399  0.1832
  183POPC   C1420953   5.928   2.612   6.565 -0.5582 -0.7147  0.7659
  183POPC  H14A20954   6.021   2.599   6.512 -0.7920 -2.5011  0.7413
  183POPC  H14B20955   5.934   2.699   6.629 -1.6383  0.5445 -0.7580
  183POPC  H14C20956   5.921   2.530   6.634  1.2372 -0.9531  0.7099
  183POPC   C1520957   5.835   2.746   6.394  0.1627 -0.8812 -0.0700
  183POPC  H15A20958   5.880   2.826   6.452 -0.3134 -0.3572 -0.4128
  183POPC  H15B20959   5.745   2.783   6.346  0.3905 -0.9433 -0.5464
  183POPC  H15C20960   5.914   2.733   6.322 -0.9759  0.1862 -1.5796
  183POPC   C1120961   5.782   2.361   6.447  0.3872  0.5198  0.0249
  183POPC  H11A20962   5.775   2.289   6.363 -1.2301  1.6482 -0.8526
  183POPC  H11B20963   5.683   2.372   6.497  0.9408 -0.4424  1.4108
  183POPC     P20964   6.007   2.256   6.525  0.1736 -0.1146 -0.1280
  183POPC   O1320965   5.997   2.107   6.499 -0.1167  0.3506 -0.6383
  183POPC   O1420966   6.091   2.293   6.640  0.0395  0.1070  0.3235
  183POPC   O1220967   5.870   2.318   6.551 -0.1182 -0.5460 -0.0354
  183POPC   O1120968   6.056   2.318   6.387 -0.4618 -0.0138  0.4949
  183POPC    C120969   6.070   2.244   6.265 -0.0318  0.2291  0.3265
  183POPC    HA20970   6.057   2.312   6.178  1.0631 -1.5974 -1.3425
  183POPC    HB20971   5.992   2.165   6.254 -0.5108  0.8297 -0.6749
  183POPC    C220972   6.213   2.180   6.233  0.3006 -0.1587 -0.1215
  183POPC    HS20973   6.228   2.094   6.301  0.9041 -1.4295 -1.7861
  183POPC   O2120974   6.314   2.281   6.248  0.5188  0.3548  0.3360
  183POPC   C2120975   6.437   2.244   6.273 -0.4830  0.2644 -0.1591
  183POPC   O2220976   6.464   2.131   6.316  0.3445 -0.8132  0.4560
  183POPC   C2220977   6.533   2.362   6.269  0.1006 -0.3756  0.6349
  183POPC   H2R20978   6.596   2.363   6.360  0.5757  1.2742  0.3232
  183POPC   H2S20979   6.477   2.457   6.278  1.7808  0.6674  0.4359
  183POPC    C320980   6.227   2.116   6.092  0.4064  1.0843 -0.1852
  183POPC    HX20981   6.142   2.044   6.087  1.0097  0.3117  0.4238
  183POPC    HY20982   6.315   2.049   6.098 -0.4212 -0.1950 -1.4348
  183POPC   O3120983   6.215   2.216   5.988 -0.2411  0.1428 -0.0401
  183POPC   C3120984   6.195   2.157   5.871  0.3845 -0.1500 -0.7721
  183POPC   O3220985   6.227   2.045   5.846 -0.0538  0.3205 -0.1839
  183POPC   C3220986   6.142   2.251   5.766  0.0203  0.4675  0.0370
  183POPC   H2X20987   6.218   2.332   5.765 -0.9618  1.4565  1.4853
  183POPC   H2Y20988   6.045   2.293   5.800  0.3864  1.8498 -0.5106
  183POPC   C2320989   6.630   2.338   6.146  0.2824 -0.0320 -0.1991
  183POPC   H3R20990   6.696   2.249   6.148 -0.4994 -0.6507  2.7228
  183POPC   H3S20991   6.713   2.412   6.154 -0.4896  0.7135  1.5417
  183POPC   C2420992   6.557   2.346   6.012 -0.4404  0.1913 -0.4876
  183POPC   H4R20993   6.520   2.451   6.018  1.6365  0.9346  0.3028
  183POPC   H4S20994   6.475   2.271   6.006  0.2405 -0.5732 -0.3714
  183POPC   C2520995   6.648   2.319   5.894 -0.6083  0.1434 -0.0895
  183POPC   H5R20996   6.657   2.208   5.890  1.4044  0.2170  1.0980
  183POPC   H5S20997   6.754   2.353   5.898 -1.0245  1.4451  0.0912
  183POPC   C2620998   6.582   2.374   5.763  0.1664  0.4030  0.3087
  183POPC   H6R20999   6.589   2.485   5.765 -0.7810  0.5007 -0.8035
  183POPC   H6S21000   6.471   2.375   5.770  0.0018  1.0733 -1.7853
  183POPC   C2721001   6.648   2.307   5.646 -0.3877  0.2984  0.8224
  183POPC   H7R21002   6.672   2.202   5.674  0.6208  0.6533  1.3430
  183POPC   H7S21003   6.741   2.364   5.625 -1.5668  2.2771  0.7047
  183POPC   C2821004   6.569   2.309   5.511  0.0350  0.6075  0.1161
  183POPC   H8R21005   6.527   2.410   5.494 -0.1978  0.1643 -2.4779
  183POPC   H8S21006   6.484   2.238   5.518  1.1954 -0.6944  1.8636
  183POPC   C2921007   6.664   2.272   5.404  0.0348  0.0357  0.2531
  183POPC   H9121008   6.708   2.171   5.409 -0.5346 -0.3246 -1.2681
  183POPC  C21021009   6.664   2.316   5.278 -0.0114  0.1464  0.0564
  183POPC  H10121010   6.740   2.284   5.205  1.3308  1.6512  0.7240
  183POPC  C21121011   6.574   2.435   5.226 -0.6238  1.2131  0.1801
  183POPC  H11R21012   6.632   2.528   5.206 -0.0725  0.4844 -1.9647
  183POPC  H11S21013   6.494   2.459   5.299 -0.6587  1.4260  0.0737
  183POPC  C21221014   6.501   2.400   5.089 -0.5916  0.8357 -0.0899
  183POPC  H12R21015   6.404   2.356   5.120  0.0844 -0.8907 -0.2933
  183POPC  H12S21016   6.548   2.320   5.029  0.2302 -0.1024  1.7140
  183POPC  C21321017   6.462   2.532   5.020 -0.3421 -0.0328 -0.0026
  183POPC  H13R21018   6.554   2.590   4.998 -0.3457 -0.0713 -0.1234
  183POPC  H13S21019   6.411   2.599   5.091  0.5979 -1.8254  2.5038
  183POPC  C21421020   6.366   2.519   4.900  0.1240 -0.4712  0.3700
  183POPC  H14R21021   6.365   2.621   4.856 -0.0771 -0.1409  1.1171
  183POPC  H14S21022   6.268   2.490   4.943 -0.2209  0.1366  0.0091
  183POPC  C21521023   6.424   2.416   4.802  0.4676 -0.7206  0.9212
  183POPC  H15R21024   6.406   2.310   4.829 -1.4434 -0.5046  0.6395
  183POPC  H15S21025   6.531   2.430   4.776 -0.5204  0.8700 -3.0510
  183POPC  C21621026   6.368   2.449   4.669 -0.4125 -0.1703  0.6528
  183POPC  H16R21027   6.382   2.557   4.643  2.3423 -0.1997  1.7632
  183POPC  H16S21028   6.259   2.425   4.669  0.1819 -3.3134  0.0899
  183POPC  C21721029   6.420   2.362   4.554 -0.2144 -0.1525 -0.4122
  183POPC  H17R21030   6.333   2.359   4.485  1.2518  0.0279 -2.3620
  183POPC  H17S21031   6.431   2.258   4.592 -2.6739 -0.6757 -0.9523
  183POPC  C21821032   6.545   2.417   4.494 -0.8785  0.0631  0.2914
  183POPC  H18R21033   6.631   2.403   4.563 -0.7201  1.2692  0.3520
  183POPC  H18S21034   6.524   2.525   4.484 -0.9285  0.0447  0.1911
  183POPC  H18T21035   6.558   2.373   4.392 -0.4843  2.6249 -0.8483
  183POPC   C3321036   6.127   2.176   5.631  0.1677 -0.7894 -0.8531
  183POPC   H3X21037   6.031   2.122   5.613 -0.8399  0.2552  1.1043
  183POPC   H3Y21038   6.215   2.109   5.616  0.6434 -1.0733  2.4701
  183POPC   C3421039   6.135   2.268   5.509 -0.6453 -0.3993  0.0275
  183POPC   H4X21040   6.226   2.332   5.507 -1.1913  0.3803 -0.8969
  183POPC   H4Y21041   6.054   2.345   5.508 -1.2533 -1.0297 -1.7001
  183POPC   C3521042   6.131   2.188   5.376 -0.2089  0.2346 -0.1296
  183POPC   H5X21043   6.051   2.112   5.387 -0.4244  0.6176  1.1772
  183POPC   H5Y21044   6.228   2.137   5.357  0.2250  0.3845  1.4852
  183POPC   C3621045   6.109   2.279   5.254 -0.1793 -0.0278 -0.3784
  183POPC   H6X21046   6.199   2.344   5.247 -1.0924  1.4325  0.8515
  183POPC   H6Y21047   6.018   2.340   5.268  3.0674  4.9788  1.6411
  183POPC   C3721048   6.090   2.199   5.122  0.3480  0.1429 -0.6605
  183POPC   H7X21049   6.039   2.106   5.157  0.3060  0.4528  0.1243
  183POPC   H7Y21050   6.191   2.182   5.080  0.1663  1.0671 -1.4818
  183POPC   C3821051   6.011   2.279   5.016 -0.1120  0.1048 -0.4545
  183POPC   H8X21052   6.077   2.363   4.985  0.8791 -0.8897 -1.1335
  183POPC   H8Y21053   5.925   2.336   5.056  0.3612  0.6270 -0.1496
  183POPC   C3921054   5.991   2.203   4.887 -0.3175 -0.5329  0.7133
  183POPC   H9X21055   5.891   2.156   4.903 -0.7817 -0.0368 -0.6181
  183POPC   H9Y21056   6.081   2.143   4.863 -1.7882 -2.0068 -1.4768
  183POPC  C31021057   5.971   2.301   4.767 -0.2441 -0.1335 -0.3432
  183POPC  H10X21058   6.071   2.340   4.740  1.4811 -2.7843  1.6922
  183POPC  H10Y21059   5.900   2.382   4.795  0.0654  0.3744 -1.0154
  183POPC  C31121060   5.892   2.229   4.651 -0.7680 -0.3247  0.2994
  183POPC  H11X21061   5.789   2.211   4.688 -1.5063  0.8041 -1.1344
  183POPC  H11Y21062   5.945   2.135   4.622 -1.6305 -0.4858 -0.7840
  183POPC  C31221063   5.880   2.321   4.533 -0.0241 -0.2583 -0.7190
  183POPC  H12X21064   5.849   2.257   4.448  1.1246 -0.8621 -0.7094
  183POPC  H12Y21065   5.977   2.367   4.503 -0.3102  1.0593  0.2769
  183POPC  C31321066   5.769   2.423   4.547  0.2588 -0.7724  0.6784
  183POPC  H13X21067   5.793   2.491   4.632 -1.1436  2.8067 -1.5313
  183POPC  H13Y21068   5.674   2.374   4.576 -0.8768  1.9513  1.9541
  183POPC  C31421069   5.753   2.510   4.418 -0.5135 -0.2287 -0.3186
  183POPC  H14X21070   5.743   2.436   4.335  0.8145  1.3334 -1.9634
  183POPC  H14Y21071   5.844   2.567   4.391  0.6391 -2.5823 -1.7555
  183POPC  C31521072   5.624   2.599   4.421 -0.6724 -0.0990 -0.3408
  183POPC  H15X21073   5.641   2.650   4.518  1.0030  0.1365 -0.7267
  183POPC  H15Y21074   5.526   2.547   4.430 -1.3633  0.9089 -1.6612
  183POPC  C31621075   5.618   2.695   4.311 -0.1192 -0.4822  0.6903
  183POPC  H16X21076   5.712   2.754   4.305 -0.3854 -0.0068  1.1236
  183POPC  H16Y21077   5.546   2.779   4.309 -1.4676 -1.5927 -1.7495
  183POPC  H16Z21078   5.598   2.642   4.216  1.0922  1.0828 -0.4884
  184POPC     N21079   0.708   2.093   6.713 -0.1298  0.3785 -0.6783
  184POPC   C1221080   0.632   2.039   6.593 -0.3356 -0.1426 -0.1571
  184POPC  H12A21081   0.532   2.005   6.619  0.2497 -1.3077  0.6373
  184POPC  H12B21082   0.690   1.959   6.551 -0.3735 -1.3703  2.0020
  184POPC   C1321083   0.742   1.991   6.814  0.5044 -0.1645  0.0148
  184POPC  H13A21084   0.788   2.040   6.898  0.2935 -0.7740  0.4903
  184POPC  H13B21085   0.660   1.931   6.848  0.3722 -0.1748 -0.3198
  184POPC  H13C21086   0.810   1.917   6.775 -0.0230 -0.3672 -0.5388
  184POPC   C1421087   0.846   2.146   6.677  0.4277 -0.8617  0.1227
  184POPC  H14A21088   0.844   2.239   6.622  1.0242  0.6390  2.4792
  184POPC  H14B21089   0.905   2.178   6.762  1.4721  0.4475 -1.0502
  184POPC  H14C21090   0.904   2.068   6.632  1.2796 -1.3573  2.0049
  184POPC   C1521091   0.626   2.191   6.783  0.3493 -0.6109  0.0472
  184POPC  H15A21092   0.537   2.136   6.813  0.5337 -1.3311 -0.6669
  184POPC  H15B21093   0.592   2.256   6.704 -0.0712 -1.8535 -0.8435
  184POPC  H15C21094   0.679   2.247   6.858 -2.2943 -0.7621  2.2153
  184POPC   C1121095   0.595   2.145   6.481  1.1121 -0.0356  0.1966
  184POPC  H11A21096   0.557   2.086   6.394 -1.0622  0.5605  0.6884
  184POPC  H11B21097   0.688   2.196   6.447  2.3459 -2.6243 -0.5661
  184POPC     P21098   0.337   2.193   6.498  0.1160  0.4260  0.4983
  184POPC   O1321099   0.250   2.300   6.541  0.0574 -0.1921  0.3570
  184POPC   O1421100   0.325   2.062   6.572 -0.9551 -0.1103 -0.4525
  184POPC   O1221101   0.485   2.241   6.506  0.1198 -0.3197 -0.5544
  184POPC   O1121102   0.320   2.169   6.345  0.4121  0.0574 -0.5545
  184POPC    C121103   0.357   2.276   6.254 -1.1179  0.4267 -0.1254
  184POPC    HA21104   0.467   2.283   6.246 -1.0997  1.6591  0.9032
  184POPC    HB21105   0.327   2.376   6.291 -2.3925  0.1582 -0.3753
  184POPC    C221106   0.282   2.252   6.116  0.2185 -0.2252  0.1750
  184POPC    HS21107   0.305   2.154   6.069 -1.4521  0.2244 -1.6738
  184POPC   O2121108   0.309   2.349   6.018  0.2032  0.1110  0.3576
  184POPC   C2121109   0.437   2.363   5.973 -0.2990 -0.4183 -0.2260
  184POPC   O2221110   0.519   2.273   5.978 -0.6352 -0.3484  0.1964
  184POPC   C2221111   0.454   2.511   5.930 -0.4430 -0.5395  0.7570
  184POPC   H2R21112   0.562   2.529   5.948 -0.5010 -1.0385  1.6363
  184POPC   H2S21113   0.391   2.575   5.995  1.0360  2.5129 -0.6179
  184POPC    C321114   0.126   2.230   6.117 -0.0167 -0.4883  0.0557
  184POPC    HX21115   0.078   2.319   6.163  3.6139  1.4353  0.4671
  184POPC    HY21116   0.101   2.146   6.186 -1.8806 -0.5589 -0.6352
  184POPC   O3121117   0.075   2.208   5.981  0.5737 -1.2580  0.0452
  184POPC   C3121118   0.047   2.085   5.949 -0.6808  0.2415  0.4351
  184POPC   O3221119   0.026   1.995   6.028 -0.0638  0.1132 -0.4762
  184POPC   C3221120   0.050   2.073   5.795 -0.5678  0.0795 -0.1227
  184POPC   H2X21121   0.130   2.005   5.759 -1.4461 -1.1448  0.1797
  184POPC   H2Y21122   0.057   2.173   5.749 -1.8480 -0.8766 -2.5812
  184POPC   C2321123   0.415   2.533   5.785 -0.0855 -0.2102  0.7879
  184POPC   H3R21124   0.381   2.638   5.772 -2.7053 -0.8237  2.0390
  184POPC   H3S21125   0.327   2.469   5.765  0.0020 -0.3920  0.9703
  184POPC   C2421126   0.526   2.514   5.682  0.4338  0.4380 -0.7947
  184POPC   H4R21127   0.563   2.409   5.690 -0.4458 -0.2907 -4.5201
  184POPC   H4S21128   0.607   2.584   5.711  0.5663  0.3487 -0.9420
  184POPC   C2521129   0.476   2.544   5.537  0.3023  1.0348 -0.0469
  184POPC   H5R21130   0.486   2.653   5.519  2.6761  1.0852  1.2458
  184POPC   H5S21131   0.369   2.514   5.529  0.4132  0.3373  0.9832
  184POPC   C2621132   0.566   2.469   5.438 -0.5006  0.4251 -0.0945
  184POPC   H6R21133   0.563   2.361   5.463 -0.9268  0.6941  1.0609
  184POPC   H6S21134   0.675   2.483   5.448  0.0106 -2.5239 -0.5538
  184POPC   C2721135   0.531   2.486   5.292  0.1129 -0.3954 -0.8392
  184POPC   H7R21136   0.536   2.595   5.276 -0.8924 -0.0880  0.7776
  184POPC   H7S21137   0.425   2.453   5.283 -1.0287  2.8500 -0.5527
  184POPC   C2821138   0.617   2.409   5.184  0.1082 -0.8753  0.1629
  184POPC   H8R21139   0.619   2.304   5.221 -0.5854 -0.6974  0.7277
  184POPC   H8S21140   0.717   2.458   5.188  0.5335 -1.3508 -2.5866
  184POPC   C2921141   0.553   2.417   5.044 -0.0306 -0.6144 -0.0152
  184POPC   H9121142   0.584   2.507   4.989  0.7767 -0.5894  0.4646
  184POPC  C21021143   0.476   2.327   4.986 -0.3394 -0.0663 -0.5924
  184POPC  H10121144   0.439   2.343   4.884  1.6922  1.0959 -1.1843
  184POPC  C21121145   0.429   2.194   5.034 -0.7996  0.1553  0.2217
  184POPC  H11R21146   0.319   2.183   5.036 -0.7275 -0.5767  1.3172
  184POPC  H11S21147   0.470   2.177   5.136  1.1254  0.4367 -0.4666
  184POPC  C21221148   0.473   2.078   4.941 -0.7316 -0.0460 -0.6777
  184POPC  H12R21149   0.465   1.976   4.986 -0.8940 -0.4145 -1.5238
  184POPC  H12S21150   0.579   2.092   4.911 -0.2400  1.6713  1.6318
  184POPC  C21321151   0.386   2.070   4.813 -0.3806 -0.2360  0.7282
  184POPC  H13R21152   0.394   2.169   4.765  1.0557 -1.2721 -1.3357
  184POPC  H13S21153   0.281   2.051   4.841 -1.3646 -1.2887 -3.0946
  184POPC  C21421154   0.429   1.963   4.715 -0.5391 -0.0173  0.2171
  184POPC  H14R21155   0.425   1.868   4.773 -0.9106 -0.3723 -0.3883
  184POPC  H14S21156   0.531   1.986   4.675 -0.6180  0.2617  0.1711
  184POPC  C21521157   0.316   1.951   4.612 -0.4775 -0.1927  0.1344
  184POPC  H15R21158   0.214   1.938   4.653 -0.4700 -0.0822  0.1873
  184POPC  H15S21159   0.342   1.859   4.556  0.2126  2.0011 -3.4687
  184POPC  C21621160   0.318   2.070   4.507  0.0506  0.5380  0.1964
  184POPC  H16R21161   0.418   2.074   4.458 -0.0459  0.7282  0.0168
  184POPC  H16S21162   0.305   2.166   4.560 -0.6061  1.1820 -1.0981
  184POPC  C21721163   0.213   2.062   4.400 -0.1261  0.1167 -0.3319
  184POPC  H17R21164   0.113   2.070   4.448  1.0096 -2.0594  2.7014
  184POPC  H17S21165   0.214   1.961   4.355  0.0040  0.1240 -0.3460
  184POPC  C21821166   0.222   2.169   4.285 -0.8623 -0.8528  0.1737
  184POPC  H18R21167   0.130   2.151   4.225  1.1031 -1.5099 -2.8589
  184POPC  H18S21168   0.317   2.167   4.228  1.2648 -0.6467  3.4178
  184POPC  H18T21169   0.208   2.272   4.324 -1.0498 -1.1677  0.9690
  184POPC   C3321170  -0.084   2.010   5.748  0.5637  0.4500 -0.5771
  184POPC   H3X21171  -0.169   2.054   5.805  0.4457 -1.3992  0.7646
  184POPC   H3Y21172  -0.086   1.899   5.759 -0.2808  0.5653  0.7433
  184POPC   C3421173  -0.106   2.042   5.600 -0.0732  0.1888 -0.9371
  184POPC   H4X21174  -0.120   2.152   5.588 -1.0050  0.1886 -0.0318
  184POPC   H4Y21175  -0.203   1.994   5.574 -0.1748 -0.0194 -0.1945
  184POPC   C3521176   0.002   2.003   5.501  0.5346  0.3888 -0.2055
  184POPC   H5X21177   0.022   1.894   5.512 -1.3998 -0.1818 -1.8287
  184POPC   H5Y21178   0.098   2.055   5.520  1.0308 -1.0161  1.4382
  184POPC   C3621179  -0.035   2.037   5.361  0.4712 -0.6317  0.2590
  184POPC   H6X21180   0.060   2.050   5.305  1.0680  0.4579  1.4957
  184POPC   H6Y21181  -0.067   2.143   5.354  1.5762 -0.3002  0.0690
  184POPC   C3721182  -0.141   1.945   5.307  0.3334 -0.2389 -1.0770
  184POPC   H7X21183  -0.229   1.961   5.373  0.4404  3.0800 -1.5468
  184POPC   H7Y21184  -0.116   1.839   5.329 -2.6423 -0.9021 -0.4948
  184POPC   C3821185  -0.183   1.960   5.157  0.2806  0.0202  0.1346
  184POPC   H8X21186  -0.270   2.030   5.161  0.5565  0.4135 -0.5480
  184POPC   H8Y21187  -0.219   1.860   5.124 -1.4106  0.2527  1.1423
  184POPC   C3921188  -0.066   2.011   5.070 -0.0319  0.0289 -0.5501
  184POPC   H9X21189   0.021   1.945   5.094  0.7628  0.5373 -1.9206
  184POPC   H9Y21190  -0.052   2.113   5.113 -0.2919  0.1976 -0.8689
  184POPC  C31021191  -0.098   2.011   4.913  0.2445 -0.2471 -0.6336
  184POPC  H10X21192  -0.007   2.051   4.864  0.0714  1.2264  0.2057
  184POPC  H10Y21193  -0.194   2.060   4.886  0.1310 -0.7297 -1.1095
  184POPC  C31121194  -0.118   1.865   4.850  0.4289 -0.1395  0.4581
  184POPC  H11X21195  -0.222   1.831   4.868 -0.1620  1.6587  0.7350
  184POPC  H11Y21196  -0.059   1.782   4.894  1.5501  0.2525 -0.2483
  184POPC  C31221197  -0.089   1.867   4.695  0.0902  0.2831  0.5454
  184POPC  H12X21198  -0.095   1.764   4.653 -1.2584 -0.3659  2.2151
  184POPC  H12Y21199   0.012   1.906   4.670  0.4269 -0.7559  0.2258
  184POPC  C31321200  -0.204   1.946   4.627 -0.5671 -0.2747  0.1155
  184POPC  H13X21201  -0.194   2.053   4.655 -0.3129 -0.5681  1.2316
  184POPC  H13Y21202  -0.305   1.913   4.658 -0.9956  1.2303  0.4037
  184POPC  C31421203  -0.194   1.954   4.480 -0.1662 -0.0619  0.5416
  184POPC  H14X21204  -0.217   1.855   4.435 -0.7294  0.3033  0.0087
  184POPC  H14Y21205  -0.096   1.968   4.430  1.0462 -2.0901  2.1606
  184POPC  C31521206  -0.298   2.051   4.430 -0.2140 -0.8479  0.5447
  184POPC  H15X21207  -0.289   2.154   4.470 -2.3298 -0.2813 -0.2828
  184POPC  H15Y21208  -0.396   2.007   4.458 -0.3174 -1.1168 -0.2287
  184POPC  C31621209  -0.285   2.076   4.281  0.2642  0.1061  0.7478
  184POPC  H16X21210  -0.182   2.107   4.255  0.4571  0.9638  2.3990
  184POPC  H16Y21211  -0.361   2.152   4.253  0.5031  0.1029  0.0821
  184POPC  H16Z21212  -0.305   1.980   4.229  0.0052  0.4313  0.2428
  185POPC     N21213   5.926   6.398   1.832 -0.1138 -0.1439  0.8006
  185POPC   C1221214   5.859   6.263   1.810 -0.6952  0.3054 -0.8009
  185POPC  H12A21215   5.940   6.192   1.821 -0.6171  0.5911  0.6188
  185POPC  H12B21216   5.801   6.266   1.719 -0.0618 -0.9916 -1.2775
  185POPC   C1321217   6.011   6.432   1.713  0.8258  0.7128  0.4849
  185POPC  H13A21218   6.067   6.344   1.684 -1.0281 -0.6739  0.8885
  185POPC  H13B21219   5.941   6.453   1.633 -0.6298 -2.8342  0.6565
  185POPC  H13C21220   6.066   6.524   1.727  0.7283  0.8358  0.0574
  185POPC   C1421221   5.836   6.517   1.856 -0.0418  0.0341  0.2729
  185POPC  H14A21222   5.895   6.601   1.890  0.3803  0.5889 -1.6701
  185POPC  H14B21223   5.780   6.546   1.768 -1.1177 -2.1625  0.1750
  185POPC  H14C21224   5.765   6.497   1.934 -1.8417 -1.7545 -1.6969
  185POPC   C1521225   6.014   6.379   1.951  0.2561 -0.0824  0.6276
  185POPC  H15A21226   5.965   6.329   2.034  1.7427 -1.1551  0.8966
  185POPC  H15B21227   6.042   6.472   1.998 -0.9649  0.1438  0.9618
  185POPC  H15C21228   6.099   6.316   1.928 -1.3831 -2.0698 -0.3858
  185POPC   C1121229   5.764   6.226   1.932 -0.0655 -0.6021  0.6208
  185POPC  H11A21230   5.660   6.258   1.911  0.7404  0.2651 -2.7346
  185POPC  H11B21231   5.787   6.271   2.030  0.5358 -0.1495  0.2759
  185POPC     P21232   5.870   6.012   2.048 -0.0696 -0.1338 -0.1152
  185POPC   O1321233   6.008   6.055   2.013 -0.6103  0.1766 -0.1184
  185POPC   O1421234   5.847   5.865   2.051 -0.1011 -0.2096 -0.4213
  185POPC   O1221235   5.771   6.085   1.948  0.8124 -0.0719  0.0444
  185POPC   O1121236   5.841   6.072   2.185 -0.1293 -0.0030  0.3328
  185POPC    C121237   5.750   6.004   2.275  0.6045  0.1702 -0.1495
  185POPC    HA21238   5.799   5.909   2.304  0.0811  0.2404  1.0026
  185POPC    HB21239   5.654   5.974   2.228  1.2067 -0.2056 -1.1774
  185POPC    C221240   5.723   6.070   2.415 -0.1163 -0.4719  0.6753
  185POPC    HS21241   5.672   6.163   2.381 -2.9888 -2.7811 -1.9766
  185POPC   O2121242   5.854   6.109   2.465  0.0617 -0.2840 -0.1390
  185POPC   C2121243   5.839   6.196   2.560 -0.1547 -0.4556  0.8457
  185POPC   O2221244   5.729   6.251   2.587  0.4056 -0.3870 -0.3861
  185POPC   C2221245   5.967   6.222   2.626  0.2121  0.1797 -0.3929
  185POPC   H2R21246   6.007   6.314   2.578 -0.8850  1.8053  1.6308
  185POPC   H2S21247   6.047   6.145   2.620  0.4038  0.3622 -0.2306
  185POPC    C321248   5.643   5.978   2.520 -0.7604 -0.3959  0.3841
  185POPC    HX21249   5.543   5.979   2.472 -0.8809  1.0038  0.6300
  185POPC    HY21250   5.627   6.026   2.619 -0.1717 -0.2397  0.4098
  185POPC   O3121251   5.699   5.844   2.528 -0.0534 -0.4656  0.1634
  185POPC   C3121252   5.798   5.823   2.610  0.6754 -0.2776 -0.3886
  185POPC   O3221253   5.861   5.910   2.668 -0.1855  0.0881 -0.7521
  185POPC   C3221254   5.819   5.678   2.635  0.2005  0.4268  0.4867
  185POPC   H2X21255   5.836   5.633   2.535 -0.3662 -0.5223  0.8023
  185POPC   H2Y21256   5.723   5.636   2.671 -0.8145  2.1015 -0.1917
  185POPC   C2321257   5.943   6.256   2.776  0.1791  0.5366  0.2263
  185POPC   H3R21258   5.904   6.174   2.839  1.7282  0.1922  0.7809
  185POPC   H3S21259   5.858   6.327   2.778 -0.5730 -0.2913 -1.1748
  185POPC   C2421260   6.064   6.301   2.855  0.5116  0.3637 -0.7502
  185POPC   H4R21261   6.062   6.412   2.842 -0.4170  0.8607  2.6010
  185POPC   H4S21262   6.155   6.258   2.808  1.1916  1.0956 -0.1356
  185POPC   C2521263   6.059   6.256   2.997  0.9192  0.6038 -0.2547
  185POPC   H5R21264   6.064   6.145   2.996 -0.4944  0.5016 -2.2323
  185POPC   H5S21265   5.969   6.293   3.052  0.1815 -1.2672 -0.1160
  185POPC   C2621266   6.174   6.313   3.067  0.0682 -0.2789  0.0904
  185POPC   H6R21267   6.168   6.421   3.041 -1.7225 -0.1914  0.7094
  185POPC   H6S21268   6.269   6.270   3.028  0.0575 -0.0021 -0.2452
  185POPC   C2721269   6.169   6.311   3.222 -0.1201 -0.4303 -0.5060
  185POPC   H7R21270   6.264   6.356   3.258 -1.7148  3.1975 -0.3457
  185POPC   H7S21271   6.147   6.207   3.255  0.1827 -0.1273  0.6885
  185POPC   C2821272   6.066   6.411   3.280  0.4047  0.4449  0.0177
  185POPC   H8R21273   5.966   6.373   3.252  1.1090 -3.0428  1.6178
  185POPC   H8S21274   6.078   6.512   3.237  2.5646  0.9381  1.5774
  185POPC   C2921275   6.063   6.418   3.437 -0.3900  1.1214 -0.2863
  185POPC   H9121276   6.004   6.340   3.486 -1.1290  2.0475  0.3085
  185POPC  C21021277   6.131   6.510   3.510 -0.4196 -0.4872  0.2220
  185POPC  H10121278   6.114   6.495   3.618 -1.3643 -0.3658  0.1022
  185POPC  C21121279   6.210   6.627   3.469 -0.4599  0.2776 -0.2380
  185POPC  H11R21280   6.172   6.708   3.534  0.9247 -0.1103  1.0986
  185POPC  H11S21281   6.191   6.658   3.364  2.2702  0.4849 -0.7518
  185POPC  C21221282   6.359   6.597   3.478 -0.0492 -0.0307 -0.0043
  185POPC  H12R21283   6.420   6.686   3.451  2.2804 -1.6089 -0.2911
  185POPC  H12S21284   6.398   6.528   3.400  0.3887  1.1520 -0.8597
  185POPC  C21321285   6.415   6.550   3.616  0.6656  0.1567 -0.0750
  185POPC  H13R21286   6.390   6.444   3.639  2.0841 -0.0606  0.6109
  185POPC  H13S21287   6.372   6.614   3.696  0.5507 -1.1120  0.9122
  185POPC  C21421288   6.567   6.546   3.633 -0.0419 -0.0515 -0.4844
  185POPC  H14R21289   6.598   6.640   3.581  2.0175  0.9895  2.3886
  185POPC  H14S21290   6.626   6.465   3.586  2.1814  1.7208 -0.9300
  185POPC  C21521291   6.600   6.543   3.782 -0.4587  0.0192  0.0986
  185POPC  H15R21292   6.549   6.627   3.834 -1.2561 -0.5609  0.2675
  185POPC  H15S21293   6.710   6.560   3.785 -0.1517 -1.6310 -0.5659
  185POPC  C21621294   6.573   6.402   3.842  0.5681 -1.2828  0.1272
  185POPC  H16R21295   6.638   6.326   3.794 -0.6138 -1.9783 -0.4156
  185POPC  H16S21296   6.472   6.360   3.826  0.7019 -3.6647  4.1038
  185POPC  C21721297   6.583   6.400   3.993  0.1092  0.1840 -0.0316
  185POPC  H17R21298   6.523   6.479   4.043  0.9955  2.1705 -1.9199
  185POPC  H17S21299   6.688   6.422   4.023 -0.0330 -0.6722  1.1399
  185POPC  C21821300   6.563   6.256   4.045  0.0925  0.5278  0.2642
  185POPC  H18R21301   6.634   6.187   3.995 -0.0296  1.4961 -1.3139
  185POPC  H18S21302   6.466   6.207   4.022  1.9621 -3.0302 -0.7208
  185POPC  H18T21303   6.588   6.254   4.153  1.2813  1.2635  0.0186
  185POPC   C3321304   5.940   5.634   2.714  0.1450 -0.0815  0.0235
  185POPC   H3X21305   5.925   5.666   2.820 -0.5359 -2.6964  0.7767
  185POPC   H3Y21306   6.033   5.683   2.678  1.0712 -1.3421  0.6500
  185POPC   C3421307   5.947   5.477   2.703 -0.3778 -0.7178 -0.5376
  185POPC   H4X21308   5.965   5.465   2.594  0.7197  1.2426 -0.6124
  185POPC   H4Y21309   5.845   5.435   2.716  0.0060 -1.6414 -0.4498
  185POPC   C3521310   6.055   5.419   2.798 -0.0575 -0.1891 -0.3098
  185POPC   H5X21311   6.037   5.310   2.790  0.7974 -0.4264  0.6796
  185POPC   H5Y21312   6.048   5.446   2.906  1.6627 -1.4273  0.1509
  185POPC   C3621313   6.200   5.444   2.762 -0.0537 -0.5120  0.2992
  185POPC   H6X21314   6.232   5.550   2.767 -1.0718 -0.2399  1.6294
  185POPC   H6Y21315   6.206   5.398   2.661 -0.8969 -0.5314  0.2511
  185POPC   C3721316   6.303   5.370   2.854 -0.4926  0.1934  0.5503
  185POPC   H7X21317   6.269   5.265   2.850  0.7161 -0.2884  2.1079
  185POPC   H7Y21318   6.305   5.408   2.958  2.4159  0.1931  0.5736
  185POPC   C3821319   6.452   5.380   2.813  0.3446 -0.0855 -0.4959
  185POPC   H8X21320   6.464   5.489   2.793  0.9974 -0.1661 -0.5542
  185POPC   H8Y21321   6.448   5.330   2.714  1.8212 -0.8949 -0.1852
  185POPC   C3921322   6.555   5.322   2.912 -0.4612  0.0692 -0.1631
  185POPC   H9X21323   6.514   5.220   2.930  0.1861 -0.4838 -1.6491
  185POPC   H9Y21324   6.565   5.382   3.005  2.7281 -0.6602  0.0761
  185POPC  C31021325   6.691   5.297   2.849 -0.1594  0.6436  0.4074
  185POPC  H10X21326   6.744   5.383   2.801 -0.1391  0.0109 -0.7432
  185POPC  H10Y21327   6.668   5.219   2.773  0.5016  1.2279 -0.4224
  185POPC  C31121328   6.789   5.235   2.951  0.2695  0.2449  0.0489
  185POPC  H11X21329   6.790   5.311   3.032 -0.3087  3.1728 -2.4895
  185POPC  H11Y21330   6.895   5.243   2.921  0.4063 -1.3582 -0.0121
  185POPC  C31221331   6.744   5.101   3.002 -0.1275 -0.0375  0.6551
  185POPC  H12X21332   6.753   5.022   2.925 -0.9365  0.4813  0.0076
  185POPC  H12Y21333   6.634   5.095   3.017 -0.0463 -1.6715  0.7357
  185POPC  C31321334   6.828   5.055   3.125 -0.0349 -0.2106  0.1435
  185POPC  H13X21335   6.770   4.968   3.161 -0.4489 -0.2676 -0.6416
  185POPC  H13Y21336   6.826   5.136   3.201 -1.9574 -1.5802  1.6576
  185POPC  C31421337   6.969   5.011   3.105  0.1570 -0.5087  0.2748
  185POPC  H14X21338   7.035   5.099   3.091 -1.1198  0.7214  1.5852
  185POPC  H14Y21339   6.986   4.950   3.014  1.8734 -0.1517  0.3245
  185POPC  C31521340   7.019   4.933   3.231  0.4988 -0.1299  0.3736
  185POPC  H15X21341   6.963   4.840   3.255  0.8614 -0.1460  1.2264
  185POPC  H15Y21342   7.015   4.987   3.328  1.8459 -0.2581  0.5195
  185POPC  C31621343   7.158   4.882   3.209  0.0136  0.2226  0.1476
  185POPC  H16X21344   7.228   4.965   3.186 -0.1306 -0.4520 -3.3140
  185POPC  H16Y21345   7.168   4.799   3.135 -0.1711  2.0784 -2.0974
  185POPC  H16Z21346   7.172   4.827   3.304  0.1908  0.2080  0.1139
  186POPC     N21347   1.939   3.333   1.953 -0.2212  0.0605 -0.0710
  186POPC   C1221348   2.054   3.428   1.946 -0.1922  0.2023  0.7704
  186POPC  H12A21349   2.035   3.501   1.869  1.6378 -1.5234 -1.4758
  186POPC  H12B21350   2.135   3.366   1.908 -0.2248  0.8453 -0.3921
  186POPC   C1321351   1.807   3.411   1.956 -0.9316  0.4302 -0.0452
  186POPC  H13A21352   1.804   3.474   1.868  0.8071  0.3771 -0.1894
  186POPC  H13B21353   1.715   3.356   1.966 -1.3157  0.9828 -0.4931
  186POPC  H13C21354   1.821   3.484   2.035  2.8735  0.5222 -0.5874
  186POPC   C1421355   1.938   3.238   1.833  0.0870 -0.4008  0.7856
  186POPC  H14A21356   1.849   3.177   1.837 -0.2237 -0.1693 -1.3128
  186POPC  H14B21357   1.949   3.272   1.731 -0.1365 -2.9732 -0.1811
  186POPC  H14C21358   2.023   3.172   1.840 -0.3888 -1.2250 -0.7332
  186POPC   C1521359   1.946   3.250   2.080 -0.0454  0.2136 -0.1260
  186POPC  H15A21360   1.938   3.312   2.168 -1.4253 -0.0072 -0.0747
  186POPC  H15B21361   2.027   3.179   2.085 -0.8930 -0.7143  0.9608
  186POPC  H15C21362   1.861   3.184   2.093 -0.4053  0.7934  0.5464
  186POPC   C1121363   2.105   3.496   2.078  0.2984 -0.9262  0.4939
  186POPC  H11A21364   2.197   3.551   2.047  0.9581 -1.2468  1.7940
  186POPC  H11B21365   2.130   3.409   2.142  1.3531 -1.7517 -0.9570
  186POPC     P21366   1.957   3.581   2.277 -0.0166  0.3249 -0.5054
  186POPC   O1321367   1.809   3.598   2.270  0.0868  0.2190  0.0182
  186POPC   O1421368   2.036   3.687   2.347 -0.0915  0.3861 -0.3612
  186POPC   O1221369   2.003   3.579   2.123  0.2890 -0.1386 -0.2932
  186POPC   O1121370   1.992   3.435   2.340 -0.2522 -1.1464 -0.5795
  186POPC    C121371   2.112   3.409   2.419 -0.5227  0.4534 -0.1515
  186POPC    HA21372   2.169   3.504   2.430 -0.1828  0.2516 -0.1815
  186POPC    HB21373   2.170   3.325   2.376  0.2026  0.9795 -0.2248
  186POPC    C221374   2.069   3.375   2.558  0.2404  0.0176  0.1514
  186POPC    HS21375   2.012   3.279   2.553 -1.2040  0.8773 -0.4275
  186POPC   O2121376   1.999   3.487   2.619 -0.0191 -0.2502  0.1801
  186POPC   C2121377   1.863   3.479   2.622 -0.2686 -0.1820 -0.3320
  186POPC   O2221378   1.798   3.376   2.596  0.8965 -0.2285 -0.2862
  186POPC   C2221379   1.803   3.606   2.678  0.6148 -0.0147 -0.0063
  186POPC   H2R21380   1.811   3.680   2.596 -1.8519  1.5868  1.0793
  186POPC   H2S21381   1.868   3.639   2.762 -0.9495  0.9631  0.8791
  186POPC    C321382   2.190   3.346   2.643 -0.2253  0.7494 -0.5172
  186POPC    HX21383   2.258   3.433   2.648  2.0295 -0.6855 -3.3085
  186POPC    HY21384   2.261   3.271   2.602 -1.7024 -0.6286 -0.6892
  186POPC   O3121385   2.151   3.292   2.772  0.6819 -0.2610 -0.3355
  186POPC   C3121386   2.149   3.374   2.873  0.3638 -0.4007 -0.3348
  186POPC   O3221387   2.211   3.478   2.881  0.4024  0.0306  0.7259
  186POPC   C3221388   2.041   3.327   2.967 -0.0408  0.1431 -0.2181
  186POPC   H2X21389   2.055   3.223   3.001 -1.6162 -0.8625 -2.4372
  186POPC   H2Y21390   1.948   3.318   2.907  0.6746 -1.7311 -1.1155
  186POPC   C2321391   1.644   3.588   2.720 -0.2642  0.3340 -0.8435
  186POPC   H3R21392   1.647   3.524   2.810  0.9733  0.7798 -0.5432
  186POPC   H3S21393   1.597   3.540   2.632  2.6830 -0.3906 -2.1405
  186POPC   C2421394   1.573   3.721   2.750  0.6392  0.6290  0.4728
  186POPC   H4R21395   1.464   3.699   2.759  0.9420 -2.0992 -1.2056
  186POPC   H4S21396   1.560   3.791   2.665 -2.4839 -0.5539 -0.1587
  186POPC   C2521397   1.624   3.788   2.878 -0.6028 -0.2718  0.4152
  186POPC   H5R21398   1.597   3.896   2.871  0.8180  0.0396 -0.7992
  186POPC   H5S21399   1.734   3.779   2.874 -0.4657 -0.5582  3.1700
  186POPC   C2621400   1.580   3.726   3.008 -0.3007  0.9910 -0.2700
  186POPC   H6R21401   1.550   3.620   2.992  0.5216  0.8008 -0.5933
  186POPC   H6S21402   1.489   3.776   3.047 -0.5455  0.2258  0.1799
  186POPC   C2721403   1.691   3.726   3.120  0.2331  0.4090  0.1785
  186POPC   H7R21404   1.725   3.831   3.133 -1.6647  1.4182 -2.1733
  186POPC   H7S21405   1.777   3.669   3.078  1.2242  3.2707 -2.0214
  186POPC   C2821406   1.647   3.671   3.254 -0.2974  0.9918 -0.5694
  186POPC   H8R21407   1.567   3.736   3.296 -2.1188 -1.1814 -0.5404
  186POPC   H8S21408   1.737   3.675   3.320  2.5903  0.8476 -4.2011
  186POPC   C2921409   1.610   3.523   3.256  0.0366 -0.5492 -0.4976
  186POPC   H9121410   1.569   3.498   3.157  2.3574 -1.3751 -1.3014
  186POPC  C21021411   1.606   3.434   3.357  0.6786 -0.1096 -0.0582
  186POPC  H10121412   1.576   3.329   3.347  1.1444 -0.2000 -0.5817
  186POPC  C21121413   1.632   3.488   3.495 -0.4826  0.3758  0.7599
  186POPC  H11R21414   1.540   3.492   3.556 -2.8634  0.0372 -2.5194
  186POPC  H11S21415   1.674   3.591   3.495 -1.2661  0.7350 -1.0209
  186POPC  C21221416   1.722   3.404   3.570  0.6048  0.3103 -0.0134
  186POPC  H12R21417   1.825   3.418   3.531  0.3109  0.6942 -0.6694
  186POPC  H12S21418   1.700   3.295   3.564 -2.2146  0.7131  1.4879
  186POPC  C21321419   1.739   3.441   3.714  0.4386  0.3593  0.5188
  186POPC  H13R21420   1.637   3.450   3.757  0.3805  0.6223  0.3285
  186POPC  H13S21421   1.793   3.534   3.737 -0.6809  0.7178  1.8178
  186POPC  C21421422   1.798   3.324   3.795  0.0450  0.2161 -0.0268
  186POPC  H14R21423   1.904   3.311   3.764  0.0981  1.7156 -0.5438
  186POPC  H14S21424   1.746   3.229   3.770 -0.6549  0.1366  1.5533
  186POPC  C21521425   1.773   3.350   3.941 -0.5685  0.0134 -0.3927
  186POPC  H15R21426   1.781   3.256   3.999  0.5623  0.5777  0.4146
  186POPC  H15S21427   1.676   3.399   3.965 -2.2482 -4.0332  2.1440
  186POPC  C21621428   1.892   3.436   4.000 -0.2230  0.0262 -0.5983
  186POPC  H16R21429   1.871   3.541   3.970 -2.2747 -0.7940 -2.2907
  186POPC  H16S21430   1.984   3.399   3.950 -0.9116 -0.4984 -1.5113
  186POPC  C21721431   1.920   3.417   4.153 -0.2392  0.3082 -0.0100
  186POPC  H17R21432   2.030   3.404   4.165 -0.6032 -0.9542  2.6945
  186POPC  H17S21433   1.887   3.315   4.183  0.3246 -0.3157 -1.4109
  186POPC  C21821434   1.862   3.514   4.252  0.2459  0.2995 -0.1577
  186POPC  H18R21435   1.752   3.504   4.262  0.3365 -1.0091 -0.2964
  186POPC  H18S21436   1.909   3.499   4.351 -1.3564 -0.4674  0.5217
  186POPC  H18T21437   1.878   3.620   4.221 -0.0742 -0.2044 -2.1958
  186POPC   C3321438   2.042   3.416   3.092 -0.5161  0.6376 -1.2037
  186POPC   H3X21439   1.954   3.379   3.149 -1.1654 -1.0888 -3.2153
  186POPC   H3Y21440   2.034   3.525   3.072 -2.6402  0.6482 -0.5925
  186POPC   C3421441   2.173   3.385   3.172 -0.3334  0.6468  0.0581
  186POPC   H4X21442   2.252   3.451   3.130 -1.9460  1.0757 -2.5511
  186POPC   H4Y21443   2.217   3.284   3.154 -0.7034  0.3380  0.8183
  186POPC   C3521444   2.148   3.409   3.325 -0.3147 -0.1892 -0.4910
  186POPC   H5X21445   2.250   3.408   3.369 -1.1267  0.7745  1.4916
  186POPC   H5Y21446   2.089   3.331   3.377 -1.5667  0.8225 -0.3407
  186POPC   C3621447   2.082   3.540   3.349  1.0169 -0.3824  0.2692
  186POPC   H6X21448   1.977   3.543   3.311  0.9376  0.7032  0.5497
  186POPC   H6Y21449   2.136   3.626   3.305 -1.0370  1.9300  1.9854
  186POPC   C3721450   2.080   3.579   3.500  0.2483  0.2547  0.1194
  186POPC   H7X21451   2.045   3.490   3.556 -0.1185  0.5535  0.3691
  186POPC   H7Y21452   2.004   3.658   3.519 -2.3973 -2.6452  2.5060
  186POPC   C3821453   2.218   3.624   3.559 -0.1325 -0.6911 -0.9064
  186POPC   H8X21454   2.273   3.692   3.490  0.5968 -0.4675 -0.1324
  186POPC   H8Y21455   2.289   3.542   3.584  1.0336  0.2164 -1.1332
  186POPC   C3921456   2.204   3.692   3.691  0.0921 -0.5156 -0.1732
  186POPC   H9X21457   2.110   3.752   3.686  0.6457  0.6886  2.3541
  186POPC   H9Y21458   2.289   3.763   3.699  1.2103 -1.8038 -0.2615
  186POPC  C31021459   2.197   3.590   3.815 -0.1096 -0.6429 -0.4128
  186POPC  H10X21460   2.290   3.530   3.803  0.3134 -0.2191  0.6692
  186POPC  H10Y21461   2.108   3.527   3.795 -2.8352  2.9784 -0.6067
  186POPC  C31121462   2.196   3.653   3.952 -0.1779 -0.2426  0.2532
  186POPC  H11X21463   2.173   3.578   4.031 -0.2332  1.0649  1.5215
  186POPC  H11Y21464   2.121   3.735   3.954  0.1772  0.1016 -0.2640
  186POPC  C31221465   2.336   3.711   3.985 -0.3896 -0.2408  0.0616
  186POPC  H12X21466   2.361   3.793   3.915 -2.2008 -0.5768 -1.0586
  186POPC  H12Y21467   2.402   3.626   3.956 -0.4120  0.1736 -1.2611
  186POPC  C31321468   2.357   3.747   4.131  0.3891 -0.3475 -0.4282
  186POPC  H13X21469   2.267   3.803   4.165 -0.0342 -1.2367 -0.0599
  186POPC  H13Y21470   2.445   3.814   4.141  0.4248 -0.6053  1.3112
  186POPC  C31421471   2.369   3.630   4.224  0.4366  0.6210 -0.7207
  186POPC  H14X21472   2.455   3.572   4.183  0.4996  1.6674 -2.1549
  186POPC  H14Y21473   2.279   3.566   4.222  0.8661  0.0098 -2.1664
  186POPC  C31521474   2.404   3.674   4.367  0.2912 -0.1132 -0.0405
  186POPC  H15X21475   2.341   3.755   4.411 -0.8220 -0.0233 -1.6965
  186POPC  H15Y21476   2.505   3.721   4.357  0.6435 -0.1087  2.7218
  186POPC  C31621477   2.413   3.560   4.472  0.7724  0.4143  0.0488
  186POPC  H16X21478   2.481   3.487   4.424 -0.8526 -2.8293  2.3062
  186POPC  H16Y21479   2.314   3.515   4.493  1.9072 -1.6229  1.4218
  186POPC  H16Z21480   2.450   3.604   4.567 -1.7543  1.6790  0.5422
  187POPC     N21481   4.070   3.753   2.197 -0.0057  0.2038 -0.4014
  187POPC   C1221482   4.019   3.664   2.307 -0.1849 -0.4731 -0.4781
  187POPC  H12A21483   4.063   3.565   2.310 -3.5854 -2.1968  3.9408
  187POPC  H12B21484   3.914   3.643   2.295 -0.3799  0.3593 -0.2939
  187POPC   C1321485   4.213   3.782   2.210  0.4472 -0.7640  0.0473
  187POPC  H13A21486   4.267   3.689   2.215  0.4163 -0.7558  0.5538
  187POPC  H13B21487   4.260   3.840   2.132 -1.6453 -0.0396 -0.7380
  187POPC  H13C21488   4.229   3.843   2.297  2.7038  0.0340 -0.8641
  187POPC   C1421489   4.042   3.675   2.070 -0.7453  0.1019 -0.6541
  187POPC  H14A21490   4.107   3.591   2.052 -0.4787  0.0405  0.5162
  187POPC  H14B21491   3.938   3.646   2.058 -0.6467 -0.2917 -0.5495
  187POPC  H14C21492   4.064   3.746   1.992  1.4832  1.6412  1.2721
  187POPC   C1521493   3.987   3.875   2.181  0.2575 -0.8075 -0.4308
  187POPC  H15A21494   3.945   3.892   2.279  1.3207  0.2149 -0.1203
  187POPC  H15B21495   3.904   3.874   2.112 -1.0670  2.1101  0.9144
  187POPC  H15C21496   4.044   3.961   2.147 -0.6372  0.1553  0.4365
  187POPC   C1121497   4.041   3.717   2.452  0.0110 -0.2975 -0.5256
  187POPC  H11A21498   4.150   3.732   2.465  0.2764 -1.6357 -1.0243
  187POPC  H11B21499   4.024   3.628   2.516 -1.5834 -0.4152 -1.0784
  187POPC     P21500   4.025   3.946   2.579 -0.1784 -0.0891  0.3668
  187POPC   O1321501   3.918   4.044   2.582 -0.2038  0.1002 -0.8616
  187POPC   O1421502   4.161   3.980   2.525  0.4816  0.2454  0.1992
  187POPC   O1221503   3.959   3.828   2.494  0.1984 -0.1424 -0.0845
  187POPC   O1121504   4.038   3.870   2.724  0.4938 -0.4619  0.1031
  187POPC    C121505   3.979   3.920   2.848 -0.7795  0.2598 -0.1669
  187POPC    HA21506   3.888   3.863   2.877 -3.2315  3.0634 -1.7627
  187POPC    HB21507   3.945   4.024   2.829  1.3915  0.5487 -3.1031
  187POPC    C221508   4.085   3.937   2.959  0.7792  0.2803  0.1318
  187POPC    HS21509   4.174   3.984   2.913 -1.5267  3.0517 -1.8672
  187POPC   O2121510   4.106   3.804   3.006 -1.0422  0.1570  0.0380
  187POPC   C2121511   4.232   3.772   3.045 -0.0076 -0.0302 -0.5693
  187POPC   O2221512   4.325   3.852   3.054 -0.4243  0.3602 -0.2639
  187POPC   C2221513   4.246   3.623   3.080  0.1757 -0.2551  0.6457
  187POPC   H2R21514   4.272   3.566   2.988 -2.6080  0.4091 -0.6649
  187POPC   H2S21515   4.144   3.585   3.103  0.4543 -0.5830  1.3518
  187POPC    C321516   4.032   4.038   3.063  0.0561  0.2540  0.4522
  187POPC    HX21517   3.941   3.995   3.109  0.9852 -0.2657  1.8950
  187POPC    HY21518   4.003   4.133   3.014  1.1390  0.0834 -0.5762
  187POPC   O3121519   4.118   4.048   3.176 -0.0469 -0.0807 -0.0240
  187POPC   C3121520   4.211   4.141   3.166  0.1831 -0.3077 -0.4149
  187POPC   O3221521   4.213   4.221   3.076 -0.3080 -0.0126  0.1027
  187POPC   C3221522   4.308   4.143   3.286 -0.5032  0.5385  0.1876
  187POPC   H2X21523   4.273   4.221   3.355  0.6127  0.2071  1.1614
  187POPC   H2Y21524   4.412   4.166   3.253 -1.1178  1.5987 -1.1029
  187POPC   C2321525   4.345   3.597   3.200  0.1481 -0.3997 -0.4853
  187POPC   H3R21526   4.314   3.660   3.286  0.8267 -0.6111 -0.0866
  187POPC   H3S21527   4.445   3.621   3.158 -1.1786 -0.3063 -3.9700
  187POPC   C2421528   4.337   3.457   3.259 -0.3312  0.7174  0.0049
  187POPC   H4R21529   4.347   3.393   3.169 -0.3240  0.5486  0.1246
  187POPC   H4S21530   4.236   3.446   3.303 -1.1105  3.4952 -0.9029
  187POPC   C2521531   4.441   3.416   3.365 -0.5313  0.5471  0.0434
  187POPC   H5R21532   4.547   3.409   3.333 -1.2816 -0.1241 -2.4780
  187POPC   H5S21533   4.431   3.307   3.385  2.1954  0.4480  1.2902
  187POPC   C2621534   4.439   3.484   3.503  0.1023  0.3116  0.5808
  187POPC   H6R21535   4.347   3.471   3.564 -0.2001  1.8781  0.5215
  187POPC   H6S21536   4.459   3.593   3.495  3.0556 -0.2469 -0.7092
  187POPC   C2721537   4.545   3.430   3.598 -0.3086  0.2716 -0.3603
  187POPC   H7R21538   4.645   3.469   3.572 -0.2907  1.4587  1.3229
  187POPC   H7S21539   4.544   3.319   3.594  0.3029  0.2896 -1.1778
  187POPC   C2821540   4.502   3.460   3.749  0.0685  0.1228 -0.1453
  187POPC   H8R21541   4.574   3.411   3.818  0.4795 -1.0600 -1.3844
  187POPC   H8S21542   4.396   3.430   3.748 -0.0598  0.5294 -2.0860
  187POPC   C2921543   4.498   3.609   3.771  0.2131  0.3974  0.1737
  187POPC   H9121544   4.479   3.676   3.686 -1.3128 -0.8228 -0.4789
  187POPC  C21021545   4.492   3.666   3.891 -0.5482 -0.2778 -0.3105
  187POPC  H10121546   4.504   3.775   3.883 -0.5575 -0.3396 -1.2836
  187POPC  C21121547   4.508   3.596   4.025  0.7613  0.0438 -0.3079
  187POPC  H11R21548   4.562   3.499   4.015 -0.3128 -0.4007 -2.4446
  187POPC  H11S21549   4.405   3.588   4.066  0.8595  0.7503  0.0850
  187POPC  C21221550   4.594   3.682   4.116 -0.0334  0.1364 -0.0675
  187POPC  H12R21551   4.552   3.657   4.216 -0.7058 -3.3725 -1.1189
  187POPC  H12S21552   4.574   3.789   4.095 -0.2888  0.4218  1.4697
  187POPC  C21321553   4.738   3.657   4.102 -0.0281 -0.2966 -0.0870
  187POPC  H13R21554   4.764   3.657   3.994  1.0038  0.3630  0.1412
  187POPC  H13S21555   4.763   3.561   4.152 -0.4010  1.0831  2.9800
  187POPC  C21421556   4.830   3.771   4.165  0.3876 -0.3042  1.0511
  187POPC  H14R21557   4.922   3.719   4.200  0.8653  0.9749  1.7604
  187POPC  H14S21558   4.782   3.808   4.258 -1.4659  0.0199  0.0065
  187POPC  C21521559   4.871   3.883   4.063 -0.0395  0.6018 -0.6683
  187POPC  H15R21560   4.792   3.957   4.038 -0.7543 -0.9124 -3.2863
  187POPC  H15S21561   4.891   3.837   3.964  1.3198 -0.9062  0.2541
  187POPC  C21621562   4.994   3.963   4.095  0.5419 -0.4356  0.1013
  187POPC  H16R21563   5.071   3.888   4.123  0.7485 -0.2282  0.0933
  187POPC  H16S21564   4.988   4.033   4.182  3.3037  1.2408 -0.9278
  187POPC  C21721565   5.043   4.052   3.979  0.0572  0.2971  0.2907
  187POPC  H17R21566   4.962   4.119   3.942 -1.0568  0.1165  2.2752
  187POPC  H17S21567   5.055   3.979   3.897  1.3832 -0.1855  0.8913
  187POPC  C21821568   5.179   4.123   3.994  0.4322 -0.2709 -0.0801
  187POPC  H18R21569   5.256   4.044   3.981 -0.5698 -0.9561 -2.5183
  187POPC  H18S21570   5.186   4.170   4.094  2.8410  1.5366 -1.0071
  187POPC  H18T21571   5.172   4.196   3.911 -0.6006 -0.4679 -0.1879
  187POPC   C3321572   4.307   4.008   3.371 -0.0539 -0.1361  0.1400
  187POPC   H3X21573   4.311   3.921   3.301  0.7472 -0.9210  1.1205
  187POPC   H3Y21574   4.210   3.990   3.423 -0.1658 -3.8170 -1.0288
  187POPC   C3421575   4.416   4.002   3.487 -0.3486 -0.1195  0.2428
  187POPC   H4X21576   4.517   4.034   3.453 -0.6989  0.4174 -0.3122
  187POPC   H4Y21577   4.425   3.895   3.518 -0.5536 -0.0587  0.5093
  187POPC   C3521578   4.386   4.081   3.611 -0.2889 -0.1515 -0.2252
  187POPC   H5X21579   4.289   4.048   3.655 -0.3669 -0.4317 -0.5931
  187POPC   H5Y21580   4.361   4.187   3.592 -3.1923 -0.5144  1.0276
  187POPC   C3621581   4.490   4.075   3.718  0.3203 -0.4908  0.1033
  187POPC   H6X21582   4.592   4.072   3.673 -0.1033 -2.7170 -0.8555
  187POPC   H6Y21583   4.490   3.977   3.770  0.7283  0.2337  1.5094
  187POPC   C3721584   4.487   4.179   3.830  1.2939  0.1958  1.1385
  187POPC   H7X21585   4.405   4.157   3.903  1.0566  2.3433  1.5873
  187POPC   H7Y21586   4.483   4.283   3.791  0.3568 -0.5975 -1.0062
  187POPC   C3821587   4.617   4.161   3.913 -0.1287  0.4059 -0.0961
  187POPC   H8X21588   4.706   4.175   3.848 -0.3334 -1.2539 -0.7655
  187POPC   H8Y21589   4.612   4.054   3.941 -2.6574  0.0546 -1.6038
  187POPC   C3921590   4.630   4.243   4.043  0.2811  0.0881 -0.3893
  187POPC   H9X21591   4.535   4.255   4.100  0.6047 -0.1074  0.1989
  187POPC   H9Y21592   4.666   4.346   4.023 -0.8393  0.3890 -0.9438
  187POPC  C31021593   4.713   4.175   4.155 -0.2390 -0.5895  0.4502
  187POPC  H10X21594   4.820   4.170   4.126 -0.0344  0.5746  0.9757
  187POPC  H10Y21595   4.674   4.073   4.177 -1.3741 -0.3948 -0.5496
  187POPC  C31121596   4.718   4.255   4.290 -0.6008 -0.2625 -0.0880
  187POPC  H11X21597   4.619   4.269   4.338 -0.6882 -0.5551 -0.1869
  187POPC  H11Y21598   4.760   4.353   4.259  0.6087 -1.4949 -2.6381
  187POPC  C31221599   4.815   4.191   4.388  0.6617  0.6280 -0.1673
  187POPC  H12X21600   4.905   4.166   4.327 -0.1802 -0.7722 -0.8852
  187POPC  H12Y21601   4.777   4.095   4.427  2.1176 -0.3772 -1.1178
  187POPC  C31321602   4.850   4.278   4.505 -0.1323  0.3440 -0.4678
  187POPC  H13X21603   4.871   4.384   4.477  0.7108  0.7129  1.3907
  187POPC  H13Y21604   4.938   4.240   4.560 -0.7332 -0.2811  0.0710
  187POPC  C31421605   4.730   4.277   4.594 -0.6537 -0.3242  1.0933
  187POPC  H14X21606   4.718   4.174   4.633  0.1445 -0.6026  0.6297
  187POPC  H14Y21607   4.640   4.307   4.536  0.1183 -1.4430 -0.7501
  187POPC  C31521608   4.743   4.394   4.694 -0.1010  0.4046  0.5008
  187POPC  H15X21609   4.682   4.382   4.787 -0.2014 -0.6325  0.3186
  187POPC  H15Y21610   4.701   4.481   4.640 -2.0634 -1.1426 -0.6244
  187POPC  C31621611   4.881   4.425   4.742 -0.3203 -0.4741  0.2555
  187POPC  H16X21612   4.856   4.494   4.825  0.4721 -0.7277  0.7057
  187POPC  H16Y21613   4.936   4.487   4.667 -1.2211  0.6723  0.5020
  187POPC  H16Z21614   4.936   4.335   4.774 -1.3295 -0.9934  0.5734
  188POPC     N21615   6.115   5.306   2.090  0.5843 -0.1676  0.1769
  188POPC   C1221616   6.200   5.341   2.219 -0.4774  0.0893 -0.0185
  188POPC  H12A21617   6.299   5.364   2.183 -0.8069 -1.2378 -1.9580
  188POPC  H12B21618   6.198   5.249   2.275 -0.3467 -0.9668 -1.6866
  188POPC   C1321619   6.164   5.189   2.014 -0.7771  0.1168 -0.4300
  188POPC  H13A21620   6.268   5.198   1.987 -0.7911 -1.3772 -1.0615
  188POPC  H13B21621   6.174   5.110   2.087 -0.6247 -1.8419 -2.4657
  188POPC  H13C21622   6.104   5.164   1.928  0.6294  0.7731 -1.6317
  188POPC   C1421623   5.971   5.277   2.132 -0.4780  0.1167  0.0598
  188POPC  H14A21624   5.913   5.245   2.048 -1.0122  2.3412 -0.4915
  188POPC  H14B21625   5.973   5.199   2.207 -1.8898 -0.0547 -0.0493
  188POPC  H14C21626   5.938   5.372   2.173  0.6739  1.0739 -1.1344
  188POPC   C1521627   6.118   5.415   1.993 -0.1677 -0.0350 -0.1722
  188POPC  H15A21628   6.102   5.515   2.032 -0.5725 -0.2590  0.2470
  188POPC  H15B21629   6.053   5.394   1.909  0.8908 -3.5845 -0.2645
  188POPC  H15C21630   6.221   5.429   1.962  0.5778 -0.3754  1.9992
  188POPC   C1121631   6.156   5.458   2.316  0.9294  0.6795 -0.5719
  188POPC  H11A21632   6.229   5.462   2.399  1.1970 -0.5394 -0.7312
  188POPC  H11B21633   6.054   5.440   2.358 -0.0614  2.9436 -1.7920
  188POPC     P21634   6.292   5.658   2.210  0.3424 -0.2910 -0.0897
  188POPC   O1321635   6.264   5.794   2.158 -0.3968  0.3042 -0.2253
  188POPC   O1421636   6.381   5.568   2.138  0.7077  0.2599 -0.3358
  188POPC   O1221637   6.158   5.578   2.246 -0.2870 -0.0868  0.3370
  188POPC   O1121638   6.352   5.679   2.348  0.2575 -0.0080 -0.0072
  188POPC    C121639   6.299   5.767   2.448 -0.5813 -0.4821 -0.3070
  188POPC    HA21640   6.269   5.704   2.535 -0.3750 -1.7490 -1.1228
  188POPC    HB21641   6.204   5.811   2.410  1.0639  1.6985 -2.1491
  188POPC    C221642   6.379   5.889   2.493 -0.7055 -0.2580  0.1560
  188POPC    HS21643   6.405   5.947   2.402  0.9182 -0.9879  0.1051
  188POPC   O2121644   6.504   5.839   2.548 -0.0793 -0.5379 -0.7381
  188POPC   C2121645   6.598   5.937   2.570  0.2222 -0.0404  0.3708
  188POPC   O2221646   6.590   6.046   2.518  0.0606  0.2265  0.0222
  188POPC   C2221647   6.708   5.886   2.663  0.2862  0.1829 -0.4299
  188POPC   H2R21648   6.773   5.969   2.697  0.3932 -0.3694  0.8087
  188POPC   H2S21649   6.773   5.811   2.613  0.1958  0.0763 -0.3920
  188POPC    C321650   6.295   5.973   2.577  0.6664 -0.7249 -1.4805
  188POPC    HX21651   6.200   5.993   2.524 -0.1393  2.5929  0.9007
  188POPC    HY21652   6.350   6.067   2.596 -0.5130 -0.3818  0.6116
  188POPC   O3121653   6.259   5.905   2.696 -0.0029  0.2211 -0.3092
  188POPC   C3121654   6.297   5.969   2.810 -0.4934 -0.1323  0.4345
  188POPC   O3221655   6.365   6.065   2.826  0.2518 -0.1479 -0.1931
  188POPC   C3221656   6.227   5.897   2.928  0.0434  0.3911 -0.0907
  188POPC   H2X21657   6.186   5.800   2.894  2.1624 -0.6304  0.1040
  188POPC   H2Y21658   6.129   5.944   2.953  1.0164  2.3735  0.2898
  188POPC   C2321659   6.653   5.811   2.794 -0.4497  0.1826  0.6209
  188POPC   H3R21660   6.614   5.709   2.771  2.6378 -1.1615  0.7382
  188POPC   H3S21661   6.582   5.875   2.850  0.2708  1.3013  0.2727
  188POPC   C2421662   6.767   5.779   2.887 -0.5321  0.0935 -0.5096
  188POPC   H4R21663   6.820   5.872   2.914  0.1695 -0.2191 -0.8075
  188POPC   H4S21664   6.846   5.712   2.848 -0.8372 -1.2897  1.1255
  188POPC   C2521665   6.713   5.722   3.021 -0.1415 -0.0673 -0.3865
  188POPC   H5R21666   6.651   5.634   2.993 -1.4241  0.1182  1.6632
  188POPC   H5S21667   6.647   5.802   3.061  2.3530  2.1410 -0.4525
  188POPC   C2621668   6.817   5.678   3.127 -0.2307 -0.9419  0.4731
  188POPC   H6R21669   6.901   5.615   3.089  0.6067  0.5070 -0.1393
  188POPC   H6S21670   6.757   5.614   3.195 -2.3132 -0.8073 -1.1281
  188POPC   C2721671   6.876   5.805   3.192  0.5877 -0.1807 -0.3552
  188POPC   H7R21672   6.808   5.893   3.182 -0.2838 -1.0349 -2.4145
  188POPC   H7S21673   6.963   5.838   3.131 -0.8562  1.5082 -1.6311
  188POPC   C2821674   6.902   5.786   3.341 -0.4552 -0.1067 -1.0960
  188POPC   H8R21675   6.965   5.874   3.366 -0.2627  0.5016 -3.4618
  188POPC   H8S21676   6.976   5.705   3.350  0.3886  0.8774  1.9950
  188POPC   C2921677   6.776   5.777   3.431 -0.7088  0.6153  0.3640
  188POPC   H9121678   6.676   5.777   3.386 -0.3590  0.0829 -0.4397
  188POPC  C21021679   6.793   5.764   3.565  0.4729  0.6452 -0.4015
  188POPC  H10121680   6.706   5.769   3.633 -0.8188 -0.6059 -1.8631
  188POPC  C21121681   6.927   5.759   3.631 -0.5948  0.4523 -1.0546
  188POPC  H11R21682   6.951   5.858   3.675 -0.2834 -0.0245 -0.1206
  188POPC  H11S21683   7.014   5.753   3.561  1.0484 -1.6751  0.9991
  188POPC  C21221684   6.948   5.659   3.750 -0.1801 -0.1537 -0.2287
  188POPC  H12R21685   6.976   5.555   3.723  2.2359  0.0410  1.2405
  188POPC  H12S21686   6.856   5.661   3.812 -1.3950  0.0390 -1.9719
  188POPC  C21321687   7.069   5.718   3.832  0.6076  0.1391  0.4273
  188POPC  H13R21688   7.037   5.821   3.859  0.2642  0.3543 -0.7482
  188POPC  H13S21689   7.149   5.732   3.756 -0.5432 -3.5195 -1.7059
  188POPC  C21421690   7.120   5.636   3.946 -0.3305 -0.1785  0.0146
  188POPC  H14R21691   7.137   5.529   3.917  1.0803 -0.1156  0.5440
  188POPC  H14S21692   7.048   5.632   4.030  0.5775 -0.5729  0.7989
  188POPC  C21521693   7.258   5.687   3.994 -0.0773  0.0093  0.3160
  188POPC  H15R21694   7.245   5.784   4.046  1.8977 -0.5242  1.9425
  188POPC  H15S21695   7.328   5.705   3.909  0.9414 -0.8694  0.9342
  188POPC  C21621696   7.326   5.586   4.083  0.2017  0.1760  0.3487
  188POPC  H16R21697   7.414   5.645   4.118 -0.3245  0.9670  0.3677
  188POPC  H16S21698   7.355   5.496   4.025 -1.2274 -0.8774  1.1820
  188POPC  C21721699   7.253   5.549   4.209  0.2262 -0.4092  0.5704
  188POPC  H17R21700   7.165   5.484   4.190 -1.3853  1.9906 -0.5608
  188POPC  H17S21701   7.228   5.643   4.262 -0.2403 -0.5681  0.6374
  188POPC  C21821702   7.339   5.470   4.308 -0.4695  0.6516 -0.3174
  188POPC  H18R21703   7.444   5.490   4.279 -0.1410 -0.3676  0.1223
  188POPC  H18S21704   7.320   5.361   4.297 -1.7565  0.9219 -0.9998
  188POPC  H18T21705   7.310   5.500   4.410 -0.1442 -1.4445  0.4381
  188POPC   C3321706   6.312   5.893   3.056 -0.4582 -0.0375 -0.1235
  188POPC   H3X21707   6.345   5.994   3.087 -0.4577 -0.1635  0.2895
  188POPC   H3Y21708   6.408   5.839   3.040 -0.2717 -0.7079  2.7118
  188POPC   C3421709   6.247   5.825   3.174  0.7345 -0.2030 -0.6058
  188POPC   H4X21710   6.168   5.898   3.201  0.1873 -0.9222 -0.2433
  188POPC   H4Y21711   6.328   5.822   3.250  0.6261 -1.3872 -0.5146
  188POPC   C3521712   6.196   5.680   3.150  0.0820 -0.4616 -0.9463
  188POPC   H5X21713   6.280   5.624   3.105  1.9200 -0.8271  2.5960
  188POPC   H5Y21714   6.125   5.667   3.065  2.3117 -2.2572 -2.6670
  188POPC   C3621715   6.147   5.619   3.280 -0.0617  0.6051  0.0082
  188POPC   H6X21716   6.093   5.524   3.258 -0.8170  1.5762 -2.8786
  188POPC   H6Y21717   6.077   5.680   3.341 -0.7369 -0.8705  0.7773
  188POPC   C3721718   6.265   5.585   3.373  0.1547 -0.4331 -0.0313
  188POPC   H7X21719   6.319   5.673   3.413 -0.5606  0.6204 -1.3169
  188POPC   H7Y21720   6.339   5.517   3.326 -1.9508 -0.2994 -3.9610
  188POPC   C3821721   6.222   5.522   3.506 -0.4324  0.0035 -0.3238
  188POPC   H8X21722   6.318   5.507   3.560 -1.4535 -0.5309  1.4044
  188POPC   H8Y21723   6.173   5.425   3.483 -1.0776  0.4829 -1.0100
  188POPC   C3921724   6.147   5.614   3.603 -0.0676  0.3078  0.0637
  188POPC   H9X21725   6.053   5.645   3.554  0.7722  4.4865  0.7057
  188POPC   H9Y21726   6.200   5.712   3.602 -0.1675  0.3653 -1.8364
  188POPC  C31021727   6.140   5.548   3.742  0.4254 -0.5141  0.0805
  188POPC  H10X21728   6.244   5.541   3.780  0.6020 -3.9529 -0.7214
  188POPC  H10Y21729   6.104   5.443   3.746 -0.4983 -0.1820  0.9166
  188POPC  C31121730   6.059   5.644   3.841 -0.1371 -0.2214  0.5879
  188POPC  H11X21731   5.954   5.663   3.813 -0.2729  0.6642  1.6477
  188POPC  H11Y21732   6.107   5.741   3.818 -0.6735 -0.3575 -1.2314
  188POPC  C31221733   6.065   5.594   3.986  0.1624 -0.7169  0.0684
  188POPC  H12X21734   6.162   5.555   4.024 -1.1521 -2.7848  1.4579
  188POPC  H12Y21735   5.995   5.508   3.986  0.2048 -0.8384 -2.3221
  188POPC  C31321736   6.003   5.700   4.084 -0.7529  0.4053 -0.1189
  188POPC  H13X21737   5.915   5.736   4.027 -0.3357 -1.1403 -1.8446
  188POPC  H13Y21738   6.079   5.781   4.093 -1.1938  0.7380  0.7318
  188POPC  C31421739   5.977   5.638   4.221 -0.1479 -0.1239  0.3321
  188POPC  H14X21740   5.916   5.546   4.207 -0.0995  0.0568 -1.1599
  188POPC  H14Y21741   5.916   5.708   4.282 -1.9225 -3.0772  2.2322
  188POPC  C31521742   6.097   5.588   4.308 -1.1800 -0.0447 -0.3308
  188POPC  H15X21743   6.181   5.659   4.290 -1.6793  0.4232 -0.8505
  188POPC  H15Y21744   6.115   5.486   4.266 -2.8697  0.0142 -1.2845
  188POPC  C31621745   6.065   5.582   4.458 -0.4358  0.3837 -0.0470
  188POPC  H16X21746   5.976   5.515   4.466 -0.6147  0.6745  0.4598
  188POPC  H16Y21747   6.015   5.673   4.497 -4.8216 -1.0400 -1.7162
  188POPC  H16Z21748   6.148   5.532   4.514  0.2738 -0.1695 -1.5558
  189SAPI   C1221749   6.609   4.188   6.389  0.1463 -0.3331 -0.5131
  189SAPI    H221750   6.522   4.224   6.330 -2.2809 -1.0240  2.3684
  189SAPI    O221751   6.720   4.255   6.354 -0.1156 -0.6832  0.7747
  189SAPI   HO221752   6.739   4.233   6.262  0.9466 -2.0605  1.2872
  189SAPI   C1321753   6.572   4.193   6.539  0.0693 -0.4828 -0.3447
  189SAPI    H321754   6.499   4.111   6.553 -0.9695  0.3715 -0.6273
  189SAPI    O321755   6.503   4.311   6.575  0.4315 -0.5762 -0.2284
  189SAPI   HO321756   6.567   4.380   6.592 -0.0195 -0.4471  1.1421
  189SAPI   C1421757   6.694   4.162   6.626  0.0326  0.0364 -0.0260
  189SAPI    H421758   6.769   4.241   6.606 -1.1753  1.4513  0.7762
  189SAPI    O421759   6.674   4.170   6.766  0.3474 -0.2312 -0.0556
  189SAPI   HO421760   6.647   4.260   6.787 -0.3011 -0.3641 -0.2931
  189SAPI   C1521761   6.763   4.031   6.577  0.8618 -0.2860  1.2051
  189SAPI    H521762   6.714   3.955   6.641 -0.5655 -1.1571 -0.8255
  189SAPI    O521763   6.900   4.014   6.618  0.0094 -0.0455 -0.1630
  189SAPI   HO521764   6.956   4.075   6.570  0.9979  2.1457  3.4097
  189SAPI   C1621765   6.743   3.978   6.431 -0.2449 -1.3367  0.2814
  189SAPI    H621766   6.838   4.004   6.381 -0.8939  1.6377  0.4337
  189SAPI    O621767   6.751   3.840   6.430  0.2619 -0.1060 -0.0477
  189SAPI   HO621768   6.822   3.816   6.370  0.0680 -1.2159  0.1549
  189SAPI   C1121769   6.634   4.043   6.349 -0.0748  0.3133 -0.1408
  189SAPI    H121770   6.545   3.981   6.374  1.8322 -2.2249  0.7775
  189SAPI     P21771   6.586   3.916   6.112 -0.5880  0.5734 -0.1613
  189SAPI   O1321772   6.503   3.825   6.196 -0.4437 -0.2426  0.2581
  189SAPI   O1421773   6.689   3.864   6.021 -0.6695 -0.2063 -0.2020
  189SAPI   O1221774   6.661   4.031   6.206 -0.0006 -0.2124 -0.5042
  189SAPI   O1121775   6.481   4.004   6.028  0.6007  0.4163  0.4202
  189SAPI    C121776   6.372   4.080   6.078 -0.8177  0.1509 -0.1766
  189SAPI    HA21777   6.285   4.010   6.070 -0.7250 -0.5709  3.4930
  189SAPI    HB21778   6.377   4.095   6.188  1.0499  1.7019 -0.4380
  189SAPI    C221779   6.362   4.215   6.007  0.0809  0.3998  0.2189
  189SAPI    HS21780   6.286   4.284   6.050  0.2886  1.4103 -0.9698
  189SAPI   O2121781   6.338   4.211   5.866  0.0831  0.7175 -0.1836
  189SAPI   C2121782   6.217   4.205   5.824  0.0736 -0.2422 -0.6694
  189SAPI   O2221783   6.114   4.193   5.893 -0.4932  0.4144 -0.1389
  189SAPI   C2221784   6.219   4.193   5.666  0.6456 -1.0892  0.5457
  189SAPI   H2R21785   6.301   4.255   5.624  0.0955 -1.6549 -1.4936
  189SAPI   H2S21786   6.250   4.088   5.645  0.4527 -1.3528  1.5376
  189SAPI    C321787   6.492   4.300   6.008 -0.0071  0.5162  1.0585
  189SAPI    HX21788   6.572   4.231   5.974  0.9139  0.3556  3.3917
  189SAPI    HY21789   6.518   4.316   6.115  1.7547 -1.2180  0.9469
  189SAPI   O3121790   6.486   4.421   5.927 -0.1778 -0.8575 -0.1736
  189SAPI   C3121791   6.505   4.536   5.989 -0.0990  0.3093  0.4298
  189SAPI   O3221792   6.547   4.549   6.103  0.1641  0.4083  0.5093
  189SAPI   C3221793   6.480   4.656   5.899 -0.3703  0.7346  0.0393
  189SAPI   H2X21794   6.570   4.679   5.838 -0.2262  1.5266  0.5321
  189SAPI   H2Y21795   6.484   4.744   5.967  1.5000  0.1118  0.8159
  189SAPI   C2321796   6.081   4.215   5.604 -0.4758  0.1706  0.7860
  189SAPI   H3R21797   6.004   4.151   5.652 -0.7914 -0.4560 -0.5000
  189SAPI   H3S21798   6.094   4.162   5.507  1.7524 -0.9609  1.6179
  189SAPI   C2421799   6.035   4.353   5.588  0.1272  0.2394 -1.0185
  189SAPI   H4R21800   6.017   4.390   5.692 -0.9560  1.3268 -1.5707
  189SAPI   H4S21801   5.932   4.340   5.548  0.1801 -2.6363 -0.4836
  189SAPI   C2521802   6.128   4.441   5.513  0.2794  0.0552 -0.2725
  189SAPI   H5R21803   6.213   4.482   5.569  0.6065 -0.7939 -0.1361
  189SAPI   C2621804   6.117   4.486   5.387 -0.7079  0.1413  0.2180
  189SAPI   H6R21805   6.200   4.543   5.342 -1.2463  0.0529 -0.9125
  189SAPI   C2721806   6.010   4.432   5.298 -0.3471  0.5322 -0.3433
  189SAPI   H7R21807   5.910   4.466   5.333 -0.7836 -0.5397 -0.5152
  189SAPI   H7S21808   6.017   4.321   5.297 -1.6602  0.3865  1.3703
  189SAPI   C2821809   6.026   4.482   5.163 -0.2483 -0.2191  0.6578
  189SAPI   H8R21810   6.096   4.566   5.148 -1.6748  0.7406 -1.0837
  189SAPI   C2921811   5.986   4.418   5.055  0.1025 -0.5252 -0.2522
  189SAPI   H9R21812   6.009   4.456   4.954  1.2068 -0.0318  0.1716
  189SAPI  C21021813   5.889   4.300   5.055  1.1993 -0.3674 -0.4959
  189SAPI  H10R21814   5.815   4.305   4.972  1.4903 -1.0463 -0.8022
  189SAPI  H10S21815   5.825   4.285   5.144  1.4569 -2.3566 -0.5996
  189SAPI  C21121816   5.958   4.170   5.040 -0.5327 -0.3795  0.4293
  189SAPI  H11R21817   5.997   4.130   5.135  1.5185  1.6005  0.4974
  189SAPI  C21221818   5.965   4.101   4.924 -0.0092 -0.3313  0.2777
  189SAPI  H12R21819   6.034   4.016   4.929  1.0431  0.2190 -2.7571
  189SAPI  C21321820   5.924   4.153   4.784 -0.6761  0.1486 -0.1821
  189SAPI  H13R21821   5.987   4.242   4.763  1.1505 -0.9464  0.4445
  189SAPI  H13S21822   5.820   4.191   4.775 -1.8981 -1.4141  4.5503
  189SAPI  C21421823   5.952   4.051   4.677 -0.0049  0.3371  0.1440
  189SAPI  H14R21824   6.057   4.024   4.654 -0.8085 -3.0998  0.0191
  189SAPI  C21521825   5.850   3.974   4.625  0.6848 -0.4133  0.1626
  189SAPI  H15R21826   5.881   3.891   4.560 -0.2264  0.4445 -1.4700
  189SAPI  C21621827   5.707   3.974   4.669  0.4566  1.0247  0.2804
  189SAPI  H16R21828   5.708   4.002   4.777 -0.2547 -1.5657  1.0294
  189SAPI  H16S21829   5.661   3.874   4.662  0.6159  1.0610 -2.1508
  189SAPI  C21721830   5.608   4.064   4.595 -0.2278 -0.3860  0.3475
  189SAPI  H17R21831   5.607   4.044   4.486  2.3610 -0.0248  0.1882
  189SAPI  H17S21832   5.639   4.171   4.598  0.6392 -0.5456 -1.4372
  189SAPI  C21821833   5.477   4.066   4.663  0.2753  0.2986  0.2763
  189SAPI  H18R21834   5.463   4.143   4.741 -1.6521  0.2776 -0.0123
  189SAPI  H18S21835   5.436   3.972   4.707 -3.1754  0.3868 -2.3155
  189SAPI  C21921836   5.367   4.091   4.559  0.2114 -0.2999 -0.3644
  189SAPI  H19R21837   5.390   4.184   4.503  1.3648 -0.2574  0.1437
  189SAPI  H19S21838   5.270   4.123   4.601  0.3906  1.1614 -1.0191
  189SAPI  C22021839   5.351   3.988   4.446 -0.8341  0.2185 -0.0074
  189SAPI  H20R21840   5.250   4.005   4.403 -0.9184  0.9457  0.4530
  189SAPI  H20S21841   5.354   3.887   4.493  0.1803  0.7854  1.2208
  189SAPI  H20T21842   5.421   4.007   4.362 -0.1244 -1.9514  0.0259
  189SAPI   C3321843   6.362   4.641   5.806 -0.1246  0.7259  0.1579
  189SAPI   H3X21844   6.260   4.646   5.849 -0.0972  0.7998  0.2154
  189SAPI   H3Y21845   6.370   4.547   5.749 -0.8759  0.5231  0.3797
  189SAPI   C3421846   6.369   4.759   5.706 -0.6620 -0.5157 -0.6263
  189SAPI   H4X21847   6.452   4.749   5.633  1.5346  0.3759  1.6081
  189SAPI   H4Y21848   6.395   4.854   5.758 -1.4411 -1.0945  0.8928
  189SAPI   C3521849   6.229   4.790   5.651  0.2455 -0.2948 -0.2197
  189SAPI   H5X21850   6.158   4.799   5.736 -3.3646  0.3149 -3.0124
  189SAPI   H5Y21851   6.187   4.709   5.588  0.1286 -1.4613  1.3068
  189SAPI   C3621852   6.209   4.932   5.588 -0.0023  0.2065  0.1564
  189SAPI   H6X21853   6.259   5.000   5.660 -1.9262  2.6373 -0.6367
  189SAPI   H6Y21854   6.100   4.951   5.586 -0.5035 -1.8216  2.7499
  189SAPI   C3721855   6.274   4.946   5.445 -0.0831  0.2919  0.4081
  189SAPI   H7X21856   6.371   4.892   5.447 -0.3312 -0.1854  2.9286
  189SAPI   H7Y21857   6.284   5.054   5.419  0.3565 -0.0671 -0.9983
  189SAPI   C3821858   6.183   4.883   5.338  0.4310  0.5619  0.3912
  189SAPI   H8X21859   6.086   4.922   5.377  0.7840  0.9691  0.8730
  189SAPI   H8Y21860   6.186   4.772   5.341  3.4682  0.4449 -2.0791
  189SAPI   C3921861   6.215   4.920   5.195 -0.4610 -0.5264  0.6672
  189SAPI   H9X21862   6.314   4.873   5.178 -0.9386 -0.9407 -1.2057
  189SAPI   H9Y21863   6.231   5.029   5.185  1.6677 -1.0447 -3.7569
  189SAPI  C31021864   6.110   4.875   5.094 -0.0076 -0.3817  0.3819
  189SAPI  H10X21865   6.019   4.939   5.104 -0.9715 -1.3297 -1.6871
  189SAPI  H10Y21866   6.082   4.770   5.115  0.6160 -0.1925  2.3906
  189SAPI  C31121867   6.165   4.880   4.951 -0.0985  0.0654  0.3725
  189SAPI  H11X21868   6.266   4.835   4.957 -0.1753 -0.3116 -0.8636
  189SAPI  H11Y21869   6.178   4.988   4.932 -1.0029  0.4818  1.8980
  189SAPI  C31221870   6.078   4.812   4.847  0.6864 -0.0533 -1.0150
  189SAPI  H12X21871   6.078   4.701   4.858 -0.6328 -0.0822 -1.1825
  189SAPI  H12Y21872   6.119   4.837   4.747  3.1971 -0.3056 -0.1313
  189SAPI  C31321873   5.931   4.858   4.851 -0.1406 -0.2017  0.2690
  189SAPI  H13X21874   5.919   4.968   4.854 -0.4601 -0.2513  1.5638
  189SAPI  H13Y21875   5.892   4.828   4.951 -2.5191  2.1514  0.1510
  189SAPI  C31421876   5.843   4.793   4.749 -0.7211 -1.0680 -0.6868
  189SAPI  H14X21877   5.845   4.842   4.649 -1.2620 -0.1109 -0.2419
  189SAPI  H14Y21878   5.740   4.796   4.789 -0.7469 -1.7966 -0.6888
  189SAPI  C31521879   5.885   4.645   4.708 -1.0246 -0.4152  0.4316
  189SAPI  H15X21880   5.886   4.570   4.790 -1.0215 -1.5909 -0.6118
  189SAPI  H15Y21881   5.993   4.643   4.679 -0.4472  1.1889  2.2750
  189SAPI  C31621882   5.799   4.582   4.600  0.0242  0.0105  0.2311
  189SAPI  H16X21883   5.811   4.635   4.503 -1.6300 -1.9641 -1.1325
  189SAPI  H16Y21884   5.691   4.580   4.627 -0.6906  0.3843 -2.3355
  189SAPI  C31721885   5.852   4.448   4.568 -0.1157  0.2342 -0.3890
  189SAPI  H17X21886   5.820   4.391   4.658  2.2143 -0.6207 -0.0142
  189SAPI  H17Y21887   5.962   4.461   4.553 -0.2301 -1.6366 -3.6425
  189SAPI  C31821888   5.797   4.381   4.444 -0.3026  0.5484 -0.7364
  189SAPI  H18X21889   5.824   4.429   4.348  1.4461  1.1004  0.0111
  189SAPI  H18Y21890   5.686   4.394   4.451 -0.4438 -0.5107 -0.8131
  189SAPI  H18Z21891   5.821   4.273   4.431  0.9075  0.3904  2.0191
  190SAPI   C1221892   5.940   3.466   6.854  0.4579  0.5624  0.7192
  190SAPI    H221893   5.918   3.442   6.747 -2.4673  1.0722  1.1173
  190SAPI    O221894   5.870   3.582   6.890  0.7094 -0.0650 -0.3567
  190SAPI   HO221895   5.887   3.651   6.825  3.2148  1.8045  2.0408
  190SAPI   C1321896   5.882   3.351   6.942 -0.5113  0.4716  0.4021
  190SAPI    H321897   5.939   3.261   6.910  0.3893  0.9895  0.5016
  190SAPI    O321898   5.749   3.311   6.897 -0.0513 -0.3613 -0.3785
  190SAPI   HO321899   5.699   3.389   6.871  1.9731  1.2175  0.1951
  190SAPI   C1421900   5.908   3.368   7.085 -0.3148 -0.0182  0.2938
  190SAPI    H421901   5.835   3.448   7.110 -0.8083 -0.7429  1.2413
  190SAPI    O421902   5.873   3.256   7.172 -0.4515 -0.3205  0.6754
  190SAPI   HO421903   5.865   3.294   7.259  0.6932  2.5659 -0.3516
  190SAPI   C1521904   6.047   3.423   7.111  0.1348  0.3341  0.5368
  190SAPI    H521905   6.098   3.325   7.122 -3.0269 -1.1773  3.4319
  190SAPI    O521906   6.054   3.477   7.245 -0.0266 -0.3516 -0.1762
  190SAPI   HO521907   6.102   3.410   7.294  2.0227  0.3729 -1.1025
  190SAPI   C1621908   6.127   3.505   7.007  0.3748 -0.2192 -0.1736
  190SAPI    H621909   6.098   3.612   7.014  0.8123  0.0752 -2.3033
  190SAPI    O621910   6.266   3.500   7.019 -0.2885  0.3694  0.4721
  190SAPI   HO621911   6.300   3.465   6.937 -0.6377 -1.0449  0.9144
  190SAPI   C1121912   6.092   3.471   6.864  0.1787 -0.5737  0.2699
  190SAPI    H121913   6.127   3.370   6.836 -0.2592 -0.2747 -1.4777
  190SAPI     P21914   6.265   3.538   6.672 -0.1369  0.1969 -0.3007
  190SAPI   O1321915   6.359   3.447   6.745 -0.3966 -0.2227  0.8012
  190SAPI   O1421916   6.326   3.657   6.617  0.1418 -0.0559  0.2566
  190SAPI   O1221917   6.140   3.572   6.777  0.2127 -0.6420 -0.0706
  190SAPI   O1121918   6.183   3.460   6.562  0.5268  1.0271  0.2530
  190SAPI    C121919   6.095   3.536   6.490 -0.6649  0.0033  0.9996
  190SAPI    HA21920   6.002   3.540   6.550 -1.1162  0.6172  0.2722
  190SAPI    HB21921   6.125   3.641   6.468  0.2363 -0.0838  1.7530
  190SAPI    C221922   6.068   3.472   6.349 -0.0037 -0.6223 -0.1680
  190SAPI    HS21923   5.997   3.390   6.371 -1.1861 -0.0148 -1.6239
  190SAPI   O2121924   6.195   3.432   6.282  0.1355  0.1037  0.8233
  190SAPI   C2121925   6.179   3.329   6.199 -0.2251 -0.4991  0.1269
  190SAPI   O2221926   6.079   3.259   6.188 -0.1787 -0.3322 -0.2778
  190SAPI   C2221927   6.312   3.309   6.118  0.2021  0.2711  0.5169
  190SAPI   H2R21928   6.384   3.387   6.151  0.1618 -1.0485  4.0637
  190SAPI   H2S21929   6.344   3.210   6.155 -2.9236 -1.4917 -1.1158
  190SAPI    C321930   5.977   3.576   6.261 -0.7975 -0.6093 -0.4674
  190SAPI    HX21931   6.042   3.665   6.250 -4.1321  2.4432  2.0205
  190SAPI    HY21932   5.886   3.601   6.321 -1.2654 -1.7778 -0.6578
  190SAPI   O3121933   5.942   3.523   6.136  0.2082 -0.0674  0.1575
  190SAPI   C3121934   5.834   3.443   6.133  0.2685  0.0309 -0.6819
  190SAPI   O3221935   5.785   3.385   6.230  0.2840  0.1928  0.1337
  190SAPI   C3221936   5.771   3.450   5.997  0.1023 -0.4105 -0.1024
  190SAPI   H2X21937   5.724   3.551   5.987 -0.5080 -0.8251 -1.7091
  190SAPI   H2Y21938   5.699   3.366   5.993 -1.0974  0.6256 -1.1735
  190SAPI   C2321939   6.287   3.300   5.965 -0.1930 -0.6832 -1.0528
  190SAPI   H3R21940   6.259   3.400   5.927 -1.4570 -0.1715  1.0935
  190SAPI   H3S21941   6.199   3.233   5.953  1.4036 -3.2940  0.7920
  190SAPI   C2421942   6.396   3.233   5.880 -0.5126  0.0801  0.6473
  190SAPI   H4R21943   6.384   3.268   5.775  3.3629  2.5328  0.7987
  190SAPI   H4S21944   6.396   3.123   5.893 -0.6328 -0.0598 -0.4783
  190SAPI   C2521945   6.527   3.291   5.909 -0.6677  0.3850 -0.0591
  190SAPI   H5R21946   6.576   3.235   5.990 -1.8930 -0.8556 -0.1202
  190SAPI   C2621947   6.590   3.403   5.861 -0.3675 -0.0450 -0.3703
  190SAPI   H6R21948   6.691   3.425   5.901 -0.5106 -0.2779  0.1246
  190SAPI   C2721949   6.541   3.507   5.763 -0.2654  1.1049  0.4156
  190SAPI   H7R21950   6.455   3.473   5.702  2.3171 -2.9159 -1.3873
  190SAPI   H7S21951   6.621   3.532   5.690  0.6334  1.8293  1.6011
  190SAPI   C2821952   6.498   3.633   5.829 -0.0345 -0.2515  0.0599
  190SAPI   H8R21953   6.490   3.625   5.938 -1.3680 -0.3338 -0.0267
  190SAPI   C2921954   6.463   3.749   5.772  0.0188  0.3929  0.3625
  190SAPI   H9R21955   6.431   3.829   5.841  0.3358  0.2860  0.6354
  190SAPI  C21021956   6.433   3.782   5.632  0.6213  0.0668  0.8037
  190SAPI  H10R21957   6.353   3.857   5.614  0.8998  0.8507  2.6818
  190SAPI  H10S21958   6.405   3.690   5.576  1.1477  1.3080 -1.6486
  190SAPI  C21121959   6.552   3.855   5.577 -0.0603 -0.1195 -0.2075
  190SAPI  H11R21960   6.593   3.935   5.640 -1.9647 -0.3902  1.4562
  190SAPI  C21221961   6.608   3.843   5.452 -1.2090  0.4891  0.1229
  190SAPI  H12R21962   6.681   3.920   5.423 -0.3678 -0.6714 -0.9478
  190SAPI  C21321963   6.557   3.740   5.347 -0.3202 -0.7939 -0.6119
  190SAPI  H13R21964   6.524   3.792   5.255  0.8142 -0.5838 -0.9168
  190SAPI  H13S21965   6.466   3.682   5.372 -1.5879  0.5312 -1.9733
  190SAPI  C21421966   6.665   3.652   5.298 -0.1957  0.0853  0.3506
  190SAPI  H14R21967   6.666   3.551   5.341 -1.8759  0.2729  0.9088
  190SAPI  C21521968   6.777   3.674   5.227 -0.4194  0.7268  0.8912
  190SAPI  H15R21969   6.846   3.594   5.196 -0.2430  0.7978  1.0988
  190SAPI  C21621970   6.814   3.807   5.162  0.7280  0.3655  0.2606
  190SAPI  H16R21971   6.889   3.864   5.222  1.2124  0.7461 -0.6849
  190SAPI  H16S21972   6.731   3.881   5.159  0.8214  0.4393 -2.5354
  190SAPI  C21721973   6.865   3.801   5.021  0.2198 -0.4435  0.0764
  190SAPI  H17R21974   6.921   3.705   5.019 -1.0710 -1.2507  0.8911
  190SAPI  H17S21975   6.929   3.887   4.996 -0.0222 -0.1038  0.6110
  190SAPI  C21821976   6.754   3.789   4.910 -0.3413 -0.1677  0.7255
  190SAPI  H18R21977   6.669   3.861   4.901  0.5533  0.7286 -1.5082
  190SAPI  H18S21978   6.709   3.693   4.942 -1.1487 -0.2419 -0.5263
  190SAPI  C21921979   6.822   3.778   4.771 -0.5038  0.3500  0.3822
  190SAPI  H19R21980   6.889   3.690   4.781  0.5230  1.0196 -0.3686
  190SAPI  H19S21981   6.880   3.871   4.751 -1.2473  0.6499 -0.5062
  190SAPI  C22021982   6.731   3.756   4.653  0.2796 -0.1430 -0.1851
  190SAPI  H20R21983   6.660   3.671   4.667 -0.7613  0.6949 -0.1847
  190SAPI  H20S21984   6.789   3.744   4.560  1.3952  0.2701  0.4480
  190SAPI  H20T21985   6.661   3.840   4.636  0.6169 -0.0209 -0.9996
  190SAPI   C3321986   5.877   3.440   5.885 -0.2184  0.4571  0.1600
  190SAPI   H3X21987   5.959   3.374   5.920  1.3246  1.5365 -1.2511
  190SAPI   H3Y21988   5.922   3.540   5.869 -0.6240  0.4275 -1.2699
  190SAPI   C3421989   5.817   3.389   5.752 -0.4080  0.2766 -0.6207
  190SAPI   H4X21990   5.769   3.476   5.701 -1.1569 -0.2954 -0.9024
  190SAPI   H4Y21991   5.737   3.318   5.781 -0.5204  0.1989 -1.1028
  190SAPI   C3521992   5.923   3.316   5.669 -0.4439  0.5010 -0.0291
  190SAPI   H5X21993   5.897   3.283   5.566 -1.4469  1.4772 -0.1066
  190SAPI   H5Y21994   5.972   3.235   5.727  1.1584  1.2027 -0.3343
  190SAPI   C3621995   6.040   3.407   5.630  0.2593  0.0185 -0.4055
  190SAPI   H6X21996   6.080   3.469   5.713 -1.3664 -0.9225  1.1403
  190SAPI   H6Y21997   5.999   3.467   5.546  0.6527  1.2679  0.2735
  190SAPI   C3721998   6.154   3.324   5.564  1.4048  0.4384 -0.2021
  190SAPI   H7X21999   6.116   3.269   5.475  2.2420  2.3674 -1.8424
  190SAPI   H7Y22000   6.203   3.252   5.633  1.7347  1.0356  0.1964
  190SAPI   C3822001   6.255   3.419   5.501 -0.0638 -0.3326 -0.3565
  190SAPI   H8X22002   6.287   3.481   5.588  0.4299 -2.2921  0.9322
  190SAPI   H8Y22003   6.196   3.487   5.437 -2.3107 -1.0075  0.8855
  190SAPI   C3922004   6.386   3.365   5.446 -0.1910 -0.3810  0.4118
  190SAPI   H9X22005   6.454   3.352   5.533 -0.5843  0.0468  0.7886
  190SAPI   H9Y22006   6.428   3.450   5.388 -2.9753 -1.1162 -2.9784
  190SAPI  C31022007   6.373   3.243   5.358  0.1120 -0.1639 -1.6395
  190SAPI  H10X22008   6.346   3.151   5.413  0.0578  1.5232  1.3826
  190SAPI  H10Y22009   6.478   3.231   5.324  0.4828  1.8664 -1.3349
  190SAPI  C31122010   6.299   3.254   5.223 -0.0577  0.6461  0.4354
  190SAPI  H11X22011   6.188   3.256   5.233 -0.3032 -1.7465 -1.0367
  190SAPI  H11Y22012   6.319   3.154   5.179  0.1251  0.6134  0.5937
  190SAPI  C31222013   6.347   3.374   5.131  0.2721  0.5879  0.0165
  190SAPI  H12X22014   6.453   3.343   5.117  0.3207 -0.6725  2.4899
  190SAPI  H12Y22015   6.336   3.466   5.192 -1.1384  2.8300 -3.3541
  190SAPI  C31322016   6.281   3.390   4.993 -0.1095 -0.0754  0.3039
  190SAPI  H13X22017   6.285   3.292   4.940  3.4381  1.6851 -3.1822
  190SAPI  H13Y22018   6.343   3.469   4.946  1.1753 -0.7186  0.8622
  190SAPI  C31422019   6.144   3.448   5.001  0.3034  0.0173  0.0290
  190SAPI  H14X22020   6.151   3.554   5.036 -1.6030  0.9860 -2.2323
  190SAPI  H14Y22021   6.079   3.399   5.077 -1.7719  1.2101 -0.8819
  190SAPI  C31522022   6.063   3.437   4.868 -0.8026 -0.5565  0.2369
  190SAPI  H15X22023   6.120   3.504   4.800 -0.9701 -0.2717  0.3755
  190SAPI  H15Y22024   5.962   3.481   4.881 -1.3545 -1.3247 -1.3302
  190SAPI  C31622025   6.052   3.303   4.803  0.2566 -0.0086  0.0642
  190SAPI  H16X22026   6.156   3.277   4.772  0.5358  0.4127  0.6287
  190SAPI  H16Y22027   5.984   3.314   4.716  0.3946 -0.1782 -0.0647
  190SAPI  C31722028   6.008   3.186   4.891  0.1011 -0.1694 -0.1191
  190SAPI  H17X22029   6.059   3.178   4.989 -1.2527  0.9644  0.7053
  190SAPI  H17Y22030   6.040   3.089   4.846 -0.3831 -0.4663  0.1701
  190SAPI  C31822031   5.856   3.176   4.914 -0.6078 -0.1273 -0.2673
  190SAPI  H18X22032   5.826   3.076   4.952  1.3725 -1.0478 -1.0267
  190SAPI  H18Y22033   5.801   3.198   4.820 -1.9520 -3.2049 -0.3259
  190SAPI  H18Z22034   5.819   3.250   4.988 -0.8892 -0.4276 -0.1044
  191SAPI   C1222035   4.917   1.678   2.317  0.1426  0.5983 -0.6717
  191SAPI    H222036   4.947   1.676   2.424 -0.1508 -0.0155 -0.5914
  191SAPI    O222037   4.843   1.800   2.290 -0.0901 -0.0168 -0.0592
  191SAPI   HO222038   4.751   1.777   2.304 -0.6966  0.5698 -2.6198
  191SAPI   C1322039   5.053   1.671   2.245 -1.1055  0.2650  0.7135
  191SAPI    H322040   5.112   1.587   2.287 -1.5688  0.0738  0.9888
  191SAPI    O322041   5.131   1.783   2.268 -0.3803 -0.5658  0.5307
  191SAPI   HO322042   5.189   1.768   2.343  1.6281  0.9489 -0.6194
  191SAPI   C1422043   5.038   1.652   2.095 -0.2921 -0.2064 -0.4139
  191SAPI    H422044   4.997   1.749   2.061 -1.8039 -0.9500 -0.8357
  191SAPI    O422045   5.163   1.632   2.025  0.1995  0.2065  0.2739
  191SAPI   HO422046   5.157   1.680   1.942  0.0176 -0.5267 -0.1442
  191SAPI   C1522047   4.941   1.545   2.051  0.1279  0.0868  0.3859
  191SAPI    H522048   5.000   1.454   2.074  0.5758  0.2793  0.0026
  191SAPI    O522049   4.908   1.542   1.907 -0.9104 -0.7627  0.7823
  191SAPI   HO522050   4.917   1.451   1.877 -0.2411 -1.2547  2.3780
  191SAPI   C1622051   4.816   1.521   2.137 -0.3931  0.1735 -0.2875
  191SAPI    H622052   4.733   1.592   2.113 -2.0686 -0.8775  2.0200
  191SAPI    O622053   4.776   1.387   2.130  0.0856 -0.6086 -0.5691
  191SAPI   HO622054   4.815   1.333   2.199  0.4081  0.6427  0.2592
  191SAPI   C1122055   4.835   1.557   2.289 -0.2920 -0.4163  0.4637
  191SAPI    H122056   4.903   1.473   2.314 -1.2875 -1.0316  1.1335
  191SAPI     P22057   4.675   1.438   2.468 -0.2653  0.0041  0.0864
  191SAPI   O1322058   4.769   1.326   2.456 -0.0507  0.4467  0.2803
  191SAPI   O1422059   4.533   1.407   2.448 -0.0469 -0.0186 -0.2097
  191SAPI   O1222060   4.712   1.557   2.354  0.0689 -0.1809 -0.0358
  191SAPI   O1122061   4.687   1.508   2.606  0.4467 -0.1313 -0.3890
  191SAPI    C122062   4.717   1.643   2.627  0.0167 -0.0561  0.5441
  191SAPI    HA22063   4.825   1.663   2.609  0.2125 -1.6287 -0.1736
  191SAPI    HB22064   4.650   1.710   2.568  0.0832 -1.5587 -1.3548
  191SAPI    C222065   4.695   1.673   2.770 -0.7988  0.2366 -0.3572
  191SAPI    HS22066   4.690   1.781   2.797 -2.5361  0.0482  0.2033
  191SAPI   O2122067   4.800   1.614   2.855  0.0805 -0.2018  0.7213
  191SAPI   C2122068   4.905   1.677   2.885 -0.8640  0.1191 -0.5313
  191SAPI   O2222069   4.926   1.799   2.868  0.0789 -0.0505 -0.0396
  191SAPI   C2222070   5.020   1.586   2.923  0.3029  0.0811 -0.3650
  191SAPI   H2R22071   4.992   1.549   3.024 -3.8770 -0.6390 -1.5586
  191SAPI   H2S22072   5.017   1.497   2.856 -0.7394 -0.4797  0.3884
  191SAPI    C322073   4.561   1.613   2.827 -0.5458  0.0182  0.0406
  191SAPI    HX22074   4.553   1.506   2.800  0.0104  0.0747 -0.3720
  191SAPI    HY22075   4.481   1.664   2.768  0.1955  0.0813 -0.9366
  191SAPI   O3122076   4.562   1.636   2.976  0.2838  0.2532 -0.2268
  191SAPI   C3122077   4.511   1.534   3.047  0.9065 -0.2454 -0.1651
  191SAPI   O3222078   4.455   1.435   3.005  0.2177  0.3497  0.5125
  191SAPI   C3222079   4.520   1.578   3.193  0.2926 -0.2264  0.4282
  191SAPI   H2X22080   4.459   1.669   3.211 -1.6724 -1.4513  0.2140
  191SAPI   H2Y22081   4.622   1.609   3.222  0.4274  1.0295 -1.2111
  191SAPI   C2322082   5.168   1.645   2.919  0.5182  0.6599 -0.4560
  191SAPI   H3R22083   5.160   1.755   2.906 -2.8672  0.3355 -2.3640
  191SAPI   H3S22084   5.223   1.616   2.828 -0.6203  1.6653 -1.5083
  191SAPI   C2422085   5.256   1.613   3.039  0.0382  0.1532 -0.4048
  191SAPI   H4R22086   5.228   1.680   3.124 -1.1493  0.3280 -0.9182
  191SAPI   H4S22087   5.359   1.647   3.015  0.8255 -2.0538 -0.3581
  191SAPI   C2522088   5.276   1.465   3.066  0.2124 -0.3836  0.3293
  191SAPI   H5R22089   5.234   1.388   2.999 -0.0511  0.5499 -0.6189
  191SAPI   C2622090   5.338   1.418   3.175 -0.5864 -0.3020  0.5115
  191SAPI   H6R22091   5.336   1.310   3.199 -1.2315 -0.0742  1.5509
  191SAPI   C2722092   5.399   1.509   3.282 -0.0235  0.0134  0.4170
  191SAPI   H7R22093   5.449   1.599   3.239 -1.1746  0.3445 -0.3023
  191SAPI   H7S22094   5.475   1.448   3.334 -2.8300 -0.9449  3.7388
  191SAPI   C2822095   5.293   1.553   3.383 -0.0186 -0.1407  0.1567
  191SAPI   H8R22096   5.205   1.602   3.337  2.7855  3.7725 -1.5608
  191SAPI   C2922097   5.300   1.562   3.519 -0.0376 -0.3558  0.2686
  191SAPI   H9R22098   5.209   1.588   3.574 -0.6327 -0.7743 -0.4982
  191SAPI  C21022099   5.410   1.518   3.604  0.1718  0.2210 -0.8010
  191SAPI  H10R22100   5.509   1.531   3.556  0.8583 -1.5266  0.0743
  191SAPI  H10S22101   5.391   1.409   3.613  1.1547  0.1846  1.1344
  191SAPI  C21122102   5.415   1.588   3.734 -0.0977 -0.1035  0.0904
  191SAPI  H11R22103   5.413   1.698   3.728 -0.7502 -0.0461  1.0925
  191SAPI  C21222104   5.389   1.533   3.853 -0.1146  0.6111  0.2569
  191SAPI  H12R22105   5.391   1.603   3.938 -1.3976  1.5096 -0.4302
  191SAPI  C21322106   5.358   1.386   3.890  0.2549 -0.0596  0.5646
  191SAPI  H13R22107   5.456   1.345   3.923  0.6633 -1.1940 -1.7970
  191SAPI  H13S22108   5.333   1.324   3.801  2.4918  1.3496 -1.1512
  191SAPI  C21422109   5.257   1.366   4.000 -0.0023  0.5083  0.3242
  191SAPI  H14R22110   5.160   1.328   3.964  0.1084  0.6709 -0.1529
  191SAPI  C21522111   5.277   1.397   4.133 -0.1764  0.3459  0.4937
  191SAPI  H15R22112   5.188   1.389   4.197 -1.1478 -0.7442 -0.9360
  191SAPI  C21622113   5.396   1.452   4.199  0.3106  0.4899  0.0614
  191SAPI  H16R22114   5.468   1.491   4.125  2.5893  0.4396  2.1282
  191SAPI  H16S22115   5.439   1.367   4.256 -1.1779 -0.2472  0.1380
  191SAPI  C21722116   5.363   1.566   4.304  1.1087  0.1503 -0.1108
  191SAPI  H17R22117   5.303   1.640   4.246 -0.4008 -1.4587 -0.6953
  191SAPI  H17S22118   5.453   1.619   4.341  1.5836 -0.3593 -0.5133
  191SAPI  C21822119   5.289   1.507   4.423  0.1192  0.6449 -0.8222
  191SAPI  H18R22120   5.207   1.435   4.401  1.6354 -1.4703  0.1005
  191SAPI  H18S22121   5.249   1.588   4.488  2.1371  0.1084  1.2331
  191SAPI  C21922122   5.387   1.421   4.515  0.4025 -0.2424 -0.6024
  191SAPI  H19R22123   5.486   1.468   4.532 -1.0906  1.9168  3.4679
  191SAPI  H19S22124   5.403   1.321   4.468  0.7666  0.5375 -2.2048
  191SAPI  C22022125   5.337   1.409   4.664 -0.1972 -0.3472 -0.3832
  191SAPI  H20R22126   5.352   1.508   4.713  0.7362 -1.2548  1.2334
  191SAPI  H20S22127   5.399   1.343   4.727  0.8255  1.2563  0.3598
  191SAPI  H20T22128   5.233   1.371   4.672 -1.3038  2.3053 -1.0174
  191SAPI   C3322129   4.464   1.470   3.295 -0.3260  0.2296 -0.2287
  191SAPI   H3X22130   4.513   1.376   3.261  0.6864  0.9084 -0.6830
  191SAPI   H3Y22131   4.357   1.448   3.276 -0.8148 -0.9204  3.1575
  191SAPI   C3422132   4.497   1.507   3.438  0.5121  0.0946 -1.2062
  191SAPI   H4X22133   4.447   1.601   3.470 -2.2250 -1.2073 -1.2997
  191SAPI   H4Y22134   4.604   1.533   3.448  0.3771 -0.0872  1.4684
  191SAPI   C3522135   4.481   1.387   3.535  0.4167  0.6296 -0.5317
  191SAPI   H5X22136   4.550   1.305   3.507 -0.2098  0.6655 -2.2439
  191SAPI   H5Y22137   4.376   1.355   3.520  0.4028  0.1965  0.4142
  191SAPI   C3622138   4.498   1.443   3.678 -0.0426 -0.1489  0.7812
  191SAPI   H6X22139   4.428   1.530   3.686 -2.3687 -2.0328  2.0909
  191SAPI   H6Y22140   4.603   1.476   3.691  0.5675 -0.8934 -1.7276
  191SAPI   C3722141   4.457   1.338   3.776 -0.6028  0.3987  0.2076
  191SAPI   H7X22142   4.509   1.244   3.746 -0.9657  0.6996 -1.4540
  191SAPI   H7Y22143   4.348   1.325   3.763 -0.6749  1.6443 -0.5521
  191SAPI   C3822144   4.491   1.376   3.919  0.5887 -0.8595  0.2257
  191SAPI   H8X22145   4.449   1.469   3.962  3.8643  1.1578 -0.5148
  191SAPI   H8Y22146   4.601   1.393   3.925  0.7477 -1.9761  0.7901
  191SAPI   C3922147   4.458   1.258   4.010 -0.1207  0.2094 -0.7795
  191SAPI   H9X22148   4.507   1.272   4.109 -0.0125 -0.2637 -0.7627
  191SAPI   H9Y22149   4.489   1.167   3.955  1.8549  0.5488 -0.3123
  191SAPI  C31022150   4.307   1.253   4.037 -0.0462 -0.1926  0.0443
  191SAPI  H10X22151   4.255   1.228   3.943 -0.0276  0.6390 -0.1905
  191SAPI  H10Y22152   4.265   1.346   4.080 -3.3333 -1.5236 -0.0038
  191SAPI  C31122153   4.278   1.138   4.133  0.2224  0.4769 -0.4058
  191SAPI  H11X22154   4.333   1.155   4.227 -0.7334  1.0225  0.0754
  191SAPI  H11Y22155   4.309   1.038   4.095  0.1054 -0.1076  0.9771
  191SAPI  C31222156   4.123   1.128   4.165 -0.5477 -0.0575 -0.6305
  191SAPI  H12X22157   4.107   1.027   4.210 -2.0266 -0.3036 -1.6129
  191SAPI  H12Y22158   4.058   1.125   4.075  0.0434  0.2004 -1.0729
  191SAPI  C31322159   4.073   1.253   4.236  0.6147  0.5769  0.2843
  191SAPI  H13X22160   4.060   1.348   4.181  2.8865  1.7085  1.5768
  191SAPI  H13Y22161   4.153   1.289   4.305  0.5108  0.2041  0.6014
  191SAPI  C31422162   3.944   1.228   4.317 -0.8220 -0.0652  0.6032
  191SAPI  H14X22163   3.956   1.130   4.368  1.6389 -0.3965 -0.4316
  191SAPI  H14Y22164   3.871   1.230   4.234  0.2319  1.3337 -0.3403
  191SAPI  C31522165   3.913   1.341   4.407 -0.1932 -0.0289  0.3052
  191SAPI  H15X22166   3.914   1.428   4.337 -1.7218 -0.1429  0.0956
  191SAPI  H15Y22167   4.000   1.356   4.474  0.4836  3.0088 -1.0830
  191SAPI  C31622168   3.787   1.327   4.494  0.6563  0.0341 -0.4818
  191SAPI  H16X22169   3.810   1.245   4.565  0.8552  2.2882  2.1962
  191SAPI  H16Y22170   3.704   1.295   4.427 -0.4523  2.8304 -0.5549
  191SAPI  C31722171   3.734   1.457   4.566  0.2385  0.5863  0.0322
  191SAPI  H17X22172   3.631   1.438   4.602  0.3358 -1.8265 -0.7946
  191SAPI  H17Y22173   3.735   1.546   4.499 -1.2383  0.6584  0.0894
  191SAPI  C31822174   3.813   1.495   4.697 -0.6770  0.3812  0.0261
  191SAPI  H18X22175   3.920   1.513   4.673 -0.5633 -1.9713 -1.7076
  191SAPI  H18Y22176   3.817   1.405   4.762  0.1802  0.2203 -0.2356
  191SAPI  H18Z22177   3.777   1.580   4.759  0.9393 -0.0735  1.6343
  192SAPI   C1222178   3.588   0.104   1.925 -0.1885 -0.2794 -0.5555
  192SAPI    H222179   3.641   0.008   1.905 -1.9014 -1.9704  2.2308
  192SAPI    O222180   3.644   0.211   1.853  0.0620 -0.4815  0.0809
  192SAPI   HO222181   3.732   0.224   1.888  0.6153 -0.1810 -1.3457
  192SAPI   C1322182   3.440   0.084   1.907 -0.1784  0.2160 -0.3734
  192SAPI    H322183   3.416  -0.013   1.955 -1.4321 -0.3803 -2.0691
  192SAPI    O322184   3.407   0.054   1.768 -0.3569 -0.2564 -0.4111
  192SAPI   HO322185   3.446   0.127   1.719 -1.7094  1.1603  0.5269
  192SAPI   C1422186   3.353   0.189   1.979  0.4633  0.1042  0.8680
  192SAPI    H422187   3.353   0.263   1.896  1.5384 -0.8235  0.0076
  192SAPI    O422188   3.220   0.133   1.994 -0.2218  0.4260 -0.6930
  192SAPI   HO422189   3.158   0.206   1.984 -0.7256  0.1886  0.5628
  192SAPI   C1522190   3.402   0.259   2.100 -0.8005  0.1523 -0.5086
  192SAPI    H522191   3.364   0.204   2.189  1.3972  0.1377  0.4886
  192SAPI    O522192   3.358   0.396   2.096  0.0249 -0.5072  0.0064
  192SAPI   HO522193   3.296   0.431   2.160  0.7229  1.6291 -0.4101
  192SAPI   C1622194   3.549   0.246   2.127  0.2241  0.0097 -0.6597
  192SAPI    H622195   3.596   0.331   2.073 -0.0446 -0.1778 -1.1994
  192SAPI    O622196   3.580   0.264   2.267  0.5375 -0.4242  0.3111
  192SAPI   HO622197   3.673   0.245   2.281  0.7056  0.8248  1.0365
  192SAPI   C1122198   3.614   0.118   2.072  0.5786  0.5019  0.0837
  192SAPI    H122199   3.565   0.035   2.128  0.0647  1.4581  1.0845
  192SAPI     P22200   3.841  -0.034   2.100 -0.0289 -0.1890 -0.6577
  192SAPI   O1322201   3.933  -0.036   1.986 -0.4249  0.2707 -0.4320
  192SAPI   O1422202   3.754  -0.151   2.102 -0.1436 -0.5030 -0.1138
  192SAPI   O1222203   3.754   0.113   2.100 -0.0724  0.0709 -0.1092
  192SAPI   O1122204   3.928  -0.045   2.236 -0.0394 -0.2439  0.0720
  192SAPI    C122205   3.925   0.074   2.316 -0.5714 -0.6575 -0.5683
  192SAPI    HA22206   3.952   0.160   2.251 -1.2699 -0.9749 -1.3019
  192SAPI    HB22207   3.825   0.105   2.353  0.7691  2.5034  0.7048
  192SAPI    C222208   4.028   0.063   2.435  0.6475 -0.0081 -0.2878
  192SAPI    HS22209   4.124   0.045   2.383  0.1229 -0.3897 -1.1392
  192SAPI   O2122210   3.978  -0.046   2.510 -0.1097  0.0919  0.2372
  192SAPI   C2122211   4.078  -0.111   2.568 -0.4271  0.1349 -0.5091
  192SAPI   O2222212   4.195  -0.083   2.553 -0.1231  0.0143 -0.4098
  192SAPI   C2222213   4.031  -0.234   2.643  0.4984  0.1196  0.1606
  192SAPI   H2R22214   3.923  -0.222   2.667  0.6974  1.1918  0.5837
  192SAPI   H2S22215   4.063  -0.326   2.589  0.0376  0.3654 -0.5477
  192SAPI    C322216   4.033   0.203   2.511 -0.3633  0.7713  0.0042
  192SAPI    HX22217   3.947   0.208   2.580 -2.4127 -2.1003 -2.1181
  192SAPI    HY22218   4.005   0.284   2.439  0.2601  3.6546  2.7931
  192SAPI   O3122219   4.165   0.231   2.566  0.4888 -0.1773 -0.1804
  192SAPI   C3122220   4.182   0.225   2.700  0.1202 -0.3398 -0.3447
  192SAPI   O3222221   4.092   0.216   2.783 -0.4054  0.1724  0.4349
  192SAPI   C3222222   4.329   0.243   2.734 -0.0796  0.7391 -0.4873
  192SAPI   H2X22223   4.361   0.343   2.698  0.6029  0.3050 -1.1292
  192SAPI   H2Y22224   4.377   0.168   2.668  1.4559  0.7875  0.5342
  192SAPI   C2322225   4.095  -0.234   2.783  0.1822 -0.0009  0.7460
  192SAPI   H3R22226   4.203  -0.216   2.763  0.5635 -1.9683  0.7952
  192SAPI   H3S22227   4.074  -0.327   2.839 -0.1952 -1.0035 -0.9723
  192SAPI   C2422228   4.037  -0.121   2.870  0.2994 -0.0594  0.2018
  192SAPI   H4R22229   3.927  -0.137   2.882 -0.1662  1.0232 -2.1287
  192SAPI   H4S22230   4.049  -0.023   2.820  0.3919 -0.0144  0.3116
  192SAPI   C2522231   4.116  -0.122   2.995 -0.8963  0.2303 -0.4574
  192SAPI   H5R22232   4.223  -0.114   2.967 -0.2691 -2.5690  0.8436
  192SAPI   C2622233   4.069  -0.145   3.120 -0.1755 -0.0691 -0.7226
  192SAPI   H6R22234   4.145  -0.132   3.198 -0.2720  0.5093 -0.7184
  192SAPI   C2722235   3.922  -0.166   3.150  0.2691 -0.0640 -0.6155
  192SAPI   H7R22236   3.913  -0.211   3.251  0.0080  1.0450 -0.1325
  192SAPI   H7S22237   3.873  -0.230   3.073 -1.3744  0.5540 -0.1290
  192SAPI   C2822238   3.848  -0.037   3.157 -0.5613 -0.2437 -0.5597
  192SAPI   H8R22239   3.836   0.023   3.066  1.9621  2.5910  0.8037
  192SAPI   C2922240   3.800   0.019   3.278 -0.3285 -0.5405 -0.4678
  192SAPI   H9R22241   3.748   0.116   3.264  0.5779 -0.0047 -0.1802
  192SAPI  C21022242   3.794  -0.033   3.423  0.4004 -0.3053 -0.0496
  192SAPI  H10R22243   3.895  -0.075   3.445  1.0846  1.7819  1.0563
  192SAPI  H10S22244   3.725  -0.120   3.426  0.2819 -0.1986  0.3852
  192SAPI  C21122245   3.758   0.073   3.523  0.1896  0.2700 -0.2501
  192SAPI  H11R22246   3.722   0.168   3.483 -0.4683  0.7895  1.4668
  192SAPI  C21222247   3.785   0.072   3.658 -0.3082 -0.6310  0.0541
  192SAPI  H12R22248   3.755   0.158   3.719  0.0601  0.6667 -1.5303
  192SAPI  C21322249   3.838  -0.044   3.734  0.4047  0.3545  0.2281
  192SAPI  H13R22250   3.912  -0.105   3.678 -1.8751 -0.5484 -1.9695
  192SAPI  H13S22251   3.752  -0.114   3.730  1.3820 -0.8528 -0.3524
  192SAPI  C21422252   3.894  -0.018   3.877  0.6777  0.1418 -0.7575
  192SAPI  H14R22253   4.001   0.009   3.875  0.7157  0.0523 -3.5102
  192SAPI  C21522254   3.827  -0.016   4.001 -0.5384  0.2317 -0.1134
  192SAPI  H15R22255   3.892  -0.013   4.090 -0.6601 -2.4024  0.1461
  192SAPI  C21622256   3.691  -0.050   4.036  0.1821 -0.0377  0.0015
  192SAPI  H16R22257   3.700  -0.113   4.127 -1.9881 -1.9336 -0.9829
  192SAPI  H16S22258   3.635  -0.112   3.963  0.4457 -0.3188  0.0391
  192SAPI  C21722259   3.621   0.085   4.053 -0.3245  0.2988 -0.0835
  192SAPI  H17R22260   3.638   0.153   3.967  2.1009 -2.4291 -1.9663
  192SAPI  H17S22261   3.659   0.124   4.149  3.5511 -1.3178 -0.7885
  192SAPI  C21822262   3.469   0.070   4.068 -0.7992  0.0460 -0.0475
  192SAPI  H18R22263   3.428   0.163   4.114 -1.6822 -0.9872  1.3361
  192SAPI  H18S22264   3.444  -0.005   4.146 -0.0144 -1.8691 -1.5607
  192SAPI  C21922265   3.387   0.038   3.938 -0.7637 -0.8349  0.2678
  192SAPI  H19R22266   3.416  -0.061   3.896 -1.9189 -1.1801  0.2252
  192SAPI  H19S22267   3.400   0.119   3.864  1.2473 -0.4261  1.0227
  192SAPI  C22022268   3.241   0.021   3.972  0.6941 -0.0599  0.2518
  192SAPI  H20R22269   3.229  -0.059   4.049  2.6212 -0.5337  0.1232
  192SAPI  H20S22270   3.186  -0.002   3.878  1.3200  1.0479 -0.4071
  192SAPI  H20T22271   3.198   0.118   4.003  1.6171 -0.0654  1.6138
  192SAPI   C3322272   4.376   0.227   2.883 -0.7156 -0.1884  0.1401
  192SAPI   H3X22273   4.486   0.229   2.898 -0.6308 -0.0332 -0.4572
  192SAPI   H3Y22274   4.356   0.122   2.913  1.6111 -1.7958 -3.2339
  192SAPI   C3422275   4.315   0.327   2.972 -0.0506  0.2293  0.0940
  192SAPI   H4X22276   4.207   0.314   2.995 -0.5151 -1.3955 -2.5440
  192SAPI   H4Y22277   4.293   0.420   2.916 -0.0325 -0.0232 -0.3431
  192SAPI   C3522278   4.376   0.356   3.111 -0.4527  0.1314 -0.2521
  192SAPI   H5X22279   4.314   0.432   3.163 -0.2057  1.4774 -1.8327
  192SAPI   H5Y22280   4.473   0.402   3.082 -0.9644  1.5260  0.1792
  192SAPI   C3622281   4.393   0.233   3.197  0.1225 -0.9529  0.0887
  192SAPI   H6X22282   4.478   0.169   3.166  1.8447  0.5120  1.5882
  192SAPI   H6Y22283   4.302   0.170   3.192 -0.6954  0.2347 -0.5338
  192SAPI   C3722284   4.442   0.278   3.337 -0.3165 -0.0895  0.5169
  192SAPI   H7X22285   4.370   0.352   3.378  1.4854  2.5374 -0.7857
  192SAPI   H7Y22286   4.538   0.334   3.334  0.2861 -1.0381  1.4815
  192SAPI   C3822287   4.480   0.157   3.434  0.4291 -0.0162  0.1448
  192SAPI   H8X22288   4.533   0.205   3.519 -0.4024  3.4179 -1.1028
  192SAPI   H8Y22289   4.544   0.092   3.371 -0.5936  0.1490 -1.1089
  192SAPI   C3922290   4.356   0.075   3.468  0.3021  0.2322  0.6476
  192SAPI   H9X22291   4.389  -0.009   3.532 -0.3512  0.5137  1.3662
  192SAPI   H9Y22292   4.313   0.042   3.371  0.6752  2.7178 -0.4484
  192SAPI  C31022293   4.243   0.157   3.536  0.1335 -0.3107  0.6529
  192SAPI  H10X22294   4.152   0.102   3.505 -0.0505  0.2835  0.1342
  192SAPI  H10Y22295   4.240   0.261   3.498  2.2825 -0.9415 -1.5051
  192SAPI  C31122296   4.243   0.150   3.693 -0.5138 -0.0382 -0.3729
  192SAPI  H11X22297   4.271   0.051   3.735  0.9718  0.6161  0.2484
  192SAPI  H11Y22298   4.137   0.166   3.722 -0.1005  3.0449 -0.2537
  192SAPI  C31222299   4.318   0.254   3.766 -0.2224  0.6418  0.5121
  192SAPI  H12X22300   4.276   0.354   3.744  0.1964  0.7112 -0.0082
  192SAPI  H12Y22301   4.422   0.261   3.726 -0.3517  0.1739  0.0781
  192SAPI  C31322302   4.315   0.232   3.915 -0.5205  0.1681  0.3905
  192SAPI  H13X22303   4.337   0.128   3.947  1.8046  0.5984  0.3708
  192SAPI  H13Y22304   4.216   0.262   3.956 -0.8755 -0.5665  0.0920
  192SAPI  C31422305   4.438   0.312   3.976 -0.0155 -0.2989 -0.3271
  192SAPI  H14X22306   4.420   0.419   3.953  0.5516  0.4764  2.4494
  192SAPI  H14Y22307   4.528   0.281   3.919 -0.2034 -0.0728 -0.7449
  192SAPI  C31522308   4.448   0.286   4.127  0.3910  0.0679 -0.5297
  192SAPI  H15X22309   4.427   0.179   4.147 -1.3033  0.4569 -0.0701
  192SAPI  H15Y22310   4.376   0.354   4.177  0.0822 -1.7476  1.6417
  192SAPI  C31622311   4.582   0.313   4.188 -0.1627  1.0851  0.5130
  192SAPI  H16X22312   4.608   0.421   4.181  2.9270  0.4324  0.6196
  192SAPI  H16Y22313   4.648   0.256   4.120 -0.3961 -0.4384  1.5214
  192SAPI  C31722314   4.604   0.260   4.327 -0.0078 -0.0068 -0.0418
  192SAPI  H17X22315   4.695   0.308   4.368 -0.2460  1.2623 -0.9248
  192SAPI  H17Y22316   4.613   0.151   4.309  0.5577  0.3359 -2.0835
  192SAPI  C31822317   4.498   0.282   4.433  0.2128  0.4826 -0.1354
  192SAPI  H18X22318   4.489   0.387   4.470 -0.4863  0.8005 -1.1606
  192SAPI  H18Y22319   4.507   0.216   4.522 -1.4061 -2.6690 -2.1459
  192SAPI  H18Z22320   4.398   0.269   4.387  0.0869  0.8248  0.0315
  193SOD    SOD22321   2.420   1.551   1.194 -0.2390  0.0307 -0.3475
  194SOD    SOD22322   2.067   0.939   6.862  0.0741  0.0952  0.3893
  195SOD    SOD22323   5.750   1.279   0.341  0.2258  0.0929  0.1990
  196SOD    SOD22324   5.592   2.984   1.657 -0.1794 -0.3241 -0.1289
  197SOD    SOD22325   3.687   0.218   1.442  0.1816 -0.3669  0.2263
  198SOD    SOD22326   3.750   1.620   6.373 -0.1440 -0.2068  0.4003
  199SOD    SOD22327   3.821   4.732   2.306  0.7025 -0.2764  0.0241
  200SOD    SOD22328   0.011   2.004   7.068  0.1729 -0.0015 -0.4519
  201SOD    SOD22329   3.404   3.945   7.645 -0.6452 -0.4832 -0.0562
  202SOD    SOD22330   6.022   2.665   7.385  0.3763  0.6187  0.2135
  203SOD    SOD22331   3.952   3.052   7.875  0.0670  0.0708 -0.0106
  204SOD    SOD22332   6.588   2.167   6.663  0.1031 -0.4258 -0.1487
  205SOD    SOD22333   2.830   1.769   1.979  0.0497 -0.6775  0.1488
  206SOD    SOD22334   0.234   3.544   6.464  0.0892  0.0379  0.2362
  207SOD    SOD22335   6.651   6.705   1.793  0.2992 -0.1386 -0.1063
  208SOD    SOD22336   2.374   5.891   0.083 -0.3921  0.4589  0.0681
  209SOD    SOD22337   1.727   6.093   7.903 -0.4383  0.9454  0.4992
  210SOD    SOD22338   1.999   1.393   0.516  0.3097  0.1992 -0.0159
  211SOD    SOD22339   6.642   5.310   8.471 -0.0635 -0.0071 -0.1249
  212SOD    SOD22340   0.796   6.997   0.237  0.0908 -0.1052  0.1773
  213SOD    SOD22341   5.473   5.313   2.058 -0.2668  0.1581  0.1686
  214SOD    SOD22342   0.689   4.233   7.198 -0.3364 -0.2309  0.0296
  215SOD    SOD22343   6.646   0.654   1.859 -0.1352  0.0602  0.1942
  216SOD    SOD22344   0.561   6.496   1.922  0.0163 -0.6635 -0.0124
  217SOD    SOD22345   1.765   4.430   6.444 -0.0353  0.1209 -0.1282
  218SOD    SOD22346   4.366   6.082   7.255 -0.3935  0.3061  0.0759
  219SOD    SOD22347   0.358   4.445   1.409  0.1457  0.3928  0.0957
  220SOD    SOD22348   3.381   3.063   0.431 -0.1953 -0.1967 -0.0121
  221SOD    SOD22349   2.263   2.660   6.536  0.1962  0.4437 -0.3217
  222SOD    SOD22350   3.336   1.371   6.801 -0.2020 -0.1631 -0.0974
  223SOD    SOD22351   5.727   3.682   0.890  0.3881  0.3173  0.4709
  224SOD    SOD22352   5.353   0.667   1.381 -0.1053 -0.1595  0.6246
  225SOD    SOD22353   4.977   0.841   6.528  0.2885 -0.0659 -0.3233
  226SOD    SOD22354   1.413   1.692   0.435  0.3641  0.6186 -0.5931
  227SOD    SOD22355   2.826   1.337   2.153  0.0205 -0.1304  0.3563
  228SOD    SOD22356   5.161   6.035   6.778 -0.1220  0.3599 -0.2098
  229SOD    SOD22357   0.459   2.934   2.078 -0.4466 -0.3288  0.3296
  230CLA    CLA22358   3.260   2.387   8.195 -0.3299 -0.2411 -0.2194
  231CLA    CLA22359   6.653   3.152   7.923  0.0571  0.1857 -0.4588
  232CLA    CLA22360   0.839   2.017   1.616 -0.1151 -0.1325 -0.6695
  233CLA    CLA22361   0.274   6.757   7.500  0.2179 -0.0587  0.0333
  234CLA    CLA22362   4.010   3.400   0.441  0.0682 -0.1611  0.0019
  235CLA    CLA22363   5.698   3.019   7.483  0.1138  0.5929 -0.1454
  236CLA    CLA22364   5.939   5.817   0.398  0.2857 -0.0544  0.3417
  237CLA    CLA22365   6.832   2.072   1.421 -0.1687  0.0258 -0.0959
  238CLA    CLA22366   3.468   1.494   1.430 -0.2441  0.0221 -0.8601
  239CLA    CLA22367   3.541   3.319   0.724  0.1616  0.9031 -0.1416
  240CLA    CLA22368   3.167   0.535   0.587 -0.0472  0.3216  0.4929
  241CLA    CLA22369   6.822   2.686   0.096  0.2564 -0.3886 -0.2442
  242CLA    CLA22370   1.189   5.420   7.433 -0.2153  0.1066 -0.5668
  243CLA    CLA22371   2.601   5.202   1.619 -0.2010 -0.3462  0.2566
  244CLA    CLA22372   1.140   1.146   1.428  0.1036 -0.0661  0.0394
  245CLA    CLA22373   2.818   5.074   0.606  0.2743 -0.1510  0.2474
  246CLA    CLA22374   3.990   6.930   7.724 -0.2141 -0.1328 -0.0530
  247TIP3   OH222375   2.498   5.040   8.407  0.1760 -0.2188  0.2253
  247TIP3    H122376   2.507   5.117   8.463 -3.4748  0.7036 -0.1762
  247TIP3    H222377   2.438   4.983   8.454 -1.6211 -0.1913 -1.8289
  248TIP3   OH222378   1.861   5.516   0.511 -0.3354 -0.4736  0.5879
  248TIP3    H122379   1.914   5.553   0.582  0.2226  0.3092 -0.2069
  248TIP3    H222380   1.847   5.590   0.451  1.0875 -1.5606 -1.2119
  249TIP3   OH222381   1.216   5.995   7.205  0.3740  0.4925  0.5450
  249TIP3    H122382   1.269   6.001   7.125 -0.0418 -0.0796  0.2191
  249TIP3    H222383   1.150   6.063   7.195 -2.0588 -1.9647 -1.4255
  250TIP3   OH222384   2.543   1.021   2.036  0.5308 -0.8325  0.2483
  250TIP3    H122385   2.484   1.017   2.112  1.4780 -0.8777  0.9932
  250TIP3    H222386   2.504   1.087   1.979 -0.3059 -0.9408  0.6785
  251TIP3   OH222387   4.724   1.687   0.671 -0.0479 -0.3808 -0.4270
  251TIP3    H122388   4.771   1.651   0.595  1.1437  0.7052 -0.2462
  251TIP3    H222389   4.696   1.774   0.643  1.4292  0.5202  0.7002
  252TIP3   OH222390   6.425   1.698   7.522  0.1027 -0.0598 -0.1796
  252TIP3    H122391   6.341   1.739   7.504 -0.8458 -0.6815  2.3414
  252TIP3    H222392   6.437   1.636   7.449 -1.4799  0.2525 -0.7574
  253TIP3   OH222393   0.900   0.135   7.962 -0.6477  0.4150 -0.6728
  253TIP3    H122394   0.878   0.047   7.992  0.1432  0.4630  0.0676
  253TIP3    H222395   0.820   0.165   7.919 -1.5466  0.0354  0.6565
  254TIP3   OH222396   5.565   5.387   6.575 -0.3596  0.6652 -0.3485
  254TIP3    H122397   5.526   5.462   6.529 -1.9641  0.5946  0.8162
  254TIP3    H222398   5.498   5.320   6.573  0.4234 -0.1522  0.0994
  255TIP3   OH222399   5.670   3.234   1.642 -0.3053 -0.1093 -0.6057
  255TIP3    H122400   5.603   3.296   1.613 -0.2623  0.7266  1.0155
  255TIP3    H222401   5.744   3.289   1.667  0.1777 -0.8985 -0.2669
  256TIP3   OH222402   6.635   4.692   7.129 -0.2855 -0.1926  0.3828
  256TIP3    H122403   6.564   4.712   7.189 -1.2545 -2.3515  0.0545
  256TIP3    H222404   6.687   4.626   7.175  1.4312  1.1909  0.5277
  257TIP3   OH222405   0.318   0.193   2.312  0.2851  0.4058  0.7003
  257TIP3    H122406   0.387   0.133   2.286  0.6317  1.3129 -0.5624
  257TIP3    H222407   0.338   0.274   2.265 -2.4054  0.2909 -0.8190
  258TIP3   OH222408   2.875   2.552   2.156 -0.6186 -0.2788  0.3430
  258TIP3    H122409   2.960   2.526   2.191 -0.0418  0.5095 -0.4309
  258TIP3    H222410   2.857   2.636   2.198 -0.8492 -0.2772  0.2416
  259TIP3   OH222411   0.709   3.734   0.626  0.2884 -0.4698  0.3187
  259TIP3    H122412   0.689   3.819   0.667 -1.0315 -0.2580 -0.7030
  259TIP3    H222413   0.781   3.700   0.678  0.8025  1.2439  0.8163
  260TIP3   OH222414   6.260   1.628   0.060 -0.2884  0.3163 -0.3179
  260TIP3    H122415   6.318   1.645  -0.014  0.2149 -1.5166 -0.3923
  260TIP3    H222416   6.190   1.574   0.024 -0.6334  0.3216  0.3266
  261TIP3   OH222417   1.766   2.228   7.537  0.5664  0.1640 -0.1334
  261TIP3    H122418   1.758   2.324   7.541 -0.1002  0.0802  0.7111
  261TIP3    H222419   1.687   2.199   7.492  1.6974  0.1210 -2.2282
  262TIP3   OH222420   2.848   0.111   6.165 -0.1112  0.1956  0.5095
  262TIP3    H122421   2.943   0.124   6.167 -0.0194 -0.1314 -0.8521
  262TIP3    H222422   2.837   0.018   6.187 -0.2165  0.5278  1.9356
  263TIP3   OH222423   4.395   5.628   1.867 -0.3369  0.1520 -0.4948
  263TIP3    H122424   4.338   5.565   1.821 -0.3467 -1.0396  1.0681
  263TIP3    H222425   4.408   5.589   1.953 -0.2983  2.3093  0.5207
  264TIP3   OH222426   3.648   5.768   1.831 -0.3038 -0.2873  0.2106
  264TIP3    H122427   3.661   5.863   1.826 -0.2107 -0.2184  1.3872
  264TIP3    H222428   3.727   5.735   1.875 -0.2140 -0.9470 -0.4290
  265TIP3   OH222429   6.801   4.660   7.501  0.7239  0.7389  0.4340
  265TIP3    H122430   6.895   4.661   7.485  0.7095  3.6980 -0.0196
  265TIP3    H222431   6.769   4.742   7.463 -2.0561 -0.1803  0.5619
  266TIP3   OH222432   2.322   4.664   1.693 -0.6988 -0.1837  0.4619
  266TIP3    H122433   2.390   4.731   1.684 -1.4128  0.4293 -0.5162
  266TIP3    H222434   2.242   4.707   1.664 -1.1096 -1.5728 -0.5507
  267TIP3   OH222435   0.551   0.370   6.787 -0.3304  0.1331  0.1148
  267TIP3    H122436   0.555   0.457   6.749  1.0487  0.7751  1.6114
  267TIP3    H222437   0.577   0.311   6.716  1.6145  1.2464 -0.1732
  268TIP3   OH222438   0.105   2.844   0.576 -0.0932  0.6182  0.6080
  268TIP3    H122439   0.037   2.845   0.644 -0.0739  0.4545  0.6302
  268TIP3    H222440   0.188   2.840   0.625 -0.0738  0.6662  0.5787
  269TIP3   OH222441   4.320   0.640   0.527 -0.3985  0.0786  0.1728
  269TIP3    H122442   4.395   0.650   0.467 -1.6993  1.2224 -1.3460
  269TIP3    H222443   4.258   0.585   0.479 -0.4205 -1.1994  1.5824
  270TIP3   OH222444   3.832   2.533   0.040  0.0551  0.1710 -0.1959
  270TIP3    H122445   3.855   2.476  -0.033 -2.1679  0.2579 -1.0586
  270TIP3    H222446   3.772   2.480   0.093 -0.1370  0.8910  0.3160
  271TIP3   OH222447   1.506   2.224   6.739  0.0561  0.0261  0.3740
  271TIP3    H122448   1.451   2.213   6.817  2.8941 -0.4384  2.4397
  271TIP3    H222449   1.527   2.135   6.711 -0.5264  0.1966 -0.6574
  272TIP3   OH222450   2.547   5.331   2.202 -0.3336 -0.3285  0.3861
  272TIP3    H122451   2.538   5.364   2.291 -1.1284 -3.0207  1.4076
  272TIP3    H222452   2.570   5.238   2.213  1.7729 -0.2456 -2.2397
  273TIP3   OH222453   2.488   1.373   8.439 -0.2572 -0.0512  0.4316
  273TIP3    H122454   2.485   1.398   8.347  0.7822 -1.0236  0.0998
  273TIP3    H222455   2.582   1.361   8.457 -0.5069 -0.8044  1.3358
  274TIP3   OH222456   1.989   1.542   6.945 -0.6586 -0.1133 -0.1856
  274TIP3    H122457   1.980   1.489   6.866 -1.1153 -0.1138 -0.1340
  274TIP3    H222458   1.985   1.632   6.914  0.7401 -0.0823 -0.3522
  275TIP3   OH222459   6.780   0.335   0.878  0.7630  0.2711 -0.0699
  275TIP3    H122460   6.704   0.377   0.839  0.9306 -1.2301 -2.1753
  275TIP3    H222461   6.855   0.384   0.844  0.8423  1.8388  2.1120
  276TIP3   OH222462   3.584   3.160   0.468 -0.1678  0.3300 -0.1234
  276TIP3    H122463   3.585   3.194   0.557  2.3467 -1.0745  0.4758
  276TIP3    H222464   3.624   3.229   0.415 -1.8394  1.2458 -0.2598
  277TIP3   OH222465   5.202   5.832   0.259 -0.4076 -0.1012 -1.0454
  277TIP3    H122466   5.174   5.883   0.335  0.0503 -0.8384 -0.3674
  277TIP3    H222467   5.274   5.883   0.222  0.1970 -0.3611 -0.2427
  278TIP3   OH222468   0.203   5.500   1.076  0.5963  0.0092 -0.2556
  278TIP3    H122469   0.164   5.539   1.154  0.6030 -0.2072 -0.1449
  278TIP3    H222470   0.294   5.529   1.077  0.3285  0.9200 -0.7751
  279TIP3   OH222471   1.901   4.784   0.580  0.3436  0.2223 -0.0910
  279TIP3    H122472   1.865   4.732   0.508  0.4743 -0.3494  0.2502
  279TIP3    H222473   1.993   4.795   0.557  0.5209 -0.4547  0.2652
  280TIP3   OH222474   4.412   1.996   1.873 -0.4743 -0.1984  0.4723
  280TIP3    H122475   4.338   2.042   1.913 -1.6815 -2.5389  1.1016
  280TIP3    H222476   4.470   1.977   1.947 -0.4453 -0.5315  0.3610
  281TIP3   OH222477   1.138   4.520   7.677 -0.5676  0.2223 -0.3101
  281TIP3    H122478   1.222   4.566   7.681 -0.2268 -0.2140 -1.8313
  281TIP3    H222479   1.080   4.572   7.733  0.5125  0.9466  0.1829
  282TIP3   OH222480   3.235   0.959   6.776  0.1177  0.3065 -0.1602
  282TIP3    H122481   3.191   0.958   6.691 -1.6202  2.6884  0.6100
  282TIP3    H222482   3.230   0.868   6.806  0.0621 -0.4185 -2.2287
  283TIP3   OH222483   0.789   0.213   7.630  0.0496 -0.0464 -0.3067
  283TIP3    H122484   0.709   0.187   7.676  0.2918  0.2499  0.2870
  283TIP3    H222485   0.760   0.282   7.570 -0.5145 -1.3504 -1.5797
  284TIP3   OH222486   5.300   6.899   6.730  0.3225  0.6195  0.3050
  284TIP3    H122487   5.372   6.890   6.668  0.4970 -0.6873  0.6689
  284TIP3    H222488   5.252   6.817   6.724 -0.9557  1.3451  0.3167
  285TIP3   OH222489   4.990   1.287   8.322  0.2217  0.5004 -0.4149
  285TIP3    H122490   5.067   1.342   8.307 -0.1205  0.9559 -0.5406
  285TIP3    H222491   5.022   1.216   8.377  0.4459  1.4107  0.6637
  286TIP3   OH222492   3.300   0.696   6.852 -0.4903  0.0657 -0.0217
  286TIP3    H122493   3.328   0.611   6.818  1.5876  0.3946  0.7606
  286TIP3    H222494   3.342   0.703   6.937  0.3272  2.3429 -0.5491
  287TIP3   OH222495   5.667   2.853   0.624 -0.0373 -0.1795  0.1741
  287TIP3    H122496   5.704   2.940   0.612  2.3033 -1.0393  0.6514
  287TIP3    H222497   5.580   2.869   0.661 -0.0920  1.9514 -0.7470
  288TIP3   OH222498   2.474   6.663   0.620 -0.1565 -0.3120 -0.5104
  288TIP3    H122499   2.421   6.601   0.571 -1.4533  0.3667 -0.0369
  288TIP3    H222500   2.516   6.611   0.688 -1.0321 -0.7252 -0.2693
  289TIP3   OH222501   2.535   5.604   7.824 -0.0296  0.2339 -0.0639
  289TIP3    H122502   2.536   5.612   7.728  0.7717 -0.2396 -0.1112
  289TIP3    H222503   2.577   5.519   7.841 -0.6092  0.0843  0.6925
  290TIP3   OH222504   3.043   0.904   1.429  0.7305  0.6273 -0.7175
  290TIP3    H122505   3.009   0.819   1.458 -0.2540  2.0375  2.7447
  290TIP3    H222506   3.134   0.906   1.460  1.3184  0.2299 -2.3249
  291TIP3   OH222507   1.074   6.162   6.836  0.1727 -0.1224 -0.3707
  291TIP3    H122508   1.032   6.095   6.782  0.2388  0.3156 -0.9748
  291TIP3    H222509   1.146   6.194   6.782 -0.4557  1.1283 -0.5068
  292TIP3   OH222510   4.622   4.247   2.001 -0.0860  0.3592  0.6329
  292TIP3    H122511   4.643   4.266   2.092 -0.9673  0.4636  0.8321
  292TIP3    H222512   4.617   4.151   1.996 -1.2997  0.3752  1.0259
  293TIP3   OH222513   2.322   6.910   0.634  0.2452 -0.0708 -0.0040
  293TIP3    H122514   2.382   6.898   0.707 -0.9237 -0.8143  0.8664
  293TIP3    H222515   2.353   6.849   0.567  2.1674  1.6147 -0.7332
  294TIP3   OH222516   2.375   1.261   0.525 -0.1552 -0.4124  0.4574
  294TIP3    H122517   2.415   1.174   0.536  0.9171 -0.0194 -0.1948
  294TIP3    H222518   2.350   1.287   0.613  2.4914 -0.0213  1.1867
  295TIP3   OH222519   1.773   1.977   6.754  0.0179 -0.1773  0.4605
  295TIP3    H122520   1.681   1.979   6.725  0.5935  0.5197 -1.4156
  295TIP3    H222521   1.789   2.065   6.789  0.5601  0.4034 -1.2013
  296TIP3   OH222522   1.241   4.652   1.379  0.0978 -0.0456  0.1137
  296TIP3    H122523   1.225   4.677   1.470  1.0417  0.9057  0.0305
  296TIP3    H222524   1.334   4.667   1.366  0.5747 -2.7813 -0.2222
  297TIP3   OH222525   6.887   3.333   8.450 -0.3327  0.0364 -0.1696
  297TIP3    H122526   6.839   3.275   8.391 -0.3428 -0.0041 -0.1213
  297TIP3    H222527   6.979   3.311   8.435 -0.3190  0.2591 -0.4127
  298TIP3   OH222528   0.477   5.727   0.150  0.2350 -0.2788 -0.2782
  298TIP3    H122529   0.393   5.769   0.170  0.2076 -0.5054  0.0911
  298TIP3    H222530   0.480   5.651   0.208  0.6176 -0.3697 -0.4167
  299TIP3   OH222531   2.312   2.822   6.689  0.9277  0.8126  0.4266
  299TIP3    H122532   2.397   2.866   6.692  1.0778  0.6136 -0.3955
  299TIP3    H222533   2.254   2.877   6.739  1.4351  1.2183  0.5734
  300TIP3   OH222534   6.658   5.494   0.294 -0.1677 -0.0988  0.6447
  300TIP3    H122535   6.710   5.415   0.309 -0.0988 -0.1481  0.1578
  300TIP3    H222536   6.579   5.480   0.346  0.5178  0.2066  1.7984
  301TIP3   OH222537   3.625   3.037   0.773 -1.0249 -0.3414  0.0914
  301TIP3    H122538   3.720   3.042   0.784 -0.9142 -2.1520  0.3732
  301TIP3    H222539   3.593   3.125   0.791  0.5565  0.1775  0.4758
  302TIP3   OH222540   3.046   5.815   2.723 -0.5259  0.0903  0.1417
  302TIP3    H122541   3.112   5.823   2.654 -0.1282 -2.3576  0.1439
  302TIP3    H222542   2.988   5.745   2.693 -0.9062 -0.3669  1.8415
  303TIP3   OH222543   4.158   2.025   7.135  0.2561  0.2764 -0.3772
  303TIP3    H122544   4.160   2.093   7.067 -2.1209  0.7069 -0.1132
  303TIP3    H222545   4.127   1.947   7.090 -1.0420  0.4890  0.0828
  304TIP3   OH222546   5.291   0.343   1.839  0.0581 -0.0412 -0.3829
  304TIP3    H122547   5.267   0.396   1.763  0.0737  0.6020  0.0512
  304TIP3    H222548   5.289   0.404   1.913 -1.3912 -0.9599  0.3825
  305TIP3   OH222549   2.122   6.810   1.656  0.2414  0.0776 -0.3428
  305TIP3    H122550   2.065   6.758   1.600  1.0167  0.2423 -1.3215
  305TIP3    H222551   2.083   6.804   1.743 -1.3076  0.2668 -1.0010
  306TIP3   OH222552   1.587   1.060   1.610 -0.0158 -0.0496  0.0355
  306TIP3    H122553   1.595   1.096   1.698  0.4770 -0.9099  0.3683
  306TIP3    H222554   1.496   1.074   1.585 -0.1828  0.1091  0.7257
  307TIP3   OH222555   0.530   0.488   0.185 -0.1151 -0.0299 -0.1307
  307TIP3    H122556   0.555   0.563   0.131  0.1091  0.2357  0.3407
  307TIP3    H222557   0.609   0.466   0.233 -0.1670 -0.6030 -0.2999
  308TIP3   OH222558   0.580   5.178   1.279  0.6120 -0.2383  0.3516
  308TIP3    H122559   0.574   5.165   1.184  3.3539 -1.4178  0.2536
  308TIP3    H222560   0.661   5.227   1.291  0.7216 -0.7889  2.1522
  309TIP3   OH222561   1.690   3.723   1.448 -0.1187 -0.0780  0.9462
  309TIP3    H122562   1.773   3.706   1.403 -1.2079 -3.2478 -0.1506
  309TIP3    H222563   1.716   3.760   1.532  2.4165 -0.7371  0.5348
  310TIP3   OH222564   6.706   3.332   0.219 -0.5278 -0.4672  0.2868
  310TIP3    H122565   6.688   3.426   0.226  0.9880 -0.1394  0.1658
  310TIP3    H222566   6.769   3.326   0.148 -0.0097 -1.5015  0.8257
  311TIP3   OH222567   5.998   0.774   8.159 -0.1574 -0.1388  0.0680
  311TIP3    H122568   5.967   0.746   8.245  0.5005 -1.9639 -0.2459
  311TIP3    H222569   6.016   0.868   8.169  1.0510 -0.5433  2.2720
  312TIP3   OH222570   6.593   2.920   7.389 -0.1179  0.1466 -0.0241
  312TIP3    H122571   6.589   2.941   7.482  1.6517 -0.0349  0.1326
  312TIP3    H222572   6.576   3.004   7.345 -2.4900 -0.0532  0.3789
  313TIP3   OH222573   2.208   0.382   1.629  0.1479  0.4779 -0.3491
  313TIP3    H122574   2.177   0.352   1.714  3.0257  0.7167  0.9044
  313TIP3    H222575   2.153   0.337   1.566 -0.9013 -1.1417  1.6102
  314TIP3   OH222576   6.361   1.228   6.928  0.4071 -0.2173 -0.0900
  314TIP3    H122577   6.283   1.244   6.875  0.1872  2.2033  0.8154
  314TIP3    H222578   6.328   1.218   7.017  1.0542 -0.2458  0.1535
  315TIP3   OH222579   1.115   0.575   7.832  0.3737 -0.1434  0.6237
  315TIP3    H122580   1.150   0.660   7.860 -0.7604  0.2519  0.8906
  315TIP3    H222581   1.074   0.592   7.748  1.6379 -0.8144 -0.1550
  316TIP3   OH222582   4.518   0.003   0.768  0.1909 -0.1645 -0.5680
  316TIP3    H122583   4.601   0.000   0.721 -0.0416 -2.0913 -0.9258
  316TIP3    H222584   4.472  -0.076   0.741 -1.4743  0.4934  0.1763
  317TIP3   OH222585   2.846   6.486   8.278  0.5530  0.0197 -0.4294
  317TIP3    H122586   2.808   6.520   8.359  0.6994 -0.0045 -0.3508
  317TIP3    H222587   2.899   6.411   8.306 -0.9887 -1.2342 -0.7612
  318TIP3   OH222588   3.867   3.256   7.839  0.3037 -0.7838  0.3851
  318TIP3    H122589   3.896   3.296   7.757 -2.0916 -1.1845 -0.7600
  318TIP3    H222590   3.838   3.329   7.893 -2.3996 -0.6596 -1.0176
  319TIP3   OH222591   1.246   5.281   1.065 -0.1980 -0.3058  0.8085
  319TIP3    H122592   1.281   5.249   0.982  1.3272 -1.8594  1.9778
  319TIP3    H222593   1.229   5.202   1.116 -0.0785  0.6429  2.3763
  320TIP3   OH222594   0.592   1.892   7.704 -0.5164 -0.1343  0.8747
  320TIP3    H122595   0.647   1.969   7.716  0.5987 -0.9998  1.4679
  320TIP3    H222596   0.649   1.828   7.662 -1.3848 -0.6963  0.5253
  321TIP3   OH222597   5.077   0.484   1.022  0.4011 -0.5997  0.3791
  321TIP3    H122598   5.096   0.391   1.014  0.9804 -0.4058 -0.7364
  321TIP3    H222599   5.030   0.506   0.941  0.7430  0.1777  0.3769
  322TIP3   OH222600   4.970   3.673   1.015  0.3736  0.6441  0.2483
  322TIP3    H122601   5.028   3.748   1.004 -1.0638  1.5068 -1.9184
  322TIP3    H222602   5.005   3.607   0.955  0.1153  0.5120  0.2428
  323TIP3   OH222603   6.321   4.460   1.681 -0.0933 -0.7204  0.2846
  323TIP3    H122604   6.385   4.394   1.707 -0.2273 -0.4373  1.4248
  323TIP3    H222605   6.347   4.539   1.728 -0.4521 -0.2032 -0.3626
  324TIP3   OH222606   3.680   6.645   1.904 -0.3979  0.9422  0.1309
  324TIP3    H122607   3.587   6.637   1.884 -0.7944  1.5112  1.6533
  324TIP3    H222608   3.686   6.722   1.960  0.8565  0.3012  0.9251
  325TIP3   OH222609   6.666   2.493   0.283  0.3284 -0.0185 -0.0293
  325TIP3    H122610   6.714   2.438   0.344  0.5094  0.6746  0.4603
  325TIP3    H222611   6.733   2.533   0.228  0.1077 -1.5934 -1.5405
  326TIP3   OH222612   6.675   1.315   2.543  0.1900 -0.1796  0.3359
  326TIP3    H122613   6.669   1.370   2.465 -0.0086  1.8670  1.7058
  326TIP3    H222614   6.715   1.234   2.512 -2.3947 -0.5881 -2.4074
  327TIP3   OH222615   6.577   3.319   1.889  0.1037  0.1041  0.0101
  327TIP3    H122616   6.538   3.233   1.875  0.0246  0.3267 -1.3632
  327TIP3    H222617   6.557   3.341   1.980 -0.3543 -1.0824  0.2130
  328TIP3   OH222618   3.674   6.479   2.282 -0.2272  0.7531  0.1980
  328TIP3    H122619   3.615   6.403   2.275 -0.8653  1.2515  0.1361
  328TIP3    H222620   3.738   6.453   2.349  1.0322 -0.8008 -1.4726
  329TIP3   OH222621   6.466   1.665   8.357 -0.3977 -0.3388 -0.1576
  329TIP3    H122622   6.559   1.646   8.343  0.0383  0.4762  1.3894
  329TIP3    H222623   6.430   1.675   8.269  0.8705 -1.1515 -0.7973
  330TIP3   OH222624   0.879   0.226   1.550  0.1373 -0.2078  1.6315
  330TIP3    H122625   0.865   0.156   1.487  0.0675  2.0268 -0.9779
  330TIP3    H222626   0.817   0.294   1.526  1.5282  1.5827  2.8013
  331TIP3   OH222627   6.339   3.258   1.131  0.0306 -0.4208 -0.3523
  331TIP3    H122628   6.372   3.243   1.042  1.1881 -0.2273  0.0257
  331TIP3    H222629   6.321   3.352   1.135 -0.6242 -0.5334 -0.5719
  332TIP3   OH222630   5.395   1.060   1.600  0.0098  0.3796 -0.1565
  332TIP3    H122631   5.318   1.112   1.622 -1.3401 -1.7826  0.6271
  332TIP3    H222632   5.407   1.072   1.506  0.4259  2.8433  0.1449
  333TIP3   OH222633   3.166   1.391   0.388  0.5657 -0.5258  0.2288
  333TIP3    H122634   3.077   1.358   0.376  0.6825 -0.5933 -0.5094
  333TIP3    H222635   3.222   1.314   0.379  0.6655 -0.6187  1.4599
  334TIP3   OH222636   2.972   6.129   6.807 -0.2836 -0.6179  0.0420
  334TIP3    H122637   2.886   6.105   6.840 -1.3936  1.5470 -1.1095
  334TIP3    H222638   2.974   6.224   6.809  2.7823 -0.5856  1.6350
  335TIP3   OH222639   6.643   0.194   1.088 -0.1951  0.0081 -0.6827
  335TIP3    H122640   6.690   0.216   1.007 -1.4197 -0.3203 -1.5110
  335TIP3    H222641   6.681   0.253   1.154 -1.3154  2.5900 -2.1738
  336TIP3   OH222642   6.011   0.225   1.618  0.0530  0.2691 -0.0595
  336TIP3    H122643   5.980   0.314   1.629 -4.6025 -0.7844 -2.1778
  336TIP3    H222644   6.069   0.229   1.541  0.2422  1.4735  0.1308
  337TIP3   OH222645   2.816   4.169   1.152 -0.2475 -0.6547  0.0969
  337TIP3    H122646   2.802   4.237   1.085 -0.1584 -1.5466 -0.8470
  337TIP3    H222647   2.749   4.104   1.134 -1.0302 -0.3331  1.6844
  338TIP3   OH222648   0.139   2.538   6.866  0.3654  0.4795 -0.1985
  338TIP3    H122649   0.043   2.540   6.862  0.2800 -0.9934  0.4573
  338TIP3    H222650   0.164   2.628   6.888 -0.8540  0.8879 -0.4082
  339TIP3   OH222651   1.495   6.038   2.021 -0.7478 -0.3209  0.3410
  339TIP3    H122652   1.544   6.090   2.085 -2.0966  0.1755  1.0074
  339TIP3    H222653   1.432   5.988   2.073 -1.9243  0.1459 -0.5698
  340TIP3   OH222654   0.061   3.993   0.217 -0.3750  0.0284  0.2965
  340TIP3    H122655   0.093   3.908   0.189  1.5333 -0.0261  2.3112
  340TIP3    H222656   0.139   4.049   0.220 -1.3083  1.3834  0.5438
  341TIP3   OH222657   2.453   2.163   6.489  0.0929  0.0003  0.0636
  341TIP3    H122658   2.395   2.114   6.548  0.2647 -0.6422 -0.2918
  341TIP3    H222659   2.478   2.100   6.422  1.4742  0.1576  0.3941
  342TIP3   OH222660   2.963   5.293   1.039  0.2923 -0.7146  0.1025
  342TIP3    H122661   2.929   5.247   1.116  0.5909  0.0597  0.7128
  342TIP3    H222662   2.988   5.379   1.072  0.2006 -0.2846 -0.9227
  343TIP3   OH222663   6.979   0.539   0.490 -0.1543 -0.1676 -0.1163
  343TIP3    H122664   6.888   0.531   0.462 -0.1856  2.0380 -0.9270
  343TIP3    H222665   7.018   0.454   0.471 -1.8566 -0.9154 -0.4663
  344TIP3   OH222666   6.479   0.588   6.579 -0.7200  0.4108  0.3951
  344TIP3    H122667   6.466   0.494   6.566  1.0657  0.3767 -1.5973
  344TIP3    H222668   6.441   0.629   6.501  0.5829  1.1321  0.1059
  345TIP3   OH222669   4.900   0.736   7.136 -0.2498 -0.4957  0.4855
  345TIP3    H122670   4.858   0.789   7.204 -0.3479  2.8175 -1.9358
  345TIP3    H222671   4.987   0.774   7.126  0.0147 -1.3685 -0.7858
  346TIP3   OH222672   6.978   4.769   8.180  1.0914  0.2720 -0.3582
  346TIP3    H122673   6.909   4.782   8.245  0.6781  1.7031 -1.0321
  346TIP3    H222674   6.939   4.800   8.098  1.9884 -0.4386 -1.0836
  347TIP3   OH222675   0.697   3.188   7.278 -0.3143 -0.6681  0.3828
  347TIP3    H122676   0.659   3.144   7.354 -1.5766  2.1682  1.5427
  347TIP3    H222677   0.715   3.277   7.308  1.3282 -0.0870 -2.0177
  348TIP3   OH222678   2.753   1.528   0.925  0.1961 -0.0928  0.1242
  348TIP3    H122679   2.769   1.505   1.017  0.8078 -1.2631 -0.2549
  348TIP3    H222680   2.699   1.456   0.892  2.0634 -1.0118 -1.0693
  349TIP3   OH222681   2.453   4.203   1.307 -0.7682  0.3848 -0.3865
  349TIP3    H122682   2.385   4.246   1.254 -0.0672  1.4905 -0.4251
  349TIP3    H222683   2.495   4.142   1.246 -0.4292  1.1451 -0.9398
  350TIP3   OH222684   1.655   5.241   6.336 -0.1310 -0.1297 -0.6010
  350TIP3    H122685   1.729   5.272   6.284  1.0146 -0.3081  0.8692
  350TIP3    H222686   1.615   5.320   6.371  0.1261 -0.0944 -0.3867
  351TIP3   OH222687   3.220   1.724   0.291 -0.0260  0.2058  0.2050
  351TIP3    H122688   3.295   1.700   0.347 -0.1616 -3.2161 -0.8626
  351TIP3    H222689   3.167   1.644   0.287 -1.5646  1.2490 -2.4266
  352TIP3   OH222690   4.298   1.832   0.033 -0.2162  0.3530  0.2513
  352TIP3    H122691   4.224   1.893   0.036  0.2529  1.0004 -0.9338
  352TIP3    H222692   4.292   1.791  -0.053 -0.2239 -0.9176  0.8402
  353TIP3   OH222693   1.556   5.180   7.605 -0.2162  1.0686 -0.1510
  353TIP3    H122694   1.472   5.145   7.576 -0.7866  2.4156 -0.2175
  353TIP3    H222695   1.607   5.104   7.631 -0.8335  0.0830 -1.7330
  354TIP3   OH222696   1.014   5.566   0.073  0.3017  0.1835  0.1166
  354TIP3    H122697   0.930   5.550   0.116 -0.3671 -0.7946 -1.4942
  354TIP3    H222698   1.042   5.480   0.041  1.2546  0.7211 -0.5549
  355TIP3   OH222699   0.457   1.236   0.861  0.8195  0.2688  0.7918
  355TIP3    H122700   0.471   1.261   0.770 -0.8624 -0.7266  0.2166
  355TIP3    H222701   0.407   1.309   0.898  0.2269  0.0165  0.4973
  356TIP3   OH222702   6.134   1.129   0.111  0.2225  0.2880 -0.4638
  356TIP3    H122703   6.190   1.134   0.034  0.7753  2.4834  0.0047
  356TIP3    H222704   6.191   1.157   0.183 -1.2927  2.1001  0.1033
  357TIP3   OH222705   0.872   1.786   7.609  0.2402 -0.3136  0.1285
  357TIP3    H122706   0.828   1.701   7.608 -0.3681 -0.0063 -0.4582
  357TIP3    H222707   0.926   1.785   7.530  1.0564 -0.5713  0.6898
  358TIP3   OH222708   5.768   5.064   2.422 -0.2524 -0.1277 -0.4688
  358TIP3    H122709   5.722   5.001   2.366 -0.2654  0.2100 -0.8475
  358TIP3    H222710   5.700   5.098   2.480 -0.7365  1.1242 -1.7062
  359TIP3   OH222711   0.781   1.154   0.212  0.1171  0.2842  0.3699
  359TIP3    H122712   0.860   1.100   0.220 -0.3061 -0.4656 -0.2540
  359TIP3    H222713   0.812   1.244   0.220  0.7949 -0.0494  1.8151
  360TIP3   OH222714   2.752   2.966   7.843 -0.3165 -0.3465 -0.4002
  360TIP3    H122715   2.828   2.909   7.833 -0.7632 -0.8017 -1.2992
  360TIP3    H222716   2.767   3.038   7.782 -0.6109 -0.4412 -0.5840
  361TIP3   OH222717   2.517   4.299   8.464 -0.0543 -0.0852 -0.5541
  361TIP3    H122718   2.532   4.315   8.557  2.1649  2.2486 -1.2026
  361TIP3    H222719   2.460   4.371   8.436 -1.1845 -1.0954 -0.9277
  362TIP3   OH222720   3.130   4.461   6.880 -0.4394  0.2435  0.2514
  362TIP3    H122721   3.112   4.451   6.786  1.7951  0.3405 -0.2330
  362TIP3    H222722   3.169   4.377   6.906  0.8009  0.9043  0.6007
  363TIP3   OH222723   3.701   5.537   0.308  0.2477  0.7254  0.5832
  363TIP3    H122724   3.794   5.516   0.315 -0.0896 -0.5253  1.7258
  363TIP3    H222725   3.682   5.535   0.214  1.3825  1.0944  0.3397
  364TIP3   OH222726   0.364   5.921   8.268  0.3211  0.2830 -0.3022
  364TIP3    H122727   0.368   5.828   8.246 -1.6342  0.0450  0.1490
  364TIP3    H222728   0.429   5.962   8.210 -1.5462 -0.8543 -3.4678
  365TIP3   OH222729   2.073   4.297   1.897  0.5135  0.0782  0.0841
  365TIP3    H122730   2.084   4.298   1.992 -2.7818 -0.2821  0.5870
  365TIP3    H222731   2.070   4.204   1.875 -0.4458  0.1398 -0.0815
  366TIP3   OH222732   5.361   0.136   1.259 -0.0143 -0.3347  0.1166
  366TIP3    H122733   5.367   0.052   1.213  1.2591 -0.6616  0.8204
  366TIP3    H222734   5.435   0.135   1.320 -1.0619  0.5149  1.4591
  367TIP3   OH222735   5.832   3.340   7.771  0.3154  0.1902 -0.5304
  367TIP3    H122736   5.918   3.333   7.814  1.0484  3.8163 -1.1199
  367TIP3    H222737   5.834   3.424   7.726 -4.3186  1.5485  1.1969
  368TIP3   OH222738   1.861   0.498   1.926 -0.3329  0.1471  0.5929
  368TIP3    H122739   1.797   0.560   1.959 -1.2889 -1.5282  2.0756
  368TIP3    H222740   1.895   0.455   2.005 -0.7289 -2.1541 -0.4033
  369TIP3   OH222741   1.492   3.927   1.459  0.6181 -0.2208  0.5238
  369TIP3    H122742   1.532   3.842   1.475  1.1348  0.1980  1.5995
  369TIP3    H222743   1.509   3.977   1.539  1.3017  1.2730 -0.5095
  370TIP3   OH222744   4.933   3.779   0.520  0.2161  0.2757  0.4814
  370TIP3    H122745   4.875   3.855   0.524  0.0833  0.3798 -1.7641
  370TIP3    H222746   4.874   3.704   0.526  0.0732  0.3686  0.2411
  371TIP3   OH222747   5.725   6.602   0.784 -0.2051 -0.3070 -0.1486
  371TIP3    H122748   5.707   6.684   0.738 -0.5308 -0.0810  0.3658
  371TIP3    H222749   5.782   6.553   0.725  1.3328  0.9600  0.1975
  372TIP3   OH222750   6.668   0.634   8.032  0.7905 -0.1624  0.3635
  372TIP3    H122751   6.641   0.565   7.971  1.8929 -1.2789  1.0854
  372TIP3    H222752   6.630   0.608   8.116  1.0507  0.2171  0.6000
  373TIP3   OH222753   6.426   2.585   7.736 -0.4144 -0.4511  0.2848
  373TIP3    H122754   6.361   2.655   7.743 -0.7328 -0.7476  0.3339
  373TIP3    H222755   6.510   2.629   7.748 -0.7128 -0.4259  2.8853
  374TIP3   OH222756   5.809   6.075   0.291 -0.0500 -0.3641 -0.3194
  374TIP3    H122757   5.841   6.031   0.212  1.0773  0.3835 -0.3033
  374TIP3    H222758   5.843   6.022   0.363  0.4849 -0.0378 -0.3202
  375TIP3   OH222759   1.483   4.817   8.214 -0.1767 -0.2609  0.2898
  375TIP3    H122760   1.482   4.795   8.308  1.9922 -0.4076  0.3293
  375TIP3    H222761   1.492   4.912   8.213 -0.8054 -0.1939  0.1929
  376TIP3   OH222762   2.303   3.287   1.541 -0.0613 -0.5633 -0.1275
  376TIP3    H122763   2.345   3.296   1.626 -0.5192  1.6737 -0.0846
  376TIP3    H222764   2.277   3.195   1.537  0.5297 -0.8702  1.8521
  377TIP3   OH222765   3.918   2.169   0.928 -0.0799  0.6473  0.3279
  377TIP3    H122766   3.958   2.087   0.956 -1.4410  0.0744  0.6576
  377TIP3    H222767   3.827   2.163   0.956 -0.4756  1.8204 -0.5906
  378TIP3   OH222768   3.589   3.695   0.320  0.3653  0.3489  0.6834
  378TIP3    H122769   3.678   3.721   0.296 -0.0391 -0.8678 -2.5922
  378TIP3    H222770   3.600   3.629   0.388  2.3043 -2.3316 -1.9973
  379TIP3   OH222771   3.835   6.456   7.644 -0.0191  0.0546 -0.1095
  379TIP3    H122772   3.872   6.396   7.709  1.1853 -0.5155 -1.2553
  379TIP3    H222773   3.741   6.438   7.644  0.0320 -0.2605  1.1187
  380TIP3   OH222774   1.708   2.462   6.662  0.3944 -0.3954 -0.1550
  380TIP3    H122775   1.623   2.500   6.643 -0.7608 -2.5014  0.4920
  380TIP3    H222776   1.757   2.532   6.705 -0.8785  0.9475 -0.8095
  381TIP3   OH222777   3.595   5.068   0.748  0.0375 -0.1806 -0.2968
  381TIP3    H122778   3.606   5.149   0.796 -3.1343 -1.5727  3.2407
  381TIP3    H222779   3.667   5.012   0.778  1.1482  0.6240 -1.3490
  382TIP3   OH222780   6.156   5.671   7.106  0.3856 -0.4543  0.0746
  382TIP3    H122781   6.173   5.652   7.014  0.8396  0.2284  0.0053
  382TIP3    H222782   6.198   5.756   7.121  1.1135 -0.9677  1.1322
  383TIP3   OH222783   6.841   3.015   1.673  0.0004 -0.1060  0.2389
  383TIP3    H122784   6.891   2.941   1.706  0.3134 -0.8124 -1.7114
  383TIP3    H222785   6.848   3.081   1.742  1.7738 -0.9883  0.9647
  384TIP3   OH222786   1.715   0.795   8.388  0.3330 -0.3554 -0.3541
  384TIP3    H122787   1.652   0.868   8.384  0.4201 -0.2998 -0.7207
  384TIP3    H222788   1.798   0.834   8.361  0.2726 -0.7138 -1.0625
  385TIP3   OH222789   6.860   3.830   7.687 -0.0422 -0.0902 -0.0042
  385TIP3    H122790   6.877   3.736   7.696  1.7680  0.3173  1.5447
  385TIP3    H222791   6.947   3.870   7.680 -0.7872  1.4563 -0.9768
  386TIP3   OH222792   2.403   5.924   1.276  0.0450  0.3145 -0.4946
  386TIP3    H122793   2.424   5.847   1.329 -0.8746  0.1227 -0.3960
  386TIP3    H222794   2.456   5.914   1.197  1.2591  0.4820  0.2631
  387TIP3   OH222795   0.897   1.554   2.048 -0.0485 -0.9397 -0.0576
  387TIP3    H122796   0.851   1.504   2.116  0.1295 -0.1747  0.6496
  387TIP3    H222797   0.834   1.561   1.976 -0.1963 -1.8651 -0.0250
  388TIP3   OH222798   0.455   6.154   1.076  0.0982  0.0206 -0.0483
  388TIP3    H122799   0.504   6.080   1.041  0.2752  0.5971 -1.0695
  388TIP3    H222800   0.510   6.188   1.147  0.3536 -0.3798 -0.0509
  389TIP3   OH222801   2.852   5.246   8.331 -0.3292  0.5526  0.3574
  389TIP3    H122802   2.945   5.259   8.313 -0.2598 -0.5541 -0.1923
  389TIP3    H222803   2.849   5.210   8.420 -0.0317 -1.4146 -0.3749
  390TIP3   OH222804   2.163   6.662   8.290  0.1768  0.0988  0.6150
  390TIP3    H122805   2.144   6.736   8.232  0.2298  0.4002  0.9761
  390TIP3    H222806   2.109   6.678   8.368  0.9850  0.3250  1.1440
  391TIP3   OH222807   0.807   4.895   8.235 -0.1116 -0.0682 -0.0784
  391TIP3    H122808   0.873   4.946   8.187  1.0942  0.2237  1.8031
  391TIP3    H222809   0.727   4.907   8.185  1.1860 -0.3061 -2.3726
  392TIP3   OH222810   4.164   3.251   8.347 -0.1929  0.1915 -0.0857
  392TIP3    H122811   4.178   3.345   8.340 -2.0312  0.4975 -0.0601
  392TIP3    H222812   4.172   3.232   8.441  1.7244  0.0168 -0.2472
  393TIP3   OH222813   5.903   4.158   1.550  0.2293  0.6234  0.2563
  393TIP3    H122814   5.829   4.128   1.498 -0.1851  0.6895  0.7903
  393TIP3    H222815   5.979   4.147   1.494  0.1425 -1.6186  0.4813
  394TIP3   OH222816   4.842   4.224   7.406 -0.1471 -0.3528  0.2171
  394TIP3    H122817   4.831   4.147   7.350 -5.2086 -0.9024  1.3951
  394TIP3    H222818   4.880   4.190   7.487  0.1992 -1.0747 -0.2434
  395TIP3   OH222819   2.914   6.935   7.334 -0.3273  0.2728 -0.8058
  395TIP3    H122820   3.005   6.905   7.327  0.2837  1.4820  1.2292
  395TIP3    H222821   2.919   7.030   7.325 -1.0472  0.5892  1.4931
  396TIP3   OH222822   1.553   5.081   6.646 -0.2263  0.0350  0.0232
  396TIP3    H122823   1.561   4.990   6.674 -0.8349  0.0017  0.1028
  396TIP3    H222824   1.501   5.077   6.565 -0.8324  0.3591  0.3828
  397TIP3   OH222825   1.945   0.666   1.586 -0.6598  0.0429 -0.3673
  397TIP3    H122826   1.891   0.648   1.509 -0.8959  1.8917 -0.6614
  397TIP3    H222827   1.887   0.712   1.646  0.1002  0.4804  0.0457
  398TIP3   OH222828   6.550   3.891   7.156  0.7223  0.1163 -0.0661
  398TIP3    H122829   6.543   3.979   7.194 -0.1082 -0.3810  0.9900
  398TIP3    H222830   6.616   3.900   7.086  1.2391  1.3897  0.5494
  399TIP3   OH222831   1.382   3.440   0.192  0.1358 -0.0916 -0.6651
  399TIP3    H122832   1.291   3.461   0.171  0.1176 -0.5092 -1.0128
  399TIP3    H222833   1.386   3.345   0.190  0.7128 -0.0651 -1.2266
  400TIP3   OH222834   3.741   5.105   7.159 -0.5898  0.4816  0.5640
  400TIP3    H122835   3.656   5.065   7.145 -0.3521  0.0816  0.2569
  400TIP3    H222836   3.804   5.036   7.140 -0.1239  1.3464 -1.2273
  401TIP3   OH222837   0.620   5.830   1.341  0.3630 -0.2736 -0.0076
  401TIP3    H122838   0.704   5.843   1.385  0.0045  0.0133  0.6057
  401TIP3    H222839   0.560   5.804   1.411 -0.2121  0.1780 -0.3233
  402TIP3   OH222840   0.199   0.176   6.148 -0.2867 -0.4998  0.1396
  402TIP3    H122841   0.182   0.224   6.067  0.0926 -1.4132 -0.4984
  402TIP3    H222842   0.113   0.166   6.189 -0.3095  1.2188  0.5936
  403TIP3   OH222843   3.074   1.894   7.725  0.0386  0.6603 -0.1709
  403TIP3    H122844   3.156   1.938   7.704 -0.0658  0.1415 -1.8491
  403TIP3    H222845   3.099   1.822   7.784  0.5693  1.3349  0.4454
  404TIP3   OH222846   2.624   6.979   1.627  0.6869 -0.4664  0.8239
  404TIP3    H122847   2.559   6.910   1.645  1.8059 -1.4619  1.1347
  404TIP3    H222848   2.647   7.013   1.713 -0.9110  1.3367  0.5984
  405TIP3   OH222849   4.778   1.873   0.245  0.1544  0.4763 -0.0643
  405TIP3    H122850   4.774   1.933   0.171 -0.2840 -0.8700 -1.1797
  405TIP3    H222851   4.790   1.787   0.205  2.7642 -0.0107  1.5571
  406TIP3   OH222852   5.538   3.614   1.005  0.3944 -0.3648  0.0765
  406TIP3    H122853   5.485   3.538   0.980  1.7062 -1.5163  0.6742
  406TIP3    H222854   5.479   3.689   0.992 -0.3358 -1.2587 -2.3846
  407TIP3   OH222855   3.052   2.558   0.251  0.0539  0.3060 -0.6579
  407TIP3    H122856   3.012   2.641   0.227  0.0015  0.0465 -1.4910
  407TIP3    H222857   3.027   2.498   0.181 -0.7187 -0.6700  0.4126
  408TIP3   OH222858   2.989   5.602   1.696  0.4955  0.0103  0.2425
  408TIP3    H122859   2.931   5.526   1.684  1.0829 -0.6559  1.4387
  408TIP3    H222860   3.004   5.606   1.790 -0.5526  2.4110  0.3798
  409TIP3   OH222861   4.238   0.557   7.533 -0.0743  0.1289 -0.2986
  409TIP3    H122862   4.206   0.500   7.463  2.4762 -1.5912 -0.1899
  409TIP3    H222863   4.175   0.545   7.605  0.2162 -2.3891 -0.3858
  410TIP3   OH222864   4.522   5.072   1.537  0.7096  0.6761 -0.0542
  410TIP3    H122865   4.494   5.107   1.453  0.6451  1.7569  0.4029
  410TIP3    H222866   4.520   5.147   1.597  1.1631  0.0219  0.8136
  411TIP3   OH222867   3.905   4.386   7.388 -0.1778  0.0821 -0.0667
  411TIP3    H122868   3.858   4.331   7.451  2.1909 -0.6625  1.1637
  411TIP3    H222869   3.838   4.446   7.354 -2.4247 -2.2250  0.0001
  412TIP3   OH222870   5.509   5.872   0.986  0.2041  0.1947  0.6128
  412TIP3    H122871   5.519   5.862   0.891  3.1076 -0.7299  0.9112
  412TIP3    H222872   5.530   5.964   1.002 -3.2157  1.1828  0.1760
  413TIP3   OH222873   3.419   3.945   2.469  0.8015 -0.3850 -0.0387
  413TIP3    H122874   3.408   4.039   2.456  2.6344 -0.1007  0.1670
  413TIP3    H222875   3.330   3.912   2.481  0.2314  1.7360  2.7140
  414TIP3   OH222876   6.666   0.238   1.397  0.5061  0.4623  0.3823
  414TIP3    H122877   6.605   0.197   1.458 -0.1670 -0.0212 -0.5805
  414TIP3    H222878   6.632   0.326   1.385 -1.5347 -0.5216 -2.0254
  415TIP3   OH222879   0.892   6.279   8.093 -0.5120  0.2138  0.2501
  415TIP3    H122880   0.983   6.285   8.063 -0.0374 -0.6989  1.4146
  415TIP3    H222881   0.891   6.323   8.178 -1.6059  1.8739 -0.5656
  416TIP3   OH222882   4.058   6.920   7.425  0.0035  0.1624  0.3644
  416TIP3    H122883   4.051   6.938   7.518 -0.1370 -0.2105  0.4262
  416TIP3    H222884   3.967   6.920   7.394 -0.0456 -1.0177  0.4762
  417TIP3   OH222885   0.050   6.713   6.849  0.3648  0.5252  0.2942
  417TIP3    H122886   0.084   6.626   6.872  2.5147  1.4447  0.8656
  417TIP3    H222887   0.060   6.717   6.754 -1.1247 -0.3461  0.0613
  418TIP3   OH222888   6.236   3.850   0.148  0.1297  0.1280 -0.0865
  418TIP3    H122889   6.216   3.794   0.223  0.9878  0.4805  0.4231
  418TIP3    H222890   6.154   3.855   0.099 -0.3631 -0.3540  0.6680
  419TIP3   OH222891   6.784   4.288   0.679  0.6804 -0.4074  0.1344
  419TIP3    H122892   6.839   4.243   0.614  2.6840  1.2100  0.6281
  419TIP3    H222893   6.836   4.288   0.759 -1.5357 -1.8836  1.6901
  420TIP3   OH222894   0.823   4.166   6.452 -0.0270 -0.1429  0.0911
  420TIP3    H122895   0.894   4.122   6.499  0.9064  1.0659 -0.1394
  420TIP3    H222896   0.854   4.173   6.362 -1.4500 -1.6844 -0.5658
  421TIP3   OH222897   0.147   6.817   0.612 -0.0834 -0.0737  0.1179
  421TIP3    H122898   0.231   6.858   0.590  0.0302  0.2478  1.0997
  421TIP3    H222899   0.085   6.854   0.549  0.2304  0.7891  0.3051
  422TIP3   OH222900   6.138   6.556   0.773 -0.3551  0.4934  0.1000
  422TIP3    H122901   6.098   6.482   0.819  0.2710  0.5189  0.6909
  422TIP3    H222902   6.103   6.633   0.817 -0.1346  0.5265  0.2176
  423TIP3   OH222903   4.928   1.007   7.823 -0.4121  0.1015  0.4623
  423TIP3    H122904   4.960   0.926   7.864 -0.7581 -0.8078 -1.0161
  423TIP3    H222905   5.003   1.066   7.828  0.3857 -0.8516  0.1199
  424TIP3   OH222906   5.671   2.942   1.865  0.0808  0.2289  0.4031
  424TIP3    H122907   5.759   2.972   1.887  0.0498 -0.4164  1.4281
  424TIP3    H222908   5.619   2.961   1.943 -0.3341 -0.8376  0.3942
  425TIP3   OH222909   4.225   3.983   0.520  0.4150  0.5782 -0.6711
  425TIP3    H122910   4.148   3.992   0.464  0.7017  0.4667 -1.0863
  425TIP3    H222911   4.189   3.977   0.609  0.0028  1.6868 -0.7466
  426TIP3   OH222912   1.042   3.060   7.311  0.5003  0.5367 -0.0207
  426TIP3    H122913   0.960   3.011   7.307  1.1553 -0.7216  1.0863
  426TIP3    H222914   1.026   3.126   7.379  1.1060 -1.2499  1.9978
  427TIP3   OH222915   0.696   1.692   0.640 -0.4722 -0.0620 -0.2416
  427TIP3    H122916   0.679   1.640   0.718 -0.8506  0.3643 -0.0294
  427TIP3    H222917   0.674   1.782   0.667 -0.6915  0.0732 -0.8602
  428TIP3   OH222918   3.654   6.816   1.287  0.4476  0.2878  0.0414
  428TIP3    H122919   3.681   6.907   1.279 -2.2784  1.0960 -1.0171
  428TIP3    H222920   3.620   6.809   1.376  1.9131 -0.1273  0.6007
  429TIP3   OH222921   5.874   0.375   7.322 -0.3892 -0.0059 -0.1519
  429TIP3    H122922   5.917   0.361   7.237  0.5018  0.8229  0.1421
  429TIP3    H222923   5.883   0.291   7.367  1.1498  0.2014 -0.0179
  430TIP3   OH222924   4.021   1.445   0.593  1.0284 -0.1359  0.1494
  430TIP3    H122925   3.962   1.494   0.651  1.5523  0.2525  0.3671
  430TIP3    H222926   4.077   1.396   0.653  1.2906 -0.0668 -0.0393
  431TIP3   OH222927   1.574   3.953   0.127  0.1247 -0.4520 -0.3783
  431TIP3    H122928   1.510   3.987   0.065 -0.1834  1.0091  0.6798
  431TIP3    H222929   1.559   3.858   0.128 -1.4804 -0.2270 -0.7429
  432TIP3   OH222930   6.438   6.327   0.815  0.1439 -0.1826  0.2051
  432TIP3    H122931   6.486   6.398   0.772  0.1022 -0.1207  0.2612
  432TIP3    H222932   6.350   6.331   0.778  0.2893 -0.5478 -0.1928
  433TIP3   OH222933   2.151   5.433   0.343 -0.0042  0.2288  0.4534
  433TIP3    H122934   2.061   5.400   0.350  0.5770 -1.5988 -0.0199
  433TIP3    H222935   2.185   5.392   0.264  1.5332  0.1479  1.1203
  434TIP3   OH222936   4.193   3.524   8.425 -0.1692  0.0757  0.1409
  434TIP3    H122937   4.178   3.549   8.516  1.3708 -0.8257  0.6661
  434TIP3    H222938   4.114   3.552   8.379 -0.2856  2.0545  1.4423
  435TIP3   OH222939   6.785   6.023   0.742  0.0292 -0.2203  0.2171
  435TIP3    H122940   6.728   6.084   0.695 -0.2715 -1.9351 -1.7689
  435TIP3    H222941   6.726   5.957   0.777  0.6204 -1.3041 -0.7503
  436TIP3   OH222942   6.720   2.308   0.502  0.2961 -0.1138  0.4370
  436TIP3    H122943   6.640   2.259   0.480  0.8660 -0.6445 -0.5482
  436TIP3    H222944   6.790   2.244   0.492  1.3186  1.3252 -3.0451
  437TIP3   OH222945   4.446   5.545   7.554 -0.2970  0.5604 -0.1762
  437TIP3    H122946   4.477   5.476   7.612  0.3440  0.3560 -0.7411
  437TIP3    H222947   4.461   5.626   7.603 -2.1855  0.2632  0.9902
  438TIP3   OH222948   3.410   4.554   7.260 -0.3877 -0.0456  0.2048
  438TIP3    H122949   3.328   4.564   7.308 -1.7085 -0.5353 -1.8303
  438TIP3    H222950   3.401   4.472   7.212  0.4609  0.7909 -1.5150
  439TIP3   OH222951   6.832   1.309   0.927 -0.9185  0.4216 -0.1836
  439TIP3    H122952   6.915   1.296   0.973 -1.0239  1.3981  0.3114
  439TIP3    H222953   6.785   1.373   0.981 -1.7763  0.2693 -0.7370
  440TIP3   OH222954   2.639   2.833   7.036 -0.7794  0.1349  0.3796
  440TIP3    H122955   2.706   2.897   7.059 -0.9577  0.0008  1.2968
  440TIP3    H222956   2.687   2.761   6.995 -0.3672  0.0544  1.0007
  441TIP3   OH222957   4.464   0.254   6.975  0.5061 -0.3966 -0.0429
  441TIP3    H122958   4.539   0.202   6.949  0.3323 -1.6377  1.7017
  441TIP3    H222959   4.471   0.260   7.071 -0.7792  0.7795  0.0188
  442TIP3   OH222960   3.355   1.426   6.468 -0.1586 -0.7078  0.2835
  442TIP3    H122961   3.310   1.454   6.388 -1.2176  0.4454  1.2489
  442TIP3    H222962   3.286   1.392   6.524  0.7762 -2.9928  0.1535
  443TIP3   OH222963   2.382   3.376   0.991  0.1043 -0.4305 -0.0567
  443TIP3    H122964   2.432   3.385   1.072  0.2964  0.7250 -0.2817
  443TIP3    H222965   2.312   3.314   1.012 -0.8636  1.1235  1.4946
  444TIP3   OH222966   4.992   2.178   0.471 -0.2276 -0.0101  0.4809
  444TIP3    H122967   5.020   2.090   0.447 -1.1611 -0.0512 -0.5806
  444TIP3    H222968   4.972   2.173   0.564  0.6201 -0.6633  0.6418
  445TIP3   OH222969   5.390   1.607   6.993  0.0022 -0.3034  0.1358
  445TIP3    H122970   5.319   1.578   6.936 -0.4128  1.0046 -0.0423
  445TIP3    H222971   5.347   1.636   7.073  0.3723 -0.0193  0.2357
  446TIP3   OH222972   5.569   4.857   1.478 -0.3026 -0.0113  0.2251
  446TIP3    H122973   5.483   4.846   1.438 -0.4778  2.0109 -0.0542
  446TIP3    H222974   5.622   4.898   1.410  0.5535 -0.1793  0.7773
  447TIP3   OH222975   2.460   3.211   7.667  0.3331  0.3681 -0.1147
  447TIP3    H122976   2.449   3.120   7.693  1.6712 -0.4593 -2.2044
  447TIP3    H222977   2.551   3.231   7.689 -0.2720  1.6277  1.4190
  448TIP3   OH222978   5.192   0.084   7.570  0.6670 -0.5678 -0.4406
  448TIP3    H122979   5.168   0.057   7.481 -0.7860 -2.0032  0.3353
  448TIP3    H222980   5.211   0.002   7.616  0.6072  0.0743  0.7848
  449TIP3   OH222981   6.827   3.778   0.182 -0.0310  0.0951  0.5535
  449TIP3    H122982   6.854   3.698   0.228  2.9025  0.5748 -0.1087
  449TIP3    H222983   6.905   3.834   0.184 -1.3350  2.0797 -0.8456
  450TIP3   OH222984   2.068   4.007   0.803  0.7144  0.2734 -0.0817
  450TIP3    H122985   2.029   3.921   0.812  2.9350 -0.7368  0.7487
  450TIP3    H222986   2.082   4.036   0.894  2.2393  0.3495 -0.3047
  451TIP3   OH222987   2.091   0.383   7.383 -0.8131 -0.5435 -0.1604
  451TIP3    H122988   2.143   0.404   7.306 -0.3830 -0.4474  0.1517
  451TIP3    H222989   2.059   0.468   7.414 -1.5236 -0.6411 -0.6007
  452TIP3   OH222990   2.646   3.604   2.026  0.0479 -0.3615 -0.1281
  452TIP3    H122991   2.672   3.561   2.108  0.7657 -0.1356 -0.2331
  452TIP3    H222992   2.644   3.697   2.048 -0.7053 -0.3719 -0.1203
  453TIP3   OH222993   5.854   4.379   8.054  0.0951 -0.4722  0.4316
  453TIP3    H122994   5.769   4.396   8.013  1.4548 -0.5059 -2.6053
  453TIP3    H222995   5.874   4.288   8.033  0.7931 -0.5488  1.3591
  454TIP3   OH222996   5.672   6.157   1.069 -0.6315 -0.0393 -0.0602
  454TIP3    H122997   5.740   6.182   1.006  0.6479  0.2606  1.3908
  454TIP3    H222998   5.705   6.077   1.109 -0.8863  0.3573  0.9807
  455TIP3   OH222999   1.346   5.439   2.607 -0.1050  0.8777  0.5940
  455TIP3    H123000   1.268   5.384   2.608  1.5474 -1.6774  1.1422
  455TIP3    H223001   1.405   5.395   2.545  1.1396  2.3516  0.6702
  456TIP3   OH223002   0.065   6.969   0.061  0.1755 -0.4933 -0.0941
  456TIP3    H123003   0.033   7.051   0.021  0.4186  0.0256  0.7488
  456TIP3    H223004   0.151   6.991   0.095 -0.6712 -0.4461  2.1405
  457TIP3   OH223005   0.919   1.513   6.733 -0.0875 -0.3676 -0.4222
  457TIP3    H123006   0.973   1.548   6.663  0.6159 -0.6397 -0.0342
  457TIP3    H223007   0.979   1.457   6.783 -0.4401  0.2061  0.6776
  458TIP3   OH223008   0.159   1.042   6.190 -0.5127  0.1594  0.7339
  458TIP3    H123009   0.200   0.978   6.248  0.7666 -0.7404 -1.0621
  458TIP3    H223010   0.067   1.018   6.190 -0.0683 -1.7002  0.1298
  459TIP3   OH223011   5.496   4.018   1.702 -0.1485 -0.6192 -0.3266
  459TIP3    H123012   5.411   3.986   1.732 -0.4170 -0.9527 -1.3739
  459TIP3    H223013   5.521   3.958   1.632  0.3969  0.1593 -0.8270
  460TIP3   OH223014   6.016   1.642   1.020  0.3626  0.2111  0.2198
  460TIP3    H123015   6.003   1.652   0.925 -0.8763  0.2469  0.3798
  460TIP3    H223016   5.928   1.643   1.056  0.7701 -0.7477  1.2869
  461TIP3   OH223017   2.066   1.810   1.048  0.0177 -0.2394 -0.3800
  461TIP3    H123018   2.065   1.905   1.041 -0.2415 -0.3455 -2.3698
  461TIP3    H223019   2.017   1.791   1.128 -1.2162  1.2524 -0.7429
  462TIP3   OH223020   5.405   5.772   2.284  0.3276 -0.2166  0.0134
  462TIP3    H123021   5.469   5.711   2.321 -0.9658  0.4975  3.9736
  462TIP3    H223022   5.340   5.717   2.241 -0.1973 -1.6457  2.4678
  463TIP3   OH223023   3.408   4.124   0.963 -0.4660  0.5719 -0.0895
  463TIP3    H123024   3.477   4.189   0.956  2.1049 -1.8858  0.6038
  463TIP3    H223025   3.371   4.137   1.051  1.5881 -0.2475  0.9599
  464TIP3   OH223026   5.236   4.079   3.061 -0.3207  0.3198 -0.1783
  464TIP3    H123027   5.266   3.990   3.041 -1.6148 -0.4563  1.1318
  464TIP3    H223028   5.152   4.087   3.017 -1.6416 -0.2446  2.0869
  465TIP3   OH223029   5.607   2.676   0.028  0.1348 -0.0509  0.0823
  465TIP3    H123030   5.642   2.765   0.041 -0.8715  0.1038  2.1147
  465TIP3    H223031   5.522   2.677   0.072  0.5088 -2.2723  0.9699
  466TIP3   OH223032   4.042   5.231   0.749 -0.1034  0.0655 -0.3501
  466TIP3    H123033   4.031   5.323   0.773  1.0173  0.8938 -2.6717
  466TIP3    H223034   4.083   5.191   0.825 -0.3864  1.5407  0.6199
  467TIP3   OH223035   3.790   4.944   1.713  0.7886 -0.2455 -0.1598
  467TIP3    H123036   3.860   4.914   1.771  0.8304  1.0026  0.4673
  467TIP3    H223037   3.790   5.039   1.722 -0.7141 -0.1822 -0.4562
  468TIP3   OH223038   6.263   6.205   7.026  0.7011 -0.0381  0.1313
  468TIP3    H123039   6.339   6.190   7.082  0.2415 -1.2696  0.4366
  468TIP3    H223040   6.193   6.152   7.064 -0.4117  1.2812  0.0121
  469TIP3   OH223041   2.560   0.551   8.400 -0.6713  0.3920  0.2136
  469TIP3    H123042   2.566   0.645   8.417 -1.0670  0.4450  0.0585
  469TIP3    H223043   2.576   0.510   8.485 -1.5840  0.6308  0.5140
  470TIP3   OH223044   0.220   0.005   7.335  0.2677 -0.6365 -0.3133
  470TIP3    H123045   0.177   0.087   7.360  1.9198  0.8388 -1.9095
  470TIP3    H223046   0.209  -0.053   7.410  0.1176  1.4964  1.4053
  471TIP3   OH223047   1.507   6.153   7.912 -0.2820 -0.4716 -0.0523
  471TIP3    H123048   1.519   6.192   7.999  0.2000  1.8046 -1.0534
  471TIP3    H223049   1.414   6.131   7.908 -0.6248  0.7398  0.5617
  472TIP3   OH223050   3.396   1.150   1.120 -0.0481  0.1874 -0.1209
  472TIP3    H123051   3.409   1.096   1.041 -0.1454 -0.5869  0.3799
  472TIP3    H223052   3.312   1.192   1.106  0.2480  0.5970 -0.7344
  473TIP3   OH223053   6.981   3.755   7.956 -0.1657  0.0721 -0.7304
  473TIP3    H123054   6.904   3.788   8.003 -0.0330 -1.5577  0.7160
  473TIP3    H223055   6.946   3.687   7.898  0.1085 -0.3219 -0.4372
  474TIP3   OH223056   5.062   1.958   1.589 -0.2640  0.3593  0.2036
  474TIP3    H123057   5.005   1.928   1.518  0.1831 -1.0854  0.4217
  474TIP3    H223058   5.120   2.022   1.546 -0.9582  0.6216 -0.3794
  475TIP3   OH223059   1.519   1.548   1.448  0.7248  0.5484 -0.5186
  475TIP3    H123060   1.427   1.559   1.471  0.9451 -0.8018  1.2613
  475TIP3    H223061   1.566   1.604   1.509  1.1447 -0.2995 -0.0332
  476TIP3   OH223062   3.888   3.474   7.664 -0.0899 -0.0427  0.5111
  476TIP3    H123063   3.923   3.511   7.745  1.7080  0.5402 -0.4811
  476TIP3    H223064   3.941   3.513   7.594 -0.7585 -1.4760 -0.8719
  477TIP3   OH223065   4.600   5.644   8.303  0.0505  0.6508 -0.0308
  477TIP3    H123066   4.638   5.575   8.358 -1.1810 -0.4688 -0.5047
  477TIP3    H223067   4.507   5.643   8.325 -0.3228  0.7677 -1.4897
  478TIP3   OH223068   3.391   4.639   1.073 -0.7265  0.3698  0.1721
  478TIP3    H123069   3.355   4.726   1.056 -0.6652  0.1663 -1.0757
  478TIP3    H223070   3.388   4.630   1.168 -2.6784  0.9241  0.2065
  479TIP3   OH223071   2.715   5.677   8.390 -0.1490  0.8331 -0.0823
  479TIP3    H123072   2.721   5.645   8.300  0.9085  0.7859 -0.0097
  479TIP3    H223073   2.747   5.604   8.443  0.2827  1.2553  0.2432
  480TIP3   OH223074   3.467   4.342   2.218  0.4137  0.8356  0.4580
  480TIP3    H123075   3.406   4.310   2.285  0.0318 -0.3509 -0.4167
  480TIP3    H223076   3.417   4.406   2.168 -0.1343 -0.0718 -0.2018
  481TIP3   OH223077   4.588   2.272   0.542  0.1141  0.1718 -0.1901
  481TIP3    H123078   4.560   2.300   0.629 -0.3876  0.3482 -0.4044
  481TIP3    H223079   4.678   2.304   0.534 -0.2948  1.3565 -0.2512
  482TIP3   OH223080   2.874   6.389   1.170 -0.1841 -0.0730 -0.0725
  482TIP3    H123081   2.928   6.342   1.233 -0.4628  2.6508  2.4047
  482TIP3    H223082   2.798   6.333   1.156  1.2589 -2.0570 -0.3348
  483TIP3   OH223083   3.124   5.198   2.234 -0.5315 -0.2651  0.6655
  483TIP3    H123084   3.112   5.284   2.272 -2.5577  0.0777 -0.5874
  483TIP3    H223085   3.059   5.143   2.277  0.9701 -1.3078  1.7031
  484TIP3   OH223086   3.589   0.764   7.212 -0.3202  0.0743  0.2759
  484TIP3    H123087   3.610   0.686   7.263 -3.6497 -1.9305 -1.0304
  484TIP3    H223088   3.526   0.812   7.266 -1.1429 -0.1710 -0.4448
  485TIP3   OH223089   6.503   3.036   1.874 -0.4279 -0.1141  0.5537
  485TIP3    H123090   6.587   3.041   1.921  0.0479  0.7967 -0.3432
  485TIP3    H223091   6.437   3.034   1.943  0.2886  0.1691  1.2697
  486TIP3   OH223092   6.731   3.894   2.027  0.6736 -0.2391  0.3478
  486TIP3    H123093   6.664   3.927   1.967 -1.0038 -2.4958  0.8658
  486TIP3    H223094   6.787   3.970   2.044  0.2474  0.9172 -2.7228
  487TIP3   OH223095   6.401   6.466   7.166  0.5373  0.0024 -0.4881
  487TIP3    H123096   6.329   6.460   7.103  1.0422 -0.6503 -1.0238
  487TIP3    H223097   6.475   6.422   7.122  0.7659 -0.8960  0.7342
  488TIP3   OH223098   0.844   2.111   2.249  0.5813 -0.0362 -0.0789
  488TIP3    H123099   0.890   2.175   2.305  1.3656 -0.3674 -0.3238
  488TIP3    H223100   0.759   2.151   2.232  0.5050  0.2841  0.9684
  489TIP3   OH223101   3.480   5.324   1.894 -0.2372  0.0492  0.0316
  489TIP3    H123102   3.557   5.293   1.942 -0.4073 -0.9745 -0.3273
  489TIP3    H223103   3.407   5.275   1.933 -0.4496 -0.3579 -0.8525
  490TIP3   OH223104   1.305   1.734   1.192  0.4019  0.3207 -0.2551
  490TIP3    H123105   1.227   1.703   1.145  1.1305 -0.9988 -0.6385
  490TIP3    H223106   1.270   1.781   1.267 -0.7824 -0.2149 -0.4427
  491TIP3   OH223107   2.593   5.936   1.760 -0.1332  0.1622 -0.0150
  491TIP3    H123108   2.684   5.943   1.734  0.0540 -0.5575  0.4083
  491TIP3    H223109   2.590   5.974   1.848 -0.2743  0.3347 -0.0935
  492TIP3   OH223110   5.453   2.326   0.414  0.0334 -0.3686  0.1028
  492TIP3    H123111   5.465   2.416   0.443 -0.8478 -0.9741  2.6835
  492TIP3    H223112   5.504   2.319   0.334  0.0570  2.4236 -0.2193
  493TIP3   OH223113   2.967   1.534   1.331 -0.4136 -0.2665  0.8640
  493TIP3    H123114   2.960   1.618   1.285  0.8023 -0.3285  0.5200
  493TIP3    H223115   3.062   1.518   1.336 -0.6079 -1.2595  1.5811
  494TIP3   OH223116   1.780   0.698   7.100 -0.3907 -0.2873 -0.1717
  494TIP3    H123117   1.699   0.648   7.085 -0.6858  0.0559  0.2654
  494TIP3    H223118   1.844   0.632   7.125 -1.2788 -0.2733  2.3824
  495TIP3   OH223119   1.643   5.381   2.050 -0.5665  0.2794  0.6262
  495TIP3    H123120   1.620   5.419   2.135  1.3452  2.2824  0.3408
  495TIP3    H223121   1.692   5.302   2.072 -1.4870 -0.1155  1.3275
  496TIP3   OH223122   5.246   3.067   1.324 -0.0416  0.2892  0.2592
  496TIP3    H123123   5.177   3.079   1.390  0.2702 -2.0122  1.1019
  496TIP3    H223124   5.327   3.064   1.375  0.1800 -1.7965 -0.1431
  497TIP3   OH223125   2.702   3.473   1.810  0.0807 -0.1865 -0.6662
  497TIP3    H123126   2.742   3.546   1.763 -0.7359  0.4866 -0.3407
  497TIP3    H223127   2.694   3.503   1.900  0.5749 -1.0344 -0.3210
  498TIP3   OH223128   2.184   1.430   0.390  0.4992 -0.2483  0.1000
  498TIP3    H123129   2.207   1.449   0.299  0.4788  2.3169  0.5434
  498TIP3    H223130   2.252   1.370   0.420  2.4698  1.4410 -0.7135
  499TIP3   OH223131   3.531   4.326   7.491 -0.7817  0.3611 -0.1361
  499TIP3    H123132   3.452   4.319   7.437  0.4524 -0.8103 -1.8953
  499TIP3    H223133   3.598   4.280   7.441  0.3456 -1.2550  2.6857
  500TIP3   OH223134   1.446   2.363   7.374 -0.1979 -0.1931 -0.2640
  500TIP3    H123135   1.501   2.291   7.344 -0.5078 -0.4084 -0.3196
  500TIP3    H223136   1.362   2.349   7.330 -0.9958 -1.0745  1.4537
  501TIP3   OH223137   5.964   0.451   8.326  0.0038 -0.5655  0.6966
  501TIP3    H123138   5.949   0.357   8.326  1.0832 -0.7839  2.5026
  501TIP3    H223139   5.877   0.490   8.342 -0.3312 -1.2916  0.6506
  502TIP3   OH223140   0.914   1.979   8.258 -1.0575  0.4463 -0.1329
  502TIP3    H123141   0.914   1.890   8.223 -0.6341  0.4051 -0.0295
  502TIP3    H223142   0.857   2.028   8.198  2.2045  1.1680 -2.9467
  503TIP3   OH223143   2.611   1.704   8.282  0.1269 -0.1957 -0.1229
  503TIP3    H123144   2.602   1.800   8.282 -0.3143 -0.1537 -2.8285
  503TIP3    H223145   2.661   1.685   8.362  0.1145  2.2665  0.5628
  504TIP3   OH223146   2.381   5.315   8.285  0.1012 -0.5348 -0.1847
  504TIP3    H123147   2.465   5.358   8.305  0.6204 -1.5049 -0.2378
  504TIP3    H223148   2.360   5.265   8.363 -0.4766 -0.2436 -0.1455
  505TIP3   OH223149   0.891   3.637   1.596  0.4804 -0.4289  0.0745
  505TIP3    H123150   0.822   3.602   1.652  0.9104 -0.2564  0.7362
  505TIP3    H223151   0.878   3.731   1.597  0.5882 -0.4129  0.0276
  506TIP3   OH223152   4.850   1.764   1.228 -0.2800 -0.1482 -0.3195
  506TIP3    H123153   4.778   1.787   1.170 -0.8292 -0.6101  0.1666
  506TIP3    H223154   4.861   1.670   1.215 -0.6975 -0.3334  0.6468
  507TIP3   OH223155   2.215   6.545   6.582 -0.0275  0.1647  0.2105
  507TIP3    H123156   2.245   6.470   6.633 -0.1476 -0.0531 -0.0339
  507TIP3    H223157   2.291   6.571   6.530 -0.0228  0.1328  0.2016
  508TIP3   OH223158   1.284   2.729   0.706  0.2778 -0.7445  0.3142
  508TIP3    H123159   1.348   2.673   0.749  1.6100 -0.1859 -0.8396
  508TIP3    H223160   1.273   2.689   0.619  0.3561  0.1111 -0.0947
  509TIP3   OH223161   6.330   0.071   8.130 -0.2167 -0.4283 -0.1663
  509TIP3    H123162   6.290   0.029   8.054  0.2260  0.0181 -0.6581
  509TIP3    H223163   6.424   0.064   8.114 -0.1024 -1.1086  0.7734
  510TIP3   OH223164   0.709   0.193   6.209 -0.3806 -0.3715  0.3641
  510TIP3    H123165   0.755   0.271   6.242  0.1702 -1.1623  1.5212
  510TIP3    H223166   0.770   0.154   6.147 -1.8532  1.7300 -2.6443
  511TIP3   OH223167   5.191   3.414   0.609  0.0466 -0.2335 -0.0430
  511TIP3    H123168   5.272   3.386   0.567 -0.3151 -2.1268  0.4246
  511TIP3    H223169   5.122   3.398   0.544 -0.2308 -1.0337  0.4211
  512TIP3   OH223170   0.228   4.351   1.604 -0.0030 -0.2974  0.1769
  512TIP3    H123171   0.181   4.385   1.680  1.1421  1.6136  0.0728
  512TIP3    H223172   0.275   4.275   1.637 -2.0121 -1.4567  0.5858
  513TIP3   OH223173   1.355   4.656   6.709  0.2585 -0.4221 -0.4655
  513TIP3    H123174   1.350   4.690   6.798 -2.0293  1.0881 -1.0795
  513TIP3    H223175   1.292   4.584   6.707 -1.6974  1.2032 -1.4276
  514TIP3   OH223176   2.418   1.199   8.174  0.4241  0.2221 -0.2745
  514TIP3    H123177   2.458   1.153   8.101  2.4851  1.1146  0.2055
  514TIP3    H223178   2.439   1.292   8.159  0.1903  0.5076  0.9930
  515TIP3   OH223179   1.792   0.713   0.399  0.1322  0.1203  0.2843
  515TIP3    H123180   1.724   0.709   0.332  0.0352  0.1764  0.3781
  515TIP3    H223181   1.861   0.654   0.368  0.5597  0.9538 -0.3816
  516TIP3   OH223182   2.534   3.006   0.811  0.1889 -0.0570 -0.5198
  516TIP3    H123183   2.481   3.045   0.742  0.4657  1.4993  0.1028
  516TIP3    H223184   2.548   2.916   0.783 -0.0535  0.4243 -2.2925
  517TIP3   OH223185   0.848   0.119   7.270 -0.5909 -0.0067 -0.1809
  517TIP3    H123186   0.901   0.049   7.307  1.4890  0.1181 -2.6467
  517TIP3    H223187   0.793   0.075   7.205  0.7916  0.5440 -1.8066
  518TIP3   OH223188   5.705   3.510   0.718  0.0304  0.2842 -0.4394
  518TIP3    H123189   5.740   3.439   0.772 -0.3361  0.2936 -0.1858
  518TIP3    H223190   5.616   3.483   0.698  0.5671 -0.3611 -2.1770
  519TIP3   OH223191   3.371   3.965   7.000 -0.5354  0.5178 -0.6201
  519TIP3    H123192   3.424   3.913   6.939 -0.1188  0.6491 -0.3778
  519TIP3    H223193   3.284   3.928   6.994 -0.2211 -0.2777 -0.3707
  520TIP3   OH223194   1.649   1.680   0.445 -0.0948 -0.1221 -0.2361
  520TIP3    H123195   1.668   1.667   0.352 -0.3940 -0.5456 -0.2414
  520TIP3    H223196   1.721   1.636   0.490 -0.5535 -0.9336 -0.2646
  521TIP3   OH223197   1.801   4.016   0.582 -0.2254  0.4886 -0.2127
  521TIP3    H123198   1.837   4.096   0.619 -0.9578  0.6377  0.1881
  521TIP3    H223199   1.826   4.019   0.490  1.0183  0.4456  0.1100
  522TIP3   OH223200   5.716   2.410   0.948 -0.5159  0.5929  0.3278
  522TIP3    H123201   5.698   2.492   0.994 -3.2576 -1.0712  2.5430
  522TIP3    H223202   5.643   2.400   0.887 -0.5399 -0.5004  0.5206
  523TIP3   OH223203   0.975   3.691   1.003  0.1375  0.1342 -0.1343
  523TIP3    H123204   0.972   3.632   0.927 -0.6429  0.7180 -0.5786
  523TIP3    H223205   1.063   3.682   1.037  1.2546  1.5010 -2.4340
  524TIP3   OH223206   4.465   4.693   0.694  0.0992  0.1686 -0.1966
  524TIP3    H123207   4.415   4.614   0.675  2.0704 -0.5537 -2.8919
  524TIP3    H223208   4.555   4.663   0.707  0.5846  1.8110  0.5624
  525TIP3   OH223209   4.418   0.575   7.238  0.4697  0.3175 -0.6094
  525TIP3    H123210   4.445   0.625   7.315  1.3736  1.2466 -1.4893
  525TIP3    H223211   4.396   0.641   7.172  1.0160 -0.4348 -1.5833
  526TIP3   OH223212   0.569   6.652   0.061 -0.5216 -0.0480  0.2300
  526TIP3    H123213   0.476   6.674   0.055 -0.4315  1.1008  2.1483
  526TIP3    H223214   0.585   6.644   0.155  1.2440 -0.5848 -0.0924
  527TIP3   OH223215   4.133   2.337   6.405  0.7670  0.4922 -0.0603
  527TIP3    H123216   4.052   2.297   6.438  2.1033 -1.3268  1.1934
  527TIP3    H223217   4.117   2.431   6.412 -0.9395  0.1801  0.9640
  528TIP3   OH223218   5.148   6.541   0.806  0.2199  0.1655 -0.4535
  528TIP3    H123219   5.157   6.502   0.893 -0.1212  1.2009  0.0579
  528TIP3    H223220   5.238   6.563   0.781  0.3066 -0.0093 -0.3005
  529TIP3   OH223221   4.521   2.300   6.868 -0.2940 -0.3363  0.2523
  529TIP3    H123222   4.458   2.249   6.919 -0.6009  0.5011  0.7348
  529TIP3    H223223   4.503   2.277   6.777 -1.0751 -0.3535  0.4099
  530TIP3   OH223224   3.133   1.381   8.063 -0.6499  0.0052  1.0072
  530TIP3    H123225   3.104   1.365   7.973  0.7463 -1.2507  0.7386
  530TIP3    H223226   3.099   1.307   8.113  0.4441 -0.4736  1.0573
  531TIP3   OH223227   0.160   0.150   0.322 -0.1708 -0.0169 -0.3274
  531TIP3    H123228   0.129   0.221   0.266  0.1967  0.6927  0.3661
  531TIP3    H223229   0.254   0.163   0.328 -0.1598 -0.2989  0.1647
  532TIP3   OH223230   1.288   0.329   7.194 -0.1780  0.2739  0.7413
  532TIP3    H123231   1.194   0.317   7.200 -0.2354 -0.7934 -1.4480
  532TIP3    H223232   1.325   0.249   7.230  0.0083  1.3342  3.0925
  533TIP3   OH223233   5.061   5.558   8.342  0.4683  0.9399 -0.5721
  533TIP3    H123234   5.073   5.653   8.330 -2.2387  1.3739 -0.4248
  533TIP3    H223235   5.082   5.544   8.434  1.0599  1.3297 -0.6326
  534TIP3   OH223236   4.148   0.857   8.045 -0.1767 -0.2398 -0.1862
  534TIP3    H123237   4.128   0.766   8.067 -0.7153 -0.3053 -0.9264
  534TIP3    H223238   4.146   0.860   7.950 -0.0741  0.5335 -0.1700
  535TIP3   OH223239   4.019   3.748   1.336  0.0805 -0.3142  0.3059
  535TIP3    H123240   4.066   3.812   1.283  1.1196 -0.6268  0.8117
  535TIP3    H223241   3.965   3.801   1.395 -0.4165  0.0462 -0.4572
  536TIP3   OH223242   3.212   6.789   6.735  0.0015  0.0675  0.5172
  536TIP3    H123243   3.291   6.770   6.785  1.4196  1.0070 -1.2275
  536TIP3    H223244   3.156   6.837   6.796 -0.3653 -2.6864  2.5519
  537TIP3   OH223245   5.626   4.486   1.843  0.3559  0.1384 -0.2346
  537TIP3    H123246   5.617   4.558   1.782 -1.2262 -1.3080 -1.8295
  537TIP3    H223247   5.688   4.426   1.801 -1.6040 -1.4040 -1.0935
  538TIP3   OH223248   1.179   0.499   0.928  0.1281 -0.2523  0.0855
  538TIP3    H123249   1.094   0.456   0.941  0.8760 -1.7720  0.1457
  538TIP3    H223250   1.202   0.479   0.837  1.0811 -1.1436  0.4970
  539TIP3   OH223251   5.639   2.324   0.187 -0.7224  0.4051 -0.2118
  539TIP3    H123252   5.713   2.342   0.246 -1.8978 -0.0717  1.5051
  539TIP3    H223253   5.677   2.325   0.100  1.6441 -1.3456  0.6804
  540TIP3   OH223254   5.183   6.133   1.784  0.1740 -0.4389 -0.0512
  540TIP3    H123255   5.157   6.126   1.876 -0.7550 -2.2433 -0.3943
  540TIP3    H223256   5.100   6.140   1.737  0.6313  0.1157 -0.7761
  541TIP3   OH223257   3.004   1.908   2.075 -0.3673  0.3178  0.0066
  541TIP3    H123258   3.094   1.939   2.065  0.1940 -1.2683 -0.1629
  541TIP3    H223259   2.968   1.962   2.146  0.2710  1.8518 -0.7865
  542TIP3   OH223260   2.379   3.756   2.212  0.1194 -0.3267  0.3696
  542TIP3    H123261   2.394   3.662   2.220  1.0294 -0.0272  2.9967
  542TIP3    H223262   2.465   3.792   2.192  0.4394  0.1634  2.3781
  543TIP3   OH223263   2.214   6.194   7.313 -0.0587  0.6789 -0.4313
  543TIP3    H123264   2.186   6.228   7.228 -1.3161 -1.3299 -0.8947
  543TIP3    H223265   2.287   6.250   7.338 -0.2900  1.9524 -2.3582
  544TIP3   OH223266   3.534   0.322   7.337  1.0343  0.0855  0.1408
  544TIP3    H123267   3.507   0.252   7.397 -0.7892 -0.5235 -1.2831
  544TIP3    H223268   3.594   0.280   7.276  1.4052  0.2344  0.4018
  545TIP3   OH223269   1.010   6.598   1.191 -0.1527  0.0552 -0.0701
  545TIP3    H123270   1.088   6.548   1.165 -0.8792 -0.5440 -1.1668
  545TIP3    H223271   1.044   6.687   1.205  1.0930 -0.6293  1.5852
  546TIP3   OH223272   3.401   0.357   8.364  0.0944  0.6186  0.7939
  546TIP3    H123273   3.362   0.417   8.428 -2.4804 -1.0180  0.9209
  546TIP3    H223274   3.348   0.278   8.370  0.8403 -0.2507 -2.1472
  547TIP3   OH223275   3.866   3.058   8.091 -0.4853 -0.1164 -0.8348
  547TIP3    H123276   3.812   3.129   8.125  0.1983  0.1054 -0.2049
  547TIP3    H223277   3.910   3.022   8.168  1.4567  0.6997 -1.5152
  548TIP3   OH223278   6.540   1.220   1.848 -0.0626  0.3956 -0.1786
  548TIP3    H123279   6.623   1.196   1.806 -0.6772  0.5100 -1.4867
  548TIP3    H223280   6.472   1.192   1.786 -0.9930  0.7009  0.6735
  549TIP3   OH223281   1.431   1.281   7.786 -0.0855 -0.5886 -0.3317
  549TIP3    H123282   1.507   1.232   7.755  1.4882  1.6713 -0.2852
  549TIP3    H223283   1.398   1.327   7.709 -0.2165 -0.0717  0.0221
  550TIP3   OH223284   4.301   3.177   1.179 -0.4593  0.1889 -0.1979
  550TIP3    H123285   4.280   3.169   1.086 -0.7119 -0.6494 -0.0786
  550TIP3    H223286   4.222   3.216   1.218 -1.2355 -1.5136  0.0012
  551TIP3   OH223287   3.546   5.934   1.423  0.6259 -0.7987  0.0856
  551TIP3    H123288   3.552   5.988   1.344  0.0932 -0.0075  0.5753
  551TIP3    H223289   3.467   5.881   1.410  1.3912 -1.8228 -0.5952
  552TIP3   OH223290   5.652   4.712   8.397 -0.0938 -0.1390 -0.2146
  552TIP3    H123291   5.663   4.772   8.471  0.3735  0.4848 -0.7800
  552TIP3    H223292   5.561   4.723   8.371 -0.1657 -0.0994  0.0486
  553TIP3   OH223293   2.884   2.704   7.232  0.2050  0.0652 -0.2771
  553TIP3    H123294   2.936   2.724   7.154  1.7543 -2.4912 -0.0368
  553TIP3    H223295   2.818   2.641   7.201 -0.4213  0.5005  0.1403
  554TIP3   OH223296   1.642   6.428   8.381 -0.0254  0.1680 -0.3493
  554TIP3    H123297   1.680   6.498   8.434  0.3557 -0.1737 -0.1724
  554TIP3    H223298   1.556   6.413   8.420 -0.3905  0.9966 -0.7995
  555TIP3   OH223299   1.148   6.457   0.641 -0.0431 -0.5512  0.2205
  555TIP3    H123300   1.130   6.499   0.725  1.5029  1.3994 -0.3222
  555TIP3    H223301   1.066   6.417   0.615 -1.4786  1.5845  1.1729
  556TIP3   OH223302   3.550   4.920   1.234 -0.2153  0.0318 -0.1684
  556TIP3    H123303   3.592   4.910   1.319 -1.3550  0.4539  0.4644
  556TIP3    H223304   3.483   4.987   1.247  1.3264  2.0575 -2.0829
  557TIP3   OH223305   6.483   3.524   7.651  0.5773  0.1697  0.0307
  557TIP3    H123306   6.511   3.593   7.710  0.6425 -1.7892  2.4405
  557TIP3    H223307   6.389   3.516   7.665  0.1762  1.1188 -1.8145
  558TIP3   OH223308   6.079   3.556   1.481 -0.0450 -0.9798  0.2601
  558TIP3    H123309   6.119   3.590   1.400 -2.5215 -0.5303 -0.8486
  558TIP3    H223310   6.115   3.612   1.550 -2.3494  2.7613 -1.2513
  559TIP3   OH223311   4.490   1.962   7.696 -0.4453  0.7117 -0.2887
  559TIP3    H123312   4.538   1.973   7.614  1.5561 -0.7219  0.5955
  559TIP3    H223313   4.450   1.876   7.689  0.2917  0.2899  0.4548
  560TIP3   OH223314   3.031   2.022   0.084  0.0598 -0.5250  0.0428
  560TIP3    H123315   3.067   2.035   0.171 -1.3117  1.5862  0.3833
  560TIP3    H223316   3.107   2.024   0.026  0.8198  0.4102  1.0065
  561TIP3   OH223317   3.136   5.590   1.470 -0.3770 -0.3796 -0.6202
  561TIP3    H123318   3.088   5.640   1.405 -1.2013 -1.3514 -0.7840
  561TIP3    H223319   3.093   5.610   1.553 -0.9189 -1.0467 -0.7307
  562TIP3   OH223320   3.840   0.524   0.537  0.0229 -0.4340  0.1376
  562TIP3    H123321   3.815   0.614   0.560  1.9999  1.0429 -2.8755
  562TIP3    H223322   3.787   0.503   0.460  0.0018 -1.6562  0.4643
  563TIP3   OH223323   0.919   6.710   1.737  1.4168 -0.1253 -0.3483
  563TIP3    H123324   1.002   6.729   1.782  1.1077  1.1545 -0.3047
  563TIP3    H223325   0.872   6.653   1.799  1.6437  0.3533  0.2773
  564TIP3   OH223326   2.795   0.841   7.247  0.7583 -0.3466 -0.8936
  564TIP3    H123327   2.816   0.767   7.304 -1.0498 -0.4193 -0.2555
  564TIP3    H223328   2.781   0.801   7.161 -0.1805 -0.7678 -0.5602
  565TIP3   OH223329   0.496   3.143   6.773  0.3783  0.7691  0.0117
  565TIP3    H123330   0.507   3.218   6.831 -0.7286  1.5035 -0.7002
  565TIP3    H223331   0.584   3.124   6.742  1.2516 -0.5225  2.9444
  566TIP3   OH223332   1.258   6.658   8.101 -0.0252 -0.0669 -0.4449
  566TIP3    H123333   1.340   6.609   8.095  0.0037  0.0096 -0.6868
  566TIP3    H223334   1.240   6.662   8.194  1.5694  2.1109 -0.1648
  567TIP3   OH223335   4.676   6.019   7.627 -0.4124 -0.6886  0.3389
  567TIP3    H123336   4.762   6.062   7.623 -0.9845  0.4547 -0.0468
  567TIP3    H223337   4.646   6.019   7.536 -1.0239 -0.6552  0.5382
  568TIP3   OH223338   3.243   4.133   0.616 -0.7230 -0.1780 -0.7398
  568TIP3    H123339   3.233   4.086   0.700 -0.3513  0.0778 -0.5517
  568TIP3    H223340   3.334   4.162   0.616 -0.7656 -0.0471 -1.1701
  569TIP3   OH223341   2.062   2.837   6.837  0.5156  0.1049  0.4293
  569TIP3    H123342   2.051   2.767   6.902  0.4762 -2.0531 -1.7550
  569TIP3    H223343   2.001   2.814   6.767  1.5761  1.5177 -1.0328
  570TIP3   OH223344   2.894   5.878   8.464  0.6699 -0.0755 -0.1685
  570TIP3    H123345   2.972   5.837   8.503  0.6977 -0.6983 -0.8630
  570TIP3    H223346   2.829   5.808   8.460  0.2022  0.3401  0.0345
  571TIP3   OH223347   1.063   5.240   1.455 -0.1403  0.4908  0.4383
  571TIP3    H123348   1.126   5.190   1.404 -0.5197 -1.1836  1.5577
  571TIP3    H223349   1.052   5.322   1.406  1.5928  0.1019 -0.6543
  572TIP3   OH223350   4.595   2.391   8.199  0.4621  0.4591 -0.4540
  572TIP3    H123351   4.554   2.367   8.283  0.0758  0.1252 -0.7337
  572TIP3    H223352   4.584   2.313   8.144  0.1377  0.9040 -1.0305
  573TIP3   OH223353   1.541   5.483   6.966  0.3890  0.5442  0.3482
  573TIP3    H123354   1.512   5.397   6.937  0.0283  0.6873  0.2894
  573TIP3    H223355   1.537   5.479   7.062 -1.1622  1.0170  0.3296
  574TIP3   OH223356   6.666   1.489   1.077  0.0374  0.1659 -1.0744
  574TIP3    H123357   6.600   1.520   1.138 -0.9768 -2.0515 -0.9428
  574TIP3    H223358   6.747   1.488   1.128  0.0445  2.0294 -0.9702
  575TIP3   OH223359   5.969   3.088   0.743 -0.0110 -0.2598 -0.1932
  575TIP3    H123360   6.019   3.006   0.741  1.0413  0.3516 -0.1314
  575TIP3    H223361   5.957   3.105   0.837 -0.6148 -0.5623 -0.2130
  576TIP3   OH223362   5.439   3.388   1.560 -0.2599 -0.5177 -0.4810
  576TIP3    H123363   5.383   3.447   1.610  2.4538  2.1034 -0.2689
  576TIP3    H223364   5.443   3.426   1.473  0.6667 -1.0285 -0.6735
  577TIP3   OH223365   4.593   0.090   1.029  0.0317  0.1861  0.3013
  577TIP3    H123366   4.626   0.008   1.064 -0.7410  0.0735  0.8119
  577TIP3    H223367   4.558   0.068   0.943 -1.0563 -0.2406  0.8325
  578TIP3   OH223368   4.235   1.837   0.468  0.3385  0.3461 -0.8469
  578TIP3    H123369   4.260   1.869   0.555  0.9054  1.6562 -1.4590
  578TIP3    H223370   4.318   1.809   0.428  0.0215 -0.6666 -0.8184
  579TIP3   OH223371   6.075   2.296   0.164  0.3832  0.5817 -0.1364
  579TIP3    H123372   6.046   2.263   0.249  0.5617 -1.4747 -0.8312
  579TIP3    H223373   6.160   2.254   0.149  0.6247  1.3591 -1.0933
  580TIP3   OH223374   2.313   5.337   1.677  0.1682 -0.1967  0.1241
  580TIP3    H123375   2.400   5.363   1.646  0.0453 -0.9265 -0.8828
  580TIP3    H223376   2.307   5.244   1.658 -1.3792  0.1189 -1.2254
  581TIP3   OH223377   5.534   3.156   7.712  0.1769  0.4646 -0.4550
  581TIP3    H123378   5.600   3.190   7.772  0.1825  1.8539 -1.1964
  581TIP3    H223379   5.585   3.125   7.637  0.2267 -1.9119  0.4823
  582TIP3   OH223380   2.974   5.547   7.663 -0.0397  0.0044 -0.1859
  582TIP3    H123381   3.007   5.594   7.587  0.3768  0.5181  0.3069
  582TIP3    H223382   2.920   5.476   7.626  1.1270 -0.4962 -0.9913
  583TIP3   OH223383   0.007   0.817   0.459 -0.2008  0.0726  0.0297
  583TIP3    H123384   0.020   0.730   0.498 -0.6020  0.7233  1.6838
  583TIP3    H223385   0.089   0.863   0.476  0.0236  0.0280 -0.8785
  584TIP3   OH223386   5.027   1.656   7.833 -0.3697 -0.5185 -0.4894
  584TIP3    H123387   4.931   1.660   7.840 -0.2459 -0.2110  1.5919
  584TIP3    H223388   5.052   1.581   7.887  0.6074 -0.3366 -0.6666
  585TIP3   OH223389   3.175   1.333   7.534  0.1981 -0.4239 -0.1999
  585TIP3    H123390   3.190   1.413   7.483  1.4362 -0.5293 -0.0248
  585TIP3    H223391   3.244   1.334   7.601 -0.2337 -1.2681  0.2734
  586TIP3   OH223392   3.188   4.344   7.565 -0.0316 -0.5404  0.1048
  586TIP3    H123393   3.243   4.276   7.527  0.0998 -1.0622  1.1959
  586TIP3    H223394   3.221   4.356   7.654 -0.9000  0.0076  0.3760
  587TIP3   OH223395   6.160   0.489   7.724 -0.0072  0.2752  0.3043
  587TIP3    H123396   6.100   0.481   7.798 -1.1645 -0.7926 -0.6996
  587TIP3    H223397   6.181   0.399   7.700  3.3115  0.5706  1.5833
  588TIP3   OH223398   4.112   6.446   0.380 -0.4510  0.2385 -0.2136
  588TIP3    H123399   4.182   6.488   0.329  2.1096 -1.1273  1.9052
  588TIP3    H223400   4.100   6.361   0.338  0.2242 -0.0924  0.2455
  589TIP3   OH223401   4.631   6.670   1.025 -0.7272  0.2516  0.2203
  589TIP3    H123402   4.656   6.701   0.938 -1.3696 -2.2121 -0.9516
  589TIP3    H223403   4.539   6.643   1.014 -1.6664  2.2564  2.4016
  590TIP3   OH223404   2.196   6.379   7.010 -0.2421 -0.3051  0.6705
  590TIP3    H123405   2.252   6.311   6.973  0.1447 -0.3951  1.4037
  590TIP3    H223406   2.107   6.352   6.987 -0.1418 -1.4084  1.4801
  591TIP3   OH223407   2.227   3.171   7.463 -0.2373 -0.2417  0.0616
  591TIP3    H123408   2.320   3.155   7.477 -0.0239  0.4835 -0.4614
  591TIP3    H223409   2.222   3.208   7.375 -0.7128  2.1730  1.0129
  592TIP3   OH223410   3.519   0.568   7.661 -0.5855  0.9054  0.3606
  592TIP3    H123411   3.494   0.500   7.723 -0.5013  0.6962  0.1681
  592TIP3    H223412   3.452   0.635   7.670 -1.8150 -0.0927 -0.8710
  593TIP3   OH223413   2.398   2.933   7.475  0.1101 -0.0235 -0.0521
  593TIP3    H123414   2.434   2.854   7.434 -1.5009 -0.6055 -0.4586
  593TIP3    H223415   2.448   2.943   7.555  3.5791  1.3173 -2.1855
  594TIP3   OH223416   5.765   1.021   7.280  0.1049 -0.4376 -0.2182
  594TIP3    H123417   5.859   1.007   7.288  0.1238 -0.3049 -0.1925
  594TIP3    H223418   5.726   0.962   7.345  0.3636  1.9566  2.3109
  595TIP3   OH223419   0.580   1.125   8.016  0.9260  0.0149 -0.1222
  595TIP3    H123420   0.629   1.056   8.060  0.8420 -0.6353 -1.0367
  595TIP3    H223421   0.500   1.134   8.068  1.2262 -0.1222  0.3704
  596TIP3   OH223422   1.165   5.401   6.972 -0.1216  0.0650  0.1790
  596TIP3    H123423   1.220   5.479   6.967  0.4791 -0.3162  0.6979
  596TIP3    H223424   1.218   5.336   7.018 -0.9086 -0.3973  0.4694
  597TIP3   OH223425   0.523   3.085   1.040 -0.0225  0.1716  0.6124
  597TIP3    H123426   0.448   3.065   1.096 -0.5076  1.7754  0.6120
  597TIP3    H223427   0.556   3.000   1.011 -0.6218 -0.6428  2.1993
  598TIP3   OH223428   6.339   6.308   8.164  0.6697  0.4104 -0.7772
  598TIP3    H123429   6.422   6.267   8.187  0.3091 -0.9620 -1.7690
  598TIP3    H223430   6.303   6.252   8.095 -1.4256  0.5156  0.1349
  599TIP3   OH223431   3.164   5.824   0.728 -0.2398 -0.0338 -0.5616
  599TIP3    H123432   3.105   5.804   0.656 -0.3304  0.6917 -0.6951
  599TIP3    H223433   3.251   5.802   0.695 -0.4384 -1.3279 -0.2829
  600TIP3   OH223434   6.776   1.195   1.737  0.0666  0.5146  0.7714
  600TIP3    H123435   6.812   1.168   1.822 -1.8327  0.8096  1.7329
  600TIP3    H223436   6.774   1.115   1.685 -0.6510 -0.1367  1.7493
  601TIP3   OH223437   4.511   5.101   6.679  0.0635 -0.0651  0.1864
  601TIP3    H123438   4.504   5.136   6.590 -0.0320 -0.5625 -0.0051
  601TIP3    H223439   4.597   5.130   6.709  0.3022 -0.2983 -0.2507
  602TIP3   OH223440   0.362   5.836   0.905 -0.1522  0.1438  0.3321
  602TIP3    H123441   0.342   5.842   0.999  1.4175 -3.5102  1.1004
  602TIP3    H223442   0.417   5.912   0.887  0.4502  0.3414  2.6790
  603TIP3   OH223443   5.276   2.623   0.654  0.0449 -0.2529  0.4405
  603TIP3    H123444   5.206   2.557   0.649  0.3608 -0.8461  2.6148
  603TIP3    H223445   5.247   2.683   0.723  1.1799  0.0739  0.6558
  604TIP3   OH223446   5.472   0.709   1.827  0.1186 -0.3528 -0.4708
  604TIP3    H123447   5.564   0.734   1.818  0.4226 -0.1832  2.0970
  604TIP3    H223448   5.475   0.623   1.870 -0.7280  1.4871  3.8075
  605TIP3   OH223449   1.273   0.279   1.933 -0.5939  0.2596 -0.2047
  605TIP3    H123450   1.219   0.259   2.010 -1.1684  0.6199 -0.5105
  605TIP3    H223451   1.210   0.304   1.865 -0.0608  0.3722 -0.6632
  606TIP3   OH223452   1.815   2.995   6.941 -0.1039  0.6042  0.0363
  606TIP3    H123453   1.849   2.945   6.867  0.0788  0.3430  0.2934
  606TIP3    H223454   1.767   3.068   6.901 -0.7534 -0.0188 -0.3462
  607TIP3   OH223455   6.177   5.539   8.217  0.2003 -0.3473  0.2615
  607TIP3    H123456   6.204   5.561   8.307  0.1589  1.8731 -0.2188
  607TIP3    H223457   6.260   5.537   8.168  0.1070 -0.2025  0.0972
  608TIP3   OH223458   4.648   2.891   0.262 -0.1277 -0.3507  0.3573
  608TIP3    H123459   4.730   2.935   0.288 -0.6159  0.4810  0.5293
  608TIP3    H223460   4.583   2.925   0.323 -0.4389 -1.7072  0.8106
  609TIP3   OH223461   0.174   6.112   7.966  0.0194 -0.4825 -0.8736
  609TIP3    H123462   0.096   6.109   8.021  0.7417 -0.1270  0.2221
  609TIP3    H223463   0.244   6.080   8.024  0.8753  0.2863 -1.4606
  610TIP3   OH223464   6.604   6.672   1.273  0.4218 -0.0437 -0.0019
  610TIP3    H123465   6.661   6.722   1.214  0.7519 -1.8292 -1.2684
  610TIP3    H223466   6.636   6.582   1.268 -1.3659 -0.7761  0.6833
  611TIP3   OH223467   4.243   4.413   1.438 -0.0191 -0.5877 -0.4188
  611TIP3    H123468   4.296   4.430   1.516 -2.5565  0.2414  1.2518
  611TIP3    H223469   4.243   4.317   1.430  2.1314 -0.5997 -0.8382
  612TIP3   OH223470   4.369   1.714   1.954  0.2580  0.2049  0.0508
  612TIP3    H123471   4.423   1.766   1.894 -0.5062 -0.2236 -1.0432
  612TIP3    H223472   4.394   1.745   2.041 -0.5811  2.8802 -0.5496
  613TIP3   OH223473   2.877   4.996   0.300  0.3378  0.0862 -0.0825
  613TIP3    H123474   2.969   4.973   0.308  0.4337  0.3471 -0.4157
  613TIP3    H223475   2.858   5.048   0.378  0.5096  0.1551 -0.0871
  614TIP3   OH223476   0.377   3.416   7.845  0.3451  0.3093  0.0495
  614TIP3    H123477   0.398   3.400   7.753 -3.3366 -0.2121 -0.8654
  614TIP3    H223478   0.408   3.337   7.890  0.1165 -0.4899 -1.1313
  615TIP3   OH223479   5.379   0.384   7.904 -0.5746 -0.3424 -0.0687
  615TIP3    H123480   5.316   0.327   7.860 -0.8972  0.0903 -0.1720
  615TIP3    H223481   5.340   0.403   7.989 -0.6041 -0.0496 -0.1452
  616TIP3   OH223482   5.644   6.496   8.349  0.2935 -0.6587  0.5284
  616TIP3    H123483   5.713   6.536   8.296 -1.1047 -0.1061 -0.9488
  616TIP3    H223484   5.686   6.481   8.434  1.0547  3.6754  1.1603
  617TIP3   OH223485   0.799   4.485   0.596 -0.1511 -0.0098  0.3628
  617TIP3    H123486   0.793   4.478   0.500 -1.3602  0.4253  0.3918
  617TIP3    H223487   0.775   4.398   0.627 -0.9167  0.1650  0.2911
  618TIP3   OH223488   1.234   2.098   1.884 -0.1817  0.0383 -0.4809
  618TIP3    H123489   1.242   2.094   1.979 -1.5442 -0.7643 -0.3754
  618TIP3    H223490   1.194   2.183   1.867 -0.4566 -0.0542 -0.2966
  619TIP3   OH223491   5.093   1.478   0.532  0.1048 -0.0142  0.5308
  619TIP3    H123492   5.120   1.387   0.519  0.1411 -0.2500  2.1507
  619TIP3    H223493   5.130   1.524   0.456  0.5677 -1.2329 -0.0197
  620TIP3   OH223494   4.242   6.474   7.689 -0.5232  0.7725  0.8269
  620TIP3    H123495   4.171   6.449   7.748  0.5694 -0.4138  1.6809
  620TIP3    H223496   4.203   6.540   7.632 -2.2504  0.3098  1.4063
  621TIP3   OH223497   2.226   2.945   7.220  0.0429  1.0174 -0.2010
  621TIP3    H123498   2.224   2.948   7.315  0.9057 -1.6221 -0.0027
  621TIP3    H223499   2.176   3.021   7.192 -3.5389 -0.1072  2.3900
  622TIP3   OH223500   0.840   4.959   0.890 -0.2712  0.2850  0.1774
  622TIP3    H123501   0.863   5.013   0.966  0.2329 -1.2036  1.1367
  622TIP3    H223502   0.890   4.879   0.902 -0.8319 -0.3234 -1.3137
  623TIP3   OH223503   4.297   6.823   7.643 -0.9562  0.1572 -0.3409
  623TIP3    H123504   4.210   6.858   7.664 -0.9325  0.0878 -0.1198
  623TIP3    H223505   4.334   6.799   7.728 -1.5971 -1.9096 -0.5832
  624TIP3   OH223506   1.253   6.205   1.419  0.2736  0.6970  0.4833
  624TIP3    H123507   1.240   6.180   1.510  1.5127  1.1795  0.8106
  624TIP3    H223508   1.343   6.238   1.415  0.4639  0.0957 -1.0468
  625TIP3   OH223509   5.587   0.763   0.315  0.2375  0.7789  0.5602
  625TIP3    H123510   5.495   0.773   0.342 -0.6368  0.8197 -2.1172
  625TIP3    H223511   5.622   0.697   0.374 -1.1860  1.5136  2.3398
  626TIP3   OH223512   3.625   4.164   1.512 -0.2505  0.0980 -0.3571
  626TIP3    H123513   3.608   4.131   1.423  0.1568  0.0903 -0.4321
  626TIP3    H223514   3.540   4.158   1.556 -0.4108 -0.0838 -0.6866
  627TIP3   OH223515   6.129   2.605   1.696 -0.3933 -0.2747 -0.2923
  627TIP3    H123516   6.205   2.641   1.743 -0.7268  1.1406 -0.8007
  627TIP3    H223517   6.167   2.539   1.637  0.5768  1.0262 -1.1798
  628TIP3   OH223518   4.694   1.339   7.177  0.1090 -0.6386 -0.0864
  628TIP3    H123519   4.601   1.345   7.158 -0.1869  1.3470  1.6275
  628TIP3    H223520   4.706   1.250   7.211 -1.1141 -0.9820 -0.5093
  629TIP3   OH223521   0.210   6.926   1.319 -0.8482 -0.3690  0.1366
  629TIP3    H123522   0.228   7.010   1.277  0.1093 -0.0676  1.1150
  629TIP3    H223523   0.137   6.889   1.268 -0.8588  0.7501 -0.6999
  630TIP3   OH223524   3.051   6.338   0.466  0.2113 -0.0383 -0.2529
  630TIP3    H123525   3.070   6.368   0.554  0.5528  1.9682 -0.9509
  630TIP3    H223526   2.966   6.377   0.445  0.4997  0.1880 -1.0633
  631TIP3   OH223527   6.218   0.229   1.422 -0.2054 -0.0224 -0.1128
  631TIP3    H123528   6.241   0.212   1.331 -2.0076 -1.9628 -0.2840
  631TIP3    H223529   6.288   0.189   1.474 -0.0691 -0.4559 -0.6340
  632TIP3   OH223530   5.587   6.924   7.474 -0.1337 -0.8909 -0.4818
  632TIP3    H123531   5.637   6.860   7.423  0.9597 -0.4173 -0.0231
  632TIP3    H223532   5.570   6.995   7.412 -2.1665 -1.9598 -1.2776
  633TIP3   OH223533   0.392   1.462   2.204  0.4767 -0.2749  0.5794
  633TIP3    H123534   0.332   1.526   2.165  2.2156  1.3008  0.2928
  633TIP3    H223535   0.392   1.389   2.143 -0.2643  0.2073 -0.0173
  634TIP3   OH223536   0.894   5.641   7.753  0.2908  0.1385  0.1868
  634TIP3    H123537   0.914   5.692   7.674  1.3249 -1.6051 -0.7527
  634TIP3    H223538   0.969   5.582   7.763 -0.1465 -0.1723  2.0996
  635TIP3   OH223539   2.638   5.109   2.329 -0.2161  0.6177  0.2405
  635TIP3    H123540   2.599   5.043   2.387 -0.2551  0.8009  0.4238
  635TIP3    H223541   2.692   5.163   2.388  0.2181  0.4393  0.0109
  636TIP3   OH223542   0.053   0.935   1.464  0.2322 -0.0230  0.2070
  636TIP3    H123543   0.142   0.963   1.484  0.4007  0.4704 -1.1522
  636TIP3    H223544   0.062   0.875   1.391 -0.5215 -0.3378  0.3557
  637TIP3   OH223545   6.521   2.282   0.838 -0.1260  0.6025 -0.0279
  637TIP3    H123546   6.490   2.299   0.749  0.9402 -4.3669 -1.6756
  637TIP3    H223547   6.584   2.353   0.855 -1.6602  2.7147 -2.4073
  638TIP3   OH223548   6.557   4.382   7.344  0.1526  0.4000 -0.1015
  638TIP3    H123549   6.596   4.416   7.263 -2.2551 -1.2888 -2.1198
  638TIP3    H223550   6.524   4.460   7.388 -0.5824  1.2000 -1.9538
  639TIP3   OH223551   0.151   0.683   8.423 -0.1702 -0.1998  0.3811
  639TIP3    H123552   0.104   0.610   8.384 -1.7716 -0.7645  3.1017
  639TIP3    H223553   0.091   0.757   8.415  1.0440  0.6726 -1.4728
  640TIP3   OH223554   6.731   5.211   0.225 -0.0272 -0.1203  0.0905
  640TIP3    H123555   6.690   5.189   0.309 -0.8305 -0.7072 -0.4375
  640TIP3    H223556   6.817   5.169   0.228 -0.4979 -1.1121  0.1755
  641TIP3   OH223557   6.859   3.978   0.803  0.0581  0.1630 -0.6618
  641TIP3    H123558   6.835   3.973   0.710  1.0035  0.2876 -0.9163
  641TIP3    H223559   6.857   3.886   0.833  1.5267 -0.0832 -1.2696
  642TIP3   OH223560   2.632   3.554   6.471 -0.1186 -0.1427 -0.5635
  642TIP3    H123561   2.690   3.479   6.453 -1.1369 -1.1763  0.3268
  642TIP3    H223562   2.589   3.571   6.387 -0.2185 -0.8676 -0.6662
  643TIP3   OH223563   0.977   4.513   6.498  0.3356  0.5392  0.5935
  643TIP3    H123564   0.882   4.501   6.508  0.3780 -0.0919  0.2605
  643TIP3    H223565   1.000   4.460   6.422  1.2624 -0.8582  1.7929
  644TIP3   OH223566   0.870   1.173   1.775 -0.2909 -0.4572  0.3553
  644TIP3    H123567   0.920   1.232   1.718 -1.7196 -0.5244 -1.0123
  644TIP3    H223568   0.853   1.224   1.854  0.2525  0.2350  0.0315
  645TIP3   OH223569   2.492   5.633   2.330  0.1899 -0.1937  0.6669
  645TIP3    H123570   2.461   5.548   2.359 -0.5791  0.1236  0.8042
  645TIP3    H223571   2.552   5.662   2.399  1.4823 -1.1810 -0.0028
  646TIP3   OH223572   3.121   5.294   1.391 -0.1451  0.4285  0.3610
  646TIP3    H123573   3.097   5.250   1.472 -1.4384  0.0108 -0.2230
  646TIP3    H223574   3.161   5.377   1.420 -1.4093  0.7023  1.4193
  647TIP3   OH223575   3.155   5.787   7.584 -0.5314 -0.0921  0.2770
  647TIP3    H123576   3.112   5.823   7.507 -0.1161  0.8786  0.4787
  647TIP3    H223577   3.247   5.811   7.573 -0.0766 -1.7838  0.0404
  648TIP3   OH223578   4.699   6.307   1.917 -0.1740 -0.1471 -0.4351
  648TIP3    H123579   4.661   6.368   1.980 -1.2240  2.1537 -3.1087
  648TIP3    H223580   4.654   6.224   1.935  1.1441 -0.2592  3.1638
  649TIP3   OH223581   4.526   1.868   0.356 -0.4555 -0.0345  0.1096
  649TIP3    H123582   4.616   1.899   0.348 -0.4148  0.0650  0.8992
  649TIP3    H223583   4.534   1.778   0.387 -0.6055 -0.4708 -1.0621
  650TIP3   OH223584   0.871   5.257   8.293  0.1119 -0.7544  0.5850
  650TIP3    H123585   0.780   5.240   8.270  0.2928 -1.7416  0.5475
  650TIP3    H223586   0.906   5.305   8.218  0.0963 -1.9830 -0.2587
  651TIP3   OH223587   6.468   3.976   8.389 -0.0923 -0.3927 -0.0320
  651TIP3    H123588   6.522   4.025   8.450 -0.8194 -1.2151  1.3089
  651TIP3    H223589   6.490   3.884   8.404 -0.8439 -0.6551 -0.4364
  652TIP3   OH223590   0.935   0.143   8.374  0.2421 -0.3398  0.4358
  652TIP3    H123591   1.012   0.087   8.376 -0.0694 -0.8893 -1.2552
  652TIP3    H223592   0.908   0.151   8.465  3.0321  0.9384  1.2367
  653TIP3   OH223593   5.397   1.032   0.055 -0.3021 -0.0183 -0.6185
  653TIP3    H123594   5.423   0.954   0.007  0.1880  0.7459 -1.6339
  653TIP3    H223595   5.309   1.052   0.024  0.1846  0.7343 -1.5910
  654TIP3   OH223596   0.285   3.415   6.282  0.1081 -0.0029  0.1000
  654TIP3    H123597   0.361   3.375   6.323 -0.9127  0.0406  2.1305
  654TIP3    H223598   0.268   3.360   6.205  0.9440 -1.2413  0.7675
  655TIP3   OH223599   1.392   2.151   0.551  0.0923 -0.1505 -0.1984
  655TIP3    H123600   1.352   2.149   0.638 -0.9907 -2.8497 -0.6520
  655TIP3    H223601   1.342   2.217   0.503  0.5463  1.1934  1.1283
  656TIP3   OH223602   5.385   6.793   1.459 -0.2597 -0.0688  0.6731
  656TIP3    H123603   5.478   6.770   1.459 -0.7502 -2.3495  0.4981
  656TIP3    H223604   5.382   6.886   1.438  1.8961 -0.3263 -1.0430
  657TIP3   OH223605   6.708   0.139   8.289  0.8609  0.1804 -0.0774
  657TIP3    H123606   6.689   0.062   8.343 -0.4191 -0.4688 -1.3912
  657TIP3    H223607   6.727   0.104   8.202  0.3108  1.3266 -0.6837
  658TIP3   OH223608   4.364   1.945   6.809 -0.1596 -0.3565 -0.5177
  658TIP3    H123609   4.372   2.012   6.741  2.3455 -0.1368 -0.0977
  658TIP3    H223610   4.379   1.863   6.764  0.1004 -0.3353 -0.4701
  659TIP3   OH223611   4.714   5.741   8.062  0.2081 -0.3140  0.1343
  659TIP3    H123612   4.629   5.748   8.019  0.4125  1.4552 -0.0842
  659TIP3    H223613   4.694   5.712   8.151 -0.3721 -2.2912 -0.6154
  660TIP3   OH223614   5.192   3.842   2.737  0.2096  0.4364  0.2805
  660TIP3    H123615   5.137   3.777   2.695  1.5991 -0.3891 -0.3288
  660TIP3    H223616   5.144   3.867   2.816 -1.4611  0.4696 -0.7119
  661TIP3   OH223617   3.058   1.938   0.974  0.2571  0.2064 -0.1743
  661TIP3    H123618   3.068   1.877   0.900  3.1048  0.9393 -0.5085
  661TIP3    H223619   3.011   2.013   0.937 -0.0853 -0.2580 -0.7020
  662TIP3   OH223620   5.940   1.531   2.234 -0.3422  0.2233 -0.4078
  662TIP3    H123621   5.930   1.501   2.324 -3.8171  2.3134  0.0916
  662TIP3    H223622   5.910   1.458   2.180 -1.4928  0.1373  0.3379
  663TIP3   OH223623   3.313   1.486   7.273 -0.0138 -0.9174  0.0128
  663TIP3    H123624   3.312   1.390   7.265 -0.0155 -0.9623  0.5464
  663TIP3    H223625   3.376   1.504   7.342  0.2770 -0.5076 -0.3544
  664TIP3   OH223626   6.569   4.099   0.781  0.5678  0.9909 -0.3678
  664TIP3    H123627   6.657   4.136   0.787  2.0001 -2.1543  0.0917
  664TIP3    H223628   6.572   4.041   0.705 -0.6744 -0.1428  0.4017
  665TIP3   OH223629   6.678   5.543   8.433 -0.2341  0.6696 -0.2949
  665TIP3    H123630   6.588   5.576   8.431 -0.4179  0.1710 -0.7292
  665TIP3    H223631   6.731   5.617   8.462 -0.4372  1.8182 -2.6678
  666TIP3   OH223632   2.249   0.916   0.206 -0.1846 -0.5532  0.4851
  666TIP3    H123633   2.231   0.945   0.296  0.5457 -1.0026  0.7811
  666TIP3    H223634   2.332   0.869   0.212 -0.4736 -1.1820 -0.3065
  667TIP3   OH223635   0.736   3.374   0.627 -0.4490  0.0479  0.0352
  667TIP3    H123636   0.675   3.373   0.553 -2.5374  0.9685  1.6381
  667TIP3    H223637   0.683   3.347   0.702  1.5830 -0.7762  1.2349
  668TIP3   OH223638   2.902   3.666   7.221 -0.2368  0.0305  0.3432
  668TIP3    H123639   2.998   3.662   7.217 -0.0144  1.3999  2.5220
  668TIP3    H223640   2.872   3.588   7.175  1.9457 -0.9604  0.5017
  669TIP3   OH223641   5.580   5.060   1.712 -0.3294 -0.2970  0.0916
  669TIP3    H123642   5.509   5.125   1.707 -0.1759 -0.2060 -1.0701
  669TIP3    H223643   5.615   5.056   1.623  0.1950 -1.3896  0.3375
  670TIP3   OH223644   6.325   5.883   0.470 -0.1720  0.5543  0.4380
  670TIP3    H123645   6.261   5.827   0.428  0.5162  0.7776 -1.0050
  670TIP3    H223646   6.301   5.884   0.562 -1.2049 -0.7154  0.2037
  671TIP3   OH223647   5.879   6.559   0.077  0.0818 -0.1092  0.3044
  671TIP3    H123648   5.859   6.603   0.160 -0.3574 -1.1184  0.7555
  671TIP3    H223649   5.970   6.583   0.058 -0.2214  1.1603  0.4095
  672TIP3   OH223650   2.594   0.006   7.263 -0.1671  0.5190  0.0805
  672TIP3    H123651   2.555  -0.023   7.345 -1.9010  1.0432 -0.5044
  672TIP3    H223652   2.593  -0.071   7.206  1.9078 -0.1025  0.7956
  673TIP3   OH223653   0.538   1.171   0.262  0.8142  0.5144  0.1041
  673TIP3    H123654   0.628   1.162   0.232  0.7743 -0.2693  0.2061
  673TIP3    H223655   0.523   1.265   0.265  1.5619  0.6433 -0.1132
  674TIP3   OH223656   1.893   3.687   1.276  0.1696 -0.5883  0.4711
  674TIP3    H123657   1.879   3.772   1.234 -0.9020 -0.1421  1.6670
  674TIP3    H223658   1.981   3.661   1.248  0.1144  0.4199 -0.7434
  675TIP3   OH223659   5.429   2.651   0.249  0.1365 -0.2972 -0.9507
  675TIP3    H123660   5.505   2.620   0.300 -0.0013  1.6836  0.6231
  675TIP3    H223661   5.354   2.634   0.306 -0.1902  0.6693 -1.0687
  676TIP3   OH223662   2.702   3.379   2.232  0.5140 -0.1157  0.7809
  676TIP3    H123663   2.713   3.426   2.314  0.7724  0.2612  0.5309
  676TIP3    H223664   2.657   3.298   2.257  0.3758  0.1046  1.2579
  677TIP3   OH223665   6.294   4.261   2.197  0.1766 -0.3315  0.5243
  677TIP3    H123666   6.261   4.172   2.208  0.2471 -0.4767 -0.3575
  677TIP3    H223667   6.378   4.250   2.153  0.2941  0.1653  0.6213
  678TIP3   OH223668   1.406   0.388   2.332 -0.3080  0.9682 -0.3126
  678TIP3    H123669   1.342   0.376   2.402  0.4790 -0.8452  0.1621
  678TIP3    H223670   1.407   0.482   2.316 -1.0342  1.3500  1.6297
  679TIP3   OH223671   5.075   0.111   8.136 -0.4256 -0.1529 -0.1717
  679TIP3    H123672   5.159   0.150   8.160 -0.7008 -0.1656  0.8562
  679TIP3    H223673   5.050   0.155   8.055  0.0464  0.6352  0.0996
  680TIP3   OH223674   2.155   0.596   0.765 -0.2973  0.2274  0.7785
  680TIP3    H123675   2.182   0.509   0.733  0.4610  0.8236 -0.2602
  680TIP3    H223676   2.062   0.585   0.789 -0.7894 -0.4012 -1.2200
  681TIP3   OH223677   1.854   3.401   0.572  0.4694 -1.0472  0.1123
  681TIP3    H123678   1.941   3.439   0.566 -0.3380  0.8830  0.1442
  681TIP3    H223679   1.796   3.463   0.527 -0.8729 -2.3968 -0.1263
  682TIP3   OH223680   2.763   3.191   7.184  0.1629  0.2162 -0.0472
  682TIP3    H123681   2.670   3.168   7.182 -0.2654  1.7433 -2.2265
  682TIP3    H223682   2.801   3.139   7.113  0.6170  0.8211 -0.2491
  683TIP3   OH223683   4.703   0.634   8.043  0.4727  0.1774  0.0881
  683TIP3    H123684   4.677   0.726   8.054  0.0728 -0.0343  0.9787
  683TIP3    H223685   4.675   0.591   8.124  1.7055 -0.4986  0.1791
  684TIP3   OH223686   0.270   3.421   1.099  0.4246 -0.1392  0.0617
  684TIP3    H123687   0.285   3.434   1.193 -0.3142 -2.2514  0.5263
  684TIP3    H223688   0.351   3.449   1.058  0.3120  2.0115  1.1919
  685TIP3   OH223689   1.690   6.132   0.866  0.8016 -0.3857  0.7949
  685TIP3    H123690   1.631   6.059   0.849  1.3038 -1.2305  2.5646
  685TIP3    H223691   1.745   6.104   0.938  3.1231  0.5418 -0.4789
  686TIP3   OH223692   6.264   1.841   1.647 -0.4921  0.0484  0.1449
  686TIP3    H123693   6.331   1.864   1.583  1.3068  0.1625  1.9694
  686TIP3    H223694   6.257   1.746   1.642  0.0847  0.0030  0.1974
  687TIP3   OH223695   6.513   1.196   8.194  0.4200  0.2322  0.3414
  687TIP3    H123696   6.528   1.241   8.111  2.0623  0.2325  0.5924
  687TIP3    H223697   6.466   1.259   8.248  1.7170  1.2862  0.3106
  688TIP3   OH223698   4.731   6.802   2.561 -0.7782 -0.2659  0.6941
  688TIP3    H123699   4.782   6.757   2.628 -0.9052 -1.5407 -0.0253
  688TIP3    H223700   4.640   6.790   2.588 -0.9006 -1.8249 -0.2772
  689TIP3   OH223701   1.605   0.965   6.977  0.0089 -0.2153 -0.7945
  689TIP3    H123702   1.607   0.901   7.048 -0.8394  0.6771  0.0518
  689TIP3    H223703   1.643   1.044   7.014 -1.6269  0.6648 -0.9010
  690TIP3   OH223704   3.779   4.500   2.313  0.1186 -0.0820 -0.3869
  690TIP3    H123705   3.831   4.425   2.283 -2.0120 -2.0274  0.4918
  690TIP3    H223706   3.758   4.478   2.404  1.7996  3.0250  0.8960
  691TIP3   OH223707   1.561   3.010   7.994  0.0340 -0.0834  0.0062
  691TIP3    H123708   1.556   2.917   8.015 -2.0366 -0.4880 -1.8698
  691TIP3    H223709   1.584   3.012   7.901 -2.5370  1.1079 -0.7024
  692TIP3   OH223710   2.581   6.097   7.206  0.6901  0.2349  0.5809
  692TIP3    H123711   2.590   6.048   7.125 -0.3566 -0.6400  0.9733
  692TIP3    H223712   2.568   6.188   7.178 -0.2992 -0.1472 -0.2708
  693TIP3   OH223713   0.435   2.294   7.011  0.4171  0.2778 -0.2148
  693TIP3    H123714   0.380   2.220   6.987 -0.2920  0.4983  0.6881
  693TIP3    H223715   0.426   2.356   6.939  0.2509 -0.0962 -0.5162
  694TIP3   OH223716   4.149   3.577   0.767  0.0340 -0.5330  0.0379
  694TIP3    H123717   4.244   3.583   0.758 -0.0496  1.1155  0.1105
  694TIP3    H223718   4.118   3.553   0.679  0.4250  0.2699 -0.3275
  695TIP3   OH223719   1.103   4.230   8.311 -0.1349  0.0159  0.0502
  695TIP3    H123720   1.073   4.209   8.400  1.8195 -0.4081  0.6727
  695TIP3    H223721   1.178   4.288   8.325 -0.3909  0.7271 -1.3799
  696TIP3   OH223722   1.337   4.661   1.860  0.0058 -0.1669  0.2260
  696TIP3    H123723   1.398   4.691   1.927  0.4988 -1.1471  0.2316
  696TIP3    H223724   1.314   4.572   1.887  0.6846 -0.7974 -1.2242
  697TIP3   OH223725   2.061   6.746   7.455 -0.2165  0.5716 -0.5949
  697TIP3    H123726   1.971   6.741   7.489 -1.0804 -0.1291 -2.8545
  697TIP3    H223727   2.073   6.665   7.407  0.7783  1.6827 -2.3126
  698TIP3   OH223728   2.598   1.501   0.265 -0.6734  0.0565 -0.7348
  698TIP3    H123729   2.653   1.558   0.212  0.2943 -0.8331 -0.7229
  698TIP3    H223730   2.540   1.458   0.202 -0.5370  0.1020 -0.8918
  699TIP3   OH223731   4.841   6.863   7.962  0.4520 -0.4108  0.8771
  699TIP3    H123732   4.840   6.958   7.956  0.2592 -0.4296  0.5549
  699TIP3    H223733   4.901   6.835   7.892  0.4129 -0.5286  0.8897
  700TIP3   OH223734   5.818   5.430   7.443 -0.3004 -0.1516  0.7823
  700TIP3    H123735   5.904   5.388   7.443 -0.4949 -0.5805 -0.5303
  700TIP3    H223736   5.756   5.358   7.430 -0.7857  0.2941  0.6032
  701TIP3   OH223737   5.938   1.525   1.628 -0.6740 -0.0500  0.1721
  701TIP3    H123738   5.872   1.495   1.690  0.2908  0.1550  1.3390
  701TIP3    H223739   5.924   1.620   1.622 -1.0808 -0.1370 -0.3182
  702TIP3   OH223740   2.636   6.910   1.344 -0.0317 -0.0721  0.1525
  702TIP3    H123741   2.645   6.943   1.433 -1.5664 -0.8654  0.6283
  702TIP3    H223742   2.550   6.939   1.315  0.6750  0.7032 -1.3365
  703TIP3   OH223743   3.240   5.902   0.990  0.7063  0.4004  0.3330
  703TIP3    H123744   3.225   5.852   0.909 -1.3306  0.5523  0.5716
  703TIP3    H223745   3.263   5.990   0.959 -0.4625  0.5701 -0.1215
  704TIP3   OH223746   2.065   4.321   0.925  0.4614  0.2169  0.0010
  704TIP3    H123747   1.972   4.332   0.948  0.4120  3.1218 -1.1135
  704TIP3    H223748   2.088   4.235   0.959 -2.6825 -0.7005  0.1832
  705TIP3   OH223749   3.053   2.111   7.361  0.0465  0.2364  0.2055
  705TIP3    H123750   3.026   2.020   7.351 -0.0845  0.3840 -0.8206
  705TIP3    H223751   3.082   2.117   7.452 -0.3491 -0.7200  0.4086
  706TIP3   OH223752   4.000   0.550   7.363  0.1305 -0.0866  0.4029
  706TIP3    H123753   3.988   0.465   7.407 -1.4101 -0.3540 -0.4639
  706TIP3    H223754   4.054   0.529   7.286  1.4942  0.1065  1.2790
  707TIP3   OH223755   3.412   6.616   0.821  0.1430  0.4225 -1.0609
  707TIP3    H123756   3.363   6.644   0.898  1.1129 -1.1199  0.1800
  707TIP3    H223757   3.441   6.698   0.780 -2.3139  1.3450 -1.1440
  708TIP3   OH223758   2.277   0.861   0.806 -0.5430 -0.2483  0.2111
  708TIP3    H123759   2.208   0.914   0.766  1.1299  0.9402 -1.2704
  708TIP3    H223760   2.264   0.773   0.770 -0.0449  0.4435 -1.7846
  709TIP3   OH223761   0.430   6.846   0.516 -0.7063  0.3988 -0.6037
  709TIP3    H123762   0.473   6.921   0.557  0.5217  2.0725 -4.4783
  709TIP3    H223763   0.493   6.775   0.524 -0.4415  0.7145  0.2102
  710TIP3   OH223764   1.023   0.461   2.679  0.0290  0.3535 -0.3382
  710TIP3    H123765   1.080   0.493   2.749 -1.8456  0.1212  1.3779
  710TIP3    H223766   0.956   0.528   2.670 -0.1676  0.0342 -1.4320
  711TIP3   OH223767   6.307   6.712   7.250  0.0293 -0.1572 -0.1808
  711TIP3    H123768   6.367   6.779   7.218 -0.8337  1.4435  1.3873
  711TIP3    H223769   6.344   6.630   7.217  2.1594  0.8964 -0.6397
  712TIP3   OH223770   3.440   6.056   1.172 -0.5053  0.1596  0.4763
  712TIP3    H123771   3.427   5.966   1.142  0.5484 -0.0322  0.5508
  712TIP3    H223772   3.400   6.110   1.104  2.2230 -0.2432 -1.6387
  713TIP3   OH223773   1.427   4.321   6.534  0.2020  0.3350 -0.3439
  713TIP3    H123774   1.355   4.281   6.485  0.6515 -2.6293  1.1836
  713TIP3    H223775   1.500   4.324   6.471 -0.0384 -0.6988 -0.6932
  714TIP3   OH223776   0.000   0.176   6.361 -0.4624 -0.0229  0.0715
  714TIP3    H123777   0.007   0.113   6.433  0.6583 -1.5896 -1.3240
  714TIP3    H223778  -0.061   0.136   6.300  0.0693  0.3565 -0.7278
  715TIP3   OH223779   6.795   2.075   8.402 -0.1099  0.3547  0.2573
  715TIP3    H123780   6.756   2.141   8.459  0.1518  0.7975 -0.0663
  715TIP3    H223781   6.744   1.996   8.418 -1.4673  1.0487 -0.5306
  716TIP3   OH223782   6.011   0.787   1.371 -0.4790 -0.1564 -0.0666
  716TIP3    H123783   6.074   0.724   1.334  0.2073  0.9029 -0.7400
  716TIP3    H223784   5.941   0.732   1.407  1.7323 -1.5018  2.5357
  717TIP3   OH223785   1.317   3.013   2.217  0.5620 -0.0451 -0.0214
  717TIP3    H123786   1.346   3.104   2.214 -1.8767  0.8096 -0.1415
  717TIP3    H223787   1.278   2.998   2.130 -0.2726 -0.7423  0.4573
  718TIP3   OH223788   6.944   5.901   8.077  0.2569 -0.2988 -0.4320
  718TIP3    H123789   7.006   5.829   8.074  0.8393  0.1177  0.8612
  718TIP3    H223790   6.923   5.910   8.170  1.4161  2.1892 -0.3415
  719TIP3   OH223791   0.500   5.766   1.612  0.2461 -0.0291 -0.2166
  719TIP3    H123792   0.549   5.694   1.652 -1.8016  0.0214  2.7573
  719TIP3    H223793   0.452   5.805   1.686 -0.4374  2.9907 -2.0933
  720TIP3   OH223794   6.371   2.192   7.009  0.0713 -0.4834 -0.0656
  720TIP3    H123795   6.337   2.150   7.088 -0.0386  0.7710  0.5801
  720TIP3    H223796   6.293   2.220   6.962  0.1411 -1.1193 -0.5651
  721TIP3   OH223797   1.709   5.542   2.327  0.6772 -0.0821 -0.7886
  721TIP3    H123798   1.713   5.584   2.413  0.0757 -1.3941 -0.0775
  721TIP3    H223799   1.725   5.612   2.264 -0.5835  1.2639  0.3206
  722TIP3   OH223800   5.573   5.823   0.737  0.0785 -0.4683 -0.0243
  722TIP3    H123801   5.665   5.801   0.751  0.0122 -0.0836  1.1185
  722TIP3    H223802   5.543   5.761   0.671  0.0826 -3.4340  2.5424
  723TIP3   OH223803   6.452   1.949   8.343  0.0093 -0.2465  0.2703
  723TIP3    H123804   6.383   1.991   8.394 -0.7617 -1.3398  0.1735
  723TIP3    H223805   6.463   1.863   8.384  1.2056 -0.1540  0.1757
  724TIP3   OH223806   1.309   5.477   6.383  0.3476  0.2501 -0.8633
  724TIP3    H123807   1.370   5.528   6.329 -0.0917  0.6479 -0.9844
  724TIP3    H223808   1.294   5.397   6.332  2.7043 -1.0378  0.2642
  725TIP3   OH223809   4.736   1.182   6.647  0.3183  0.3154  0.5535
  725TIP3    H123810   4.742   1.241   6.722  0.1889 -0.5462  1.2518
  725TIP3    H223811   4.677   1.112   6.676  0.1892  0.0180 -0.3864
  726TIP3   OH223812   0.883   3.884   6.219  0.0643 -0.0202 -0.4127
  726TIP3    H123813   0.815   3.891   6.285 -0.2688  2.5465 -0.9322
  726TIP3    H223814   0.898   3.973   6.189  1.8776 -0.8020 -2.1413
  727TIP3   OH223815   6.434   0.559   5.923 -0.2684  0.0477  0.2573
  727TIP3    H123816   6.358   0.616   5.931 -1.1226 -1.0042 -0.0078
  727TIP3    H223817   6.510   0.617   5.933 -1.0954  0.8898  2.1810
  728TIP3   OH223818   4.902   6.211   7.593 -0.2869  0.3413 -0.0738
  728TIP3    H123819   4.961   6.199   7.518 -0.9267 -2.9409 -0.1869
  728TIP3    H223820   4.956   6.255   7.659  2.0366 -1.5935 -0.5350
  729TIP3   OH223821   2.641   2.702   8.290 -0.1372  0.0350 -0.1209
  729TIP3    H123822   2.605   2.615   8.272  0.3475  0.0478 -1.2400
  729TIP3    H223823   2.579   2.762   8.248  0.1143  0.1742 -0.2907
  730TIP3   OH223824   3.744   3.107   7.513 -0.0443 -0.0763  0.0349
  730TIP3    H123825   3.700   3.066   7.588 -0.9438  0.0646 -0.4137
  730TIP3    H223826   3.718   3.199   7.517  0.5911  0.1107  0.0287
  731TIP3   OH223827   5.254   6.866   7.008 -0.3219  0.0658 -0.0837
  731TIP3    H123828   5.270   6.881   6.915 -1.2365 -2.0652 -0.6621
  731TIP3    H223829   5.179   6.922   7.029  0.5041  1.3020 -0.3500
  732TIP3   OH223830   6.217   6.118   7.814  0.3598  0.5131  0.2149
  732TIP3    H123831   6.245   6.105   7.904  1.9103 -1.0037 -0.4250
  732TIP3    H223832   6.193   6.031   7.783  0.1769  0.9519 -0.9265
  733TIP3   OH223833   3.506   3.274   1.486  0.2697 -0.2723  0.0562
  733TIP3    H123834   3.496   3.350   1.543  2.3429 -0.2042  0.4165
  733TIP3    H223835   3.563   3.305   1.415 -0.8889 -0.8255 -1.1619
  734TIP3   OH223836   0.162   5.823   0.707 -0.1943  0.5000  0.6472
  734TIP3    H123837   0.086   5.783   0.751  0.3795  0.2165  1.4088
  734TIP3    H223838   0.229   5.828   0.776  0.2026  1.5240  0.2016
  735TIP3   OH223839   1.465   6.552   6.242 -0.6292  0.2419 -0.4383
  735TIP3    H123840   1.553   6.568   6.209 -0.4896  1.9710  0.6503
  735TIP3    H223841   1.468   6.581   6.334 -1.5631 -2.4126  0.5159
  736TIP3   OH223842   6.735   3.097   1.312  0.0640 -0.2728  0.0808
  736TIP3    H123843   6.687   3.022   1.278  2.1577 -2.0983  0.8738
  736TIP3    H223844   6.729   3.088   1.407 -0.3871  1.1095  0.2070
  737TIP3   OH223845   3.968   2.449   0.345 -0.1207  0.4739  0.1189
  737TIP3    H123846   3.913   2.371   0.336 -1.6807  1.4614  0.6361
  737TIP3    H223847   3.958   2.495   0.262  0.6186  0.2488 -0.1016
  738TIP3   OH223848   4.713   6.375   7.163 -0.0325 -0.1113  0.4425
  738TIP3    H123849   4.706   6.385   7.258 -0.7765  1.9654  0.2260
  738TIP3    H223850   4.622   6.375   7.132  0.1919 -1.1260 -0.2612
  739TIP3   OH223851   6.486   6.992   7.361  0.1598  0.4245 -0.0091
  739TIP3    H123852   6.508   7.033   7.278  1.1645 -0.4187 -0.1789
  739TIP3    H223853   6.555   6.927   7.375 -0.7052 -0.3394  0.8523
  740TIP3   OH223854   5.051   4.596   1.420 -0.0135  0.8663  0.0764
  740TIP3    H123855   5.066   4.523   1.480  0.0387  0.5944 -0.2642
  740TIP3    H223856   4.981   4.566   1.361  0.4557  0.8307 -0.4772
  741TIP3   OH223857   6.474   0.292   0.434  0.4725 -0.0980  0.3365
  741TIP3    H123858   6.487   0.250   0.348 -1.3225 -1.3816  0.6321
  741TIP3    H223859   6.404   0.354   0.419  1.3383  0.9508  0.5213
  742TIP3   OH223860   5.411   6.554   1.856 -0.0134 -0.1860 -0.6713
  742TIP3    H123861   5.404   6.465   1.822  0.9172 -0.5053 -0.0917
  742TIP3    H223862   5.469   6.546   1.932 -1.0468  0.6951  0.2376
  743TIP3   OH223863   4.669   4.958   2.382  0.1710  0.5747 -0.6152
  743TIP3    H123864   4.601   5.013   2.342  2.0230  2.5958 -1.1743
  743TIP3    H223865   4.707   5.014   2.450  0.5998 -0.8944  0.3799
  744TIP3   OH223866   4.108   3.879   7.868 -0.6518 -0.2634  0.2072
  744TIP3    H123867   4.075   3.969   7.863  0.2057  0.2489  2.6893
  744TIP3    H223868   4.185   3.879   7.810 -1.0646  0.3900 -0.3551
  745TIP3   OH223869   5.138   5.724   7.369 -0.1023 -0.4240  0.3338
  745TIP3    H123870   5.162   5.639   7.333  0.8735 -0.8623  1.9153
  745TIP3    H223871   5.109   5.705   7.458 -0.4199  0.8428  0.5294
  746TIP3   OH223872   2.722   0.046   1.875 -0.3653  0.3466  0.1555
  746TIP3    H123873   2.811   0.011   1.877 -0.1629  0.8399 -0.1976
  746TIP3    H223874   2.732   0.138   1.899 -0.7592  0.4520 -0.0846
  747TIP3   OH223875   2.940   2.958   1.798  0.5341  0.5905  0.0432
  747TIP3    H123876   2.899   3.023   1.741 -1.8714 -2.1426 -1.7023
  747TIP3    H223877   2.979   2.895   1.737  0.9361 -0.6652  1.5429
  748TIP3   OH223878   6.051   6.298   1.155  0.0338 -0.1894 -0.4440
  748TIP3    H123879   5.991   6.355   1.203 -0.6666 -1.2016 -0.0701
  748TIP3    H223880   6.133   6.347   1.151 -0.0198  0.1356  1.3835
  749TIP3   OH223881   3.004   6.177   1.328 -0.2850 -0.0929 -0.1072
  749TIP3    H123882   2.971   6.125   1.254 -0.0924  1.1168 -1.0806
  749TIP3    H223883   3.071   6.122   1.368 -0.6010 -0.8963 -0.6522
  750TIP3   OH223884   2.493   2.906   8.221 -0.0762 -0.0118  0.0055
  750TIP3    H123885   2.485   2.949   8.136  0.6419 -2.1497 -1.2037
  750TIP3    H223886   2.441   2.961   8.280 -1.7317  0.7846 -2.0693
  751TIP3   OH223887   2.227   4.651   1.140  0.7116  0.2999  0.5017
  751TIP3    H123888   2.286   4.722   1.113  0.2868  0.5723  0.2845
  751TIP3    H223889   2.142   4.676   1.106  0.2373  0.4477  1.7466
  752TIP3   OH223890   4.135   4.778   7.823  0.7282 -0.1486  0.3904
  752TIP3    H123891   4.180   4.757   7.741 -0.4588  1.7598 -0.8285
  752TIP3    H223892   4.202   4.821   7.877  1.1617 -0.1618 -0.1313
  753TIP3   OH223893   2.843   2.395   6.615 -0.2561  0.2738  0.2644
  753TIP3    H123894   2.780   2.339   6.569 -1.2823 -0.2528  2.1874
  753TIP3    H223895   2.828   2.375   6.708  1.1486  1.8772  0.8695
  754TIP3   OH223896   0.781   5.771   6.643 -0.1615 -0.5474 -0.1023
  754TIP3    H123897   0.696   5.728   6.633 -1.0016  0.1448  3.0860
  754TIP3    H223898   0.836   5.706   6.687  0.1001 -0.0758  0.2757
  755TIP3   OH223899   2.096   2.553   0.968  0.0976  0.2494 -0.6241
  755TIP3    H123900   2.045   2.475   0.991 -1.7888  1.9996  1.6524
  755TIP3    H223901   2.048   2.591   0.894 -0.0985  0.2415 -0.5030
  756TIP3   OH223902   2.362   6.283   1.267  0.9769  0.0597 -0.9186
  756TIP3    H123903   2.391   6.268   1.357  0.3976  3.4956 -0.0125
  756TIP3    H223904   2.321   6.200   1.240  2.4544 -1.5285  1.4089
  757TIP3   OH223905   1.780   6.380   7.638 -0.0621  0.2792 -0.2729
  757TIP3    H123906   1.800   6.347   7.551 -0.4001 -0.3045 -0.1406
  757TIP3    H223907   1.688   6.358   7.651 -0.3221  1.3513 -0.1980
  758TIP3   OH223908   2.175   2.694   1.213  0.5085 -0.0897  0.2702
  758TIP3    H123909   2.165   2.658   1.125  0.9543 -1.2594  0.6670
  758TIP3    H223910   2.106   2.760   1.220  0.8327  0.4375 -1.1428
  759TIP3   OH223911   5.513   3.925   1.103  0.1941  0.2416 -0.0930
  759TIP3    H123912   5.423   3.898   1.085  0.6751 -0.3007 -1.9854
  759TIP3    H223913   5.507   4.018   1.122 -0.8634  0.0139  0.7567
  760TIP3   OH223914   0.691   4.034   1.084 -0.0980  0.6475  0.0662
  760TIP3    H123915   0.648   3.975   1.023 -0.5586  1.6813 -0.6352
  760TIP3    H223916   0.687   3.989   1.169  2.2493 -1.6846 -0.9437
  761TIP3   OH223917   3.859   5.848   0.035  0.0718  0.0576 -0.6954
  761TIP3    H123918   3.858   5.760  -0.003 -0.6204 -0.2382 -0.0170
  761TIP3    H223919   3.803   5.900  -0.024 -0.3828 -0.2183 -0.5171
  762TIP3   OH223920   3.408   1.008   0.891 -0.1725 -0.0687  0.0193
  762TIP3    H123921   3.490   0.988   0.845 -0.2668  0.1651 -0.2517
  762TIP3    H223922   3.344   0.947   0.853 -0.1254 -0.2551  0.2349
  763TIP3   OH223923   2.807   5.328   0.360 -0.0707  0.4913  0.1507
  763TIP3    H123924   2.757   5.260   0.404 -1.0990  0.1964 -1.4097
  763TIP3    H223925   2.856   5.371   0.431 -0.7105 -0.7390  1.3872
  764TIP3   OH223926   6.474   4.271   1.075  0.1905 -0.4728  0.5537
  764TIP3    H123927   6.503   4.295   1.163 -0.5506 -1.7440  1.1708
  764TIP3    H223928   6.500   4.179   1.065  2.2887  0.2196 -1.4495
  765TIP3   OH223929   5.380   5.789   1.573 -0.6226  0.1528 -0.3022
  765TIP3    H123930   5.453   5.775   1.512 -0.6008  1.5973 -0.6564
  765TIP3    H223931   5.352   5.701   1.598  0.0682 -0.4566 -1.5633
  766TIP3   OH223932   6.877   0.070   7.164 -0.1425  0.5696  0.1225
  766TIP3    H123933   6.889   0.043   7.073  0.5994  2.3965 -0.3555
  766TIP3    H223934   6.924   0.004   7.215  0.1467 -0.0060 -0.8595
  767TIP3   OH223935   6.759   1.624   6.818 -0.1573 -0.4179  0.0791
  767TIP3    H123936   6.741   1.623   6.724  0.1284 -1.2062  0.0220
  767TIP3    H223937   6.803   1.540   6.834 -1.0152 -0.6896  1.0754
  768TIP3   OH223938   4.900   1.502   1.152  0.5619  0.3049 -0.3345
  768TIP3    H123939   4.906   1.407   1.142  1.3298  0.3212 -0.1121
  768TIP3    H223940   4.983   1.535   1.118  0.3183  0.8962 -0.3723
  769TIP3   OH223941   4.191   6.961   1.935 -0.2477  0.3576 -0.2537
  769TIP3    H123942   4.098   6.961   1.954 -0.2817 -0.4235 -0.3840
  769TIP3    H223943   4.201   6.900   1.862  0.2355  1.2338 -0.9410
  770TIP3   OH223944   3.306   3.682   2.158 -0.4590 -0.1226  0.2024
  770TIP3    H123945   3.373   3.737   2.117 -2.1647  1.5021 -0.6097
  770TIP3    H223946   3.354   3.624   2.216  1.6967  0.3985 -0.9447
  771TIP3   OH223947   3.906   3.849   8.077 -0.4812  0.2015  0.4467
  771TIP3    H123948   3.839   3.869   8.011  0.0571  0.5042 -0.0174
  771TIP3    H223949   3.988   3.877   8.037 -0.1746  0.6636  1.3540
  772TIP3   OH223950   1.501   2.528   2.016 -0.1740  0.4733  0.4481
  772TIP3    H123951   1.461   2.546   2.101  0.6667  0.0511  0.9490
  772TIP3    H223952   1.449   2.579   1.953 -0.3928  1.3246  1.2946
  773TIP3   OH223953   0.334   1.551   7.325 -0.1765  0.0758 -0.4464
  773TIP3    H123954   0.362   1.494   7.397  0.2780  0.5168 -0.2644
  773TIP3    H223955   0.285   1.494   7.266  2.9833 -1.3276 -1.9670
  774TIP3   OH223956   2.861   6.766   0.744  0.3120 -0.4142 -0.4157
  774TIP3    H123957   2.956   6.755   0.754 -0.0612 -2.3121  2.1147
  774TIP3    H223958   2.842   6.846   0.792  0.8187  1.2671 -2.8571
  775TIP3   OH223959   4.155   3.201   7.239 -0.1656  0.1306 -0.1164
  775TIP3    H123960   4.081   3.146   7.215 -1.8603  1.8890  0.7564
  775TIP3    H223961   4.173   3.253   7.160  0.4927 -0.6288 -0.4817
  776TIP3   OH223962   5.532   6.910   6.549  0.1584 -0.2883 -0.3059
  776TIP3    H123963   5.469   6.920   6.477  0.9234 -1.9939 -1.2573
  776TIP3    H223964   5.615   6.941   6.513  0.2247  0.4081  0.4101
  777TIP3   OH223965   2.380   3.690   2.743 -0.1404  0.0335 -0.4251
  777TIP3    H123966   2.327   3.627   2.792  1.5200 -1.6561 -0.6598
  777TIP3    H223967   2.333   3.701   2.660 -0.5690 -0.7820 -0.3068
  778TIP3   OH223968   3.060   1.459   7.189 -0.0510 -0.5113  0.2299
  778TIP3    H123969   2.998   1.513   7.238 -0.7810 -2.6006  1.7612
  778TIP3    H223970   3.143   1.504   7.197 -0.9001  1.1636  0.0966
  779TIP3   OH223971   2.011   0.229   8.265 -0.1553 -0.7811 -0.5784
  779TIP3    H123972   1.958   0.168   8.315 -1.2216 -0.0567 -0.7902
  779TIP3    H223973   1.978   0.224   8.176 -1.5185  1.3636 -0.2729
  780TIP3   OH223974   2.014   2.352   7.331  0.2837  0.8256 -0.6047
  780TIP3    H123975   2.077   2.403   7.382 -0.1404  0.3094  0.4786
  780TIP3    H223976   1.983   2.412   7.263 -1.2532  2.5400  1.4656
  781TIP3   OH223977   0.019   1.468   0.383 -0.0102 -0.3533 -0.4155
  781TIP3    H123978  -0.021   1.523   0.316  1.0469 -0.2371 -0.9652
  781TIP3    H223979   0.035   1.527   0.456 -0.0487 -0.2093 -0.5223
  782TIP3   OH223980   2.146   6.870   7.082 -0.1087 -0.0357  0.2279
  782TIP3    H123981   2.055   6.884   7.109 -0.6037  0.7779 -1.7396
  782TIP3    H223982   2.191   6.950   7.108  0.1374 -0.5301  1.4111
  783TIP3   OH223983   5.223   1.521   8.152  0.4479  0.6719 -0.1740
  783TIP3    H123984   5.171   1.586   8.199 -1.3548 -0.6447 -0.2490
  783TIP3    H223985   5.267   1.471   8.220 -0.5671  0.0543  0.0456
  784TIP3   OH223986   1.800   6.810   0.657 -0.2515 -0.0026 -0.2681
  784TIP3    H123987   1.767   6.874   0.594  1.6444  0.5478 -0.7704
  784TIP3    H223988   1.850   6.747   0.604  0.0413 -0.4416  0.5049
  785TIP3   OH223989   2.848   0.404   0.854  0.1641 -0.4564  0.3711
  785TIP3    H123990   2.828   0.363   0.938  0.1062  1.9630  1.6156
  785TIP3    H223991   2.943   0.393   0.844 -0.0915 -2.5225 -0.3071
  786TIP3   OH223992   6.088   6.288   0.242  0.1823 -0.2242  0.0895
  786TIP3    H123993   6.107   6.233   0.318  0.5775  0.1380  0.2564
  786TIP3    H223994   6.104   6.377   0.272  0.0481 -0.0564 -0.3320
  787TIP3   OH223995   1.879   4.408   6.233 -0.7858 -0.3251 -0.1574
  787TIP3    H123996   1.970   4.434   6.241 -1.1575  1.0919 -0.3641
  787TIP3    H223997   1.873   4.364   6.149 -0.7207  1.5656 -1.1945
  788TIP3   OH223998   0.906   4.264   7.877  0.6581 -0.8583 -0.3961
  788TIP3    H123999   1.001   4.271   7.875  0.5425  1.2935 -1.7932
  788TIP3    H224000   0.881   4.245   7.787 -0.2981  1.1019 -0.6087
  789TIP3   OH224001   0.226   1.287   6.893 -0.4747  0.4278 -0.3231
  789TIP3    H124002   0.268   1.357   6.842 -0.2317  2.0341  1.9492
  789TIP3    H224003   0.295   1.222   6.905  0.8568  2.0952  1.6189
  790TIP3   OH224004   3.852   6.300   8.270  0.2560 -0.6586 -0.7096
  790TIP3    H124005   3.922   6.295   8.205 -0.2458  0.0635 -1.3290
  790TIP3    H224006   3.886   6.253   8.346  2.3328  1.5167 -0.1869
  791TIP3   OH224007   1.036   3.362   7.815 -0.2571 -0.2214  0.1615
  791TIP3    H124008   1.054   3.269   7.802 -1.1340 -0.6599  1.7410
  791TIP3    H224009   1.001   3.367   7.904 -0.8643  1.5349 -0.1357
  792TIP3   OH224010   6.377   4.173   6.827 -0.2499 -0.3742 -0.2512
  792TIP3    H124011   6.399   4.080   6.837  0.7487 -0.0728  0.4793
  792TIP3    H224012   6.400   4.194   6.737  0.1210 -0.6779 -0.2268
  793TIP3   OH224013   2.295   3.234   0.356  0.0313 -0.1776  0.0218
  793TIP3    H124014   2.377   3.193   0.329  0.3139  0.7921 -0.6405
  793TIP3    H224015   2.274   3.295   0.286  0.3178  1.7596  1.5203
  794TIP3   OH224016   0.339   1.784   2.114  0.0389  0.8911 -0.3650
  794TIP3    H124017   0.264   1.842   2.108 -0.4653  0.2421 -0.5521
  794TIP3    H224018   0.401   1.818   2.050  0.1537  1.7722  0.1990
  795TIP3   OH224019   2.767   1.739   6.036  0.3466  0.0259 -0.2646
  795TIP3    H124020   2.691   1.794   6.015  0.3664 -0.1405 -0.7802
  795TIP3    H224021   2.775   1.746   6.132 -1.8568 -1.9596  0.1610
  796TIP3   OH224022   6.269   2.485   7.989 -0.3295  0.0093  0.3110
  796TIP3    H124023   6.231   2.397   7.992  0.8208 -0.5646 -0.8520
  796TIP3    H224024   6.331   2.481   7.917 -1.3689  2.2408 -0.8013
  797TIP3   OH224025   1.716   0.411   0.112 -0.6894  0.0244 -0.7401
  797TIP3    H124026   1.701   0.400   0.018 -0.5326 -1.4325 -0.6259
  797TIP3    H224027   1.781   0.481   0.118  1.6068 -1.8680 -1.9379
  798TIP3   OH224028   1.617   0.308   6.573 -0.1474 -0.3404 -0.1121
  798TIP3    H124029   1.688   0.326   6.511 -0.4437 -0.8778 -0.6149
  798TIP3    H224030   1.539   0.343   6.531 -0.2771 -0.2956  0.1663
  799TIP3   OH224031   6.486   0.668   6.909  0.3601 -0.4560  0.0646
  799TIP3    H124032   6.470   0.760   6.888 -3.7241 -0.7064  1.2917
  799TIP3    H224033   6.496   0.625   6.825  0.5636  0.8289 -0.5956
  800TIP3   OH224034   2.877   6.400   6.723 -0.4576 -0.2693 -0.2220
  800TIP3    H124035   2.920   6.483   6.745  1.3469 -1.6586  1.9245
  800TIP3    H224036   2.795   6.402   6.773 -0.4087  0.2009 -0.1571
  801TIP3   OH224037   4.679   4.551   0.809  0.0502 -0.5715 -0.0108
  801TIP3    H124038   4.629   4.473   0.832 -0.2498 -0.1926  0.6497
  801TIP3    H224039   4.737   4.565   0.884  0.7501 -0.6810 -0.5238
  802TIP3   OH224040   4.078   5.365   6.679  0.2395  0.7606 -0.0576
  802TIP3    H124041   4.089   5.288   6.623 -1.2386  0.2498  0.3137
  802TIP3    H224042   4.166   5.381   6.714  0.3529 -1.6822  1.0161
  803TIP3   OH224043   6.981   5.135   0.572 -0.1572 -0.0880 -0.4652
  803TIP3    H124044   7.015   5.157   0.658 -0.9649 -2.4554  0.5479
  803TIP3    H224045   7.058   5.121   0.518  0.3594  1.2164 -0.1034
  804TIP3   OH224046   6.985   0.481   8.316 -0.7404 -0.4774 -0.0123
  804TIP3    H124047   6.992   0.413   8.382  0.9500 -0.4257 -0.0910
  804TIP3    H224048   6.998   0.435   8.233  2.2504  0.0738  0.0201
  805TIP3   OH224049   3.943   4.116   0.089 -0.3928 -0.0451  0.2276
  805TIP3    H124050   3.854   4.131   0.121 -0.1579  1.5903  0.2142
  805TIP3    H224051   3.954   4.180   0.019  0.6987 -0.4208  0.0427
  806TIP3   OH224052   5.004   6.519   1.304 -0.0142  0.1020  0.2650
  806TIP3    H124053   5.077   6.577   1.324  0.3636 -0.4811  0.6405
  806TIP3    H224054   4.928   6.576   1.297  0.7757  0.9567 -2.0570
  807TIP3   OH224055   2.351   3.955   7.745 -0.4626 -0.0185  0.1738
  807TIP3    H124056   2.350   4.026   7.808 -1.1230  0.2497 -0.1314
  807TIP3    H224057   2.411   3.890   7.782 -1.1209 -0.0269  1.2351
  808TIP3   OH224058   5.836   4.454   6.915  0.3624 -0.5559 -0.4408
  808TIP3    H124059   5.777   4.470   6.989  0.4098 -0.8111 -0.3440
  808TIP3    H224060   5.782   4.467   6.837 -0.2037 -2.1148 -0.3559
  809TIP3   OH224061   5.425   6.986   7.956 -0.2071 -0.4255  0.2279
  809TIP3    H124062   5.492   7.043   7.994  0.1743 -1.5285  1.3009
  809TIP3    H224063   5.452   6.976   7.865 -0.4973  1.3771 -0.0921
  810TIP3   OH224064   0.165   1.578   2.276  0.9095 -0.5070  0.0935
  810TIP3    H124065   0.142   1.663   2.312  0.5727 -0.8298  0.6460
  810TIP3    H224066   0.254   1.562   2.308  0.5969 -0.8111  0.8279
  811TIP3   OH224067   1.955   2.860   1.228 -0.5793 -0.1047  0.0483
  811TIP3    H124068   1.970   2.936   1.285  1.5459  0.4064 -1.1187
  811TIP3    H224069   1.904   2.800   1.283 -0.2745  1.1568  1.8282
  812TIP3   OH224070   1.924   5.131   7.083  0.1700  0.5175  0.3142
  812TIP3    H124071   2.013   5.163   7.097  1.0568 -1.4292 -0.3950
  812TIP3    H224072   1.923   5.044   7.124 -0.3116 -0.9215 -2.4431
  813TIP3   OH224073   0.029   6.939   2.573  0.0743  0.1201 -0.2670
  813TIP3    H124074  -0.031   6.971   2.640  0.1970 -0.7601  0.2771
  813TIP3    H224075   0.106   6.995   2.581 -0.7696  1.4690 -1.1925
  814TIP3   OH224076   2.622   2.851   6.346 -0.0277 -0.3336 -0.0982
  814TIP3    H124077   2.694   2.910   6.369  1.2619 -1.2972 -1.5241
  814TIP3    H224078   2.662   2.764   6.343 -1.3608 -0.9576 -0.5032
  815TIP3   OH224079   4.027   0.838   0.472 -0.0863  0.1174 -0.4880
  815TIP3    H124080   4.063   0.760   0.429  1.3771 -0.1703  1.1893
  815TIP3    H224081   3.933   0.819   0.480  0.1933 -1.3347 -0.3727
  816TIP3   OH224082   0.396   2.198   7.253  0.6431  0.1039 -0.2723
  816TIP3    H124083   0.419   2.250   7.176 -1.5660  1.2091 -0.2973
  816TIP3    H224084   0.398   2.261   7.326 -0.8903  0.0148 -0.1031
  817TIP3   OH224085   0.786   1.359   0.621 -0.0160  0.3060  0.2482
  817TIP3    H124086   0.694   1.333   0.625  0.1461 -0.3350 -0.0707
  817TIP3    H224087   0.835   1.277   0.625  0.5185  0.5771 -0.3575
  818TIP3   OH224088   2.906   3.308   0.009  0.1090 -0.4548 -0.1812
  818TIP3    H124089   2.916   3.347  -0.078  0.9575  1.5522  0.7596
  818TIP3    H224090   2.811   3.295   0.019 -0.0000 -0.6689 -1.3706
  819TIP3   OH224091   0.153   2.182   7.855 -0.1026  0.3100 -0.5053
  819TIP3    H124092   0.108   2.175   7.771  0.2375 -0.8918 -0.6124
  819TIP3    H224093   0.243   2.153   7.836 -0.2436 -0.8099  0.4352
  820TIP3   OH224094   6.519   6.147   7.241 -0.0631  0.0060 -0.3109
  820TIP3    H124095   6.593   6.123   7.296  0.2067  0.0293 -0.6680
  820TIP3    H224096   6.557   6.189   7.165 -0.4797  0.6924 -0.1515
  821TIP3   OH224097   0.159   3.188   8.259 -0.1818 -0.3871  0.1319
  821TIP3    H124098   0.201   3.221   8.338  0.1246  0.3849 -0.3425
  821TIP3    H224099   0.140   3.267   8.207 -0.2157 -0.8888 -0.6373
  822TIP3   OH224100   0.324   3.708   6.825 -0.1554  0.5791 -0.0654
  822TIP3    H124101   0.369   3.628   6.853  0.6019  0.5497 -1.2867
  822TIP3    H224102   0.348   3.774   6.890 -0.4087 -0.0603  0.6918
  823TIP3   OH224103   2.311   0.998   6.916  0.2764 -0.2323 -0.1917
  823TIP3    H124104   2.346   1.075   6.961 -0.2809  0.2168 -0.5062
  823TIP3    H224105   2.353   0.924   6.960 -0.4846  0.1651  1.3054
  824TIP3   OH224106   5.229   4.097   0.809 -0.0578  0.5519  0.5535
  824TIP3    H124107   5.232   4.044   0.889 -0.7591  1.5220  1.2409
  824TIP3    H224108   5.152   4.153   0.820  0.0087  0.9152 -0.6735
  825TIP3   OH224109   0.209   5.782   2.019 -0.1480  0.7248 -0.0922
  825TIP3    H124110   0.264   5.793   2.097  1.3445 -0.4643 -0.9091
  825TIP3    H224111   0.120   5.800   2.050  0.2862 -0.4826  2.0887
  826TIP3   OH224112   4.613   5.889   0.146  0.1844  0.1453 -0.1428
  826TIP3    H124113   4.657   5.949   0.207  0.7766 -1.6737  1.3400
  826TIP3    H224114   4.668   5.811   0.147 -0.6067 -0.4700 -1.9331
  827TIP3   OH224115   2.135   3.816   7.647 -0.3794  0.2143  0.0355
  827TIP3    H124116   2.225   3.850   7.645 -0.1331 -0.2704  1.7277
  827TIP3    H224117   2.129   3.767   7.729 -2.4121  0.8222  0.3139
  828TIP3   OH224118   1.748   2.291   1.503  0.9926 -0.2050 -0.6104
  828TIP3    H124119   1.796   2.320   1.426  0.7778 -1.1531 -1.1211
  828TIP3    H224120   1.662   2.332   1.495  0.8352 -0.6131 -1.1035
  829TIP3   OH224121   5.910   1.305   6.640 -0.7860 -0.5329 -0.5941
  829TIP3    H124122   5.847   1.297   6.569 -2.2306 -0.1025  0.5964
  829TIP3    H224123   5.993   1.325   6.596 -1.7555  0.3668 -2.1123
  830TIP3   OH224124   1.605   0.325   0.724  0.1373  0.0801  0.2973
  830TIP3    H124125   1.654   0.398   0.686  2.2996 -0.3976  1.9922
  830TIP3    H224126   1.668   0.254   0.731 -1.6884 -1.7345 -0.4893
  831TIP3   OH224127   6.948   5.753   0.882  0.1058 -0.4138  0.2017
  831TIP3    H124128   6.973   5.712   0.965  0.7348 -0.3453  0.0477
  831TIP3    H224129   6.913   5.680   0.830 -2.1138 -0.1399  1.2060
  832TIP3   OH224130   6.340   6.450   8.415 -0.1915 -0.1336  0.1749
  832TIP3    H124131   6.337   6.424   8.323 -0.7301 -1.2949  0.5029
  832TIP3    H224132   6.354   6.369   8.463  1.0229  0.5718  1.0865
  833TIP3   OH224133   5.499   4.292   1.609  0.1240  0.1809  0.0813
  833TIP3    H124134   5.527   4.210   1.650 -2.5755 -1.7030 -1.4845
  833TIP3    H224135   5.446   4.335   1.676  2.2198  1.1530  1.2001
  834TIP3   OH224136   5.909   6.908   7.653  0.1897 -0.5118  0.0202
  834TIP3    H124137   5.995   6.883   7.688 -0.0779  0.5958  1.6196
  834TIP3    H224138   5.870   6.826   7.624  1.8192 -1.0293 -0.8876
  835TIP3   OH224139   5.300   2.142   0.024 -0.1236  0.1318 -0.5546
  835TIP3    H124140   5.280   2.066  -0.031  0.5254 -0.2869 -0.2306
  835TIP3    H224141   5.215   2.182   0.041 -0.4350 -0.2899 -1.0613
  836TIP3   OH224142   2.790   3.850   7.767 -0.4019  0.4395  0.7323
  836TIP3    H124143   2.753   3.858   7.679 -0.2486 -1.8264  0.4003
  836TIP3    H224144   2.864   3.910   7.767 -0.2539  0.3103 -0.7908
  837TIP3   OH224145   0.801   5.664   8.298  0.1996 -0.5009  0.1713
  837TIP3    H124146   0.885   5.665   8.252  0.2924 -1.1727  0.3071
  837TIP3    H224147   0.817   5.711   8.380  0.5635 -0.9954  0.3883
  838TIP3   OH224148   0.232   5.747   0.321  0.5804  0.2221  0.0598
  838TIP3    H124149   0.285   5.775   0.396  0.0994 -0.3088  0.6050
  838TIP3    H224150   0.159   5.809   0.319 -0.9364 -1.3962  1.7728
  839TIP3   OH224151   5.976   3.155   1.394 -0.5063  0.4510 -0.6543
  839TIP3    H124152   5.953   3.069   1.430 -1.1368  1.3112  1.0892
  839TIP3    H224153   6.071   3.155   1.390 -0.4194  0.2531  0.8924
  840TIP3   OH224154   4.991   6.941   0.760 -0.3047  0.2805  0.2980
  840TIP3    H124155   4.936   7.000   0.708 -0.6588 -0.1923  0.1300
  840TIP3    H224156   5.080   6.969   0.740 -0.4258 -0.0364 -0.7522
  841TIP3   OH224157   4.597   5.035   6.348  0.1613 -0.1933  0.4370
  841TIP3    H124158   4.660   5.105   6.365 -0.1173 -0.3086  2.1171
  841TIP3    H224159   4.652   4.959   6.328  0.4891  0.1513 -0.0269
  842TIP3   OH224160   4.649   3.841   6.669  0.8596  0.0506 -0.2325
  842TIP3    H124161   4.582   3.909   6.678 -1.0709 -1.8536  0.5200
  842TIP3    H224162   4.693   3.862   6.587  0.6511  2.4105  0.1609
  843TIP3   OH224163   1.940   1.754   6.743  0.9994 -0.0974 -0.5807
  843TIP3    H124164   1.878   1.825   6.761 -1.0151 -1.4777 -1.6169
  843TIP3    H224165   1.902   1.708   6.668  3.6433 -0.6819 -1.6653
  844TIP3   OH224166   5.295   4.673   1.940 -0.1905 -0.2280  0.0474
  844TIP3    H124167   5.345   4.724   1.877  1.3231 -0.4324  1.0319
  844TIP3    H224168   5.286   4.730   2.016  0.7988 -1.1056  0.8490
  845TIP3   OH224169   4.674   2.465   7.083 -0.9163 -0.0825 -0.0495
  845TIP3    H124170   4.663   2.390   7.024  0.3311 -1.0223  0.8488
  845TIP3    H224171   4.605   2.454   7.148 -0.0264 -1.1613  0.7541
  846TIP3   OH224172   6.349   2.782   2.162  0.1899 -0.3566 -0.5785
  846TIP3    H124173   6.343   2.859   2.106 -1.0086  0.1298  0.1730
  846TIP3    H224174   6.326   2.814   2.250 -0.4189 -1.5749 -0.2655
  847TIP3   OH224175   3.664   6.987   8.168  0.2173  0.2278 -0.3775
  847TIP3    H124176   3.669   7.080   8.187  0.3613  0.0825  0.3263
  847TIP3    H224177   3.658   6.945   8.254  2.5545 -0.5506 -0.5086
  848TIP3   OH224178   0.369   2.106   7.715 -0.2714 -0.5030 -0.0074
  848TIP3    H124179   0.357   2.072   7.626  0.0776  2.6999 -1.3883
  848TIP3    H224180   0.449   2.062   7.746  1.5166  0.6628 -2.5917
  849TIP3   OH224181   6.200   0.571   8.423 -0.2578 -0.3277 -0.5533
  849TIP3    H124182   6.219   0.658   8.389 -0.3144 -0.0675  0.0689
  849TIP3    H224183   6.131   0.537   8.366 -2.4225  1.2454  0.9942
  850TIP3   OH224184   4.097   0.235   7.008 -0.0040  0.5609 -0.2974
  850TIP3    H124185   4.029   0.199   6.951  0.4904 -0.4599 -0.2722
  850TIP3    H224186   4.105   0.172   7.079 -0.1626  1.5014  0.5861
  851TIP3   OH224187   3.178   4.741   7.838 -0.1531  0.5287 -0.0160
  851TIP3    H124188   3.241   4.727   7.767  0.5748 -0.2190  0.7538
  851TIP3    H224189   3.161   4.653   7.873  1.7550  1.0981  2.6103
  852TIP3   OH224190   4.234   2.009   7.543  0.1756 -0.0571 -0.1002
  852TIP3    H124191   4.291   1.997   7.619 -1.8514 -1.4554  1.3077
  852TIP3    H224192   4.191   1.924   7.532 -1.2938  0.8079 -1.3508
  853TIP3   OH224193   2.334   4.126   0.296 -0.3340 -0.3783 -0.1312
  853TIP3    H124194   2.394   4.181   0.346  2.3991 -2.6498 -0.6269
  853TIP3    H224195   2.254   4.122   0.349  1.5989 -0.8749  2.9618
  854TIP3   OH224196   0.852   1.841   7.115  0.1945 -0.0912  0.2142
  854TIP3    H124197   0.929   1.882   7.076 -1.0442  1.5415 -0.6936
  854TIP3    H224198   0.858   1.861   7.208  1.2685 -0.7085  0.2867
  855TIP3   OH224199   3.644   2.468   1.691 -0.0032 -0.0250  0.1482
  855TIP3    H124200   3.643   2.379   1.725  1.2046  0.2232  0.8878
  855TIP3    H224201   3.673   2.522   1.764  2.2308  0.5848 -1.0810
  856TIP3   OH224202   1.963   5.231   1.822  0.1418 -0.6048  0.0039
  856TIP3    H124203   1.979   5.325   1.828 -1.8036 -0.1725 -0.9532
  856TIP3    H224204   1.926   5.208   1.907 -1.5425  0.0033 -0.5183
  857TIP3   OH224205   5.979   3.314   0.063 -0.0500  0.4099  0.4503
  857TIP3    H124206   6.067   3.279   0.056 -0.7091 -1.0768 -1.0280
  857TIP3    H224207   5.930   3.271  -0.007 -1.8356  1.5606  0.9162
  858TIP3   OH224208   5.588   0.255   0.501 -0.3974  0.1030  0.0096
  858TIP3    H124209   5.638   0.188   0.454 -0.6420 -1.0316  1.3216
  858TIP3    H224210   5.653   0.300   0.555 -0.7129 -1.2522  1.5778
  859TIP3   OH224211   0.454   6.101   6.931  0.2173 -0.7562  0.0757
  859TIP3    H124212   0.386   6.078   6.867  1.4500 -2.2203 -0.7632
  859TIP3    H224213   0.515   6.028   6.928  2.5183  1.0804 -0.1280
  860TIP3   OH224214   3.843   4.810   6.519 -0.1246 -0.0248  0.1837
  860TIP3    H124215   3.853   4.715   6.524  0.9816  0.1291  1.7782
  860TIP3    H224216   3.849   4.830   6.425  0.4456 -1.4455 -0.1077
  861TIP3   OH224217   1.277   1.048   1.043 -0.1688  0.0366 -0.4724
  861TIP3    H124218   1.235   1.008   0.967  1.2285 -2.4837 -0.0380
  861TIP3    H224219   1.370   1.053   1.020  0.1212  0.2106  0.6604
  862TIP3   OH224220   2.344   5.376   2.701 -0.1639 -0.6852  0.4133
  862TIP3    H124221   2.326   5.467   2.678  0.5057 -1.0471 -1.8585
  862TIP3    H224222   2.258   5.339   2.722 -0.8881 -0.1851 -1.4485
  863TIP3   OH224223   0.642   3.769   1.005  0.2863 -0.1317  0.0417
  863TIP3    H124224   0.629   3.751   1.098 -1.5603 -1.3110 -0.3712
  863TIP3    H224225   0.719   3.717   0.981  1.3351  0.9129  1.0788
  864TIP3   OH224226   2.215   2.859   5.735 -0.3671  0.1083 -0.1860
  864TIP3    H124227   2.215   2.904   5.819  0.8288 -0.2919  0.0448
  864TIP3    H224228   2.194   2.928   5.671  3.0354  1.4506 -0.0252
  865TIP3   OH224229   4.621   4.751   1.513  0.3521 -0.7906 -0.1184
  865TIP3    H124230   4.620   4.689   1.440  0.3336  0.6608 -1.4052
  865TIP3    H224231   4.710   4.786   1.513 -0.4519  1.5183 -1.5510
  866TIP3   OH224232   5.152   3.761   2.200  0.1130 -0.1347  0.1939
  866TIP3    H124233   5.195   3.842   2.228  0.6338 -0.6957  1.0882
  866TIP3    H224234   5.061   3.786   2.185  0.6577  1.0151 -1.4621
  867TIP3   OH224235   5.884   3.617   0.516  0.4941 -1.0436  0.4279
  867TIP3    H124236   5.823   3.573   0.577 -1.0616 -1.4793 -1.3547
  867TIP3    H224237   5.865   3.578   0.431  2.9202 -0.7603 -0.3104
  868TIP3   OH224238   6.317   3.105   0.150 -0.9887 -0.1981 -0.0295
  868TIP3    H124239   6.295   3.172   0.085 -2.2260  0.1705  0.7535
  868TIP3    H224240   6.253   3.035   0.135  0.0348 -1.0607 -0.5683
  869TIP3   OH224241   3.234   0.265   2.456 -0.1387  0.4401  0.3623
  869TIP3    H124242   3.227   0.339   2.397 -1.1294  1.5708  1.8356
  869TIP3    H224243   3.176   0.198   2.418 -0.8527  1.1854  0.1202
  870TIP3   OH224244   3.667   5.924   8.322 -0.0935 -0.2204  0.0186
  870TIP3    H124245   3.580   5.887   8.331 -0.7159  1.3320  0.9158
  870TIP3    H224246   3.653   6.009   8.280  1.0507 -0.1856 -0.3401
  871TIP3   OH224247   3.937   6.056   1.965  0.2236  0.5408 -0.6625
  871TIP3    H124248   3.969   6.111   2.036 -1.0747 -0.0540  0.4341
  871TIP3    H224249   3.911   6.118   1.897 -0.4661  1.2608  0.2282
  872TIP3   OH224250   6.258   5.710   1.021  0.2829  0.0007 -0.1461
  872TIP3    H124251   6.252   5.617   0.998  0.0264  0.0759 -0.3992
  872TIP3    H224252   6.292   5.752   0.941 -0.2274  0.2123 -0.2586
  873TIP3   OH224253   5.396   6.890   2.824 -0.1719  0.0168 -0.4277
  873TIP3    H124254   5.333   6.852   2.763  1.3383  1.0752 -2.7858
  873TIP3    H224255   5.481   6.860   2.792  0.7029  0.8779  0.9862
  874TIP3   OH224256   3.471   3.173   1.206 -0.5726 -0.1979  0.2650
  874TIP3    H124257   3.474   3.214   1.292 -1.7065  1.0849 -0.2522
  874TIP3    H224258   3.515   3.235   1.148  1.6726 -1.7959  0.1256
  875TIP3   OH224259   0.109   1.224   1.732  0.4075 -0.2655  0.5440
  875TIP3    H124260   0.201   1.245   1.716  0.5085  1.5914  2.9148
  875TIP3    H224261   0.068   1.226   1.646  2.4231 -0.3184 -0.4713
  876TIP3   OH224262   2.460   6.120   7.591 -0.4083  0.2862  0.1450
  876TIP3    H124263   2.394   6.082   7.533 -0.5504  0.5126  0.1544
  876TIP3    H224264   2.491   6.197   7.544  1.5910 -1.1181 -0.9607
  877TIP3   OH224265   0.835   3.536   7.629 -0.3022 -0.2447  0.3301
  877TIP3    H124266   0.769   3.558   7.695  0.2072 -1.1382  1.1542
  877TIP3    H224267   0.900   3.483   7.676  0.1001 -0.8576 -0.8786
  878TIP3   OH224268   0.688   2.911   2.079  0.1529  0.4853 -0.3498
  878TIP3    H124269   0.711   2.900   2.171  0.2951  0.9795 -0.3236
  878TIP3    H224270   0.710   2.827   2.039  3.0058  1.1910 -0.5253
  879TIP3   OH224271   5.481   4.585   8.051 -0.9668 -0.2181 -0.7564
  879TIP3    H124272   5.450   4.551   8.136  0.2396  0.4295 -0.0420
  879TIP3    H224273   5.490   4.507   7.997 -0.4224 -0.8090  0.1547
  880TIP3   OH224274   4.100   0.424   0.898  0.0081  0.1627 -0.2950
  880TIP3    H124275   4.116   0.513   0.929  0.2776  0.0039  0.0267
  880TIP3    H224276   4.182   0.398   0.857 -0.7978  0.9077 -2.5067
  881TIP3   OH224277   3.563   4.865   7.616  0.0097  0.5059 -0.1362
  881TIP3    H124278   3.563   4.957   7.641  0.4379  0.0229  1.7893
  881TIP3    H224279   3.620   4.861   7.539 -0.4607  1.9053 -0.5900
  882TIP3   OH224280   6.505   1.609   1.265  0.2442  0.2432 -0.4337
  882TIP3    H124281   6.512   1.566   1.350 -0.5818 -0.8595 -0.8918
  882TIP3    H224282   6.525   1.701   1.282  1.6665 -0.2395  0.6583
  883TIP3   OH224283   0.646   0.967   7.113 -0.1813 -0.1308  0.4146
  883TIP3    H124284   0.731   0.998   7.081 -0.6721 -0.8506 -1.7750
  883TIP3    H224285   0.654   0.872   7.113 -0.9147 -0.1973  0.4280
  884TIP3   OH224286   1.690   3.452   7.342  0.0244 -0.0042 -0.7888
  884TIP3    H124287   1.600   3.486   7.345 -0.7574 -1.9928  0.6219
  884TIP3    H224288   1.744   3.527   7.369 -1.2547  1.0780 -1.1002
  885TIP3   OH224289   0.208   0.591   7.821  0.4036 -0.2221 -0.3555
  885TIP3    H124290   0.116   0.577   7.840  0.5722 -1.2383 -0.2436
  885TIP3    H224291   0.210   0.615   7.728 -0.0443  0.7273 -0.1324
  886TIP3   OH224292   6.167   4.579   2.437 -0.0625 -0.2799  0.0636
  886TIP3    H124293   6.164   4.483   2.436 -0.7778 -0.3352 -3.0988
  886TIP3    H224294   6.254   4.600   2.402  0.6130  0.3060  1.9736
  887TIP3   OH224295   3.881   2.155   0.041  0.4587 -0.4550  0.1191
  887TIP3    H124296   3.821   2.093   0.001 -0.6305  0.7024 -0.1017
  887TIP3    H224297   3.875   2.138   0.135  0.1055 -0.6271  0.0633
  888TIP3   OH224298   3.342   3.780   1.395  0.4734 -0.2808 -0.4657
  888TIP3    H124299   3.297   3.864   1.395  1.9258  0.6071 -3.1668
  888TIP3    H224300   3.280   3.720   1.353 -0.1027 -0.3281  0.4166
  889TIP3   OH224301   0.174   0.650   7.524  0.0317 -0.2074  0.1893
  889TIP3    H124302   0.215   0.736   7.524  1.1068 -0.6916 -0.6411
  889TIP3    H224303   0.099   0.659   7.465  1.0079 -0.2071 -1.0825
  890TIP3   OH224304   2.017   3.641   6.672 -0.1942 -0.0819  0.3242
  890TIP3    H124305   1.927   3.670   6.684 -0.5008 -0.6769 -0.4618
  890TIP3    H224306   2.052   3.637   6.761 -0.5540  1.3180  0.5589
  891TIP3   OH224307   3.458   1.834   1.507 -0.3428  0.1658  0.7034
  891TIP3    H124308   3.490   1.751   1.472 -0.5729  0.5985 -0.5971
  891TIP3    H224309   3.385   1.810   1.564  0.7949 -0.6542  1.8822
  892TIP3   OH224310   5.641   4.564   1.558  0.5372 -0.5368  0.3846
  892TIP3    H124311   5.630   4.590   1.467  0.2702  0.0278  0.5704
  892TIP3    H224312   5.587   4.486   1.567 -0.1000 -0.1222  0.2572
  893TIP3   OH224313   1.678   4.760   1.689 -0.2170 -0.6693 -0.0173
  893TIP3    H124314   1.664   4.800   1.604  0.8380 -1.2522 -0.4789
  893TIP3    H224315   1.641   4.823   1.751  1.3541  1.0297 -0.7186
  894TIP3   OH224316   4.142   1.996   7.926  0.2844 -0.1348 -0.1684
  894TIP3    H124317   4.206   2.051   7.882 -0.1804  1.4841  1.0694
  894TIP3    H224318   4.070   1.988   7.864 -1.0851  3.4755  0.7072
  895TIP3   OH224319   2.336   5.116   0.863 -0.3121 -0.1439  0.1484
  895TIP3    H124320   2.385   5.034   0.870  1.2502  0.8581  2.5943
  895TIP3    H224321   2.247   5.094   0.891 -0.4744 -1.3715 -1.2520
  896TIP3   OH224322   0.262   4.797   7.751 -0.0073 -0.3313  0.7271
  896TIP3    H124323   0.184   4.802   7.806  0.5570 -1.3331  1.6822
  896TIP3    H224324   0.334   4.814   7.811  0.4721  3.3225 -0.6244
  897TIP3   OH224325   1.198   2.348   1.711  0.2268 -0.1484  0.2533
  897TIP3    H124326   1.270   2.401   1.677 -1.0177  1.0967 -0.5916
  897TIP3    H224327   1.138   2.339   1.637 -1.1797  0.1248  1.3169
  898TIP3   OH224328   3.388   4.145   1.677  0.0204 -0.8687 -0.5859
  898TIP3    H124329   3.420   4.233   1.658  0.0834 -0.9693 -0.9643
  898TIP3    H224330   3.377   4.143   1.772  0.2758 -0.5405 -0.5484
  899TIP3   OH224331   4.088   2.521   7.514  0.0708 -0.3291 -0.0949
  899TIP3    H124332   4.044   2.503   7.431  1.0044  1.1740 -0.9675
  899TIP3    H224333   4.140   2.442   7.532 -1.2293 -1.2317 -0.1792
  900TIP3   OH224334   3.111   6.533   6.054  0.4710  0.1804  0.1538
  900TIP3    H124335   3.027   6.554   6.095 -0.3412 -0.3867 -1.1507
  900TIP3    H224336   3.110   6.438   6.044  1.3969  0.1378  0.3819
  901TIP3   OH224337   0.087   1.266   0.605 -0.3158  0.0489 -0.0189
  901TIP3    H124338   0.131   1.345   0.635  0.8165 -0.2667 -0.7796
  901TIP3    H224339   0.002   1.297   0.572 -0.5009  0.7298  1.0594
  902TIP3   OH224340   3.106   4.860   0.316  0.2993  0.5230 -0.3325
  902TIP3    H124341   3.091   4.860   0.410 -0.9250  2.2012 -0.4881
  902TIP3    H224342   3.105   4.767   0.291 -2.8235  0.1322  0.8110
  903TIP3   OH224343   2.489   4.120   7.935  0.1565  0.2397 -0.2706
  903TIP3    H124344   2.556   4.066   7.978  0.0979 -0.1621 -0.6759
  903TIP3    H224345   2.518   4.210   7.948  1.0041  0.0531 -0.8007
  904TIP3   OH224346   6.210   2.541   6.432 -0.2410  0.1578  0.3191
  904TIP3    H124347   6.172   2.597   6.364  1.6080 -0.3306 -1.1946
  904TIP3    H224348   6.175   2.454   6.413  3.1915 -0.8269 -2.6300
  905TIP3   OH224349   4.216   2.291   6.673  0.3992  0.0708  0.0667
  905TIP3    H124350   4.202   2.256   6.585 -1.6997 -0.9892  0.7594
  905TIP3    H224351   4.189   2.382   6.667  0.6709  0.1185 -0.4867
  906TIP3   OH224352   6.955   0.548   0.772 -0.3688 -0.3190 -0.0144
  906TIP3    H124353   6.898   0.624   0.789  1.0966  0.3539  2.4351
  906TIP3    H224354   6.970   0.550   0.678 -1.9086  1.2952 -0.2875
  907TIP3   OH224355   0.755   5.907   7.085  0.4037  0.3926 -0.4405
  907TIP3    H124356   0.780   5.816   7.070 -0.6005 -0.1477  0.8817
  907TIP3    H224357   0.715   5.936   7.003 -0.1388 -0.6862 -0.5666
  908TIP3   OH224358   2.533   4.676   8.282  0.5300 -0.2780  0.0870
  908TIP3    H124359   2.522   4.770   8.264  2.3039  0.1854  1.1021
  908TIP3    H224360   2.474   4.660   8.356 -0.3576 -0.1689 -0.5765
  909TIP3   OH224361   0.875   2.535   6.138 -0.1579  0.1779 -0.3454
  909TIP3    H124362   0.856   2.468   6.204  1.5015 -0.6489 -0.6589
  909TIP3    H224363   0.855   2.618   6.182  0.9761 -0.3555  1.2473
  910TIP3   OH224364   6.952   3.227   7.858 -0.4624  0.4871  0.0582
  910TIP3    H124365   6.953   3.294   7.926 -1.1662  1.1494 -0.5745
  910TIP3    H224366   6.877   3.171   7.881  0.8444 -0.8492  1.2830
  911TIP3   OH224367   2.262   2.078   0.296 -0.5875 -0.1917  0.0395
  911TIP3    H124368   2.352   2.106   0.313 -0.1257 -1.7943  0.4428
  911TIP3    H224369   2.217   2.091   0.380 -0.3440 -0.7312  0.2602
  912TIP3   OH224370   1.451   2.398   1.193 -0.1978 -0.5056 -0.7125
  912TIP3    H124371   1.464   2.336   1.265 -2.0095  0.2733  0.3808
  912TIP3    H224372   1.467   2.347   1.114 -3.3347 -2.9998  0.0266
  913TIP3   OH224373   1.442   3.174   0.164 -0.1852  0.1660  0.2097
  913TIP3    H124374   1.453   3.117   0.241 -0.2156  0.1950  0.2353
  913TIP3    H224375   1.406   3.116   0.097  1.2906 -0.2463 -0.2727
  914TIP3   OH224376   4.681   0.490   0.093  0.2037  0.4354  0.1213
  914TIP3    H124377   4.706   0.524   0.007 -0.4848  0.4461 -0.0811
  914TIP3    H224378   4.585   0.488   0.091  0.1633  0.9409  1.0839
  915TIP3   OH224379   3.073   1.102   8.161  0.7152 -0.4452 -0.0703
  915TIP3    H124380   3.022   1.050   8.224 -1.1545 -0.1642 -1.2901
  915TIP3    H224381   3.135   1.039   8.123  0.8050 -0.9719  0.9043
  916TIP3   OH224382   1.560   4.861   0.322  0.6634 -0.1729 -0.0098
  916TIP3    H124383   1.618   4.923   0.367  1.6832 -1.0714 -0.0530
  916TIP3    H224384   1.503   4.917   0.269 -0.5414  0.9257  2.2828
  917TIP3   OH224385   1.888   6.424   8.175 -0.0544  0.2856  0.7050
  917TIP3    H124386   1.815   6.420   8.237 -0.1072 -0.0906  0.6170
  917TIP3    H224387   1.952   6.361   8.209 -0.4084 -0.4918 -0.0420
  918TIP3   OH224388   2.130   3.111   1.001 -0.0215 -0.4553 -0.1269
  918TIP3    H124389   2.154   3.156   0.920  0.3083  0.2032  0.3263
  918TIP3    H224390   2.036   3.096   0.992 -0.4311  1.5424  0.2614
  919TIP3   OH224391   5.698   5.242   1.472 -0.2067  0.3437 -0.2488
  919TIP3    H124392   5.763   5.289   1.525 -0.5506 -0.6347  1.0769
  919TIP3    H224393   5.629   5.307   1.457 -0.5797  0.3626  1.3784
  920TIP3   OH224394   4.358   4.503   8.458 -0.1865 -0.1432  0.0480
  920TIP3    H124395   4.335   4.488   8.367 -1.3588  0.9307  0.1373
  920TIP3    H224396   4.277   4.531   8.499  0.5147  0.2310  1.2354
  921TIP3   OH224397   0.328   0.079   1.118  0.5651  0.1535  0.7437
  921TIP3    H124398   0.409   0.046   1.156  0.4438 -1.4284 -0.2816
  921TIP3    H224399   0.311   0.022   1.043 -0.3113  1.8493 -0.4237
  922TIP3   OH224400   4.718   5.227   7.459  0.2188 -0.2528  0.0607
  922TIP3    H124401   4.698   5.168   7.532  1.0475  0.4202  0.8572
  922TIP3    H224402   4.722   5.313   7.499 -0.6271  0.3183 -1.0329
  923TIP3   OH224403   0.845   2.963   0.665  0.2607 -0.0701  0.3933
  923TIP3    H124404   0.771   2.981   0.606  1.3277  1.9594 -0.3930
  923TIP3    H224405   0.843   3.033   0.729  1.4629 -0.0237  0.4036
  924TIP3   OH224406   3.337   6.351   0.119 -0.0562 -0.0980  0.1855
  924TIP3    H124407   3.401   6.394   0.175  0.3832 -0.1439 -0.2656
  924TIP3    H224408   3.389   6.319   0.045 -0.6591  0.1519 -0.3492
  925TIP3   OH224409   5.542   6.661   7.670 -0.2880  0.2003  0.3997
  925TIP3    H124410   5.601   6.698   7.604  1.0014  0.4711  1.6678
  925TIP3    H224411   5.566   6.704   7.752 -0.5907 -1.4478  1.4142
  926TIP3   OH224412   1.320   0.422   7.727  1.0075  0.5025  0.0625
  926TIP3    H124413   1.363   0.359   7.785  0.1491 -0.3646 -0.2177
  926TIP3    H224414   1.241   0.449   7.775  0.2538 -0.2724 -0.6959
  927TIP3   OH224415   5.325   5.231   1.591 -0.2725 -0.1034  0.0948
  927TIP3    H124416   5.279   5.200   1.513 -2.0675  1.2233  0.5481
  927TIP3    H224417   5.295   5.172   1.661 -1.3713  0.7678  0.3923
  928TIP3   OH224418   6.548   6.152   2.274  0.5915  0.4567 -0.3413
  928TIP3    H124419   6.583   6.147   2.362  2.0317  0.8927 -0.8506
  928TIP3    H224420   6.461   6.190   2.284 -0.5133 -2.2656  1.1336
  929TIP3   OH224421   5.162   1.222   1.630  0.0590 -0.3085  0.4849
  929TIP3    H124422   5.153   1.269   1.713  0.5129 -0.7371  0.7809
  929TIP3    H224423   5.090   1.256   1.576  1.9569  2.8288 -0.3615
  930TIP3   OH224424   5.919   1.990   7.925  0.3596 -0.1336  0.2000
  930TIP3    H124425   5.978   1.924   7.887 -0.5818 -1.2533  0.6097
  930TIP3    H224426   5.856   2.008   7.856  0.9650  0.8144 -0.1217
  931TIP3   OH224427   1.458   5.013   0.600 -0.2412 -0.0708 -0.3176
  931TIP3    H124428   1.536   4.966   0.628 -1.1281 -1.2817  0.1855
  931TIP3    H224429   1.387   4.950   0.608 -1.5545  1.4552  0.7689
  932TIP3   OH224430   2.234   2.444   6.607  0.5298 -0.1120  0.1878
  932TIP3    H124431   2.282   2.368   6.575  0.6635 -0.2948  0.8093
  932TIP3    H224432   2.166   2.407   6.664  0.5987  0.2289  0.4955
  933TIP3   OH224433   5.477   5.104   7.954  0.5141 -0.1269  0.3653
  933TIP3    H124434   5.499   5.187   7.913 -0.8111  0.4891  0.8529
  933TIP3    H224435   5.539   5.096   8.027  0.8394  0.2770  0.1391
  934TIP3   OH224436   2.483   6.653   1.062  0.0945 -0.0492 -0.3234
  934TIP3    H124437   2.569   6.627   1.030  0.4021  0.4477  0.0870
  934TIP3    H224438   2.426   6.580   1.039  0.5908 -0.3081 -0.7485
  935TIP3   OH224439   1.173   1.659   0.374  0.0179  0.0836  0.0970
  935TIP3    H124440   1.160   1.566   0.354  2.5580 -0.1461 -0.9136
  935TIP3    H224441   1.107   1.679   0.440 -1.9978 -1.8719 -1.1832
  936TIP3   OH224442   5.892   3.484   0.266 -0.5102  0.3568  0.4772
  936TIP3    H124443   5.893   3.566   0.216  2.2863  1.7038  2.4601
  936TIP3    H224444   5.945   3.424   0.215  2.8186  1.9010  1.8158
  937TIP3   OH224445   6.337   4.613   0.173 -0.2064 -0.4313 -0.1298
  937TIP3    H124446   6.295   4.541   0.126  0.5579 -1.2330  0.3946
  937TIP3    H224447   6.298   4.611   0.260  0.8868 -1.1915  0.3662
  938TIP3   OH224448   3.077   2.433   2.404 -0.1646 -0.2025  0.4810
  938TIP3    H124449   3.127   2.503   2.361 -0.5530 -0.4192 -0.3356
  938TIP3    H224450   3.130   2.354   2.390 -0.4057 -0.3147  0.1811
  939TIP3   OH224451   5.543   5.236   2.277 -0.2362 -0.0594  0.6954
  939TIP3    H124452   5.514   5.152   2.312  0.6383 -0.1177  1.3306
  939TIP3    H224453   5.588   5.278   2.350 -2.2218  1.7663  0.9467
  940TIP3   OH224454   6.612   6.532   6.376  0.4682 -0.3373 -0.2085
  940TIP3    H124455   6.615   6.521   6.281  0.8395  1.9923 -0.5397
  940TIP3    H224456   6.668   6.608   6.393  2.6808 -2.3195  2.2205
  941TIP3   OH224457   4.226   6.858   7.914 -0.2383  0.3189  0.2998
  941TIP3    H124458   4.218   6.792   7.982  1.3877  0.5605  0.7742
  941TIP3    H224459   4.144   6.853   7.865 -0.9242 -0.7051  1.5119
  942TIP3   OH224460   1.056   2.948   0.476  0.4501  0.2386 -0.3668
  942TIP3    H124461   0.973   2.926   0.519  0.6516  0.5491  0.1878
  942TIP3    H224462   1.058   3.044   0.476  0.6661  0.2353 -0.6624
  943TIP3   OH224463   3.966   2.781   7.560  0.0279 -0.0923 -0.1459
  943TIP3    H124464   4.050   2.750   7.526 -0.8205 -2.7172 -0.0685
  943TIP3    H224465   3.907   2.778   7.484 -0.2174  0.9770 -0.0203
  944TIP3   OH224466   3.094   2.943   6.716 -0.5309 -0.3122 -1.0920
  944TIP3    H124467   3.146   2.975   6.790  0.5525  0.7125 -2.2573
  944TIP3    H224468   3.090   2.848   6.729  0.9312 -0.3191 -0.5106
  945TIP3   OH224469   6.361   0.396   1.820 -0.1811  0.3857 -0.6444
  945TIP3    H124470   6.407   0.379   1.902  0.3611 -0.2219 -1.0734
  945TIP3    H224471   6.269   0.403   1.846 -0.2162 -1.3100 -0.1750
  946TIP3   OH224472   0.370   1.655   8.012 -0.0999  0.4424 -0.0930
  946TIP3    H124473   0.353   1.634   7.920  0.0907 -1.4891  0.2831
  946TIP3    H224474   0.358   1.750   8.017  0.4557  0.6771 -2.2312
  947TIP3   OH224475   1.087   5.462   2.458  0.7579  0.4704 -0.2243
  947TIP3    H124476   1.004   5.463   2.504  1.8537  0.0105  1.8827
  947TIP3    H224477   1.097   5.371   2.428  1.4859 -0.0642  1.5163
  948TIP3   OH224478   5.432   5.630   1.088  0.1538  0.2400 -0.1706
  948TIP3    H124479   5.436   5.585   1.004  2.7002 -1.5372  0.7747
  948TIP3    H224480   5.497   5.699   1.081  3.6948 -2.6111  1.5998
  949TIP3   OH224481   1.318   1.784   1.733 -0.2556  0.3969 -0.3953
  949TIP3    H124482   1.293   1.737   1.653 -2.4151 -0.1517  0.5395
  949TIP3    H224483   1.250   1.851   1.743 -0.5893 -0.1762  1.4827
  950TIP3   OH224484   3.814   4.221   0.758  0.1162 -0.8201 -0.5886
  950TIP3    H124485   3.843   4.239   0.669 -0.2444  0.1203 -0.5271
  950TIP3    H224486   3.776   4.133   0.754 -1.4412 -0.1480 -1.7529
  951TIP3   OH224487   3.308   6.659   2.319 -0.1956  0.2154 -0.1275
  951TIP3    H124488   3.325   6.681   2.411  2.1328  0.7766 -0.6227
  951TIP3    H224489   3.307   6.744   2.274  0.9437 -0.1462 -0.9005
  952TIP3   OH224490   1.208   2.897   1.800  0.0558  0.1124  0.0014
  952TIP3    H124491   1.165   2.832   1.856  0.4100  0.1474  0.3182
  952TIP3    H224492   1.225   2.971   1.858  1.4410 -0.2809  0.1362
  953TIP3   OH224493   0.555   2.129   0.913 -0.2389  0.2943 -0.3028
  953TIP3    H124494   0.570   2.153   1.005 -2.0857  0.2093  0.0596
  953TIP3    H224495   0.589   2.204   0.864 -0.7550  1.1129  0.5442
  954TIP3   OH224496   4.689   3.363   1.489 -0.2090  0.1593 -0.5638
  954TIP3    H124497   4.628   3.342   1.417  1.4328 -3.2438 -1.1784
  954TIP3    H224498   4.769   3.392   1.445 -0.1466  0.9378  0.0494
  955TIP3   OH224499   6.442   4.657   2.307 -0.4322 -0.1005 -0.5413
  955TIP3    H124500   6.444   4.748   2.339 -1.4182 -0.5659  0.9766
  955TIP3    H224501   6.519   4.616   2.346 -0.3193 -0.0624 -0.7264
  956TIP3   OH224502   1.661   3.078   1.811  0.7945 -0.1127 -0.2929
  956TIP3    H124503   1.619   3.099   1.894  2.4924 -0.8360  0.8032
  956TIP3    H224504   1.589   3.049   1.754 -0.1705 -1.8674  1.6745
  957TIP3   OH224505   3.779   4.078   7.015  0.0013 -0.5744 -0.4513
  957TIP3    H124506   3.714   4.147   6.999 -0.8220 -1.3769 -0.6597
  957TIP3    H224507   3.861   4.114   6.983  0.0718  1.2125  1.5253
  958TIP3   OH224508   4.418   4.017   2.857 -0.2353  0.1300 -0.1632
  958TIP3    H124509   4.446   4.103   2.886  0.1558  0.3252 -1.0702
  958TIP3    H224510   4.415   3.964   2.936  0.5968  0.6866  0.2510
  959TIP3   OH224511   3.607   3.784   0.712  0.1356  0.3324  0.7292
  959TIP3    H124512   3.553   3.733   0.771  2.6396 -2.0470  1.1634
  959TIP3    H224513   3.614   3.730   0.633  0.3395  1.4516 -0.0434
  960TIP3   OH224514   1.003   2.749   0.993 -0.2571  0.5484  0.2735
  960TIP3    H124515   1.006   2.729   1.086 -0.0176  0.8747  0.3369
  960TIP3    H224516   1.083   2.710   0.957 -1.6671 -2.0349 -0.3000
  961TIP3   OH224517   4.501   1.398   8.045  0.5943 -0.5374  0.2328
  961TIP3    H124518   4.435   1.345   8.090 -0.3098  0.5842  0.2709
  961TIP3    H224519   4.584   1.375   8.087  0.1553 -1.5884  0.5364
  962TIP3   OH224520   4.527   5.763   7.690 -0.1006 -0.1165  0.0735
  962TIP3    H124521   4.545   5.723   7.775 -0.8803 -1.5115 -0.3927
  962TIP3    H224522   4.556   5.854   7.700  0.9090 -0.5607  1.4392
  963TIP3   OH224523   1.421   2.869   1.427  0.1452 -0.8189 -0.3659
  963TIP3    H124524   1.389   2.954   1.397  1.4325  1.2836  3.5388
  963TIP3    H224525   1.345   2.811   1.418 -1.5845  1.3531 -0.8664
  964TIP3   OH224526   4.169   0.246   8.244  0.8798  0.1518 -0.4647
  964TIP3    H124527   4.153   0.278   8.332  2.7315  3.0427 -1.0192
  964TIP3    H224528   4.223   0.168   8.256  2.2068  1.2244  1.0316
  965TIP3   OH224529   3.387   6.735   7.254  0.6228 -0.1561  0.0898
  965TIP3    H124530   3.352   6.707   7.170  1.0417 -1.3953  0.3040
  965TIP3    H224531   3.477   6.762   7.234  0.5827 -0.0459  0.0616
  966TIP3   OH224532   1.704   3.578   0.401 -0.9370  0.7068 -0.4284
  966TIP3    H124533   1.643   3.638   0.443  0.4752  1.3537  0.8252
  966TIP3    H224534   1.651   3.528   0.340 -2.8707  0.6380  1.2053
  967TIP3   OH224535   1.729   6.583   2.065  0.2097  0.1914 -0.6055
  967TIP3    H124536   1.752   6.495   2.033  0.0849 -0.2033  0.3762
  967TIP3    H224537   1.636   6.593   2.043 -0.3739 -0.8184  1.2378
  968TIP3   OH224538   2.596   0.104   7.927  0.0062 -0.4771 -0.0932
  968TIP3    H124539   2.508   0.139   7.911  0.7336  2.1625  1.1831
  968TIP3    H224540   2.588   0.010   7.908 -3.3634 -0.5604  1.0272
  969TIP3   OH224541   3.488   3.093   6.951  0.1638  0.3119  0.0881
  969TIP3    H124542   3.439   3.168   6.915  0.9791  1.2405  0.8510
  969TIP3    H224543   3.425   3.021   6.952 -0.6591  0.9980 -0.6236
  970TIP3   OH224544   5.980   0.569   0.150 -0.0485  0.0208 -0.2337
  970TIP3    H124545   5.974   0.474   0.141 -0.4117 -0.2560  2.2034
  970TIP3    H224546   6.064   0.592   0.110  0.0422 -1.3050 -0.8606
  971TIP3   OH224547   3.452   2.916   0.596 -0.0599 -0.0240  0.6268
  971TIP3    H124548   3.522   2.939   0.657 -1.4295  0.1553  2.1919
  971TIP3    H224549   3.420   2.831   0.628 -1.2823  0.4182  0.6328
  972TIP3   OH224550   2.508   3.435   6.958  0.0667  0.9143  0.0578
  972TIP3    H124551   2.526   3.346   6.928  1.5616  1.1498  0.1944
  972TIP3    H224552   2.566   3.490   6.906 -1.3579  1.9103 -0.5281
  973TIP3   OH224553   3.333   4.498   0.657 -0.7719  0.9131  0.1914
  973TIP3    H124554   3.348   4.403   0.655  3.4492  1.3854  0.0860
  973TIP3    H224555   3.315   4.517   0.749  0.7104  0.2058  0.6561
  974TIP3   OH224556   0.990   1.260   7.926 -0.0390  0.1555 -0.2502
  974TIP3    H124557   1.018   1.352   7.927 -0.7368  0.3750  0.2865
  974TIP3    H224558   0.901   1.263   7.889 -0.4214 -0.1820  0.6150
  975TIP3   OH224559   5.497   3.793   0.782 -0.3213  0.1737  0.1022
  975TIP3    H124560   5.423   3.851   0.798 -0.6396 -0.1354 -0.2581
  975TIP3    H224561   5.485   3.761   0.693 -0.3074 -0.6698  0.3911
  976TIP3   OH224562   5.338   0.768   1.585  0.3479 -0.3200  0.0655
  976TIP3    H124563   5.387   0.728   1.657  0.0645 -0.6713  0.0689
  976TIP3    H224564   5.286   0.836   1.627  1.8270  0.9721 -0.1292
  977TIP3   OH224565   6.828   2.501   1.024  0.1035 -0.0400 -0.2743
  977TIP3    H124566   6.742   2.512   1.065 -0.1335  0.0405 -0.7901
  977TIP3    H224567   6.809   2.491   0.931  0.4726 -2.5481 -0.1278
  978TIP3   OH224568   2.769   0.665   7.004  0.0503  0.0274 -0.3464
  978TIP3    H124569   2.836   0.681   6.938 -0.3377  0.0350 -0.7479
  978TIP3    H224570   2.689   0.647   6.953 -0.4899  1.0137  0.1115
  979TIP3   OH224571   1.498   3.961   0.680  0.6931  0.2133 -0.1142
  979TIP3    H124572   1.537   4.016   0.611 -0.4681 -0.0259 -0.9769
  979TIP3    H224573   1.549   3.880   0.678  0.3378 -0.0011 -1.0702
  980TIP3   OH224574   3.959   4.523   8.115  0.2575 -0.0178 -0.7322
  980TIP3    H124575   3.897   4.558   8.180 -0.7704 -0.3108 -1.5213
  980TIP3    H224576   3.930   4.432   8.102  0.3609  0.0790 -1.6967
  981TIP3   OH224577   1.831   5.245   7.448 -0.4042 -0.1400  0.5302
  981TIP3    H124578   1.746   5.250   7.492 -0.4363 -0.1634  0.4716
  981TIP3    H224579   1.878   5.177   7.496 -0.9375 -1.1336 -0.3013
  982TIP3   OH224580   2.540   4.419   0.231  0.0055 -0.4373 -0.0011
  982TIP3    H124581   2.539   4.514   0.222  1.9014 -0.3063  0.7275
  982TIP3    H224582   2.514   4.402   0.321 -0.3553 -0.6300 -0.1369
  983TIP3   OH224583   4.923   1.646   0.183 -0.0937 -0.3656 -0.1401
  983TIP3    H124584   4.966   1.719   0.139  1.5328 -0.4255  1.2473
  983TIP3    H224585   4.920   1.577   0.117  2.2796 -0.4459 -0.2322
  984TIP3   OH224586   5.934   5.360   7.180  0.3586  0.4921  0.3297
  984TIP3    H124587   6.003   5.383   7.243  0.4472  0.2560  0.3166
  984TIP3    H224588   5.978   5.359   7.095 -0.1442  2.8352 -0.0501
  985TIP3   OH224589   1.792   5.285   8.263 -0.0315 -0.4969  0.0026
  985TIP3    H124590   1.802   5.347   8.335  1.8601 -2.1379  1.2561
  985TIP3    H224591   1.734   5.217   8.296 -0.4710 -0.4364 -0.6239
  986TIP3   OH224592   0.359   0.267   7.929  0.4234 -0.1829  0.0222
  986TIP3    H124593   0.404   0.197   7.882 -0.6287 -0.8345 -0.0476
  986TIP3    H224594   0.269   0.264   7.896 -0.0686  0.0524  1.2887
  987TIP3   OH224595   3.509   1.828   0.068  0.0515  0.1617 -0.3771
  987TIP3    H124596   3.502   1.823   0.163 -0.2571  0.9909 -0.3438
  987TIP3    H224597   3.471   1.913   0.046 -0.1735 -0.1582 -1.2686
  988TIP3   OH224598   0.499   4.825   1.252  0.5810  0.2370  0.1685
  988TIP3    H124599   0.443   4.755   1.218  0.8456  0.0029  0.2177
  988TIP3    H224600   0.588   4.791   1.244  0.6037 -0.2421  2.0543
  989TIP3   OH224601   0.863   3.084   8.268 -0.5873  0.0118 -0.2357
  989TIP3    H124602   0.842   3.148   8.336 -0.3193  0.4808 -0.5847
  989TIP3    H224603   0.885   3.004   8.316  1.7535  0.9366  0.3799
  990TIP3   OH224604   3.471   1.093   2.511  0.3924  0.1365 -0.0200
  990TIP3    H124605   3.391   1.052   2.478  0.7715 -0.7848  0.1918
  990TIP3    H224606   3.440   1.154   2.578 -0.0735 -1.1219  0.9619
  991TIP3   OH224607   2.814   1.949   7.814  0.1692 -0.0110  0.3508
  991TIP3    H124608   2.761   1.888   7.865 -0.8450 -0.4257 -1.1348
  991TIP3    H224609   2.900   1.908   7.809 -0.4578 -1.2716 -0.4926
  992TIP3   OH224610   2.556   4.464   2.525 -0.5356  0.0004 -0.1844
  992TIP3    H124611   2.475   4.449   2.476  1.7341 -0.6910 -4.1429
  992TIP3    H224612   2.564   4.387   2.582 -2.0101 -0.5466 -0.6668
  993TIP3   OH224613   6.721   1.741   7.264 -0.4557  0.2301 -0.2947
  993TIP3    H124614   6.690   1.765   7.350  0.6094 -0.4745  0.3175
  993TIP3    H224615   6.816   1.757   7.267 -0.4322  0.3692 -1.3825
  994TIP3   OH224616   1.890   5.732   6.470 -0.8468 -0.2057  0.1465
  994TIP3    H124617   1.921   5.773   6.389  0.7282 -0.0789  0.7743
  994TIP3    H224618   1.968   5.693   6.508 -1.3366  0.6366  2.1397
  995TIP3   OH224619   2.450   6.838   7.470  0.4831 -0.2559  0.3051
  995TIP3    H124620   2.368   6.811   7.430  1.2522  0.6870 -2.1034
  995TIP3    H224621   2.509   6.764   7.457  0.8533  0.2084 -0.7399
  996TIP3   OH224622   2.627   4.075   6.688  0.1501 -0.2884 -0.1284
  996TIP3    H124623   2.634   4.150   6.629 -2.7233 -0.2480 -0.5300
  996TIP3    H224624   2.577   4.010   6.640  0.3513 -1.4725  1.1791
  997TIP3   OH224625   4.234   4.691   0.367 -0.2441 -0.1638 -0.3024
  997TIP3    H124626   4.304   4.631   0.392  0.1583 -0.5093 -2.1228
  997TIP3    H224627   4.154   4.640   0.376  0.1534 -1.3278 -2.6041
  998TIP3   OH224628   3.407   5.617   7.927  0.2581  0.2525 -0.6065
  998TIP3    H124629   3.359   5.535   7.924  1.0371 -0.2790  0.6049
  998TIP3    H224630   3.340   5.684   7.940 -0.2050 -0.4960  1.2264
  999TIP3   OH224631   4.889   2.704   7.363  0.1249 -0.4193  0.6610
  999TIP3    H124632   4.977   2.713   7.400 -0.5326  1.6708  1.9048
  999TIP3    H224633   4.873   2.609   7.362  2.0617 -0.7975  1.1563
 1000TIP3   OH224634   3.311   1.725   1.925  0.0074 -0.5794  0.4073
 1000TIP3    H124635   3.297   1.673   1.846 -0.7052  0.5753 -0.2523
 1000TIP3    H224636   3.265   1.677   1.994 -1.5672 -0.2859 -0.4041
 1001TIP3   OH224637   6.384   1.784   6.407  0.7858 -0.1889 -0.7969
 1001TIP3    H124638   6.471   1.800   6.369  1.4308  1.2451  1.0991
 1001TIP3    H224639   6.392   1.699   6.450  0.3762 -1.3185 -2.8236
 1002TIP3   OH224640   2.047   2.426   7.837  0.2808  0.6583 -0.0743
 1002TIP3    H124641   2.135   2.452   7.811 -0.2891  1.7369 -0.9861
 1002TIP3    H224642   2.040   2.455   7.929  0.7443  0.9021 -0.1145
 1003TIP3   OH224643   5.902   2.147   1.979 -0.0779 -0.7780  0.1396
 1003TIP3    H124644   5.887   2.059   1.944  0.8974 -1.2817  0.9463
 1003TIP3    H224645   5.835   2.157   2.047  0.6411 -1.4479  0.9774
 1004TIP3   OH224646   0.695   5.308   6.465 -0.7336 -0.1586  0.6201
 1004TIP3    H124647   0.677   5.396   6.499 -1.6031  0.0262 -0.2531
 1004TIP3    H224648   0.630   5.252   6.507 -0.8622 -0.1892  0.3832
 1005TIP3   OH224649   3.183   3.286   2.225 -0.1119 -0.6376  0.0327
 1005TIP3    H124650   3.184   3.370   2.179 -1.1627 -1.0189 -0.7283
 1005TIP3    H224651   3.130   3.302   2.303  0.7792 -0.2654  0.5716
 1006TIP3   OH224652   5.136   1.153   7.300  0.9424  0.3003  0.0798
 1006TIP3    H124653   5.175   1.240   7.313  0.2651  0.8912 -1.5513
 1006TIP3    H224654   5.045   1.163   7.327  0.6590  0.3465 -0.8362
 1007TIP3   OH224655   2.526   4.096   7.577 -0.8052  0.2157  0.3768
 1007TIP3    H124656   2.450   4.040   7.594 -0.2414 -0.6368  0.1511
 1007TIP3    H224657   2.501   4.182   7.611 -2.0848  0.0887 -0.2033
 1008TIP3   OH224658   2.992   2.898   8.022 -0.2734  0.0291 -0.2921
 1008TIP3    H124659   2.924   2.836   8.049 -0.2076  0.8581  2.0541
 1008TIP3    H224660   3.048   2.907   8.100  0.2176  2.3528 -0.8459
 1009TIP3   OH224661   5.417   0.552   0.236 -0.4566 -0.0458  0.4017
 1009TIP3    H124662   5.509   0.544   0.213 -0.7795  0.3021 -1.1099
 1009TIP3    H224663   5.388   0.462   0.252 -0.4067 -0.4209 -1.4553
 1010TIP3   OH224664   2.755   2.273   8.448  0.2009  0.6598 -0.1697
 1010TIP3    H124665   2.749   2.182   8.420  0.5450  0.4128  0.5578
 1010TIP3    H224666   2.831   2.277   8.506  0.3029  1.4493 -0.3331
 1011TIP3   OH224667   1.314   4.962   1.733 -0.5212 -0.0835 -0.1621
 1011TIP3    H124668   1.285   5.036   1.788 -0.0540 -1.1608  1.6250
 1011TIP3    H224669   1.400   4.940   1.768 -0.7718 -1.6489 -0.4897
 1012TIP3   OH224670   2.627   1.968   7.353 -0.5104 -0.1655  0.5911
 1012TIP3    H124671   2.645   2.028   7.281 -1.2705 -1.4897 -0.7699
 1012TIP3    H224672   2.713   1.937   7.381 -0.1183  1.4445  1.2433
 1013TIP3   OH224673   2.792   3.835   8.052  0.1673  0.4566  0.1813
 1013TIP3    H124674   2.845   3.911   8.077 -0.0845  0.5317  0.4881
 1013TIP3    H224675   2.794   3.835   7.956  0.7281  0.4532  0.1889
 1014TIP3   OH224676   5.363   4.488   8.268  0.1516  0.0837 -0.6327
 1014TIP3    H124677   5.401   4.439   8.342  2.2608  1.7185 -0.5509
 1014TIP3    H224678   5.270   4.496   8.291  0.4582 -0.7283  1.1116
 1015TIP3   OH224679   1.267   5.139   7.573 -0.0252  0.0747 -0.3271
 1015TIP3    H124680   1.278   5.111   7.482 -1.4496  1.1275 -0.8554
 1015TIP3    H224681   1.216   5.220   7.567  1.9877  1.5737  1.2687
 1016TIP3   OH224682   1.835   6.528   7.222  0.8165 -0.4117 -0.1253
 1016TIP3    H124683   1.928   6.507   7.231  1.4016  2.2977  1.5395
 1016TIP3    H224684   1.834   6.611   7.174 -0.5008  0.6788  1.6295
 1017TIP3   OH224685   3.634   5.556   7.333 -0.0330 -0.0025  0.8862
 1017TIP3    H124686   3.701   5.595   7.276 -1.3811  1.9458  0.5571
 1017TIP3    H224687   3.679   5.542   7.417  1.4031 -0.9742  0.0081
 1018TIP3   OH224688   6.700   1.513   2.346  0.7887 -0.0765 -0.2273
 1018TIP3    H124689   6.753   1.583   2.308 -1.8205  0.9489 -2.3541
 1018TIP3    H224690   6.640   1.559   2.406 -0.9891 -0.3875 -1.6874
 1019TIP3   OH224691   2.160   2.698   7.136 -0.0798 -0.0112  0.2899
 1019TIP3    H124692   2.228   2.680   7.071 -1.3499  0.1808 -1.1655
 1019TIP3    H224693   2.177   2.788   7.163 -0.1145  0.2594 -0.5476
 1020TIP3   OH224694   3.536   0.585   1.376  0.0743  0.0853  0.1190
 1020TIP3    H124695   3.542   0.680   1.377 -1.1190  0.1723  0.2695
 1020TIP3    H224696   3.443   0.567   1.371  0.2773 -1.0841  0.2720
 1021TIP3   OH224697   3.687   4.486   1.480 -0.2781 -0.1395  0.1368
 1021TIP3    H124698   3.755   4.420   1.474  0.7532  0.9841 -1.7525
 1021TIP3    H224699   3.726   4.557   1.531 -0.5966 -0.1283  0.3678
 1022TIP3   OH224700   0.290   0.294   8.440 -0.3213 -0.4980 -0.0120
 1022TIP3    H124701   0.230   0.335   8.503 -0.9854 -0.5661 -0.5856
 1022TIP3    H224702   0.339   0.366   8.402 -1.9221 -0.1067 -1.4735
 1023TIP3   OH224703   1.890   3.771   0.707  0.0026  0.3769 -0.3097
 1023TIP3    H124704   1.885   3.856   0.662 -0.1118  0.1988 -0.6368
 1023TIP3    H224705   1.868   3.791   0.798  0.6476  0.8159 -0.2423
 1024TIP3   OH224706   0.499   5.626   2.053 -0.0109 -0.0334  0.0860
 1024TIP3    H124707   0.477   5.701   2.109 -0.2481 -0.8994  1.1702
 1024TIP3    H224708   0.571   5.583   2.097  0.0975 -0.4749 -0.5158
 1025TIP3   OH224709   1.106   2.983   1.297  0.1292  0.0166 -0.2824
 1025TIP3    H124710   1.154   3.003   1.216 -0.0091  0.2965 -0.2969
 1025TIP3    H224711   1.057   3.063   1.316 -1.8267 -0.8579 -1.3133
 1026TIP3   OH224712   2.852   5.766   0.896 -0.6794 -0.4442  0.3009
 1026TIP3    H124713   2.895   5.705   0.837  0.3789 -0.4033  0.9943
 1026TIP3    H224714   2.915   5.838   0.907 -0.9182 -0.3709  1.3307
 1027TIP3   OH224715   5.954   5.177   1.150 -0.0911 -0.0213  0.0745
 1027TIP3    H124716   6.048   5.159   1.151  0.1497  1.1294  0.3914
 1027TIP3    H224717   5.913   5.095   1.178  0.7874 -0.6742 -0.5251
 1028TIP3   OH224718   5.674   4.273   0.879 -0.6501  0.3072  0.1082
 1028TIP3    H124719   5.591   4.282   0.832 -0.9159  0.2062  0.5551
 1028TIP3    H224720   5.716   4.197   0.840 -0.7704  0.3549 -0.1154
 1029TIP3   OH224721   5.114   0.522   1.676  0.0714  0.0588  0.3837
 1029TIP3    H124722   5.090   0.595   1.734  1.4745  1.1637 -0.3472
 1029TIP3    H224723   5.050   0.526   1.605  0.7578  1.3185 -0.2107
 1030TIP3   OH224724   4.353   0.223   0.025  0.2318  0.1100  0.0515
 1030TIP3    H124725   4.314   0.155   0.079  0.5740 -0.0586  0.0919
 1030TIP3    H224726   4.446   0.201   0.022  0.7328  1.6879  1.7899
 1031TIP3   OH224727   1.754   3.440   6.711 -0.3346 -0.5000 -0.3655
 1031TIP3    H124728   1.754   3.496   6.788 -0.4990 -0.9551 -0.0318
 1031TIP3    H224729   1.756   3.501   6.637  0.3570 -0.0778 -0.0004
 1032TIP3   OH224730   4.205   2.706   1.429  0.4028  0.5604 -0.1181
 1032TIP3    H124731   4.154   2.648   1.372  1.0671 -0.8538  0.6783
 1032TIP3    H224732   4.187   2.794   1.396  1.2119 -0.2170 -2.9028
 1033TIP3   OH224733   4.052   3.452   1.014  0.3470 -0.3328  0.2027
 1033TIP3    H124734   4.051   3.503   0.934  0.8682  0.2638  0.5666
 1033TIP3    H224735   4.099   3.507   1.077 -0.7685 -0.4157  1.1559
 1034TIP3   OH224736   3.085   4.186   0.270 -0.1040 -0.1681 -0.1542
 1034TIP3    H124737   3.077   4.092   0.286  0.3460 -0.2981 -0.6818
 1034TIP3    H224738   3.168   4.196   0.223  0.5161  0.6395  1.0617
 1035TIP3   OH224739   4.190   5.923   1.024 -0.3838 -0.4858 -0.1183
 1035TIP3    H124740   4.263   5.887   1.074 -1.9689  0.7124  3.4029
 1035TIP3    H224741   4.220   6.011   0.998  0.2361 -0.8953 -0.8381
 1036TIP3   OH224742   4.646   6.115   8.286  0.2140 -0.4433 -0.3253
 1036TIP3    H124743   4.720   6.128   8.346 -0.6544  0.2959  0.6206
 1036TIP3    H224744   4.612   6.203   8.271  1.6483 -0.3205 -3.5977
 1037TIP3   OH224745   5.627   1.642   8.024 -0.1622 -0.3574 -0.0493
 1037TIP3    H124746   5.677   1.567   7.991  0.0529  0.0434 -0.6747
 1037TIP3    H224747   5.536   1.613   8.022  0.0682 -1.3335  1.7435
 1038TIP3   OH224748   2.064   0.320   1.404  0.8059 -0.2860 -0.2143
 1038TIP3    H124749   2.090   0.324   1.311  2.4983  2.0975  0.2608
 1038TIP3    H224750   1.968   0.322   1.402  0.7725 -1.3113 -1.9128
 1039TIP3   OH224751   2.694   1.096   6.953 -0.2152  0.0829  0.2174
 1039TIP3    H124752   2.671   1.083   6.861 -0.0443  0.7733  0.0706
 1039TIP3    H224753   2.767   1.035   6.968 -0.0777  0.1466 -0.1721
 1040TIP3   OH224754   4.585   2.613   0.384  0.1822  0.8872 -0.2036
 1040TIP3    H124755   4.502   2.615   0.431  1.2113  1.0885  1.7196
 1040TIP3    H224756   4.586   2.694   0.333  0.0492  1.9355  1.3811
 1041TIP3   OH224757   2.974   1.135   7.814 -0.0568  0.2991 -0.3024
 1041TIP3    H124758   2.980   1.221   7.856 -0.1945 -0.0758  0.5010
 1041TIP3    H224759   3.055   1.127   7.764 -1.0773  1.9146 -2.4210
 1042TIP3   OH224760   1.125   2.751   7.191  0.2757 -0.0542  0.2826
 1042TIP3    H124761   1.145   2.686   7.124  1.6565 -3.1031  3.3558
 1042TIP3    H224762   1.031   2.767   7.181  0.2740 -1.0378 -1.7932
 1043TIP3   OH224763   4.253   2.690   7.752 -0.0399  0.1332  0.0143
 1043TIP3    H124764   4.208   2.669   7.834 -1.5590  1.1077 -0.5332
 1043TIP3    H224765   4.188   2.673   7.684  1.2318 -0.7471 -1.0268
 1044TIP3   OH224766   5.231   0.436   0.485  0.6183  0.3389  0.7912
 1044TIP3    H124767   5.246   0.390   0.568 -2.5918  3.3427  3.4094
 1044TIP3    H224768   5.297   0.505   0.484  2.6417 -1.4735 -0.9232
 1045TIP3   OH224769   1.348   0.157   1.649 -0.0848 -0.3826  0.2148
 1045TIP3    H124770   1.364   0.102   1.726  0.3392  1.3177  1.4013
 1045TIP3    H224771   1.298   0.231   1.683 -0.1089  0.2927 -1.2134
 1046TIP3   OH224772   0.343   1.580   7.762  0.2675 -0.3315 -0.2153
 1046TIP3    H124773   0.339   1.659   7.709  0.7738  0.8033  1.3462
 1046TIP3    H224774   0.251   1.554   7.772  0.0496  0.3523 -0.3546
 1047TIP3   OH224775   0.226   6.554   1.513 -0.4769 -0.8043 -0.0174
 1047TIP3    H124776   0.221   6.459   1.517  0.4852 -0.9513 -1.4954
 1047TIP3    H224777   0.145   6.580   1.468 -0.7381 -0.9119  0.3827
 1048TIP3   OH224778   3.367   6.077   0.618  0.0744 -0.5352 -0.0687
 1048TIP3    H124779   3.289   6.076   0.563  1.8779  0.5295 -2.8573
 1048TIP3    H224780   3.357   6.156   0.671  0.0622  0.6548 -1.7638
 1049TIP3   OH224781   0.540   3.868   7.892  0.8887 -0.2658 -0.2832
 1049TIP3    H124782   0.589   3.926   7.834 -2.0062 -0.3423 -3.0737
 1049TIP3    H224783   0.470   3.923   7.928 -0.2666 -1.3435 -0.8030
 1050TIP3   OH224784   2.586   4.444   1.259 -0.0716 -0.3472 -0.1434
 1050TIP3    H124785   2.526   4.479   1.325  0.7163 -1.4304  1.2164
 1050TIP3    H224786   2.565   4.350   1.257 -0.7308 -0.1922 -2.1674
 1051TIP3   OH224787   4.820   3.100   1.441  0.4403 -0.2440  0.2912
 1051TIP3    H124788   4.790   3.013   1.416 -0.5660  0.4433 -1.0473
 1051TIP3    H224789   4.759   3.129   1.508 -0.1708  0.0155 -0.3653
 1052TIP3   OH224790   1.775   6.161   1.398 -0.5143 -0.2281  0.0431
 1052TIP3    H124791   1.812   6.174   1.311  1.7034  0.2541  1.0130
 1052TIP3    H224792   1.830   6.212   1.457 -0.8058 -1.9920  1.9897
 1053TIP3   OH224793   1.102   1.592   0.799  0.2639 -0.1453  0.0476
 1053TIP3    H124794   1.053   1.509   0.796 -1.1335  0.6608 -0.6378
 1053TIP3    H224795   1.070   1.642   0.724  2.8642  0.0964 -1.0061
 1054TIP3   OH224796   6.898   1.422   6.926  0.1956  0.0880  0.1257
 1054TIP3    H124797   6.842   1.377   6.990 -1.5496 -1.0727 -2.0764
 1054TIP3    H224798   6.986   1.416   6.964 -0.7412 -0.4569  2.4334
 1055TIP3   OH224799   6.839   3.733   0.945 -0.3585 -0.5976 -0.1169
 1055TIP3    H124800   6.777   3.737   1.017  1.0386 -2.1954  1.2609
 1055TIP3    H224801   6.925   3.730   0.987  0.6383  0.5560 -1.9272
 1056TIP3   OH224802   6.425   0.344   0.878 -0.3229  0.1240  0.5118
 1056TIP3    H124803   6.414   0.439   0.872  0.4755  0.1936  0.0691
 1056TIP3    H224804   6.405   0.323   0.970 -0.1520  0.7615  0.6959
 1057TIP3   OH224805   2.482   3.710   7.612  0.7125 -0.3146 -0.1504
 1057TIP3    H124806   2.480   3.758   7.529  3.0732 -3.0040 -1.9302
 1057TIP3    H224807   2.532   3.767   7.671  0.2324  1.0139 -0.9685
 1058TIP3   OH224808   1.457   5.458   1.850 -0.0474  0.6189  0.3427
 1058TIP3    H124809   1.539   5.434   1.893  0.3673 -1.0272 -1.2245
 1058TIP3    H224810   1.395   5.389   1.875 -0.5033  0.9828  0.2397
 1059TIP3   OH224811   5.874   4.324   7.260  0.2467 -0.4068 -0.3597
 1059TIP3    H124812   5.823   4.251   7.224  0.2101 -0.6304  0.1379
 1059TIP3    H224813   5.835   4.402   7.220 -0.4454 -0.5841 -0.0434
 1060TIP3   OH224814   3.682   0.141   1.210  0.2096 -0.4988  0.3839
 1060TIP3    H124815   3.758   0.101   1.168  0.1809 -1.8779  1.5953
 1060TIP3    H224816   3.608   0.119   1.153  0.0788 -2.8478  1.3488
 1061TIP3   OH224817   2.575   3.558   7.334 -0.0710  0.0153 -0.0819
 1061TIP3    H124818   2.535   3.473   7.315 -0.0417 -0.0168  0.0018
 1061TIP3    H224819   2.514   3.622   7.296  0.4865 -0.0822 -1.1797
 1062TIP3   OH224820   1.197   6.934   2.620 -0.0961  0.1160  0.1166
 1062TIP3    H124821   1.282   6.897   2.640  0.1699  1.0114  0.7085
 1062TIP3    H224822   1.139   6.858   2.608  0.1639 -0.5072  2.4060
 1063TIP3   OH224823   2.478   4.270   6.098 -0.1465  0.3165  0.1136
 1063TIP3    H124824   2.513   4.208   6.162 -0.6131  0.5233  0.5726
 1063TIP3    H224825   2.396   4.231   6.068  1.5146 -1.3616 -2.7392
 1064TIP3   OH224826   1.994   3.116   0.229 -0.6224 -0.2814  0.4285
 1064TIP3    H124827   1.996   3.211   0.230 -0.3480 -0.1952  3.9048
 1064TIP3    H224828   1.910   3.094   0.190  0.0192  1.2464 -2.0296
 1065TIP3   OH224829   4.971   5.175   7.222  0.4046  0.1542  0.1820
 1065TIP3    H124830   5.062   5.185   7.195  0.0706  2.3150 -0.3821
 1065TIP3    H224831   4.922   5.172   7.139 -0.0348 -1.3848  0.4710
 1066TIP3   OH224832   5.219   5.247   8.094  0.0580 -0.3076 -0.9415
 1066TIP3    H124833   5.278   5.180   8.060  1.6101  0.8515 -0.6237
 1066TIP3    H224834   5.277   5.315   8.129 -1.4172 -0.3804  1.9766
 1067TIP3   OH224835   5.897   0.413   1.987 -0.5757  0.5508  0.0270
 1067TIP3    H124836   5.853   0.487   2.028  0.7593  1.7546 -0.6654
 1067TIP3    H224837   5.989   0.437   1.984 -0.1010 -1.1272 -0.2501
 1068TIP3   OH224838   2.280   0.862   1.903 -0.2964  0.1780  0.0495
 1068TIP3    H124839   2.319   0.842   1.988  1.3520  0.0908 -0.6923
 1068TIP3    H224840   2.218   0.791   1.889  1.2289 -1.2213  0.0876
 1069TIP3   OH224841   0.797   4.488   1.062 -0.0053  0.6162  0.3545
 1069TIP3    H124842   0.794   4.446   1.148 -0.6820  1.8485  0.9567
 1069TIP3    H224843   0.873   4.448   1.019 -1.2771 -2.0704  0.4022
 1070TIP3   OH224844   1.441   1.332   2.083  0.5394  0.2766 -0.3073
 1070TIP3    H124845   1.376   1.331   2.013 -0.3219  0.7588  0.4624
 1070TIP3    H224846   1.433   1.419   2.122  1.6510  0.3466 -0.1831
 1071TIP3   OH224847   6.228   5.858   1.238 -0.1526 -0.2731 -0.1424
 1071TIP3    H124848   6.252   5.943   1.201  0.7679 -0.0682  0.8545
 1071TIP3    H224849   6.225   5.799   1.163  0.6023  0.3569 -0.6876
 1072TIP3   OH224850   2.445   0.365   7.813 -0.8609  0.5953 -0.2758
 1072TIP3    H124851   2.511   0.434   7.820 -1.8097  1.4975 -0.1111
 1072TIP3    H224852   2.380   0.400   7.752 -1.3345 -0.1692 -0.2221
 1073TIP3   OH224853   2.127   6.004   1.384  0.2891  0.1121 -0.2133
 1073TIP3    H124854   2.221   5.994   1.374  0.3409  1.3605 -1.3429
 1073TIP3    H224855   2.113   6.018   1.478  1.1456 -0.6608  0.0382
 1074TIP3   OH224856   6.761   5.185   6.765  0.1840  0.1791  0.1435
 1074TIP3    H124857   6.781   5.196   6.672 -0.3462  0.5876  0.0697
 1074TIP3    H224858   6.727   5.271   6.792 -0.2964 -0.1293  0.5454
 1075TIP3   OH224859   6.101   2.272   1.368 -0.0874  0.2903 -0.0444
 1075TIP3    H124860   6.006   2.283   1.363  0.0130  1.7441  0.5333
 1075TIP3    H224861   6.113   2.208   1.438 -0.6331  0.6366  0.3812
 1076TIP3   OH224862   0.751   2.229   7.544 -0.3667  0.3595 -0.0938
 1076TIP3    H124863   0.710   2.143   7.536  0.9379 -0.1482 -2.0167
 1076TIP3    H224864   0.840   2.210   7.575  0.5932  0.7582 -2.4093
 1077TIP3   OH224865   5.617   4.585   1.260  0.8237  0.1050 -0.5448
 1077TIP3    H124866   5.566   4.540   1.192 -0.3545 -1.5939  1.3484
 1077TIP3    H224867   5.572   4.669   1.272 -3.6045 -2.2809  2.8921
 1078TIP3   OH224868   0.865   5.260   7.782  0.2647  1.1125 -0.1377
 1078TIP3    H124869   0.947   5.295   7.746  0.2315 -1.4717 -3.1931
 1078TIP3    H224870   0.864   5.168   7.754 -2.5469  0.3851  1.9509
 1079TIP3   OH224871   2.320   1.090   7.603  0.0619 -0.7318 -0.1497
 1079TIP3    H124872   2.281   1.020   7.655 -0.3843  0.0988  0.6683
 1079TIP3    H224873   2.283   1.170   7.640  1.1239 -0.0214 -0.5784
 1080TIP3   OH224874   3.949   4.894   0.828 -0.4803 -0.0657  0.1702
 1080TIP3    H124875   3.960   4.933   0.742  0.1115 -0.9482 -0.1611
 1080TIP3    H224876   3.867   4.932   0.861 -1.6418 -1.0079 -1.4849
 1081TIP3   OH224877   1.922   0.582   0.143 -0.1899 -0.5115 -0.0498
 1081TIP3    H124878   1.932   0.673   0.171 -1.2078 -0.3594 -0.1298
 1081TIP3    H224879   1.956   0.580   0.054 -1.5484  0.1519 -0.6109
 1082TIP3   OH224880   3.142   3.554   1.959 -0.6585 -0.1195 -0.3852
 1082TIP3    H124881   3.219   3.588   2.005 -1.8118  0.3446  1.2536
 1082TIP3    H224882   3.157   3.578   1.867 -0.2209  2.5752  0.3266
 1083TIP3   OH224883   4.290   2.179   7.340 -0.0810  0.2228 -0.2642
 1083TIP3    H124884   4.219   2.171   7.277 -0.0530  0.0085 -0.2701
 1083TIP3    H224885   4.268   2.116   7.409  0.7033 -0.7135 -0.8443
 1084TIP3   OH224886   3.556   0.017   7.314 -0.4299 -0.1215  0.1964
 1084TIP3    H124887   3.537   0.061   7.231  0.5501 -0.6122 -0.3125
 1084TIP3    H224888   3.597  -0.066   7.288  0.0691 -0.1928  1.1652
 1085TIP3   OH224889   2.419   0.009   7.696 -0.2797  0.3352  0.3779
 1085TIP3    H124890   2.403   0.102   7.675  1.8225  0.8250  0.7069
 1085TIP3    H224891   2.451  -0.028   7.613  3.7390  1.2125  1.2941
 1086TIP3   OH224892   1.834   6.880   7.937 -0.1023 -0.6591  0.3861
 1086TIP3    H124893   1.850   6.823   8.012 -1.2512 -0.5503  0.7197
 1086TIP3    H224894   1.755   6.846   7.896  0.0579 -0.2266 -0.3156
 1087TIP3   OH224895   6.332   0.947   1.939  0.1842 -0.1122 -0.2115
 1087TIP3    H124896   6.328   0.864   1.987  0.7352  0.4227  0.7753
 1087TIP3    H224897   6.256   0.996   1.969  0.7703  0.3998  0.4646
 1088TIP3   OH224898   1.599   2.642   6.120  0.1077  0.7944 -0.0857
 1088TIP3    H124899   1.553   2.559   6.121  0.1811  0.7570  0.1827
 1088TIP3    H224900   1.537   2.704   6.159  0.4350  0.6627  0.6589
 1089TIP3   OH224901   5.579   4.449   7.623 -0.4918 -0.1375  0.0669
 1089TIP3    H124902   5.651   4.389   7.643  0.5717  1.0672  0.0259
 1089TIP3    H224903   5.622   4.521   7.575 -2.0787 -0.4342 -1.9378
 1090TIP3   OH224904   3.913   0.267   1.424  0.2960  0.3583 -0.1660
 1090TIP3    H124905   3.938   0.295   1.336 -0.0312  0.5849 -0.1895
 1090TIP3    H224906   3.995   0.237   1.464  0.4474  0.2696 -0.5406
 1091TIP3   OH224907   5.167   2.494   1.823 -0.4048 -0.2469 -0.1265
 1091TIP3    H124908   5.222   2.534   1.890 -1.7019 -0.2558  0.9897
 1091TIP3    H224909   5.209   2.516   1.740  0.3732  1.1327  0.6056
 1092TIP3   OH224910   3.522   6.865   0.674  0.1505  0.1239 -0.6778
 1092TIP3    H124911   3.595   6.811   0.644 -0.9673 -1.4691 -0.6535
 1092TIP3    H224912   3.563   6.940   0.718  1.7728  0.2897 -2.3525
 1093TIP3   OH224913   0.003   5.387   7.734  0.1387 -0.1890  0.3002
 1093TIP3    H124914   0.073   5.444   7.765  0.5136 -0.0771 -0.7099
 1093TIP3    H224915  -0.049   5.443   7.676  0.0076 -0.6357 -0.0195
 1094TIP3   OH224916   2.461   5.368   0.863  0.0768  0.1803 -0.4772
 1094TIP3    H124917   2.551   5.335   0.863 -0.0504 -0.2033  0.4742
 1094TIP3    H224918   2.409   5.296   0.827  0.2408  0.7341 -1.8955
 1095TIP3   OH224919   0.751   2.611   6.907 -0.1216 -0.2998  0.0657
 1095TIP3    H124920   0.780   2.699   6.930  0.0157 -0.3440  0.0602
 1095TIP3    H224921   0.688   2.588   6.976  2.4784 -1.6223  2.2447
 1096TIP3   OH224922   4.222   0.891   0.659  0.3540  0.0581  0.1200
 1096TIP3    H124923   4.132   0.898   0.626 -0.1303 -1.5455  0.9575
 1096TIP3    H224924   4.264   0.828   0.601  0.1583 -1.0787  1.1552
 1097TIP3   OH224925   2.379   2.547   1.328 -0.4362 -0.2813  0.8013
 1097TIP3    H124926   2.388   2.462   1.284  0.6675  0.9149 -1.4492
 1097TIP3    H224927   2.299   2.584   1.293  1.5800  1.6557 -2.2216
 1098TIP3   OH224928   3.814   3.971   7.334 -0.3939  0.2928  0.3972
 1098TIP3    H124929   3.783   3.906   7.271  0.7087  0.3626 -0.2569
 1098TIP3    H224930   3.830   3.921   7.414  1.9800 -0.6265 -0.5545
 1099TIP3   OH224931   3.845   1.936   6.840 -0.9506  0.1275  0.5268
 1099TIP3    H124932   3.792   1.950   6.762  0.0269  0.5304 -0.0802
 1099TIP3    H224933   3.913   1.875   6.813 -0.4071  0.5238  0.9726
 1100TIP3   OH224934   3.137   3.760   7.804 -0.2115  0.1165  0.6332
 1100TIP3    H124935   3.102   3.783   7.890 -1.7566  0.7203 -0.1238
 1100TIP3    H224936   3.147   3.844   7.758 -0.6684 -0.2847 -0.2341
 1101TIP3   OH224937   3.852   4.575   1.682 -0.0165  0.0710  0.0142
 1101TIP3    H124938   3.931   4.568   1.629  0.1585  0.3146  0.2430
 1101TIP3    H224939   3.862   4.510   1.751  0.0649  0.2218  0.1453
 1102TIP3   OH224940   5.484   6.896   0.277  0.1688  0.4433 -0.9177
 1102TIP3    H124941   5.469   6.888   0.372  2.6658  0.4327 -0.4665
 1102TIP3    H224942   5.406   6.858   0.238 -0.3307 -0.8259  1.1506
 1103TIP3   OH224943   3.362   0.381   1.059 -0.2696  0.3355  0.0827
 1103TIP3    H124944   3.362   0.476   1.044  1.0596  0.5231  1.0459
 1103TIP3    H224945   3.275   0.352   1.031 -0.1029  1.5603 -1.8607
 1104TIP3   OH224946   2.936   6.032   1.103 -0.3541 -0.2115 -0.5477
 1104TIP3    H124947   2.850   5.991   1.095  0.6255 -2.4258 -0.2959
 1104TIP3    H224948   2.967   6.040   1.012 -0.1198 -1.0561 -0.5529
 1105TIP3   OH224949   4.524   3.320   8.414  0.0145  0.1235 -0.3258
 1105TIP3    H124950   4.516   3.415   8.406 -0.4075  0.0499 -0.8960
 1105TIP3    H224951   4.614   3.301   8.388 -0.0857  0.3105 -0.8192
 1106TIP3   OH224952   1.306   2.650   1.877 -0.0732  0.3760  0.0277
 1106TIP3    H124953   1.211   2.651   1.891 -0.2460 -1.4567 -0.6568
 1106TIP3    H224954   1.316   2.649   1.782  0.7795  3.4223 -0.0077
 1107TIP3   OH224955   3.512   4.202   2.649  0.3260  0.7627 -0.3544
 1107TIP3    H124956   3.432   4.239   2.686  0.5207  1.1823 -0.3488
 1107TIP3    H224957   3.481   4.146   2.577  0.0085  0.6657 -0.1447
 1108TIP3   OH224958   4.698   4.362   6.892 -0.1886  0.1813 -0.1384
 1108TIP3    H124959   4.677   4.306   6.967  0.4948 -1.8063 -1.3472
 1108TIP3    H224960   4.619   4.361   6.838 -0.3455  0.7967  0.0808
 1109TIP3   OH224961   5.034   3.501   2.686 -1.0821 -0.3267 -0.1633
 1109TIP3    H124962   4.976   3.548   2.627 -2.0937  2.2479  2.6060
 1109TIP3    H224963   4.975   3.455   2.746 -0.1459 -1.2874  0.0603
 1110TIP3   OH224964   3.740   4.987   0.995 -0.1254 -0.0337 -0.1913
 1110TIP3    H124965   3.733   5.082   0.989  1.3482  0.0283 -1.3771
 1110TIP3    H224966   3.667   4.961   1.051 -1.5156  1.6283 -1.1677
 1111TIP3   OH224967   0.829   4.717   7.658  0.1664 -0.3534  0.7098
 1111TIP3    H124968   0.870   4.803   7.650  3.8969 -1.9230  0.9716
 1111TIP3    H224969   0.831   4.681   7.570 -0.7827 -0.4805  0.7235
 1112TIP3   OH224970   5.347   2.355   2.430 -0.5005 -0.1526 -0.7568
 1112TIP3    H124971   5.277   2.403   2.476  0.1410  0.0095  0.0710
 1112TIP3    H224972   5.348   2.269   2.472  0.7953  0.3423  0.3132
 1113TIP3   OH224973   6.078   2.609   7.818 -0.0802  0.4365 -0.5994
 1113TIP3    H124974   5.989   2.642   7.808  0.3176  1.2080 -1.9540
 1113TIP3    H224975   6.095   2.611   7.912 -1.3267  0.7095 -0.3668
 1114TIP3   OH224976   5.069   6.082   6.989  0.0882  0.3612 -0.0975
 1114TIP3    H124977   5.081   6.058   7.081  1.4561  1.6224  0.0948
 1114TIP3    H224978   4.984   6.127   6.986  0.5670  1.3740  0.8062
 1115TIP3   OH224979   1.616   0.715   0.156  0.0847 -0.2206  0.7943
 1115TIP3    H124980   1.666   0.743   0.079  0.3639  0.5312  1.2325
 1115TIP3    H224981   1.598   0.622   0.141  1.7893 -0.5646  0.7082
 1116TIP3   OH224982   6.469   2.039   1.438 -0.3432  0.0001 -0.3370
 1116TIP3    H124983   6.434   1.992   1.363  1.3198 -2.1137  0.1314
 1116TIP3    H224984   6.508   2.118   1.401 -0.0521 -0.7335 -1.6402
 1117TIP3   OH224985   0.027   6.082   7.264  0.3507  0.1230  0.1847
 1117TIP3    H124986   0.061   6.047   7.346 -1.0514  2.2033  1.7668
 1117TIP3    H224987  -0.023   6.010   7.226  0.5670 -0.7143  1.4244
 1118TIP3   OH224988   1.837   4.537   0.177  0.0813  0.5310  0.7790
 1118TIP3    H124989   1.921   4.556   0.134  0.6956  0.4900  1.9344
 1118TIP3    H224990   1.776   4.525   0.104  0.9365  1.1663 -0.0798
 1119TIP3   OH224991   2.006   0.035   0.600 -0.1173 -0.4260  0.2798
 1119TIP3    H124992   2.072   0.018   0.534 -0.2897 -2.6512  0.5969
 1119TIP3    H224993   2.053   0.080   0.671  0.3935  0.5587 -0.6607
 1120TIP3   OH224994   0.083   2.096   0.977 -0.1262 -0.1297 -0.2553
 1120TIP3    H124995   0.052   2.019   1.024  1.4308 -0.8309 -0.3156
 1120TIP3    H224996   0.044   2.170   1.024 -0.9927 -0.9164  0.2961
 1121TIP3   OH224997   1.286   5.253   7.181 -0.2076 -0.8387  0.5502
 1121TIP3    H124998   1.381   5.241   7.179 -0.0869  0.1227 -0.2037
 1121TIP3    H224999   1.271   5.312   7.255 -0.3027 -1.5821  1.1346
 1122TIP3   OH225000   4.203   4.795   1.272  0.0487 -0.4420 -0.8244
 1122TIP3    H125001   4.238   4.734   1.207 -1.6814 -0.3260 -1.9365
 1122TIP3    H225002   4.260   4.871   1.267 -1.0692  0.3416 -3.6278
 1123TIP3   OH225003   0.882   3.659   7.384  0.3783 -0.0639 -0.0377
 1123TIP3    H125004   0.961   3.632   7.337  0.5354 -0.8837  0.6713
 1123TIP3    H225005   0.875   3.597   7.457  0.7311  1.7959  1.6538
 1124TIP3   OH225006   6.106   0.063   0.745 -0.4050  0.1254 -0.0839
 1124TIP3    H125007   6.115   0.064   0.649  1.4950  1.6008  0.0543
 1124TIP3    H225008   6.182   0.014   0.776 -0.5420  0.3974  0.7038
 1125TIP3   OH225009   1.033   6.732   7.919  0.4012 -0.0011 -0.8414
 1125TIP3    H125010   0.960   6.789   7.943 -0.8840 -1.3870 -1.3076
 1125TIP3    H225011   1.092   6.736   7.994 -0.9922 -0.1861  0.3097
 1126TIP3   OH225012   3.716   3.400   1.365 -0.2565 -0.1911 -0.1387
 1126TIP3    H125013   3.685   3.453   1.438 -0.8916 -0.3453 -0.2922
 1126TIP3    H225014   3.737   3.464   1.296 -0.5487 -0.1064 -0.1495
 1127TIP3   OH225015   5.245   5.177   7.159 -0.2287  0.5884  0.2191
 1127TIP3    H125016   5.273   5.145   7.245 -1.2655 -0.8792  0.0539
 1127TIP3    H225017   5.314   5.150   7.099  0.3344  1.3160  0.5366
 1128TIP3   OH225018   0.458   4.318   0.246  0.5356 -0.0756 -0.0449
 1128TIP3    H125019   0.417   4.231   0.247 -0.4531  0.3762 -0.1256
 1128TIP3    H225020   0.522   4.313   0.174  0.4912 -0.7326 -0.0499
 1129TIP3   OH225021   0.583   6.628   7.540 -0.3154  0.5700  0.2375
 1129TIP3    H125022   0.579   6.599   7.631 -0.7421 -2.1193 -0.5592
 1129TIP3    H225023   0.495   6.662   7.521 -0.2023  1.2064  0.8197
 1130TIP3   OH225024   3.921   3.945   1.573  0.1610  0.4584 -0.0916
 1130TIP3    H125025   3.925   4.040   1.585  2.2039  0.5391 -0.8984
 1130TIP3    H225026   3.867   3.933   1.495 -0.4892  0.9087  0.2768
 1131TIP3   OH225027   3.439   3.929   7.288 -0.1910 -0.4506  0.1957
 1131TIP3    H125028   3.512   3.878   7.254  1.1106  1.2607  0.2975
 1131TIP3    H225029   3.394   3.962   7.210  0.9266  0.9033  0.0988
 1132TIP3   OH225030   4.567   4.566   1.233  0.0243 -0.1420  0.5789
 1132TIP3    H125031   4.588   4.638   1.173 -0.0015 -1.4036 -0.9979
 1132TIP3    H225032   4.487   4.527   1.197  0.9369 -1.9692  0.4287
 1133TIP3   OH225033   1.591   3.147   7.228  0.0167  0.3460 -0.5064
 1133TIP3    H125034   1.683   3.172   7.219 -0.0218  0.7282  0.0630
 1133TIP3    H225035   1.574   3.153   7.322 -0.7297  0.8086 -0.6586
 1134TIP3   OH225036   0.026   6.870   1.095  0.1109 -0.5800 -0.5002
 1134TIP3    H125037  -0.015   6.952   1.067  1.7829  0.6082  0.3521
 1134TIP3    H225038   0.067   6.835   1.015 -1.2200 -1.0049 -1.0234
 1135TIP3   OH225039   6.025   1.607   8.350 -0.1168  0.3473  0.6250
 1135TIP3    H125040   6.036   1.640   8.261  1.5261  0.0947  0.7043
 1135TIP3    H225041   5.989   1.681   8.399 -1.2681  0.4148 -0.2689
 1136TIP3   OH225042   0.078   4.350   0.175 -0.0023  0.4376  0.3836
 1136TIP3    H125043   0.046   4.439   0.163 -1.1450 -0.0166 -0.0417
 1136TIP3    H225044   0.110   4.348   0.265  0.5072  1.4156  0.2342
 1137TIP3   OH225045   4.048   0.442   0.036 -0.4543 -0.3095 -0.0570
 1137TIP3    H125046   3.976   0.439   0.099 -0.4591 -0.2802 -0.0614
 1137TIP3    H225047   4.127   0.447   0.089 -0.4779  0.1073 -0.0549
 1138TIP3   OH225048   3.059   1.005   0.761 -1.0072  0.2002  0.5338
 1138TIP3    H125049   3.124   1.072   0.780 -1.6635  0.2718  2.7829
 1138TIP3    H225050   2.987   1.053   0.720 -0.0054  0.2309 -1.2915
 1139TIP3   OH225051   0.264   3.171   0.867 -0.1880 -0.4429 -0.4077
 1139TIP3    H125052   0.303   3.095   0.823  2.0208 -0.2380  1.0516
 1139TIP3    H225053   0.329   3.196   0.933 -1.6082  1.7095  0.2539
 1140TIP3   OH225054   6.554   2.087   7.932 -0.1811 -0.4205 -0.2256
 1140TIP3    H125055   6.609   2.155   7.971 -0.9127 -0.2394  0.5154
 1140TIP3    H225056   6.507   2.048   8.006  1.5921 -3.0439 -0.3560
 1141TIP3   OH225057   0.121   6.935   1.840 -0.0826  0.2345 -0.5327
 1141TIP3    H125058   0.161   6.981   1.767  1.3363  1.2258  0.7927
 1141TIP3    H225059   0.153   6.846   1.833 -0.8110  0.0464 -1.6909
 1142TIP3   OH225060   2.520   1.942   0.668 -0.0525 -0.0271 -0.1522
 1142TIP3    H125061   2.471   1.913   0.745 -0.2460  0.8077  0.0554
 1142TIP3    H225062   2.456   1.989   0.615 -0.0368 -1.0221 -1.0763
 1143TIP3   OH225063   1.876   3.822   7.208  0.2157  0.1824  0.9496
 1143TIP3    H125064   1.870   3.741   7.258 -0.1598 -0.4236 -0.0302
 1143TIP3    H225065   1.789   3.861   7.215 -0.0856 -0.3162  0.1256
 1144TIP3   OH225066   4.883   3.823   2.202 -0.2229  0.6237 -0.0212
 1144TIP3    H125067   4.845   3.847   2.286 -0.0738 -0.0283  0.2318
 1144TIP3    H225068   4.835   3.744   2.175  2.0639 -1.2768  1.1270
 1145TIP3   OH225069   5.022   0.714   0.425  0.4424 -0.0231  0.1939
 1145TIP3    H125070   4.971   0.650   0.375  0.1733 -0.1870  0.6741
 1145TIP3    H225071   5.037   0.672   0.510  0.8185  0.2897  0.2848
 1146TIP3   OH225072   3.660   4.986   0.338  0.0963  1.1872  0.3059
 1146TIP3    H125073   3.573   5.011   0.368 -0.1282  1.2809 -0.3910
 1146TIP3    H225074   3.655   4.992   0.242  0.8736  1.2214  0.2551
 1147TIP3   OH225075   0.160   0.556   7.240 -0.0992 -0.2004 -0.2600
 1147TIP3    H125076   0.213   0.494   7.291 -0.1769 -0.2560 -0.2471
 1147TIP3    H225077   0.071   0.521   7.245 -0.3340  0.4817  0.6435
 1148TIP3   OH225078   2.556   5.923   8.433 -0.0782  0.3629  0.7918
 1148TIP3    H125079   2.619   5.859   8.467  1.0043 -0.5955 -2.6409
 1148TIP3    H225080   2.605   6.004   8.426 -0.1560  0.4297  1.0054
 1149TIP3   OH225081   4.316   2.693   7.287 -0.1345 -0.1353 -0.1545
 1149TIP3    H125082   4.376   2.709   7.360 -1.2342  1.6630  0.4192
 1149TIP3    H225083   4.244   2.753   7.302  0.2092  1.2966 -3.4623
 1150TIP3   OH225084   5.990   0.475   7.987 -0.2948 -0.2047 -0.6459
 1150TIP3    H125085   6.007   0.384   7.960  1.1652  0.3465 -1.6928
 1150TIP3    H225086   6.025   0.481   8.075  2.3216  0.0466 -1.6088
 1151TIP3   OH225087   5.328   5.188   6.459 -0.2652 -0.3616  0.3115
 1151TIP3    H125088   5.306   5.213   6.548  1.3667  1.8968  0.1497
 1151TIP3    H225089   5.301   5.262   6.405  0.9668 -0.6542 -0.7561
 1152TIP3   OH225090   2.504   2.527   5.854  0.2035  0.0299  0.5038
 1152TIP3    H125091   2.523   2.470   5.780  0.0891 -1.2427  1.4139
 1152TIP3    H225092   2.584   2.528   5.905  0.1612  0.5914  0.5640
 1153TIP3   OH225093   4.648   2.745   7.216 -0.5843  0.2065 -0.3032
 1153TIP3    H125094   4.724   2.725   7.271 -1.3737  0.9006  1.1160
 1153TIP3    H225095   4.614   2.659   7.189 -0.8918 -0.2328  1.3616
 1154TIP3   OH225096   3.465   0.168   1.469  0.1857  0.1861  0.2636
 1154TIP3    H125097   3.433   0.252   1.502  1.6560  0.8158  0.1726
 1154TIP3    H225098   3.386   0.116   1.454 -0.6877  1.0693  1.5812
 1155TIP3   OH225099   4.086   2.479   8.467  0.4045  0.0477 -0.3970
 1155TIP3    H125100   4.111   2.436   8.548 -2.2242 -1.2128 -0.1549
 1155TIP3    H225101   4.023   2.546   8.493 -1.2779 -1.0605 -1.4080
 1156TIP3   OH225102   5.729   4.829   1.703 -0.6344 -0.1267  0.4002
 1156TIP3    H125103   5.695   4.914   1.731 -0.0418 -0.1600  1.2714
 1156TIP3    H225104   5.679   4.808   1.624 -0.1142  1.5018 -0.4367
 1157TIP3   OH225105   0.604   6.622   0.463 -0.6227 -0.4712 -0.2244
 1157TIP3    H125106   0.617   6.590   0.552  0.5094  2.9051  0.9629
 1157TIP3    H225107   0.639   6.552   0.407  1.2262 -1.5036  2.0610
 1158TIP3   OH225108   6.301   4.621   7.675  0.2690 -0.0176 -0.4403
 1158TIP3    H125109   6.375   4.561   7.664  0.5042  0.0979  0.4404
 1158TIP3    H225110   6.334   4.690   7.732 -0.6195 -0.1502  0.2532
 1159TIP3   OH225111   3.577   1.598   1.157  0.0508 -0.1844 -0.5990
 1159TIP3    H125112   3.500   1.628   1.108 -1.3355  0.2562  1.7015
 1159TIP3    H225113   3.541   1.561   1.238  2.2289 -0.8916  0.1100
 1160TIP3   OH225114   3.643   6.358   1.177 -0.4024 -0.2133  0.0198
 1160TIP3    H125115   3.652   6.306   1.097 -2.6691 -1.0674  0.2314
 1160TIP3    H225116   3.713   6.423   1.172  0.2248 -0.9708 -2.0699
 1161TIP3   OH225117   4.790   1.766   1.794  0.0039 -0.1331  0.2435
 1161TIP3    H125118   4.822   1.737   1.709 -0.1946  1.2651 -0.3420
 1161TIP3    H225119   4.824   1.702   1.857  2.3814  0.2760 -0.5628
 1162TIP3   OH225120   3.758   1.468   1.546 -0.7932 -0.2139  0.0974
 1162TIP3    H125121   3.748   1.373   1.557  0.2184 -0.2921  0.4054
 1162TIP3    H225122   3.686   1.492   1.488 -0.1111 -1.4476 -1.3398
 1163TIP3   OH225123   2.009   2.816   1.648 -0.6106  0.2488  0.0335
 1163TIP3    H125124   1.961   2.881   1.596 -0.6708  1.1406  1.1720
 1163TIP3    H225125   2.065   2.868   1.705  1.4000 -0.7430 -0.9046
 1164TIP3   OH225126   0.765   5.897   1.750 -0.4318 -0.2893  0.0210
 1164TIP3    H125127   0.731   5.978   1.786 -1.0346 -0.6244  0.2236
 1164TIP3    H225128   0.805   5.922   1.667  0.0629  0.3264  0.4293
 1165TIP3   OH225129   5.769   3.819   1.079 -0.0759 -0.7604  0.3195
 1165TIP3    H125130   5.836   3.842   1.145  0.6727  3.5407 -1.5635
 1165TIP3    H225131   5.686   3.833   1.124  0.3809 -0.6317  1.1490
 1166TIP3   OH225132   6.328   0.359   1.163  0.1337 -0.1487  0.6069
 1166TIP3    H125133   6.283   0.280   1.132 -0.3283  0.0390  0.7866
 1166TIP3    H225134   6.262   0.428   1.156  1.2254  0.7466 -1.8204
 1167TIP3   OH225135   2.806   6.265   1.472 -0.2266 -0.7523 -0.3499
 1167TIP3    H125136   2.888   6.236   1.431  0.6299  1.9469 -0.7958
 1167TIP3    H225137   2.834   6.308   1.553 -1.2126 -0.0755 -0.3504
 1168TIP3   OH225138   5.731   1.653   0.606 -0.1656 -0.0253 -0.0108
 1168TIP3    H125139   5.745   1.610   0.691 -3.7548  0.7857  1.1752
 1168TIP3    H225140   5.769   1.740   0.617 -0.9815  0.2310  0.9917
 1169TIP3   OH225141   4.137   6.179   8.385  0.2676  0.0549  0.0195
 1169TIP3    H125142   4.128   6.246   8.317  2.2986  2.2138  1.7258
 1169TIP3    H225143   4.217   6.131   8.362 -0.9922 -1.6782 -1.0047
 1170TIP3   OH225144   1.925   3.910   0.377 -0.2060 -0.2875  0.3686
 1170TIP3    H125145   2.001   3.876   0.329 -0.3370 -1.6501  1.0736
 1170TIP3    H225146   1.861   3.839   0.374 -0.3432 -0.2973  2.2774
 1171TIP3   OH225147   2.712   6.536   2.158  0.1604 -0.0102 -0.4227
 1171TIP3    H125148   2.630   6.511   2.115  1.4730 -0.7817 -2.6457
 1171TIP3    H225149   2.734   6.460   2.212 -0.2538 -0.0470 -0.2955
 1172TIP3   OH225150   6.608   0.591   1.025  0.2383  0.1126  0.0061
 1172TIP3    H125151   6.593   0.610   0.933 -0.1492 -2.1081 -0.4417
 1172TIP3    H225152   6.701   0.567   1.030 -0.2634 -2.1636 -0.3388
 1173TIP3   OH225153   3.710   4.866   7.377  0.2594 -0.0897  0.0362
 1173TIP3    H125154   3.633   4.841   7.326  1.5398 -1.3058 -1.3651
 1173TIP3    H225155   3.785   4.835   7.326  1.7127  1.2065  1.2727
 1174TIP3   OH225156   2.773   3.888   6.825 -0.5725  0.0252 -0.6284
 1174TIP3    H125157   2.745   3.933   6.745 -2.5411  0.7671  0.4161
 1174TIP3    H225158   2.812   3.957   6.879 -1.2396 -0.0087 -0.0827
 1175TIP3   OH225159   4.980   2.952   6.705 -0.2640  0.0216 -0.2089
 1175TIP3    H125160   5.069   2.985   6.698 -0.8752  1.5299 -1.7961
 1175TIP3    H225161   4.984   2.864   6.666  0.2999  0.6045 -1.5399
 1176TIP3   OH225162   6.198   3.005   7.150  0.2723 -0.2926  0.0139
 1176TIP3    H125163   6.207   3.061   7.228 -0.4874  1.5355 -1.1438
 1176TIP3    H225164   6.103   2.999   7.136  0.4001 -0.5281 -0.8053
 1177TIP3   OH225165   0.935   0.455   0.478 -0.8164  0.3568 -0.0169
 1177TIP3    H125166   0.942   0.393   0.551 -1.5249  0.5088  0.1954
 1177TIP3    H225167   0.923   0.540   0.520  0.8958  0.7764 -0.2935
 1178TIP3   OH225168   3.067   4.882   0.590 -0.3907 -0.2311 -0.4322
 1178TIP3    H125169   2.988   4.918   0.631 -0.5515 -2.2655  1.2103
 1178TIP3    H225170   3.139   4.911   0.647 -0.2769 -0.5785 -0.3934
 1179TIP3   OH225171   3.635   2.773   2.081 -0.2019  0.2565 -0.1446
 1179TIP3    H125172   3.672   2.816   2.158 -0.1886 -0.3762  0.2076
 1179TIP3    H225173   3.562   2.722   2.115 -0.1335 -0.1055 -0.5347
 1180TIP3   OH225174   6.833   5.116   7.013  0.0398  0.4482 -0.1312
 1180TIP3    H125175   6.799   5.177   7.080  0.3861  0.8724 -0.3382
 1180TIP3    H225176   6.830   5.166   6.932  2.0248  0.8244 -0.0074
 1181TIP3   OH225177   5.763   1.300   2.085 -0.2567  0.5098  0.2472
 1181TIP3    H125178   5.676   1.269   2.060  0.3533 -0.1658 -1.1560
 1181TIP3    H225179   5.818   1.222   2.083  0.2145  0.7590  2.0669
 1182TIP3   OH225180   6.284   5.454   0.942  0.2843  0.3634 -0.0479
 1182TIP3    H125181   6.372   5.442   0.978 -0.0993  0.6569  1.0053
 1182TIP3    H225182   6.261   5.368   0.907  1.4039  0.5414 -1.3227
 1183TIP3   OH225183   4.855   5.357   0.568 -0.2036 -0.6055 -1.0505
 1183TIP3    H125184   4.870   5.377   0.660  1.4259  1.0170 -1.6012
 1183TIP3    H225185   4.910   5.280   0.551 -0.3283 -0.7679 -0.7119
 1184TIP3   OH225186   0.784   2.719   6.342  0.0482  0.0231 -0.1002
 1184TIP3    H125187   0.754   2.707   6.432  1.2970 -0.9874  0.2031
 1184TIP3    H225188   0.802   2.813   6.334  0.2386  0.0646  0.7989
 1185TIP3   OH225189   4.379   0.231   7.552  0.1641  0.0386  0.6729
 1185TIP3    H125190   4.413   0.308   7.507  0.1332 -0.1849  0.2640
 1185TIP3    H225191   4.391   0.159   7.490 -0.7845 -0.0966  0.6333
 1186TIP3   OH225192   2.536   6.335   0.478  0.4830 -0.6450 -0.3099
 1186TIP3    H125193   2.460   6.385   0.448  1.5139  0.3618 -1.2794
 1186TIP3    H225194   2.508   6.299   0.563 -1.2633 -0.7548 -0.8770
 1187TIP3   OH225195   3.368   3.659   8.331  0.1771  0.1397 -0.3276
 1187TIP3    H125196   3.272   3.653   8.332  0.2307 -3.8017  0.5113
 1187TIP3    H225197   3.393   3.646   8.423  1.5394  0.0560 -0.6942
 1188TIP3   OH225198   1.569   0.550   1.657 -0.0692  0.1430 -0.4672
 1188TIP3    H125199   1.628   0.576   1.727  0.5604  1.2229 -1.3690
 1188TIP3    H225200   1.573   0.622   1.594 -1.8234 -0.0655 -0.8807
 1189TIP3   OH225201   1.797   2.359   1.790 -0.2577  0.7973 -0.3011
 1189TIP3    H125202   1.810   2.328   1.701 -1.1673 -0.8918  0.1160
 1189TIP3    H225203   1.826   2.451   1.788  0.3888  0.5905 -2.1371
 1190TIP3   OH225204   2.993   1.906   1.479  0.5376 -0.1674 -0.7400
 1190TIP3    H125205   2.905   1.883   1.451  1.6092 -1.2126 -3.6050
 1190TIP3    H225206   3.017   1.981   1.424  1.5050 -0.0240 -0.1500
 1191TIP3   OH225207   0.711   2.446   7.754 -0.3106 -0.3677 -0.1432
 1191TIP3    H125208   0.795   2.427   7.795  0.0545  0.6802 -0.3921
 1191TIP3    H225209   0.703   2.380   7.685  0.6052 -0.0739 -0.5418
 1192TIP3   OH225210   6.840   6.820   0.105 -0.3456  0.3781 -0.2264
 1192TIP3    H125211   6.926   6.863   0.103  0.6221 -1.4651 -0.8132
 1192TIP3    H225212   6.852   6.746   0.164 -1.7011  0.3822  0.0806
 1193TIP3   OH225213   1.519   6.266   1.430  0.6401  0.5477  1.1258
 1193TIP3    H125214   1.535   6.353   1.469  2.2251  0.8074 -0.0179
 1193TIP3    H225215   1.606   6.226   1.424  0.1128 -0.5080  0.2189
 1194TIP3   OH225216   2.704   1.650   1.816 -0.2029  0.6284 -0.5492
 1194TIP3    H125217   2.708   1.572   1.760 -0.1328 -0.0180  0.3168
 1194TIP3    H225218   2.611   1.668   1.826 -0.2255  0.5573 -0.6308
 1195TIP3   OH225219   0.023   4.206   0.862 -0.8051 -0.2261  0.1407
 1195TIP3    H125220   0.112   4.172   0.868 -1.2779 -1.3999  0.9088
 1195TIP3    H225221  -0.032   4.127   0.856 -1.8529  0.4546  0.5227
 1196TIP3   OH225222   1.664   0.292   2.200  0.2780  0.9827 -0.7602
 1196TIP3    H125223   1.596   0.318   2.262  1.2970  0.7423  0.5162
 1196TIP3    H225224   1.649   0.199   2.184  1.6598  0.2900  1.4370
 1197TIP3   OH225225   1.957   0.823   0.959 -0.2305  0.1340  0.3484
 1197TIP3    H125226   1.942   0.896   1.019 -1.9293  0.7990 -0.8184
 1197TIP3    H225227   2.051   0.828   0.938  0.3567  0.0414  2.6757
 1198TIP3   OH225228   1.456   2.514   7.628  0.1553  0.8323 -0.5255
 1198TIP3    H125229   1.439   2.472   7.543  0.8283  1.5013 -1.0065
 1198TIP3    H225230   1.437   2.606   7.613  3.1280  1.4994 -0.8511
 1199TIP3   OH225231   1.607   3.516   0.791  0.3852  0.6066  0.4292
 1199TIP3    H125232   1.651   3.517   0.876  1.8979  1.1068 -0.3246
 1199TIP3    H225233   1.623   3.428   0.757 -1.5341 -0.1232  1.2748
 1200TIP3   OH225234   6.566   4.170   0.068  0.1449 -0.1976 -0.3619
 1200TIP3    H125235   6.550   4.261   0.041  1.7522  0.2386  0.0049
 1200TIP3    H225236   6.647   4.175   0.118 -1.1051 -1.4553  1.9271
 1201TIP3   OH225237   4.263   6.562   1.840  0.3062  1.1887 -0.0733
 1201TIP3    H125238   4.243   6.479   1.883 -1.7359  1.3730 -0.5739
 1201TIP3    H225239   4.313   6.612   1.905  1.4194 -0.3417  0.2875
 1202TIP3   OH225240   1.778   2.338   7.914 -0.2975  0.1971  0.1433
 1202TIP3    H125241   1.727   2.414   7.886  0.9848  1.1446  0.2858
 1202TIP3    H225242   1.863   2.349   7.873 -0.0043 -1.0398  0.3781
 1203TIP3   OH225243   0.507   2.101   7.975 -0.1803  0.4160 -0.1701
 1203TIP3    H125244   0.454   2.180   7.987 -1.6317 -0.8268  2.2771
 1203TIP3    H225245   0.452   2.030   8.006  1.2773 -1.5689 -1.8587
 1204TIP3   OH225246   1.843   5.581   1.289  0.3763  0.0159 -0.4535
 1204TIP3    H125247   1.841   5.667   1.330 -1.3484  0.8955 -2.2275
 1204TIP3    H225248   1.868   5.521   1.360 -0.1398  1.7424  1.2544
 1205TIP3   OH225249   3.408   3.591   0.139 -0.0366 -0.7499 -0.5790
 1205TIP3    H125250   3.475   3.643   0.182 -0.3216  0.9394 -2.0813
 1205TIP3    H225251   3.347   3.567   0.209 -0.7445  2.2962 -0.0273
 1206TIP3   OH225252   1.721   5.057   0.436  0.2419 -0.4846  0.5391
 1206TIP3    H125253   1.650   5.113   0.469  0.4708  0.6164 -0.7558
 1206TIP3    H225254   1.800   5.091   0.480  0.2149 -0.5687  0.6528
 1207TIP3   OH225255   2.531   5.193   0.535 -0.0062  0.0438 -0.3039
 1207TIP3    H125256   2.604   5.138   0.561  0.8859 -0.3972 -3.3000
 1207TIP3    H225257   2.561   5.282   0.552  1.8767 -0.0425 -2.5740
 1208TIP3   OH225258   5.944   5.677   8.140 -0.0026  0.4866  0.5067
 1208TIP3    H125259   5.922   5.624   8.064 -0.2495  0.4222  0.6212
 1208TIP3    H225260   6.015   5.630   8.183  0.7897  1.0054 -0.2000
 1209TIP3   OH225261   1.360   0.814   7.747 -0.4177 -0.6220  0.2776
 1209TIP3    H125262   1.324   0.817   7.659 -0.7564 -1.5367  0.3752
 1209TIP3    H225263   1.284   0.812   7.805 -0.1998 -0.8764  0.5604
 1210TIP3   OH225264   3.868   3.751   1.760  0.1131  0.1619 -0.1246
 1210TIP3    H125265   3.777   3.734   1.738 -0.1480  0.5332  0.6239
 1210TIP3    H225266   3.895   3.820   1.699 -0.4566  0.8562  0.3832
 1211TIP3   OH225267   4.308   4.432   0.756 -0.4402  0.0250 -0.4065
 1211TIP3    H125268   4.366   4.416   0.830 -1.0512 -1.0741 -0.1457
 1211TIP3    H225269   4.220   4.428   0.793 -0.7328  0.0995 -1.0742
 1212TIP3   OH225270   0.091   0.325   0.813 -0.0574 -0.3705 -0.1238
 1212TIP3    H125271   0.063   0.290   0.897  3.4081 -0.7905  0.9969
 1212TIP3    H225272   0.037   0.403   0.801 -0.3687 -0.0213  2.7447
 1213TIP3   OH225273   2.740   6.293   7.369  0.1471 -0.2067  0.4951
 1213TIP3    H125274   2.668   6.355   7.358  0.5378  0.2936  0.7195
 1213TIP3    H225275   2.707   6.212   7.331 -0.3978  0.1156  0.2589
 1214TIP3   OH225276   5.269   0.287   0.781  0.0051 -0.3032 -0.6583
 1214TIP3    H125277   5.187   0.336   0.778 -0.8124 -1.6749 -2.9835
 1214TIP3    H225278   5.248   0.206   0.827  1.1353  0.9689  2.3629
 1215TIP3   OH225279   3.418   4.161   7.730 -0.2476  0.6683 -0.0226
 1215TIP3    H125280   3.363   4.223   7.779 -1.9363  0.2642 -1.3343
 1215TIP3    H225281   3.474   4.217   7.676  0.2506  1.0752  0.8916
 1216TIP3   OH225282   5.614   3.225   0.055  0.0159 -0.0104 -0.2590
 1216TIP3    H125283   5.648   3.305   0.015 -2.4525  1.8355  1.0963
 1216TIP3    H225284   5.567   3.180  -0.015  1.6135 -0.4522 -1.0849
 1217TIP3   OH225285   0.136   2.390   2.427  0.0078  0.0310 -0.0466
 1217TIP3    H125286   0.124   2.424   2.338 -1.1025  1.6672  0.6910
 1217TIP3    H225287   0.050   2.399   2.468  0.0437 -2.3573  0.6853
 1218TIP3   OH225288   0.344   1.533   0.902 -0.3364  0.9662 -0.0508
 1218TIP3    H125289   0.364   1.624   0.922  0.0936  0.5205  1.7035
 1218TIP3    H225290   0.393   1.482   0.967  1.2695 -0.6513 -2.3456
 1219TIP3   OH225291   4.911   5.520   0.865  0.2423  0.4127  0.2295
 1219TIP3    H125292   4.925   5.425   0.868 -0.0565  0.3794  1.1497
 1219TIP3    H225293   4.980   5.555   0.922 -2.7501  0.2922  4.3882
 1220TIP3   OH225294   4.975   6.278   1.436  0.1642 -0.2400 -0.2182
 1220TIP3    H125295   4.983   6.371   1.414 -0.4568 -0.3522 -0.9441
 1220TIP3    H225296   5.003   6.273   1.528 -0.1237  0.7161 -0.0644
 1221TIP3   OH225297   2.526   1.105   1.125  0.1768 -0.8497  0.1236
 1221TIP3    H125298   2.602   1.083   1.071  1.5677  0.1047  1.5906
 1221TIP3    H225299   2.469   1.028   1.118  1.5670 -1.8821 -0.5127
 1222TIP3   OH225300   2.966   0.311   8.113  0.4558  0.8168 -0.0016
 1222TIP3    H125301   2.987   0.313   8.207  1.9275  2.5432 -0.3032
 1222TIP3    H225302   2.891   0.369   8.104 -2.2408 -2.2640  0.5197
 1223TIP3   OH225303   5.539   6.090   7.506  0.0009 -0.8311  0.1881
 1223TIP3    H125304   5.613   6.064   7.560  0.4747 -1.5463 -0.7753
 1223TIP3    H225305   5.492   6.008   7.488 -1.6021 -0.2820  1.5702
 1224TIP3   OH225306   3.327   3.196   2.013  0.4867 -0.0161  0.7639
 1224TIP3    H125307   3.258   3.219   1.951  0.9547  0.3396  0.3731
 1224TIP3    H225308   3.289   3.216   2.099  0.0223 -0.0367  0.5645
 1225TIP3   OH225309   2.277   6.444   1.716 -0.0933  0.2950 -0.0763
 1225TIP3    H125310   2.283   6.510   1.785  1.9413 -0.1768  0.2442
 1225TIP3    H225311   2.350   6.385   1.732 -0.4661 -0.6911 -1.7593
 1226TIP3   OH225312   1.284   4.106   7.633 -0.0096 -0.2798 -0.6569
 1226TIP3    H125313   1.231   4.156   7.570 -0.1159  0.0403 -0.3156
 1226TIP3    H225314   1.351   4.168   7.662 -1.0579  0.1810  0.9307
 1227TIP3   OH225315   0.249   5.528   7.728  0.0240 -0.1293 -0.0350
 1227TIP3    H125316   0.260   5.608   7.676  0.8936 -0.3049 -0.1444
 1227TIP3    H225317   0.337   5.507   7.758 -0.4475 -0.1125  1.4130
 1228TIP3   OH225318   3.431   3.092   7.426  0.0136  0.2579 -0.2438
 1228TIP3    H125319   3.365   3.150   7.465 -1.1142 -0.1754 -1.4495
 1228TIP3    H225320   3.453   3.031   7.496 -0.0750  1.0469  0.5011
 1229TIP3   OH225321   6.864   1.213   7.139 -0.0826 -0.2649  0.3110
 1229TIP3    H125322   6.775   1.221   7.105 -0.9914 -3.3161  1.6847
 1229TIP3    H225323   6.914   1.175   7.067 -0.1643  0.2984 -0.0512
 1230TIP3   OH225324   4.661   6.949   7.349  0.4560 -0.0865  0.5217
 1230TIP3    H125325   4.717   6.957   7.271  1.8276  1.0074  1.5562
 1230TIP3    H225326   4.699   6.876   7.398 -0.1622 -0.5211  0.3549
 1231TIP3   OH225327   2.026   2.623   6.483 -0.1370  0.3575 -0.1246
 1231TIP3    H125328   2.014   2.558   6.414  0.3574  0.1115  0.0181
 1231TIP3    H225329   1.937   2.650   6.506 -0.3970 -0.7742  0.2934
 1232TIP3   OH225330   6.695   1.195   6.775 -0.2098  0.2631 -0.7506
 1232TIP3    H125331   6.663   1.268   6.721 -1.7038 -0.2847 -0.6491
 1232TIP3    H225332   6.714   1.236   6.860  2.6244  1.2271 -1.7221
 1233TIP3   OH225333   2.314   2.429   7.824 -0.6039 -0.1248  0.3859
 1233TIP3    H125334   2.364   2.434   7.905  0.5200  0.2370 -0.3189
 1233TIP3    H225335   2.377   2.403   7.757 -1.6848 -1.2652 -0.2412
 1234TIP3   OH225336   4.735   6.388   7.435  0.1683 -0.0494  0.3666
 1234TIP3    H125337   4.690   6.462   7.475 -0.9255 -0.9281  0.8178
 1234TIP3    H225338   4.787   6.350   7.506  3.9058  2.4939 -0.6946
 1235TIP3   OH225339   2.135   4.878   7.142 -0.3437  0.2141  0.2335
 1235TIP3    H125340   2.146   4.788   7.175  1.7578  0.2564 -0.2216
 1235TIP3    H225341   2.118   4.868   7.049  1.0697  0.2718 -0.0599
 1236TIP3   OH225342   0.873   4.612   8.211  0.5612 -0.0991  0.2735
 1236TIP3    H125343   0.778   4.606   8.214  0.3256  1.0573 -2.3505
 1236TIP3    H225344   0.894   4.688   8.265  0.0683 -0.5600  1.1402
 1237TIP3   OH225345   0.199   0.962   1.745 -0.2265  0.2167  0.0141
 1237TIP3    H125346   0.265   0.962   1.814 -1.1783 -0.0104  0.9700
 1237TIP3    H225347   0.161   1.051   1.748  0.0378  0.3498 -0.5302
 1238TIP3   OH225348   4.218   1.325   2.018  0.0749 -0.0747  0.7334
 1238TIP3    H125349   4.296   1.360   1.974  0.3311 -1.8218 -0.3414
 1238TIP3    H225350   4.152   1.318   1.949 -0.7769  0.6142  1.4546
 1239TIP3   OH225351   2.456   0.455   8.151  0.1038 -0.4155  0.6269
 1239TIP3    H125352   2.363   0.467   8.131  0.1890 -0.1276  0.4026
 1239TIP3    H225353   2.468   0.498   8.235  0.3459  0.8613 -0.0336
 1240TIP3   OH225354   3.490   2.302   2.362 -0.1390  0.2310 -0.0254
 1240TIP3    H125355   3.480   2.370   2.429 -1.1669 -0.4413  0.5305
 1240TIP3    H225356   3.564   2.250   2.390 -0.4432  0.0738  0.4915
 1241TIP3   OH225357   3.345   3.457   6.480 -0.1748 -0.6599  0.2864
 1241TIP3    H125358   3.353   3.364   6.503 -0.3674 -0.2375  2.2382
 1241TIP3    H225359   3.411   3.500   6.533 -1.8484  0.5947  1.4551
 1242TIP3   OH225360   3.465   2.179   7.816  0.2858  0.1602  0.0319
 1242TIP3    H125361   3.398   2.118   7.785  0.8465 -0.8077  0.6744
 1242TIP3    H225362   3.434   2.265   7.789 -1.3374 -0.2420  0.5155
 1243TIP3   OH225363   2.441   5.458   1.961 -0.0430 -0.2360 -0.2311
 1243TIP3    H125364   2.475   5.371   1.979 -0.0022 -0.0584  0.5495
 1243TIP3    H225365   2.463   5.510   2.038 -1.2294  0.1247 -0.1082
 1244TIP3   OH225366   6.547   0.891   8.208 -0.1271  0.0740 -0.0428
 1244TIP3    H125367   6.515   0.868   8.121 -1.0031  1.4097 -0.1108
 1244TIP3    H225368   6.529   0.985   8.216  3.0082  0.7562  0.2932
 1245TIP3   OH225369   0.577   4.827   6.283  0.2988  0.0291  0.3452
 1245TIP3    H125370   0.520   4.770   6.336 -1.3735  1.0539 -0.2715
 1245TIP3    H225371   0.630   4.766   6.231 -0.6319 -0.9722  0.5294
 1246TIP3   OH225372   4.394   0.639   8.100  0.1610  0.3822  0.4046
 1246TIP3    H125373   4.372   0.546   8.105  0.4285  0.3485  1.1607
 1246TIP3    H225374   4.372   0.665   8.011 -0.3020 -0.3085  0.3134
 1247TIP3   OH225375   4.326   4.323   2.601 -0.1990  0.0142 -0.1646
 1247TIP3    H125376   4.241   4.343   2.562  0.1922  2.4510  0.0452
 1247TIP3    H225377   4.318   4.352   2.692  1.0514  1.0024 -0.3392
 1248TIP3   OH225378   3.448   6.792   8.252 -0.2857  0.3332 -0.1850
 1248TIP3    H125379   3.393   6.836   8.187  1.5280  1.5284 -0.9997
 1248TIP3    H225380   3.405   6.809   8.335 -1.3459  0.8927 -0.8260
 1249TIP3   OH225381   3.036   2.638   6.730  0.4662 -0.0210 -0.4945
 1249TIP3    H125382   3.113   2.583   6.743  0.4071  0.0117 -0.0023
 1249TIP3    H225383   2.966   2.577   6.707  0.4457 -0.1350 -0.1328
 1250TIP3   OH225384   1.585   5.008   2.146  0.0823  0.0666  0.2968
 1250TIP3    H125385   1.536   5.055   2.214  1.3265  1.9134  0.0078
 1250TIP3    H225386   1.670   4.990   2.187 -0.0135 -1.0446  0.0347
 1251TIP3   OH225387   1.752   2.170   0.754  0.2167 -0.5147  0.1938
 1251TIP3    H125388   1.801   2.187   0.674 -0.4557 -1.4581 -0.4366
 1251TIP3    H225389   1.724   2.079   0.746  2.3748 -1.5523  2.6989
 1252TIP3   OH225390   1.007   3.611   1.988  0.1367 -0.1661  0.2317
 1252TIP3    H125391   0.948   3.686   1.986  1.4068  0.8707  0.9439
 1252TIP3    H225392   1.073   3.631   1.922  2.2546  0.8810  2.5330
 1253TIP3   OH225393   0.234   4.773   7.283  0.0275  1.0571  0.4088
 1253TIP3    H125394   0.267   4.840   7.223  1.0417 -0.6919 -1.1011
 1253TIP3    H225395   0.309   4.750   7.337 -0.4676  1.5089  1.3040
 1254TIP3   OH225396   1.016   6.652   0.465  0.0901  0.0597  0.4528
 1254TIP3    H125397   1.052   6.601   0.393  0.2758  1.1343 -0.2306
 1254TIP3    H225398   1.060   6.617   0.543  0.4311 -0.6197 -0.0337
 1255TIP3   OH225399   0.184   1.018   0.511 -0.2854 -0.2307 -0.3244
 1255TIP3    H125400   0.155   1.105   0.540  0.1284  0.2892 -1.3889
 1255TIP3    H225401   0.280   1.026   0.505 -0.0552 -1.3661  1.4267
 1256TIP3   OH225402   5.322   6.568   7.791  0.6164  0.6823 -0.5139
 1256TIP3    H125403   5.398   6.590   7.737  0.0174  4.0429 -0.2030
 1256TIP3    H225404   5.292   6.484   7.756  2.2353  1.0742 -3.1496
 1257TIP3   OH225405   4.907   5.080   0.213  0.1799 -0.9436  0.2164
 1257TIP3    H125406   4.934   5.018   0.145  0.5420 -1.1877  0.5672
 1257TIP3    H225407   4.835   5.129   0.175  0.8492 -0.5733 -0.6061
 1258TIP3   OH225408   6.454   1.932   7.100 -0.3072  0.4575  0.9031
 1258TIP3    H125409   6.523   1.883   7.056 -1.8396  0.5305 -1.8190
 1258TIP3    H225410   6.498   1.977   7.172  1.7882 -2.1472  1.4044
 1259TIP3   OH225411   2.692   4.943   7.937  0.1801 -0.1263 -0.1062
 1259TIP3    H125412   2.741   4.997   7.875 -1.0781 -0.3122 -1.3018
 1259TIP3    H225413   2.713   4.980   8.022  4.4294 -1.7607 -0.2254
 1260TIP3   OH225414   3.675   1.030   2.292  0.5877  0.2964  0.5185
 1260TIP3    H125415   3.607   1.058   2.352  0.4223 -2.5031  1.7715
 1260TIP3    H225416   3.704   1.110   2.249 -3.4928  1.6171 -0.1359
 1261TIP3   OH225417   4.844   3.582   7.555 -0.0968 -0.1126 -0.6620
 1261TIP3    H125418   4.872   3.636   7.481  1.5707  1.2636  0.8429
 1261TIP3    H225419   4.809   3.645   7.618  3.9938 -0.2051  2.1187
 1262TIP3   OH225420   5.969   3.122   6.575  0.1215 -0.7484 -0.1411
 1262TIP3    H125421   5.992   3.211   6.550 -1.0775  0.0258  1.3792
 1262TIP3    H225422   5.911   3.091   6.505 -1.5684  0.6491  0.5681
 1263TIP3   OH225423   6.311   1.207   0.298  0.1369 -0.0748 -0.1746
 1263TIP3    H125424   6.356   1.272   0.352 -0.5258 -0.1178  0.4532
 1263TIP3    H225425   6.298   1.132   0.356 -0.3669 -0.2208 -0.4639
 1264TIP3   OH225426   3.564   6.784   1.550 -0.1052  0.6261  0.1718
 1264TIP3    H125427   3.566   6.791   1.646 -0.5014  0.2038  0.2125
 1264TIP3    H225428   3.520   6.701   1.533  0.4964  0.4036 -0.3671
 1265TIP3   OH225429   3.533   2.744   7.849 -0.4326 -0.2939  0.4212
 1265TIP3    H125430   3.569   2.703   7.770 -0.8244  1.2788 -0.6279
 1265TIP3    H225431   3.488   2.672   7.894  1.2121 -1.5849  0.1032
 1266TIP3   OH225432   3.838   0.355   6.838  0.3325 -0.2405  0.7129
 1266TIP3    H125433   3.918   0.329   6.792 -0.6153 -1.0525 -0.5369
 1266TIP3    H225434   3.774   0.288   6.816 -1.1926  1.2801  0.2581
 1267TIP3   OH225435   5.224   1.014   7.083  0.8356  0.0412  0.4586
 1267TIP3    H125436   5.304   0.966   7.101  0.2931 -0.8421  0.5727
 1267TIP3    H225437   5.211   1.069   7.160  1.1824 -0.0181  0.5601
 1268TIP3   OH225438   0.729   4.769   0.466 -0.4245 -0.5083  0.2495
 1268TIP3    H125439   0.682   4.700   0.419 -0.3607 -1.2076  1.1737
 1268TIP3    H225440   0.740   4.734   0.554  0.7600  0.1520  0.3829
 1269TIP3   OH225441   6.920   3.450   8.007  0.0341 -0.3239 -0.4705
 1269TIP3    H125442   6.926   3.494   7.922 -0.3443 -0.9908 -0.8443
 1269TIP3    H225443   7.011   3.430   8.030  0.2474  0.8785 -0.1603
 1270TIP3   OH225444   2.786   2.958   1.533  0.1667 -0.0250 -0.4609
 1270TIP3    H125445   2.802   3.046   1.499  0.0744  0.7999  1.4981
 1270TIP3    H225446   2.871   2.914   1.526  0.4324  0.5085 -0.6181
 1271TIP3   OH225447   4.547   1.792   8.115  0.0952  0.1593 -0.3731
 1271TIP3    H125448   4.590   1.771   8.198 -0.5387 -2.1014 -0.5327
 1271TIP3    H225449   4.481   1.858   8.138  1.1267  0.9033  0.5469
 1272TIP3   OH225450   2.025   4.833   1.074  0.0571  0.2146  0.2369
 1272TIP3    H125451   1.969   4.803   1.003 -0.9169  0.2210  0.9722
 1272TIP3    H225452   2.049   4.923   1.049  1.1053 -0.3491 -0.8637
 1273TIP3   OH225453   2.740   3.763   7.460 -0.5997 -0.1431  0.0572
 1273TIP3    H125454   2.652   3.733   7.436 -0.2041 -0.7024 -0.7516
 1273TIP3    H225455   2.789   3.761   7.378  0.2851 -0.2649  0.5795
 1274TIP3   OH225456   1.070   5.900   7.978 -0.2826 -0.3141 -0.5490
 1274TIP3    H125457   0.988   5.909   7.929  0.4594  1.0589 -1.6019
 1274TIP3    H225458   1.046   5.923   8.068 -1.0824 -0.0512 -0.8141
 1275TIP3   OH225459   1.882   3.219   1.441  0.5893 -0.4770 -0.0639
 1275TIP3    H125460   1.793   3.215   1.406  1.0167  0.0422 -1.2706
 1275TIP3    H225461   1.877   3.284   1.511  0.3389  0.8671 -1.2547
 1276TIP3   OH225462   4.097   0.878   1.397 -0.1037  0.4360 -0.3244
 1276TIP3    H125463   4.103   0.886   1.492  3.8056  2.2988 -0.5108
 1276TIP3    H225464   4.138   0.794   1.378 -2.9795 -1.0625 -0.3851
 1277TIP3   OH225465   3.470   1.616   7.481 -0.0448  0.2501 -0.5112
 1277TIP3    H125466   3.406   1.678   7.515  0.2659  0.0351  0.5057
 1277TIP3    H225467   3.533   1.606   7.552  0.7049 -0.1143 -1.2190
 1278TIP3   OH225468   1.400   5.997   1.686  0.3995 -0.3755  0.2892
 1278TIP3    H125469   1.481   6.005   1.636  0.7552  0.6531  0.9961
 1278TIP3    H225470   1.427   5.960   1.770  0.3027  0.8864  0.8939
 1279TIP3   OH225471   5.973   5.898   1.709  0.2084  0.0875  0.3704
 1279TIP3    H125472   6.058   5.860   1.731  0.8312  0.1067 -1.7808
 1279TIP3    H225473   5.992   5.962   1.640 -1.5529 -0.0748 -0.3218
 1280TIP3   OH225474   1.253   1.474   7.036 -0.0167 -0.4056 -0.1750
 1280TIP3    H125475   1.296   1.519   6.963  0.2362  2.1993  1.4557
 1280TIP3    H225476   1.323   1.424   7.077  1.2431  2.3630  1.3637
 1281TIP3   OH225477   3.487   6.806   6.828  0.3047  0.5822 -0.0455
 1281TIP3    H125478   3.522   6.739   6.770  1.6526  0.8341  0.4406
 1281TIP3    H225479   3.564   6.845   6.869 -0.5269  1.5356  0.6668
 1282TIP3   OH225480   3.590   3.181   1.730  0.1962  0.0068  0.6053
 1282TIP3    H125481   3.507   3.189   1.778 -0.1972 -1.1550  0.1469
 1282TIP3    H225482   3.565   3.180   1.638  0.7539 -0.0552  0.4500
 1283TIP3   OH225483   6.262   3.118   1.370  0.3127 -0.6355 -0.0370
 1283TIP3    H125484   6.274   3.202   1.326 -1.6870  0.4251  1.2715
 1283TIP3    H225485   6.315   3.125   1.449 -0.7607 -0.0499  0.6714
 1284TIP3   OH225486   0.816   2.230   0.556 -0.6342  0.1621  0.0717
 1284TIP3    H125487   0.791   2.208   0.466 -1.5622 -0.4837  0.4742
 1284TIP3    H225488   0.848   2.320   0.551 -1.9279  0.5976 -0.6780
 1285TIP3   OH225489   4.763   3.342   6.886 -0.3348 -0.2760 -0.3181
 1285TIP3    H125490   4.685   3.288   6.872 -0.6981 -0.6956  2.7025
 1285TIP3    H225491   4.836   3.283   6.866 -0.6793  0.1055 -3.1207
 1286TIP3   OH225492   4.556   3.110   7.573 -0.0681  0.3394 -0.5040
 1286TIP3    H125493   4.484   3.145   7.624  0.0073 -0.1406 -0.0658
 1286TIP3    H225494   4.600   3.048   7.631  0.0051 -0.2301 -1.1436
 1287TIP3   OH225495   2.084   5.677   8.280 -0.2552 -0.2057  0.1201
 1287TIP3    H125496   2.175   5.706   8.276 -0.1467 -0.6233 -1.1537
 1287TIP3    H225497   2.089   5.584   8.303 -0.2030 -0.6962 -1.6527
 1288TIP3   OH225498   1.002   3.054   7.034  0.1670  0.5619  0.3918
 1288TIP3    H125499   1.008   3.036   7.128 -0.9189 -1.4951  0.1369
 1288TIP3    H225500   0.943   3.129   7.027  0.1715  0.6626  1.3577
 1289TIP3   OH225501   1.806   0.233   0.322 -0.7570  0.6741 -0.0149
 1289TIP3    H125502   1.805   0.303   0.256  0.6827  2.1524  1.4236
 1289TIP3    H225503   1.891   0.243   0.366 -1.5241 -0.4649  1.8417
 1290TIP3   OH225504   1.760   2.994   0.142  0.1553  0.3193 -0.2663
 1290TIP3    H125505   1.760   2.899   0.130  1.0819  0.2967 -0.2023
 1290TIP3    H225506   1.705   3.027   0.071 -0.7968 -0.3058  0.1575
 1291TIP3   OH225507   3.721   1.508   0.750  0.3170  0.1189 -0.8025
 1291TIP3    H125508   3.726   1.488   0.844  0.2324  0.1722 -0.7867
 1291TIP3    H225509   3.635   1.547   0.738  0.4108  0.3103 -0.8652
 1292TIP3   OH225510   6.659   0.459   1.982 -0.1806 -0.0243 -0.3616
 1292TIP3    H125511   6.633   0.368   1.998  0.4058 -0.3831 -1.3255
 1292TIP3    H225512   6.701   0.487   2.063 -2.7196  0.3083  0.9549
 1293TIP3   OH225513   5.737   3.126   0.595 -0.4175 -0.3388  0.1857
 1293TIP3    H125514   5.821   3.144   0.637  0.0482 -0.9960 -0.4271
 1293TIP3    H225515   5.738   3.182   0.517 -0.7919  0.0544  0.4596
 1294TIP3   OH225516   5.753   1.076   6.446  0.2030  0.0871  0.0612
 1294TIP3    H125517   5.703   1.150   6.411  1.4048 -0.0061 -2.0466
 1294TIP3    H225518   5.843   1.108   6.451  0.6698 -1.0642 -0.4907
 1295TIP3   OH225519   4.899   6.377   1.728 -0.4651  0.2929 -0.5515
 1295TIP3    H125520   4.835   6.356   1.796  0.9289  2.1722  1.4723
 1295TIP3    H225521   4.859   6.449   1.678 -0.1096  1.2492  0.5075
 1296TIP3   OH225522   0.978   1.119   0.619 -0.3452  0.0411 -0.3748
 1296TIP3    H125523   0.907   1.057   0.603 -1.8032  0.4149  3.4685
 1296TIP3    H225524   1.044   1.069   0.666  0.1556  0.5861 -0.4803
 1297TIP3   OH225525   6.053   0.133   2.107  0.2405  0.6308 -0.2331
 1297TIP3    H125526   6.074   0.095   2.022 -2.3993  0.1450 -0.7672
 1297TIP3    H225527   6.124   0.194   2.125  2.3036 -1.2668 -1.4585
 1298TIP3   OH225528   0.995   1.164   8.197 -0.4883  0.1661  0.1218
 1298TIP3    H125529   0.992   1.220   8.120  1.5555 -0.9577 -0.8396
 1298TIP3    H225530   1.071   1.194   8.247  0.4911 -1.5027 -0.2743
 1299TIP3   OH225531   1.933   2.598   7.269 -0.1767  0.2282 -0.1094
 1299TIP3    H125532   2.013   2.639   7.237 -1.8819  2.2642 -2.0462
 1299TIP3    H225533   1.917   2.640   7.353  0.9234 -0.4693  0.4809
 1300TIP3   OH225534   4.393   6.617   7.895  0.7140 -0.7245  0.3532
 1300TIP3    H125535   4.351   6.571   7.822 -0.2205 -0.3339  0.6172
 1300TIP3    H225536   4.333   6.605   7.969  1.0108 -0.0539  0.7196
 1301TIP3   OH225537   4.905   1.047   6.462  0.0942 -0.0819 -0.1350
 1301TIP3    H125538   4.841   1.090   6.519 -0.2496 -1.2639  0.4032
 1301TIP3    H225539   4.858   1.032   6.380  0.1778  0.4569 -0.2815
 1302TIP3   OH225540   2.640   6.564   0.829 -0.0060 -0.1073 -0.4151
 1302TIP3    H125541   2.665   6.476   0.855 -0.3774  0.0905  0.6644
 1302TIP3    H225542   2.717   6.618   0.847 -0.2399  0.0172  0.2713
 1303TIP3   OH225543   6.341   6.186   0.450  0.0059 -0.0097  0.5524
 1303TIP3    H125544   6.354   6.094   0.427 -0.3810 -0.3043  1.4782
 1303TIP3    H225545   6.311   6.185   0.541 -1.2744  0.9422  0.1768
 1304TIP3   OH225546   4.218   5.653   0.434 -0.6409 -0.1729 -0.4949
 1304TIP3    H125547   4.191   5.644   0.525  2.2425  1.0823  0.6144
 1304TIP3    H225548   4.141   5.689   0.389 -1.4625  1.3220  1.9264
 1305TIP3   OH225549   3.800   4.272   8.325 -0.0564 -0.8401  0.2759
 1305TIP3    H125550   3.726   4.218   8.353  0.0142 -1.6138 -0.9506
 1305TIP3    H225551   3.777   4.361   8.353 -0.4973 -1.3685  1.7045
 1306TIP3   OH225552   3.916   0.618   6.712  0.8492 -0.4014 -0.0407
 1306TIP3    H125553   3.896   0.659   6.627 -1.4623  3.0298  1.8876
 1306TIP3    H225554   3.858   0.542   6.715  1.4664 -1.0006 -1.7416
 1307TIP3   OH225555   6.535   1.644   2.533 -0.2634 -0.0562 -0.4006
 1307TIP3    H125556   6.446   1.659   2.501 -0.2580  1.9382  0.3246
 1307TIP3    H225557   6.523   1.609   2.621 -0.4751  3.1487  0.9718
 1308TIP3   OH225558   5.207   0.876   1.801 -0.4937 -0.0718  0.1284
 1308TIP3    H125559   5.291   0.830   1.811 -0.3875  0.0552 -0.1634
 1308TIP3    H225560   5.225   0.964   1.833 -0.3317  0.1483 -0.5722
 1309TIP3   OH225561   5.518   0.516   2.122  0.1958  0.1173  0.3277
 1309TIP3    H125562   5.536   0.511   2.216  0.1261 -0.7310  0.2974
 1309TIP3    H225563   5.423   0.519   2.116  0.1529 -1.0622  0.2382
 1310TIP3   OH225564   3.027   3.905   0.231  0.6616 -0.1363 -0.7145
 1310TIP3    H125565   3.035   3.898   0.326  1.1751  0.4441 -0.7107
 1310TIP3    H225566   3.030   3.815   0.199 -2.6502 -0.6336  0.0446
 1311TIP3   OH225567   2.608   2.598   2.004  0.2091 -0.1160  0.3852
 1311TIP3    H125568   2.540   2.538   2.035  0.1090 -0.5277 -0.5864
 1311TIP3    H225569   2.675   2.541   1.966 -0.7440  0.3688 -2.2860
 1312TIP3   OH225570   1.335   0.316   0.664 -0.6540  0.3687 -0.2326
 1312TIP3    H125571   1.298   0.233   0.693  1.8482 -1.1711 -1.1152
 1312TIP3    H225572   1.412   0.328   0.720  0.1551  1.0238 -1.4433
 1313TIP3   OH225573   6.688   5.975   7.973  0.1387 -0.1287 -0.0501
 1313TIP3    H125574   6.777   6.006   7.990  0.2909 -0.8936  0.6045
 1313TIP3    H225575   6.646   6.047   7.926  1.3238 -0.0393 -1.0271
 1314TIP3   OH225576   6.639   1.925   0.587  0.4716  0.0324  0.0648
 1314TIP3    H125577   6.703   1.950   0.520 -0.4430  1.1808 -0.4108
 1314TIP3    H225578   6.654   1.987   0.659  0.7984 -0.5753  0.5277
 1315TIP3   OH225579   0.640   6.351   0.371 -0.3591 -0.0878  0.5849
 1315TIP3    H125580   0.560   6.343   0.423 -0.7232  0.9133  0.2192
 1315TIP3    H225581   0.629   6.287   0.301 -0.0934 -1.0912  1.4452
 1316TIP3   OH225582   4.435   2.628   1.092  0.6525  0.2333  0.4047
 1316TIP3    H125583   4.428   2.712   1.137 -2.6622 -0.3160  1.2078
 1316TIP3    H225584   4.429   2.563   1.162  2.7604 -0.7349 -0.2373
 1317TIP3   OH225585   6.598   0.988   7.454 -0.3292 -0.3191  0.0989
 1317TIP3    H125586   6.684   1.001   7.495  0.4376 -0.4957 -1.3883
 1317TIP3    H225587   6.582   1.069   7.406  0.5652 -1.4771 -2.2994
 1318TIP3   OH225588   6.963   1.238   1.486 -0.0722  0.3529 -0.2124
 1318TIP3    H125589   6.894   1.294   1.521 -0.0722  0.2563 -0.0574
 1318TIP3    H225590   6.918   1.180   1.424 -0.1575  0.1898 -0.0010
 1319TIP3   OH225591   5.002   5.087   8.127  0.3913  0.3068  0.2595
 1319TIP3    H125592   5.076   5.142   8.151  0.4754  1.0122 -1.4565
 1319TIP3    H225593   4.935   5.149   8.096 -0.2945 -0.4307  0.2172
 1320TIP3   OH225594   5.643   5.029   6.868 -0.4020 -0.1721 -0.1421
 1320TIP3    H125595   5.668   4.937   6.882 -0.5770 -0.1434  0.4153
 1320TIP3    H225596   5.719   5.079   6.898 -0.6146 -0.1196  0.3267
 1321TIP3   OH225597   0.610   6.309   8.165 -0.1108 -0.4659 -0.2171
 1321TIP3    H125598   0.699   6.326   8.133 -0.5480  0.1517 -1.1578
 1321TIP3    H225599   0.572   6.396   8.176 -0.7761 -0.7328 -0.3425
 1322TIP3   OH225600   0.693   3.224   1.242  0.2475 -0.1529 -0.5736
 1322TIP3    H125601   0.645   3.306   1.228  0.9941 -0.0631 -3.1376
 1322TIP3    H225602   0.666   3.167   1.169  0.1132 -2.0426  0.8765
 1323TIP3   OH225603   2.611   1.700   7.284  0.3920 -0.0439  0.2625
 1323TIP3    H125604   2.591   1.793   7.290 -0.6985 -0.2834  0.5399
 1323TIP3    H225605   2.527   1.658   7.267  0.6106 -1.1071  1.5898
 1324TIP3   OH225606   3.856   2.678   7.988  0.3974  0.1857 -0.2417
 1324TIP3    H125607   3.946   2.651   7.968  0.5321 -3.2549  3.7143
 1324TIP3    H225608   3.865   2.768   8.020  2.0761  0.5516 -1.5663
 1325TIP3   OH225609   2.006   1.175   8.292 -0.3640 -0.3568 -0.4528
 1325TIP3    H125610   1.976   1.254   8.248 -0.3108 -0.6137 -0.9552
 1325TIP3    H225611   2.085   1.203   8.340 -0.0741 -0.2134 -1.0072
 1326TIP3   OH225612   6.017   5.651   0.779 -0.3470 -0.1398 -0.0240
 1326TIP3    H125613   5.937   5.656   0.727 -0.0444 -0.5772 -0.5438
 1326TIP3    H225614   5.993   5.597   0.854 -0.9778  1.0625  0.6620
 1327TIP3   OH225615   5.606   6.752   6.747  0.0434 -0.4019 -0.3586
 1327TIP3    H125616   5.589   6.666   6.707 -1.9668 -0.6332  0.8247
 1327TIP3    H225617   5.585   6.815   6.678 -2.6678 -0.8143 -0.0526
 1328TIP3   OH225618   2.793   4.649   1.297  0.4673  0.0970 -1.2962
 1328TIP3    H125619   2.742   4.708   1.352  1.7223 -2.4040  3.0749
 1328TIP3    H225620   2.738   4.571   1.289  1.8143 -1.0118 -0.1866
 1329TIP3   OH225621   5.184   1.637   7.202 -0.0495  0.5058 -0.2186
 1329TIP3    H125622   5.204   1.717   7.250  2.4999 -1.3583  2.1292
 1329TIP3    H225623   5.094   1.615   7.227 -0.9016  2.6619 -1.1313
 1330TIP3   OH225624   3.357   5.813   1.803  0.6689 -0.2921  0.3449
 1330TIP3    H125625   3.436   5.830   1.753  0.8917 -0.3549  0.6716
 1330TIP3    H225626   3.383   5.747   1.868  0.2154 -0.7034  0.1095
 1331TIP3   OH225627   6.930   0.226   7.665  0.1817 -0.1304  0.1757
 1331TIP3    H125628   6.961   0.214   7.755 -1.5991 -0.7606  0.7506
 1331TIP3    H225629   6.837   0.246   7.675 -0.5937 -2.4699 -1.6090
 1332TIP3   OH225630   5.671   6.975   2.311  0.3013  1.0651 -0.3813
 1332TIP3    H125631   5.763   7.000   2.316  0.8515 -0.4926 -1.8200
 1332TIP3    H225632   5.647   6.952   2.401  0.7544  3.1790  0.3425
 1333TIP3   OH225633   3.586   5.156   2.615 -0.3533  0.6506 -0.6459
 1333TIP3    H125634   3.551   5.234   2.658  0.8514  1.0773 -0.4013
 1333TIP3    H225635   3.552   5.083   2.666 -2.1499  0.9479 -1.3512
 1334TIP3   OH225636   6.638   5.389   1.559 -0.0963  0.2837  0.1544
 1334TIP3    H125637   6.664   5.298   1.577 -1.8970 -0.9509 -2.6376
 1334TIP3    H225638   6.714   5.428   1.516  0.2001 -0.3880  0.0492
 1335TIP3   OH225639   0.651   3.970   6.363  0.1303  0.3908  0.0499
 1335TIP3    H125640   0.685   4.060   6.368 -0.9842  0.7868  1.0676
 1335TIP3    H225641   0.558   3.981   6.347  0.2091 -0.6384 -1.2410
 1336TIP3   OH225642   6.804   5.675   0.164 -0.5023  0.4247 -0.1388
 1336TIP3    H125643   6.748   5.611   0.207 -0.1757 -0.5406 -1.1138
 1336TIP3    H225644   6.893   5.648   0.187 -0.2912 -0.4796 -1.8700
 1337TIP3   OH225645   6.333   0.509   1.555 -0.1894 -0.3205 -0.2505
 1337TIP3    H125646   6.406   0.569   1.541 -1.3079  0.8423 -1.4689
 1337TIP3    H225647   6.367   0.443   1.615  1.6032  0.6114 -0.1667
 1338TIP3   OH225648   2.886   2.970   7.080  0.1340  0.2614  0.6077
 1338TIP3    H125649   2.964   3.026   7.075  0.4109 -0.1751 -0.0485
 1338TIP3    H225650   2.907   2.894   7.027 -1.4241  0.9702 -1.1653
 1339TIP3   OH225651   4.983   3.567   8.123  0.1142  0.0371 -0.0222
 1339TIP3    H125652   4.908   3.624   8.140 -0.1691 -0.1318 -0.6470
 1339TIP3    H225653   5.025   3.556   8.208 -0.8704 -0.2789  0.4375
 1340TIP3   OH225654   5.104   6.561   8.134  0.3229  0.0480  0.5317
 1340TIP3    H125655   5.158   6.632   8.100  0.5956 -1.1942 -1.8617
 1340TIP3    H225656   5.016   6.599   8.141  0.6718  0.9149  0.3233
 1341TIP3   OH225657   4.931   4.222   6.507 -0.2830  0.0211 -0.8923
 1341TIP3    H125658   5.012   4.171   6.500 -0.2170 -0.1015  0.4804
 1341TIP3    H225659   4.941   4.273   6.588 -0.4947  1.9910 -2.0647
 1342TIP3   OH225660   1.979   3.192   8.013 -0.0494  0.7010 -0.0532
 1342TIP3    H125661   1.999   3.281   8.042 -3.3289  1.2817  0.8141
 1342TIP3    H225662   1.948   3.204   7.923  0.1545  0.3127 -0.1762
 1343TIP3   OH225663   1.366   0.103   8.222  0.0623  0.1487  0.1622
 1343TIP3    H125664   1.417   0.075   8.298 -1.3309 -0.1946  1.0083
 1343TIP3    H225665   1.366   0.199   8.226 -2.6795  0.1803  2.5544
 1344TIP3   OH225666   5.974   0.623   7.371 -0.0719 -0.2555 -0.2267
 1344TIP3    H125667   5.935   0.673   7.299  0.9438 -0.6376 -1.0483
 1344TIP3    H225668   5.960   0.532   7.348  2.5028 -0.4668 -1.2762
 1345TIP3   OH225669   5.422   4.089   2.454 -1.1766  0.6813 -0.2066
 1345TIP3    H125670   5.443   4.181   2.437 -2.2200  1.1941  1.0444
 1345TIP3    H225671   5.499   4.041   2.425 -0.6279  1.9507 -0.9328
 1346TIP3   OH225672   0.051   1.136   7.343 -0.2895 -0.0235  0.0508
 1346TIP3    H125673  -0.003   1.153   7.265  3.0069 -0.5486 -2.5666
 1346TIP3    H225674   0.072   1.223   7.377 -0.1280  0.3310 -0.9060
 1347TIP3   OH225675   0.408   4.206   1.382 -0.2207  0.3600  0.5739
 1347TIP3    H125676   0.498   4.197   1.415 -0.5900 -1.5958  1.2189
 1347TIP3    H225677   0.416   4.198   1.287  0.1355 -2.0570  0.7432
 1348TIP3   OH225678   0.594   0.645   6.639 -0.0040  0.2558 -0.4757
 1348TIP3    H125679   0.509   0.676   6.606 -0.4484  0.6868  0.9946
 1348TIP3    H225680   0.640   0.615   6.561 -1.5885 -0.1797 -1.2957
 1349TIP3   OH225681   4.766   2.123   0.093 -0.3017 -0.8301 -0.1073
 1349TIP3    H125682   4.775   2.214   0.119 -0.4825 -0.5810 -0.8966
 1349TIP3    H225683   4.671   2.110   0.085 -0.3150 -1.2723  0.6125
 1350TIP3   OH225684   3.178   1.929   1.675 -0.5397 -0.2402 -0.1332
 1350TIP3    H125685   3.104   1.930   1.614  0.8195  0.1224 -1.8549
 1350TIP3    H225686   3.199   1.836   1.686 -0.3259 -0.2789 -0.8348
 1351TIP3   OH225687   3.702   3.104   0.123  0.1255  0.2421  0.0129
 1351TIP3    H125688   3.784   3.139   0.159  0.9026 -1.1123 -0.4145
 1351TIP3    H225689   3.728   3.056   0.045 -1.3790  1.8209 -1.5322
 1352TIP3   OH225690   2.293   1.775   0.326 -0.2965 -0.3369 -0.1881
 1352TIP3    H125691   2.298   1.705   0.260 -1.8344 -0.4482 -0.2167
 1352TIP3    H225692   2.299   1.856   0.275 -2.3304 -0.4056 -0.6001
 1353TIP3   OH225693   1.464   4.797   0.884 -0.1760 -0.0743  0.5274
 1353TIP3    H125694   1.441   4.709   0.914 -0.1746 -0.3146 -0.1415
 1353TIP3    H225695   1.543   4.784   0.831 -0.8082  0.1551 -0.4941
 1354TIP3   OH225696   0.887   3.819   6.975 -0.3916  0.0407  0.1577
 1354TIP3    H125697   0.849   3.815   7.063  0.8496  0.8672  0.7631
 1354TIP3    H225698   0.981   3.815   6.990 -0.1289  0.9797 -1.0692
 1355TIP3   OH225699   6.703   4.251   7.563  0.0391  0.0980  0.7876
 1355TIP3    H125700   6.689   4.262   7.469  0.7439  1.5193  0.8282
 1355TIP3    H225701   6.670   4.163   7.582 -0.7657  0.0615 -0.6509
 1356TIP3   OH225702   1.491   1.220   0.387  0.5126  0.2034 -0.4769
 1356TIP3    H125703   1.578   1.182   0.370  0.4080 -0.0011 -0.5529
 1356TIP3    H225704   1.487   1.229   0.482  0.9595  1.0198 -0.5210
 1357TIP3   OH225705   3.656   3.909   0.082  0.0125  0.1141  0.1938
 1357TIP3    H125706   3.636   3.994   0.122  0.6497  0.8348 -0.9780
 1357TIP3    H225707   3.745   3.890   0.112 -0.1487 -0.1809  0.4976
 1358TIP3   OH225708   2.800   4.112   0.517  0.7650  0.0843 -0.2423
 1358TIP3    H125709   2.766   4.027   0.491  0.7163  0.4456 -1.4018
 1358TIP3    H225710   2.726   4.172   0.511  0.8331  0.2524  0.4204
 1359TIP3   OH225711   1.211   2.215   6.417 -0.3169 -0.2292  0.2742
 1359TIP3    H125712   1.284   2.252   6.467 -0.0233 -0.4870  0.0419
 1359TIP3    H225713   1.164   2.291   6.383  0.5974 -0.0559 -0.6560
 1360TIP3   OH225714   5.834   6.725   6.895 -0.2878 -0.7736  0.1689
 1360TIP3    H125715   5.886   6.699   6.818  0.6636 -0.5098  0.7089
 1360TIP3    H225716   5.747   6.744   6.860  0.7678  1.8696 -1.2854
 1361TIP3   OH225717   6.977   6.229   8.204  0.9652  0.1862 -0.5700
 1361TIP3    H125718   6.947   6.298   8.145 -0.2784 -0.2605 -0.4944
 1361TIP3    H225719   6.971   6.269   8.291  0.4934  0.0783 -0.5486
 1362TIP3   OH225720   3.809   6.587   1.163 -0.8583  0.0686  0.3086
 1362TIP3    H125721   3.899   6.614   1.142  0.2372 -2.6401  1.0797
 1362TIP3    H225722   3.781   6.647   1.232  1.1147 -0.1308  1.3657
 1363TIP3   OH225723   5.738   2.584   7.870  0.5772 -0.4282  0.2722
 1363TIP3    H125724   5.675   2.568   7.941 -2.1037 -0.8555 -2.0479
 1363TIP3    H225725   5.738   2.679   7.860  0.0558 -0.4377  0.1234
 1364TIP3   OH225726   5.644   5.321   7.858 -0.4312  0.5690 -0.0019
 1364TIP3    H125727   5.713   5.267   7.820  0.5074  0.6728  1.4959
 1364TIP3    H225728   5.688   5.375   7.923 -2.0707 -0.2281  1.8829
 1365TIP3   OH225729   1.809   5.923   0.029  0.1280 -0.1546  0.1275
 1365TIP3    H125730   1.734   5.867   0.051  1.9090 -2.6511  0.3059
 1365TIP3    H225731   1.853   5.937   0.113 -0.0294  1.1480  0.0001
 1366TIP3   OH225732   0.672   2.202   0.324 -0.2315 -0.4426 -0.4847
 1366TIP3    H125733   0.743   2.232   0.267 -0.1170 -1.4709 -0.9065
 1366TIP3    H225734   0.597   2.254   0.297  0.1560  0.0598 -0.6178
 1367TIP3   OH225735   2.689   3.732   8.396  0.0358  0.4967  0.4237
 1367TIP3    H125736   2.731   3.651   8.364 -2.2044  0.0963 -1.8567
 1367TIP3    H225737   2.646   3.705   8.477 -1.9063 -1.1207 -1.0301
 1368TIP3   OH225738   6.110   0.731   1.801  0.6585 -0.2963  0.2151
 1368TIP3    H125739   6.205   0.737   1.788  0.8346 -0.5900  1.2186
 1368TIP3    H225740   6.101   0.672   1.876 -0.3454 -0.6878 -0.2050
 1369TIP3   OH225741   4.204   2.292   1.024  0.2892  0.1616 -0.3037
 1369TIP3    H125742   4.256   2.211   1.032  1.6440  0.8626 -1.5612
 1369TIP3    H225743   4.117   2.261   0.998  1.4432 -0.8499 -3.4460
 1370TIP3   OH225744   0.418   4.542   0.781  0.0512 -0.0698  0.2582
 1370TIP3    H125745   0.324   4.557   0.794 -0.2421 -0.7101 -0.9354
 1370TIP3    H225746   0.426   4.523   0.687  1.5636  1.3068  0.0722
 1371TIP3   OH225747   1.217   1.107   7.882  0.1478  0.4824 -0.4156
 1371TIP3    H125748   1.152   1.177   7.887  0.9771  1.2156  0.7361
 1371TIP3    H225749   1.289   1.145   7.831  0.8233  0.6837  0.6544
 1372TIP3   OH225750   0.103   1.176   8.144 -0.2957  0.1450 -0.5993
 1372TIP3    H125751   0.189   1.203   8.112  0.3122 -1.1709 -0.1387
 1372TIP3    H225752   0.120   1.100   8.199 -1.8213 -0.5394 -1.0126
 1373TIP3   OH225753   4.475   4.872   7.397  0.3749  0.5728 -0.1522
 1373TIP3    H125754   4.480   4.838   7.308 -0.4114  2.0378 -0.7718
 1373TIP3    H225755   4.414   4.813   7.442 -0.4939  0.7761 -1.0399
 1374TIP3   OH225756   2.008   6.214   1.265 -0.3931 -0.1855  0.0854
 1374TIP3    H125757   2.053   6.145   1.314  1.7963  2.1272  1.6226
 1374TIP3    H225758   2.066   6.234   1.192  0.3149  1.5639  1.0349
 1375TIP3   OH225759   4.798   2.079   0.932 -0.4041  0.1957  0.3464
 1375TIP3    H125760   4.778   2.165   0.967  0.7466  0.5947  0.0638
 1375TIP3    H225761   4.825   2.095   0.841 -0.8521 -0.5400  0.0679
 1376TIP3   OH225762   1.641   6.151   8.447  0.3011  0.2074  0.3001
 1376TIP3    H125763   1.714   6.164   8.508 -0.0732 -0.6664  0.9643
 1376TIP3    H225764   1.567   6.194   8.491 -0.6532 -2.8048  1.9161
 1377TIP3   OH225765   0.008   2.844   0.850  0.1930 -0.1794  0.2343
 1377TIP3    H125766  -0.010   2.916   0.911  2.6174  0.7324 -0.0079
 1377TIP3    H225767   0.103   2.847   0.838  0.3876 -3.4383  0.1785
 1378TIP3   OH225768   6.106   0.451   0.401  0.7751  0.1699 -0.3006
 1378TIP3    H125769   6.075   0.396   0.329  1.6621 -1.3627  0.4350
 1378TIP3    H225770   6.096   0.397   0.479 -0.1327  1.7789  0.7588
 1379TIP3   OH225771   6.526   5.278   7.064 -0.0248  0.1668  0.2469
 1379TIP3    H125772   6.596   5.280   7.130  0.3672 -3.2251  0.1077
 1379TIP3    H225773   6.555   5.337   6.996  0.6797  1.9818  2.0261
 1380TIP3   OH225774   2.895   3.699   1.139 -0.1373  0.2309 -0.0223
 1380TIP3    H125775   2.808   3.739   1.132  0.5579  1.8546 -0.0468
 1380TIP3    H225776   2.905   3.677   1.231 -1.2878 -1.7608 -0.3327
 1381TIP3   OH225777   6.811   1.881   0.939  0.3089 -0.2479 -0.0655
 1381TIP3    H125778   6.736   1.940   0.936 -1.9930 -2.9995 -0.9132
 1381TIP3    H225779   6.837   1.881   1.031 -3.4867 -2.2256  1.2290
 1382TIP3   OH225780   2.210   6.992   7.884 -0.0823 -0.1923  0.1374
 1382TIP3    H125781   2.282   7.018   7.827 -0.9791 -0.3519 -1.1112
 1382TIP3    H225782   2.196   6.899   7.865 -0.4513 -0.2268  0.5541
 1383TIP3   OH225783   5.477   1.321   0.922 -0.6134  0.3497  0.4947
 1383TIP3    H125784   5.406   1.351   0.864 -0.8629  0.9713  1.1031
 1383TIP3    H225785   5.488   1.392   0.985  0.7993  0.4119  0.2116
 1384TIP3   OH225786   4.137   0.987   7.649 -0.1302 -0.3188 -0.4372
 1384TIP3    H125787   4.156   0.900   7.685 -0.7435 -0.3575 -0.1942
 1384TIP3    H225788   4.041   0.991   7.645 -0.0863 -0.4137 -2.3394
 1385TIP3   OH225789   6.546   2.440   8.028 -0.4179  0.0398 -0.3913
 1385TIP3    H125790   6.519   2.532   8.033  0.8714  0.4037  0.6886
 1385TIP3    H225791   6.574   2.419   8.118  0.1837 -1.1187 -0.8331
 1386TIP3   OH225792   2.779   2.935   8.455 -0.1450 -0.6907  0.3153
 1386TIP3    H125793   2.730   2.868   8.406 -0.1618 -0.9169  0.6348
 1386TIP3    H225794   2.720   3.010   8.458  0.4502 -0.1255 -1.3276
 1387TIP3   OH225795   4.485   6.867   0.398  0.0658  0.0143 -0.6097
 1387TIP3    H125796   4.400   6.890   0.437  1.1665  2.1668  0.7316
 1387TIP3    H225797   4.491   6.921   0.319 -0.0155 -0.5116 -0.9777
 1388TIP3   OH225798   3.755   0.439   6.550  0.3602 -0.0687  0.3662
 1388TIP3    H125799   3.697   0.368   6.521  1.1844 -0.0347 -1.4715
 1388TIP3    H225800   3.696   0.507   6.582 -0.5212 -0.7979  0.3194
 1389TIP3   OH225801   0.957   2.529   8.452 -0.1642  0.3261 -0.1586
 1389TIP3    H125802   0.913   2.463   8.505 -0.8531 -0.2590 -1.4270
 1389TIP3    H225803   0.901   2.540   8.375  0.2619  1.9302 -0.2898
 1390TIP3   OH225804   2.920   2.284   0.215  0.3939 -0.7223 -0.4868
 1390TIP3    H125805   2.888   2.237   0.293  1.5566  0.8228  0.9860
 1390TIP3    H225806   2.998   2.235   0.188  0.7952 -0.4715  0.1930
 1391TIP3   OH225807   2.240   6.618   2.470  0.3960  0.5058 -0.0753
 1391TIP3    H125808   2.158   6.640   2.514  0.1638 -1.0428  0.3447
 1391TIP3    H225809   2.289   6.700   2.468 -0.3214  1.0245  1.4962
 1392TIP3   OH225810   3.061   3.630   0.157  0.0183  0.3459  0.1420
 1392TIP3    H125811   3.105   3.623   0.241  0.5404  0.8199 -0.0917
 1392TIP3    H225812   2.973   3.595   0.174  0.4761 -0.6403  0.5983
 1393TIP3   OH225813   3.560   0.723   0.331 -0.6087  0.7516 -0.0977
 1393TIP3    H125814   3.551   0.810   0.293  0.4769  0.7279 -0.4497
 1393TIP3    H225815   3.492   0.719   0.399 -0.4618  1.9932  0.1481
 1394TIP3   OH225816   6.078   1.982   6.934  0.3721 -0.0655 -0.4829
 1394TIP3    H125817   6.037   1.925   7.000 -0.1469 -1.9478 -2.3237
 1394TIP3    H225818   6.037   2.067   6.948  1.6193  0.1420  2.7857
 1395TIP3   OH225819   1.701   0.571   7.565  0.2352  0.0891  0.4530
 1395TIP3    H125820   1.691   0.665   7.550  1.8571  0.3341  0.7533
 1395TIP3    H225821   1.662   0.530   7.488  0.5314  1.0426 -0.2194
 1396TIP3   OH225822   4.803   4.042   6.797  0.5938 -0.8347  0.2628
 1396TIP3    H125823   4.755   4.124   6.795  1.3767 -0.3730 -0.3882
 1396TIP3    H225824   4.750   3.982   6.744  1.4372  0.1100 -1.7917
 1397TIP3   OH225825   1.080   6.635   7.418 -0.1082 -0.6607 -0.0807
 1397TIP3    H125826   1.104   6.662   7.507  1.5012 -2.2674  0.0279
 1397TIP3    H225827   0.992   6.598   7.428  1.0189 -3.1631  1.4126
 1398TIP3   OH225828   0.413   4.675   6.777  0.4139 -0.4956 -0.2361
 1398TIP3    H125829   0.495   4.628   6.763  1.1774  0.5052  0.6875
 1398TIP3    H225830   0.386   4.703   6.690  1.1460 -0.7060 -0.5373
 1399TIP3   OH225831   0.901   4.320   0.352  0.0815 -0.6169 -0.2190
 1399TIP3    H125832   0.957   4.388   0.314 -0.5248  0.3259  0.5233
 1399TIP3    H225833   0.951   4.288   0.427  0.6284 -1.4368 -0.9103
 1400TIP3   OH225834   1.931   3.379   0.234  0.5084  0.2162 -0.8570
 1400TIP3    H125835   1.936   3.419   0.147  1.6699  1.4802 -0.2476
 1400TIP3    H225836   1.886   3.445   0.287  1.8945  0.4903  0.0256
 1401TIP3   OH225837   5.377   5.234   6.733  1.0734  0.1922  0.4243
 1401TIP3    H125838   5.356   5.320   6.769  0.6024 -0.3565  1.5032
 1401TIP3    H225839   5.355   5.172   6.803 -0.5918 -0.9921 -1.0696
 1402TIP3   OH225840   0.199   2.646   8.186 -0.4665 -0.0760  0.9440
 1402TIP3    H125841   0.212   2.718   8.247 -0.1101 -1.1670  2.2152
 1402TIP3    H225842   0.185   2.569   8.242  2.6339 -1.6737 -0.2299
 1403TIP3   OH225843   6.310   5.863   0.808 -0.2130 -0.0080  0.3524
 1403TIP3    H125844   6.282   5.940   0.858  0.1342  0.7025 -0.5242
 1403TIP3    H225845   6.236   5.844   0.751  0.8218  1.5991 -1.6470
 1404TIP3   OH225846   6.643   3.729   8.411  0.4899  0.9095 -0.2493
 1404TIP3    H125847   6.725   3.679   8.408  0.8111  1.2669  1.3932
 1404TIP3    H225848   6.654   3.788   8.486 -1.7934  0.0243  0.8906
 1405TIP3   OH225849   1.233   3.675   0.747  0.2926 -0.2769  0.6767
 1405TIP3    H125850   1.297   3.691   0.816  1.1021  1.4526 -0.3983
 1405TIP3    H225851   1.283   3.686   0.665 -1.2900  0.9286 -0.1978
 1406TIP3   OH225852   3.268   5.320   2.484 -0.3710 -0.4307 -1.0214
 1406TIP3    H125853   3.264   5.393   2.423 -0.7971  0.7942  0.4312
 1406TIP3    H225854   3.183   5.319   2.527  0.3944 -0.3541  0.5627
 1407TIP3   OH225855   4.267   5.030   6.830 -0.2163 -0.0982  0.2096
 1407TIP3    H125856   4.357   5.033   6.797 -0.3549  1.5048 -0.1010
 1407TIP3    H225857   4.217   4.987   6.761 -0.1533  1.4909 -0.8840
 1408TIP3   OH225858   2.843   5.786   7.345 -0.1756  0.2041  0.6370
 1408TIP3    H125859   2.864   5.842   7.420  0.2501  1.4940 -0.4012
 1408TIP3    H225860   2.748   5.794   7.335 -0.0457  1.3526  0.0836
 1409TIP3   OH225861   2.118   4.746   2.181  0.1039 -0.1844 -0.6067
 1409TIP3    H125862   2.157   4.716   2.099 -0.0279 -1.3499 -0.2483
 1409TIP3    H225863   2.069   4.671   2.214  0.8070  0.0020  0.9636
 1410TIP3   OH225864   0.495   6.983   7.513  0.5606  0.2990  0.2409
 1410TIP3    H125865   0.435   6.911   7.534  1.5396 -0.7100 -0.2795
 1410TIP3    H225866   0.479   7.002   7.421  0.9046  0.1596  0.1524
 1411TIP3   OH225867   2.040   3.499   7.526 -0.2258 -0.1807  0.9903
 1411TIP3    H125868   2.121   3.487   7.575 -0.7357  3.1085  2.9562
 1411TIP3    H225869   2.007   3.410   7.512  2.0528 -1.4738  3.0391
 1412TIP3   OH225870   6.578   4.796   0.567  0.1277  0.1970  0.0334
 1412TIP3    H125871   6.581   4.765   0.658 -1.6430 -2.4663 -0.6959
 1412TIP3    H225872   6.657   4.758   0.527  1.8325  2.7461  0.7141
 1413TIP3   OH225873   1.861   6.950   7.275 -0.0552  0.5630 -0.6136
 1413TIP3    H125874   1.895   6.943   7.365  0.2453 -0.1711 -0.7734
 1413TIP3    H225875   1.861   7.043   7.257  0.6149  0.6729 -0.1192
 1414TIP3   OH225876   4.337   1.257   8.214 -0.4427 -0.5334 -0.3469
 1414TIP3    H125877   4.250   1.270   8.251 -0.6481 -0.5346 -0.8164
 1414TIP3    H225878   4.337   1.165   8.185 -0.0173 -0.7593  0.3341
 1415TIP3   OH225879   3.184   2.926   0.394 -0.3398  0.0889 -0.9342
 1415TIP3    H125880   3.097   2.962   0.379 -1.1865 -0.2842  2.3465
 1415TIP3    H225881   3.170   2.834   0.416  1.1616 -0.5986 -2.5518
 1416TIP3   OH225882   3.884   2.073   8.079 -0.3111  0.4930 -0.1203
 1416TIP3    H125883   3.948   2.131   8.122 -1.0736  0.7637  0.6806
 1416TIP3    H225884   3.895   2.090   7.986 -0.8510  2.2978  0.1157
 1417TIP3   OH225885   1.365   2.064   0.836 -0.6558 -0.0456 -0.7271
 1417TIP3    H125886   1.413   2.013   0.900 -0.8807 -1.2242 -1.4697
 1417TIP3    H225887   1.277   2.072   0.872 -0.2650  1.0527  0.0461
 1418TIP3   OH225888   2.056   6.625   1.262 -0.1412  0.1511 -0.4733
 1418TIP3    H125889   2.092   6.712   1.276 -1.8642  0.7400  0.5422
 1418TIP3    H225890   2.099   6.571   1.329  0.3682  0.3835 -0.6085
 1419TIP3   OH225891   2.234   1.251   0.951  0.1498  0.5251 -0.3399
 1419TIP3    H125892   2.311   1.255   1.008  0.4036 -2.2928 -0.3144
 1419TIP3    H225893   2.177   1.186   0.994 -1.9625  2.0191 -0.7231
 1420TIP3   OH225894   3.386   0.929   0.046 -0.5556 -0.3205  0.4362
 1420TIP3    H125895   3.413   0.929   0.138 -2.5014  3.2061  1.1869
 1420TIP3    H225896   3.450   0.987   0.003 -0.2865 -1.1033 -0.2420
 1421TIP3   OH225897   1.174   2.449   7.375  0.0732 -0.2436  0.0603
 1421TIP3    H125898   1.097   2.417   7.422  0.5492  0.3733  1.3128
 1421TIP3    H225899   1.165   2.545   7.379  0.9249 -0.1661  0.2701
 1422TIP3   OH225900   5.680   1.437   7.845  0.5463  0.6719 -0.3133
 1422TIP3    H125901   5.728   1.462   7.766  3.1092 -1.4251  0.4435
 1422TIP3    H225902   5.666   1.342   7.835  0.5870  0.4394  1.5737
 1423TIP3   OH225903   5.552   4.285   6.921 -0.1738 -0.3512 -0.1212
 1423TIP3    H125904   5.559   4.223   6.848  0.1402 -1.2547  0.6531
 1423TIP3    H225905   5.531   4.230   6.997  1.9575  0.2253  0.9754
 1424TIP3   OH225906   3.309   5.454   8.428  0.2196 -0.0658 -0.5055
 1424TIP3    H125907   3.353   5.430   8.346  0.7384 -1.3365  0.1217
 1424TIP3    H225908   3.229   5.400   8.428  0.3689 -0.2895 -0.0485
 1425TIP3   OH225909   1.253   1.252   8.242 -0.1814 -0.0348 -0.1218
 1425TIP3    H125910   1.299   1.316   8.188  0.2877 -1.2114 -1.1488
 1425TIP3    H225911   1.292   1.168   8.220 -0.4329 -0.6457  1.5801
 1426TIP3   OH225912   3.742   0.975   6.651  0.0583 -0.2650 -0.0074
 1426TIP3    H125913   3.666   0.919   6.669 -0.3210  0.6064  1.2245
 1426TIP3    H225914   3.796   0.967   6.729  0.2462  0.6829 -0.0385
 1427TIP3   OH225915   6.109   2.055   0.642 -0.2284 -0.6375  0.4103
 1427TIP3    H125916   6.186   2.029   0.591 -0.5548  0.5679 -0.7305
 1427TIP3    H225917   6.133   2.035   0.732  0.3850 -2.7880 -0.1635
 1428TIP3   OH225918   5.183   1.906   7.241 -0.1789  0.0816 -0.2849
 1428TIP3    H125919   5.141   1.977   7.290 -0.9329 -1.2353  1.0572
 1428TIP3    H225920   5.272   1.938   7.225 -0.7639  1.6814 -0.5016
 1429TIP3   OH225921   2.429   1.714   1.792  0.0896 -0.4696 -0.1870
 1429TIP3    H125922   2.420   1.808   1.803  0.7817 -0.4400  0.2019
 1429TIP3    H225923   2.436   1.680   1.882  3.2668 -0.5088 -0.3463
 1430TIP3   OH225924   5.527   1.255   8.143  0.1962  0.2135  0.6980
 1430TIP3    H125925   5.578   1.328   8.107  2.4173 -1.7369 -0.4053
 1430TIP3    H225926   5.454   1.244   8.082  1.9639 -0.8071 -1.3653
 1431TIP3   OH225927   4.665   0.486   8.284  0.5207  0.1047  0.3137
 1431TIP3    H125928   4.573   0.460   8.283  0.1193  1.4077 -1.4516
 1431TIP3    H225929   4.711   0.411   8.248  0.0489 -0.2196  0.3747
 1432TIP3   OH225930   6.641   2.268   0.048 -0.1950  0.2014  0.1403
 1432TIP3    H125931   6.689   2.323   0.109 -0.4808  2.1082 -1.2609
 1432TIP3    H225932   6.564   2.239   0.098 -0.3384  1.5717  0.7677
 1433TIP3   OH225933   5.276   5.403   6.294  0.1922  0.0626  0.6276
 1433TIP3    H125934   5.250   5.476   6.239 -0.0125  0.4634  1.2472
 1433TIP3    H225935   5.348   5.438   6.348 -0.5036  0.0930  1.5646
 1434TIP3   OH225936   5.686   4.022   0.755  0.0694  0.0187 -0.2280
 1434TIP3    H125937   5.627   3.948   0.745  0.7932 -0.4756 -0.9392
 1434TIP3    H225938   5.764   3.985   0.796 -0.5074  0.8760  1.7710
 1435TIP3   OH225939   3.634   6.745   2.327 -0.0569  0.0862  0.5235
 1435TIP3    H125940   3.602   6.655   2.314  1.0104 -0.3648  0.8887
 1435TIP3    H225941   3.696   6.759   2.255  0.3451  0.2505  0.8956
 1436TIP3   OH225942   0.274   2.379   1.539 -0.1057 -0.0194  0.1509
 1436TIP3    H125943   0.238   2.466   1.525  1.6727  0.5160 -1.5890
 1436TIP3    H225944   0.290   2.345   1.451  2.2959 -0.7377  0.7865
 1437TIP3   OH225945   1.749   1.870   2.298  0.2478 -0.1014  0.2903
 1437TIP3    H125946   1.823   1.881   2.358 -0.0103 -2.0754  1.0436
 1437TIP3    H225947   1.772   1.922   2.221  2.4717 -0.7374  0.4536
 1438TIP3   OH225948   3.380   5.998   7.833 -0.3203 -0.0298 -0.1523
 1438TIP3    H125949   3.363   5.904   7.823  2.2722 -0.4689 -1.1763
 1438TIP3    H225950   3.316   6.027   7.899 -1.3007 -2.4491  0.0674
 1439TIP3   OH225951   0.003   6.208   1.761 -0.5004 -0.2209  0.1632
 1439TIP3    H125952   0.049   6.135   1.800 -1.7352 -1.0545  0.1211
 1439TIP3    H225953  -0.071   6.168   1.715 -1.6956  1.0943  0.8480
 1440TIP3   OH225954   3.858   5.021   7.524 -0.3252  0.2415  0.6566
 1440TIP3    H125955   3.811   4.958   7.470  1.9158 -1.3461  0.4217
 1440TIP3    H225956   3.820   5.106   7.501 -2.3811 -0.8389 -0.1542
 1441TIP3   OH225957   3.667   4.965   0.030 -0.4423  0.0839  0.0090
 1441TIP3    H125958   3.572   4.963   0.040 -0.6541  1.4890 -1.2486
 1441TIP3    H225959   3.681   4.957  -0.065  0.7704 -1.2355  0.2683
 1442TIP3   OH225960   6.719   0.799   0.357  0.0987  0.0185 -0.6501
 1442TIP3    H125961   6.716   0.743   0.435 -0.2547  0.4363 -0.3574
 1442TIP3    H225962   6.812   0.802   0.333  0.3442  0.6377  0.3128
 1443TIP3   OH225963   6.479   6.090   6.268  0.0845  0.3971  0.7623
 1443TIP3    H125964   6.449   6.125   6.184 -0.4218  0.0340  0.7877
 1443TIP3    H225965   6.562   6.134   6.284  0.5319 -0.0435 -0.2736
 1444TIP3   OH225966   4.716   5.334   1.479  0.3352 -0.5790  0.1423
 1444TIP3    H125967   4.641   5.354   1.423  1.8676 -0.8879 -2.1712
 1444TIP3    H225968   4.748   5.420   1.507 -0.2151 -0.3910  0.2031
 1445TIP3   OH225969   5.209   3.415   6.939 -0.2515  0.2763 -0.2830
 1445TIP3    H125970   5.193   3.386   6.849 -0.4293 -0.1419 -0.1198
 1445TIP3    H225971   5.207   3.511   6.934 -3.4930  0.3225 -0.1986
 1446TIP3   OH225972   1.641   1.054   1.912  0.2851 -0.2987 -0.0162
 1446TIP3    H125973   1.671   1.131   1.960 -1.0871  0.3829 -0.2011
 1446TIP3    H225974   1.611   0.993   1.979 -0.9837  0.3708  0.0460
 1447TIP3   OH225975   1.468   3.698   7.928 -0.2362  0.0537 -0.1429
 1447TIP3    H125976   1.459   3.651   7.845 -1.3464 -0.6556  0.3595
 1447TIP3    H225977   1.524   3.773   7.907  0.9734 -1.0865 -1.1211
 1448TIP3   OH225978   2.573   5.581   7.092  0.1415 -0.0069 -0.7186
 1448TIP3    H125979   2.596   5.492   7.116 -0.5658  0.2724  1.1626
 1448TIP3    H225980   2.485   5.574   7.054 -0.9741  0.0888  1.6418
 1449TIP3   OH225981   4.032   5.881   8.170  0.4549  0.6262 -0.0058
 1449TIP3    H125982   3.948   5.847   8.138 -0.0878 -1.3820  3.1265
 1449TIP3    H225983   4.013   5.969   8.202 -0.4695  0.2077  0.6201
 1450TIP3   OH225984   0.528   5.131   8.216  0.0327 -0.3310 -0.1476
 1450TIP3    H125985   0.508   5.191   8.143  0.5932 -0.0518 -0.0773
 1450TIP3    H225986   0.551   5.189   8.288  0.2323 -0.6270  0.0267
 1451TIP3   OH225987   1.970   6.484   1.784  0.3685 -0.7657  0.0740
 1451TIP3    H125988   1.920   6.559   1.753 -0.6797 -1.8740 -1.0180
 1451TIP3    H225989   2.062   6.509   1.769  0.0787  0.5796  0.4383
 1452TIP3   OH225990   6.639   3.655   6.697  0.7751 -0.5757 -0.0326
 1452TIP3    H125991   6.557   3.705   6.698 -0.0547 -1.8318 -1.1550
 1452TIP3    H225992   6.643   3.613   6.782 -0.3437 -1.3715 -0.3448
 1453TIP3   OH225993   4.444   1.635   0.944 -0.4759 -0.4594  0.1560
 1453TIP3    H125994   4.424   1.543   0.927  0.6315 -0.4361 -1.4057
 1453TIP3    H225995   4.511   1.633   1.012  0.7763 -0.9085 -1.0487
 1454TIP3   OH225996   5.787   4.166   0.268  0.2467  0.2154 -0.0895
 1454TIP3    H125997   5.709   4.132   0.226 -0.1960 -2.1276  2.3472
 1454TIP3    H225998   5.852   4.096   0.259  1.1421  0.9631  0.3418
 1455TIP3   OH225999   6.101   2.317   0.765 -0.3834  0.2207 -0.3044
 1455TIP3    H126000   6.043   2.385   0.730  0.3363  0.5333 -0.9237
 1455TIP3    H226001   6.105   2.251   0.696  0.6511  0.6001 -0.6186
 1456TIP3   OH226002   2.844   2.693   8.097  0.3690 -0.0173  0.2177
 1456TIP3    H126003   2.791   2.686   8.177  2.8138  0.9651  2.0413
 1456TIP3    H226004   2.895   2.612   8.095  1.9594  0.9134  0.9868
 1457TIP3   OH226005   4.978   3.982   7.011 -0.2366 -0.0403 -0.4525
 1457TIP3    H126006   4.955   3.997   6.919 -0.0052  0.9986 -0.3615
 1457TIP3    H226007   5.045   4.049   7.030 -1.4617  0.8668  0.9189
 1458TIP3   OH226008   4.823   2.424   7.359  0.4900 -0.2999  0.2066
 1458TIP3    H126009   4.800   2.359   7.425  0.9974 -0.1639  0.5299
 1458TIP3    H226010   4.804   2.382   7.275  1.4139 -1.1095  0.3871
 1459TIP3   OH226011   1.226   1.979   2.149 -0.2761  0.2355 -0.5973
 1459TIP3    H126012   1.314   1.950   2.173 -1.0830 -1.4663  0.5173
 1459TIP3    H226013   1.174   1.899   2.148 -1.3642  0.8440 -3.5710
 1460TIP3   OH226014   5.550   0.602   0.824  0.0570  0.2265  0.3117
 1460TIP3    H126015   5.568   0.681   0.875  0.1604  0.6842 -0.4302
 1460TIP3    H226016   5.456   0.607   0.804 -0.3892 -0.8299  1.9148
 1461TIP3   OH226017   0.649   5.436   7.748  0.7966 -0.3090  0.1838
 1461TIP3    H126018   0.682   5.347   7.761  1.4443 -0.2141 -0.7666
 1461TIP3    H226019   0.673   5.482   7.829  1.1944 -0.7712  0.3321
 1462TIP3   OH226020   2.015   3.099   6.566  0.0391  0.2695  0.1286
 1462TIP3    H126021   1.973   3.018   6.537 -1.9824  1.8753 -1.7737
 1462TIP3    H226022   1.968   3.124   6.646  0.3761 -0.1869  0.4745
 1463TIP3   OH226023   5.303   6.509   2.634  0.1245  0.0556 -0.0717
 1463TIP3    H126024   5.395   6.494   2.611  0.4806  2.9902 -1.0598
 1463TIP3    H226025   5.289   6.603   2.616 -3.2551 -0.4110 -0.5875
 1464TIP3   OH226026   5.129   1.269   7.817  0.2833 -0.7598  0.2293
 1464TIP3    H126027   5.153   1.254   7.725  0.3333  1.1408 -0.1095
 1464TIP3    H226028   5.213   1.264   7.863  0.3352 -1.1853  0.0958
 1465TIP3   OH226029   6.885   6.631   0.336  0.0782  0.3079 -0.0316
 1465TIP3    H126030   6.868   6.612   0.428 -0.0509  0.3450 -0.0481
 1465TIP3    H226031   6.979   6.618   0.326  0.1820  0.8343  0.2346
 1466TIP3   OH226032   1.886   6.060   1.862 -0.1297 -0.4308  0.0273
 1466TIP3    H126033   1.935   6.032   1.939  1.1088 -1.2222 -1.0221
 1466TIP3    H226034   1.812   5.999   1.858 -1.1323  0.6148  1.4716
 1467TIP3   OH226035   6.542   2.284   7.717  0.8907 -0.0716 -0.6355
 1467TIP3    H126036   6.558   2.211   7.776  0.2706 -0.5936 -1.1048
 1467TIP3    H226037   6.520   2.357   7.775  2.1834 -0.0475 -0.1211
 1468TIP3   OH226038   1.248   1.941   7.982  0.5390  0.1348 -0.1530
 1468TIP3    H126039   1.281   1.851   7.982  1.1649  0.3276  1.5581
 1468TIP3    H226040   1.186   1.944   7.908  1.1594 -1.4308 -0.7825
 1469TIP3   OH226041   0.747   3.837   7.211  0.2826 -0.5698 -0.3663
 1469TIP3    H126042   0.786   3.764   7.259  2.0471  0.3626 -0.3149
 1469TIP3    H226043   0.709   3.893   7.279  2.6039  0.6480  0.0210
 1470TIP3   OH226044   6.715   3.387   7.660  0.5166 -0.1631 -0.3819
 1470TIP3    H126045   6.628   3.425   7.650  1.0480  1.2840  0.2043
 1470TIP3    H226046   6.703   3.316   7.723 -0.7017 -1.7708 -2.3082
 1471TIP3   OH226047   6.465   4.627   1.852  0.1385  0.6282 -0.1080
 1471TIP3    H126048   6.560   4.639   1.860  0.4635 -2.0035  1.3333
 1471TIP3    H226049   6.431   4.652   1.938  0.0122 -1.3503  0.4907
 1472TIP3   OH226050   4.509   0.587   6.417  0.0408 -0.1153  0.5998
 1472TIP3    H126051   4.582   0.526   6.426 -0.0608 -0.2972  0.1779
 1472TIP3    H226052   4.534   0.662   6.471  0.8952  0.1571 -0.1506
 1473TIP3   OH226053   1.583   5.224   2.519  0.1717 -0.6011 -0.4213
 1473TIP3    H126054   1.629   5.143   2.497 -0.1094 -0.6479 -0.8495
 1473TIP3    H226055   1.506   5.195   2.569  1.3731 -0.4295  1.6503
 1474TIP3   OH226056   4.692   3.479   7.921  0.0966 -0.3288 -0.1672
 1474TIP3    H126057   4.784   3.451   7.917 -0.6178 -2.8520 -0.7206
 1474TIP3    H226058   4.671   3.508   7.832  0.3148  0.2003 -0.0525
 1475TIP3   OH226059   5.371   5.891   7.375 -0.4733  0.1145 -0.2574
 1475TIP3    H126060   5.280   5.866   7.391 -0.3796  0.9729  1.9540
 1475TIP3    H226061   5.422   5.813   7.396 -0.6095  0.0765 -0.0672
 1476TIP3   OH226062   3.547   5.634   0.029  0.0942 -0.8653 -0.4067
 1476TIP3    H126063   3.540   5.624  -0.066 -0.9438  0.3609 -0.4864
 1476TIP3    H226064   3.489   5.567   0.064 -1.1776  0.0396 -0.7198
 1477TIP3   OH226065   0.795   2.295   7.059  0.1593 -0.1976  0.9718
 1477TIP3    H126066   0.700   2.288   7.070 -0.0485 -0.4699 -0.7951
 1477TIP3    H226067   0.817   2.381   7.095 -0.7271 -0.1701  1.4893
 1478TIP3   OH226068   0.143   4.602   8.037  0.2959 -0.2193  0.0058
 1478TIP3    H126069   0.229   4.643   8.043 -0.3201  1.2088 -0.3747
 1478TIP3    H226070   0.088   4.652   8.096 -0.5442 -0.3479 -0.6404
 1479TIP3   OH226071   1.655   5.867   0.495  0.2897 -0.2637 -0.3565
 1479TIP3    H126072   1.617   5.927   0.430 -0.8971  1.1226  1.4997
 1479TIP3    H226073   1.579   5.832   0.541  1.1102  0.7542  1.9101
 1480TIP3   OH226074   5.577   1.749   8.284  0.4337  0.1152 -0.0913
 1480TIP3    H126075   5.639   1.717   8.218 -0.6496 -3.0673  0.2700
 1480TIP3    H226076   5.508   1.792   8.233 -0.3920 -2.3058 -1.1450
 1481TIP3   OH226077   0.606   0.828   0.807  0.4359  0.1717 -0.1288
 1481TIP3    H126078   0.544   0.852   0.876  1.0132 -1.9639  1.2469
 1481TIP3    H226079   0.551   0.803   0.733 -0.2876  0.1546  0.4009
 1482TIP3   OH226080   5.406   6.603   8.105  0.2243  0.3739  0.1831
 1482TIP3    H126081   5.433   6.526   8.154 -1.0303  1.0002  1.9672
 1482TIP3    H226082   5.328   6.575   8.056 -1.5527  0.9848  2.5166
 1483TIP3   OH226083   2.183   2.403   0.172 -0.1962 -0.4013 -0.1346
 1483TIP3    H126084   2.166   2.364   0.086 -0.8823 -3.0029  1.0629
 1483TIP3    H226085   2.198   2.327   0.229  1.5764  1.2883  1.7838
 1484TIP3   OH226086   2.909   1.991   6.850 -0.2934  0.7123 -0.6367
 1484TIP3    H126087   2.998   2.017   6.874 -0.3533  1.7395 -1.4495
 1484TIP3    H226088   2.876   1.945   6.927  1.0148  0.0990 -0.4191
 1485TIP3   OH226089   6.203   3.513   7.672 -0.0778  0.0584 -1.2231
 1485TIP3    H126090   6.114   3.477   7.667 -0.1803  0.3524 -1.5516
 1485TIP3    H226091   6.211   3.568   7.594  0.0071  0.9095 -0.6160
 1486TIP3   OH226092   4.577   5.325   6.913  0.5445 -0.1420  0.4054
 1486TIP3    H126093   4.647   5.283   6.862  0.3007  1.3606 -1.2571
 1486TIP3    H226094   4.606   5.317   7.004  1.0392 -2.8449  0.0958
 1487TIP3   OH226095   0.967   3.571   0.761 -0.1735 -0.0101  0.1470
 1487TIP3    H126096   1.058   3.577   0.734 -0.4789  1.4713 -0.6612
 1487TIP3    H226097   0.927   3.511   0.697  0.0706 -0.0753  0.0551
 1488TIP3   OH226098   5.211   5.042   1.741  0.2405  0.1458 -0.1705
 1488TIP3    H126099   5.203   5.013   1.832  1.3261 -0.1205 -0.1420
 1488TIP3    H226100   5.132   5.008   1.698  0.6872 -1.5085  0.2257
 1489TIP3   OH226101   2.159   2.126   7.353  0.1591  0.1945  0.6849
 1489TIP3    H126102   2.244   2.138   7.396 -0.0032 -0.4495  1.2144
 1489TIP3    H226103   2.112   2.208   7.369  1.7765  1.8491 -2.2863
 1490TIP3   OH226104   4.247   6.315   6.625 -0.5731 -0.2783  0.0916
 1490TIP3    H126105   4.182   6.297   6.557 -0.3182  0.9223 -0.4765
 1490TIP3    H226106   4.197   6.360   6.694 -0.2712  1.0534 -0.5413
 1491TIP3   OH226107   1.640   1.865   8.045 -0.3094  0.4269 -0.0391
 1491TIP3    H126108   1.719   1.857   8.098 -0.7973  0.0714  0.6583
 1491TIP3    H226109   1.639   1.956   8.016  0.3772  0.4180 -0.0965
 1492TIP3   OH226110   6.107   4.808   7.521 -0.1842  0.5969  0.6068
 1492TIP3    H126111   6.068   4.763   7.447  0.1106  0.2486  0.6595
 1492TIP3    H226112   6.166   4.744   7.560 -1.1633  0.3917  1.8164
 1493TIP3   OH226113   0.547   4.133   7.353  0.6595 -0.2675  0.0979
 1493TIP3    H126114   0.520   4.166   7.439  1.7958 -0.4703  0.5452
 1493TIP3    H226115   0.517   4.042   7.353  2.6668 -0.9886  1.2431
 1494TIP3   OH226116   6.540   4.887   8.037  0.7339 -0.2364  0.9224
 1494TIP3    H126117   6.628   4.924   8.033  0.0845  1.6234  2.0476
 1494TIP3    H226118   6.532   4.854   8.127 -0.0741  0.6616  1.1976
 1495TIP3   OH226119   3.046   0.149   7.585  0.5087 -0.3891 -0.1001
 1495TIP3    H126120   3.092   0.110   7.659  1.6484 -0.3152 -0.7425
 1495TIP3    H226121   2.954   0.132   7.603  0.6293  0.7654  1.9925
 1496TIP3   OH226122   4.082   0.257   0.433  0.5680  0.0914 -0.5660
 1496TIP3    H126123   4.014   0.230   0.371  0.3599  0.4425 -0.4911
 1496TIP3    H226124   4.057   0.216   0.516  0.3695  0.3377 -0.5038
 1497TIP3   OH226125   3.796   6.335   2.064 -0.3921  0.6404 -0.1465
 1497TIP3    H126126   3.870   6.300   2.114  0.6505  1.8590 -0.7929
 1497TIP3    H226127   3.757   6.401   2.121 -0.0427  1.0605 -0.3860
 1498TIP3   OH226128   4.584   3.245   2.926 -0.2446  0.0751 -0.3086
 1498TIP3    H126129   4.601   3.151   2.936  1.9673  0.2912 -1.4205
 1498TIP3    H226130   4.520   3.251   2.856 -0.3475 -0.6113 -0.2757
 1499TIP3   OH226131   5.825   1.504   0.815  0.3331 -0.1699  0.0598
 1499TIP3    H126132   5.780   1.421   0.827 -0.4710  0.1559 -0.5758
 1499TIP3    H226133   5.916   1.480   0.800 -0.0902 -1.0385 -1.3456
 1500TIP3   OH226134   5.334   2.229   7.599 -0.1249  0.0517 -0.5655
 1500TIP3    H126135   5.346   2.217   7.505 -0.1080  1.2510 -0.7206
 1500TIP3    H226136   5.314   2.321   7.610 -0.8213 -0.2118  0.5482
 1501TIP3   OH226137   1.690   5.411   0.057  0.0589  0.6633  0.3198
 1501TIP3    H126138   1.708   5.489   0.005 -0.3516  1.6223  1.5637
 1501TIP3    H226139   1.743   5.422   0.136 -0.6470  0.1075  0.8817
 1502TIP3   OH226140   0.860   4.213   8.217  0.2022 -0.3759  0.2093
 1502TIP3    H126141   0.831   4.249   8.301 -2.0370  0.3424 -0.8058
 1502TIP3    H226142   0.952   4.239   8.210 -0.7729  3.8059  0.3106
 1503TIP3   OH226143   4.854   2.724   8.413 -0.8717  0.5204  0.5216
 1503TIP3    H126144   4.818   2.643   8.451 -0.6057  0.0376 -0.2322
 1503TIP3    H226145   4.794   2.792   8.442 -0.9813  0.0859  1.3518
 1504TIP3   OH226146   2.515   0.361   2.518 -0.3559  0.4564 -0.1776
 1504TIP3    H126147   2.459   0.438   2.522 -0.7579  0.1476  2.2352
 1504TIP3    H226148   2.600   0.392   2.549 -0.7432 -0.1678  1.6434
 1505TIP3   OH226149   1.829   6.701   8.141 -0.0898  0.1026 -0.1299
 1505TIP3    H126150   1.850   6.608   8.132  0.8161  0.0071  2.3255
 1505TIP3    H226151   1.767   6.705   8.213  0.2716  1.4435  0.1344
 1506TIP3   OH226152   2.881   3.142   2.400  0.0932  0.0510 -0.1154
 1506TIP3    H126153   2.935   3.221   2.393  0.7993 -0.4766 -0.8790
 1506TIP3    H226154   2.804   3.161   2.346  0.4818  0.0479 -0.6778
 1507TIP3   OH226155   3.826   5.474   7.554 -0.1708 -0.4991 -0.0051
 1507TIP3    H126156   3.865   5.540   7.611 -1.1193 -0.4893  0.6513
 1507TIP3    H226157   3.892   5.405   7.548 -0.1196 -0.5773  1.2437
 1508TIP3   OH226158   2.897   3.009   2.088  0.3669  0.2511  0.3200
 1508TIP3    H126159   2.871   3.101   2.082  0.4401  0.2701  0.2918
 1508TIP3    H226160   2.929   2.988   2.000  0.0093  0.0960  0.2275
 1509TIP3   OH226161   2.921   5.515   0.759 -0.4338  0.4592 -0.3734
 1509TIP3    H126162   2.923   5.449   0.690 -1.0308 -0.8312  0.7930
 1509TIP3    H226163   2.857   5.482   0.822 -0.0072  1.6572  0.7411
 1510TIP3   OH226164   5.982   2.991   8.067 -0.5440  0.8173 -0.1105
 1510TIP3    H126165   6.017   3.078   8.049 -0.6652  1.2473  1.5601
 1510TIP3    H226166   6.039   2.931   8.018  0.9916  1.6670  0.5760
 1511TIP3   OH226167   0.870   0.758   0.384  0.5146  0.0249 -0.2566
 1511TIP3    H126168   0.898   0.710   0.306 -0.2717  1.4858 -1.4843
 1511TIP3    H226169   0.900   0.847   0.370 -0.8649  0.6373  0.4206
 1512TIP3   OH226170   0.441   5.822   1.867  0.0114 -0.3370 -0.0276
 1512TIP3    H126171   0.497   5.760   1.914 -0.3886 -1.3046 -0.7855
 1512TIP3    H226172   0.353   5.805   1.901 -0.0106  0.2962  0.2471
 1513TIP3   OH226173   6.998   5.904   7.520 -0.5270  0.3098  0.0417
 1513TIP3    H126174   6.964   5.825   7.562  1.4278 -1.2572 -1.1152
 1513TIP3    H226175   7.046   5.949   7.589  0.5504 -0.9243  0.1362
 1514TIP3   OH226176   3.150   5.877   1.654  0.7222 -0.2416  0.0767
 1514TIP3    H126177   3.220   5.851   1.714  1.4254 -2.6971 -1.6815
 1514TIP3    H226178   3.077   5.820   1.677 -0.8383  2.2512  1.8502
 1515TIP3   OH226179   0.977   1.397   1.076 -0.0335 -0.1799  0.0753
 1515TIP3    H126180   1.052   1.349   1.043  0.4775  0.7086 -0.0752
 1515TIP3    H226181   0.903   1.338   1.063  0.6896 -1.2335  0.6242
 1516TIP3   OH226182   4.209   6.069   7.105 -0.1850 -0.4947  0.1728
 1516TIP3    H126183   4.154   5.991   7.115 -3.4918  1.8200  1.7453
 1516TIP3    H226184   4.192   6.099   7.016 -1.6759  0.2989  0.7051
 1517TIP3   OH226185   4.071   4.965   1.851  0.4694  0.1364  0.4853
 1517TIP3    H126186   4.152   4.986   1.897  0.8034  0.8813 -0.4241
 1517TIP3    H226187   4.067   4.869   1.852  0.9118  0.1255  1.2973
 1518TIP3   OH226188   6.267   3.233   6.485  0.3203 -0.1008  0.4073
 1518TIP3    H126189   6.227   3.315   6.514  0.0622 -0.5807  1.4633
 1518TIP3    H226190   6.361   3.248   6.496  0.4713  0.9396 -1.8470
 1519TIP3   OH226191   6.997   6.695   1.404  0.2474 -0.0393 -0.1271
 1519TIP3    H126192   6.984   6.655   1.318  2.1829 -1.0624  0.0053
 1519TIP3    H226193   6.930   6.764   1.409 -0.2353 -0.2988 -2.2196
 1520TIP3   OH226194   6.446   5.623   7.649 -0.3377  0.4401  0.4092
 1520TIP3    H126195   6.374   5.589   7.595  0.2106 -1.0690  0.5901
 1520TIP3    H226196   6.496   5.545   7.674  0.1259  1.2299  2.0822
 1521TIP3   OH226197   6.160   2.653   0.534 -0.0099  0.8214 -0.7932
 1521TIP3    H126198   6.188   2.655   0.625 -0.6366 -1.0125 -0.5264
 1521TIP3    H226199   6.162   2.561   0.509 -0.4721  1.2133 -2.4388
 1522TIP3   OH226200   1.045   1.740   0.116 -0.3298 -0.0508 -0.3336
 1522TIP3    H126201   1.059   1.698   0.200 -0.1966 -1.0642 -0.8490
 1522TIP3    H226202   0.951   1.755   0.111 -0.2482  0.7844  0.3382
 1523TIP3   OH226203   4.821   0.701   2.330 -1.0212  1.1164 -0.2061
 1523TIP3    H126204   4.893   0.703   2.393 -0.2160  2.3824 -1.1218
 1523TIP3    H226205   4.742   0.694   2.384 -0.4210  3.0292  1.0515
 1524TIP3   OH226206   3.880   1.900   1.696  0.0590  0.0542  0.2135
 1524TIP3    H126207   3.968   1.862   1.708  1.0693  1.6131 -1.6285
 1524TIP3    H226208   3.843   1.903   1.784  1.0359 -2.4665  0.8003
 1525TIP3   OH226209   4.778   5.244   8.059 -0.2740  0.0827 -0.2148
 1525TIP3    H126210   4.735   5.177   8.113  0.3134 -1.2678 -1.3660
 1525TIP3    H226211   4.812   5.307   8.122 -2.1393  0.1167  0.8357
 1526TIP3   OH226212   6.269   4.309   7.916 -0.2400 -0.3472 -0.3450
 1526TIP3    H126213   6.287   4.251   7.990  0.3141 -0.4527 -0.5527
 1526TIP3    H226214   6.316   4.269   7.843 -0.7194 -0.1995 -0.7354
 1527TIP3   OH226215   3.075   2.858   1.310  0.5057 -0.4057  0.2369
 1527TIP3    H126216   3.057   2.911   1.233 -1.0748  1.6694  1.8964
 1527TIP3    H226217   3.025   2.777   1.296  0.3340 -0.1139 -0.9252
 1528TIP3   OH226218   0.724   0.631   8.077  0.5443 -0.4284  0.1904
 1528TIP3    H126219   0.685   0.627   8.165  0.6720  0.6417  0.3089
 1528TIP3    H226220   0.653   0.664   8.022  0.1508 -2.0441 -0.3239
 1529TIP3   OH226221   3.705   3.044   1.065 -0.0342 -0.0314  0.2608
 1529TIP3    H126222   3.728   3.104   0.993 -0.6217 -1.4583 -1.1856
 1529TIP3    H226223   3.733   3.090   1.144 -1.8584  2.8808 -0.6078
 1530TIP3   OH226224   4.078   1.896   1.419  0.1854 -0.2645 -0.4588
 1530TIP3    H126225   4.018   1.823   1.432  0.6858 -0.9657 -1.8757
 1530TIP3    H226226   4.162   1.865   1.452 -0.0818  0.5335  1.0547
 1531TIP3   OH226227   1.716   6.082   7.676 -0.3028  0.2852 -0.4161
 1531TIP3    H126228   1.771   6.154   7.646  2.9210 -2.0306 -0.5855
 1531TIP3    H226229   1.661   6.061   7.600 -1.6049  2.6932 -0.2319
 1532TIP3   OH226230   3.218   2.711   7.191  0.3795 -0.1189  0.0374
 1532TIP3    H126231   3.156   2.681   7.125  0.9696 -0.1038 -0.5313
 1532TIP3    H226232   3.200   2.656   7.267 -0.9173  0.4732  0.1865
 1533TIP3   OH226233   6.152   5.186   8.429  0.9209  0.4560  0.6248
 1533TIP3    H126234   6.138   5.199   8.523  2.1025  1.3319  0.6927
 1533TIP3    H226235   6.067   5.206   8.389  0.5214  0.4675  1.4541
 1534TIP3   OH226236   3.981   5.627   2.121 -0.0455  0.2294  0.1094
 1534TIP3    H126237   3.920   5.554   2.130  0.8255 -0.6353 -0.7581
 1534TIP3    H226238   4.067   5.586   2.114  0.3620  1.2730 -1.5592
 1535TIP3   OH226239   4.721   3.668   0.075  0.0622  0.3629  0.4105
 1535TIP3    H126240   4.809   3.676   0.038  1.2975 -3.1161  2.1294
 1535TIP3    H226241   4.664   3.654  -0.000  1.2849  0.7392 -0.6222
 1536TIP3   OH226242   4.325   3.318   2.785  0.6835 -0.0839  0.0352
 1536TIP3    H126243   4.253   3.333   2.723 -0.7107 -1.4846  1.2084
 1536TIP3    H226244   4.379   3.252   2.742 -0.8280 -1.8054  0.6457
 1537TIP3   OH226245   2.507   6.822   0.083 -0.3980 -1.2394 -0.8204
 1537TIP3    H126246   2.524   6.887   0.151  1.8559 -0.2526 -2.2192
 1537TIP3    H226247   2.581   6.830   0.023 -3.5147 -0.0331 -4.9787
 1538TIP3   OH226248   5.456   2.086   8.016  0.2515  0.3580  0.2974
 1538TIP3    H126249   5.372   2.121   8.046  0.2659 -0.9140  1.9399
 1538TIP3    H226250   5.519   2.157   8.032 -0.4760  1.3119 -0.9346
 1539TIP3   OH226251   5.209   2.114   0.756 -0.2112 -0.5431 -0.1000
 1539TIP3    H126252   5.233   2.149   0.842 -0.5210  0.2615 -0.3398
 1539TIP3    H226253   5.139   2.051   0.775 -1.0900  0.4779  0.1336
 1540TIP3   OH226254   6.218   5.021   0.728 -0.0879  0.5959  0.2115
 1540TIP3    H126255   6.181   4.956   0.788  0.4418 -1.2496 -1.3509
 1540TIP3    H226256   6.155   5.027   0.657  0.3238  1.0618 -0.1187
 1541TIP3   OH226257   1.330   4.361   8.371 -0.0594 -0.3554 -0.3283
 1541TIP3    H126258   1.385   4.346   8.294 -0.6918 -1.0728 -0.6569
 1541TIP3    H226259   1.359   4.446   8.405  0.2859 -0.0685 -1.3030
 1542TIP3   OH226260   6.774   3.004   8.439  0.3068  0.0323 -0.0094
 1542TIP3    H126261   6.735   3.044   8.517 -0.1444  0.1832 -0.3068
 1542TIP3    H226262   6.791   2.913   8.464  0.6507  0.2107  0.4319
 1543TIP3   OH226263   6.740   5.870   7.278  0.2472 -0.0585 -0.0549
 1543TIP3    H126264   6.756   5.927   7.354 -0.9940  0.2942 -0.0370
 1543TIP3    H226265   6.784   5.788   7.301 -0.4014 -0.0811  1.2198
 1544TIP3   OH226266   1.545   2.290   0.320  0.1075 -0.1376  0.5125
 1544TIP3    H126267   1.523   2.256   0.407  1.9452 -2.9838 -0.0116
 1544TIP3    H226268   1.489   2.240   0.260  1.2885 -0.7439 -0.1298
 1545TIP3   OH226269   5.055   6.800   7.788  0.1524  0.0470  0.2947
 1545TIP3    H126270   5.119   6.758   7.730 -0.4373  1.1319 -1.1977
 1545TIP3    H226271   5.091   6.789   7.875  1.6426 -0.6525 -0.3756
 1546TIP3   OH226272   2.240   0.989   0.462 -0.2817  0.6132 -0.2844
 1546TIP3    H126273   2.201   0.912   0.503 -0.2553  1.1666  0.8387
 1546TIP3    H226274   2.334   0.980   0.476  0.0014 -0.4677 -2.5476
 1547TIP3   OH226275   6.953   6.328   7.155  0.1434  0.1775 -0.2392
 1547TIP3    H126276   6.916   6.289   7.076 -0.7561 -1.0565  0.7486
 1547TIP3    H226277   6.993   6.255   7.203  0.8789  0.9351  0.3471
 1548TIP3   OH226278   3.202   4.605   7.446  0.3411  0.1621  0.0806
 1548TIP3    H126279   3.138   4.534   7.454 -2.5436  2.6808  1.7122
 1548TIP3    H226280   3.252   4.602   7.527  0.1274  0.0304  0.2084
 1549TIP3   OH226281   1.678   0.921   1.064  0.2532  0.6670  0.5231
 1549TIP3    H126282   1.714   0.988   1.122 -0.1004  0.3862  1.0905
 1549TIP3    H226283   1.614   0.875   1.119 -0.4455  0.7077 -0.2436
 1550TIP3   OH226284   6.644   1.610   8.012 -0.0476 -0.2275 -0.1215
 1550TIP3    H126285   6.621   1.657   7.932  0.2254 -0.7097 -0.4885
 1550TIP3    H226286   6.609   1.522   7.999  0.6776 -0.5364 -0.0498
 1551TIP3   OH226287   4.837   4.707   6.670 -0.2878  0.0436  0.1096
 1551TIP3    H126288   4.748   4.736   6.687 -0.4562 -0.0322 -0.5843
 1551TIP3    H226289   4.868   4.765   6.601  1.1588  1.7923  2.1252
 1552TIP3   OH226290   1.079   6.554   1.464  0.1170  0.7487  0.0017
 1552TIP3    H126291   1.099   6.524   1.376 -0.0373  1.2344 -0.2057
 1552TIP3    H226292   1.002   6.609   1.454  0.6324  1.5493  0.2970
 1553TIP3   OH226293   5.625   4.603   0.410 -0.5131 -0.4450  0.2283
 1553TIP3    H126294   5.711   4.560   0.410 -0.0331  0.3919 -2.0793
 1553TIP3    H226295   5.644   4.696   0.409 -1.5315 -0.1614  2.0527
 1554TIP3   OH226296   3.469   6.712   0.215 -0.1737 -0.2260  0.2099
 1554TIP3    H126297   3.531   6.640   0.212  0.9499  0.7329 -1.0181
 1554TIP3    H226298   3.439   6.714   0.306  1.0300 -1.1886  0.6592
 1555TIP3   OH226299   6.405   2.301   6.602  0.6055  0.4148 -0.1635
 1555TIP3    H126300   6.397   2.388   6.642  2.2748  0.0370  1.0937
 1555TIP3    H226301   6.316   2.266   6.603 -0.0169  1.9068 -0.2580
 1556TIP3   OH226302   6.682   6.208   0.572  0.5886  0.4277 -0.2400
 1556TIP3    H126303   6.639   6.140   0.520 -1.7924  2.1266 -0.6600
 1556TIP3    H226304   6.643   6.290   0.542  1.3830  1.7729  2.1001
 1557TIP3   OH226305   6.700   2.692   7.244 -0.1493 -0.6109  0.8395
 1557TIP3    H126306   6.659   2.689   7.158  2.1286 -1.0241 -0.3304
 1557TIP3    H226307   6.661   2.769   7.286 -1.0755 -0.1838 -0.6996
 1558TIP3   OH226308   1.582   3.910   6.743  0.5001  0.8379  0.4794
 1558TIP3    H126309   1.653   3.877   6.687  0.4703 -0.9044  1.4043
 1558TIP3    H226310   1.510   3.927   6.682  0.8573  0.1349 -0.1586
 1559TIP3   OH226311   4.722   2.299   1.097 -0.5510  0.2670  0.3824
 1559TIP3    H126312   4.631   2.324   1.079 -0.5459  0.7907  1.0358
 1559TIP3    H226313   4.734   2.320   1.190  0.3001  0.3916  0.2471
 1560TIP3   OH226314   3.417   6.640   1.825 -0.3524 -0.0689  0.1170
 1560TIP3    H126315   3.363   6.591   1.762  0.5623 -0.8025 -0.1153
 1560TIP3    H226316   3.375   6.623   1.909 -0.4879 -0.6567 -0.0588
 1561TIP3   OH226317   3.615   6.123   7.754  0.3002 -0.2319 -0.1736
 1561TIP3    H126318   3.581   6.110   7.843 -0.9356  2.8415 -0.0510
 1561TIP3    H226319   3.593   6.043   7.708 -1.7468 -0.7750  1.5534
 1562TIP3   OH226320   5.643   2.510   2.393  0.3379  0.0928  0.2341
 1562TIP3    H126321   5.630   2.588   2.339  0.5233  0.0773  0.1674
 1562TIP3    H226322   5.582   2.446   2.357  0.7027 -0.0275 -0.1758
 1563TIP3   OH226323   0.863   4.945   6.831  0.2214 -0.0298 -0.3352
 1563TIP3    H126324   0.923   4.988   6.893  1.1782  2.4364 -2.7105
 1563TIP3    H226325   0.899   4.857   6.820  2.2765  0.7273 -0.1695
 1564TIP3   OH226326   2.852   6.688   1.853  0.1422  0.2572 -0.1603
 1564TIP3    H126327   2.866   6.665   1.761 -0.3013  0.4677 -0.2793
 1564TIP3    H226328   2.758   6.680   1.866  0.2719 -0.4152  0.4511
 1565TIP3   OH226329   6.195   6.515   6.999 -0.1237  0.4636 -0.1444
 1565TIP3    H126330   6.163   6.504   6.910  0.3172 -1.1846 -0.1235
 1565TIP3    H226331   6.118   6.499   7.054  0.3520 -2.2253 -0.1405
 1566TIP3   OH226332   4.837   1.623   0.439 -0.3885 -0.2028  0.7742
 1566TIP3    H126333   4.917   1.574   0.455 -0.2119  0.5195  2.2020
 1566TIP3    H226334   4.835   1.634   0.344  1.7797  0.7079  0.7744
 1567TIP3   OH226335   4.935   6.465   7.935 -0.2505  0.5145  0.2007
 1567TIP3    H126336   5.005   6.407   7.905  1.0538  1.5783  1.0611
 1567TIP3    H226337   4.977   6.519   8.002 -1.6645  1.8173  0.0645
 1568TIP3   OH226338   2.578   6.302   0.140  0.2611  0.1723 -0.4401
 1568TIP3    H126339   2.614   6.379   0.096 -0.1754  1.3428  1.1464
 1568TIP3    H226340   2.589   6.321   0.233 -2.0261 -0.6058  0.0465
 1569TIP3   OH226341   2.545   5.776   0.207 -0.0788  0.1604 -0.0064
 1569TIP3    H126342   2.608   5.836   0.245 -0.0205  0.9311 -1.2594
 1569TIP3    H226343   2.562   5.692   0.250  1.7494  0.3646 -0.2632
 1570TIP3   OH226344   2.050   4.803   8.077 -0.1073 -0.0109  0.6301
 1570TIP3    H126345   2.093   4.831   7.996 -0.3301  1.7180  1.0620
 1570TIP3    H226346   2.001   4.880   8.106 -0.6287 -0.8251  2.0256
 1571TIP3   OH226347   6.824   1.117   1.282 -0.2386 -0.1508  0.6078
 1571TIP3    H126348   6.731   1.096   1.291  0.0531 -1.0526  1.6327
 1571TIP3    H226349   6.858   1.049   1.224 -0.6710  1.5967 -1.8897
 1572TIP3   OH226350   4.721   3.857   0.939  0.2313  0.4793  0.1812
 1572TIP3    H126351   4.781   3.816   1.001 -1.3064 -0.4932  1.1156
 1572TIP3    H226352   4.686   3.784   0.888  0.7888  1.1722 -1.2370
 1573TIP3   OH226353   1.206   3.241   0.631  0.5129 -0.4395 -0.2304
 1573TIP3    H126354   1.177   3.264   0.720  1.6739  0.6632 -0.1118
 1573TIP3    H226355   1.269   3.171   0.643  0.0239 -0.8922 -0.2661
 1574TIP3   OH226356   1.073   0.038   1.045  0.4618 -0.6379 -0.3758
 1574TIP3    H126357   1.093  -0.047   1.084  0.3342 -0.3723  0.2821
 1574TIP3    H226358   1.158   0.072   1.018  0.7301 -0.2736  0.8397
 1575TIP3   OH226359   3.295   0.346   1.573  0.3029 -0.0687 -0.1463
 1575TIP3    H126360   3.218   0.314   1.620  0.8331  0.6812  1.2825
 1575TIP3    H226361   3.265   0.426   1.530  0.1061 -0.1600 -0.1818
 1576TIP3   OH226362   1.113   1.443   7.543  0.7078  0.5360 -0.2242
 1576TIP3    H126363   1.173   1.485   7.482  0.0462  1.3230 -0.3591
 1576TIP3    H226364   1.085   1.363   7.498 -0.9584  1.8527 -1.6872
 1577TIP3   OH226365   2.157   4.808   0.496 -0.3705  0.3405 -0.1995
 1577TIP3    H126366   2.161   4.901   0.520 -0.9611 -0.0386  1.4672
 1577TIP3    H226367   2.248   4.778   0.502 -0.3765  0.4797  0.6734
 1578TIP3   OH226368   3.602   4.831   2.296 -0.2983  0.0123  0.0125
 1578TIP3    H126369   3.549   4.809   2.219 -2.6569  1.8374  0.9987
 1578TIP3    H226370   3.539   4.834   2.368  1.7129 -0.8403  1.9095
 1579TIP3   OH226371   4.785   0.906   0.675 -0.1992 -0.0435  0.1214
 1579TIP3    H126372   4.711   0.879   0.730  0.5252 -2.0389  0.1994
 1579TIP3    H226373   4.746   0.964   0.610 -1.8102 -0.8795  0.2754
 1580TIP3   OH226374   1.293   6.027   0.026 -0.4061  0.2715  0.6086
 1580TIP3    H126375   1.297   5.931   0.032  1.3484  0.1817 -1.0439
 1580TIP3    H226376   1.290   6.045  -0.068  1.8339  1.8378  0.7569
 1581TIP3   OH226377   0.253   2.912   8.309  0.0579  0.3067 -0.3219
 1581TIP3    H126378   0.323   2.953   8.360  0.7636  0.1250 -1.1274
 1581TIP3    H226379   0.214   2.984   8.259  1.4520  0.0236 -1.9176
 1582TIP3   OH226380   5.220   6.776   0.946 -0.1864 -0.0163  0.0051
 1582TIP3    H126381   5.152   6.717   0.913  0.4909 -0.4246 -0.6801
 1582TIP3    H226382   5.293   6.766   0.885 -0.0242  1.4757 -0.0952
 1583TIP3   OH226383   6.956   0.327   7.266  0.4059  0.0991  0.3940
 1583TIP3    H126384   6.927   0.242   7.233 -0.3051 -0.1222  1.5346
 1583TIP3    H226385   7.026   0.305   7.328  1.5314  0.4877 -0.6972
 1584TIP3   OH226386   1.965   2.420   0.322 -0.1613 -0.2025  0.0505
 1584TIP3    H126387   1.881   2.413   0.277 -0.0171  1.3807 -0.5196
 1584TIP3    H226388   2.030   2.426   0.251  0.3179 -0.1875  0.4838
 1585TIP3   OH226389   6.130   0.755   7.729  0.2841 -0.0539  0.1914
 1585TIP3    H126390   6.163   0.677   7.686  0.8499  1.4945 -2.4218
 1585TIP3    H226391   6.136   0.736   7.823  0.7334 -2.9371 -0.3443
 1586TIP3   OH226392   1.187   2.365   1.994 -0.2811 -0.1214  0.5550
 1586TIP3    H126393   1.097   2.396   2.008 -0.0206  0.9467 -0.0428
 1586TIP3    H226394   1.206   2.387   1.903  0.8579  0.3514  0.8966
 1587TIP3   OH226395   2.747   6.819   8.392  0.5232 -0.2068 -0.1148
 1587TIP3    H126396   2.821   6.853   8.342 -0.0669 -1.0632 -1.6425
 1587TIP3    H226397   2.671   6.835   8.336 -0.1710 -1.1942  0.5114
 1588TIP3   OH226398   5.393   3.591   7.196  0.4423 -0.2574  0.0615
 1588TIP3    H126399   5.314   3.643   7.183  0.4560 -0.0855  0.6246
 1588TIP3    H226400   5.364   3.500   7.190  0.6004 -0.2196 -2.0402
 1589TIP3   OH226401   5.423   6.239   2.148  0.5521 -0.0443 -0.2117
 1589TIP3    H126402   5.438   6.160   2.201  0.6105  1.5155  2.2606
 1589TIP3    H226403   5.338   6.224   2.107 -0.5738 -0.4962  2.0816
 1590TIP3   OH226404   3.111   6.690   0.352  0.0508  0.3251  0.7543
 1590TIP3    H126405   3.187   6.719   0.402  0.5547  3.6683 -1.6400
 1590TIP3    H226406   3.147   6.637   0.282 -0.2741 -1.1229  1.6405
 1591TIP3   OH226407   3.991   5.537   7.995 -0.2649 -0.1931  0.4421
 1591TIP3    H126408   3.978   5.464   7.934 -1.1540  0.1300  0.2317
 1591TIP3    H226409   3.911   5.539   8.047 -0.2362  0.6153  0.4633
 1592TIP3   OH226410   5.671   6.580   0.320 -0.0425 -0.5691  0.7425
 1592TIP3    H126411   5.697   6.501   0.368 -0.8632  0.8549  3.8052
 1592TIP3    H226412   5.617   6.548   0.248  2.8424 -2.9776 -0.5487
 1593TIP3   OH226413   6.938   2.504   8.114  0.0780  0.1779  0.1817
 1593TIP3    H126414   6.987   2.476   8.191  0.2154  0.3821  0.1666
 1593TIP3    H226415   6.858   2.544   8.149 -0.5590 -1.0437  0.1918
 1594TIP3   OH226416   1.760   5.915   7.017  0.3456 -0.2087 -0.6232
 1594TIP3    H126417   1.767   6.001   7.060 -0.4257 -0.3028 -0.2771
 1594TIP3    H226418   1.731   5.936   6.929  2.2995  0.0100 -1.2579
 1595TIP3   OH226419   3.742   2.503   1.096 -0.3841  0.2986 -0.0762
 1595TIP3    H126420   3.751   2.425   1.041  0.8249  0.0012  0.4983
 1595TIP3    H226421   3.669   2.484   1.154 -1.0264  0.2020 -0.8997
 1596TIP3   OH226422   3.953   0.927   0.068  0.2651  0.9054  0.1097
 1596TIP3    H126423   3.909   0.862   0.123  1.8236  0.2115  0.5778
 1596TIP3    H226424   3.922   1.011   0.101  0.8024  0.4913  1.7734
 1597TIP3   OH226425   1.578   0.963   7.616  0.2225 -0.4982 -0.5904
 1597TIP3    H126426   1.551   1.036   7.561  0.3628  0.5110  0.6252
 1597TIP3    H226427   1.503   0.903   7.616 -0.2264  0.0580 -0.9044
 1598TIP3   OH226428   2.965   5.537   7.387 -0.0794  0.0793  0.3480
 1598TIP3    H126429   2.926   5.622   7.366  0.4347  0.7831  2.0221
 1598TIP3    H226430   3.058   5.548   7.367 -0.0992 -0.2594  0.0737
 1599TIP3   OH226431   3.702   6.945   7.892 -0.2100 -0.0495  0.5371
 1599TIP3    H126432   3.719   6.954   7.985  0.7938 -0.2523  0.3886
 1599TIP3    H226433   3.789   6.934   7.853 -0.6323 -0.1710 -0.3963
 1600TIP3   OH226434   5.237   3.032   6.701  0.2918 -0.1143  0.5686
 1600TIP3    H126435   5.263   3.004   6.788 -0.1036 -1.5274  0.2591
 1600TIP3    H226436   5.276   3.119   6.691  1.8345 -0.6672  1.4690
 1601TIP3   OH226437   1.946   1.855   0.503  0.4134  0.3411  0.2602
 1601TIP3    H126438   1.882   1.918   0.536  1.1606  1.2239  0.0672
 1601TIP3    H226439   1.926   1.846   0.410 -0.6010 -0.8318  0.5633
 1602TIP3   OH226440   0.625   5.909   0.005  0.2111  0.1466 -0.1544
 1602TIP3    H126441   0.565   5.852   0.054  0.3463  1.4812  1.6911
 1602TIP3    H226442   0.572   5.943  -0.067 -0.5631 -0.4486  0.1132
 1603TIP3   OH226443   5.055   4.098   1.653 -0.1366 -0.4763  0.1075
 1603TIP3    H126444   5.072   4.125   1.744 -0.5640 -1.3637  0.4665
 1603TIP3    H226445   5.106   4.018   1.643 -0.2736 -0.5046 -0.3605
 1604TIP3   OH226446   0.766   6.377   0.032 -0.0386 -0.4535  0.5262
 1604TIP3    H126447   0.721   6.456   0.003  0.8890 -0.0995  0.0009
 1604TIP3    H226448   0.697   6.310   0.037 -0.5945  0.0365 -0.3866
 1605TIP3   OH226449   1.412   2.229   5.946 -0.5544 -0.1184 -0.0747
 1605TIP3    H126450   1.387   2.321   5.935  0.5907  0.1240 -0.8061
 1605TIP3    H226451   1.446   2.223   6.035  3.3409  1.2034 -1.2876
 1606TIP3   OH226452   1.995   6.359   2.468 -0.1518  0.5446 -0.5584
 1606TIP3    H126453   2.031   6.357   2.557 -0.7136  1.1957 -0.3065
 1606TIP3    H226454   1.984   6.267   2.444 -0.0644  0.3646  0.0793
 1607TIP3   OH226455   3.320   4.365   1.085 -0.3403  0.0712  0.4031
 1607TIP3    H126456   3.367   4.442   1.052  2.2011 -1.6569 -0.2716
 1607TIP3    H226457   3.252   4.348   1.020  0.5234  0.4486 -0.6282
 1608TIP3   OH226458   0.962   5.961   7.401  0.0034  0.7921 -0.2057
 1608TIP3    H126459   0.936   6.001   7.318 -0.9482 -1.4347 -1.0571
 1608TIP3    H226460   0.968   5.868   7.382 -0.2003  0.2116  2.2248
 1609TIP3   OH226461   1.391   0.000   1.089 -0.1025 -0.7069  0.6089
 1609TIP3    H126462   1.448   0.010   1.013 -0.4142 -0.8599  0.3507
 1609TIP3    H226463   1.395   0.085   1.133 -1.6411  0.1535 -0.8025
 1610TIP3   OH226464   1.739   1.636   1.005 -0.4955 -0.3732 -0.0727
 1610TIP3    H126465   1.681   1.708   0.983 -0.3186 -0.1903  0.0572
 1610TIP3    H226466   1.809   1.676   1.056  0.0521 -0.4888 -0.7174
 1611TIP3   OH226467   2.964   5.567   1.093 -0.5393 -0.1210  0.2928
 1611TIP3    H126468   2.898   5.607   1.036 -1.1391 -2.3085 -0.6888
 1611TIP3    H226469   3.002   5.640   1.141 -1.6505  1.5602 -1.2315
 1612TIP3   OH226470   6.484   5.103   7.449 -0.1154  0.2771  0.3277
 1612TIP3    H126471   6.440   5.085   7.366  0.0574  2.3827 -0.2978
 1612TIP3    H226472   6.412   5.114   7.512 -0.3469  0.5479  0.0217
 1613TIP3   OH226473   0.846   4.242   1.194  0.2947  0.2894  0.5470
 1613TIP3    H126474   0.918   4.227   1.133  1.4288 -0.9559  2.0652
 1613TIP3    H226475   0.776   4.184   1.164  0.1628  1.0205 -0.5722
 1614TIP3   OH226476   4.514   6.335   8.225  0.7066  0.0421 -0.0408
 1614TIP3    H126477   4.478   6.305   8.142  2.0156 -1.5750 -0.0823
 1614TIP3    H226478   4.528   6.429   8.213 -1.5824  0.3465 -0.6762
 1615TIP3   OH226479   5.765   1.823   2.198  0.5116 -0.1394  1.0309
 1615TIP3    H126480   5.740   1.892   2.259 -1.1640 -0.4471  0.7438
 1615TIP3    H226481   5.721   1.745   2.230  1.0241 -0.7026  0.4100
 1616TIP3   OH226482   4.595   4.911   1.276  0.1277 -0.3265 -0.2283
 1616TIP3    H126483   4.558   4.885   1.360 -0.5845  1.0819 -0.0775
 1616TIP3    H226484   4.570   5.003   1.266  1.3916 -0.0699 -1.3341
 1617TIP3   OH226485   0.255   5.963   1.630 -0.1925 -0.2981 -0.0785
 1617TIP3    H126486   0.211   5.988   1.549  0.0955  1.1919  0.2038
 1617TIP3    H226487   0.339   5.927   1.601 -1.4647 -3.1307 -0.6148
 1618TIP3   OH226488   5.917   6.531   1.312  0.3219 -0.4417  0.1807
 1618TIP3    H126489   5.897   6.462   1.375 -0.2611  0.7710  1.3662
 1618TIP3    H226490   6.009   6.552   1.327  1.0019 -2.0326 -1.3176
 1619TIP3   OH226491   3.086   2.925   8.329 -0.2776  0.6724  0.2588
 1619TIP3    H126492   3.007   2.931   8.382 -1.1991 -1.3396 -0.7676
 1619TIP3    H226493   3.132   2.847   8.363 -0.6526 -0.3845 -1.4983
 1620TIP3   OH226494   0.189   6.653   1.767  0.2958 -0.3065 -0.4614
 1620TIP3    H126495   0.172   6.585   1.831  1.1262 -0.4914 -0.4234
 1620TIP3    H226496   0.175   6.610   1.682  0.6104 -0.4699 -0.4327
 1621TIP3   OH226497   0.861   6.569   8.208  0.2463 -0.2737  0.3404
 1621TIP3    H126498   0.874   6.659   8.236 -0.7699  0.4089 -1.2124
 1621TIP3    H226499   0.919   6.517   8.264  1.4000  1.4091  0.7766
 1622TIP3   OH226500   5.029   2.704   6.634  0.2821  0.0210 -0.0086
 1622TIP3    H126501   5.073   2.653   6.566  1.3822  0.9522 -0.0118
 1622TIP3    H226502   5.068   2.673   6.716 -2.2840 -2.4012  0.4717
 1623TIP3   OH226503   3.840   2.704   7.300 -0.0113  0.2389  0.0889
 1623TIP3    H126504   3.785   2.780   7.320  0.4816  0.8633 -0.8154
 1623TIP3    H226505   3.899   2.736   7.231  1.1507 -0.5503  0.6922
 1624TIP3   OH226506   5.246   0.716   7.317 -0.0222  0.4399 -0.1659
 1624TIP3    H126507   5.188   0.763   7.376 -0.6822  0.7487 -1.0431
 1624TIP3    H226508   5.309   0.673   7.375 -1.2967 -0.1571  0.8283
 1625TIP3   OH226509   6.514   3.897   0.225 -0.1809 -0.1168 -0.3207
 1625TIP3    H126510   6.425   3.910   0.191  0.0719 -0.6390 -1.1940
 1625TIP3    H226511   6.549   3.986   0.233 -1.1576  0.1835  1.1105
 1626TIP3   OH226512   0.439   3.156   2.050  0.4712  0.5660 -0.3761
 1626TIP3    H126513   0.482   3.238   2.074 -0.7506  1.2045 -0.2720
 1626TIP3    H226514   0.361   3.184   2.001  0.2539 -0.5493 -0.6862
 1627TIP3   OH226515   4.907   2.430   8.206  0.3198 -0.3496  0.1326
 1627TIP3    H126516   4.894   2.335   8.206  1.1953 -0.5414 -2.1378
 1627TIP3    H226517   4.825   2.465   8.240  0.1592 -1.9199  1.4730
 1628TIP3   OH226518   2.160   1.101   1.166  0.3722 -0.2945  0.0547
 1628TIP3    H126519   2.116   1.158   1.229  0.7812  0.2139 -0.1141
 1628TIP3    H226520   2.176   1.020   1.214  0.4676  0.0051  0.5352
 1629TIP3   OH226521   1.540   2.002   2.006  0.6100 -0.1798  0.2507
 1629TIP3    H126522   1.494   2.084   2.025 -1.6360 -1.5282  0.9883
 1629TIP3    H226523   1.627   2.030   1.976 -0.2223  2.4648  0.0310
 1630TIP3   OH226524   0.837   3.715   0.363 -0.1035 -0.3619 -0.1096
 1630TIP3    H126525   0.923   3.754   0.378 -0.8722  1.3551  0.0681
 1630TIP3    H226526   0.791   3.726   0.446 -0.9128 -0.1357 -0.5809
 1631TIP3   OH226527   0.073   3.691   0.750  0.2595  0.0688  0.6465
 1631TIP3    H126528   0.066   3.724   0.840 -1.1339  0.1482  0.5217
 1631TIP3    H226529   0.054   3.598   0.757  1.9035 -0.3007  0.6605
 1632TIP3   OH226530   4.419   1.454   0.135 -0.2177  0.3048 -0.1452
 1632TIP3    H126531   4.450   1.456   0.225  0.2198 -1.4531 -0.2304
 1632TIP3    H226532   4.326   1.478   0.140 -0.6205 -1.3461  0.9893
 1633TIP3   OH226533   6.793   4.092   0.219 -0.1663  0.1609  0.5123
 1633TIP3    H126534   6.783   4.060   0.309  2.0050 -0.0479  0.7333
 1633TIP3    H226535   6.881   4.064   0.194 -0.9421 -0.2648 -1.9016
 1634TIP3   OH226536   2.003   6.358   6.775  0.3997 -0.1298 -0.1454
 1634TIP3    H126537   2.069   6.296   6.743 -1.3123 -1.7803 -0.6840
 1634TIP3    H226538   1.965   6.396   6.696 -0.3949 -0.4233  0.0858
 1635TIP3   OH226539   3.443   5.244   0.106  0.1230  0.7190  0.2646
 1635TIP3    H126540   3.417   5.153   0.122 -1.5212  1.0282 -0.4654
 1635TIP3    H226541   3.367   5.284   0.064  1.4841  1.9514 -1.1555
 1636TIP3   OH226542   0.991   0.753   6.737 -0.3996 -0.2770  0.2596
 1636TIP3    H126543   1.041   0.831   6.761 -0.1655 -0.5170  0.5577
 1636TIP3    H226544   1.056   0.694   6.698 -0.5832 -0.3065  0.0003
 1637TIP3   OH226545   3.657   2.652   8.193  0.1365  0.7305 -0.2336
 1637TIP3    H126546   3.604   2.724   8.160 -0.8139 -0.6771 -1.9831
 1637TIP3    H226547   3.705   2.620   8.116  1.4577  0.2589  0.7516
 1638TIP3   OH226548   6.607   3.644   6.988 -0.5159  0.4045  0.2548
 1638TIP3    H126549   6.685   3.591   6.970 -1.6894 -0.8533 -1.4104
 1638TIP3    H226550   6.640   3.716   7.042  1.3620 -1.3076  1.5565
 1639TIP3   OH226551   4.437   6.168   2.000 -0.0146  0.4995 -0.6276
 1639TIP3    H126552   4.496   6.154   2.074 -1.3428  0.0506  0.3952
 1639TIP3    H226553   4.379   6.239   2.029 -0.9564 -0.1154 -0.9693
 1640TIP3   OH226554   3.805   2.967   0.421  0.3566 -0.0338  0.1894
 1640TIP3    H126555   3.737   3.025   0.456  0.6190 -1.1267  2.7276
 1640TIP3    H226556   3.887   3.014   0.434  0.3958 -0.1401  0.3226
 1641TIP3   OH226557   6.677   0.093   2.265 -0.4441  0.3209 -0.2027
 1641TIP3    H126558   6.602   0.141   2.300  0.5695  1.5444  0.3828
 1641TIP3    H226559   6.733   0.161   2.228  1.3449 -0.3056  1.2377
 1642TIP3   OH226560   4.144   4.368   6.632 -0.5352 -0.2313 -0.1537
 1642TIP3    H126561   4.153   4.303   6.563  0.9465  0.9984 -1.1819
 1642TIP3    H226562   4.224   4.361   6.684 -1.3476 -0.7031  1.0904
 1643TIP3   OH226563   0.356   5.188   0.056 -0.1269  0.8665  0.1482
 1643TIP3    H126564   0.326   5.167   0.144  1.0933  0.4711  0.4978
 1643TIP3    H226565   0.441   5.144   0.048 -0.2606  0.8016 -1.2665
 1644TIP3   OH226566   1.739   3.799   1.694 -0.4714 -0.2361  0.8487
 1644TIP3    H126567   1.811   3.774   1.751  0.7754  1.2448 -0.0145
 1644TIP3    H226568   1.698   3.874   1.738 -0.4219 -0.0099  0.5095
 1645TIP3   OH226569   2.363   4.100   7.320 -0.3495  0.2595  0.1663
 1645TIP3    H126570   2.377   4.006   7.329  0.9121  0.0177 -2.9929
 1645TIP3    H226571   2.452   4.137   7.316 -0.7182  1.0623 -2.2587
 1646TIP3   OH226572   6.185   5.189   6.471  0.3542 -0.0302  0.2543
 1646TIP3    H126573   6.130   5.198   6.548  1.0986  1.0624  0.6889
 1646TIP3    H226574   6.198   5.095   6.461 -0.5542 -0.2308  0.8696
 1647TIP3   OH226575   6.400   4.834   7.776 -0.1233 -0.5681 -0.3877
 1647TIP3    H126576   6.336   4.903   7.760 -3.8015 -3.4452  0.6969
 1647TIP3    H226577   6.427   4.846   7.867  1.0612  0.6696 -0.8580
 1648TIP3   OH226578   1.265   4.142   1.474  0.1186  0.3583 -0.1585
 1648TIP3    H126579   1.236   4.176   1.559  0.2434  1.1970 -0.4396
 1648TIP3    H226580   1.290   4.220   1.425 -0.7508 -0.0317 -1.2689
 1649TIP3   OH226581   4.880   0.979   8.211  0.4572  0.3034  0.4855
 1649TIP3    H126582   4.898   0.886   8.216  1.3637  0.4967  0.9814
 1649TIP3    H226583   4.789   0.988   8.239  0.3654 -0.4261  0.4315
 1650TIP3   OH226584   3.105   6.358   0.907  0.0715 -0.1855  0.0034
 1650TIP3    H126585   3.076   6.400   0.826 -2.8332 -1.8317  0.0298
 1650TIP3    H226586   3.045   6.392   0.974  1.5027  0.0662  1.1875
 1651TIP3   OH226587   0.819   0.939   1.948  0.0713 -0.1108 -0.3096
 1651TIP3    H126588   0.838   0.960   2.039  2.0650  0.6664 -0.8515
 1651TIP3    H226589   0.809   1.023   1.904 -0.3557 -0.4627 -0.9101
 1652TIP3   OH226590   1.261   2.830   8.421  0.5580  0.2221  0.1494
 1652TIP3    H126591   1.234   2.896   8.485  0.3948  0.0863  0.2231
 1652TIP3    H226592   1.281   2.880   8.342 -0.0134  0.3220  0.0595
 1653TIP3   OH226593   4.622   1.933   0.644  0.3606  0.1235 -0.5159
 1653TIP3    H126594   4.611   2.004   0.707  3.4098  1.0943 -0.9097
 1653TIP3    H226595   4.556   1.950   0.577 -1.7308  0.1115  1.4294
 1654TIP3   OH226596   5.050   1.792   2.631  0.1229 -0.1796  0.6710
 1654TIP3    H126597   5.010   1.806   2.717 -0.5082 -1.2066  0.5641
 1654TIP3    H226598   5.008   1.857   2.575 -0.7167 -0.6112  0.7756
 1655TIP3   OH226599   0.852   4.407   2.015  0.1249  0.0172  0.2646
 1655TIP3    H126600   0.875   4.416   2.108 -1.7882 -0.0015  0.7740
 1655TIP3    H226601   0.931   4.437   1.968  0.2463  2.5942  1.8825
 1656TIP3   OH226602   5.086   4.625   0.935  0.0553 -0.2533 -0.0115
 1656TIP3    H126603   5.053   4.675   0.861  1.2089  0.6759  0.0747
 1656TIP3    H226604   5.015   4.564   0.957 -0.3429 -0.4561 -1.7763
 1657TIP3   OH226605   2.367   3.995   1.597  0.6108  0.4101  0.8667
 1657TIP3    H126606   2.451   4.041   1.591  0.8093  0.0208  0.6850
 1657TIP3    H226607   2.389   3.903   1.587 -0.1317  0.4568 -1.8317
 1658TIP3   OH226608   0.030   0.283   1.112 -0.1641  0.5035 -0.1887
 1658TIP3    H126609   0.001   0.221   1.179 -0.2492 -0.4517 -1.0769
 1658TIP3    H226610   0.091   0.341   1.157  1.1485 -1.2070  0.3300
 1659TIP3   OH226611   2.589   1.351   2.125 -0.2158 -0.1729  0.2067
 1659TIP3    H126612   2.510   1.350   2.071 -0.8344  0.8328  1.0485
 1659TIP3    H226613   2.557   1.360   2.215  0.8614  2.2776  0.4253
 1660TIP3   OH226614   5.086   4.346   7.670 -0.7286  0.3548 -0.2312
 1660TIP3    H126615   5.030   4.271   7.650  0.2002 -0.3773 -0.1728
 1660TIP3    H226616   5.035   4.422   7.642 -1.2532 -0.3618 -1.3252
 1661TIP3   OH226617   4.834   0.177   7.144 -0.5107 -0.0292  0.0435
 1661TIP3    H126618   4.901   0.233   7.105  0.6910 -2.2592 -1.2771
 1661TIP3    H226619   4.869   0.157   7.231  0.4909 -1.0327 -0.5683
 1662TIP3   OH226620   4.530   3.703   0.439 -0.4233  0.8848 -0.1634
 1662TIP3    H126621   4.586   3.767   0.396  0.1049 -0.5439 -1.6837
 1662TIP3    H226622   4.590   3.637   0.473 -1.0795  0.2050 -0.3005
 1663TIP3   OH226623   6.383   3.303   8.184 -0.1928 -0.3626 -0.4554
 1663TIP3    H126624   6.363   3.212   8.159  0.0310 -0.6341  0.3162
 1663TIP3    H226625   6.307   3.331   8.236 -0.7873  0.2951 -1.6457
 1664TIP3   OH226626   4.209   6.238   7.960  0.6614 -0.6738  0.0348
 1664TIP3    H126627   4.288   6.292   7.952 -0.3446  1.2034  1.5519
 1664TIP3    H226628   4.241   6.148   7.965  2.6739 -0.0064  0.1347
 1665TIP3   OH226629   0.699   1.518   8.428 -0.0646  0.3321 -0.0661
 1665TIP3    H126630   0.718   1.434   8.387  0.2688  0.1682  0.4155
 1665TIP3    H226631   0.605   1.531   8.413 -0.3739 -0.6749  0.8351
 1666TIP3   OH226632   6.975   0.683   1.315 -0.2139  0.5327  0.0074
 1666TIP3    H126633   6.953   0.654   1.227  0.5751  0.7429 -0.2681
 1666TIP3    H226634   6.893   0.679   1.363 -0.4274 -0.7031 -0.4223
 1667TIP3   OH226635   2.069   6.513   7.959 -0.1926  0.0140  0.6334
 1667TIP3    H126636   2.009   6.546   8.026 -0.1066 -1.4953  1.4926
 1667TIP3    H226637   2.117   6.442   8.003  1.3412  0.3647 -0.4099
 1668TIP3   OH226638   3.333   0.591   6.528  0.4380  0.3614  0.1362
 1668TIP3    H126639   3.300   0.554   6.610  1.0442  2.9600  1.6595
 1668TIP3    H226640   3.254   0.610   6.478 -0.2014  1.9513  1.6475
 1669TIP3   OH226641   5.823   4.527   7.458 -0.0390 -0.3554  0.0996
 1669TIP3    H126642   5.882   4.460   7.423  0.8800  0.7219 -0.4610
 1669TIP3    H226643   5.833   4.602   7.400 -1.7553 -0.0179  0.1586
 1670TIP3   OH226644   1.833   0.196   7.174  0.4144 -0.5746 -0.1082
 1670TIP3    H126645   1.774   0.224   7.245  1.4283 -0.5971  0.7617
 1670TIP3    H226646   1.774   0.167   7.105 -0.6163 -1.9395  1.2686
 1671TIP3   OH226647   4.351   0.742   8.367  0.2851 -0.0582  0.1422
 1671TIP3    H126648   4.263   0.717   8.395  0.0365  0.5060 -0.1200
 1671TIP3    H226649   4.365   0.693   8.286  0.7253 -1.1387  0.8451
 1672TIP3   OH226650   2.523   5.983   8.138  0.3176  0.4549 -0.1037
 1672TIP3    H126651   2.520   5.960   8.231  1.7622 -1.6632 -0.5139
 1672TIP3    H226652   2.604   5.944   8.107  2.0475  4.5813 -1.4339
 1673TIP3   OH226653   5.459   3.158   0.501 -0.3502 -0.0879  0.2951
 1673TIP3    H126654   5.535   3.133   0.448 -1.3506 -0.8114 -0.8597
 1673TIP3    H226655   5.437   3.080   0.551  0.8349  0.7169  2.1432
 1674TIP3   OH226656   1.212   6.430   1.130 -0.0007  0.1854  0.2913
 1674TIP3    H126657   1.307   6.437   1.138  0.1836 -0.3551 -1.1598
 1674TIP3    H226658   1.194   6.336   1.129 -0.2335  0.1830 -2.1816
 1675TIP3   OH226659   1.981   1.309   7.092  0.1554  0.1278 -0.1505
 1675TIP3    H126660   2.011   1.391   7.055  1.0058  1.2950  2.8241
 1675TIP3    H226661   1.886   1.311   7.082  0.2255  1.1819 -0.6600
 1676TIP3   OH226662   4.050   5.885   7.657  0.0338 -0.0294  0.6557
 1676TIP3    H126663   4.022   5.966   7.699  0.5744 -0.3094  1.5853
 1676TIP3    H226664   4.145   5.886   7.662  0.0272 -1.0162  1.2601
 1677TIP3   OH226665   5.583   6.749   2.180  0.3863  0.4326  0.2720
 1677TIP3    H126666   5.657   6.688   2.184  0.6852  0.8317  0.9878
 1677TIP3    H226667   5.614   6.828   2.225 -0.4630  0.6137  0.5665
 1678TIP3   OH226668   0.062   6.227   6.759 -0.1376 -0.1570  0.0910
 1678TIP3    H126669   0.112   6.220   6.678  0.0365 -1.3313  0.2744
 1678TIP3    H226670   0.102   6.162   6.817 -1.3926 -0.5943  0.5071
 1679TIP3   OH226671   1.028   5.580   1.647 -1.0555 -0.3262  0.5248
 1679TIP3    H126672   1.045   5.674   1.658 -1.3968 -0.1662 -0.2541
 1679TIP3    H226673   1.047   5.542   1.733  0.4334  0.2504  0.4852
 1680TIP3   OH226674   2.736   0.890   1.223 -0.3710 -0.2609 -0.1590
 1680TIP3    H126675   2.759   0.854   1.309 -1.5755  1.2222  0.8466
 1680TIP3    H226676   2.673   0.827   1.187  0.9629 -1.4539 -0.4670
 1681TIP3   OH226677   5.749   5.475   0.368 -0.4874 -0.2735  0.5775
 1681TIP3    H126678   5.792   5.560   0.371 -2.3328  0.7667 -0.3432
 1681TIP3    H226679   5.667   5.491   0.320 -2.0491 -2.0421  2.4325
 1682TIP3   OH226680   5.168   1.601   7.603  0.0714 -0.1652  0.4443
 1682TIP3    H126681   5.251   1.648   7.609 -0.6944  1.6098 -1.5520
 1682TIP3    H226682   5.115   1.640   7.673 -0.1158  1.0955 -0.3589
 1683TIP3   OH226683   2.797   6.399   0.375  0.7089 -0.0395 -0.0410
 1683TIP3    H126684   2.799   6.495   0.382  0.1461 -0.0576  0.4862
 1683TIP3    H226685   2.710   6.375   0.408  0.9357 -0.7465  0.0476
 1684TIP3   OH226686   0.140   3.519   7.544 -0.2327  0.0333  0.1195
 1684TIP3    H126687   0.094   3.552   7.468  0.3639 -1.3933 -0.9042
 1684TIP3    H226688   0.163   3.429   7.521 -0.5865 -0.6533  2.2296
 1685TIP3   OH226689   1.854   4.115   1.538  0.0951  0.2747 -0.6750
 1685TIP3    H126690   1.950   4.113   1.544  0.3041 -0.0494 -3.0603
 1685TIP3    H226691   1.824   4.078   1.621  1.9590  1.9670  0.8907
 1686TIP3   OH226692   1.008   4.703   7.876 -0.4590 -0.3223 -0.6609
 1686TIP3    H126693   0.942   4.708   7.807 -2.2167 -0.1519  0.9353
 1686TIP3    H226694   0.966   4.745   7.951 -0.0928 -3.5343  1.5635
 1687TIP3   OH226695   5.376   3.863   7.010  0.5477  0.6401  0.2573
 1687TIP3    H126696   5.303   3.811   7.043 -0.2740  1.0579 -0.8566
 1687TIP3    H226697   5.438   3.798   6.978  0.1078  0.3151  0.0599
 1688TIP3   OH226698   5.223   6.736   1.927 -0.0144  0.4096 -0.1394
 1688TIP3    H126699   5.163   6.731   1.852  0.1969  0.3446 -0.3054
 1688TIP3    H226700   5.300   6.688   1.899 -0.1025  0.0097  0.2843
 1689TIP3   OH226701   2.318   5.075   2.467 -0.1583  0.1383  0.2456
 1689TIP3    H126702   2.387   5.010   2.482 -0.5629 -0.1957  0.6712
 1689TIP3    H226703   2.241   5.024   2.445 -0.0713  0.5467 -1.1268
 1690TIP3   OH226704   3.078   2.956   6.450 -0.1475 -0.5206  0.0291
 1690TIP3    H126705   3.092   2.932   6.541 -0.6211 -1.7690 -0.2097
 1690TIP3    H226706   3.043   3.045   6.454 -1.1643 -0.9519  1.1192
 1691TIP3   OH226707   0.525   3.737   7.547  0.1810 -0.2289 -0.2033
 1691TIP3    H126708   0.461   3.740   7.618 -1.3293  1.5340 -1.5526
 1691TIP3    H226709   0.596   3.793   7.577 -0.2070  0.0881  0.1352
 1692TIP3   OH226710   2.283   6.030   1.869 -0.0947 -0.0189  0.8017
 1692TIP3    H126711   2.360   6.030   1.925  0.0528  1.4989  0.6300
 1692TIP3    H226712   2.312   5.989   1.787  0.3249 -0.1417  1.0126
 1693TIP3   OH226713   3.763   4.180   2.750  0.0000 -0.3277 -0.2329
 1693TIP3    H126714   3.677   4.176   2.708  0.4170 -0.1281 -1.1286
 1693TIP3    H226715   3.816   4.117   2.701  0.1878 -0.9458  0.7462
 1694TIP3   OH226716   2.170   4.147   0.044 -0.0990 -0.1607  0.2348
 1694TIP3    H126717   2.244   4.134  -0.017 -1.1852 -1.7704 -0.8068
 1694TIP3    H226718   2.200   4.108   0.126  0.5993  0.1515  0.1395
 1695TIP3   OH226719   5.193   4.749   8.283  0.0394  0.1837  0.2370
 1695TIP3    H126720   5.253   4.789   8.219 -0.7358  1.1363  0.0614
 1695TIP3    H226721   5.243   4.747   8.365  1.2646 -1.6088 -0.4863
 1696TIP3   OH226722   0.005   5.447   0.886  0.4553 -0.2627  0.8012
 1696TIP3    H126723  -0.024   5.360   0.912  0.2236 -0.2193  0.6888
 1696TIP3    H226724   0.092   5.456   0.924 -0.0522 -0.0291  1.9424
 1697TIP3   OH226725   5.274   4.367   3.013 -0.3293 -0.6901  0.1937
 1697TIP3    H126726   5.185   4.340   3.037 -0.1358 -1.6472 -0.1225
 1697TIP3    H226727   5.329   4.291   3.033  0.3176 -0.3433 -0.2265
 1698TIP3   OH226728   1.110   3.242   0.098  0.4492 -0.2759 -0.3489
 1698TIP3    H126729   1.083   3.283   0.179  1.4705  1.8936 -1.0337
 1698TIP3    H226730   1.056   3.283   0.030  0.7033 -0.8938 -0.9462
 1699TIP3   OH226731   6.314   4.983   1.779 -0.2749  0.5279 -0.3934
 1699TIP3    H126732   6.384   5.005   1.841  1.0244  0.5214 -1.8089
 1699TIP3    H226733   6.267   4.910   1.820  0.1216  0.9693  0.8830
 1700TIP3   OH226734   4.554   1.319   0.411  0.1292  0.1786 -0.0260
 1700TIP3    H126735   4.554   1.398   0.466 -0.1053  0.0205  0.2026
 1700TIP3    H226736   4.544   1.247   0.473 -2.6621  0.1093 -0.4104
 1701TIP3   OH226737   3.232   0.912   8.054  0.1948  0.5466 -0.0944
 1701TIP3    H126738   3.299   0.851   8.086 -1.3380 -0.9792  0.3598
 1701TIP3    H226739   3.177   0.859   7.996 -0.8623  1.6366 -0.1313
 1702TIP3   OH226740   3.744   0.006   1.516  0.1611  0.1428  0.0232
 1702TIP3    H126741   3.671  -0.055   1.515  2.1441 -2.5070 -3.2738
 1702TIP3    H226742   3.807  -0.033   1.576  0.0662  0.8564  0.5976
 1703TIP3   OH226743   5.681   3.955   2.113 -0.3469 -0.5862  0.0694
 1703TIP3    H126744   5.665   3.926   2.023  0.7493  0.6600 -0.5572
 1703TIP3    H226745   5.776   3.967   2.117 -0.6563  2.2385  0.4621
 1704TIP3   OH226746   3.135   2.628   0.503  0.6337  0.1460 -0.2681
 1704TIP3    H126747   3.097   2.589   0.425  1.1971  2.3226 -1.7093
 1704TIP3    H226748   3.216   2.578   0.517 -1.4635 -3.1781  1.6657
 1705TIP3   OH226749   2.242   2.981   0.195 -0.5225 -0.4139 -0.5155
 1705TIP3    H126750   2.317   3.006   0.249 -0.6478  1.0991 -1.0053
 1705TIP3    H226751   2.175   3.046   0.215 -0.1243  1.0739 -3.4164
 1706TIP3   OH226752   4.275   3.314   2.086  0.0012 -0.3824  0.5907
 1706TIP3    H126753   4.191   3.268   2.088  0.4117 -1.1305  1.0287
 1706TIP3    H226754   4.282   3.355   2.172 -1.3025  2.2916 -0.4655
 1707TIP3   OH226755   3.383   1.862   7.708  0.5847  0.3259  0.2414
 1707TIP3    H126756   3.476   1.877   7.721  0.5285  1.4796 -0.5420
 1707TIP3    H226757   3.352   1.824   7.790  2.2059 -2.5408 -0.3243
 1708TIP3   OH226758   5.657   6.095   1.416 -0.1663  0.3147 -0.2377
 1708TIP3    H126759   5.592   6.044   1.369 -1.8171 -0.9254  3.1050
 1708TIP3    H226760   5.685   6.039   1.489  0.6246  2.8217  1.5340
 1709TIP3   OH226761   4.599   1.599   1.171  0.3377  0.0370 -0.2755
 1709TIP3    H126762   4.688   1.568   1.157  0.4848  1.3257 -2.8098
 1709TIP3    H226763   4.597   1.628   1.263  1.8542 -1.9288  0.4282
 1710TIP3   OH226764   1.376   6.967   7.668  0.1472  0.3741  0.2147
 1710TIP3    H126765   1.433   7.041   7.646  1.8393 -0.4512  1.6113
 1710TIP3    H226766   1.365   6.973   7.762 -1.5970  0.1286  0.0542
 1711TIP3   OH226767   4.333   4.808   1.553 -0.3729  0.2765 -0.5254
 1711TIP3    H126768   4.424   4.786   1.532 -0.9366 -0.5203 -2.4451
 1711TIP3    H226769   4.282   4.755   1.491 -2.0809  1.9999 -0.6732
 1712TIP3   OH226770   5.259   2.194   8.141  0.4436 -0.0004 -0.0353
 1712TIP3    H126771   5.323   2.244   8.192  0.5525 -0.4726  0.2964
 1712TIP3    H226772   5.189   2.257   8.123  0.2189  0.0744  1.0270
 1713TIP3   OH226773   3.280   0.942   2.386  0.2721  0.3029 -0.2157
 1713TIP3    H126774   3.223   0.959   2.311 -0.6348  1.5443  0.7047
 1713TIP3    H226775   3.305   0.851   2.377  0.6574  0.5743 -2.3388
 1714TIP3   OH226776   0.320   3.406   6.622 -0.0512 -0.1365 -0.1625
 1714TIP3    H126777   0.263   3.354   6.679  0.9388 -1.3569 -0.2369
 1714TIP3    H226778   0.399   3.354   6.614  0.2674  0.5421 -1.7585
 1715TIP3   OH226779   3.228   2.195   2.332  0.5836 -0.2321  0.4989
 1715TIP3    H126780   3.295   2.247   2.375  1.4279  0.5010 -1.5631
 1715TIP3    H226781   3.268   2.109   2.319  2.3840  0.9734 -3.2386
 1716TIP3   OH226782   1.464   0.151   8.480  0.7094  0.1410  0.0750
 1716TIP3    H126783   1.423   0.166   8.565 -2.0379 -1.3384 -0.8896
 1716TIP3    H226784   1.547   0.107   8.501 -0.3699 -1.1133  1.9555
 1717TIP3   OH226785   2.197   1.314   8.421 -0.1362 -0.1936 -0.5783
 1717TIP3    H126786   2.190   1.408   8.404 -1.1987  0.3741  2.3990
 1717TIP3    H226787   2.290   1.299   8.440  0.0438  0.2325 -1.1077
 1718TIP3   OH226788   4.009   2.731   1.854  0.5890  0.2522  0.3344
 1718TIP3    H126789   4.001   2.825   1.873 -0.1789  0.2638 -0.0399
 1718TIP3    H226790   4.011   2.689   1.940 -1.6360  0.4048  0.4986
 1719TIP3   OH226791   3.048   3.785   0.693  0.1721  0.2572 -0.0424
 1719TIP3    H126792   3.003   3.863   0.661 -0.5488 -0.6937 -1.4298
 1719TIP3    H226793   3.130   3.818   0.730 -0.0908  1.6594 -0.6592
 1720TIP3   OH226794   6.303   3.503   1.034 -0.5628 -0.0558  0.8343
 1720TIP3    H126795   6.355   3.582   1.019  0.1796 -0.6488  0.2242
 1720TIP3    H226796   6.225   3.516   0.979 -0.1217 -0.0411  0.1960
 1721TIP3   OH226797   6.901   5.529   8.259 -0.2176  0.2947  0.3042
 1721TIP3    H126798   6.886   5.554   8.168 -0.1827 -3.5475 -0.9573
 1721TIP3    H226799   6.814   5.508   8.293 -0.2100  1.5335  1.1817
 1722TIP3   OH226800   1.864   3.259   8.274  0.1123 -0.1654 -0.0846
 1722TIP3    H126801   1.930   3.229   8.337 -0.8475 -1.6368  0.2676
 1722TIP3    H226802   1.900   3.235   8.189 -0.6042 -2.4452  0.1826
 1723TIP3   OH226803   1.008   1.246   7.399  0.4792 -0.1181 -0.1228
 1723TIP3    H126804   1.046   1.222   7.314  0.0102  0.7784 -0.6066
 1723TIP3    H226805   0.963   1.167   7.428 -1.1522  0.1353 -1.7424
 1724TIP3   OH226806   0.417   4.306   5.655 -0.6837  0.1743  0.3895
 1724TIP3    H126807   0.327   4.301   5.622 -0.6976 -0.4521  0.5123
 1724TIP3    H226808   0.411   4.278   5.746 -0.1450 -1.4484 -0.0318
 1725TIP3   OH226809   0.338   5.288   1.403 -0.4384 -0.3340 -0.2758
 1725TIP3    H126810   0.431   5.266   1.396  0.0073  1.5643 -0.8132
 1725TIP3    H226811   0.331   5.339   1.484 -0.9848 -0.3320 -0.3211
 1726TIP3   OH226812   1.609   3.224   1.313 -0.0630  0.5312  0.4178
 1726TIP3    H126813   1.520   3.222   1.347 -0.8106  0.9051 -1.4085
 1726TIP3    H226814   1.613   3.150   1.252  1.1881 -0.0296  1.1292
 1727TIP3   OH226815   0.575   3.269   0.832 -0.7184 -0.9167 -0.1593
 1727TIP3    H126816   0.568   3.210   0.756  1.9541 -1.1617 -0.3128
 1727TIP3    H226817   0.604   3.212   0.903 -2.8976 -0.6220  1.0360
 1728TIP3   OH226818   6.619   2.960   0.574  0.2994  0.6395  0.1120
 1728TIP3    H126819   6.604   2.879   0.525 -0.5467  0.8087  0.0864
 1728TIP3    H226820   6.648   3.022   0.507 -1.8131  1.1546 -0.3892
 1729TIP3   OH226821   3.943   3.632   8.376 -0.2771 -0.1507 -0.1376
 1729TIP3    H126822   3.861   3.632   8.327 -1.3320 -2.9337  1.4030
 1729TIP3    H226823   3.937   3.709   8.433 -2.0095 -0.5087  0.2102
 1730TIP3   OH226824   1.039   1.147   2.147  0.5192  0.1429 -0.5331
 1730TIP3    H126825   0.984   1.224   2.158  0.3432  0.1898 -1.6165
 1730TIP3    H226826   0.985   1.074   2.179  0.7654  0.4758  0.6843
 1731TIP3   OH226827   0.460   5.528   1.184  0.1079  0.0453  0.0768
 1731TIP3    H126828   0.457   5.474   1.263 -1.6450 -0.3341 -0.2024
 1731TIP3    H226829   0.551   5.557   1.178  0.9822 -2.3799  0.5774
 1732TIP3   OH226830   2.266   0.277   7.610 -0.7089  0.2252  0.3510
 1732TIP3    H126831   2.240   0.295   7.519 -1.5154 -1.0632  0.3096
 1732TIP3    H226832   2.200   0.322   7.663 -0.3645  0.7907  0.3143
 1733TIP3   OH226833   2.045   5.860   7.190  0.3762  0.2220 -0.3989
 1733TIP3    H126834   1.987   5.848   7.265 -0.1723  1.4667 -0.6117
 1733TIP3    H226835   2.007   5.933   7.141  1.7058  0.5736 -0.9432
 1734TIP3   OH226836   4.292   1.577   7.434 -1.0484 -0.4853 -0.0501
 1734TIP3    H126837   4.229   1.508   7.412 -0.5556 -0.7084 -0.8302
 1734TIP3    H226838   4.272   1.648   7.373 -0.9106 -0.3345  0.0795
 1735TIP3   OH226839   6.183   2.829   7.988  0.3269  0.6588  0.6616
 1735TIP3    H126840   6.212   2.783   8.066  2.3467 -0.1177 -0.4634
 1735TIP3    H226841   6.243   2.800   7.919 -2.9150 -0.7781 -1.8492
 1736TIP3   OH226842   1.714   2.406   7.109 -0.4297 -0.4854  0.3287
 1736TIP3    H126843   1.782   2.447   7.056  0.0520 -0.7453  0.7377
 1736TIP3    H226844   1.735   2.430   7.199  0.7516 -2.8091  0.7534
 1737TIP3   OH226845   6.716   3.234   0.793 -0.3444 -0.4764 -0.2014
 1737TIP3    H126846   6.660   3.162   0.767 -0.0504 -1.7982  2.4849
 1737TIP3    H226847   6.767   3.200   0.867  0.7704  2.0582  0.3158
 1738TIP3   OH226848   0.788   3.216   7.004  0.0756 -0.1079 -0.2031
 1738TIP3    H126849   0.777   3.311   7.002 -1.6417 -0.2786 -0.9594
 1738TIP3    H226850   0.754   3.191   7.090  0.7420 -0.0214  0.0877
 1739TIP3   OH226851   3.827   0.424   0.234  0.3427  0.2325  0.0217
 1739TIP3    H126852   3.740   0.416   0.195  0.1211  1.5116  0.1989
 1739TIP3    H226853   3.851   0.335   0.260 -1.3335  0.0068  0.8932
 1740TIP3   OH226854   0.569   2.515   1.377  0.2762 -0.1606 -0.3670
 1740TIP3    H126855   0.491   2.469   1.346 -0.0408  0.1044  0.0307
 1740TIP3    H226856   0.595   2.571   1.304 -0.3078  0.2603 -0.2558
 1741TIP3   OH226857   1.893   5.378   6.262  0.0723  0.1357 -0.5308
 1741TIP3    H126858   1.982   5.397   6.234  0.3576  0.5576  0.6228
 1741TIP3    H226859   1.837   5.427   6.200  0.6420  0.2684 -0.9473
 1742TIP3   OH226860   2.525   5.505   1.562 -0.0825 -0.2492 -0.0034
 1742TIP3    H126861   2.591   5.436   1.563 -0.2674 -0.4689 -1.1468
 1742TIP3    H226862   2.552   5.566   1.631  1.5981 -0.0744 -0.7549
 1743TIP3   OH226863   0.512   1.732   0.442 -0.0384 -0.3622 -0.4168
 1743TIP3    H126864   0.530   1.825   0.429  0.0511 -0.5877 -2.0140
 1743TIP3    H226865   0.566   1.708   0.518 -0.4342  0.9767  0.3300
 1744TIP3   OH226866   4.991   6.987   1.390  0.2616  0.1720  0.0264
 1744TIP3    H126867   5.021   7.076   1.371 -0.7269  0.5395  0.1651
 1744TIP3    H226868   4.974   6.949   1.303 -1.0220  0.7274  0.0117
 1745TIP3   OH226869   2.439   6.804   8.236  0.0314 -0.7210  0.5515
 1745TIP3    H126870   2.346   6.794   8.260 -0.1217 -0.3620  0.1127
 1745TIP3    H226871   2.446   6.893   8.203  0.8440 -0.2392  1.9199
 1746TIP3   OH226872   1.905   4.377   2.217  0.4647  0.1786 -0.3766
 1746TIP3    H126873   1.896   4.467   2.248  1.8259  0.3957 -0.5406
 1746TIP3    H226874   1.990   4.376   2.172  1.0961 -1.5104  0.7780
 1747TIP3   OH226875   1.578   4.317   2.391  0.8387 -0.6060  0.2245
 1747TIP3    H126876   1.570   4.228   2.356  0.8012  0.1245 -1.7839
 1747TIP3    H226877   1.645   4.358   2.336 -0.9209  1.3606 -0.5994
 1748TIP3   OH226878   2.629   1.103   1.450  0.3400 -0.5564 -0.3712
 1748TIP3    H126879   2.722   1.111   1.473 -0.0609  2.4987  0.7128
 1748TIP3    H226880   2.621   1.146   1.365  0.1790 -2.6679 -1.4786
 1749TIP3   OH226881   5.195   5.586   8.109  0.1884  0.5756 -0.0461
 1749TIP3    H126882   5.159   5.547   8.188  2.4221 -1.7389 -0.0174
 1749TIP3    H226883   5.281   5.618   8.135  1.3780 -1.1185 -1.6653
 1750TIP3   OH226884   0.589   0.537   8.312  0.2175 -0.0978 -0.1525
 1750TIP3    H126885   0.661   0.476   8.297  1.3491  1.2748 -0.4169
 1750TIP3    H226886   0.527   0.519   8.241  0.5406 -0.9064 -0.2378
 1751TIP3   OH226887   0.738   4.133   6.762 -0.1554  0.0761 -0.2359
 1751TIP3    H126888   0.651   4.173   6.762  0.6940  2.0102  0.1862
 1751TIP3    H226889   0.765   4.134   6.670 -0.0493  0.6636 -0.1970
 1752TIP3   OH226890   5.182   3.297   7.761  0.0337 -0.1161 -0.2184
 1752TIP3    H126891   5.214   3.378   7.799 -1.8139  0.7429 -0.3696
 1752TIP3    H226892   5.142   3.324   7.678  3.4414 -1.8403 -2.6462
 1753TIP3   OH226893   6.072   1.965   0.253 -0.8444 -0.3690 -0.3390
 1753TIP3    H126894   6.042   2.043   0.298  0.3419 -0.0904  0.0002
 1753TIP3    H226895   6.082   1.899   0.322  0.0871 -0.2149 -0.3156
 1754TIP3   OH226896   0.307   5.603   1.494  0.1311 -0.4493  0.6781
 1754TIP3    H126897   0.378   5.652   1.536  0.2563 -1.3725  1.5892
 1754TIP3    H226898   0.259   5.564   1.567  1.3466 -3.4973 -0.0180
 1755TIP3   OH226899   1.371   4.115   2.162  0.5485 -0.1636 -0.3761
 1755TIP3    H126900   1.440   4.060   2.199  1.3066  1.1352  0.1748
 1755TIP3    H226901   1.411   4.154   2.084  0.1316 -0.1181 -0.5705
 1756TIP3   OH226902   1.751   6.245   6.878 -0.2890 -0.5467  0.3914
 1756TIP3    H126903   1.749   6.154   6.851  0.7074 -0.4104 -0.1894
 1756TIP3    H226904   1.840   6.274   6.858 -1.2478  1.2171 -1.6793
 1757TIP3   OH226905   4.388   2.032   1.080  0.2116 -0.2955  0.4795
 1757TIP3    H126906   4.465   1.986   1.112 -0.2724 -1.0834  0.5570
 1757TIP3    H226907   4.314   1.982   1.116 -0.3588  1.5552  2.0352
 1758TIP3   OH226908   5.734   0.136   1.991 -0.1919 -0.4748  0.3436
 1758TIP3    H126909   5.760   0.122   2.082  0.9302 -2.3747 -0.2222
 1758TIP3    H226910   5.771   0.222   1.968  0.5725 -0.5303  1.3165
 1759TIP3   OH226911   5.681   0.233   7.514 -0.1239 -0.1214  0.0119
 1759TIP3    H126912   5.727   0.293   7.572  1.7672 -0.0591 -1.4491
 1759TIP3    H226913   5.747   0.169   7.488 -1.1165 -0.6175 -1.4196
 1760TIP3   OH226914   0.218   3.992   6.920 -0.2381 -0.5827  0.1426
 1760TIP3    H126915   0.251   4.012   7.008  0.2674  1.3252 -0.4317
 1760TIP3    H226916   0.297   3.979   6.867 -0.5321 -1.3655 -0.1242
 1761TIP3   OH226917   6.164   3.801   7.576  0.9351  0.6329 -0.1136
 1761TIP3    H126918   6.158   3.825   7.669  0.7485 -0.1809  0.0928
 1761TIP3    H226919   6.076   3.771   7.554  0.5284  2.3212 -1.0059
 1762TIP3   OH226920   1.493   4.369   2.674  0.1187 -0.1054 -0.1398
 1762TIP3    H126921   1.475   4.400   2.585  1.0623  2.1379  0.3903
 1762TIP3    H226922   1.567   4.310   2.664 -1.1976 -1.6764 -1.0828
 1763TIP3   OH226923   4.791   6.927   1.854 -0.0321  0.5259 -0.2161
 1763TIP3    H126924   4.864   6.913   1.914 -0.1051 -2.9104 -0.7222
 1763TIP3    H226925   4.825   6.897   1.769 -1.9863 -1.3924 -0.4147
 1764TIP3   OH226926   0.758   6.629   1.975  0.3998  0.0252 -0.2559
 1764TIP3    H126927   0.715   6.694   2.031  0.4160  0.0619 -0.2864
 1764TIP3    H226928   0.846   6.621   2.010  1.5136  2.4458 -2.2330
 1765TIP3   OH226929   6.449   4.538   6.330  0.7500 -0.8947 -0.4798
 1765TIP3    H126930   6.468   4.626   6.361  0.1773 -0.3616 -1.5934
 1765TIP3    H226931   6.504   4.527   6.252  2.1735 -2.2121  0.6381
 1766TIP3   OH226932   1.198   2.358   6.793  0.2824  0.1847 -0.2054
 1766TIP3    H126933   1.261   2.364   6.720  0.7480 -0.3635  0.1457
 1766TIP3    H226934   1.239   2.298   6.855 -0.2128  0.4815  0.4161
 1767TIP3   OH226935   3.492   5.998   0.239  0.0061  0.7163  0.4425
 1767TIP3    H126936   3.501   5.904   0.257  1.2290  0.2922 -1.9856
 1767TIP3    H226937   3.564   6.038   0.288 -1.3979  0.6703  2.7140
 1768TIP3   OH226938   5.271   3.779   1.032 -0.2505  0.4743  0.5955
 1768TIP3    H126939   5.212   3.850   1.056 -1.2692 -0.1740  0.0869
 1768TIP3    H226940   5.238   3.703   1.079  0.1718  0.0906  0.2798
 1769TIP3   OH226941   1.835   6.278   7.903 -0.0251 -0.0408 -0.3693
 1769TIP3    H126942   1.882   6.310   7.826  0.8655  0.9859  0.5729
 1769TIP3    H226943   1.851   6.344   7.970 -0.5403 -1.0666  0.7973
 1770TIP3   OH226944   4.534   6.120   7.424  0.0401  0.3159  0.0907
 1770TIP3    H126945   4.518   6.185   7.492 -0.8494  0.8871 -0.6418
 1770TIP3    H226946   4.618   6.145   7.386  0.1397  0.4884  0.4246
 1771TIP3   OH226947   3.447   1.975   1.788 -0.0565  0.2404 -0.2849
 1771TIP3    H126948   3.452   1.896   1.843  0.8224 -0.7998 -1.7917
 1771TIP3    H226949   3.362   1.970   1.745 -1.4523  1.8746  2.0547
 1772TIP3   OH226950   2.662   0.708   0.837 -0.0349 -0.0299  0.2541
 1772TIP3    H126951   2.728   0.639   0.839  0.9146  0.8605  1.4783
 1772TIP3    H226952   2.581   0.665   0.862  0.3705 -0.8555  0.1781
 1773TIP3   OH226953   1.387   0.282   6.964  0.4138 -0.0731 -0.2741
 1773TIP3    H126954   1.362   0.316   7.050 -2.0471 -1.8819 -0.1518
 1773TIP3    H226955   1.480   0.265   6.971  0.3060 -0.0141  2.0092
 1774TIP3   OH226956   5.073   4.756   7.776  0.6378 -0.2531 -0.3623
 1774TIP3    H126957   5.038   4.734   7.863  1.0605 -2.9101 -0.7901
 1774TIP3    H226958   5.033   4.840   7.755  0.9584  0.7593  2.6389
 1775TIP3   OH226959   3.990   3.694   7.479  0.8591  0.1576  0.5755
 1775TIP3    H126960   3.948   3.761   7.532 -0.4655 -2.3182  2.8653
 1775TIP3    H226961   3.937   3.690   7.399 -2.4395 -1.7371  2.6842
 1776TIP3   OH226962   1.873   1.961   7.652  0.5968 -0.1208  0.0088
 1776TIP3    H126963   1.943   2.026   7.659  0.6040 -0.3242  3.0843
 1776TIP3    H226964   1.849   1.962   7.560 -0.9370  5.8371  0.0847
 1777TIP3   OH226965   5.475   1.727   6.458  0.0509  0.2959  0.7668
 1777TIP3    H126966   5.476   1.654   6.520  0.4265 -1.1673 -0.8866
 1777TIP3    H226967   5.393   1.717   6.411  0.4088  0.5303  0.0849
 1778TIP3   OH226968   1.794   4.380   1.015 -0.0506  0.3115 -0.5145
 1778TIP3    H126969   1.736   4.314   0.977  0.4129 -0.8039  0.6383
 1778TIP3    H226970   1.813   4.347   1.103  1.0318  1.4717 -0.2906
 1779TIP3   OH226971   5.173   0.502   0.057  0.3459 -0.6939 -0.4749
 1779TIP3    H126972   5.240   0.571   0.053 -0.7573  0.3771 -1.3931
 1779TIP3    H226973   5.189   0.458   0.140  1.3810  0.3842 -0.0677
 1780TIP3   OH226974   6.761   0.154   7.390  0.1936  0.5830 -0.1099
 1780TIP3    H126975   6.760   0.082   7.453  1.6637  1.1745  0.6344
 1780TIP3    H226976   6.789   0.114   7.308  1.5452  0.3686  0.4287
 1781TIP3   OH226977   3.951   3.003   1.918  0.5109 -0.3064 -0.3109
 1781TIP3    H126978   3.976   3.071   1.980  1.2076 -0.6348 -0.2155
 1781TIP3    H226979   3.907   3.049   1.847  0.3601  0.1585  0.0845
 1782TIP3   OH226980   3.244   1.196   0.023 -0.2325  0.1067  0.2249
 1782TIP3    H126981   3.167   1.147  -0.007 -1.3363  1.8758  0.0350
 1782TIP3    H226982   3.234   1.283  -0.016  1.8592  0.4089  0.2464
 1783TIP3   OH226983   1.541   4.921   7.793  0.2580 -0.3824  0.3850
 1783TIP3    H126984   1.594   4.981   7.846 -3.0871  3.7287 -0.3389
 1783TIP3    H226985   1.477   4.886   7.854 -0.6610  0.5734 -0.0053
 1784TIP3   OH226986   1.705   6.678   8.467  0.2298  0.3314 -0.1634
 1784TIP3    H126987   1.801   6.686   8.466  0.4327 -1.5677 -1.1182
 1784TIP3    H226988   1.681   6.686   8.559  1.0737  2.6926 -0.0803
 1785TIP3   OH226989   2.922   2.788   6.325 -0.1803 -0.1286  0.7432
 1785TIP3    H126990   2.983   2.846   6.371 -0.1105 -0.0371  0.5395
 1785TIP3    H226991   2.978   2.736   6.267 -0.2849 -0.1098  0.6234
 1786TIP3   OH226992   6.433   3.894   6.738  0.2337 -0.0875  0.2062
 1786TIP3    H126993   6.389   3.863   6.817 -0.7258  1.3112  0.2543
 1786TIP3    H226994   6.386   3.851   6.666  1.3806 -1.6981  0.3649
 1787TIP3   OH226995   5.472   0.914   7.164  0.2683 -0.0700 -0.5180
 1787TIP3    H126996   5.478   0.951   7.252 -0.0902  0.9519 -0.9061
 1787TIP3    H226997   5.507   0.825   7.173  0.9104  0.2624  0.5018
 1788TIP3   OH226998   0.372   3.913   0.665  0.8892  0.1368 -0.6016
 1788TIP3    H126999   0.367   3.830   0.711  0.7676 -0.8907 -2.3926
 1788TIP3    H227000   0.382   3.978   0.734  1.6300 -1.4083  0.7994
 1789TIP3   OH227001   0.488   0.114   0.562 -0.4727 -0.2970 -0.4187
 1789TIP3    H127002   0.568   0.146   0.520  0.7645 -0.2138  1.8536
 1789TIP3    H227003   0.425   0.186   0.553  0.4256  0.5196 -0.3492
 1790TIP3   OH227004   3.091   1.045   7.190 -0.8293  0.6390 -0.0453
 1790TIP3    H127005   3.061   1.068   7.102 -1.8195 -0.3991 -0.0021
 1790TIP3    H227006   3.058   1.115   7.246 -2.3465  0.0337 -0.1520
 1791TIP3   OH227007   0.134   4.456   6.497 -0.0550 -0.6246 -0.0469
 1791TIP3    H127008   0.195   4.429   6.565 -1.1264 -0.2966  1.0691
 1791TIP3    H227009   0.128   4.551   6.506 -1.7422 -0.7811  0.7520
 1792TIP3   OH227010   6.260   6.451   1.097  0.1290  0.2048 -0.2421
 1792TIP3    H127011   6.259   6.534   1.048 -0.1168  1.0572  1.1571
 1792TIP3    H227012   6.351   6.420   1.088  0.6862  1.4967  0.6111
 1793TIP3   OH227013   6.347   6.858   0.785  0.3252 -0.5605  0.0730
 1793TIP3    H127014   6.362   6.898   0.699 -0.7785 -1.2179 -0.4519
 1793TIP3    H227015   6.400   6.911   0.846  2.6423 -1.2026 -1.2394
 1794TIP3   OH227016   1.644   5.631   6.722  0.2921 -0.2252 -0.2430
 1794TIP3    H127017   1.728   5.662   6.755 -0.2792 -0.4917  1.6063
 1794TIP3    H227018   1.602   5.589   6.798 -1.3660 -0.3996 -1.1906
 1795TIP3   OH227019   1.908   5.524   1.802  0.2721 -0.5222 -0.0882
 1795TIP3    H127020   1.990   5.552   1.763 -0.0539  0.7916  0.1133
 1795TIP3    H227021   1.907   5.565   1.889 -0.8218 -0.0599 -0.2909
 1796TIP3   OH227022   4.599   3.281   0.332  0.0804 -0.2856 -0.5972
 1796TIP3    H127023   4.658   3.206   0.334  0.4795 -0.0292 -1.9269
 1796TIP3    H227024   4.593   3.309   0.424  1.4164 -0.7733 -0.3361
 1797TIP3   OH227025   4.567   0.063   0.028 -0.2137  0.0006 -0.1445
 1797TIP3    H127026   4.560  -0.032   0.029 -0.0177 -0.0588 -1.7287
 1797TIP3    H227027   4.657   0.081   0.056 -0.6304 -0.1839  1.4219
 1798TIP3   OH227028   1.295   4.776   7.854 -0.3706 -0.3760  0.2288
 1798TIP3    H127029   1.233   4.849   7.856  0.1507  0.0628  0.4742
 1798TIP3    H227030   1.272   4.723   7.930 -1.3435 -0.9787 -0.4519
 1799TIP3   OH227031   5.766   3.085   6.376  0.2038 -0.2905 -0.2935
 1799TIP3    H127032   5.715   3.018   6.330  0.0791 -2.1582  2.3306
 1799TIP3    H227033   5.705   3.123   6.440  1.2573 -0.4366  0.8578
 1800TIP3   OH227034   0.284   6.688   0.123  0.2057 -0.4151  0.1562
 1800TIP3    H127035   0.225   6.671   0.197  0.9400 -1.7494  0.4678
 1800TIP3    H227036   0.317   6.777   0.139  1.0482 -0.9942  1.9749
 1801TIP3   OH227037   1.045   3.439   0.286  0.0786  0.1407 -0.3690
 1801TIP3    H127038   1.020   3.405   0.372 -1.7342  1.4046 -0.3362
 1801TIP3    H227039   1.086   3.524   0.305 -1.2841  0.9232 -0.7525
 1802TIP3   OH227040   0.741   6.882   7.721 -0.7983 -0.2251 -0.3391
 1802TIP3    H127041   0.676   6.937   7.679 -1.1527 -0.1741  0.2618
 1802TIP3    H227042   0.795   6.849   7.649 -0.2174  1.3449 -0.6700
 1803TIP3   OH227043   0.469   2.695   2.066 -0.3085  0.5762 -1.3466
 1803TIP3    H127044   0.483   2.603   2.088 -0.0762  0.8088 -0.4793
 1803TIP3    H227045   0.382   2.715   2.102 -0.6774  0.5162 -2.1684
 1804TIP3   OH227046   3.259   5.453   6.786  0.3665 -0.2616  0.4827
 1804TIP3    H127047   3.276   5.359   6.782  0.8396 -0.1521 -0.1921
 1804TIP3    H227048   3.346   5.493   6.799  0.3770  0.1647 -0.7299
 1805TIP3   OH227049   2.972   2.360   7.457  0.5151 -0.7383 -0.5898
 1805TIP3    H127050   2.973   2.287   7.395 -0.4686 -0.0601 -1.4299
 1805TIP3    H227051   2.900   2.339   7.517 -0.3203 -0.0704 -1.3365
 1806TIP3   OH227052   6.544   5.841   7.034  0.3364 -0.7541  0.9087
 1806TIP3    H127053   6.536   5.924   7.081 -0.2799 -0.6111  0.5615
 1806TIP3    H227054   6.633   5.812   7.052  1.7599  1.6002 -1.5845
 1807TIP3   OH227055   5.638   4.176   1.908  0.4672 -0.3786 -0.0836
 1807TIP3    H127056   5.609   4.095   1.866  1.2171 -0.7636  0.1246
 1807TIP3    H227057   5.579   4.186   1.983 -0.1097 -0.3264 -0.5364
 1808TIP3   OH227058   3.950   6.222   0.652 -0.0535 -0.3193 -0.0779
 1808TIP3    H127059   4.032   6.262   0.681 -0.5784  0.8978 -0.1653
 1808TIP3    H227060   3.976   6.140   0.611  0.7478 -2.1040  3.6066
 1809TIP3   OH227061   4.029   3.602   7.896  0.3917  0.2380  0.2426
 1809TIP3    H127062   4.049   3.695   7.898  1.8102 -0.0448  0.4832
 1809TIP3    H227063   3.955   3.592   7.956 -0.0289  1.2486 -0.0878
 1810TIP3   OH227064   3.203   5.686   8.298 -0.1705  0.4674 -0.7968
 1810TIP3    H127065   3.215   5.614   8.360  1.7000  0.4954 -1.0621
 1810TIP3    H227066   3.121   5.667   8.254 -0.3134 -0.8481  0.0037
 1811TIP3   OH227067   0.266   1.827   0.883 -0.4467  0.0778  0.0289
 1811TIP3    H127068   0.187   1.882   0.873  0.6938  1.3672 -3.6839
 1811TIP3    H227069   0.313   1.839   0.800  2.8197 -2.0173  1.4152
 1812TIP3   OH227070   5.858   4.779   2.262 -0.5942 -0.1512 -0.0094
 1812TIP3    H127071   5.918   4.821   2.323 -1.1709  0.3556  0.2246
 1812TIP3    H227072   5.802   4.724   2.317 -0.0467 -0.9934 -0.2788
 1813TIP3   OH227073   0.967   0.762   0.987  1.0377 -0.1625  0.7539
 1813TIP3    H127074   0.975   0.820   1.062 -1.9726  0.9395  0.3667
 1813TIP3    H227075   0.927   0.682   1.023  1.3568 -0.3871  0.6147
 1814TIP3   OH227076   1.467   3.596   6.708 -0.2933  0.2220 -0.2415
 1814TIP3    H127077   1.414   3.527   6.668  0.0860 -0.5675  0.5969
 1814TIP3    H227078   1.501   3.647   6.634 -1.1640 -0.0376 -0.8366
 1815TIP3   OH227079   4.861   2.332   0.250 -0.1835 -0.1407  0.0542
 1815TIP3    H127080   4.896   2.268   0.312  0.0647  0.9015  1.0235
 1815TIP3    H227081   4.935   2.353   0.194 -0.0048  0.0085  0.3442
 1816TIP3   OH227082   4.129   5.906   1.304 -0.2722 -0.1540 -0.5046
 1816TIP3    H127083   4.177   5.943   1.230 -0.8095 -1.5498 -1.5791
 1816TIP3    H227084   4.042   5.945   1.299 -0.9181 -1.6663 -1.7857
 1817TIP3   OH227085   2.393   0.891   1.070  0.1121 -0.0266 -0.1765
 1817TIP3    H127086   2.364   0.808   1.109 -1.7233  0.3854 -0.5613
 1817TIP3    H227087   2.388   0.876   0.976 -1.2426  0.7978 -0.2687
 1818TIP3   OH227088   4.753   2.474   1.586 -0.1420  0.5911  0.6698
 1818TIP3    H127089   4.699   2.534   1.638  0.2450  3.1396 -1.6273
 1818TIP3    H227090   4.840   2.513   1.589  0.1854 -0.0101 -0.6444
 1819TIP3   OH227091   5.609   4.679   7.251  0.4175  0.1328 -0.0372
 1819TIP3    H127092   5.533   4.659   7.307 -2.8195  1.7816 -3.4088
 1819TIP3    H227093   5.638   4.765   7.281  0.3931 -0.1116  0.7201
 1820TIP3   OH227094   4.477   4.435   1.603 -0.1902  0.2778 -0.3760
 1820TIP3    H127095   4.521   4.519   1.617 -0.6742  0.4711 -0.0065
 1820TIP3    H227096   4.517   4.376   1.667 -1.4681  0.8243  0.9917
 1821TIP3   OH227097   1.173   1.853   6.741  0.2818  0.0834  0.0363
 1821TIP3    H127098   1.201   1.897   6.661 -0.4961  0.5336 -0.0062
 1821TIP3    H227099   1.129   1.774   6.711 -1.1516  0.8849 -0.0797
 1822TIP3   OH227100   0.456   2.720   1.188  0.0680  0.7639 -0.3490
 1822TIP3    H127101   0.533   2.709   1.132 -0.0941  0.4683 -0.5110
 1822TIP3    H227102   0.388   2.666   1.148  0.4407 -0.8318  1.0598
 1823TIP3   OH227103   5.959   3.911   1.250 -0.2075  0.4267  0.1271
 1823TIP3    H127104   6.008   3.889   1.329 -0.5254 -0.4907  0.0863
 1823TIP3    H227105   6.025   3.923   1.182  0.1527  2.3709  0.7602
 1824TIP3   OH227106   4.024   0.417   2.111 -0.0683 -0.2567  0.0631
 1824TIP3    H127107   4.119   0.429   2.102  0.1728 -1.3300  0.9161
 1824TIP3    H227108   4.000   0.358   2.040 -0.0319 -0.2674  0.0597
 1825TIP3   OH227109   0.057   4.169   6.431 -0.3665  0.1051  0.0312
 1825TIP3    H127110   0.020   4.148   6.345 -0.1968  0.5470 -0.1571
 1825TIP3    H227111   0.069   4.264   6.429  0.2411  0.0398  0.2981
 1826TIP3   OH227112   5.824   3.943   8.386 -0.1506  0.1876  0.5178
 1826TIP3    H127113   5.777   4.008   8.333 -0.0781 -0.9124 -0.9527
 1826TIP3    H227114   5.755   3.899   8.436 -0.7760 -1.4122 -1.6223
 1827TIP3   OH227115   2.149   4.078   1.376  0.2377 -0.0113  0.5205
 1827TIP3    H127116   2.168   4.093   1.469  1.6721 -0.9604  0.3954
 1827TIP3    H227117   2.212   4.013   1.348 -1.3826 -1.1608 -0.6756
 1828TIP3   OH227118   2.358   2.600   0.891  0.1523  0.5383 -0.0118
 1828TIP3    H127119   2.323   2.688   0.874 -0.1432  0.4744  0.2632
 1828TIP3    H227120   2.282   2.548   0.916 -0.3619 -0.7375 -3.6152
 1829TIP3   OH227121   3.025   3.727   6.534  0.4026 -0.2403  0.2415
 1829TIP3    H127122   3.101   3.726   6.477 -0.2504 -1.5033 -0.6698
 1829TIP3    H227123   2.963   3.786   6.491  1.4174  2.1174  1.8318
 1830TIP3   OH227124   1.161   5.958   1.917 -0.6711 -0.1356 -0.3650
 1830TIP3    H127125   1.157   6.051   1.936 -1.2197 -0.0478 -0.8946
 1830TIP3    H227126   1.234   5.926   1.970 -0.6324  0.5458  0.0005
 1831TIP3   OH227127   5.152   2.778   0.864  0.3525  0.0579  0.1046
 1831TIP3    H127128   5.068   2.825   0.873  0.3793  0.0709  0.2897
 1831TIP3    H227129   5.163   2.733   0.948  0.4492 -0.0806  0.0174
 1832TIP3   OH227130   6.697   6.075   1.181 -0.2220 -0.1139 -0.3404
 1832TIP3    H127131   6.730   5.986   1.171 -0.0217  0.0793 -1.4896
 1832TIP3    H227132   6.746   6.127   1.117  1.8923  1.4501  2.3046
 1833TIP3   OH227133   2.255   2.859   0.862  0.4864 -0.0165 -0.5466
 1833TIP3    H127134   2.285   2.941   0.902 -0.2549  0.4279 -0.8704
 1833TIP3    H227135   2.198   2.888   0.790 -1.1102 -0.8026  0.3319
 1834TIP3   OH227136   2.853   3.090   7.445 -0.2981  0.5967  0.0564
 1834TIP3    H127137   2.832   3.159   7.382  0.3909 -0.9393 -1.9902
 1834TIP3    H227138   2.947   3.073   7.432  0.7443  2.3422  3.8149
 1835TIP3   OH227139   5.884   3.504   0.968 -0.4004  0.4445  0.2642
 1835TIP3    H127140   5.889   3.465   1.056 -0.4688 -1.1563 -0.4067
 1835TIP3    H227141   5.974   3.534   0.951 -0.4399  1.0066  0.9643
 1836TIP3   OH227142   3.347   2.338   6.817  1.2008  0.3372  0.4317
 1836TIP3    H127143   3.272   2.318   6.761  1.1150 -0.4305  0.7989
 1836TIP3    H227144   3.331   2.427   6.849  0.1509 -0.0198  0.9494
 1837TIP3   OH227145   6.878   6.383   7.981  0.7303 -0.3230 -0.0261
 1837TIP3    H127146   6.795   6.432   7.987  0.3216 -1.1975  2.6609
 1837TIP3    H227147   6.861   6.315   7.916 -0.2455  0.2585 -0.4010
 1838TIP3   OH227148   0.674   0.602   7.466 -0.5948  0.3595 -0.2193
 1838TIP3    H127149   0.602   0.656   7.433 -1.9143 -1.5451 -0.6442
 1838TIP3    H227150   0.662   0.518   7.423  1.1747 -0.4031  0.6862
 1839TIP3   OH227151   6.553   1.926   0.187 -0.2111  0.3386  0.0103
 1839TIP3    H127152   6.509   1.867   0.248 -1.4410 -0.4502 -1.5777
 1839TIP3    H227153   6.576   1.871   0.112 -1.9970  1.8856 -1.8201
 1840TIP3   OH227154   0.683   6.533   0.696 -0.3933  0.3291  0.1083
 1840TIP3    H127155   0.716   6.608   0.747 -2.3382  2.3087 -1.3366
 1840TIP3    H227156   0.590   6.529   0.719 -1.0627  0.5589 -2.3343
 1841TIP3   OH227157   1.311   1.016   0.326  0.0959 -0.3932 -0.2614
 1841TIP3    H127158   1.363   0.936   0.334  2.0534  0.8904  0.6187
 1841TIP3    H227159   1.376   1.087   0.329 -1.7219  1.3126  1.1589
 1842TIP3   OH227160   2.142   4.809   7.615 -0.2261  0.3092 -0.7154
 1842TIP3    H127161   2.227   4.791   7.574  0.8157  3.4117 -0.1498
 1842TIP3    H227162   2.163   4.844   7.701 -2.1373  0.3939 -0.2286
 1843TIP3   OH227163   4.201   0.071   7.224  0.3001 -0.0691 -0.3869
 1843TIP3    H127164   4.145   0.000   7.257  0.5404 -0.3941 -0.6667
 1843TIP3    H227165   4.287   0.053   7.262  0.2112  0.4389  0.0534
 1844TIP3   OH227166   3.067   3.291   1.899  0.0671  0.6449 -0.0662
 1844TIP3    H127167   3.101   3.371   1.938  0.1252  0.2445  0.7289
 1844TIP3    H227168   2.983   3.276   1.942  1.4165 -1.3586  2.1109
 1845TIP3   OH227169   1.167   2.022   7.520 -0.0955 -0.0231 -0.3638
 1845TIP3    H127170   1.244   2.073   7.544 -0.6602  1.5995 -1.8175
 1845TIP3    H227171   1.093   2.081   7.534 -1.2208 -1.7829  1.6951
 1846TIP3   OH227172   6.190   6.946   7.930 -0.2100 -0.0238  0.6491
 1846TIP3    H127173   6.148   6.862   7.946  1.3457 -0.6037  1.9583
 1846TIP3    H227174   6.224   6.939   7.840 -0.4255 -0.6410  0.6139
 1847TIP3   OH227175   3.248   0.576   1.460 -0.3333 -1.1979  0.4510
 1847TIP3    H127176   3.220   0.583   1.369  0.0678 -2.0594  0.2468
 1847TIP3    H227177   3.254   0.666   1.491 -1.3193 -0.9309 -0.1072
 1848TIP3   OH227178   2.002   6.848   1.887  0.1006 -0.2756  0.4468
 1848TIP3    H127179   1.924   6.894   1.853  0.2262 -2.0353 -2.6050
 1848TIP3    H227180   2.024   6.894   1.967 -1.7300  2.8254 -0.6649
 1849TIP3   OH227181   0.450   3.880   7.320 -0.6936 -0.1644 -0.5892
 1849TIP3    H127182   0.453   3.817   7.248  0.2063 -1.0963  0.2351
 1849TIP3    H227183   0.469   3.828   7.398 -2.2101  0.7201  0.4196
 1850TIP3   OH227184   6.566   4.780   1.592  0.1575  0.3267 -0.2158
 1850TIP3    H127185   6.542   4.759   1.682  0.4169 -1.1299 -0.4646
 1850TIP3    H227186   6.491   4.829   1.559 -1.0787 -1.2992  0.0427
 1851TIP3   OH227187   2.486   0.390   0.714  0.0662  0.4736 -0.1304
 1851TIP3    H127188   2.550   0.430   0.656  0.3368  0.8037  0.3932
 1851TIP3    H227189   2.518   0.301   0.727 -0.9170 -0.1973 -1.8812
 1852TIP3   OH227190   1.326   6.852   7.393  0.6664 -0.6864 -0.1871
 1852TIP3    H127191   1.372   6.767   7.394 -0.3921 -1.3168  1.9725
 1852TIP3    H227192   1.350   6.892   7.477 -0.7208  0.0854 -0.1421
 1853TIP3   OH227193   6.693   3.254   8.224  0.3149 -0.4129 -0.2861
 1853TIP3    H127194   6.647   3.317   8.168  0.7488  1.7290  1.6180
 1853TIP3    H227195   6.705   3.177   8.168 -2.3579  0.2600 -1.9809
 1854TIP3   OH227196   5.559   3.474   6.767  0.3583  0.2269  0.0523
 1854TIP3    H127197   5.474   3.456   6.726 -0.3261 -2.6124  2.3494
 1854TIP3    H227198   5.617   3.497   6.694 -1.2104 -2.5689 -2.2895
 1855TIP3   OH227199   5.812   4.961   0.691 -0.3683  0.8027 -0.0933
 1855TIP3    H127200   5.718   4.973   0.702 -0.4562 -1.6652  3.9040
 1855TIP3    H227201   5.851   5.039   0.731 -0.7413  0.5001  0.8708
 1856TIP3   OH227202   1.198   1.133   7.208 -0.2891  0.2665 -0.5244
 1856TIP3    H127203   1.201   1.038   7.207  2.6723  0.2605 -1.1539
 1856TIP3    H227204   1.224   1.159   7.120  0.0926  1.6353 -0.0378
 1857TIP3   OH227205   1.508   2.748   0.094 -0.2944 -0.3817  0.2182
 1857TIP3    H127206   1.431   2.801   0.114 -0.2212 -0.4320  0.6279
 1857TIP3    H227207   1.566   2.760   0.169 -0.4241 -1.3070  0.4775
 1858TIP3   OH227208   4.470   6.735   7.244  0.7693  0.1275  0.2214
 1858TIP3    H127209   4.389   6.759   7.199  0.2233 -1.2613  0.3948
 1858TIP3    H227210   4.512   6.673   7.184  0.7620 -0.5977  0.9477
 1859TIP3   OH227211   4.479   1.006   0.125  0.2674  0.0341  0.3446
 1859TIP3    H127212   4.506   1.094   0.100  1.5652 -0.3887  0.2057
 1859TIP3    H227213   4.393   0.995   0.084  0.6235  0.7955 -0.6293
 1860TIP3   OH227214   5.024   4.128   2.137 -0.1894  0.2723  0.1105
 1860TIP3    H127215   4.957   4.110   2.203 -0.3707  0.0467 -0.1301
 1860TIP3    H227216   5.091   4.062   2.152 -1.0536 -0.9256 -1.0435
 1861TIP3   OH227217   2.125   4.402   1.522 -0.1647 -0.1897  0.0538
 1861TIP3    H127218   2.103   4.309   1.515  0.0813 -0.1961 -0.7203
 1861TIP3    H227219   2.206   4.404   1.572  0.8970 -0.5474 -1.5800
 1862TIP3   OH227220   0.602   5.102   1.564 -0.0279  0.2824 -0.0351
 1862TIP3    H127221   0.590   5.078   1.472  1.9704 -0.4242 -0.1555
 1862TIP3    H227222   0.616   5.019   1.609  0.4637  0.7386  0.6748
 1863TIP3   OH227223   2.878   0.534   8.335  0.0219  0.1854 -0.3088
 1863TIP3    H127224   2.788   0.528   8.302  0.2545 -1.0312 -0.7675
 1863TIP3    H227225   2.881   0.471   8.407 -0.0436  1.7026  1.0860
 1864TIP3   OH227226   4.318   1.807   1.545  0.2481 -0.5174  0.1126
 1864TIP3    H127227   4.312   1.711   1.548  1.0307 -0.5475  1.4021
 1864TIP3    H227228   4.379   1.829   1.615 -2.0622  1.1119  1.7683
 1865TIP3   OH227229   6.141   1.561   6.197  0.2424 -0.1288 -0.1297
 1865TIP3    H127230   6.234   1.556   6.218 -0.3183  0.7831  3.1735
 1865TIP3    H227231   6.100   1.495   6.253 -1.3449  1.4610  0.6735
 1866TIP3   OH227232   3.544   0.126   0.952 -0.4835 -0.2977  0.0052
 1866TIP3    H127233   3.475   0.193   0.953  0.4334  0.6702 -0.1138
 1866TIP3    H227234   3.593   0.142   0.872 -0.6114 -1.5177 -0.3403
 1867TIP3   OH227235   1.505   6.252   8.190 -0.0405  0.1145  0.2007
 1867TIP3    H127236   1.566   6.245   8.264 -1.2536 -1.1410  1.1300
 1867TIP3    H227237   1.436   6.188   8.210 -0.0112 -0.8317 -2.3951
 1868TIP3   OH227238   5.351   4.476   6.964 -0.0214 -0.2256 -0.1235
 1868TIP3    H127239   5.335   4.493   6.871  0.0999 -0.4678 -0.1898
 1868TIP3    H227240   5.382   4.385   6.967  1.5019  0.2590 -0.0202
 1869TIP3   OH227241   3.330   1.160   7.957 -0.1128 -0.3812  0.1483
 1869TIP3    H127242   3.361   1.071   7.975  0.2268 -0.3816 -0.4334
 1869TIP3    H227243   3.238   1.149   7.933  0.1481 -0.6739 -0.7512
 1870TIP3   OH227244   1.182   6.935   0.376  0.3596 -0.8548  0.2889
 1870TIP3    H127245   1.149   6.845   0.380  1.2763 -1.1592  2.3175
 1870TIP3    H227246   1.178   6.965   0.467  2.0942  0.3847 -0.0071
 1871TIP3   OH227247   4.550   1.832   1.698  0.1700  0.0672 -0.0990
 1871TIP3    H127248   4.530   1.903   1.760  0.0948  0.0854 -0.1442
 1871TIP3    H227249   4.638   1.802   1.723 -0.0946 -0.3125  0.3877
 1872TIP3   OH227250   1.316   4.442   7.029 -0.0159 -0.5462 -0.8451
 1872TIP3    H127251   1.284   4.523   6.989 -0.4940 -0.6422 -0.6691
 1872TIP3    H227252   1.320   4.380   6.956 -1.5587 -0.9194 -0.6383
 1873TIP3   OH227253   0.201   2.007   7.200 -0.1055 -0.3217  0.2775
 1873TIP3    H127254   0.245   1.966   7.275 -1.5472 -0.6956  0.9513
 1873TIP3    H227255   0.236   2.096   7.197  1.1780 -0.7985  0.3698
 1874TIP3   OH227256   1.289   6.067   7.597 -0.3479  0.3708 -0.3740
 1874TIP3    H127257   1.217   6.130   7.591 -3.4031 -2.7175  0.6285
 1874TIP3    H227258   1.291   6.025   7.511 -1.0309 -0.7400  0.1239
 1875TIP3   OH227259   4.365   6.052   8.274 -0.7443  0.2243 -0.1532
 1875TIP3    H127260   4.347   5.959   8.262 -1.1246  0.1212  1.0988
 1875TIP3    H227261   4.461   6.058   8.277 -0.6936 -0.5682  2.5914
 1876TIP3   OH227262   4.632   6.570   1.388  0.2789  0.1154 -0.4224
 1876TIP3    H127263   4.687   6.646   1.374 -0.5300  0.7306 -0.3373
 1876TIP3    H227264   4.650   6.544   1.479  3.1952 -1.9918 -1.4381
 1877TIP3   OH227265   0.298   0.553   0.349  0.3867 -0.0212 -0.1526
 1877TIP3    H127266   0.386   0.524   0.327  0.0379 -0.7733 -0.6151
 1877TIP3    H227267   0.297   0.646   0.330  1.0890 -0.0007 -0.1069
 1878TIP3   OH227268   3.776   3.045   1.548 -0.7023  0.2679  0.2369
 1878TIP3    H127269   3.702   3.013   1.498 -0.3094 -0.5195  0.1467
 1878TIP3    H227270   3.816   2.967   1.587 -0.8522  0.8277  1.5896
 1879TIP3   OH227271   5.989   5.828   1.024 -0.5738  0.4675 -0.1684
 1879TIP3    H127272   5.962   5.763   1.088 -2.1132  1.5087  0.2867
 1879TIP3    H227273   6.076   5.799   0.995  0.9063  0.7779  3.4935
 1880TIP3   OH227274   4.804   2.878   7.006 -0.3203  0.1753  0.2128
 1880TIP3    H127275   4.781   2.948   6.944  0.6545  1.1138  0.8858
 1880TIP3    H227276   4.769   2.908   7.090 -2.3139 -1.4479  0.0448
 1881TIP3   OH227277   3.684   1.159   7.293  0.2776  0.1601  0.1493
 1881TIP3    H127278   3.758   1.104   7.319 -0.5597 -0.9277  0.3371
 1881TIP3    H227279   3.626   1.157   7.369 -0.5757 -0.1645 -0.4980
 1882TIP3   OH227280   6.417   5.430   6.874 -0.0543  0.4659 -0.4891
 1882TIP3    H127281   6.396   5.523   6.886  0.3944  0.4422  0.5942
 1882TIP3    H227282   6.512   5.428   6.864 -0.0576  0.1182 -0.4616
 1883TIP3   OH227283   1.399   2.625   7.033  0.0862  0.0257 -0.4011
 1883TIP3    H127284   1.470   2.608   7.096  0.5067  1.2228 -0.5252
 1883TIP3    H227285   1.402   2.720   7.019 -0.1439 -0.1871 -2.0726
 1884TIP3   OH227286   1.662   2.219   8.178 -0.2302  0.0982 -1.2814
 1884TIP3    H127287   1.694   2.246   8.092 -2.8704  1.1365 -2.0219
 1884TIP3    H227288   1.574   2.185   8.162 -0.2918 -0.9506  0.8610
 1885TIP3   OH227289   1.275   2.781   0.412  0.1238  0.1024 -0.2260
 1885TIP3    H127290   1.189   2.821   0.427  0.4962  1.3319 -1.1733
 1885TIP3    H227291   1.261   2.720   0.340  0.1643  0.7954 -0.8313
 1886TIP3   OH227292   2.804   0.335   6.935 -0.6647  0.1876 -0.0544
 1886TIP3    H127293   2.772   0.387   6.862  0.4974  0.5477 -0.3308
 1886TIP3    H227294   2.777   0.383   7.013  0.9446  1.5935 -0.3070
 1887TIP3   OH227295   4.194   0.679   1.218  0.2968 -0.7998 -0.0506
 1887TIP3    H127296   4.180   0.599   1.168  0.7446 -1.8800  1.4800
 1887TIP3    H227297   4.277   0.665   1.264  0.1376  0.3273  0.6405
 1888TIP3   OH227298   5.603   0.461   7.313 -0.1829 -0.0568 -0.3554
 1888TIP3    H127299   5.696   0.451   7.335 -0.1203  2.2799  0.6535
 1888TIP3    H227300   5.561   0.384   7.352  1.0381 -0.0278  1.0966
 1889TIP3   OH227301   5.489   4.464   1.044 -0.1508  0.2397  0.7206
 1889TIP3    H127302   5.573   4.463   0.998 -0.0054  0.4990  0.9858
 1889TIP3    H227303   5.426   4.430   0.979  0.2471 -0.4919  0.7026
 1890TIP3   OH227304   4.809   5.994   8.067  0.0512  0.4213 -0.0801
 1890TIP3    H127305   4.747   6.017   8.137 -1.6952  1.6896 -1.9028
 1890TIP3    H227306   4.831   5.903   8.083 -2.2437 -0.0610  0.7707
 1891TIP3   OH227307   0.692   4.017   8.170  0.2803  0.1286 -0.3822
 1891TIP3    H127308   0.765   4.079   8.166  0.4646  0.0327  1.1344
 1891TIP3    H227309   0.634   4.045   8.099  0.6693  1.6336 -0.1488
 1892TIP3   OH227310   0.307   0.346   0.535 -0.5444  0.7355 -0.5732
 1892TIP3    H127311   0.284   0.411   0.470 -0.1305  0.7112 -0.7500
 1892TIP3    H227312   0.308   0.394   0.618 -0.6995  0.8485 -0.6367
 1893TIP3   OH227313   0.473   4.513   5.867 -0.1272  0.0771 -0.0591
 1893TIP3    H127314   0.443   4.482   5.781 -0.7109  0.0520  0.1496
 1893TIP3    H227315   0.524   4.592   5.847  1.7854 -1.2442 -0.6453
 1894TIP3   OH227316   0.037   5.061   8.314  0.2224 -0.7357  0.0123
 1894TIP3    H127317  -0.016   5.072   8.236 -0.8319 -0.6902  0.7212
 1894TIP3    H227318   0.118   5.021   8.282 -0.1647 -0.6578 -1.1045
 1895TIP3   OH227319   0.888   2.480   0.487  0.1657 -0.0111 -0.3713
 1895TIP3    H127320   0.973   2.453   0.452  1.3991 -0.7347  2.8029
 1895TIP3    H227321   0.910   2.542   0.556 -1.9279  0.2182  0.1361
 1896TIP3   OH227322   4.570   6.595   8.147  0.7248  0.5105  0.0826
 1896TIP3    H127323   4.545   6.629   8.061  3.6224  1.3858 -0.5436
 1896TIP3    H227324   4.527   6.653   8.209 -1.3432 -0.0794 -0.6948
 1897TIP3   OH227325   4.745   4.608   6.338  0.2277  0.3496  0.1056
 1897TIP3    H127326   4.838   4.617   6.360 -0.0483 -0.0617  1.5331
 1897TIP3    H227327   4.717   4.530   6.385 -0.7242  0.1276 -0.7861
 1898TIP3   OH227328   5.197   5.770   6.819 -0.2210 -0.5857 -1.0179
 1898TIP3    H127329   5.117   5.726   6.791 -0.5389 -0.7697  0.1155
 1898TIP3    H227330   5.267   5.726   6.771 -0.6408 -1.6059 -0.7262
 1899TIP3   OH227331   1.854   2.622   1.757  0.2486 -0.4994  0.2414
 1899TIP3    H127332   1.908   2.676   1.697  0.0687 -2.0128 -1.3701
 1899TIP3    H227333   1.833   2.681   1.829  2.1392  0.8389 -0.2130
 1900TIP3   OH227334   6.263   2.453   1.235 -0.4075 -0.8107 -0.3494
 1900TIP3    H127335   6.207   2.384   1.272 -1.5246  0.2492  0.0231
 1900TIP3    H227336   6.272   2.430   1.143 -1.7120 -0.8830 -0.4841
 1901TIP3   OH227337   6.260   0.835   8.363 -0.2394 -0.0206  0.0542
 1901TIP3    H127338   6.276   0.885   8.283 -0.7687 -0.5429 -0.3876
 1901TIP3    H227339   6.293   0.890   8.433  0.2197  0.4529 -0.5267
 1902TIP3   OH227340   1.206   5.855   0.713 -0.5379  0.4561  0.7036
 1902TIP3    H127341   1.218   5.933   0.767  0.4318  1.1085 -0.3888
 1902TIP3    H227342   1.191   5.889   0.624 -0.1715 -0.5851  0.2206
 1903TIP3   OH227343   1.841   5.394   0.271 -0.3394  0.2967 -0.4987
 1903TIP3    H127344   1.850   5.436   0.356 -0.0223  0.5218 -0.6408
 1903TIP3    H227345   1.784   5.319   0.287 -1.5749  1.2158 -0.3961
 1904TIP3   OH227346   2.835   3.140   0.591 -0.2223 -0.4081  0.5607
 1904TIP3    H127347   2.866   3.067   0.644 -1.0601  0.3003  2.1194
 1904TIP3    H227348   2.875   3.217   0.631  1.5278 -0.0437 -1.7170
 1905TIP3   OH227349   5.467   6.312   1.475 -0.2267 -0.4052 -0.4185
 1905TIP3    H127350   5.528   6.244   1.445 -0.5637 -0.1955 -1.6404
 1905TIP3    H227351   5.463   6.301   1.569  3.8262  1.2550  0.1934
 1906TIP3   OH227352   0.364   6.711   1.336  0.2280 -0.2894 -0.0685
 1906TIP3    H127353   0.305   6.651   1.382  1.0422 -0.4717  0.7712
 1906TIP3    H227354   0.322   6.796   1.344 -0.2728 -0.5262 -0.0993
 1907TIP3   OH227355   2.693   2.664   6.811  0.2352 -0.1692  0.0407
 1907TIP3    H127356   2.691   2.609   6.732 -3.0176 -0.2848  0.0665
 1907TIP3    H227357   2.701   2.753   6.778 -0.4546 -0.2625 -0.3919
 1908TIP3   OH227358   0.866   1.437   0.167 -0.0573  0.3690 -0.1394
 1908TIP3    H127359   0.815   1.464   0.244  0.0465 -0.9657  0.4389
 1908TIP3    H227360   0.813   1.465   0.092 -0.8746  0.4216  0.4353
 1909TIP3   OH227361   1.192   0.864   8.293  0.4364  0.2033  0.5928
 1909TIP3    H127362   1.114   0.871   8.348  0.2914  0.6195  0.3355
 1909TIP3    H227363   1.216   0.771   8.298 -0.5586 -0.0958  0.0074
 1910TIP3   OH227364   2.365   5.697   1.440  0.1711  0.1449 -0.7193
 1910TIP3    H127365   2.304   5.660   1.376 -0.0554 -1.1312  0.1878
 1910TIP3    H227366   2.412   5.621   1.474 -0.3019  0.6792  1.2258
 1911TIP3   OH227367   0.807   4.897   1.319  0.3067 -0.6201 -0.1296
 1911TIP3    H127368   0.811   4.955   1.243  0.8876 -0.3232  0.1237
 1911TIP3    H227369   0.845   4.948   1.390  1.2732 -1.4846 -0.0040
 1912TIP3   OH227370   0.389   6.276   0.463  0.5293  0.1527  0.0965
 1912TIP3    H127371   0.329   6.288   0.537  1.2306 -1.3755  0.9438
 1912TIP3    H227372   0.337   6.230   0.398  1.0119 -2.2077  1.2694
 1913TIP3   OH227373   2.180   6.304   6.360 -0.3054  0.6361  0.0205
 1913TIP3    H127374   2.095   6.259   6.362  0.0471 -0.1077 -0.7400
 1913TIP3    H227375   2.158   6.397   6.354 -1.1421  0.3648 -2.6105
 1914TIP3   OH227376   4.483   3.664   1.570 -0.2131 -0.4760  0.7521
 1914TIP3    H127377   4.445   3.631   1.489 -0.1973  0.2368  0.4412
 1914TIP3    H227378   4.512   3.753   1.548  1.6834 -1.0043  0.9540
 1915TIP3   OH227379   6.775   5.557   2.616 -0.3024 -0.3797  1.0681
 1915TIP3    H127380   6.838   5.568   2.687  0.3498  0.5371  0.3632
 1915TIP3    H227381   6.807   5.479   2.569  1.6999  1.3392 -0.6325
 1916TIP3   OH227382   0.114   4.015   0.535 -0.1813  0.1783 -0.3477
 1916TIP3    H127383   0.076   3.928   0.543 -1.4422  0.8883  2.8809
 1916TIP3    H227384   0.208   4.002   0.548 -0.0389 -0.8788 -2.1162
 1917TIP3   OH227385   6.229   0.377   6.385  0.5239 -0.3418 -0.2432
 1917TIP3    H127386   6.314   0.337   6.405  0.2277 -1.5990 -1.3270
 1917TIP3    H227387   6.249   0.468   6.363  1.3774 -0.1900  1.0373
 1918TIP3   OH227388   5.739   6.788   7.272  0.4072  0.8518 -0.3013
 1918TIP3    H127389   5.736   6.700   7.309 -0.0304  0.6452 -0.8044
 1918TIP3    H227390   5.830   6.800   7.245  0.5962  0.7789  0.2803
 1919TIP3   OH227391   3.683   6.303   1.813 -0.0622 -0.1194 -0.4213
 1919TIP3    H127392   3.657   6.395   1.805 -0.4564 -0.1761  0.1894
 1919TIP3    H227393   3.745   6.302   1.886  1.5552 -0.0188 -1.7200
 1920TIP3   OH227394   5.000   0.315   6.984  0.2460 -0.1925  0.3504
 1920TIP3    H127395   5.019   0.407   6.966  1.2217 -0.6834 -1.3644
 1920TIP3    H227396   4.968   0.280   6.900 -0.3921 -1.3574  1.0499
 1921TIP3   OH227397   5.343   2.942   0.249  0.1854  0.8901  0.9130
 1921TIP3    H127398   5.437   2.952   0.264  0.2639 -0.6247  1.6378
 1921TIP3    H227399   5.327   2.848   0.262 -1.2849  0.9878 -0.0161
 1922TIP3   OH227400   0.101   4.445   1.820 -0.2910  0.7462 -0.2470
 1922TIP3    H127401   0.088   4.364   1.870  0.4235  0.3528 -0.6912
 1922TIP3    H227402   0.165   4.495   1.871 -1.5089  1.5193  0.5773
 1923TIP3   OH227403   1.051   0.109   7.689  0.1072 -0.1658 -0.6306
 1923TIP3    H127404   1.044   0.102   7.784 -0.4930 -0.4951 -0.6952
 1923TIP3    H227405   0.974   0.159   7.663 -0.5720 -1.4102 -1.0920
 1924TIP3   OH227406   3.051   0.015   6.808 -0.3888 -0.5555 -0.4669
 1924TIP3    H127407   3.100   0.097   6.803 -1.0627  0.3044  3.6545
 1924TIP3    H227408   3.002   0.021   6.890 -2.6454 -3.9567 -1.3636
 1925TIP3   OH227409   1.515   0.589   7.061 -0.4246 -0.0066 -0.4502
 1925TIP3    H127410   1.514   0.537   6.980 -0.4885 -0.2469 -0.2957
 1925TIP3    H227411   1.450   0.657   7.047  0.0107  0.3337 -0.8509
 1926TIP3   OH227412   2.999   6.898   0.077  0.4097 -0.2552  0.2936
 1926TIP3    H127413   3.005   6.920   0.170 -0.4582  0.5337  0.1826
 1926TIP3    H227414   2.953   6.814   0.075 -1.6520  0.8076  0.5142
 1927TIP3   OH227415   2.518   0.063   8.192 -0.2690 -0.4099 -0.4529
 1927TIP3    H127416   2.429   0.095   8.177 -0.4230 -1.1027 -1.0515
 1927TIP3    H227417   2.569   0.095   8.117 -0.0652 -0.2330 -0.2436
 1928TIP3   OH227418   6.768   0.863   1.851  0.0011 -0.2923  0.0413
 1928TIP3    H127419   6.798   0.882   1.762 -1.4568  0.0015 -0.4143
 1928TIP3    H227420   6.771   0.948   1.896 -2.4271  0.2788 -0.7403
 1929TIP3   OH227421   2.371   0.600   2.473  0.3194  0.0804  0.2458
 1929TIP3    H127422   2.286   0.622   2.511  0.2231 -0.8758  0.5979
 1929TIP3    H227423   2.382   0.664   2.402  0.0501  1.2627  1.2232
 1930TIP3   OH227424   3.213   1.083   7.657 -0.0505  0.2880 -0.2180
 1930TIP3    H127425   3.199   1.166   7.611 -0.6518  0.2783 -0.0605
 1930TIP3    H227426   3.192   1.015   7.593 -1.4223  0.2755  0.2003
 1931TIP3   OH227427   0.340   2.943   1.847 -0.1573  0.1784  0.0501
 1931TIP3    H127428   0.279   2.871   1.867  1.8993 -1.2422  1.5700
 1931TIP3    H227429   0.356   2.934   1.753 -0.1240 -1.2491  0.1572
 1932TIP3   OH227430   0.731   1.728   0.999 -0.0006 -0.1422  0.0675
 1932TIP3    H127431   0.733   1.649   0.945  1.8202 -0.5797  0.7109
 1932TIP3    H227432   0.686   1.701   1.080  0.8309 -0.6120  0.3854
 1933TIP3   OH227433   6.735   1.807   0.007  0.4724  0.4784  0.2424
 1933TIP3    H127434   6.718   1.754  -0.070 -0.4386  0.0324  0.7316
 1933TIP3    H227435   6.818   1.775   0.041 -0.4086 -1.1835  0.9497
 1934TIP3   OH227436   1.446   0.069   6.485 -0.0343  0.1238  0.2478
 1934TIP3    H127437   1.374   0.006   6.494  0.2231 -0.0256  1.3367
 1934TIP3    H227438   1.443   0.095   6.393 -1.1263 -0.3076  0.1461
 1935TIP3   OH227439   3.833   3.239   0.941 -0.1026 -0.6034  0.3376
 1935TIP3    H127440   3.811   3.315   0.887 -1.1856 -0.1612  1.3407
 1935TIP3    H227441   3.925   3.252   0.964 -0.1778  0.2264  0.2220
 1936TIP3   OH227442   6.028   5.155   7.506  0.0779 -0.0798 -0.1561
 1936TIP3    H127443   6.005   5.156   7.413 -0.0622  1.9214 -0.1437
 1936TIP3    H227444   5.970   5.089   7.544 -2.1000  1.2339 -1.0013
 1937TIP3   OH227445   5.812   1.896   6.823  0.0596 -0.2449  0.7610
 1937TIP3    H127446   5.821   1.895   6.728  1.2888 -0.4625  0.8544
 1937TIP3    H227447   5.899   1.872   6.855 -0.3493 -0.2206  1.9403
 1938TIP3   OH227448   6.733   2.674   0.551  0.1381 -0.1465  0.7864
 1938TIP3    H127449   6.809   2.670   0.493  1.1562 -0.1649  2.0797
 1938TIP3    H227450   6.658   2.659   0.493  1.2303 -2.2023 -0.2239
 1939TIP3   OH227451   0.658   0.010   6.787 -0.0313 -0.8229  0.2585
 1939TIP3    H127452   0.588  -0.055   6.778  0.9665 -1.8393 -0.3941
 1939TIP3    H227453   0.680   0.033   6.697  0.4546 -0.4861  0.4607
 1940TIP3   OH227454   4.651   0.101   6.478  0.2343  0.3858  0.4459
 1940TIP3    H127455   4.646   0.197   6.477 -0.1817  0.4231 -2.2770
 1940TIP3    H227456   4.741   0.082   6.506  0.6139  1.5944  0.1277
 1941TIP3   OH227457   2.027   2.819   7.514 -0.4856  0.4777  0.7565
 1941TIP3    H127458   2.007   2.754   7.582 -1.7560  2.5324  2.4508
 1941TIP3    H227459   2.093   2.876   7.553  0.8082  0.1297 -0.8081
 1942TIP3   OH227460   0.816   5.910   7.652 -0.2556 -0.1709 -0.0738
 1942TIP3    H127461   0.778   5.996   7.666 -0.3919 -0.3327  0.5776
 1942TIP3    H227462   0.859   5.916   7.566 -3.7316 -0.6815 -2.0118
 1943TIP3   OH227463   6.249   5.675   8.472  0.3386  0.4026  0.2140
 1943TIP3    H127464   6.258   5.765   8.442 -0.4301  0.0370 -1.2267
 1943TIP3    H227465   6.333   5.655   8.514  0.5018  1.7824  0.6003
 1944TIP3   OH227466   3.005   5.550   8.121  0.0406 -0.1197  0.2781
 1944TIP3    H127467   2.935   5.490   8.097  0.2567 -0.9290  1.5631
 1944TIP3    H227468   3.075   5.531   8.059 -0.7280  0.4552 -0.7952
 1945TIP3   OH227469   6.887   5.908   7.788  0.8267 -0.1247  0.2287
 1945TIP3    H127470   6.818   5.865   7.737  1.3778  0.3734 -0.9704
 1945TIP3    H227471   6.884   5.865   7.874 -1.1477  0.0880  0.2943
 1946TIP3   OH227472   0.440   3.135   7.949  0.6079 -0.1155 -0.0053
 1946TIP3    H127473   0.363   3.095   7.908  0.0161  2.6504 -1.9198
 1946TIP3    H227474   0.514   3.101   7.899  0.2782 -0.1449 -0.4842
 1947TIP3   OH227475   2.738   6.252   6.535 -0.0665 -0.0451  0.4006
 1947TIP3    H127476   2.746   6.157   6.532 -0.8883 -0.0980 -0.6315
 1947TIP3    H227477   2.780   6.277   6.618 -0.6535 -1.3739  1.1322
 1948TIP3   OH227478   6.403   6.189   1.857 -0.3990  0.4009  0.5687
 1948TIP3    H127479   6.357   6.256   1.907  0.0425  0.0944  1.4071
 1948TIP3    H227480   6.496   6.208   1.871 -0.2644 -0.4790  0.9665
 1949TIP3   OH227481   4.887   2.880   0.841 -0.5612  0.0430  0.8789
 1949TIP3    H127482   4.849   2.867   0.754 -0.4906 -0.8058  0.9713
 1949TIP3    H227483   4.815   2.863   0.902 -0.6769  0.8791  0.9920
 1950TIP3   OH227484   3.640   5.903   7.576  0.2275 -0.0328  0.0337
 1950TIP3    H127485   3.626   5.838   7.646  0.6468  0.3160  0.4451
 1950TIP3    H227486   3.731   5.890   7.549  0.3584  0.4904  0.2229
 1951TIP3   OH227487   3.300   1.333   1.879  0.0337 -0.2810  0.4284
 1951TIP3    H127488   3.293   1.239   1.897 -2.3503 -0.3087 -0.3581
 1951TIP3    H227489   3.374   1.340   1.818  1.0772 -1.4505  1.4763
 1952TIP3   OH227490   6.235   2.790   6.797  0.4997  0.1187 -0.3275
 1952TIP3    H127491   6.303   2.845   6.835 -1.5039  2.2927  0.3588
 1952TIP3    H227492   6.211   2.729   6.867  2.2144 -1.2585 -0.8513
 1953TIP3   OH227493   3.068   4.005   1.349 -0.1551  0.1792 -0.2075
 1953TIP3    H127494   3.096   4.007   1.440  0.3472 -1.7557 -0.2563
 1953TIP3    H227495   2.986   3.956   1.351 -1.4442  2.2262 -0.5539
 1954TIP3   OH227496   3.858   6.034   7.817  0.5337 -0.3482 -0.1359
 1954TIP3    H127497   3.780   6.054   7.765 -0.7449 -1.8478  1.1055
 1954TIP3    H227498   3.828   5.971   7.882  1.9633  1.5826  2.5939
 1955TIP3   OH227499   3.914   6.003   1.223  0.3411 -0.2711 -0.2573
 1955TIP3    H127500   3.848   5.934   1.221 -1.1695  1.1227 -0.4045
 1955TIP3    H227501   3.908   6.045   1.137  0.6097  0.5864  0.1269
 1956TIP3   OH227502   1.952   2.266   6.561 -0.2677  0.1350 -0.1431
 1956TIP3    H127503   1.858   2.251   6.547 -0.1826  0.6949 -1.4937
 1956TIP3    H227504   1.990   2.257   6.474  1.0026 -0.4692  0.4521
 1957TIP3   OH227505   0.840   3.127   7.970 -0.2976  0.0437 -0.2413
 1957TIP3    H127506   0.836   3.124   8.065 -0.8220  0.1006 -0.2563
 1957TIP3    H227507   0.785   3.202   7.946 -3.0388 -1.9301 -0.7315
 1958TIP3   OH227508   3.348   4.698   6.903 -0.3299  0.4398  0.0047
 1958TIP3    H127509   3.358   4.723   6.811 -1.7664  1.5322  0.1195
 1958TIP3    H227510   3.275   4.636   6.903  0.2152 -0.2150  0.3210
 1959TIP3   OH227511   2.082   4.889   2.411 -0.5522 -0.9632  1.1012
 1959TIP3    H127512   2.114   4.831   2.342  0.7131  0.6841  0.2342
 1959TIP3    H227513   2.008   4.842   2.450 -2.7813 -1.0602 -2.8011
 1960TIP3   OH227514   4.913   6.114   1.666 -0.0660  0.6600 -0.7681
 1960TIP3    H127515   4.883   6.201   1.692 -1.2476  0.8327 -2.5370
 1960TIP3    H227516   4.839   6.076   1.620 -0.3700 -2.2152  1.8302
 1961TIP3   OH227517   4.175   5.189   7.029 -0.8479  0.2834 -0.0839
 1961TIP3    H127518   4.139   5.112   7.072 -0.2017  0.9570  1.7507
 1961TIP3    H227519   4.221   5.154   6.953  0.3851 -1.2965  1.3081
 1962TIP3   OH227520   2.057   0.280   0.424  0.1354 -0.2037 -0.3887
 1962TIP3    H127521   2.119   0.353   0.437  0.3402  0.2048 -3.1680
 1962TIP3    H227522   2.112   0.207   0.397 -0.1230 -1.3737  2.0104
 1963TIP3   OH227523   6.555   5.755   7.888  0.9154  0.5031 -0.3747
 1963TIP3    H127524   6.566   5.736   7.795  1.3411  1.2438 -0.4865
 1963TIP3    H227525   6.613   5.829   7.904 -1.2227  2.2719 -0.1904
 1964TIP3   OH227526   2.137   0.806   2.346 -0.2796  0.1395 -0.4555
 1964TIP3    H127527   2.130   0.768   2.433  1.7321  0.7739  0.0368
 1964TIP3    H227528   2.046   0.816   2.316 -0.9441 -1.9670  0.7026
 1965TIP3   OH227529   3.183   1.735   7.905 -0.4616  0.7039  0.3500
 1965TIP3    H127530   3.141   1.797   7.964  0.3419  0.1646  1.5198
 1965TIP3    H227531   3.210   1.662   7.961 -1.0497 -0.5547 -0.9175
 1966TIP3   OH227532   1.992   5.666   0.710 -0.0470  0.1088  0.1722
 1966TIP3    H127533   2.078   5.667   0.751 -0.3962  0.0249  0.9412
 1966TIP3    H227534   1.941   5.729   0.761 -0.5309 -0.0843 -0.0665
 1967TIP3   OH227535   0.513   5.236   1.901  0.1658 -0.2574  0.3374
 1967TIP3    H127536   0.489   5.144   1.907 -0.8675 -0.1757 -1.7177
 1967TIP3    H227537   0.482   5.275   1.983 -0.7504 -1.4478  0.5791
 1968TIP3   OH227538   2.134   1.285   7.335  0.1039  0.2190 -0.6435
 1968TIP3    H127539   2.088   1.299   7.252  1.8035  0.3786 -1.5944
 1968TIP3    H227540   2.134   1.370   7.377 -0.2410  0.2775 -0.7594
 1969TIP3   OH227541   6.324   2.552   6.994  0.3424 -0.5933 -0.3124
 1969TIP3    H127542   6.408   2.521   6.961 -0.4176 -1.7693 -1.2441
 1969TIP3    H227543   6.262   2.483   6.971 -0.5299 -0.8015  2.2877
 1970TIP3   OH227544   1.922   5.857   7.546  0.0620  0.2441 -0.0407
 1970TIP3    H127545   1.846   5.870   7.489  0.5051 -0.3307 -0.7909
 1970TIP3    H227546   1.961   5.944   7.555 -0.8672  0.5961  0.6168
 1971TIP3   OH227547   3.759   5.606   8.180  0.5171 -0.0230  0.0138
 1971TIP3    H127548   3.794   5.605   8.269 -0.9481  2.4692  0.6849
 1971TIP3    H227549   3.664   5.597   8.191  0.2748  0.7835 -1.2584
 1972TIP3   OH227550   3.948   3.227   0.199  1.0816  0.0286 -0.8431
 1972TIP3    H127551   4.015   3.162   0.180 -1.0484 -2.8365  0.5999
 1972TIP3    H227552   3.975   3.267   0.282  0.6612 -1.7522  0.2054
 1973TIP3   OH227553   4.187   3.077   2.276  0.6558 -0.1936  0.7310
 1973TIP3    H127554   4.263   3.121   2.314  0.7755 -0.3509  0.6787
 1973TIP3    H227555   4.175   2.999   2.331  0.7863 -0.3843  0.4938
 1974TIP3   OH227556   4.805   1.103   0.414  0.5527 -0.8865  0.0115
 1974TIP3    H127557   4.721   1.060   0.401  0.2534  0.1215 -1.6433
 1974TIP3    H227558   4.794   1.155   0.494 -1.0065  0.6054 -1.1196
 1975TIP3   OH227559   1.089   5.815   6.965 -0.3094 -0.7625  0.5511
 1975TIP3    H127560   1.104   5.855   7.051  1.2916 -0.5860  0.2324
 1975TIP3    H227561   1.172   5.772   6.944 -1.3029 -2.4753 -0.0673
 1976TIP3   OH227562   6.968   6.777   7.891  0.2137  0.0623 -0.1312
 1976TIP3    H127563   7.061   6.771   7.873  0.2745 -0.5395  0.3582
 1976TIP3    H227564   6.932   6.692   7.866  0.1298 -0.4204  1.5193
 1977TIP3   OH227565   0.049   1.961   6.813  0.1068  0.5128 -0.4638
 1977TIP3    H127566  -0.041   1.984   6.791 -0.9000 -1.2469  1.4332
 1977TIP3    H227567   0.065   1.879   6.766 -0.3290 -0.6488  1.3073
 1978TIP3   OH227568   2.396   1.190   7.359 -0.6030 -0.5237 -0.1711
 1978TIP3    H127569   2.398   1.129   7.433  0.1132 -0.4925 -0.1541
 1978TIP3    H227570   2.303   1.208   7.345 -0.9850 -2.9673 -1.3041
 1979TIP3   OH227571   0.034   1.238   0.242 -0.4703  0.3486 -0.2179
 1979TIP3    H127572   0.127   1.221   0.225 -0.3952 -0.0607  0.5611
 1979TIP3    H227573   0.034   1.313   0.302 -0.6528  0.5179 -0.4299
 1980TIP3   OH227574   6.250   1.524   1.076  0.0337 -0.1263  0.0669
 1980TIP3    H127575   6.194   1.455   1.111 -0.2702  0.8616  1.6691
 1980TIP3    H227576   6.191   1.598   1.061  0.9671  1.4164  3.0998
 1981TIP3   OH227577   5.275   6.022   1.496  0.3802  0.5668  0.4562
 1981TIP3    H127578   5.315   6.099   1.538  0.5297  0.3692  0.6810
 1981TIP3    H227579   5.325   5.948   1.529  0.8835  0.4508 -0.5488
 1982TIP3   OH227580   0.519   2.726   6.666 -0.3196 -0.2193 -0.1255
 1982TIP3    H127581   0.450   2.703   6.728  0.2891  0.6599  0.9106
 1982TIP3    H227582   0.472   2.767   6.592 -0.8207  4.2911  2.3017
 1983TIP3   OH227583   2.654   3.348   0.178 -0.1271  0.5730 -0.1411
 1983TIP3    H127584   2.577   3.319   0.129  0.7540 -0.4380 -1.0014
 1983TIP3    H227585   2.632   3.332   0.269 -1.0684  0.6459 -0.3415
 1984TIP3   OH227586   2.079   2.142   0.930  0.2316 -0.9018  0.3931
 1984TIP3    H127587   2.003   2.196   0.949 -0.2530 -0.6973 -1.8983
 1984TIP3    H227588   2.136   2.154   1.006 -0.5033  1.6413  0.6322
 1985TIP3   OH227589   3.182   2.436   0.022  0.3062 -0.7325 -0.1053
 1985TIP3    H127590   3.172   2.405  -0.068 -0.6374  2.7779 -1.3867
 1985TIP3    H227591   3.272   2.413   0.046  0.6234 -1.6331 -2.0054
 1986TIP3   OH227592   4.206   5.583   0.719 -0.8785  0.8086  0.1507
 1986TIP3    H127593   4.132   5.539   0.760  0.0066  0.1363  1.0974
 1986TIP3    H227594   4.283   5.545   0.763  0.0151  1.5193 -0.7655
 1987TIP3   OH227595   4.128   5.107   0.223  0.3573  0.2773  0.1049
 1987TIP3    H127596   4.066   5.152   0.281  0.5744  1.3361 -0.4578
 1987TIP3    H227597   4.208   5.101   0.275  0.6150  1.4115 -0.1232
 1988TIP3   OH227598   1.946   4.939   7.351 -0.2370  0.4617  0.1877
 1988TIP3    H127599   2.026   4.931   7.300 -0.3193  0.4419  0.0616
 1988TIP3    H227600   1.971   4.991   7.428  0.8251 -2.5611  2.0694
 1989TIP3   OH227601   6.841   0.934   7.282  0.2339  0.1132  0.3283
 1989TIP3    H127602   6.874   0.847   7.305  0.3247 -0.0776 -0.5026
 1989TIP3    H227603   6.920   0.988   7.272  0.2513 -0.0841 -0.6319
 1990TIP3   OH227604   3.283   5.788   0.094  0.7553 -0.1375 -0.2707
 1990TIP3    H127605   3.359   5.732   0.110  0.7593  0.4676  2.3333
 1990TIP3    H227606   3.316   5.856   0.034  1.8195 -0.7350 -0.3948
 1991TIP3   OH227607   0.619   2.772   6.103 -0.2762  0.5754  0.3524
 1991TIP3    H127608   0.642   2.865   6.096  1.3358  0.2143  0.3885
 1991TIP3    H227609   0.658   2.744   6.186 -0.2717 -0.2618  0.0755
 1992TIP3   OH227610   4.147   1.271   1.275  0.2643 -0.3183  0.1697
 1992TIP3    H127611   4.076   1.207   1.275  0.2985 -0.3721  1.5288
 1992TIP3    H227612   4.114   1.343   1.221  0.1157 -1.3249 -1.1321
 1993TIP3   OH227613   4.964   0.760   1.828  0.2211 -0.3195 -0.3437
 1993TIP3    H127614   5.029   0.819   1.792  0.8807 -0.0157  1.2450
 1993TIP3    H227615   4.999   0.734   1.913 -1.5258 -0.4956  0.3781
 1994TIP3   OH227616   5.673   6.559   7.361  0.0672  0.2108  0.7538
 1994TIP3    H127617   5.687   6.533   7.270  1.4138 -0.5395  1.1502
 1994TIP3    H227618   5.624   6.486   7.400 -0.5305  0.5424  0.6353
 1995TIP3   OH227619   1.392   0.633   7.479  0.0402 -0.5377  0.5033
 1995TIP3    H127620   1.466   0.613   7.422  0.5290 -2.1696  1.6354
 1995TIP3    H227621   1.391   0.562   7.544 -0.8894  0.8571  2.1160
 1996TIP3   OH227622   6.617   4.512   0.677  0.0432 -0.1639  0.2933
 1996TIP3    H127623   6.523   4.505   0.661  0.1213 -0.2103 -0.1556
 1996TIP3    H227624   6.645   4.422   0.694 -0.0189 -0.1319  0.5567
 1997TIP3   OH227625   4.774   3.366   0.758 -0.1767 -0.1760 -0.4067
 1997TIP3    H127626   4.744   3.277   0.741 -0.5899  0.2971 -2.3816
 1997TIP3    H227627   4.736   3.388   0.843  0.1496 -1.9491  0.2494
 1998TIP3   OH227628   2.666   2.860   1.901 -0.0006 -0.0473  0.1018
 1998TIP3    H127629   2.656   2.948   1.936  0.8230  0.2993 -0.4929
 1998TIP3    H227630   2.666   2.803   1.978  0.6566  0.5859  0.5827
 1999TIP3   OH227631   2.753   0.947   6.380  0.4487 -0.1041  0.0644
 1999TIP3    H127632   2.774   1.020   6.322 -2.6622 -0.4878 -1.7661
 1999TIP3    H227633   2.806   0.874   6.348  0.6785  0.3583 -0.6260
 2000TIP3   OH227634   2.813   2.427   0.602 -0.0362  0.0233 -0.3446
 2000TIP3    H127635   2.729   2.406   0.641  0.0802 -0.6217 -0.4358
 2000TIP3    H227636   2.852   2.342   0.581  0.6424  0.3118 -0.2816
 2001TIP3   OH227637   2.849   2.191   1.005 -0.3414 -0.3274  0.4573
 2001TIP3    H127638   2.876   2.274   0.966 -1.2854 -0.0380  0.3775
 2001TIP3    H227639   2.847   2.129   0.932  2.4362 -1.0205  0.8447
 2002TIP3   OH227640   5.169   4.087   2.522  0.1522  0.2383  0.2675
 2002TIP3    H127641   5.170   4.042   2.607  2.3571 -0.2806  0.0428
 2002TIP3    H227642   5.262   4.099   2.501 -0.3506  2.5152 -0.9645
 2003TIP3   OH227643   6.352   2.985   6.921 -0.0342  0.2107 -0.0543
 2003TIP3    H127644   6.298   2.984   7.000 -0.3387 -0.8054 -0.2652
 2003TIP3    H227645   6.372   3.078   6.908 -0.6970  0.4825  0.7209
 2004TIP3   OH227646   0.662   0.664   7.112 -0.4739 -0.1164 -0.2040
 2004TIP3    H127647   0.725   0.596   7.137 -1.1922 -0.9470 -0.5787
 2004TIP3    H227648   0.681   0.681   7.020 -1.4076 -1.0991 -0.6090
 2005TIP3   OH227649   6.637   1.727   1.579  0.3252  0.4228 -0.0138
 2005TIP3    H127650   6.705   1.749   1.644  1.8761  1.5705 -1.9001
 2005TIP3    H227651   6.586   1.808   1.570 -0.5121 -0.0391  0.4437
 2006TIP3   OH227652   6.586   4.312   8.047  0.4442 -0.2652 -0.5358
 2006TIP3    H127653   6.617   4.229   8.011  1.5840  0.2730 -0.8421
 2006TIP3    H227654   6.606   4.377   7.980 -1.4275  0.1250 -0.7674
 2007TIP3   OH227655   3.829   1.302   6.941  0.2778 -0.2356 -0.2428
 2007TIP3    H127656   3.873   1.306   7.026  4.0485 -0.0583 -2.0148
 2007TIP3    H227657   3.807   1.392   6.920  1.5232  0.0442 -0.4280
 2008TIP3   OH227658   1.149   3.874   7.039  0.1670 -0.3675 -0.7237
 2008TIP3    H127659   1.134   3.956   6.993 -0.0395 -0.9151 -1.6605
 2008TIP3    H227660   1.178   3.900   7.126 -1.1735  0.7008 -0.5643
 2009TIP3   OH227661   1.025   6.983   7.045  0.4807 -0.1540  0.2789
 2009TIP3    H127662   1.053   6.983   7.137 -0.2126  1.3323  0.5145
 2009TIP3    H227663   0.961   6.911   7.040  0.3278 -0.0809  1.0270
 2010TIP3   OH227664   0.392   3.854   1.955  0.2847 -0.0440 -0.0210
 2010TIP3    H127665   0.420   3.789   1.890  1.6226  0.9117 -0.4312
 2010TIP3    H227666   0.447   3.930   1.938  0.2364  0.4492  1.8455
 2011TIP3   OH227667   4.027   6.378   7.460 -0.0933 -0.0638 -0.4391
 2011TIP3    H127668   4.064   6.466   7.464 -0.4304  0.0960 -0.7218
 2011TIP3    H227669   3.950   6.382   7.518 -0.1277 -0.1612 -0.4781
 2012TIP3   OH227670   0.296   6.768   7.949 -0.1533  0.5595 -0.4434
 2012TIP3    H127671   0.319   6.676   7.934  0.2295  0.6974 -0.7167
 2012TIP3    H227672   0.270   6.772   8.041  3.3854  0.8874  0.6968
 2013TIP3   OH227673   1.541   5.898   8.381 -0.2051 -0.5076 -0.1710
 2013TIP3    H127674   1.550   5.908   8.286  0.4091  0.2063 -0.0493
 2013TIP3    H227675   1.597   5.967   8.417  2.1709 -2.7300  0.7600
 2014TIP3   OH227676   0.426   4.943   7.572  0.3709  0.1850 -0.6396
 2014TIP3    H127677   0.362   4.886   7.616  0.7723  1.4926  1.8231
 2014TIP3    H227678   0.478   4.883   7.519  0.2839 -1.6655  1.2336
 2015TIP3   OH227679   1.433   5.665   6.213 -0.0655  0.2513  0.5060
 2015TIP3    H127680   1.374   5.730   6.174  1.6886  1.7655  0.2700
 2015TIP3    H227681   1.478   5.712   6.283  3.3901  0.3071 -1.5136
 2016TIP3   OH227682   6.154   4.913   0.148 -0.2805 -0.8365  0.1379
 2016TIP3    H127683   6.115   4.995   0.178 -1.9176 -0.4579 -2.7001
 2016TIP3    H227684   6.170   4.863   0.228 -2.2061  0.9574  1.7444
 2017TIP3   OH227685   4.640   4.204   7.105  0.0216 -0.2536  0.1522
 2017TIP3    H127686   4.714   4.177   7.159  1.2987  0.4968 -1.1592
 2017TIP3    H227687   4.595   4.122   7.083  1.0011 -0.8258  0.2300
 2018TIP3   OH227688   3.348   3.368   8.475  0.5519 -0.2154 -0.4137
 2018TIP3    H127689   3.373   3.431   8.543  0.2785 -0.7910  0.2304
 2018TIP3    H227690   3.316   3.292   8.524  0.8549 -0.8448 -1.1846
 2019TIP3   OH227691   6.689   4.487   6.754 -0.3553  0.0264 -0.3605
 2019TIP3    H127692   6.692   4.553   6.685 -2.2767  0.9051  0.3397
 2019TIP3    H227693   6.779   4.484   6.788  0.5970 -0.3281 -2.7589
 2020TIP3   OH227694   3.655   0.486   0.840  0.8351 -0.5173 -0.0093
 2020TIP3    H127695   3.733   0.538   0.854  1.2621 -1.1749  0.1186
 2020TIP3    H227696   3.627   0.460   0.928 -0.1119  0.5425  0.0170
 2021TIP3   OH227697   6.286   2.767   1.496  0.8878  0.0084  0.9013
 2021TIP3    H127698   6.361   2.770   1.555  1.4901 -2.7043  0.4216
 2021TIP3    H227699   6.322   2.734   1.413 -0.5142  0.4528  0.0759
 2022TIP3   OH227700   3.754   0.815   0.538 -0.3488  0.0166 -0.4114
 2022TIP3    H127701   3.733   0.880   0.605 -1.6735 -3.1204  2.5710
 2022TIP3    H227702   3.682   0.820   0.475 -0.9890  0.7259  0.3607
 2023TIP3   OH227703   6.724   4.613   8.130 -0.0458  0.3314 -0.4606
 2023TIP3    H127704   6.633   4.602   8.157 -0.4457  0.1725 -1.8032
 2023TIP3    H227705   6.768   4.535   8.164 -0.4487  0.3113  0.0308
 2024TIP3   OH227706   6.667   1.512   0.534 -0.3286 -0.5661  0.1612
 2024TIP3    H127707   6.721   1.574   0.486 -1.6261  1.8451  1.5596
 2024TIP3    H227708   6.719   1.488   0.611 -0.2591 -0.2427  0.2165
 2025TIP3   OH227709   6.171   4.769   6.261  0.0755  0.5035 -0.1528
 2025TIP3    H127710   6.261   4.798   6.269  0.0889  0.4586 -0.1375
 2025TIP3    H227711   6.118   4.846   6.282  0.0986  1.0454 -1.9530
 2026TIP3   OH227712   6.619   0.384   0.140  0.1931  0.3550  0.1120
 2026TIP3    H127713   6.585   0.473   0.132  0.6149  0.3687 -1.9943
 2026TIP3    H227714   6.554   0.330   0.096 -0.7412 -0.6227  2.5182
 2027TIP3   OH227715   3.093   0.932   0.351 -0.0546 -0.4737  0.2719
 2027TIP3    H127716   3.158   1.000   0.332 -2.5720  1.7333 -1.0578
 2027TIP3    H227717   3.042   0.924   0.271 -3.1908  0.0264  2.0664
 2028TIP3   OH227718   0.967   6.008   8.212  0.8042 -0.2705 -0.5493
 2028TIP3    H127719   0.953   5.966   8.297 -1.4526 -1.2214 -1.2946
 2028TIP3    H227720   0.920   6.091   8.218 -4.0459 -2.4526 -2.2886
 2029TIP3   OH227721   2.471   4.116   6.947  0.2442 -0.1857 -0.6727
 2029TIP3    H127722   2.507   4.066   6.874 -0.0498 -0.6222 -0.5213
 2029TIP3    H227723   2.537   4.183   6.965  0.5060 -0.3342 -1.0664
 2030TIP3   OH227724   4.132   0.155   1.612  0.4797 -0.6864  0.0805
 2030TIP3    H127725   4.154   0.093   1.542  0.8421 -0.8787  0.3607
 2030TIP3    H227726   4.212   0.163   1.663  0.8150  0.8817 -0.5992
 2031TIP3   OH227727   3.370   3.870   1.731 -0.3996 -0.0045 -0.0966
 2031TIP3    H127728   3.302   3.898   1.792 -2.6493 -1.6276 -1.7067
 2031TIP3    H227729   3.375   3.940   1.666 -3.9982 -1.7207 -2.5392
 2032TIP3   OH227730   2.706   5.045   8.229 -0.1888  0.1768  0.0146
 2032TIP3    H127731   2.625   5.047   8.280 -1.4322  1.5970 -1.8834
 2032TIP3    H227732   2.757   5.119   8.262 -0.1506 -0.0331  0.4359
 2033TIP3   OH227733   5.967   6.847   7.133  1.3085 -0.1741  0.0620
 2033TIP3    H127734   6.015   6.929   7.124  0.0572  0.4833 -0.9451
 2033TIP3    H227735   5.988   6.798   7.053  3.6815 -1.7914  1.5562
 2034TIP3   OH227736   5.423   3.109   0.953 -0.5694  0.7438 -0.1034
 2034TIP3    H127737   5.506   3.156   0.960  0.0920 -0.3186 -0.5544
 2034TIP3    H227738   5.363   3.156   1.012  0.9118  0.3039  1.8518
 2035TIP3   OH227739   0.044   4.201   1.916  0.1557  0.1540  0.0842
 2035TIP3    H127740   0.079   4.112   1.919 -0.9230 -0.3057 -0.3427
 2035TIP3    H227741  -0.037   4.197   1.967  2.0858  1.9032  3.6755
 2036TIP3   OH227742   5.716   5.948   7.980 -0.3465  0.2813  0.2179
 2036TIP3    H127743   5.755   5.861   7.975 -1.2934 -0.1583  0.3177
 2036TIP3    H227744   5.781   6.001   8.026 -0.0892 -0.5672  0.8593
 2037TIP3   OH227745   0.394   3.446   7.008 -0.5009  0.4987 -0.3647
 2037TIP3    H127746   0.411   3.376   7.071 -0.0655  0.2613 -0.7440
 2037TIP3    H227747   0.312   3.421   6.965  0.4164 -0.5571 -1.5527
 2038TIP3   OH227748   4.131   0.936   1.125 -0.0996  0.6941 -0.2501
 2038TIP3    H127749   4.108   0.943   1.217 -1.1702  1.4462 -0.5448
 2038TIP3    H227750   4.191   0.862   1.120 -0.1343  0.5592  1.0211
 2039TIP3   OH227751   3.813   3.605   1.214  0.3330 -0.2791 -0.2631
 2039TIP3    H127752   3.903   3.607   1.245 -0.6197  0.0521  2.7996
 2039TIP3    H227753   3.802   3.688   1.166  1.3648  0.1496  0.2221
 2040TIP3   OH227754   4.375   2.887   1.172 -0.1953  0.0620 -0.4096
 2040TIP3    H127755   4.281   2.873   1.187 -0.0875  0.4667  0.7851
 2040TIP3    H227756   4.385   2.982   1.175  0.3501 -0.0098  0.1350
 2041TIP3   OH227757   3.715   6.510   1.475  0.7313 -0.0990  0.4576
 2041TIP3    H127758   3.622   6.510   1.450  0.3325 -0.0171  1.8403
 2041TIP3    H227759   3.753   6.437   1.426 -0.2604 -0.6935  0.5491
 2042TIP3   OH227760   2.431   6.435   2.653 -0.5394  0.0215  0.3820
 2042TIP3    H127761   2.399   6.480   2.732 -1.9299 -1.2817  0.6133
 2042TIP3    H227762   2.357   6.437   2.593  0.1874  0.1339 -0.5316
 2043TIP3   OH227763   5.042   5.014   0.784  0.0424 -0.1847 -0.7926
 2043TIP3    H127764   5.079   4.995   0.870  1.6396 -0.8935 -1.5811
 2043TIP3    H227765   4.978   4.946   0.769 -1.9556  1.2377  0.7371
 2044TIP3   OH227766   6.814   0.657   0.001 -0.4208  0.3409 -0.4255
 2044TIP3    H127767   6.850   0.624  -0.081  1.1827 -1.2074  0.8307
 2044TIP3    H227768   6.857   0.742   0.013  1.4510 -0.6300  0.0916
 2045TIP3   OH227769   5.401   3.439   1.256 -0.0189 -0.2966  0.4587
 2045TIP3    H127770   5.342   3.513   1.268 -0.7985 -1.0081  1.1672
 2045TIP3    H227771   5.343   3.365   1.237  0.7695 -0.6551 -0.6350
 2046TIP3   OH227772   4.638   2.016   6.726 -0.1368  0.1648  0.1239
 2046TIP3    H127773   4.580   2.012   6.650 -0.3950  2.3506  0.1497
 2046TIP3    H227774   4.654   1.924   6.749 -0.8462 -0.5308 -1.9444
 2047TIP3   OH227775   5.951   2.703   1.483 -0.2385  0.2237 -0.2785
 2047TIP3    H127776   5.971   2.698   1.390  1.6005  1.6854 -0.0382
 2047TIP3    H227777   6.012   2.641   1.524  1.4532  2.0742  0.1745
 2048TIP3   OH227778   4.255   4.288   8.225  0.1953  0.1867  0.0023
 2048TIP3    H127779   4.275   4.195   8.233 -0.1087  0.2102  1.3133
 2048TIP3    H227780   4.332   4.326   8.184  1.3314 -0.2897  1.5934
 2049TIP3   OH227781   2.632   6.248   1.144 -0.1516  0.4467  0.1314
 2049TIP3    H127782   2.547   6.278   1.176  0.8094  0.7037  2.6615
 2049TIP3    H227783   2.624   6.153   1.140 -0.2023  0.3525  1.6822
 2050TIP3   OH227784   6.847   6.427   6.739  0.1577 -0.7002  0.4443
 2050TIP3    H127785   6.903   6.350   6.740  0.4513 -0.5229 -1.0680
 2050TIP3    H227786   6.868   6.472   6.657 -0.2214  0.8369  1.1561
 2051TIP3   OH227787   1.305   6.377   7.495 -0.3208  0.0822 -0.0109
 2051TIP3    H127788   1.351   6.387   7.412 -1.4792  2.5759 -0.4276
 2051TIP3    H227789   1.373   6.393   7.562  0.0808  0.5990 -0.5342
 2052TIP3   OH227790   4.157   4.444   0.493  0.0228  0.1902  0.0255
 2052TIP3    H127791   4.181   4.431   0.585 -0.1291 -0.6194 -0.0460
 2052TIP3    H227792   4.235   4.420   0.444 -0.8860 -2.5839 -0.2170
 2053TIP3   OH227793   4.273   3.200   7.608 -0.1088  0.8151 -0.3666
 2053TIP3    H127794   4.197   3.142   7.618  0.5071  0.2226  1.1030
 2053TIP3    H227795   4.264   3.262   7.680 -1.0414  2.9512 -2.2024
 2054TIP3   OH227796   1.294   3.791   0.005  0.8890 -0.5376  0.5184
 2054TIP3    H127797   1.211   3.770   0.048  1.8569 -1.2622  2.1293
 2054TIP3    H227798   1.272   3.861  -0.057 -1.2231 -1.8646 -0.3484
 2055TIP3   OH227799   0.901   3.959   5.931 -1.2023  0.0554  0.8553
 2055TIP3    H127800   0.950   3.937   6.011 -1.9080 -0.4111  1.1713
 2055TIP3    H227801   0.877   3.874   5.894  0.6085  0.2142 -0.8226
 2056TIP3   OH227802   6.227   1.288   7.949 -0.3652  0.0470 -0.1276
 2056TIP3    H127803   6.253   1.380   7.942 -0.9187  0.3258  1.2068
 2056TIP3    H227804   6.132   1.290   7.947 -0.5288 -0.1616  2.6706
 2057TIP3   OH227805   3.180   2.708   0.008  0.2732 -0.3939 -0.1638
 2057TIP3    H127806   3.124   2.757   0.069  2.3627  0.3845  1.2154
 2057TIP3    H227807   3.165   2.616   0.031 -1.7386 -0.3463 -1.0441
 2058TIP3   OH227808   5.251   6.547   1.513 -0.0525  0.1881 -0.0079
 2058TIP3    H127809   5.305   6.626   1.510 -0.0080  0.1754  0.3902
 2058TIP3    H227810   5.314   6.475   1.507 -0.1236  0.1843 -0.7620
 2059TIP3   OH227811   2.749   6.859   6.206 -0.7375 -0.2496  0.1172
 2059TIP3    H127812   2.685   6.863   6.135  0.9054  1.0432 -1.3752
 2059TIP3    H227813   2.728   6.778   6.253 -1.3584 -1.6125 -2.3506
 2060TIP3   OH227814   5.721   3.272   0.323 -0.0444  0.5634 -0.3529
 2060TIP3    H127815   5.660   3.267   0.250  0.3167 -1.4360 -0.5477
 2060TIP3    H227816   5.759   3.360   0.316 -1.5223  1.1679 -1.3021
 2061TIP3   OH227817   3.083   1.387   7.780  0.4745  0.1027 -0.4609
 2061TIP3    H127818   3.096   1.376   7.686 -1.2116 -0.0305 -0.7191
 2061TIP3    H227819   3.023   1.461   7.788 -0.7815 -0.9471  0.3868
 2062TIP3   OH227820   3.176   4.976   7.966  0.3683 -0.2513 -0.5820
 2062TIP3    H127821   3.134   4.932   8.040 -2.2671  0.6873 -1.3806
 2062TIP3    H227822   3.201   4.905   7.906  2.4492 -1.0104  1.0795
 2063TIP3   OH227823   2.737   6.633   1.346  0.0045 -0.1836 -0.2401
 2063TIP3    H127824   2.670   6.598   1.405  1.7655  0.6659  2.5005
 2063TIP3    H227825   2.690   6.694   1.290 -1.9099 -1.5860 -0.2599
 2064TIP3   OH227826   2.236   5.108   8.156  0.0485  0.0245  0.4708
 2064TIP3    H127827   2.181   5.125   8.080  1.6353 -0.3791 -0.8103
 2064TIP3    H227828   2.248   5.194   8.196 -1.4980  0.1191  0.8104
 2065TIP3   OH227829   6.454   2.800   1.726  0.1815  0.4177  0.0561
 2065TIP3    H127830   6.450   2.876   1.784  2.0297 -0.0159  0.8486
 2065TIP3    H227831   6.422   2.727   1.779 -0.4038  0.4318 -0.2783
 2066TIP3   OH227832   0.570   1.407   1.453  0.5695  0.4617 -0.0108
 2066TIP3    H127833   0.649   1.423   1.505  1.2108  0.0795 -0.8419
 2066TIP3    H227834   0.596   1.340   1.390 -1.4412 -2.5213  2.0386
 2067TIP3   OH227835   3.225   5.463   2.250 -0.2070 -0.0039 -0.3541
 2067TIP3    H127836   3.172   5.531   2.291 -0.7596 -0.6884  0.1036
 2067TIP3    H227837   3.307   5.506   2.229 -0.1169  0.5235  0.9672
 2068TIP3   OH227838   0.051   1.087   6.988  0.3975 -0.1534  0.9953
 2068TIP3    H127839   0.118   1.148   6.956  0.7116 -0.5392  0.9125
 2068TIP3    H227840   0.087   1.000   6.971 -0.3706 -0.3676  0.4412
 2069TIP3   OH227841   3.736   3.006   8.361 -0.0495 -0.1139 -0.0863
 2069TIP3    H127842   3.681   2.971   8.291 -0.6523  1.2971 -0.3583
 2069TIP3    H227843   3.825   2.980   8.337 -0.4286 -1.1996 -0.3958
 2070TIP3   OH227844   1.259   3.545   1.794  0.0759  0.2787 -0.6797
 2070TIP3    H127845   1.340   3.573   1.838  0.3783 -0.6617 -0.5911
 2070TIP3    H227846   1.229   3.470   1.847 -0.0196 -0.3322 -1.5735
 2071TIP3   OH227847   6.957   0.215   8.403 -0.2125  0.5112  0.3227
 2071TIP3    H127848   6.922   0.240   8.488  0.6203  0.1612  0.7860
 2071TIP3    H227849   6.882   0.182   8.354 -0.3023 -1.8708  1.8918
 2072TIP3   OH227850   5.440   4.114   7.123 -0.0485 -0.0508 -0.9205
 2072TIP3    H127851   5.355   4.155   7.140  0.0129  0.7168 -2.2969
 2072TIP3    H227852   5.419   4.025   7.096 -0.4322  0.1575 -1.3238
 2073TIP3   OH227853   6.868   3.407   1.765  0.3697  0.2840 -0.2713
 2073TIP3    H127854   6.778   3.392   1.793  0.5538  1.3318  0.9900
 2073TIP3    H227855   6.917   3.334   1.802  0.0832 -0.1441 -0.7334
 2074TIP3   OH227856   3.290   0.170   7.450 -0.6037  0.2294 -0.0353
 2074TIP3    H127857   3.206   0.183   7.494 -1.0189  0.8819 -0.9964
 2074TIP3    H227858   3.355   0.189   7.518 -1.2201  2.0790  0.1021
 2075TIP3   OH227859   5.118   4.303   0.505 -0.3329 -0.1748 -0.5185
 2075TIP3    H127860   5.161   4.245   0.441 -0.3670  1.0703 -1.7289
 2075TIP3    H227861   5.183   4.371   0.523 -0.7958  0.1864 -0.2066
 2076TIP3   OH227862   2.602   4.011   1.129  0.0398  0.3923 -0.4879
 2076TIP3    H127863   2.514   3.995   1.094 -0.3183  0.9212  0.1669
 2076TIP3    H227864   2.618   3.938   1.188  0.2802 -0.0158 -1.0504
 2077TIP3   OH227865   4.174   1.265   0.727 -0.1139 -0.0541 -0.0454
 2077TIP3    H127866   4.151   1.204   0.798 -2.9978 -0.7080 -1.3889
 2077TIP3    H227867   4.220   1.210   0.663  0.3739  0.0035  0.2469
 2078TIP3   OH227868   6.889   6.198   7.782  0.5480 -0.4255  0.0032
 2078TIP3    H127869   6.942   6.212   7.704 -0.5095 -1.5451 -0.9667
 2078TIP3    H227870   6.878   6.103   7.787 -0.3675 -0.2929  0.8340
 2079TIP3   OH227871   3.326   2.365   2.599  0.2987  0.1405 -0.1352
 2079TIP3    H127872   3.247   2.411   2.627  0.0894 -1.4831  2.3079
 2079TIP3    H227873   3.388   2.435   2.579 -0.9236  1.4659  0.4916
 2080TIP3   OH227874   4.978   5.258   0.877 -1.1442  0.3584  0.5622
 2080TIP3    H127875   5.006   5.187   0.820  0.5064  2.6726 -1.7408
 2080TIP3    H227876   5.019   5.239   0.961  0.2049 -0.8295 -0.3212
 2081TIP3   OH227877   5.786   5.961   7.155 -0.3366 -0.3227 -0.2522
 2081TIP3    H127878   5.790   6.035   7.095 -1.9115 -0.4548 -0.5677
 2081TIP3    H227879   5.759   5.999   7.238 -0.2034 -0.4110 -0.1690
 2082TIP3   OH227880   1.602   2.737   8.010  0.3502  0.1481  0.4558
 2082TIP3    H127881   1.624   2.700   7.924  0.5610 -1.7635  1.2864
 2082TIP3    H227882   1.528   2.686   8.040  0.1436  0.9440  1.3472
 2083TIP3   OH227883   3.978   1.375   0.136 -0.2889  0.4483 -0.8349
 2083TIP3    H127884   4.043   1.445   0.134  0.7667 -0.4520  0.3613
 2083TIP3    H227885   3.915   1.404   0.202  0.3497  0.1385 -0.0654
 2084TIP3   OH227886   3.667   2.618   0.774 -0.0681 -0.7807  0.1009
 2084TIP3    H127887   3.639   2.638   0.864  0.0563 -1.3893  0.2806
 2084TIP3    H227888   3.703   2.701   0.742 -0.9349 -0.3047  0.2890
 2085TIP3   OH227889   2.934   3.298   1.049  0.7088  0.0115  0.3505
 2085TIP3    H127890   2.891   3.213   1.036  0.7575  0.0354  0.0143
 2085TIP3    H227891   2.903   3.351   0.975 -0.7660  0.8739  1.5282
 2086TIP3   OH227892   0.475   5.436   0.266 -0.2368 -0.4888 -0.1264
 2086TIP3    H127893   0.489   5.447   0.360  2.9310 -1.2228 -0.4094
 2086TIP3    H227894   0.473   5.341   0.253  0.5118 -0.4067 -0.9177
 2087TIP3   OH227895   2.207   1.722   6.782 -0.2290 -0.4520 -0.1225
 2087TIP3    H127896   2.113   1.737   6.791 -0.6666 -2.7650 -0.2634
 2087TIP3    H227897   2.241   1.730   6.871 -0.7393 -0.6638  0.0933
 2088TIP3   OH227898   6.353   1.957   0.537  0.1035  0.3230 -0.0795
 2088TIP3    H127899   6.357   1.882   0.478  0.1881  0.5983 -0.4316
 2088TIP3    H227900   6.430   1.947   0.594  0.5170  0.5272 -0.5980
 2089TIP3   OH227901   6.528   0.489   1.283 -0.3340  0.2342 -0.1805
 2089TIP3    H127902   6.521   0.501   1.189  0.4811 -0.9489 -0.4138
 2089TIP3    H227903   6.456   0.431   1.306  0.4358 -0.8391 -0.3738
 2090TIP3   OH227904   6.598   6.562   0.225 -0.5958 -0.1455 -0.1148
 2090TIP3    H127905   6.633   6.563   0.136 -0.3626  0.4503 -0.0204
 2090TIP3    H227906   6.671   6.590   0.280  0.0294 -2.8613  0.5723
 2091TIP3   OH227907   0.346   6.246   0.838 -0.1772 -0.2678 -0.4955
 2091TIP3    H127908   0.351   6.242   0.933 -0.6997 -0.1193 -0.4622
 2091TIP3    H227909   0.409   6.180   0.808  0.6693  0.3121 -0.0584
 2092TIP3   OH227910   5.878   1.982   8.193  0.2266  0.3611 -0.4473
 2092TIP3    H127911   5.845   1.893   8.208 -0.3576  0.5370 -0.6337
 2092TIP3    H227912   5.873   1.993   8.098  0.1102  0.6631 -0.4054
 2093TIP3   OH227913   4.687   2.155   6.348 -0.3477  0.4331 -0.2234
 2093TIP3    H127914   4.603   2.144   6.392  0.1770 -1.4055  0.3994
 2093TIP3    H227915   4.692   2.249   6.329 -0.7162  1.3585  3.4746
 2094TIP3   OH227916   1.128   6.570   0.910 -0.2225 -0.0749 -0.2244
 2094TIP3    H127917   1.041   6.542   0.937  0.0992 -1.8885 -0.9490
 2094TIP3    H227918   1.188   6.531   0.974  0.0753  1.2450  0.3327
 2095TIP3   OH227919   6.482   0.923   7.690 -0.4357  1.0954 -0.0102
 2095TIP3    H127920   6.405   0.868   7.678 -0.0643  0.3433  0.8926
 2095TIP3    H227921   6.497   0.964   7.605  0.0607 -1.2332 -1.1203
 2096TIP3   OH227922   0.336   4.678   1.451  0.5508  0.2998 -0.1579
 2096TIP3    H127923   0.308   4.684   1.542  0.2529 -1.7728 -0.0539
 2096TIP3    H227924   0.369   4.765   1.430 -1.2870  1.4159  1.2674
 2097TIP3   OH227925   6.040   4.839   1.364  0.2063  0.3391  0.1498
 2097TIP3    H127926   6.066   4.788   1.287 -0.7011  1.6511 -1.0705
 2097TIP3    H227927   5.954   4.804   1.387  0.7510 -0.4813  0.9779
 2098TIP3   OH227928   6.304   2.631   0.747 -0.1277 -0.5975  0.4625
 2098TIP3    H127929   6.358   2.555   0.726  0.3103 -1.0676  2.9710
 2098TIP3    H227930   6.361   2.687   0.800 -0.3805  1.6326 -1.4324
 2099TIP3   OH227931   3.705   0.317   7.997  0.3550 -0.2041  0.5259
 2099TIP3    H127932   3.666   0.401   7.970  3.0812  0.5386 -1.5202
 2099TIP3    H227933   3.785   0.341   8.042  0.4012 -1.7279  1.3108
 2100TIP3   OH227934   1.024   1.969   6.297  0.3764 -0.7362  0.0692
 2100TIP3    H127935   0.974   1.996   6.219 -0.3850  0.3844  0.9271
 2100TIP3    H227936   0.957   1.941   6.359  0.7075  1.4969  1.5227
 2101TIP3   OH227937   0.072   2.477   1.211  0.6348  0.2860 -0.1275
 2101TIP3    H127938   0.140   2.538   1.184  0.0015  1.4744  0.8809
 2101TIP3    H227939  -0.010   2.518   1.182  0.0647  0.7954  2.0449
 2102TIP3   OH227940   5.301   3.404   0.906 -0.2330  0.7798  0.0816
 2102TIP3    H127941   5.263   3.324   0.941 -0.0504 -1.1092 -3.5928
 2102TIP3    H227942   5.225   3.458   0.882 -0.3868  0.8948  0.8087
 2103TIP3   OH227943   6.817   4.918   6.674 -1.0081 -0.3094  0.5307
 2103TIP3    H127944   6.909   4.938   6.692 -1.0169 -1.3809  1.9561
 2103TIP3    H227945   6.775   5.003   6.666 -0.1587  0.2172  1.4165
 2104TIP3   OH227946   4.703   1.376   1.464 -0.1542  0.4683  0.0696
 2104TIP3    H127947   4.790   1.413   1.452 -0.4044  0.4990 -1.9474
 2104TIP3    H227948   4.689   1.321   1.387 -1.8266  0.2998  0.4559
 2105TIP3   OH227949   4.948   4.727   0.721  0.2716 -0.4320 -0.0526
 2105TIP3    H127950   5.007   4.766   0.657 -1.8397  1.9966 -0.6983
 2105TIP3    H227951   4.870   4.704   0.670 -0.7962 -0.0141  1.3375
 2106TIP3   OH227952   6.385   1.545   0.682  0.2544 -0.8717 -0.1114
 2106TIP3    H127953   6.404   1.630   0.721 -1.0805 -0.6892  0.1904
 2106TIP3    H227954   6.419   1.482   0.745  1.7208 -0.5938 -0.5767
 2107TIP3   OH227955   5.194   3.818   8.348  0.3262 -0.3194  0.0222
 2107TIP3    H127956   5.202   3.735   8.300 -0.0441 -0.7578  0.7009
 2107TIP3    H227957   5.264   3.873   8.312 -1.2677  0.1674 -2.5930
 2108TIP3   OH227958   5.065   0.574   6.936  0.1640 -0.0915  0.4545
 2108TIP3    H127959   5.131   0.582   7.004  1.0858 -1.2463 -0.2754
 2108TIP3    H227960   4.991   0.626   6.968  1.4276  1.2683  1.2538
 2109TIP3   OH227961   3.474   0.174   2.819 -0.0153 -0.4158 -0.4247
 2109TIP3    H127962   3.563   0.162   2.853  0.5698  2.4937 -0.6781
 2109TIP3    H227963   3.480   0.144   2.728  0.3045 -1.5463 -0.0501
 2110TIP3   OH227964   5.118   1.812   0.074 -0.0689  0.6692 -0.7000
 2110TIP3    H127965   5.152   1.773  -0.006  2.3441  0.7549  0.1736
 2110TIP3    H227966   5.130   1.906   0.062  1.4851  0.6199  0.1778
 2111TIP3   OH227967   5.097   5.708   7.884 -0.4560 -0.1222  0.2848
 2111TIP3    H127968   5.121   5.789   7.929  0.7514 -1.4050  2.0729
 2111TIP3    H227969   5.128   5.638   7.941 -2.6898 -1.9002 -0.5062
 2112TIP3   OH227970   3.966   1.654   1.514  0.9661  0.2435 -0.3121
 2112TIP3    H127971   3.911   1.577   1.527  0.9068  0.2272 -0.6387
 2112TIP3    H227972   3.996   1.678   1.602  2.8020 -1.4833 -0.4077
 2113TIP3   OH227973   4.403   4.725   7.107  0.9024 -0.4201  0.1428
 2113TIP3    H127974   4.476   4.667   7.083  0.6657 -0.7713  0.2592
 2113TIP3    H227975   4.431   4.812   7.079  1.4395 -0.5244  0.3384
 2114TIP3   OH227976   4.444   2.000   6.550  0.2930  0.5131 -0.4481
 2114TIP3    H127977   4.387   1.945   6.496  1.5233 -0.5978 -0.6782
 2114TIP3    H227978   4.448   2.083   6.504  0.8584 -0.2297 -1.8096
 2115TIP3   OH227979   4.675   0.494   7.810  0.7442 -0.4331 -0.1175
 2115TIP3    H127980   4.607   0.436   7.776 -0.3213  1.4077 -1.2797
 2115TIP3    H227981   4.643   0.519   7.897  1.2361 -1.5832  0.4137
 2116TIP3   OH227982   3.867   4.315   6.791  0.2115  0.4645  0.4529
 2116TIP3    H127983   3.960   4.292   6.802  0.4752  1.1403 -0.2402
 2116TIP3    H227984   3.845   4.364   6.870  0.2096 -0.3699  0.9908
 2117TIP3   OH227985   2.544   6.226   6.886 -0.4131 -0.2999  0.3768
 2117TIP3    H127986   2.587   6.290   6.943 -0.5040  0.8100 -0.7335
 2117TIP3    H227987   2.611   6.160   6.869  0.9715  1.4136 -1.3587
 2118TIP3   OH227988   3.416   5.089   1.018 -0.8857  0.2862 -0.1996
 2118TIP3    H127989   3.432   5.033   1.093  1.2215 -1.2488 -1.6610
 2118TIP3    H227990   3.484   5.157   1.024 -2.1871  1.5823  0.4906
 2119TIP3   OH227991   5.106   4.353   1.556  0.8835 -0.0009  0.5626
 2119TIP3    H127992   5.139   4.337   1.468  0.5447  1.6643  0.1063
 2119TIP3    H227993   5.046   4.280   1.573  2.8400 -1.7376  0.4601
 2120TIP3   OH227994   6.969   6.214   7.503 -0.0031  0.1098  0.0607
 2120TIP3    H127995   6.956   6.187   7.412 -1.0384 -0.0797  0.2477
 2120TIP3    H227996   7.061   6.238   7.508  0.1045 -0.0211 -1.0000
 2121TIP3   OH227997   3.843   3.435   0.750  0.5091 -0.0935 -0.3126
 2121TIP3    H127998   3.904   3.431   0.677  0.0321 -1.2603 -0.6792
 2121TIP3    H227999   3.756   3.444   0.709  0.2080 -1.0891  0.0812
 2122TIP3   OH228000   6.948   6.026   0.951  0.5945  0.2237 -0.3867
 2122TIP3    H128001   6.901   6.021   0.868  0.4855 -0.6361 -0.2788
 2122TIP3    H228002   6.961   5.935   0.978 -0.8746  0.4817  1.3853
 2123TIP3   OH228003   3.278   1.599   8.118  0.0682  0.2169 -0.5748
 2123TIP3    H128004   3.260   1.619   8.210 -0.4519 -0.6918 -0.4662
 2123TIP3    H228005   3.236   1.514   8.104 -0.6356  0.7604 -1.9021
 2124TIP3   OH228006   1.230   1.489   1.978  0.5235 -0.0511 -0.4116
 2124TIP3    H128007   1.135   1.499   1.987  0.6001 -0.8616  1.7196
 2124TIP3    H228008   1.267   1.552   2.039  1.4925  1.6435 -2.5847
 2125TIP3   OH228009   5.487   3.573   7.640  0.0602 -0.1250 -0.1719
 2125TIP3    H128010   5.489   3.645   7.576 -0.7001 -0.3092 -0.4071
 2125TIP3    H228011   5.469   3.495   7.587 -2.2368 -0.0633  0.4483
 2126TIP3   OH228012   3.324   4.117   1.245  0.3082 -0.6495  0.9835
 2126TIP3    H128013   3.237   4.105   1.282 -0.5172  0.4797 -0.5132
 2126TIP3    H228014   3.332   4.211   1.230  1.5160 -0.8055  0.4639
 2127TIP3   OH228015   1.389   2.504   5.927 -0.4154  0.2670  0.1049
 2127TIP3    H128016   1.302   2.543   5.935 -0.6436 -0.1664 -0.2307
 2127TIP3    H228017   1.448   2.578   5.912 -0.8005  0.5122 -0.1953
 2128TIP3   OH228018   6.858   6.781   1.733  0.0477 -0.0585  0.5640
 2128TIP3    H128019   6.924   6.832   1.779  0.2052  1.3462 -1.1116
 2128TIP3    H228020   6.906   6.738   1.662 -0.3621 -1.3620  1.0447
 2129TIP3   OH228021   5.941   4.743   7.304  0.7685  0.3425  0.1270
 2129TIP3    H128022   5.913   4.691   7.228  0.2437 -0.1733  0.6519
 2129TIP3    H228023   5.880   4.816   7.306 -0.1904 -0.4393  0.8958
 2130TIP3   OH228024   3.279   4.339   0.394  0.1509 -0.6022  0.0690
 2130TIP3    H128025   3.333   4.308   0.467 -0.5418 -2.1367 -0.0347
 2130TIP3    H228026   3.214   4.270   0.382 -1.5714  0.9987 -0.1109
 2131TIP3   OH228027   1.876   2.326   1.019 -0.2909  0.2271 -0.3636
 2131TIP3    H128028   1.845   2.360   0.935  0.0663 -1.2130 -1.1168
 2131TIP3    H228029   1.802   2.277   1.054 -0.2554  0.3566 -0.1066
 2132TIP3   OH228030   1.561   0.674   1.151 -0.1072 -0.5551  0.0921
 2132TIP3    H128031   1.558   0.596   1.094  2.3848  0.7595 -2.0726
 2132TIP3    H228032   1.627   0.652   1.217  0.1519 -0.5187 -0.1510
 2133TIP3   OH228033   4.233   5.134   0.933 -0.2063 -0.0360 -0.2652
 2133TIP3    H128034   4.249   5.128   1.028 -2.6447 -2.5913  0.1131
 2133TIP3    H228035   4.276   5.057   0.897 -3.6804 -2.1539 -0.3526
 2134TIP3   OH228036   6.045   1.232   1.785 -0.3057 -0.0171  0.0865
 2134TIP3    H128037   6.062   1.149   1.738  0.4136  2.2193 -4.1113
 2134TIP3    H228038   5.953   1.249   1.770  0.0137  0.9054 -0.9587
 2135TIP3   OH228039   5.883   4.057   7.578 -0.2377  0.3376  0.7082
 2135TIP3    H128040   5.964   4.069   7.627  0.3382 -0.2058 -0.0726
 2135TIP3    H228041   5.845   4.145   7.572  0.5324  0.6780  0.6812
 2136TIP3   OH228042   1.892   2.584   6.993  0.1409  0.5962  0.0411
 2136TIP3    H128043   1.949   2.607   7.066  1.0079 -0.4564 -0.2821
 2136TIP3    H228044   1.813   2.637   7.006  0.5241  0.8569  1.4050
 2137TIP3   OH228045   5.703   4.819   7.762 -0.3820 -0.0174  0.4610
 2137TIP3    H128046   5.777   4.759   7.754 -0.2225  0.2236  0.0683
 2137TIP3    H228047   5.672   4.808   7.852  1.1801  1.0764  1.1754
 2138TIP3   OH228048   1.618   4.177   0.952 -0.2024 -0.1096 -0.0168
 2138TIP3    H128049   1.534   4.136   0.972 -0.2528  0.2460  0.5198
 2138TIP3    H228050   1.605   4.220   0.868 -0.6095  0.0904  0.1470
 2139TIP3   OH228051   0.272   4.543   0.015  0.2044  0.5842  0.2548
 2139TIP3    H128052   0.314   4.468   0.057 -0.6904  1.0997  2.1536
 2139TIP3    H228053   0.222   4.504  -0.058  2.4034 -0.2364 -0.9233
 2140TIP3   OH228054   0.475   2.551   0.542  0.3137 -0.1434 -0.6738
 2140TIP3    H128055   0.517   2.578   0.460 -0.1966  1.5142 -0.4264
 2140TIP3    H228056   0.381   2.564   0.526 -0.3234 -4.1728 -1.3682
 2141TIP3   OH228057   5.396   3.799   7.376 -0.4273  0.3249 -0.0750
 2141TIP3    H128058   5.413   3.749   7.296 -1.8443  1.0027 -0.8366
 2141TIP3    H228059   5.444   3.881   7.364 -1.4908  0.8790 -0.7583
 2142TIP3   OH228060   2.133   5.348   7.723  0.1527  0.5992 -0.0320
 2142TIP3    H128061   2.209   5.403   7.706  1.6705 -1.0471  1.0923
 2142TIP3    H228062   2.155   5.263   7.685 -0.3764 -0.3937  1.7584
 2143TIP3   OH228063   1.642   2.791   0.736  0.2616 -0.3576 -0.3746
 2143TIP3    H128064   1.601   2.839   0.664  0.3302  0.4171  0.0898
 2143TIP3    H228065   1.720   2.842   0.757  0.0321 -0.3527  0.5068
 2144TIP3   OH228066   2.243   5.254   0.154 -0.1184 -0.1947 -0.0207
 2144TIP3    H128067   2.297   5.178   0.177 -1.8266 -1.2400  0.7055
 2144TIP3    H228068   2.303   5.329   0.161  1.2124 -1.2877  0.8226
 2145TIP3   OH228069   1.242   6.180   0.373  0.3981 -0.4426 -0.3834
 2145TIP3    H128070   1.220   6.100   0.422 -0.3176 -0.1132 -0.1535
 2145TIP3    H228071   1.160   6.206   0.332  1.3037 -1.6374 -3.1945
 2146TIP3   OH228072   1.486   5.952   0.859 -0.5353  0.2243  0.4102
 2146TIP3    H128073   1.466   5.936   0.951 -1.0159  1.8791  0.6385
 2146TIP3    H228074   1.532   5.874   0.829  1.2616  0.3888  2.5486
 2147TIP3   OH228075   1.249   3.925   7.841 -0.2979  0.6641 -0.1548
 2147TIP3    H128076   1.277   3.995   7.781  1.0673  1.4644  1.3143
 2147TIP3    H228077   1.232   3.850   7.785 -0.6209  1.8361 -1.6761
 2148TIP3   OH228078   4.192   3.082   0.232 -0.2548  0.7090 -0.2742
 2148TIP3    H128079   4.221   3.028   0.158 -0.8768  0.9401 -0.6970
 2148TIP3    H228080   4.244   3.161   0.225 -0.5794  0.8926 -0.7058
 2149TIP3   OH228081   4.911   2.678   1.731 -0.6126 -0.2683 -0.0394
 2149TIP3    H128082   4.835   2.732   1.707 -1.1893 -1.0049  0.1227
 2149TIP3    H228083   4.972   2.691   1.659 -0.5090  1.0369  0.2491
 2150TIP3   OH228084   5.716   1.554   6.432  0.2107 -0.4489 -0.5484
 2150TIP3    H128085   5.662   1.613   6.378  0.7239  0.2641 -0.2910
 2150TIP3    H228086   5.714   1.471   6.384 -0.0742 -0.0767 -1.2094
 2151TIP3   OH228087   5.465   2.366   0.824  0.5319 -0.2386  0.3120
 2151TIP3    H128088   5.393   2.411   0.780 -0.0099 -2.7453 -1.6290
 2151TIP3    H228089   5.424   2.323   0.900  0.1209 -0.9267 -0.2827
 2152TIP3   OH228090   4.055   5.822   6.848  0.6325  0.4968 -0.4948
 2152TIP3    H128091   4.065   5.858   6.936 -0.5881 -0.8548  0.2674
 2152TIP3    H228092   4.122   5.753   6.843  0.6872  0.5591 -0.5987
 2153TIP3   OH228093   2.512   2.583   6.562 -0.1855  0.3931 -0.3151
 2153TIP3    H128094   2.579   2.651   6.554 -0.2641  0.5072 -0.0447
 2153TIP3    H228095   2.516   2.534   6.480  0.0754  0.5404 -0.3896
 2154TIP3   OH228096   1.654   4.607   2.344  0.2064  0.3740  0.2221
 2154TIP3    H128097   1.653   4.666   2.419  1.8479  1.5512 -0.6121
 2154TIP3    H228098   1.562   4.580   2.333 -0.1192  0.4467  2.3819
 2155TIP3   OH228099   4.524   0.607   2.436  0.2826  0.3627 -0.6864
 2155TIP3    H128100   4.481   0.522   2.428  0.0797  0.4104 -0.1148
 2155TIP3    H228101   4.496   0.641   2.521  2.1202  0.0040  0.1328
 2156TIP3   OH228102   5.028   4.292   0.795 -0.0595  0.0919 -0.3404
 2156TIP3    H128103   5.017   4.274   0.701  1.5295 -2.7229 -0.1152
 2156TIP3    H228104   5.113   4.334   0.802  0.1749 -0.4014 -0.1321
 2157TIP3   OH228105   5.941   1.724   7.814 -0.6692  0.2622  0.0417
 2157TIP3    H128106   6.021   1.699   7.767  0.6185  2.4093  0.9707
 2157TIP3    H228107   5.879   1.745   7.744  0.3514  0.8396 -0.7300
 2158TIP3   OH228108   0.258   0.056   8.218 -0.0576 -0.1131  0.0160
 2158TIP3    H128109   0.166   0.052   8.245  0.2332 -0.0211  1.0505
 2158TIP3    H228110   0.282   0.148   8.229 -0.0153 -0.0142 -0.8647
 2159TIP3   OH228111   4.374   0.497   0.773  1.4555 -0.1607  0.0373
 2159TIP3    H128112   4.453   0.546   0.795  1.7119  0.4912 -2.0633
 2159TIP3    H228113   4.357   0.519   0.681 -1.0297 -0.4818  0.3377
 2160TIP3   OH228114   2.196   3.755   1.794  0.0704 -0.4246  0.1788
 2160TIP3    H128115   2.273   3.702   1.814 -0.3098 -1.2198 -0.4617
 2160TIP3    H228116   2.222   3.808   1.719 -0.1387 -1.0034 -0.3095
 2161TIP3   OH228117   2.704   2.466   6.058  0.0604  0.3140  0.0016
 2161TIP3    H128118   2.662   2.381   6.068 -1.2745  1.0633  1.1106
 2161TIP3    H228119   2.764   2.471   6.133 -0.3460  0.6133  0.3082
 2162TIP3   OH228120   0.221   3.733   0.482 -0.4911  0.4649  0.1169
 2162TIP3    H128121   0.201   3.696   0.569 -0.3337  0.3624  0.1112
 2162TIP3    H228122   0.262   3.817   0.501  0.7380 -0.1330  0.1851
 2163TIP3   OH228123   4.436   3.989   1.276 -0.3679  0.0732 -0.0899
 2163TIP3    H128124   4.488   4.048   1.221 -0.6076  1.0101  0.6675
 2163TIP3    H228125   4.499   3.954   1.339 -0.4241  0.2785  0.0785
 2164TIP3   OH228126   0.419   4.814   8.446  0.1665  0.5498  0.8381
 2164TIP3    H128127   0.511   4.817   8.421 -0.4794  1.2559 -1.7956
 2164TIP3    H228128   0.396   4.721   8.445  0.2097  0.4789 -1.5721
 2165TIP3   OH228129   1.171   4.304   0.494 -0.2043 -0.0358 -0.2809
 2165TIP3    H128130   1.202   4.377   0.547  0.2841 -0.4701  0.0337
 2165TIP3    H228131   1.169   4.339   0.405  0.1097  0.3351 -0.1445
 2166TIP3   OH228132   0.129   3.952   1.988 -0.7488  0.5667  0.4625
 2166TIP3    H128133   0.095   3.863   1.980  0.2846  0.3016 -1.4890
 2166TIP3    H228134   0.224   3.941   1.997 -0.7913  1.4198  2.3526
 2167TIP3   OH228135   0.359   1.847   7.003 -0.1647 -0.0264  0.1129
 2167TIP3    H128136   0.327   1.892   7.082  0.2425 -0.0707  0.3040
 2167TIP3    H228137   0.361   1.916   6.936  0.2217  0.1904  0.3416
 2168TIP3   OH228138   0.424   5.211   7.657 -0.3200 -0.4131  0.8315
 2168TIP3    H128139   0.450   5.128   7.617  3.1217  0.5369  0.8007
 2168TIP3    H228140   0.411   5.190   7.750  0.5634 -0.9906  0.8313
 2169TIP3   OH228141   1.413   0.749   6.648  0.5805  0.5552  0.3174
 2169TIP3    H128142   1.344   0.696   6.609  0.0803 -0.3065  2.2363
 2169TIP3    H228143   1.397   0.838   6.614 -0.7359  0.1472 -0.2052
 2170TIP3   OH228144   4.082   5.722   2.622  0.5577 -0.2637  0.4458
 2170TIP3    H128145   4.044   5.732   2.535 -2.3141 -0.7903  1.5151
 2170TIP3    H228146   4.130   5.639   2.617 -1.3401 -1.4072 -0.1393
 2171TIP3   OH228147   1.848   2.163   2.218  0.1803  0.7939 -0.4831
 2171TIP3    H128148   1.879   2.138   2.304  1.0193  1.0079 -0.7116
 2171TIP3    H228149   1.773   2.219   2.235 -0.6055 -0.3819  0.0639
 2172TIP3   OH228150   5.466   1.655   0.034  0.0322 -0.2864  0.8352
 2172TIP3    H128151   5.510   1.696  -0.042 -1.2186 -0.5760 -0.0733
 2172TIP3    H228152   5.402   1.595  -0.005  0.7765 -2.0098  2.1390
 2173TIP3   OH228153   6.340   1.550   7.950  0.1790 -0.6671 -0.1670
 2173TIP3    H128154   6.407   1.581   7.889  0.8781 -0.3431  0.7384
 2173TIP3    H228155   6.331   1.621   8.014 -0.0967 -1.2460  0.4497
 2174TIP3   OH228156   5.339   3.837   3.024 -0.1404 -0.7581 -0.5729
 2174TIP3    H128157   5.389   3.810   2.947 -1.0534 -0.4378 -1.2890
 2174TIP3    H228158   5.248   3.821   3.001 -0.6152  1.3569 -0.4087
 2175TIP3   OH228159   2.315   5.804   6.727 -0.3734  0.3480  0.2986
 2175TIP3    H128160   2.346   5.757   6.804 -0.0485  0.5581  0.2982
 2175TIP3    H228161   2.245   5.749   6.692 -0.5231  0.2559  0.7441
 2176TIP3   OH228162   0.175   5.095   0.823  0.7275  0.0284  0.1552
 2176TIP3    H128163   0.259   5.119   0.863  0.2481 -1.8018  2.4769
 2176TIP3    H228164   0.197   5.029   0.758  1.0453 -1.6145  1.8371
 2177TIP3   OH228165   0.244   2.480   1.948 -0.3474  0.4987 -0.2094
 2177TIP3    H128166   0.199   2.560   1.921 -1.3712 -0.1620 -0.5358
 2177TIP3    H228167   0.328   2.483   1.903 -0.9232  0.7440 -1.3033
 2178TIP3   OH228168   1.120   1.834   7.724 -0.0185 -0.1930 -0.3413
 2178TIP3    H128169   1.142   1.886   7.647 -0.1994  0.9210  0.3384
 2178TIP3    H228170   1.030   1.804   7.709 -0.4821  0.9982 -0.0661
 2179TIP3   OH228171   4.748   4.710   1.979 -0.6564  0.3708 -0.1936
 2179TIP3    H128172   4.673   4.769   1.971  0.8297  2.6531  1.3297
 2179TIP3    H228173   4.811   4.759   2.032  0.5835 -2.7804  1.5006
 2180TIP3   OH228174   5.209   6.768   2.636 -0.0088  0.1688 -0.7760
 2180TIP3    H128175   5.179   6.809   2.555 -1.2225 -2.1571 -1.5878
 2180TIP3    H228176   5.129   6.749   2.684  0.4767 -1.4049 -0.5366
 2181TIP3   OH228177   3.862   4.518   2.597  0.2871  0.3084 -0.3174
 2181TIP3    H128178   3.802   4.443   2.595 -0.4482  0.7518  1.8220
 2181TIP3    H228179   3.949   4.479   2.593 -0.0953 -0.6249 -0.0127
 2182TIP3   OH228180   0.857   1.023   0.932 -0.0382  0.3398  0.0352
 2182TIP3    H128181   0.861   0.929   0.951 -1.6962  0.1993 -0.1908
 2182TIP3    H228182   0.930   1.038   0.872  0.7488 -0.6291  0.7131
 2183TIP3   OH228183   4.481   3.368   7.191 -0.6722 -0.0231 -0.0997
 2183TIP3    H128184   4.453   3.296   7.248  1.7248 -0.0014  1.2372
 2183TIP3    H228185   4.522   3.431   7.250 -1.5237  1.8565 -1.4186
 2184TIP3   OH228186   4.071   1.310   1.783 -0.3188  0.3151 -0.0024
 2184TIP3    H128187   4.021   1.229   1.777  2.1459 -1.5574  2.0236
 2184TIP3    H228188   4.112   1.320   1.697  0.1024 -1.1720  0.0027
 2185TIP3   OH228189   3.321   2.021   2.612  0.2887 -0.0726 -0.0116
 2185TIP3    H128190   3.292   2.111   2.623  0.3248  0.0129 -0.5506
 2185TIP3    H228191   3.240   1.969   2.616  0.3544 -0.1099  1.1353
 2186TIP3   OH228192   3.863   0.502   8.281 -0.3814  0.2938  0.5683
 2186TIP3    H128193   3.912   0.479   8.360 -0.8986 -0.7392  0.6017
 2186TIP3    H228194   3.834   0.592   8.297 -1.8032 -0.3964  2.2630
 2187TIP3   OH228195   3.885   2.765   6.731 -0.1842 -0.0300 -0.0488
 2187TIP3    H128196   3.955   2.830   6.718  1.1441 -1.6997 -1.9675
 2187TIP3    H228197   3.804   2.815   6.724  0.7366  2.0074  2.4028
 2188TIP3   OH228198   0.669   4.551   6.468 -0.3106  0.0882 -0.1132
 2188TIP3    H128199   0.587   4.504   6.454  0.6060 -1.2166 -1.3690
 2188TIP3    H228200   0.702   4.570   6.380  0.4157  1.2090  0.3686
 2189TIP3   OH228201   2.480   4.599   8.013 -0.5206 -0.0014 -0.0097
 2189TIP3    H128202   2.418   4.670   8.001  1.1504  1.4126 -0.6364
 2189TIP3    H228203   2.526   4.621   8.094  1.1815  0.6117 -1.0859
 2190TIP3   OH228204   4.500   5.186   8.286  0.5580 -0.1666  0.7153
 2190TIP3    H128205   4.587   5.162   8.255 -0.0105  0.9848 -2.0332
 2190TIP3    H228206   4.490   5.138   8.368  2.6603 -2.5702 -0.3016
 2191TIP3   OH228207   1.014   6.933   7.346 -0.2176 -0.3935 -0.3454
 2191TIP3    H128208   1.100   6.901   7.371 -0.2692 -1.8957 -1.9025
 2191TIP3    H228209   0.955   6.860   7.365 -0.9152  0.0988 -0.5995
 2192TIP3   OH228210   2.426   2.079   7.527 -0.1355  0.2497 -0.3300
 2192TIP3    H128211   2.462   2.036   7.450  2.6561 -0.2975  1.1548
 2192TIP3    H228212   2.422   2.011   7.594 -3.5698  0.4353 -0.1921
 2193TIP3   OH228213   4.139   5.573   7.003 -0.6458 -0.8125  0.2781
 2193TIP3    H128214   4.209   5.515   6.974  0.4509 -0.1736  1.5710
 2193TIP3    H228215   4.062   5.542   6.955  0.8162 -0.4348 -2.5261
 2194TIP3   OH228216   3.466   0.785   1.896 -0.0323  0.6059  0.1098
 2194TIP3    H128217   3.373   0.769   1.915  0.2863  0.1358  1.3883
 2194TIP3    H228218   3.501   0.699   1.874 -0.2136  1.0221 -1.9621
 2195TIP3   OH228219   1.365   0.304   1.116  0.1113  0.0092  0.0824
 2195TIP3    H128220   1.278   0.342   1.100 -0.1215  0.2034  1.5868
 2195TIP3    H228221   1.427   0.369   1.084 -0.3025  0.7700  0.7890
 2196TIP3   OH228222   2.561   6.688   1.858  0.5487  0.1403  0.2927
 2196TIP3    H128223   2.478   6.729   1.833  0.6426 -1.1984 -2.6137
 2196TIP3    H228224   2.536   6.620   1.921 -0.3510  0.7021  0.5718
 2197TIP3   OH228225   4.061   5.262   1.498 -0.1822  0.3986 -0.5785
 2197TIP3    H128226   4.028   5.308   1.575 -0.9344 -0.4873 -0.3540
 2197TIP3    H228227   4.098   5.181   1.532  0.5103  0.5211 -1.0350
 2198TIP3   OH228228   3.229   3.623   1.176 -0.4845  0.0144  0.0593
 2198TIP3    H128229   3.324   3.631   1.164 -0.3925 -0.5154  0.4516
 2198TIP3    H228230   3.195   3.709   1.149  0.0747  0.1153 -0.3553
 2199TIP3   OH228231   2.955   1.466   0.648 -0.2204  0.3126 -0.4874
 2199TIP3    H128232   2.876   1.444   0.600  0.3627  0.9282 -1.7674
 2199TIP3    H228233   2.925   1.481   0.738 -1.4848  0.1316 -0.8621
 2200TIP3   OH228234   4.713   6.282   0.914 -0.0917 -0.0056  0.0371
 2200TIP3    H128235   4.770   6.351   0.879 -1.0699  0.2678 -1.0757
 2200TIP3    H228236   4.771   6.230   0.970  1.2591  0.2982 -1.0039
 2201TIP3   OH228237   2.312   0.699   2.122  0.6330 -0.5779  0.1024
 2201TIP3    H128238   2.263   0.751   2.186  0.0567  0.1003 -0.8602
 2201TIP3    H228239   2.278   0.610   2.132  0.0028 -0.3295  0.2180
 2202TIP3   OH228240   6.220   6.817   0.011 -0.2692 -0.5280 -0.3130
 2202TIP3    H128241   6.179   6.770   0.084 -0.4517 -1.7617 -1.1792
 2202TIP3    H228242   6.312   6.794   0.016 -0.0233  0.5580  0.3784
 2203TIP3   OH228243   2.375   5.591   8.160 -0.6602 -0.0454  0.0041
 2203TIP3    H128244   2.313   5.519   8.146  0.9177 -1.4016 -0.3592
 2203TIP3    H228245   2.388   5.629   8.073  0.0875 -0.7143 -0.1920
 2204TIP3   OH228246   3.483   3.553   1.544  0.0118  0.6599 -0.0921
 2204TIP3    H128247   3.450   3.629   1.496  1.3329  1.3564  0.0370
 2204TIP3    H228248   3.466   3.573   1.636  0.3366  0.7866 -0.0596
 2205TIP3   OH228249   4.493   3.667   2.367 -0.2181  0.5268 -0.1054
 2205TIP3    H128250   4.506   3.761   2.356 -2.3653  0.7124 -1.7515
 2205TIP3    H228251   4.577   3.628   2.343  0.2395  1.9474 -0.9041
 2206TIP3   OH228252   6.028   5.942   6.537  0.1752  0.6340  0.2628
 2206TIP3    H128253   6.031   5.999   6.614 -1.2628  2.6448 -1.0779
 2206TIP3    H228254   6.105   5.966   6.486  1.0243 -0.5667  0.9218
 2207TIP3   OH228255   3.029   5.825   6.887 -0.0802  0.2895 -0.7479
 2207TIP3    H128256   3.055   5.914   6.910  0.0095  0.1887 -0.4588
 2207TIP3    H228257   2.986   5.834   6.802  0.9858  0.4429 -1.2804
 2208TIP3   OH228258   6.516   5.423   1.084 -0.2392 -0.6305  0.0956
 2208TIP3    H128259   6.529   5.509   1.123 -0.4224 -1.1595  1.3721
 2208TIP3    H228260   6.576   5.366   1.132 -0.2676 -1.2512 -0.5966
 2209TIP3   OH228261   3.865   4.428   7.720 -0.5855 -0.1118  0.0051
 2209TIP3    H128262   3.943   4.391   7.679 -0.4813  1.1833 -1.0617
 2209TIP3    H228263   3.899   4.492   7.783 -0.7750 -0.6720  0.6823
 2210TIP3   OH228264   1.403   4.112   0.343  0.4017 -0.1141 -0.0686
 2210TIP3    H128265   1.422   4.058   0.266  1.6053 -0.2348  0.2765
 2210TIP3    H228266   1.348   4.057   0.398 -1.6487  0.4881 -1.4231
 2211TIP3   OH228267   2.381   3.145   0.626 -0.0770  0.5958 -0.3992
 2211TIP3    H128268   2.311   3.186   0.677 -0.9738 -2.0670  0.6407
 2211TIP3    H228269   2.355   3.159   0.534 -0.0846  2.6470 -0.1483
 2212TIP3   OH228270   3.741   3.819   6.989 -0.0478 -0.2217  0.1029
 2212TIP3    H128271   3.754   3.913   6.995  0.7721 -0.2640 -0.8043
 2212TIP3    H228272   3.694   3.796   7.069  2.6863  0.4567  2.0264
 2213TIP3   OH228273   0.205   5.454   2.493  0.3819  0.4768  0.3911
 2213TIP3    H128274   0.242   5.542   2.481  3.4497 -0.5352  1.3755
 2213TIP3    H228275   0.185   5.424   2.405 -0.3622  1.9808  0.0070
 2214TIP3   OH228276   4.911   4.453   6.731 -0.1081 -0.2009 -0.3168
 2214TIP3    H128277   4.839   4.423   6.787 -0.8656  1.9236 -0.0421
 2214TIP3    H228278   4.884   4.541   6.703  0.4529 -0.9699 -3.6875
 2215TIP3   OH228279   5.646   1.828   7.818 -0.4058  0.0001 -0.4290
 2215TIP3    H128280   5.652   1.749   7.872  0.1574 -0.7270 -1.5295
 2215TIP3    H228281   5.601   1.892   7.874  1.6243 -0.1737  1.5149
 2216TIP3   OH228282   3.722   3.124   6.819 -0.2329 -0.3888 -0.1213
 2216TIP3    H128283   3.644   3.126   6.874  1.0874 -0.7210  1.8449
 2216TIP3    H228284   3.705   3.054   6.756 -1.1502 -1.0675  0.8556
 2217TIP3   OH228285   1.187   6.827   1.177  0.2263  0.0236  0.2494
 2217TIP3    H128286   1.258   6.872   1.131 -0.8562  1.4058 -0.1531
 2217TIP3    H228287   1.173   6.880   1.256 -1.4473  0.7699 -0.5028
 2218TIP3   OH228288   1.743   2.643   2.172 -0.2287  0.2211 -0.2928
 2218TIP3    H128289   1.714   2.722   2.218  0.9016  0.5559 -0.1333
 2218TIP3    H228290   1.681   2.634   2.099 -0.6767  0.9624 -0.0222
 2219TIP3   OH228291   5.648   0.584   8.187  0.2193  0.1410  0.0699
 2219TIP3    H128292   5.673   0.608   8.276 -0.5420 -0.2544  0.3979
 2219TIP3    H228293   5.555   0.604   8.182  0.0543 -0.6729 -0.3417
 2220TIP3   OH228294   1.196   0.583   7.297 -0.3567  0.6509  0.0314
 2220TIP3    H128295   1.247   0.573   7.377 -0.7966  0.2172  0.2581
 2220TIP3    H228296   1.226   0.511   7.241  0.3282  1.2581 -0.4065
 2221TIP3   OH228297   4.045   4.380   1.792 -0.2600 -0.4564 -0.7999
 2221TIP3    H128298   4.004   4.323   1.857 -1.2081  1.1531  0.0807
 2221TIP3    H228299   4.006   4.354   1.708  0.0660 -1.7363 -0.5724
 2222TIP3   OH228300   3.130   0.198   1.141  0.1504 -0.2539 -0.3062
 2222TIP3    H128301   3.063   0.131   1.156 -0.0859  0.1508  0.5400
 2222TIP3    H228302   3.207   0.167   1.189  0.3021 -0.3240 -0.5972
 2223TIP3   OH228303   2.523   6.368   1.763 -0.4311 -0.2720  0.1128
 2223TIP3    H128304   2.510   6.408   1.849  1.6137  0.3936  0.1810
 2223TIP3    H228305   2.612   6.332   1.768 -0.9326 -1.7709 -1.1522
 2224TIP3   OH228306   3.155   4.574   8.413 -0.2950 -0.1479 -0.6323
 2224TIP3    H128307   3.175   4.613   8.328  1.0775 -0.5116 -0.4980
 2224TIP3    H228308   3.107   4.494   8.392 -1.2199  0.4863 -0.9952
 2225TIP3   OH228309   3.613   3.839   2.309 -0.1216  0.0769  0.2506
 2225TIP3    H128310   3.619   3.744   2.319 -2.6734 -0.3590 -1.4921
 2225TIP3    H228311   3.538   3.864   2.362 -2.3237  0.3460 -2.7395
 2226TIP3   OH228312   5.273   5.192   0.641 -0.1890  0.5030  0.4322
 2226TIP3    H128313   5.199   5.200   0.581 -0.1647  1.4147  0.5014
 2226TIP3    H228314   5.237   5.153   0.720 -0.3072 -0.3151 -0.0148
 2227TIP3   OH228315   0.427   0.822   6.844 -0.1934  0.2253  0.1600
 2227TIP3    H128316   0.433   0.734   6.879  1.6069 -0.0998 -0.8535
 2227TIP3    H228317   0.394   0.810   6.755 -2.1200  0.8080  0.7447
 2228TIP3   OH228318   6.560   4.117   7.329 -0.1843  0.8345  0.2759
 2228TIP3    H128319   6.476   4.088   7.364  0.4549  1.0379  2.0443
 2228TIP3    H228320   6.547   4.209   7.307  0.1065  1.4197  2.4191
 2229TIP3   OH228321   5.898   5.655   2.252  0.7004  0.1828  0.1740
 2229TIP3    H128322   5.902   5.716   2.178  1.5456  0.5844  0.5316
 2229TIP3    H228323   5.974   5.598   2.240 -1.5625 -2.7086 -1.7122
 2230TIP3   OH228324   0.216   6.931   7.063  0.0138 -0.2709 -0.4191
 2230TIP3    H128325   0.123   6.944   7.047 -0.4070 -2.4395  0.0105
 2230TIP3    H228326   0.232   6.973   7.148 -0.1369  1.5915 -1.2462
 2231TIP3   OH228327   5.142   6.654   7.562  0.6589 -0.0042  0.0864
 2231TIP3    H128328   5.187   6.585   7.610 -0.5789 -0.1806  1.0395
 2231TIP3    H228329   5.101   6.609   7.488 -1.6293 -0.6777  1.6691
 2232TIP3   OH228330   2.183   1.368   0.716  0.2274  0.3812 -0.9969
 2232TIP3    H128331   2.240   1.445   0.721  0.2874  0.2902 -0.2074
 2232TIP3    H228332   2.186   1.330   0.804 -1.6285  0.7773 -0.7330
 2233TIP3   OH228333   0.967   1.340   7.027 -0.0551 -0.4063 -0.6160
 2233TIP3    H128334   1.054   1.374   7.048 -0.2275 -0.1374 -0.3255
 2233TIP3    H228335   0.909   1.416   7.035 -0.1671 -0.3362 -1.8477
 2234TIP3   OH228336   4.743   2.616   8.019 -0.0833 -0.1048  0.0993
 2234TIP3    H128337   4.735   2.532   8.066  0.5368 -0.3033 -0.1282
 2234TIP3    H228338   4.814   2.661   8.065  0.3996 -0.2189 -0.5152
 2235TIP3   OH228339   1.694   2.572   7.778 -0.6521 -0.3691  0.3339
 2235TIP3    H128340   1.762   2.599   7.716 -1.0390 -0.3366 -0.0823
 2235TIP3    H228341   1.628   2.529   7.724 -1.4095  0.4424  0.5962
 2236TIP3   OH228342   5.086   1.590   6.886 -0.1277 -0.1337 -0.0960
 2236TIP3    H128343   5.051   1.519   6.833  1.5479 -1.0476 -0.0511
 2236TIP3    H228344   5.082   1.558   6.976 -0.1680  0.1931  0.0228
 2237TIP3   OH228345   1.382   3.418   8.306  0.0301  0.2089 -0.1920
 2237TIP3    H128346   1.325   3.463   8.244 -1.0247 -1.4953 -0.5059
 2237TIP3    H228347   1.435   3.360   8.252 -2.4764 -3.0140  0.5443
 2238TIP3   OH228348   4.068   2.256   8.196  0.1254 -0.2123  0.0133
 2238TIP3    H128349   4.139   2.303   8.152  0.8813 -0.4717  0.9209
 2238TIP3    H228350   4.107   2.224   8.277 -0.6194 -1.6399 -0.1575
 2239TIP3   OH228351   1.388   5.431   1.237  0.0196  0.4338 -0.0234
 2239TIP3    H128352   1.334   5.398   1.165 -0.3269  0.7578  0.0851
 2239TIP3    H228353   1.462   5.474   1.193  0.7388 -0.8808 -0.1663
 2240TIP3   OH228354   0.606   6.778   1.233  0.1749 -0.5432 -0.2598
 2240TIP3    H128355   0.541   6.716   1.266  2.0080 -0.7957  3.2587
 2240TIP3    H228356   0.639   6.737   1.153 -2.5681 -1.2711 -1.1426
 2241TIP3   OH228357   3.295   6.559   2.048 -0.0893 -0.1397  0.6824
 2241TIP3    H128358   3.258   6.574   2.135 -0.5346 -2.4513  0.9611
 2241TIP3    H228359   3.324   6.467   2.049  1.5830  0.3004 -1.0224
 2242TIP3   OH228360   6.348   4.823   0.439 -0.2788  0.1766  0.3099
 2242TIP3    H128361   6.280   4.807   0.505 -1.7223 -0.6262 -1.2818
 2242TIP3    H228362   6.430   4.801   0.483 -1.2860 -1.5376  1.4703
 2243TIP3   OH228363   1.400   4.268   1.283 -0.2475 -0.6532  0.3031
 2243TIP3    H128364   1.380   4.317   1.204  2.4759 -0.9036 -0.6661
 2243TIP3    H228365   1.403   4.177   1.254  0.7798 -0.7442  0.6352
 2244TIP3   OH228366   2.579   5.131   1.313  0.1332 -0.7458 -0.3661
 2244TIP3    H128367   2.566   5.161   1.403  0.0784 -0.0079 -0.6114
 2244TIP3    H228368   2.674   5.124   1.303  0.1164 -1.6786  0.0095
 2245TIP3   OH228369   0.699   1.259   8.315  0.4430  0.7519  0.7375
 2245TIP3    H128370   0.757   1.305   8.255  0.8277 -1.6024 -0.8234
 2245TIP3    H228371   0.630   1.224   8.259  0.1623 -0.5301  1.8448
 2246TIP3   OH228372   2.034   1.627   0.848  0.6683 -0.0955 -0.3380
 2246TIP3    H128373   2.024   1.544   0.894 -1.3871  0.2735 -0.0162
 2246TIP3    H228374   2.060   1.689   0.916  0.8633 -0.1961 -0.3195
 2247TIP3   OH228375   4.411   6.782   8.276  0.4395 -0.1835 -0.4697
 2247TIP3    H128376   4.403   6.871   8.243  1.0869  0.0121 -0.1233
 2247TIP3    H228377   4.467   6.791   8.354 -1.9849 -0.4293  1.4253
 2248TIP3   OH228378   3.419   4.847   1.590  0.0080 -0.7493  0.5396
 2248TIP3    H128379   3.491   4.787   1.608 -0.0061 -0.4865  1.5209
 2248TIP3    H228380   3.450   4.933   1.618 -0.9558 -0.7608  1.7258
 2249TIP3   OH228381   6.985   2.543   7.690 -0.5016  0.0747  0.1083
 2249TIP3    H128382   7.022   2.535   7.778 -1.7785  3.0316  1.0462
 2249TIP3    H228383   6.913   2.480   7.688 -0.3835 -0.1126  1.1419
 2250TIP3   OH228384   0.323   1.895   0.622  0.4680  0.2531 -0.0811
 2250TIP3    H128385   0.316   1.818   0.565  2.9679 -0.3906  0.3419
 2250TIP3    H228386   0.407   1.933   0.599  0.5484  1.2356  1.6767
 2251TIP3   OH228387   2.752   5.741   1.965  0.0740  0.3212 -0.0918
 2251TIP3    H128388   2.839   5.705   1.985 -0.8609 -1.5966  0.7493
 2251TIP3    H228389   2.714   5.761   2.051 -0.6358  0.3579 -0.4082
 2252TIP3   OH228390   1.417   0.942   0.811  0.2684  0.2450 -0.3203
 2252TIP3    H128391   1.510   0.923   0.823  0.2933  1.2422  1.3968
 2252TIP3    H228392   1.400   0.920   0.719  1.3499 -3.2299  0.1646
 2253TIP3   OH228393   4.400   6.988   7.413 -0.1754  0.3023  0.2139
 2253TIP3    H128394   4.382   6.918   7.475 -0.3486 -0.7484 -0.9782
 2253TIP3    H228395   4.467   6.951   7.355 -1.3332  0.5384 -1.3417
 2254TIP3   OH228396   6.566   4.701   0.872  0.0516  0.4156 -0.8666
 2254TIP3    H128397   6.617   4.686   0.951  0.3639  0.3220 -1.0815
 2254TIP3    H228398   6.591   4.630   0.813  0.5428  1.0092 -1.3996
 2255TIP3   OH228399   0.712   2.631   1.129 -0.1818  0.2368 -0.1909
 2255TIP3    H128400   0.739   2.638   1.038 -0.3305  1.9073 -0.1326
 2255TIP3    H228401   0.785   2.670   1.179  0.2901 -1.4255  0.5039
 2256TIP3   OH228402   3.400   1.177   1.404 -0.1870 -0.3493 -0.1878
 2256TIP3    H128403   3.403   1.271   1.420  1.2510 -0.1114 -1.6280
 2256TIP3    H228404   3.386   1.169   1.310  0.1457 -1.5786 -0.1474
 2257TIP3   OH228405   6.336   5.251   7.964 -0.2838  0.2340 -0.4018
 2257TIP3    H128406   6.337   5.205   8.048  1.8522 -0.7364 -0.8742
 2257TIP3    H228407   6.333   5.343   7.987  2.8882  0.1279  0.9417
 2258TIP3   OH228408   1.230   6.208   1.709  0.1136  0.4188  0.4139
 2258TIP3    H128409   1.288   6.132   1.704  1.5294  1.4771  0.0415
 2258TIP3    H228410   1.200   6.209   1.800  0.7101 -0.1410  0.6238
 2259TIP3   OH228411   5.406   1.711   0.871  0.1835 -0.4310  0.4508
 2259TIP3    H128412   5.429   1.761   0.949 -0.1675 -0.7283  0.7497
 2259TIP3    H228413   5.415   1.774   0.799  0.8978 -0.2641  0.6779
 2260TIP3   OH228414   5.853   3.129   6.117  0.2497  0.1282  0.4593
 2260TIP3    H128415   5.924   3.187   6.143  0.2669 -0.0820  0.8879
 2260TIP3    H228416   5.801   3.117   6.196 -0.1683  0.1466  0.1888
 2261TIP3   OH228417   5.203   1.594   1.098 -0.7492  0.4942  0.0827
 2261TIP3    H128418   5.180   1.673   1.146  1.1315  1.2825 -0.2409
 2261TIP3    H228419   5.165   1.606   1.011 -1.8609  0.2686  0.5177
 2262TIP3   OH228420   1.518   1.241   0.670 -0.5349 -0.2194  0.5272
 2262TIP3    H128421   1.512   1.324   0.717  0.0521 -0.8256  1.7068
 2262TIP3    H228422   1.530   1.175   0.738  0.0649 -1.1588 -0.4468
 2263TIP3   OH228423   5.817   2.359   8.199  0.0807  0.2616 -0.5386
 2263TIP3    H128424   5.802   2.435   8.254  2.7894  0.7890 -0.3955
 2263TIP3    H228425   5.797   2.284   8.254 -0.2564  0.8407  0.1275
 2264TIP3   OH228426   3.210   6.059   7.008 -0.5987 -0.1911  0.2834
 2264TIP3    H128427   3.257   6.107   6.940  2.1188 -1.4769  1.1438
 2264TIP3    H228428   3.128   6.108   7.019 -0.2280  1.2231 -2.4229
 2265TIP3   OH228429   4.970   6.600   6.687 -0.6702  0.0413 -0.0286
 2265TIP3    H128430   4.892   6.646   6.715 -0.4210  1.2742 -1.2797
 2265TIP3    H228431   4.940   6.511   6.669 -1.6542  0.3454  0.0538
 2266TIP3   OH228432   1.968   5.565   6.832 -0.8274 -0.1904  0.6215
 2266TIP3    H128433   2.010   5.555   6.918 -1.8959  0.5304  1.2496
 2266TIP3    H228434   1.908   5.490   6.827 -0.2941 -0.5909  0.2203
 2267TIP3   OH228435   3.604   3.271   8.376 -0.1362  0.3466  0.1597
 2267TIP3    H128436   3.621   3.181   8.405  1.9950  1.2976  2.1594
 2267TIP3    H228437   3.510   3.283   8.387 -0.3964 -1.5089  0.2100
 2268TIP3   OH228438   0.186   3.745   6.595 -0.6972  0.5954  0.3922
 2268TIP3    H128439   0.214   3.824   6.547 -0.2252  1.7636  2.4763
 2268TIP3    H228440   0.244   3.741   6.671 -0.1710 -2.2799 -0.0455
 2269TIP3   OH228441   4.126   6.630   7.506  0.0150 -0.2366  0.0555
 2269TIP3    H128442   4.078   6.703   7.468  0.3394  0.7287  1.3903
 2269TIP3    H228443   4.218   6.652   7.491  0.0943 -1.1012 -0.7909
 2270TIP3   OH228444   2.704   3.841   7.181 -0.7550 -0.2529  0.3730
 2270TIP3    H128445   2.623   3.798   7.208 -0.9600  0.1909  0.4679
 2270TIP3    H228446   2.769   3.770   7.179 -1.3469 -0.7998 -0.6080
 2271TIP3   OH228447   3.104   6.703   7.178 -0.2051  0.1265 -0.1967
 2271TIP3    H128448   3.157   6.742   7.108  0.3344 -0.7748 -0.2976
 2271TIP3    H228449   3.139   6.743   7.259  1.5179 -1.3754 -0.1370
 2272TIP3   OH228450   3.959   5.268   7.767 -0.6416 -0.0119  0.1710
 2272TIP3    H128451   4.047   5.267   7.805 -1.1393 -1.7676  1.4247
 2272TIP3    H228452   3.973   5.291   7.675  1.0908  0.0495  0.4123
 2273TIP3   OH228453   0.387   1.234   7.275  0.3792 -0.1830  0.1261
 2273TIP3    H128454   0.345   1.151   7.297  1.3561 -0.4500  1.0349
 2273TIP3    H228455   0.470   1.233   7.322  0.5824  1.1482 -0.1523
 2274TIP3   OH228456   0.918   3.981   0.265  0.4841  0.5405  0.1404
 2274TIP3    H128457   0.942   3.960   0.355 -2.6691 -0.5809  0.8460
 2274TIP3    H228458   0.838   4.034   0.273 -0.5769 -0.5842 -1.9571
 2275TIP3   OH228459   6.889   5.377   0.452 -0.4191 -0.5348 -0.3092
 2275TIP3    H128460   6.973   5.423   0.446 -0.7758  0.1302 -0.3614
 2275TIP3    H228461   6.912   5.287   0.474  0.3144 -0.3883 -0.4455
 2276TIP3   OH228462   5.994   4.634   7.066  0.6840 -0.0769 -0.4996
 2276TIP3    H128463   5.943   4.565   7.023 -0.5702  0.3390  0.2789
 2276TIP3    H228464   5.975   4.713   7.016 -1.0566  0.4813  0.9430
 2277TIP3   OH228465   6.672   1.821   7.008 -0.0453  0.0634 -0.0556
 2277TIP3    H128466   6.688   1.748   6.948 -0.9656 -0.2478  0.0685
 2277TIP3    H228467   6.700   1.788   7.093 -0.0824 -0.0032 -0.0692
 2278TIP3   OH228468   6.711   5.063   0.515 -0.2059  0.3861  0.3007
 2278TIP3    H128469   6.804   5.083   0.520 -0.6351  2.4698  1.2304
 2278TIP3    H228470   6.706   4.967   0.515  1.8977  0.2364  0.5869
 2279TIP3   OH228471   3.610   0.572   7.405  0.3137 -0.0709  0.0600
 2279TIP3    H128472   3.607   0.477   7.407 -0.9634 -0.0306  1.4827
 2279TIP3    H228473   3.579   0.600   7.492 -1.9440  1.6651 -1.1832
 2280TIP3   OH228474   2.737   0.665   0.252 -0.0714  0.4110  0.1296
 2280TIP3    H128475   2.800   0.652   0.322  1.2699 -0.3130 -1.1390
 2280TIP3    H228476   2.713   0.576   0.225  0.7139  0.6093 -1.3805
 2281TIP3   OH228477   5.664   5.617   8.058  0.5525 -0.2658  0.1441
 2281TIP3    H128478   5.726   5.615   7.985  0.5743 -1.0800  0.1729
 2281TIP3    H228479   5.666   5.528   8.093 -1.8070 -0.7672 -0.8428
 2282TIP3   OH228480   3.617   5.275   1.006 -0.5839 -0.1296  0.2410
 2282TIP3    H128481   3.601   5.331   0.930 -1.4475 -0.6116  0.0581
 2282TIP3    H228482   3.626   5.336   1.079  0.1539  0.3325 -0.2263
 2283TIP3   OH228483   3.652   2.894   6.685 -0.2931 -0.1752 -0.1332
 2283TIP3    H128484   3.575   2.841   6.708 -0.9870 -0.2535 -2.3680
 2283TIP3    H228485   3.618   2.959   6.623  1.6831 -1.2790 -2.5291
 2284TIP3   OH228486   6.093   3.080   1.864 -0.1320 -0.3846 -0.2232
 2284TIP3    H128487   6.006   3.079   1.904 -1.1089 -0.9141 -2.2636
 2284TIP3    H228488   6.098   2.999   1.813  0.2561  1.1282 -2.7362
 2285TIP3   OH228489   2.674   1.140   1.763  0.2991 -0.3198 -0.2856
 2285TIP3    H128490   2.723   1.071   1.807 -0.0723  0.3534  1.2590
 2285TIP3    H228491   2.633   1.097   1.688  0.0935 -1.7805  0.6246
 2286TIP3   OH228492   5.806   4.314   1.736  0.1851  0.2410 -0.6515
 2286TIP3    H128493   5.825   4.262   1.658 -2.8397 -1.0318 -0.6913
 2286TIP3    H228494   5.767   4.252   1.797 -1.0073  1.9263  0.3932
 2287TIP3   OH228495   4.187   3.434   7.062 -0.6855  0.4116 -0.4936
 2287TIP3    H128496   4.258   3.487   7.099 -0.6294 -0.5294  0.8096
 2287TIP3    H228497   4.175   3.469   6.973  2.9478 -0.8580 -1.6332
 2288TIP3   OH228498   0.500   1.275   0.584  0.0280 -0.3857 -0.5566
 2288TIP3    H128499   0.439   1.329   0.534  1.8953  0.5449 -1.9172
 2288TIP3    H228500   0.483   1.185   0.555 -0.1087 -0.0365 -1.5793
 2289TIP3   OH228501   0.454   6.120   8.051  0.1935  0.0099  0.2103
 2289TIP3    H128502   0.512   6.084   7.983 -1.0156  0.1973 -0.9525
 2289TIP3    H228503   0.499   6.199   8.081  0.4462  0.2902 -0.8461
 2290TIP3   OH228504   3.432   4.973   8.172 -0.3336  0.1005  0.6305
 2290TIP3    H128505   3.504   4.963   8.111  1.3067 -0.1506  2.5039
 2290TIP3    H228506   3.392   5.057   8.149  0.4137  0.1422 -0.5743
 2291TIP3   OH228507   6.029   1.809   0.455  0.2382  0.2715  0.3078
 2291TIP3    H128508   6.050   1.718   0.431 -0.5913 -0.0734  0.8270
 2291TIP3    H228509   6.030   1.809   0.551 -0.6127  0.6032  0.3190
 2292TIP3   OH228510   6.795   6.657   6.900  0.8242 -0.1396  0.3658
 2292TIP3    H128511   6.789   6.583   6.840  0.9753 -0.4623  0.7457
 2292TIP3    H228512   6.888   6.675   6.908  0.8720 -0.7318  1.2655
 2293TIP3   OH228513   6.016   1.674   7.079 -0.7288 -0.1583  1.3014
 2293TIP3    H128514   6.074   1.614   7.126 -2.0305 -3.1028 -0.5340
 2293TIP3    H228515   5.928   1.643   7.100 -1.6184  2.4063  1.7552
 2294TIP3   OH228516   2.151   1.551   7.416  0.6714  0.1588 -0.6619
 2294TIP3    H128517   2.167   1.600   7.497 -2.0599 -0.7680  0.5725
 2294TIP3    H228518   2.074   1.593   7.377 -0.7749 -2.0560 -0.3854
 2295TIP3   OH228519   0.725   2.900   6.939  0.0539  0.2478  0.0729
 2295TIP3    H128520   0.771   2.983   6.924  0.3315  0.3454  1.4103
 2295TIP3    H228521   0.633   2.922   6.923  0.3209  0.2761 -1.6700
 2296TIP3   OH228522   4.146   3.171   7.943 -0.2691 -0.2998 -0.3498
 2296TIP3    H128523   4.215   3.235   7.928 -2.0857  1.6914 -0.6469
 2296TIP3    H228524   4.151   3.153   8.037 -0.5108  1.2753 -0.0087
 2297TIP3   OH228525   4.765   0.269   8.166 -0.7785 -0.0641  0.0172
 2297TIP3    H128526   4.850   0.263   8.121 -0.2966  1.3725  0.6498
 2297TIP3    H228527   4.711   0.201   8.126  0.5667 -0.7746 -0.6459
 2298TIP3   OH228528   1.621   5.687   0.893  0.0385  0.3300  0.1152
 2298TIP3    H128529   1.576   5.622   0.839  0.1853 -1.1108  1.6387
 2298TIP3    H228530   1.709   5.651   0.906  0.0351  0.6919  1.2109
 2299TIP3   OH228531   0.904   5.105   0.034 -0.3471 -0.7191 -0.2427
 2299TIP3    H128532   0.811   5.107   0.055 -0.4661  1.2053 -0.7922
 2299TIP3    H228533   0.911   5.151  -0.050  1.1508 -0.3683  0.0353
 2300TIP3   OH228534   2.797   0.665   6.286 -0.0916 -0.0624  0.7405
 2300TIP3    H128535   2.829   0.577   6.265  1.8706  0.9509 -0.8723
 2300TIP3    H228536   2.704   0.653   6.304 -0.3723 -2.1649 -1.5754
 2301TIP3   OH228537   0.628   5.113   6.228 -0.5873  0.0598  0.5876
 2301TIP3    H128538   0.552   5.164   6.255 -0.0201  0.5743  1.2637
 2301TIP3    H228539   0.597   5.022   6.227 -1.4657  0.3566 -0.1189
 2302TIP3   OH228540   5.419   1.402   1.723  0.2960 -0.0477  0.3808
 2302TIP3    H128541   5.469   1.475   1.760  0.0685  0.1624  0.2698
 2302TIP3    H228542   5.447   1.326   1.775  1.5328 -0.1349 -0.3630
 2303TIP3   OH228543   6.171   1.963   0.886  0.0518  0.2629 -0.5403
 2303TIP3    H128544   6.151   2.035   0.946  0.3531 -0.2564  0.2008
 2303TIP3    H228545   6.253   1.927   0.919 -0.3930 -0.7935 -0.5401
 2304TIP3   OH228546   5.606   4.027   7.417 -0.2454 -0.6618 -0.6229
 2304TIP3    H128547   5.611   4.116   7.383 -0.0008 -0.8621 -1.1198
 2304TIP3    H228548   5.656   4.029   7.499  0.9810 -0.6807 -1.3603
 2305TIP3   OH228549   1.690   5.973   6.738  0.7206 -0.1945  0.0806
 2305TIP3    H128550   1.773   5.974   6.692  0.4011 -0.5235 -0.5106
 2305TIP3    H228551   1.623   5.973   6.669  0.2473 -2.1337  0.4740
 2306TIP3   OH228552   3.280   4.608   0.283 -0.4624  0.7441 -0.3147
 2306TIP3    H128553   3.333   4.621   0.361 -0.3479 -1.1223 -0.0418
 2306TIP3    H228554   3.279   4.513   0.269 -1.2304  0.9548 -2.0585
 2307TIP3   OH228555   5.707   6.491   2.328  0.1040 -0.0555 -0.2114
 2307TIP3    H128556   5.755   6.409   2.312  0.4930 -0.3109  2.0093
 2307TIP3    H228557   5.772   6.551   2.364 -0.8370  0.1567  1.2125
 2308TIP3   OH228558   4.648   0.965   6.972  0.3241 -0.0540  0.4605
 2308TIP3    H128559   4.685   0.877   6.965 -1.4845 -1.0635  2.4706
 2308TIP3    H228560   4.597   0.976   6.891 -1.0403 -1.7003  1.0491
 2309TIP3   OH228561   2.708   1.128   8.245 -0.2096 -1.2578  0.1179
 2309TIP3    H128562   2.652   1.051   8.250  0.9993 -2.2229 -0.4650
 2309TIP3    H228563   2.771   1.107   8.176  0.0834  0.3103 -0.1228
 2310TIP3   OH228564   1.916   5.748   1.972 -0.1973  0.1791 -0.1975
 2310TIP3    H128565   1.930   5.760   1.878  1.2935 -0.5242 -0.0917
 2310TIP3    H228566   1.995   5.781   2.013  0.0800 -1.4079  0.6553
 2311TIP3   OH228567   2.598   2.757   0.739 -0.1560  0.4932 -0.0399
 2311TIP3    H128568   2.589   2.664   0.759  1.0832  0.2795 -0.4221
 2311TIP3    H228569   2.679   2.784   0.781  0.1184  1.1116 -0.9330
 2312TIP3   OH228570   2.110   4.089   1.670 -0.1346 -0.2355  0.1370
 2312TIP3    H128571   2.205   4.083   1.680 -0.2249 -0.2952  0.9790
 2312TIP3    H228572   2.075   4.046   1.747 -0.8493  0.1584  0.0388
 2313TIP3   OH228573   2.970   4.159   6.874 -0.4192 -0.1264 -0.4257
 2313TIP3    H128574   3.049   4.144   6.824  1.3123  3.8201  0.7306
 2313TIP3    H228575   2.907   4.195   6.811  0.5574  1.5860 -0.4607
 2314TIP3   OH228576   6.940   5.826   2.115  0.2626  0.0560  0.3502
 2314TIP3    H128577   6.956   5.918   2.132  2.0580 -0.0268 -0.7127
 2314TIP3    H228578   6.933   5.786   2.202 -3.8111  1.5878  0.9591
 2315TIP3   OH228579   6.509   5.009   2.003  0.1441  0.4176  0.2461
 2315TIP3    H128580   6.553   5.086   1.967  0.3270  0.1496 -0.1153
 2315TIP3    H228581   6.573   4.972   2.065 -0.5020  1.3716  1.5467
 2316TIP3   OH228582   0.759   4.690   0.766 -0.3617  0.1009  0.4516
 2316TIP3    H128583   0.782   4.602   0.737 -2.5684 -0.9763  1.7600
 2316TIP3    H228584   0.792   4.696   0.855 -1.5538 -0.0253  0.9275
 2317TIP3   OH228585   4.272   5.064   1.992  0.2007 -0.1654 -0.4697
 2317TIP3    H128586   4.310   5.147   2.023  0.9580 -0.2042 -1.2616
 2317TIP3    H228587   4.249   5.017   2.073 -0.9419  1.1131 -0.0132
 2318TIP3   OH228588   6.688   6.909   1.135 -0.0208  0.5595 -0.0013
 2318TIP3    H128589   6.694   6.895   1.040  1.4020  1.2775 -0.0297
 2318TIP3    H228590   6.642   6.992   1.144 -1.5783 -0.2522  0.0108
 2319TIP3   OH228591   4.432   2.570   1.924 -0.3337  0.1074 -0.2855
 2319TIP3    H128592   4.517   2.530   1.942 -0.3623  0.3669  0.4816
 2319TIP3    H228593   4.370   2.520   1.976 -0.0951  2.3532  2.4221
 2320TIP3   OH228594   4.127   3.100   6.969 -0.5694 -0.3756 -0.0878
 2320TIP3    H128595   4.207   3.136   6.930  0.0912 -0.9985  0.6538
 2320TIP3    H228596   4.056   3.142   6.922  0.1978  0.5967 -0.3985
 2321TIP3   OH228597   5.323   3.096   7.085  0.1780  0.3261 -0.5774
 2321TIP3    H128598   5.259   3.033   7.052  0.5566 -0.4657  0.1581
 2321TIP3    H228599   5.400   3.044   7.106  0.9835  1.2287 -1.1864
 2322TIP3   OH228600   5.655   2.358   7.715  0.0799  0.4710 -0.5352
 2322TIP3    H128601   5.589   2.399   7.660  0.0562  0.2575 -0.6653
 2322TIP3    H228602   5.704   2.432   7.752 -0.6068  0.6504  0.0316
 2323TIP3   OH228603   1.717   1.997   1.333  0.0577 -0.4033  0.2766
 2323TIP3    H128604   1.634   2.044   1.319  0.5642  0.4206 -0.0412
 2323TIP3    H228605   1.720   1.982   1.427 -0.5384 -0.6048  0.2710
 2324TIP3   OH228606   2.069   2.142   1.716 -0.1613 -0.1992 -0.7065
 2324TIP3    H128607   2.093   2.195   1.792  0.7576 -0.4553 -0.8089
 2324TIP3    H228608   2.089   2.053   1.742  1.4059 -0.1701 -1.7041
 2325TIP3   OH228609   2.885   6.792   7.018 -0.1281 -0.4116  0.0539
 2325TIP3    H128610   2.945   6.755   7.083  1.8570 -0.2023 -1.5784
 2325TIP3    H228611   2.890   6.887   7.032 -2.6057 -0.4569  1.9796
 2326TIP3   OH228612   2.367   2.677   6.934 -0.1501 -0.2288 -0.0673
 2326TIP3    H128613   2.336   2.725   6.857 -1.5057  1.7369  1.5599
 2326TIP3    H228614   2.459   2.702   6.943  0.8641 -2.6431 -2.4868
 2327TIP3   OH228615   6.191   0.051   7.450 -0.2397 -0.0249 -1.0106
 2327TIP3    H128616   6.287   0.049   7.443 -0.0428  2.8940 -0.1139
 2327TIP3    H228617   6.167  -0.041   7.464  2.6264 -0.5911  1.1460
 2328TIP3   OH228618   5.435   1.919   1.059  0.2295 -0.2660 -0.1838
 2328TIP3    H128619   5.342   1.939   1.068  0.2367  0.9154 -2.1032
 2328TIP3    H228620   5.463   1.893   1.147 -1.8134 -0.2702  0.5079
 2329TIP3   OH228621   1.011   0.032   0.204  0.1215 -0.1437  0.0630
 2329TIP3    H128622   1.072  -0.015   0.260 -0.0189  0.5100  0.7748
 2329TIP3    H228623   1.050   0.119   0.193 -0.9033  0.4460  0.9158
 2330TIP3   OH228624   0.743   6.531   1.304  0.4115  0.5939 -0.9805
 2330TIP3    H128625   0.836   6.530   1.280  1.6457 -1.9509  2.9358
 2330TIP3    H228626   0.730   6.616   1.345  1.1236  0.8314 -1.2350
 2331TIP3   OH228627   6.255   1.906   0.071  0.5430  0.1060 -0.8966
 2331TIP3    H128628   6.273   1.814   0.090 -0.7531 -0.3423 -1.7083
 2331TIP3    H228629   6.199   1.935   0.143 -0.6262 -0.3058 -1.6137
 2332TIP3   OH228630   1.370   6.336   8.474 -0.4093 -0.2159 -0.3637
 2332TIP3    H128631   1.293   6.289   8.506  0.4534 -1.1015  0.4635
 2332TIP3    H228632   1.363   6.423   8.514  0.9513 -1.4490  2.8959
 2333TIP3   OH228633   1.609   3.959   7.189  0.2691 -0.3204  0.0326
 2333TIP3    H128634   1.619   4.037   7.136 -1.7663  0.1628  0.2954
 2333TIP3    H228635   1.616   3.886   7.127  1.5905  0.0536 -0.2948
 2334TIP3   OH228636   6.554   3.703   2.205 -0.1568 -0.0046 -0.3032
 2334TIP3    H128637   6.632   3.730   2.156  0.0705 -0.3996 -0.1639
 2334TIP3    H228638   6.509   3.785   2.225  0.0880  0.2085 -0.6080
 2335TIP3   OH228639   2.642   2.701   7.682  0.4123 -0.5961 -0.1044
 2335TIP3    H128640   2.652   2.735   7.593  0.5751  0.0620  0.1620
 2335TIP3    H228641   2.679   2.613   7.678  1.4939 -0.1479 -0.4137
 2336TIP3   OH228642   2.207   0.642   1.465  0.2783  0.2133 -0.1380
 2336TIP3    H128643   2.116   0.625   1.490  0.9227 -2.5762  0.7135
 2336TIP3    H228644   2.258   0.589   1.526  2.3360 -0.5282 -2.3545
 2337TIP3   OH228645   0.534   0.759   7.891  0.2481 -0.2454  0.4987
 2337TIP3    H128646   0.516   0.835   7.836  1.6569 -0.2003  0.0508
 2337TIP3    H228647   0.453   0.709   7.891 -0.7491  1.3218  0.9319
 2338TIP3   OH228648   0.196   2.564   6.579 -0.3651  0.4717  0.2059
 2338TIP3    H128649   0.189   2.468   6.584  0.5570  0.4481  1.6785
 2338TIP3    H228650   0.169   2.594   6.665  0.2059  1.4819  0.0405
 2339TIP3   OH228651   5.886   3.680   0.097  0.5887 -0.1387  0.9679
 2339TIP3    H128652   5.884   3.765   0.142  0.4107  0.6205 -0.4237
 2339TIP3    H228653   5.970   3.679   0.051 -0.4230  0.3906 -1.0113
 2340TIP3   OH228654   3.061   2.457   6.420  0.3869 -0.4383 -0.1663
 2340TIP3    H128655   3.083   2.364   6.428  0.5255 -0.3168  1.0991
 2340TIP3    H228656   2.968   2.461   6.443 -0.1373 -0.4936 -2.1004
 2341TIP3   OH228657   5.819   3.354   6.501 -0.0504 -0.4313  0.0233
 2341TIP3    H128658   5.803   3.444   6.529  3.0025 -0.2348  1.4692
 2341TIP3    H228659   5.780   3.349   6.414 -1.6590  1.7712  0.5274
 2342TIP3   OH228660   3.169   6.019   7.384 -0.6763  0.1414 -0.5628
 2342TIP3    H128661   3.236   6.046   7.321 -0.6229  0.6184 -0.3127
 2342TIP3    H228662   3.217   6.007   7.466 -0.4532 -2.2130 -0.9932
 2343TIP3   OH228663   4.022   3.065   7.629  0.0798  0.1961  0.0313
 2343TIP3    H128664   3.972   3.103   7.556 -1.8661  1.4611  1.8901
 2343TIP3    H228665   4.009   2.971   7.621 -1.1954  0.3998 -0.5562
 2344TIP3   OH228666   2.497   2.480   7.313 -0.4282  0.0555  0.8220
 2344TIP3    H128667   2.514   2.574   7.305  1.3269 -0.2112  1.0290
 2344TIP3    H228668   2.492   2.449   7.222 -2.6328  0.5664  0.7133
 2345TIP3   OH228669   1.406   4.359   6.069  0.0189  0.0580  0.1586
 2345TIP3    H128670   1.326   4.362   6.122  0.0289  0.8978  0.1462
 2345TIP3    H228671   1.393   4.427   6.003  0.1105 -0.8070 -0.7815
 2346TIP3   OH228672   2.147   4.552   0.855 -0.6712 -0.1236 -0.1129
 2346TIP3    H128673   2.233   4.537   0.817  0.2988 -0.2564  2.0311
 2346TIP3    H228674   2.120   4.466   0.889 -1.2356  0.1152  0.0608
 2347TIP3   OH228675   0.489   1.459   0.184  0.2209 -0.7092  0.4304
 2347TIP3    H128676   0.543   1.459   0.263 -0.6342  0.9925  1.0626
 2347TIP3    H228677   0.422   1.526   0.200  0.8062  0.6790 -2.2373
 2348TIP3   OH228678   6.938   1.588   0.114 -0.0572  0.3156 -0.1447
 2348TIP3    H128679   6.935   1.552   0.026 -0.8909 -1.3353  0.5108
 2348TIP3    H228680   6.999   1.662   0.108  1.4844 -1.0000 -1.6503
 2349TIP3   OH228681   2.189   3.276   0.767  0.5046  0.4801  0.2767
 2349TIP3    H128682   2.198   3.371   0.779  1.5487  0.3742  0.4099
 2349TIP3    H228683   2.122   3.267   0.699 -1.5292  1.2283  2.0408
 2350TIP3   OH228684   5.946   4.864   6.928  0.0989  0.0354  0.0409
 2350TIP3    H128685   5.936   4.890   6.837  0.6485 -0.5743 -0.1982
 2350TIP3    H228686   5.938   4.945   6.977  0.6565  0.4879 -0.6086
 2351TIP3   OH228687   5.509   2.807   8.149 -0.3094  0.2017  0.2927
 2351TIP3    H128688   5.510   2.721   8.107 -0.1768  0.1146  0.4719
 2351TIP3    H228689   5.599   2.821   8.177 -0.1337  0.7987 -0.5348
 2352TIP3   OH228690   0.606   4.755   7.818 -0.2754  0.2301  0.2731
 2352TIP3    H128691   0.687   4.763   7.768  0.2120 -1.3413  0.7781
 2352TIP3    H228692   0.584   4.662   7.815 -0.3793  0.1254  2.7265
 2353TIP3   OH228693   6.484   6.878   7.080  0.5982 -0.5645  0.0263
 2353TIP3    H128694   6.545   6.804   7.080 -0.9880 -2.0386 -3.0184
 2353TIP3    H228695   6.531   6.948   7.035  0.9149 -0.8643 -0.1149
 2354TIP3   OH228696   1.164   0.617   0.668 -0.1753 -0.2026 -0.3792
 2354TIP3    H128697   1.214   0.699   0.673 -1.4078  0.5579 -0.1243
 2354TIP3    H228698   1.210   0.565   0.603  2.3454 -0.5127  1.4830
 2355TIP3   OH228699   0.999   5.997   2.208  0.3706  0.3024 -0.1025
 2355TIP3    H128700   1.006   6.092   2.219 -0.8910  0.2081  1.9803
 2355TIP3    H228701   0.970   5.965   2.294  0.6800 -1.9600 -0.7906
 2356TIP3   OH228702   1.997   1.659   7.825  0.0294 -0.0251 -0.1974
 2356TIP3    H128703   1.931   1.710   7.779  0.1210  1.7046  1.4348
 2356TIP3    H228704   1.958   1.572   7.835 -1.9582  0.8842  0.5477
 2357TIP3   OH228705   4.263   2.674   8.390 -0.2387 -0.1011 -0.6387
 2357TIP3    H128706   4.345   2.625   8.390 -1.3703 -2.1440  0.4552
 2357TIP3    H228707   4.195   2.607   8.401 -2.2707  1.2502 -3.5788
 2358TIP3   OH228708   6.501   2.156   7.431  0.1371 -0.0972 -0.4054
 2358TIP3    H128709   6.492   2.065   7.459 -3.6392 -0.0140 -0.8303
 2358TIP3    H228710   6.522   2.204   7.511  0.3144 -1.1290  0.1844
 2359TIP3   OH228711   5.171   2.383   0.420 -0.5887  0.5684  0.0645
 2359TIP3    H128712   5.256   2.340   0.419 -0.7106  0.3370 -0.5066
 2359TIP3    H228713   5.107   2.312   0.411 -0.8031  0.8355 -0.5537
 2360TIP3   OH228714   0.439   4.402   6.540  0.0656  0.1889  0.1156
 2360TIP3    H128715   0.445   4.349   6.620 -0.4138  0.3451  0.2583
 2360TIP3    H228716   0.413   4.339   6.472  0.5742  0.0372  0.0592
 2361TIP3   OH228717   6.629   4.857   7.419  0.3907  0.2060 -0.2993
 2361TIP3    H128718   6.650   4.919   7.348  0.0450 -0.1071 -0.6754
 2361TIP3    H228719   6.584   4.911   7.484  0.6332  0.4793 -0.3524
 2362TIP3   OH228720   2.228   0.368   0.619 -0.0052  0.0556  0.6062
 2362TIP3    H128721   2.321   0.366   0.644 -0.1467 -0.2083  1.1171
 2362TIP3    H228722   2.196   0.280   0.641 -0.3161  0.0618  0.1883
 2363TIP3   OH228723   3.200   4.157   8.314 -0.1017 -0.1999 -0.8328
 2363TIP3    H128724   3.136   4.226   8.330  1.0775  1.1034 -1.5636
 2363TIP3    H228725   3.194   4.101   8.392 -1.9439 -0.0182 -0.7856
 2364TIP3   OH228726   6.392   5.688   6.860 -0.0044 -0.3024 -0.0528
 2364TIP3    H128727   6.458   5.720   6.922  0.1982 -1.7916  0.5381
 2364TIP3    H228728   6.423   5.716   6.774 -0.9595  2.9769  0.5389
 2365TIP3   OH228729   3.648   1.890   6.644 -0.2409  0.5612  0.2461
 2365TIP3    H128730   3.587   1.939   6.588 -1.1402  1.7956  2.1654
 2365TIP3    H228731   3.592   1.825   6.688 -0.1190  1.2986  1.5645
 2366TIP3   OH228732   1.292   5.904   2.157 -0.1128  0.4321  0.1839
 2366TIP3    H128733   1.202   5.938   2.167 -0.1123  0.5840 -0.2799
 2366TIP3    H228734   1.304   5.846   2.231 -0.6136  0.3808  0.2298
 2367TIP3   OH228735   0.580   1.990   0.546  0.2852  0.0449 -0.2502
 2367TIP3    H128736   0.629   2.036   0.477  0.3725 -0.0705 -0.2659
 2367TIP3    H228737   0.607   2.033   0.627  1.4247 -0.8730 -0.1196
 2368TIP3   OH228738   4.171   5.115   1.235 -0.1549  0.0371 -0.1794
 2368TIP3    H128739   4.172   5.134   1.329  0.1709 -0.5826 -0.0534
 2368TIP3    H228740   4.090   5.066   1.221 -0.4668  0.5861 -0.3179
 2369TIP3   OH228741   0.600   6.006   0.539 -0.1550 -0.4867  0.0195
 2369TIP3    H128742   0.693   5.990   0.524 -0.2435 -0.7650 -0.2722
 2369TIP3    H228743   0.576   6.072   0.475  0.4617  1.7570  1.9799
 2370TIP3   OH228744   5.186   1.682   0.337  0.0535  0.2760 -0.3370
 2370TIP3    H128745   5.152   1.681   0.247 -2.9218  3.5894  0.5061
 2370TIP3    H228746   5.270   1.728   0.330 -0.7993  1.7908 -1.3642
 2371TIP3   OH228747   5.222   6.653   6.634 -0.0072  0.5149  0.4755
 2371TIP3    H128748   5.132   6.624   6.647 -0.1831  0.6285 -0.4040
 2371TIP3    H228749   5.276   6.577   6.656 -0.1980  0.9554  2.7097
 2372TIP3   OH228750   6.801   1.061   8.263  0.1405 -0.2094  0.1122
 2372TIP3    H128751   6.706   1.078   8.267  0.0719 -0.4207 -0.5534
 2372TIP3    H228752   6.840   1.135   8.309 -0.3020  0.3305 -0.3666
 2373TIP3   OH228753   1.381   3.025   0.704  0.5544 -0.0262 -0.2142
 2373TIP3    H128754   1.470   3.044   0.676  2.2730  0.0679  4.4065
 2373TIP3    H228755   1.375   2.929   0.703  0.8672 -0.0467 -0.0749
 2374TIP3   OH228756   5.260   6.221   0.134  0.2976  0.1076 -0.2478
 2374TIP3    H128757   5.240   6.196   0.044  0.2690  0.2115 -0.2696
 2374TIP3    H228758   5.314   6.148   0.167  1.0921  0.4975 -0.6445
 2375TIP3   OH228759   1.680   4.490   8.451  0.0228  0.0172  0.6989
 2375TIP3    H128760   1.597   4.539   8.451 -1.3012 -2.1159  1.3147
 2375TIP3    H228761   1.655   4.400   8.469  2.5980 -0.5581  1.8153
 2376TIP3   OH228762   2.950   1.546   8.333  0.4714 -0.4775 -0.2064
 2376TIP3    H128763   2.950   1.601   8.254  2.2621 -0.5933 -0.3286
 2376TIP3    H228764   2.979   1.605   8.403 -1.5753 -0.2507  0.4910
 2377TIP3   OH228765   1.357   4.741   7.242 -0.3196  0.5341  0.4996
 2377TIP3    H128766   1.350   4.720   7.149 -1.1928 -0.5176  0.7930
 2377TIP3    H228767   1.431   4.689   7.273 -1.1671 -0.5485  0.7686
 2378TIP3   OH228768   5.126   1.988   1.043  0.0473  0.3613 -0.6879
 2378TIP3    H128769   5.043   1.974   0.997 -0.2494 -0.5912  0.1228
 2378TIP3    H228770   5.129   1.920   1.110  1.4693  0.4031 -0.6710
 2379TIP3   OH228771   4.639   2.918   8.461 -0.3142 -0.3210 -0.5846
 2379TIP3    H128772   4.633   2.915   8.556 -0.4922 -1.0380 -0.6106
 2379TIP3    H228773   4.578   2.987   8.435 -1.1076 -0.8832 -0.2446
 2380TIP3   OH228774   2.745   6.570   0.044  0.2593  0.4285 -0.0401
 2380TIP3    H128775   2.740   6.652  -0.005  2.0569  0.1260 -0.8069
 2380TIP3    H228776   2.791   6.592   0.125  1.4467  0.0540 -0.5950
 2381TIP3   OH228777   3.671   1.234   1.182 -0.6684 -0.1992  0.0166
 2381TIP3    H128778   3.576   1.240   1.174 -0.7963 -1.2394  0.6680
 2381TIP3    H228779   3.686   1.173   1.254  0.4935  0.0184 -0.0206
 2382TIP3   OH228780   0.208   2.644   1.490 -0.0807 -0.5087 -0.0903
 2382TIP3    H128781   0.283   2.700   1.509 -0.4637 -0.5500  1.7176
 2382TIP3    H228782   0.160   2.690   1.421  0.4712  0.5967  0.2425
 2383TIP3   OH228783   0.204   3.279   7.417  0.2000  0.3461  0.1716
 2383TIP3    H128784   0.129   3.296   7.360  0.3289 -1.7235 -0.7286
 2383TIP3    H228785   0.205   3.184   7.427  1.8265  0.4464  1.3858
 2384TIP3   OH228786   1.652   3.205   6.836  0.3805  0.1674 -0.2601
 2384TIP3    H128787   1.678   3.288   6.796 -1.2817  1.1017  0.4844
 2384TIP3    H228788   1.656   3.141   6.764  0.3112  1.1928 -1.2039
 2385TIP3   OH228789   3.086   3.273   7.161  0.5691 -0.0185 -0.1724
 2385TIP3    H128790   3.085   3.356   7.207  1.9500 -0.4474  0.6941
 2385TIP3    H228791   3.055   3.209   7.225 -1.3521 -0.0893 -1.0980
 2386TIP3   OH228792   5.273   4.624   1.194 -0.1165 -0.1214 -0.4200
 2386TIP3    H128793   5.337   4.558   1.168 -0.4455 -0.6981  0.2327
 2386TIP3    H228794   5.222   4.641   1.114  1.3067  0.9027 -1.1652
 2387TIP3   OH228795   4.572   4.507   2.228 -0.1946 -0.1719  0.3520
 2387TIP3    H128796   4.616   4.442   2.282  2.7369  1.7546  0.5102
 2387TIP3    H228797   4.541   4.573   2.290 -1.0244 -0.2397  0.0240
 2388TIP3   OH228798   5.923   0.031   2.333  0.7087  0.0024  0.7765
 2388TIP3    H128799   5.946   0.064   2.247  0.5416 -0.7557  0.4350
 2388TIP3    H228800   5.925   0.108   2.390  1.0710  0.4596  0.1502
 2389TIP3   OH228801   5.422   2.508   1.074 -0.3009  0.2728  0.0763
 2389TIP3    H128802   5.431   2.435   1.136 -2.8989  0.2929  0.5838
 2389TIP3    H228803   5.504   2.557   1.083  1.0698 -1.9679  0.5007
 2390TIP3   OH228804   2.935   6.324   0.143  0.0655  0.5898 -0.5395
 2390TIP3    H128805   2.902   6.334   0.232  0.0466  0.5700 -0.5443
 2390TIP3    H228806   2.969   6.411   0.120 -0.9175  0.8853 -0.9169
 2391TIP3   OH228807   6.292   4.841   1.533  0.0798  0.2532  0.1205
 2391TIP3    H128808   6.307   4.893   1.612  0.5472 -1.0696  0.9226
 2391TIP3    H228809   6.197   4.844   1.521  0.0467  0.8238  0.4732
 2392TIP3   OH228810   5.837   3.187   8.336 -0.3122  0.1647  0.0240
 2392TIP3    H128811   5.788   3.158   8.260 -0.6573  0.0874  0.2704
 2392TIP3    H228812   5.899   3.117   8.354 -0.8125 -0.2048  0.3276
 2393TIP3   OH228813   6.183   4.281   0.364 -0.2224 -0.1361 -0.2737
 2393TIP3    H128814   6.121   4.208   0.368  0.4360 -0.7190 -0.3746
 2393TIP3    H228815   6.196   4.296   0.270 -1.2441  0.9009 -0.2651
 2394TIP3   OH228816   5.920   0.913   1.070 -0.7089  0.4793  0.2434
 2394TIP3    H128817   5.899   0.999   1.107 -0.3145 -0.7456  3.6770
 2394TIP3    H228818   6.006   0.891   1.107 -1.0251 -1.5809 -0.1060
 2395TIP3   OH228819   4.869   5.596   1.546 -0.0696  0.5984  0.5142
 2395TIP3    H128820   4.777   5.620   1.550 -0.4210  0.1083 -2.4311
 2395TIP3    H228821   4.916   5.680   1.546 -0.1320  0.8791  5.0334
 2396TIP3   OH228822   3.207   6.435   7.416  0.2978  0.0655  0.1079
 2396TIP3    H128823   3.115   6.413   7.429 -0.9353  3.5879 -1.3498
 2396TIP3    H228824   3.253   6.386   7.484 -2.4750 -2.5194  0.3576
 2397TIP3   OH228825   4.609   6.808   6.484  0.2846  0.1042  0.1751
 2397TIP3    H128826   4.626   6.900   6.504  0.3462  0.6566 -2.1691
 2397TIP3    H228827   4.603   6.805   6.389  0.3372 -2.3457  0.1962
 2398TIP3   OH228828   2.573   3.356   8.257 -0.6164  0.2061  0.4177
 2398TIP3    H128829   2.539   3.337   8.170  0.2284  1.6212 -0.2522
 2398TIP3    H228830   2.511   3.417   8.296  0.4736  1.8783 -0.3603
 2399TIP3   OH228831   0.034   6.923   0.373  0.0991 -0.4150 -0.2217
 2399TIP3    H128832   0.086   6.994   0.336  0.1214  1.6759  3.3586
 2399TIP3    H228833  -0.055   6.958   0.379 -0.2570 -1.3136  0.0493
 2400TIP3   OH228834   6.866   4.901   7.945  0.5544  0.0075  0.0068
 2400TIP3    H128835   6.821   4.825   7.908  3.9342 -2.8761  1.2263
 2400TIP3    H228836   6.913   4.939   7.871 -1.0864  0.9416 -0.5980
 2401TIP3   OH228837   1.466   5.436   7.611  0.2651 -0.0138 -0.7981
 2401TIP3    H128838   1.381   5.422   7.570  0.8063 -0.8954 -1.6713
 2401TIP3    H228839   1.492   5.350   7.644  0.6252  0.3365 -0.1483
 2402TIP3   OH228840   3.708   0.398   7.074 -0.5772  0.0745  0.1867
 2402TIP3    H128841   3.772   0.398   7.003 -0.1648 -0.6726  0.5437
 2402TIP3    H228842   3.758   0.370   7.151 -1.9019 -3.4554 -0.0603
 2403TIP3   OH228843   1.902   0.758   1.244 -0.2423  0.0119 -0.5326
 2403TIP3    H128844   1.863   0.677   1.277 -2.4550  1.8239  1.6333
 2403TIP3    H228845   1.892   0.751   1.149 -0.0063 -2.3882 -0.4615
 2404TIP3   OH228846   1.362   3.049   0.999  0.2148  0.0712 -0.0466
 2404TIP3    H128847   1.304   3.118   1.032 -0.0602  0.1809 -0.7458
 2404TIP3    H228848   1.357   3.057   0.904  0.9689 -0.2628 -0.1196
 2405TIP3   OH228849   4.365   4.994   0.323 -0.1529 -0.4442  0.2454
 2405TIP3    H128850   4.409   4.975   0.406  0.8697  0.6248 -0.0156
 2405TIP3    H228851   4.291   4.934   0.321  0.3648 -1.1786  1.4732
 2406TIP3   OH228852   0.701   6.212   6.767  0.4626  0.2010 -0.2851
 2406TIP3    H128853   0.707   6.229   6.673  3.0325 -0.8266 -0.4080
 2406TIP3    H228854   0.751   6.282   6.808 -2.4669  1.9302  0.6049
 2407TIP3   OH228855   3.490   2.580   2.503 -0.3979  0.5002  0.3492
 2407TIP3    H128856   3.576   2.612   2.529 -0.8356  1.3589  0.7386
 2407TIP3    H228857   3.441   2.658   2.478 -1.3269  0.1012  0.8772
 2408TIP3   OH228858   6.995   0.811   6.679  0.7211 -0.5511  0.2204
 2408TIP3    H128859   6.931   0.843   6.616  1.5869 -0.1236 -0.4558
 2408TIP3    H228860   7.027   0.730   6.641  1.0667 -0.4198  0.2324
 2409TIP3   OH228861   2.465   2.972   7.792  0.3549 -0.4192 -0.1088
 2409TIP3    H128862   2.561   2.968   7.793  0.3397 -0.8282 -0.0010
 2409TIP3    H228863   2.438   2.912   7.861  0.0006 -0.9865 -0.7316
 2410TIP3   OH228864   4.443   1.599   0.428 -0.2845 -0.5021  0.4830
 2410TIP3    H128865   4.367   1.546   0.407 -1.4907  0.7191  1.5704
 2410TIP3    H228866   4.464   1.576   0.519  1.0085 -1.2197  0.0304
 2411TIP3   OH228867   2.769   2.819   2.235  1.3394 -0.2144 -0.3511
 2411TIP3    H128868   2.824   2.897   2.228  1.8520 -0.6182 -0.9553
 2411TIP3    H228869   2.681   2.850   2.215  1.3395  0.4260  0.5522
 2412TIP3   OH228870   5.026   0.635   7.572  0.2213  0.0605  0.1629
 2412TIP3    H128871   5.045   0.727   7.556  0.6458 -0.2274 -1.1910
 2412TIP3    H228872   5.113   0.594   7.579  0.0615 -0.3953 -0.3943
 2413TIP3   OH228873   2.680   3.874   0.457 -0.1353 -0.0795  0.1850
 2413TIP3    H128874   2.661   3.896   0.366 -1.0898  0.5439  0.5192
 2413TIP3    H228875   2.615   3.808   0.479  0.9948 -1.3021  0.0113
 2414TIP3   OH228876   5.463   5.849   1.847  0.0887  0.0728  0.3395
 2414TIP3    H128877   5.482   5.943   1.854 -2.2770  0.6380 -0.0648
 2414TIP3    H228878   5.407   5.841   1.770 -0.4631 -1.5499  0.8682
 2415TIP3   OH228879   0.106   5.472   0.259  0.0908 -0.2967  0.1442
 2415TIP3    H128880   0.142   5.536   0.320 -0.3588 -0.2645  0.3816
 2415TIP3    H228881   0.087   5.522   0.180 -2.5162  0.4303  1.1141
 2416TIP3   OH228882   3.682   4.161   0.232 -0.1661  0.0793 -0.0172
 2416TIP3    H128883   3.717   4.178   0.320  2.3185  1.7462 -1.1922
 2416TIP3    H228884   3.591   4.192   0.237  0.0838  0.6887  1.8029
 2417TIP3   OH228885   4.052   3.977   7.192 -0.3528 -0.1128  0.1860
 2417TIP3    H128886   3.976   3.993   7.248  0.7682 -1.2968  2.1673
 2417TIP3    H228887   4.041   3.886   7.162 -0.2122  0.0475 -0.3761
 2418TIP3   OH228888   6.977   4.779   1.756  0.0188  0.4030  0.1473
 2418TIP3    H128889   6.993   4.853   1.815 -1.3106  1.2297 -0.4961
 2418TIP3    H228890   7.064   4.755   1.724  0.5892  0.9301  1.2504
 2419TIP3   OH228891   2.957   3.928   6.295  0.2811 -0.6386  0.0931
 2419TIP3    H128892   2.930   3.978   6.372  0.4770 -3.2758  2.0077
 2419TIP3    H228893   2.877   3.888   6.262  0.6895 -2.5465  1.2949
 2420TIP3   OH228894   5.932   2.510   0.687  0.0671 -0.7882 -0.5066
 2420TIP3    H128895   5.893   2.575   0.629  0.6621  0.2216  0.2071
 2420TIP3    H228896   5.880   2.431   0.672 -1.2617  0.0956 -0.7090
 2421TIP3   OH228897   4.987   4.986   7.668 -0.4228  0.1549 -0.3495
 2421TIP3    H128898   4.894   4.974   7.647  0.0496  0.6971 -3.0682
 2421TIP3    H228899   4.992   5.076   7.700 -0.7494  0.3848 -0.9170
 2422TIP3   OH228900   4.428   2.762   7.537 -0.2938 -0.0370 -0.9935
 2422TIP3    H128901   4.418   2.856   7.554  0.7904  0.3044 -2.0685
 2422TIP3    H228902   4.374   2.719   7.603 -1.2740  1.3623 -0.8441
 2423TIP3   OH228903   5.039   0.291   1.356 -0.6535  0.4245 -0.6827
 2423TIP3    H128904   5.068   0.382   1.348 -0.7158  0.4035 -1.2030
 2423TIP3    H228905   5.062   0.251   1.272 -2.2528  0.4393 -1.1712
 2424TIP3   OH228906   5.909   4.597   8.381 -0.0787 -0.3426  0.2104
 2424TIP3    H128907   5.820   4.632   8.369  0.2478  0.6077  0.4649
 2424TIP3    H228908   5.966   4.670   8.359  0.6360 -0.7574  0.6559
 2425TIP3   OH228909   1.968   4.519   6.546 -0.0626  0.1035  0.1704
 2425TIP3    H128910   2.026   4.583   6.504 -1.2265  1.6683  0.8518
 2425TIP3    H228911   1.992   4.523   6.639 -1.4533  1.0367  0.5194
 2426TIP3   OH228912   3.689   2.107   0.744 -0.1067  0.5502 -0.0968
 2426TIP3    H128913   3.605   2.061   0.743 -0.7108  1.5977 -1.3304
 2426TIP3    H228914   3.672   2.186   0.796  0.0864  0.7772 -0.3694
 2427TIP3   OH228915   4.580   2.479   2.590 -0.2085  0.0298  0.1532
 2427TIP3    H128916   4.613   2.468   2.679  1.3555  0.1679 -0.3692
 2427TIP3    H228917   4.581   2.391   2.553  0.9173  0.1995 -0.2785
 2428TIP3   OH228918   3.004   4.331   8.296  0.1507  0.1641 -0.2780
 2428TIP3    H128919   2.998   4.365   8.207  1.6209  1.6294  0.1296
 2428TIP3    H228920   2.980   4.405   8.351 -0.0132 -0.5096  0.5692
 2429TIP3   OH228921   1.383   2.531   1.609 -0.3243 -0.2164 -0.0260
 2429TIP3    H128922   1.478   2.531   1.621 -0.2104 -0.6373 -0.8571
 2429TIP3    H228923   1.369   2.568   1.522 -0.9959  0.9115  0.5458
 2430TIP3   OH228924   2.785   0.128   7.704  0.5587  0.0170  0.1735
 2430TIP3    H128925   2.737   0.136   7.787  0.1373  1.4751 -0.1803
 2430TIP3    H228926   2.768   0.039   7.675 -1.7687  0.3985  0.1911
 2431TIP3   OH228927   5.301   0.318   7.424  0.1872 -0.1210 -0.2171
 2431TIP3    H128928   5.261   0.355   7.346  0.7626  1.8982  0.3807
 2431TIP3    H228929   5.240   0.250   7.453 -0.8194  0.2086 -1.4933
 2432TIP3   OH228930   6.621   2.238   1.910 -0.2218 -0.3585  0.4940
 2432TIP3    H128931   6.708   2.273   1.929 -1.1338  0.5769  3.4713
 2432TIP3    H228932   6.634   2.144   1.897  1.3537 -0.0386 -0.4533
 2433TIP3   OH228933   4.831   5.376   8.283 -0.0730 -0.7875  0.2181
 2433TIP3    H128934   4.785   5.372   8.367  0.5409 -0.1539  0.5980
 2433TIP3    H228935   4.893   5.449   8.294  0.6907 -1.3301 -0.4385
 2434TIP3   OH228936   2.685   0.985   0.794 -0.5085  0.2184  0.4000
 2434TIP3    H128937   2.590   0.993   0.781 -0.3738 -0.5818 -1.5182
 2434TIP3    H228938   2.696   0.896   0.827 -0.3085 -0.4997 -1.4941
 2435TIP3   OH228939   3.836   6.920   0.885 -0.5474  0.2644  0.4793
 2435TIP3    H128940   3.780   6.843   0.894  1.3255 -1.0018  2.4207
 2435TIP3    H228941   3.879   6.927   0.970  2.4595  0.9460 -0.9871
 2436TIP3   OH228942   0.680   4.080   7.025  0.2151  0.3234  0.4271
 2436TIP3    H128943   0.695   4.094   6.931  0.1687  2.1465  0.6587
 2436TIP3    H228944   0.716   3.993   7.042  0.7365  0.1955 -1.1709
 2437TIP3   OH228945   2.803   3.445   7.088  0.1651  0.3305 -0.1330
 2437TIP3    H128946   2.713   3.475   7.078  0.3322  0.6230 -0.8302
 2437TIP3    H228947   2.797   3.366   7.142 -0.3616  1.1860  1.1239
 2438TIP3   OH228948   6.362   5.222   0.819  0.5016 -0.3626 -0.4950
 2438TIP3    H128949   6.314   5.157   0.769  2.5486 -1.1608 -1.5403
 2438TIP3    H228950   6.436   5.246   0.763  1.5058  0.5525  1.1295
 2439TIP3   OH228951   2.369   2.237   8.291  0.1240  0.0931 -0.2201
 2439TIP3    H128952   2.405   2.318   8.327 -0.2799  1.2885 -2.2718
 2439TIP3    H228953   2.348   2.260   8.200 -2.5362 -1.5261 -0.1239
 2440TIP3   OH228954   0.363   5.697   2.412 -0.0953 -0.5288 -0.5564
 2440TIP3    H128955   0.385   5.743   2.331  2.0159  0.5429  0.5502
 2440TIP3    H228956   0.393   5.755   2.482 -0.1471 -2.2431  0.9632
 2441TIP3   OH228957   3.692   2.333   7.805  0.1456 -0.1222 -0.0503
 2441TIP3    H128958   3.617   2.274   7.796 -0.3327  0.7050 -1.8570
 2441TIP3    H228959   3.682   2.370   7.893 -1.5534 -0.0757 -0.2226
 2442TIP3   OH228960   0.073   4.463   0.988  0.4379  0.4704 -0.0646
 2442TIP3    H128961   0.044   4.398   0.924  1.2726 -1.3500  1.2873
 2442TIP3    H228962   0.135   4.518   0.941  0.5147 -0.3820 -0.9814
 2443TIP3   OH228963   4.494   1.933   2.127  0.2902 -0.3546 -0.1923
 2443TIP3    H128964   4.531   1.982   2.200 -0.6835 -1.1442  0.8710
 2443TIP3    H228965   4.492   1.842   2.157  1.3207 -0.9482 -1.8234
 2444TIP3   OH228966   5.462   0.953   7.465 -0.3199  0.3584 -0.0566
 2444TIP3    H128967   5.542   0.942   7.515  0.6146  1.4542 -1.2420
 2444TIP3    H228968   5.437   0.864   7.440 -0.2679 -0.1093  1.4848
 2445TIP3   OH228969   2.457   3.079   1.069 -0.3739 -0.0109  0.5152
 2445TIP3    H128970   2.531   3.059   1.127  1.4847  1.2819 -1.2638
 2445TIP3    H228971   2.473   3.026   0.991 -1.0177  0.7162 -0.1266
 2446TIP3   OH228972   5.309   6.089   0.727 -0.7754 -0.0902  0.0899
 2446TIP3    H128973   5.342   6.170   0.688 -0.4085 -0.1766  0.2173
 2446TIP3    H228974   5.257   6.118   0.802  1.4313 -0.0559  1.6799
 2447TIP3   OH228975   3.682   4.421   2.030 -0.2061 -0.2249  0.4255
 2447TIP3    H128976   3.677   4.445   2.122 -1.8626 -2.0254  0.8484
 2447TIP3    H228977   3.592   4.426   1.998  0.2933  0.0430 -1.0170
 2448TIP3   OH228978   5.243   5.858   0.883 -0.1796 -0.0346 -0.2377
 2448TIP3    H128979   5.272   5.923   0.819 -0.9543 -0.2139 -0.7932
 2448TIP3    H228980   5.321   5.839   0.934 -0.3249  2.7605  1.2380
 2449TIP3   OH228981   6.049   1.757   0.762 -0.6153 -0.5243  0.4073
 2449TIP3    H128982   6.104   1.805   0.824 -0.2581  0.3202 -0.5444
 2449TIP3    H228983   5.970   1.810   0.754 -0.5681 -0.5164 -0.0253
 2450TIP3   OH228984   5.438   1.088   0.737 -0.0641  0.2041  0.4833
 2450TIP3    H128985   5.485   1.117   0.815  1.8002  1.0579 -0.8958
 2450TIP3    H228986   5.498   1.027   0.693 -1.7684 -1.6285  0.5315
 2451TIP3   OH228987   1.823   0.479   8.295  0.2216  0.2704  0.4607
 2451TIP3    H128988   1.838   0.471   8.201  2.5968  2.2198  0.5724
 2451TIP3    H228989   1.900   0.526   8.328 -0.6233 -0.1719  3.3628
 2452TIP3   OH228990   1.399   4.944   1.151 -0.2503 -0.7383 -0.2531
 2452TIP3    H128991   1.450   5.025   1.141 -0.4721 -0.6817 -0.9685
 2452TIP3    H228992   1.388   4.912   1.061 -0.8554 -1.1353 -0.0398
 2453TIP3   OH228993   4.033   4.042   0.361 -0.1529 -0.1576 -0.3374
 2453TIP3    H128994   4.005   3.951   0.348 -1.8511  0.1103  1.0119
 2453TIP3    H228995   4.021   4.083   0.275 -1.5465 -0.7058 -0.4419
 2454TIP3   OH228996   6.890   0.591   1.054  0.0556 -0.0265  0.0626
 2454TIP3    H128997   6.964   0.638   1.014  0.1917  0.3591  0.7554
 2454TIP3    H228998   6.903   0.500   1.029 -0.7671  0.4055 -2.1917
 2455TIP3   OH228999   5.360   6.512   0.438  0.0013  0.3358  0.0175
 2455TIP3    H129000   5.281   6.501   0.386 -0.1719 -0.3747  0.4155
 2455TIP3    H229001   5.430   6.475   0.384 -0.5126 -2.6059  1.1653
 2456TIP3   OH229002   5.112   3.077   0.275  0.2013  0.3764  0.2532
 2456TIP3    H129003   5.064   2.995   0.261  0.6863  0.0044  0.7069
 2456TIP3    H229004   5.203   3.054   0.255  0.0435  1.4155 -1.9759
 2457TIP3   OH229005   0.188   0.373   1.757  0.5316  0.1269  0.3346
 2457TIP3    H129006   0.145   0.295   1.723  2.3114  0.0822 -2.0078
 2457TIP3    H229007   0.242   0.341   1.830  0.7561 -0.7188 -0.1995
 2458TIP3   OH229008   2.567   3.977   0.201 -0.1105  0.8450  0.0229
 2458TIP3    H129009   2.645   4.029   0.184  0.6457  0.5207  2.1492
 2458TIP3    H229010   2.494   4.038   0.188  0.3135  0.8481 -3.1673
 2459TIP3   OH229011   0.390   4.414   0.506  0.6855 -0.1319  0.0436
 2459TIP3    H129012   0.404   4.412   0.411 -0.4655  0.5618 -0.1574
 2459TIP3    H229013   0.295   4.406   0.516  0.9475 -3.2759  1.2591
 2460TIP3   OH229014   0.874   4.155   7.309  0.0868  0.7598 -0.4952
 2460TIP3    H129015   0.901   4.080   7.363 -0.1514 -0.7648 -2.3915
 2460TIP3    H229016   0.957   4.191   7.276  0.1519 -1.5249 -3.1808
 2461TIP3   OH229017   5.769   0.545   0.426  0.2480 -0.0205  0.2063
 2461TIP3    H129018   5.841   0.540   0.364 -0.1568 -1.4135 -0.1704
 2461TIP3    H229019   5.799   0.498   0.504  0.8214  1.8638  1.1893
 2462TIP3   OH229020   5.594   2.748   2.237  0.3002  0.4909 -0.6466
 2462TIP3    H129021   5.529   2.817   2.237  0.9375  1.2027  1.9981
 2462TIP3    H229022   5.677   2.793   2.221  0.3663 -0.2004 -2.4724
 2463TIP3   OH229023   0.131   3.944   7.655  0.0696 -0.2744 -0.0865
 2463TIP3    H129024   0.188   3.867   7.665  0.1687 -0.2676 -0.6109
 2463TIP3    H229025   0.176   4.014   7.703  0.1285 -0.4599  0.1333
 2464TIP3   OH229026   0.785   1.574   7.072 -0.0534  0.4954 -0.1565
 2464TIP3    H129027   0.823   1.647   7.123 -1.4097  0.4580  0.9829
 2464TIP3    H229028   0.691   1.580   7.089 -0.3580 -0.5836 -1.3289
 2465TIP3   OH229029   1.897   0.434   6.849 -0.8086 -0.2299  0.2713
 2465TIP3    H129030   1.921   0.341   6.843 -2.0662 -0.4960 -1.8019
 2465TIP3    H229031   1.915   0.458   6.940  1.3371 -1.9725  0.3796
 2466TIP3   OH229032   2.864   1.081   2.552  0.6648  0.4107  0.0964
 2466TIP3    H129033   2.896   1.028   2.479 -2.6659 -2.0854  0.2163
 2466TIP3    H229034   2.880   1.026   2.629 -1.7671 -0.0383  0.3599
 2467TIP3   OH229035   3.557   6.706   7.900 -1.0115  0.2911 -0.0329
 2467TIP3    H129036   3.614   6.777   7.870 -3.1770  1.5016 -1.5600
 2467TIP3    H229037   3.586   6.630   7.851  0.4249  0.4161  0.5700
 2468TIP3   OH229038   0.631   4.260   0.055  0.1852 -0.1257  0.1479
 2468TIP3    H129039   0.683   4.329   0.014 -1.2647  0.4012 -0.8643
 2468TIP3    H229040   0.660   4.179   0.012 -0.6829  0.3136 -1.3337
 2469TIP3   OH229041   5.451   6.595   1.071  0.5902  0.2189 -0.3162
 2469TIP3    H129042   5.437   6.516   1.121 -0.4495 -0.8567 -2.2006
 2469TIP3    H229043   5.511   6.647   1.124  1.2032 -1.7643  1.0235
 2470TIP3   OH229044   2.979   2.174   7.918  0.1949  0.0299 -0.1190
 2470TIP3    H129045   2.986   2.266   7.944 -0.4941  0.3784 -1.0762
 2470TIP3    H229046   2.885   2.155   7.924  0.0610 -0.0087 -1.7615
 2471TIP3   OH229047   6.622   1.289   7.042  0.1926  0.0979  0.2325
 2471TIP3    H129048   6.538   1.248   7.019  0.2106  0.1886  0.0011
 2471TIP3    H229049   6.598   1.371   7.084  0.0785 -1.3086  3.1255
 2472TIP3   OH229050   0.592   4.370   0.892  0.2853 -0.0681  0.5964
 2472TIP3    H129051   0.641   4.415   0.960  0.0981  0.5285  0.3422
 2472TIP3    H229052   0.535   4.437   0.854 -0.4528 -0.6539  0.6313
 2473TIP3   OH229053   5.836   5.334   0.131  0.1361  0.0455  0.4446
 2473TIP3    H129054   5.918   5.337   0.180 -0.1759 -0.2338  0.9954
 2473TIP3    H229055   5.770   5.364   0.194 -0.0300  1.4002 -0.3443
 2474TIP3   OH229056   5.898   2.220   0.950 -1.2137 -0.3170  0.2810
 2474TIP3    H129057   5.972   2.230   0.890 -1.3188 -1.7755 -0.1336
 2474TIP3    H229058   5.842   2.295   0.931 -0.7087 -0.1610 -0.6794
 2475TIP3   OH229059   1.826   5.531   0.971 -0.1352 -1.0211  0.0435
 2475TIP3    H129060   1.916   5.521   1.003  0.6536  0.8866 -1.3747
 2475TIP3    H229061   1.801   5.443   0.943  1.6010 -1.4499 -0.3038
 2476TIP3   OH229062   1.595   4.481   6.993  0.4217  0.0889  0.2546
 2476TIP3    H129063   1.508   4.482   7.033  0.9047  0.4041  1.3382
 2476TIP3    H229064   1.625   4.390   7.002  1.1576  0.4745  2.0749
 2477TIP3   OH229065   3.422   0.676   0.663 -0.4057  0.1283  0.0298
 2477TIP3    H129066   3.364   0.746   0.634  0.6538  0.6592 -0.9012
 2477TIP3    H229067   3.367   0.598   0.666 -0.7642  0.1470 -2.9316
 2478TIP3   OH229068   2.848   4.522   6.956 -0.0124  0.2060 -0.0041
 2478TIP3    H129069   2.797   4.523   6.875 -0.8527 -2.4365  0.3882
 2478TIP3    H229070   2.937   4.504   6.927 -0.5611 -2.3180 -0.3444
 2479TIP3   OH229071   6.879   5.664   1.643 -0.1047  0.3204 -0.0872
 2479TIP3    H129072   6.922   5.739   1.686  0.6661 -0.2701  0.1917
 2479TIP3    H229073   6.946   5.596   1.639 -0.8939 -0.4884 -0.0216
 2480TIP3   OH229074   5.942   6.796   1.186 -0.0187 -0.1125 -0.1152
 2480TIP3    H129075   5.927   6.715   1.235  0.8803 -0.1030  0.1879
 2480TIP3    H229076   5.965   6.768   1.098 -0.3667 -0.1601 -0.1942
 2481TIP3   OH229077   1.146   6.967   8.272 -0.5113 -0.4889 -0.3248
 2481TIP3    H129078   1.229   7.011   8.258  0.1059 -2.0835 -2.0556
 2481TIP3    H229079   1.083   7.018   8.222 -0.2556 -0.2543 -0.4086
 2482TIP3   OH229080   4.152   3.635   2.773  0.6214 -0.0450  0.5856
 2482TIP3    H129081   4.081   3.578   2.742  0.2658  0.6906  0.0033
 2482TIP3    H229082   4.115   3.723   2.771  1.4531  0.3189  0.5593
 2483TIP3   OH229083   6.700   2.056   6.441 -0.0808 -0.0891  0.2498
 2483TIP3    H129084   6.708   1.973   6.393  0.7693  0.3657 -0.4301
 2483TIP3    H229085   6.621   2.095   6.406  0.5452  0.2491 -0.8455
 2484TIP3   OH229086   4.718   2.781   1.083  0.1797  0.8114  0.6644
 2484TIP3    H129087   4.653   2.758   1.016  1.1035  1.0607 -0.3385
 2484TIP3    H229088   4.775   2.705   1.086  0.0110  0.7107  1.3447
 2485TIP3   OH229089   6.424   1.185   7.773 -0.3519 -0.1377 -0.2482
 2485TIP3    H129090   6.432   1.091   7.756 -0.2545 -0.2940  0.6343
 2485TIP3    H229091   6.362   1.191   7.845 -3.6304  0.7198 -2.8892
 2486TIP3   OH229092   4.208   1.598   1.305 -0.2795 -0.1144 -0.1430
 2486TIP3    H129093   4.259   1.517   1.312  0.4886  0.3146 -0.6162
 2486TIP3    H229094   4.145   1.593   1.377  0.2257 -0.7992  0.2670
 2487TIP3   OH229095   5.997   1.697   8.087 -0.0267  0.0046  0.0524
 2487TIP3    H129096   5.988   1.691   7.992  1.1817 -0.7288 -0.0322
 2487TIP3    H229097   6.019   1.789   8.103 -2.3603  0.6506 -0.1488
 2488TIP3   OH229098   0.318   5.434   2.098 -0.2877 -0.3246 -0.4005
 2488TIP3    H129099   0.349   5.498   2.035 -1.0942 -0.2028 -0.6809
 2488TIP3    H229100   0.398   5.403   2.142  0.0880  1.1695  0.0430
 2489TIP3   OH229101   1.308   5.684   1.804  0.1490  0.5979 -0.3425
 2489TIP3    H129102   1.268   5.611   1.851  0.0854  1.0766  0.3483
 2489TIP3    H229103   1.358   5.642   1.734  2.4121 -0.3411  1.6751
 2490TIP3   OH229104   3.193   3.958   2.751  0.1853 -0.2161 -0.5195
 2490TIP3    H129105   3.264   3.898   2.776  0.0930 -0.7097 -1.3739
 2490TIP3    H229106   3.189   4.022   2.821 -0.1025 -1.5564  0.7249
 2491TIP3   OH229107   4.196   6.290   1.980 -0.1070 -0.6855  0.4207
 2491TIP3    H129108   4.168   6.238   2.055 -0.8726 -1.2777 -0.2553
 2491TIP3    H229109   4.132   6.269   1.911  1.6264 -1.5757 -0.9799
 2492TIP3   OH229110   2.900   4.042   6.568 -0.2584 -0.1194 -0.4337
 2492TIP3    H129111   2.878   4.123   6.615 -0.0984 -0.6648  0.6256
 2492TIP3    H229112   2.996   4.039   6.569 -0.2742 -0.8657  0.5417
 2493TIP3   OH229113   5.257   2.239   0.996 -0.7948 -0.5011 -0.4308
 2493TIP3    H129114   5.210   2.163   1.029 -0.3515 -0.9806 -0.8873
 2493TIP3    H229115   5.263   2.298   1.071  0.4011 -1.6654  0.4356
 2494TIP3   OH229116   5.738   2.067   7.710  0.0663  0.1383 -0.1396
 2494TIP3    H129117   5.699   2.151   7.687 -1.0808 -0.3070  0.1029
 2494TIP3    H229118   5.664   2.014   7.742  0.6435 -1.1780 -0.9075
 2495TIP3   OH229119   3.338   0.866   0.494  0.7181 -0.0683 -0.4952
 2495TIP3    H129120   3.314   0.956   0.515  0.3692  0.5045 -3.0435
 2495TIP3    H229121   3.277   0.840   0.425  1.3042 -2.0000 -0.3532
 2496TIP3   OH229122   5.150   6.301   0.361 -0.1802 -0.4814 -0.9811
 2496TIP3    H129123   5.103   6.384   0.360 -0.4601 -0.5888  0.6046
 2496TIP3    H229124   5.173   6.285   0.269 -0.2996  1.2254 -1.3336
 2497TIP3   OH229125   6.305   3.521   0.638 -0.5508 -0.4944 -0.8952
 2497TIP3    H129126   6.324   3.524   0.544 -0.0675 -1.8201 -0.8703
 2497TIP3    H229127   6.270   3.433   0.652 -2.1439  0.2312 -0.0790
 2498TIP3   OH229128   5.915   3.006   7.120 -0.4880  0.1664 -0.0093
 2498TIP3    H129129   5.858   2.981   7.048 -0.5303 -0.8402  0.3464
 2498TIP3    H229130   5.899   3.099   7.133 -0.1619  0.4614 -1.5607
 2499TIP3   OH229131   4.708   4.614   0.316 -0.6503  0.4398 -0.6400
 2499TIP3    H129132   4.802   4.601   0.308 -0.6911  0.4897 -1.2498
 2499TIP3    H229133   4.693   4.623   0.410 -0.0655  0.3058 -0.5293
 2500TIP3   OH229134   6.351   3.739   6.954 -0.1787 -0.2648 -0.4821
 2500TIP3    H129135   6.302   3.658   6.964 -0.7148  0.1834  0.7192
 2500TIP3    H229136   6.440   3.717   6.982 -0.2494 -0.5138 -0.4551
 2501TIP3   OH229137   2.946   2.817   0.156 -0.4275  0.0454 -0.0450
 2501TIP3    H129138   2.919   2.884   0.219 -0.5383 -0.6551  0.6875
 2501TIP3    H229139   2.898   2.838   0.076 -0.2816  0.9614  0.1042
 2502TIP3   OH229140   6.076   4.585   6.045 -0.1943 -0.2895  0.8480
 2502TIP3    H129141   6.117   4.658   6.092 -0.2370 -0.5086  1.2292
 2502TIP3    H229142   6.005   4.625   5.995  1.0899  0.2645 -0.6222
 2503TIP3   OH229143   3.645   4.524   1.118 -0.0910  0.4647  0.4535
 2503TIP3    H129144   3.570   4.582   1.106 -0.6918 -0.4074 -0.1631
 2503TIP3    H229145   3.718   4.583   1.135 -0.4563  1.4872 -1.1928
 2504TIP3   OH229146   2.451   4.466   6.399 -0.0464 -0.1647  0.2570
 2504TIP3    H129147   2.512   4.458   6.326  2.1332 -1.6074  2.1082
 2504TIP3    H229148   2.496   4.426   6.473 -1.9787  1.5554  2.5306
 2505TIP3   OH229149   6.921   6.931   7.612 -0.3023 -0.4075  0.6667
 2505TIP3    H129150   6.914   7.027   7.612  0.4624 -0.3207 -0.4847
 2505TIP3    H229151   6.960   6.910   7.696  0.9892  0.4537  0.3257
 2506TIP3   OH229152   6.630   2.555   6.746 -0.3032 -0.2126  0.2701
 2506TIP3    H129153   6.586   2.527   6.826 -0.0923 -0.4904  0.2891
 2506TIP3    H229154   6.559   2.583   6.688 -0.4605 -0.0519  0.5371
 2507TIP3   OH229155   1.853   0.067   8.411 -0.1365 -0.2984  0.8826
 2507TIP3    H129156   1.800   0.032   8.482 -0.6794 -0.7857  0.2531
 2507TIP3    H229157   1.794   0.067   8.335  0.8441 -1.1320  0.0956
 2508TIP3   OH229158   6.917   2.383   0.136 -0.1116  0.1101  0.4586
 2508TIP3    H129159   6.900   2.477   0.141  0.0454  0.2294 -0.9283
 2508TIP3    H229160   6.984   2.367   0.203  1.5318  1.4205 -0.7855
 2509TIP3   OH229161   5.626   5.581   2.330  0.0152 -0.4267 -0.2165
 2509TIP3    H129162   5.690   5.651   2.315 -2.1317  2.6005  3.2099
 2509TIP3    H229163   5.675   5.514   2.378  0.9321  1.5200  1.7447
 2510TIP3   OH229164   1.440   1.367   6.131 -0.7624  0.2548  0.0598
 2510TIP3    H129165   1.446   1.276   6.101 -2.4552  0.5926 -1.4927
 2510TIP3    H229166   1.385   1.362   6.210  2.1841 -0.4170  2.2521
 2511TIP3   OH229167   1.655   6.735   0.267 -0.6004  0.3549  0.2135
 2511TIP3    H129168   1.723   6.668   0.274  0.3683  1.3782  0.9329
 2511TIP3    H229169   1.652   6.776   0.353 -2.0063  0.4740  0.1373
 2512TIP3   OH229170   3.955   4.124   7.814 -0.1438 -0.2317  0.2017
 2512TIP3    H129171   4.000   4.208   7.807 -0.5146 -0.1426 -1.6993
 2512TIP3    H229172   3.874   4.143   7.860 -0.2170  0.4609 -0.2012
 2513TIP3   OH229173   0.137   6.051   6.963  0.1077 -0.6639 -0.1964
 2513TIP3    H129174   0.138   5.962   6.927  0.4303 -1.0312  0.6848
 2513TIP3    H229175   0.164   6.040   7.054  1.3099  0.4763 -0.3853
 2514TIP3   OH229176   2.610   5.842   7.744  0.2815 -0.1468 -0.0802
 2514TIP3    H129177   2.582   5.767   7.796 -0.6865 -0.3890 -0.9108
 2514TIP3    H229178   2.538   5.857   7.683  1.3611  0.1270 -1.3374
 2515TIP3   OH229179   0.741   1.520   1.193 -0.6827 -0.3880  0.1983
 2515TIP3    H129180   0.722   1.449   1.255  1.4037 -0.7425  0.5043
 2515TIP3    H229181   0.827   1.498   1.158 -0.9860  0.8328 -1.4209
 2516TIP3   OH229182   4.176   6.307   0.757  0.0337  0.3311 -0.2744
 2516TIP3    H129183   4.154   6.351   0.839  0.0529 -2.0572  1.1116
 2516TIP3    H229184   4.271   6.297   0.760 -0.1713 -2.2158  0.8888
 2517TIP3   OH229185   5.132   1.057   8.134  0.1950  0.3218  0.6915
 2517TIP3    H129186   5.044   1.024   8.118  0.8706 -1.0478 -0.3704
 2517TIP3    H229187   5.122   1.152   8.137 -0.9748  0.3422 -1.7348
 2518TIP3   OH229188   1.527   6.666   7.421 -0.7158 -0.2603  1.0281
 2518TIP3    H129189   1.538   6.683   7.328 -0.7213  0.2269  1.1121
 2518TIP3    H229190   1.614   6.678   7.458 -0.9666  0.9346  1.2878
 2519TIP3   OH229191   4.104   3.505   1.458 -1.1135  0.2906 -0.3522
 2519TIP3    H129192   4.014   3.525   1.482 -0.0725  2.6555  2.1955
 2519TIP3    H229193   4.140   3.588   1.427  0.4882 -0.3417 -0.3100
 2520TIP3   OH229194   6.801   3.801   5.790  0.2021 -0.3308  0.4747
 2520TIP3    H129195   6.743   3.756   5.729 -0.1870  0.8399 -0.0466
 2520TIP3    H229196   6.745   3.825   5.864  0.1819  0.1356  0.3120
 2521TIP3   OH229197   5.570   6.459   2.092 -0.0287 -0.3771  0.3911
 2521TIP3    H129198   5.589   6.499   2.177  0.4898 -0.3893  0.2800
 2521TIP3    H229199   5.524   6.378   2.113 -0.8528  0.1371  0.6306
 2522TIP3   OH229200   2.358   3.803   7.024  0.0189  0.4075 -0.4302
 2522TIP3    H129201   2.418   3.856   6.971 -1.3063 -0.0688 -2.5000
 2522TIP3    H229202   2.272   3.818   6.985 -0.9837 -0.2877  1.3826
 2523TIP3   OH229203   6.381   5.522   8.027 -0.1332 -0.3817  0.2736
 2523TIP3    H129204   6.319   5.565   7.969 -0.6536 -0.9892  0.3589
 2523TIP3    H229205   6.467   5.545   7.993 -0.4312 -0.8546 -0.8429
 2524TIP3   OH229206   0.305   3.665   7.694 -0.0177  0.2520  0.3176
 2524TIP3    H129207   0.272   3.602   7.630 -1.1331  1.2400 -0.1182
 2524TIP3    H229208   0.259   3.643   7.775  0.9651 -0.6281  0.6722
 2525TIP3   OH229209   0.751   1.735   0.118 -0.7978 -0.1207  0.4234
 2525TIP3    H129210   0.749   1.657   0.063  0.0043  1.6289 -2.3492
 2525TIP3    H229211   0.661   1.769   0.115 -0.9221 -0.4152  0.8067
 2526TIP3   OH229212   1.785   3.028   8.152 -0.3887  0.0317  0.5346
 2526TIP3    H129213   1.753   3.088   8.219 -0.6754 -2.1907  2.5190
 2526TIP3    H229214   1.716   3.029   8.086 -0.3094  1.9374  0.4137
 2527TIP3   OH229215   4.071   6.500   1.016  0.2382  0.0980  0.6687
 2527TIP3    H129216   4.114   6.585   1.025  0.1742  0.1391  0.5866
 2527TIP3    H229217   4.092   6.453   1.097 -0.8418  0.6792  1.3015
 2528TIP3   OH229218   6.029   0.206   6.406  0.3341 -0.1902  0.3188
 2528TIP3    H129219   6.044   0.221   6.499  0.8180  0.5968  0.1231
 2528TIP3    H229220   6.087   0.267   6.362 -1.3458  0.9156 -0.4925
 2529TIP3   OH229221   3.742   5.131   1.408  0.2012  0.2997  0.4684
 2529TIP3    H129222   3.672   5.196   1.397  0.4016  0.3569 -0.5409
 2529TIP3    H229223   3.781   5.153   1.492 -1.0031  0.2560  1.0696
 2530TIP3   OH229224   1.393   5.902   1.115 -0.1007 -0.0817 -0.1074
 2530TIP3    H129225   1.441   5.984   1.105  1.5937 -1.1028 -0.7512
 2530TIP3    H229226   1.436   5.858   1.188  0.0579 -1.0850 -0.7896
 2531TIP3   OH229227   1.461   4.705   6.268 -0.0935 -0.4422 -0.2348
 2531TIP3    H129228   1.384   4.653   6.293 -0.2748 -0.3376 -0.5746
 2531TIP3    H229229   1.439   4.741   6.182  0.0334  0.1902 -0.0113
 2532TIP3   OH229230   5.675   4.050   7.821 -0.6060  0.3131 -0.6748
 2532TIP3    H129231   5.678   3.962   7.783  1.9381  1.4212 -3.4715
 2532TIP3    H229232   5.758   4.057   7.869 -1.3606  0.7971  0.5817
 2533TIP3   OH229233   2.816   6.631   1.042  0.0775  0.3995  0.0896
 2533TIP3    H129234   2.880   6.691   1.081  1.0011 -0.9639  0.7548
 2533TIP3    H229235   2.805   6.563   1.108 -1.7671  0.3790 -0.2042
 2534TIP3   OH229236   1.991   1.017   6.425  0.0428  0.1059 -0.1824
 2534TIP3    H129237   2.010   1.105   6.457  0.0672 -0.7080  2.2494
 2534TIP3    H229238   2.072   0.988   6.384 -0.1009  1.3384 -1.3876
 2535TIP3   OH229239   4.430   6.747   0.707  0.3965  0.5292 -0.7738
 2535TIP3    H129240   4.417   6.717   0.797  3.2155  1.2204 -0.0258
 2535TIP3    H229241   4.365   6.699   0.656 -1.4077  0.2303  1.6210
 2536TIP3   OH229242   3.345   0.307   0.497  0.2900 -0.0665  0.4162
 2536TIP3    H129243   3.278   0.374   0.509  0.4670  0.1547  0.1674
 2536TIP3    H229244   3.427   0.355   0.493  0.3216 -0.2047 -0.8317
 2537TIP3   OH229245   4.098   0.433   1.661 -0.2925 -0.2611 -0.4761
 2537TIP3    H129246   4.103   0.340   1.641  0.3153 -0.3395  0.0158
 2537TIP3    H229247   4.037   0.469   1.597  0.7928 -0.6842 -1.7890
 2538TIP3   OH229248   0.409   2.971   6.974 -0.1403  0.7875  0.3012
 2538TIP3    H129249   0.425   3.032   6.903  0.9188 -1.4867 -1.5564
 2538TIP3    H229250   0.384   3.026   7.048 -1.2323  3.2690 -1.7694
 2539TIP3   OH229251   1.956   5.955   0.285 -0.7820 -0.0258  0.3128
 2539TIP3    H129252   2.012   5.888   0.245  0.7674  0.7463  1.0967
 2539TIP3    H229253   1.968   5.943   0.379 -0.1769  1.5904  0.4652
 2540TIP3   OH229254   3.019   5.343   0.555 -0.1454  0.0224  0.4182
 2540TIP3    H129255   2.956   5.272   0.569 -2.0855  1.8294  1.4728
 2540TIP3    H229256   3.101   5.310   0.591 -0.8619 -1.8395  0.4445
 2541TIP3   OH229257   0.424   3.497   7.379  0.4257 -0.0190  0.5140
 2541TIP3    H129258   0.413   3.589   7.401  2.2932  0.6734 -1.1711
 2541TIP3    H229259   0.347   3.475   7.327  0.7589  1.0847 -0.4824
 2542TIP3   OH229260   0.132   5.214   0.319 -0.5483  0.8952  0.1825
 2542TIP3    H129261   0.098   5.161   0.247 -0.9916 -0.1779  1.1494
 2542TIP3    H229262   0.093   5.300   0.307  0.0268  0.9668 -1.3123
 2543TIP3   OH229263   0.041   3.058   6.972  0.3333 -0.7027  0.0704
 2543TIP3    H129264   0.009   3.149   6.966  1.0958 -0.2772  1.9627
 2543TIP3    H229265   0.055   3.032   6.881  1.0711  1.4353 -0.4848
 2544TIP3   OH229266   6.426   4.697   1.265  0.0267 -0.3690  0.4158
 2544TIP3    H129267   6.424   4.791   1.249 -1.7785 -0.7551 -2.2732
 2544TIP3    H229268   6.426   4.689   1.360  1.7924  2.3060  0.7534
 2545TIP3   OH229269   4.275   3.772   8.306 -0.0983  0.0751  0.7085
 2545TIP3    H129270   4.232   3.693   8.339 -0.7897  0.7304  1.4214
 2545TIP3    H229271   4.368   3.760   8.326 -0.2664 -0.3357  1.2525
 2546TIP3   OH229272   4.466   1.196   7.323 -0.0843  0.6115 -0.1562
 2546TIP3    H129273   4.392   1.164   7.271 -0.2795 -0.0157  0.4925
 2546TIP3    H229274   4.541   1.145   7.291 -0.2485  0.0503  0.3232
 2547TIP3   OH229275   4.814   0.874   7.374 -0.3843 -0.1566  0.7424
 2547TIP3    H129276   4.870   0.921   7.435  0.3941 -1.2763  0.9315
 2547TIP3    H229277   4.728   0.872   7.416 -0.7360  2.0081  0.2229
 2548TIP3   OH229278   2.764   5.853   8.078 -0.6680 -0.0804  0.2197
 2548TIP3    H129279   2.824   5.833   8.006  0.5643 -0.7420  1.3877
 2548TIP3    H229280   2.726   5.769   8.102  0.5201 -0.2391  1.6837
 2549TIP3   OH229281   4.532   5.555   0.689  0.0646  0.1438  0.2434
 2549TIP3    H129282   4.502   5.470   0.720 -0.7860  0.4520  0.2806
 2549TIP3    H229283   4.461   5.586   0.633  0.9837  0.1980 -0.9292
 2550TIP3   OH229284   3.836   0.869   7.133  0.4833  0.0215 -0.0918
 2550TIP3    H129285   3.889   0.794   7.104 -0.8271 -1.0262  0.0981
 2550TIP3    H229286   3.754   0.829   7.164 -0.6729  1.6158 -0.9688
 2551TIP3   OH229287   5.760   5.179   0.411  0.3178  0.3218 -0.4639
 2551TIP3    H129288   5.739   5.271   0.425  1.5553  0.3517  1.5770
 2551TIP3    H229289   5.692   5.148   0.351 -0.3832  2.4272 -0.8530
 2552TIP3   OH229290   6.359   1.519   2.299 -0.5981 -0.3624 -0.2158
 2552TIP3    H129291   6.299   1.449   2.274 -1.3453  0.7451 -1.6347
 2552TIP3    H229292   6.311   1.600   2.281  0.3924  0.5364  1.0153
 2553TIP3   OH229293   6.361   5.143   1.452 -0.2569  0.4937 -0.3794
 2553TIP3    H129294   6.382   5.071   1.394  1.2685  1.1420 -0.6787
 2553TIP3    H229295   6.415   5.216   1.421 -0.9171  1.4376  0.6020
 2554TIP3   OH229296   0.734   2.255   8.324  0.0265  0.0898  0.5094
 2554TIP3    H129297   0.751   2.192   8.254 -1.0460  0.0639  0.2533
 2554TIP3    H229298   0.647   2.232   8.356 -0.8841  2.1127 -0.3504
 2555TIP3   OH229299   2.893   2.161   0.563  0.0954 -0.2576 -0.0820
 2555TIP3    H129300   2.851   2.097   0.504  0.8333 -1.9765  1.1834
 2555TIP3    H229301   2.841   2.158   0.643 -1.3171  2.5724 -0.7551
 2556TIP3   OH229302   6.874   2.209   1.096  0.3965  0.3033 -0.3768
 2556TIP3    H129303   6.793   2.186   1.142  0.7166  2.7688  1.7147
 2556TIP3    H229304   6.845   2.262   1.022  0.0395 -0.6980 -0.9778
 2557TIP3   OH229305   6.517   1.431   2.008  0.3212 -0.2839 -0.2865
 2557TIP3    H129306   6.530   1.354   1.953 -0.1032 -0.4309 -0.1829
 2557TIP3    H229307   6.483   1.397   2.090  1.4506 -0.1177  0.2735
 2558TIP3   OH229308   4.060   0.560   8.073  0.2827  0.3112  0.3746
 2558TIP3    H129309   4.011   0.582   8.152 -2.2736  0.0237 -1.0304
 2558TIP3    H229310   4.106   0.479   8.095  0.6213  0.8910  1.9286
 2559TIP3   OH229311   4.215   4.782   0.880 -0.3770  0.7692  0.2380
 2559TIP3    H129312   4.127   4.816   0.901 -0.6739 -0.4561  1.0822
 2559TIP3    H229313   4.211   4.689   0.903  1.1607  0.6955  0.3161
 2560TIP3   OH229314   4.067   6.132   6.890  0.0682 -0.0995 -0.5118
 2560TIP3    H129315   4.071   6.226   6.869 -0.5964  0.2022  0.6390
 2560TIP3    H229316   3.980   6.105   6.859  0.5793 -0.5598 -1.6230
 2561TIP3   OH229317   6.218   1.420   1.546 -0.3501 -0.0910  0.0787
 2561TIP3    H129318   6.219   1.490   1.481  1.6954  1.5481  1.7259
 2561TIP3    H229319   6.142   1.440   1.601  0.5587  1.2664  0.9010
 2562TIP3   OH229320   6.544   2.496   1.968  0.1343 -0.4256  0.0882
 2562TIP3    H129321   6.490   2.483   2.046  1.6042 -1.7152  0.9321
 2562TIP3    H229322   6.570   2.408   1.942  2.5396  0.1650  0.2537
 2563TIP3   OH229323   2.795   1.976   0.370  0.7616  0.3655 -0.6857
 2563TIP3    H129324   2.881   1.958   0.333  0.8061 -1.2434  0.1241
 2563TIP3    H229325   2.781   1.906   0.434 -1.8081 -0.4024 -1.9297
 2564TIP3   OH229326   1.892   2.073   0.256  0.1673  0.4487  0.2613
 2564TIP3    H129327   1.951   2.002   0.231 -0.4940 -0.6839  1.7474
 2564TIP3    H229328   1.842   2.091   0.177 -0.5938 -1.7253  0.1702
 2565TIP3   OH229329   4.498   6.012   0.864 -0.3420  0.1425  0.3172
 2565TIP3    H129330   4.591   6.034   0.870 -0.5103  0.8081  0.4923
 2565TIP3    H229331   4.487   5.982   0.773  0.6292 -2.7729  1.0453
 2566TIP3   OH229332   6.612   6.242   8.203  0.0180  0.6639  0.1110
 2566TIP3    H129333   6.610   6.333   8.173  0.1380  0.8293  0.5899
 2566TIP3    H229334   6.633   6.191   8.124 -2.4962  0.7843 -0.6993
 2567TIP3   OH229335   2.332   1.581   0.728 -0.0187  0.3539  0.3654
 2567TIP3    H129336   2.285   1.658   0.761 -0.7226 -0.2909  0.9042
 2567TIP3    H229337   2.361   1.607   0.641  0.8266  1.6650  0.9992
 2568TIP3   OH229338   6.356   6.707   1.001  0.0584  0.2787 -0.0586
 2568TIP3    H129339   6.445   6.678   0.984 -0.5139 -0.4211 -2.1188
 2568TIP3    H229340   6.334   6.762   0.925 -1.6054 -0.4130 -0.1121
 2569TIP3   OH229341   2.229   4.406   0.429  0.2492 -0.5467 -0.3872
 2569TIP3    H129342   2.225   4.429   0.336 -0.3001 -0.0862 -0.2536
 2569TIP3    H229343   2.199   4.315   0.432  0.6112 -0.6776 -0.7027
 2570TIP3   OH229344   4.449   5.726   7.950  0.4310 -0.4401  0.0624
 2570TIP3    H129345   4.425   5.639   7.983 -1.5303  0.6364  1.6986
 2570TIP3    H229346   4.367   5.775   7.948  1.4240  1.3147 -1.1499
 2571TIP3   OH229347   0.696   3.513   6.861  0.6932  0.0160 -0.2743
 2571TIP3    H129348   0.669   3.602   6.838  0.2044 -0.4357 -1.5080
 2571TIP3    H229349   0.708   3.516   6.956  1.0764  1.4955 -0.3434
 2572TIP3   OH229350   1.139   4.972   7.785  0.1197  0.4037 -0.1130
 2572TIP3    H129351   1.050   4.951   7.759 -0.1085  2.4476 -1.1765
 2572TIP3    H229352   1.179   5.010   7.707  1.2742  1.3543  0.8998
 2573TIP3   OH229353   4.934   1.903   7.645 -0.0301  0.3332  0.0405
 2573TIP3    H129354   5.023   1.880   7.671 -0.4761  0.0666  1.3929
 2573TIP3    H229355   4.880   1.884   7.721 -1.1897  0.9463 -0.5853
 2574TIP3   OH229356   3.852   1.608   7.414 -0.1264  0.5538  0.3828
 2574TIP3    H129357   3.806   1.560   7.345  0.2311 -0.9180  1.1090
 2574TIP3    H229358   3.787   1.671   7.446 -0.6034  0.6120 -0.6506
 2575TIP3   OH229359   4.572   1.240   1.658 -0.3001 -0.0207  0.1259
 2575TIP3    H129360   4.620   1.300   1.601  1.4392 -1.2263  0.2724
 2575TIP3    H229361   4.544   1.169   1.600 -0.9337  0.1006  0.2700
 2576TIP3   OH229362   3.917   5.416   1.852  0.0319 -0.1369 -0.2041
 2576TIP3    H129363   3.903   5.500   1.808 -0.2592 -0.8939 -1.6007
 2576TIP3    H229364   3.880   5.429   1.940 -2.0323  0.5314 -1.1080
 2577TIP3   OH229365   2.647   0.988   7.766 -0.2445 -0.3795  0.3218
 2577TIP3    H129366   2.716   0.986   7.700  1.0164  0.9133  1.5482
 2577TIP3    H229367   2.578   0.932   7.730  0.9487 -0.7761 -1.4608
 2578TIP3   OH229368   0.635   5.427   8.273 -0.8697  0.3779 -0.0991
 2578TIP3    H129369   0.564   5.445   8.334 -2.5420  1.6487 -2.2921
 2578TIP3    H229370   0.694   5.502   8.281 -0.4774  0.0064  0.6836
 2579TIP3   OH229371   6.418   2.394   0.611 -0.2513 -0.0216 -0.3481
 2579TIP3    H129372   6.332   2.405   0.571 -0.3963  2.4868  0.4882
 2579TIP3    H229373   6.478   2.442   0.554  0.2593 -0.1001  0.1077
 2580TIP3   OH229374   6.550   4.424   0.001  0.7769 -0.0559  0.2775
 2580TIP3    H129375   6.472   4.453  -0.048 -1.3273 -0.8509  2.9020
 2580TIP3    H229376   6.579   4.501   0.049  0.6766 -0.1176  0.4386
 2581TIP3   OH229377   1.604   1.410   0.095  0.6453 -0.3251 -0.2356
 2581TIP3    H129378   1.597   1.396   0.000 -0.4081 -0.4629 -0.1441
 2581TIP3    H229379   1.582   1.325   0.133 -0.3713  0.1128  0.1676
 2582TIP3   OH229380   2.122   3.595   0.296  0.2188  0.3621  0.2051
 2582TIP3    H129381   2.104   3.593   0.390  0.8983  0.8674  0.3510
 2582TIP3    H229382   2.113   3.687   0.271  0.5422  0.3081 -0.1247
 2583TIP3   OH229383   0.311   2.070   6.854  0.5341 -0.2786 -0.7231
 2583TIP3    H129384   0.317   2.034   6.765  1.6976  0.1281 -0.8268
 2583TIP3    H229385   0.225   2.113   6.856  1.3463  1.6268 -2.4372
 2584TIP3   OH229386   5.401   4.303   0.823 -0.1933  0.2791  0.1111
 2584TIP3    H129387   5.376   4.350   0.743  0.9182  0.6837 -0.0177
 2584TIP3    H229388   5.340   4.230   0.828  0.0572 -0.0764 -1.4173
 2585TIP3   OH229389   0.404   4.613   6.355 -0.4177  0.2165 -0.5707
 2585TIP3    H129390   0.394   4.580   6.266 -1.7256 -0.0254 -0.3467
 2585TIP3    H229391   0.385   4.537   6.411  0.8731  0.2311 -0.0744
 2586TIP3   OH229392   0.548   6.971   0.802 -0.7707 -0.1543 -0.5897
 2586TIP3    H129393   0.607   6.935   0.736 -2.0284 -0.2124 -1.7320
 2586TIP3    H229394   0.550   7.065   0.788 -1.7711 -0.2325 -1.3948
 2587TIP3   OH229395   4.866   3.917   7.834  0.1894 -0.2107  0.1436
 2587TIP3    H129396   4.862   3.960   7.920  0.3618  1.8629 -0.8316
 2587TIP3    H229397   4.959   3.897   7.822  0.4808  1.3346 -0.3781
 2588TIP3   OH229398   2.331   3.525   1.405  0.6550  0.8396  0.3692
 2588TIP3    H129399   2.300   3.462   1.470  1.0746 -1.3194 -1.4235
 2588TIP3    H229400   2.276   3.510   1.329  0.0842  3.4144  0.1745
 2589TIP3   OH229401   6.860   1.402   7.846  0.6768 -0.1294 -0.3866
 2589TIP3    H129402   6.877   1.308   7.856  3.2181  0.3727  0.8244
 2589TIP3    H229403   6.905   1.442   7.920 -1.1213  2.0209 -0.3442
 2590TIP3   OH229404   5.041   6.130   8.019 -0.0161 -0.0636 -0.2605
 2590TIP3    H129405   5.105   6.063   8.043  0.1292 -0.4521 -1.6385
 2590TIP3    H229406   4.956   6.093   8.045  0.1352 -0.4629 -0.3293
 2591TIP3   OH229407   3.987   5.749   2.371  0.1855 -1.1830  0.2220
 2591TIP3    H129408   4.005   5.697   2.293 -1.1591 -0.8779 -0.3202
 2591TIP3    H229409   3.970   5.837   2.338  0.7005 -0.7982  0.9666
 2592TIP3   OH229410   2.949   6.101   0.831 -0.0129  0.1655  0.0136
 2592TIP3    H129411   2.954   6.066   0.743 -0.5407  1.4439 -0.5529
 2592TIP3    H229412   3.008   6.177   0.830 -2.2614  2.0053 -0.1741
 2593TIP3   OH229413   6.526   1.654   7.776 -0.4243 -0.0965  0.1251
 2593TIP3    H129414   6.470   1.671   7.700 -0.6916  0.6977  0.4871
 2593TIP3    H229415   6.612   1.633   7.739 -0.5818  0.1676 -0.3961
 2594TIP3   OH229416   6.481   2.716   0.918  0.0385 -0.2366  0.0513
 2594TIP3    H129417   6.459   2.806   0.892  0.4921  0.0592  0.6603
 2594TIP3    H229418   6.577   2.714   0.918  0.0530 -0.3624  1.2024
 2595TIP3   OH229419   0.835   5.257   1.909 -0.4064 -0.7682 -0.3892
 2595TIP3    H129420   0.751   5.290   1.877 -0.1449  1.5747  1.0670
 2595TIP3    H229421   0.825   5.252   2.004  1.4110  0.7783 -0.0336
 2596TIP3   OH229422   3.767   0.396   2.473 -0.6150 -0.3558  0.7419
 2596TIP3    H129423   3.814   0.471   2.436  1.3215 -1.2759  1.1751
 2596TIP3    H229424   3.733   0.429   2.557 -1.2910  0.5035  0.1508
 2597TIP3   OH229425   5.882   5.133   7.006 -0.1219  0.0101  0.6794
 2597TIP3    H129426   5.904   5.136   7.099  1.4009  0.0634  0.3424
 2597TIP3    H229427   5.904   5.220   6.974  1.4153 -0.6579 -0.1462
 2598TIP3   OH229428   2.927   6.480   7.200 -0.8710 -0.2432 -0.2482
 2598TIP3    H129429   2.940   6.463   7.293  0.3715 -0.6541 -0.4717
 2598TIP3    H229430   2.989   6.550   7.180  0.0202 -1.2336 -1.0744
 2599TIP3   OH229431   1.817   0.850   7.506 -0.5196 -0.0154 -0.1261
 2599TIP3    H129432   1.766   0.897   7.571 -2.5195 -0.8529 -1.0108
 2599TIP3    H229433   1.835   0.916   7.438 -0.3867  0.2805  0.1899
 2600TIP3   OH229434   4.796   4.017   7.209 -0.1315 -0.1160  0.5274
 2600TIP3    H129435   4.843   3.997   7.128 -1.8039  0.7220 -0.7287
 2600TIP3    H229436   4.838   3.963   7.276  3.1543  1.2039 -0.2752
 2601TIP3   OH229437   6.036   3.912   1.600 -0.0156 -0.1777  0.3747
 2601TIP3    H129438   6.031   3.976   1.671 -1.9785  1.0775 -0.8080
 2601TIP3    H229439   6.077   3.960   1.528 -1.4369 -0.2306 -0.5018
 2602TIP3   OH229440   5.597   0.649   7.128  0.2350 -0.1807 -0.0496
 2602TIP3    H129441   5.639   0.614   7.050  0.5787  1.0723 -0.4547
 2602TIP3    H229442   5.584   0.573   7.185  1.6792 -0.8432 -0.5470
 2603TIP3   OH229443   4.037   4.582   0.024 -0.4200  0.0207 -0.0032
 2603TIP3    H129444   4.048   4.675   0.002  2.5884 -0.7079 -2.2838
 2603TIP3    H229445   4.045   4.579   0.119  1.3247  1.9680 -0.0121
 2604TIP3   OH229446   6.942   2.084   0.177 -0.1442 -0.0619  0.3301
 2604TIP3    H129447   6.940   1.992   0.148 -1.6642 -0.0648  0.3373
 2604TIP3    H229448   6.943   2.135   0.096  0.0373 -0.0909  0.3152
 2605TIP3   OH229449   4.909   6.665   8.429  0.0168  0.7032  0.2311
 2605TIP3    H129450   4.965   6.594   8.460  0.8122 -0.0625 -2.6748
 2605TIP3    H229451   4.893   6.644   8.337 -0.4815  3.8195 -0.4871
 2606TIP3   OH229452   5.402   5.550   0.026  0.1682  0.2638  0.0279
 2606TIP3    H129453   5.307   5.555   0.025  0.0757 -1.2566 -0.5279
 2606TIP3    H229454   5.429   5.575  -0.062  0.2635  0.2597  0.0550
 2607TIP3   OH229455   3.182   0.765   0.829  0.2195  0.3117  0.0543
 2607TIP3    H129456   3.156   0.708   0.757 -0.5361 -0.4324  0.8923
 2607TIP3    H229457   3.136   0.847   0.812 -0.4557 -0.0688  0.0218
 2608TIP3   OH229458   3.216   0.666   1.202 -0.0874  0.0638  0.1987
 2608TIP3    H129459   3.148   0.725   1.169 -0.2308 -0.7461 -1.0485
 2608TIP3    H229460   3.272   0.650   1.126  1.4820  0.6623  1.1874
 2609TIP3   OH229461   4.340   1.729   7.647  0.0792  0.3243 -0.0620
 2609TIP3    H129462   4.319   1.678   7.569  2.2833  0.1534 -0.6296
 2609TIP3    H229463   4.374   1.664   7.710 -0.7596  0.5947  0.6918
 2610TIP3   OH229464   2.995   5.922   1.902 -0.4756  0.1982 -0.5085
 2610TIP3    H129465   3.017   6.010   1.871  1.9962 -0.5361 -1.0924
 2610TIP3    H229466   2.947   5.882   1.830  1.4673 -0.0379 -1.7691
 2611TIP3   OH229467   5.146   4.200   1.904 -0.3824 -0.7563 -0.1355
 2611TIP3    H129468   5.091   4.203   1.982  2.1519  0.1475  1.7398
 2611TIP3    H229469   5.116   4.273   1.851  0.0497  0.7694  1.6327
 2612TIP3   OH229470   5.258   0.329   8.223  0.2745 -0.5454 -0.3070
 2612TIP3    H129471   5.305   0.296   8.299  4.6664  0.3585 -2.3251
 2612TIP3    H229472   5.217   0.410   8.254  1.6057 -0.4072  1.2211
 2613TIP3   OH229473   1.870   4.681   8.238  0.4600 -0.5471 -0.4707
 2613TIP3    H129474   1.938   4.703   8.175  0.4337  1.4145  0.1147
 2613TIP3    H229475   1.862   4.760   8.292 -4.3157  0.5723 -2.3188
 2614TIP3   OH229476   3.016   2.290   1.507 -0.0936  0.2887  0.0407
 2614TIP3    H129477   3.099   2.242   1.512 -0.2834 -0.0471 -0.0481
 2614TIP3    H229478   2.985   2.277   1.417 -0.5152 -0.0392  0.2320
 2615TIP3   OH229479   5.728   0.318   2.259 -0.5561 -0.2264  0.0296
 2615TIP3    H129480   5.658   0.343   2.320 -0.4491 -1.1258  0.5315
 2615TIP3    H229481   5.808   0.320   2.311 -0.2601  0.4151 -0.4471
 2616TIP3   OH229482   3.771   2.623   1.888  0.0665  0.2353 -0.2987
 2616TIP3    H129483   3.720   2.676   1.950 -0.1149 -1.0512  0.7141
 2616TIP3    H229484   3.854   2.670   1.880 -1.1281  2.2763 -1.8394
 2617TIP3   OH229485   2.014   5.998   6.179 -0.0982  0.1875  0.3702
 2617TIP3    H129486   1.962   5.920   6.158 -0.9146  0.7127  0.3759
 2617TIP3    H229487   2.067   5.972   6.255 -0.2333 -0.4138  0.2618
 2618TIP3   OH229488   3.992   4.549   7.063 -0.1609 -0.2535 -0.2878
 2618TIP3    H129489   3.967   4.533   7.155 -0.7509 -1.0801 -0.5761
 2618TIP3    H229490   4.065   4.490   7.048 -0.4281 -0.5257 -0.5126
 2619TIP3   OH229491   2.069   5.136   1.425 -0.1458 -0.1983 -0.3328
 2619TIP3    H129492   2.018   5.061   1.396 -0.8604  0.4881 -0.8938
 2619TIP3    H229493   2.145   5.098   1.469 -1.1295 -1.2418  0.5045
 2620TIP3   OH229494   6.876   2.837   7.572 -0.3283  0.0734 -0.2280
 2620TIP3    H129495   6.829   2.839   7.488 -3.2495  1.8451  1.2943
 2620TIP3    H229496   6.916   2.923   7.578  1.0114 -0.5250 -0.3461
 2621TIP3   OH229497   0.285   0.981   7.338  0.3622 -0.0311 -0.3573
 2621TIP3    H129498   0.197   1.020   7.338  0.8479  1.1024 -0.2758
 2621TIP3    H229499   0.282   0.915   7.269 -1.1617 -1.4667  0.9872
 2622TIP3   OH229500   1.243   5.666   1.299  0.4885 -0.0615 -0.3592
 2622TIP3    H129501   1.321   5.615   1.319  0.3560  0.3322  1.4167
 2622TIP3    H229502   1.248   5.741   1.359 -1.8392 -0.6852  0.7520
 2623TIP3   OH229503   4.236   5.200   0.522 -0.1744  0.4463 -0.5808
 2623TIP3    H129504   4.189   5.213   0.604 -0.4740 -0.4011 -0.6051
 2623TIP3    H229505   4.312   5.146   0.546  0.8895  1.9099 -0.5168
 2624TIP3   OH229506   3.417   0.039   0.416  0.3973 -0.6253  0.1687
 2624TIP3    H129507   3.508   0.066   0.431 -0.1064  0.0596  2.3560
 2624TIP3    H229508   3.366   0.118   0.431 -0.5489 -0.8855 -1.5527
 2625TIP3   OH229509   3.239   6.081   1.870  0.3606 -0.5874 -0.1407
 2625TIP3    H129510   3.316   6.129   1.838 -0.0030 -0.6302 -1.1162
 2625TIP3    H229511   3.262   5.989   1.857  0.6079 -0.6517  0.6804
 2626TIP3   OH229512   6.968   4.582   7.034  0.7979  0.1300  0.1393
 2626TIP3    H129513   6.938   4.530   7.108  1.8200 -0.8685 -0.1214
 2626TIP3    H229514   6.938   4.535   6.957 -0.3261  1.2044 -0.1141
 2627TIP3   OH229515   2.395   2.244   1.672 -0.7025 -0.3380 -0.5255
 2627TIP3    H129516   2.314   2.258   1.624 -1.9117  1.2675  1.7867
 2627TIP3    H229517   2.457   2.306   1.634 -0.9963 -0.5125 -1.3101
 2628TIP3   OH229518   0.506   6.915   8.037 -0.0507 -0.0708 -0.5679
 2628TIP3    H129519   0.423   6.887   7.998 -0.4302  0.2131  0.0228
 2628TIP3    H229520   0.486   6.999   8.078  0.0404 -0.8516  1.1758
 2629TIP3   OH229521   3.837   1.231   0.742  0.2440  0.7017 -0.0422
 2629TIP3    H129522   3.779   1.306   0.754 -0.8986  0.1059 -1.6352
 2629TIP3    H229523   3.925   1.268   0.751 -0.2489  1.4014  3.7140
 2630TIP3   OH229524   3.765   1.767   2.468  0.2632  0.5685 -0.3940
 2630TIP3    H129525   3.689   1.817   2.496  0.0430 -0.3953  0.8706
 2630TIP3    H229526   3.739   1.676   2.481  1.4165  0.2080 -0.5181
 2631TIP3   OH229527   2.650   2.500   1.147 -0.0613 -0.3404  0.5343
 2631TIP3    H129528   2.566   2.466   1.179 -0.7930 -0.6039 -1.5544
 2631TIP3    H229529   2.635   2.593   1.131 -0.7833 -0.8437 -2.1904
 2632TIP3   OH229530   0.669   5.943   6.829  0.2120  0.1575 -0.0559
 2632TIP3    H129531   0.731   5.898   6.771 -1.7663 -0.5192 -1.7650
 2632TIP3    H229532   0.692   6.036   6.819  0.8776 -0.0674 -0.7607
 2633TIP3   OH229533   4.049   4.184   6.993  0.7868  0.1883  0.3955
 2633TIP3    H129534   4.130   4.187   6.942  1.0666  0.4609  0.8499
 2633TIP3    H229535   4.064   4.116   7.058 -0.6695 -2.3306 -1.6884
 2634TIP3   OH229536   2.553   5.282   0.054 -0.2517  0.2903 -0.3359
 2634TIP3    H129537   2.533   5.345   0.123 -0.0634 -0.1811  0.1601
 2634TIP3    H229538   2.639   5.247   0.077 -0.2481  0.0298 -0.7321
 2635TIP3   OH229539   5.375   3.613   1.943  0.0974 -0.1306  0.8282
 2635TIP3    H129540   5.403   3.679   2.007 -1.1283  0.2377  1.0110
 2635TIP3    H229541   5.280   3.616   1.946  0.0160 -0.2409 -0.8971
 2636TIP3   OH229542   4.371   0.546   7.787  0.1178  0.2240 -0.6109
 2636TIP3    H129543   4.410   0.634   7.784 -0.1930  0.3653 -0.5707
 2636TIP3    H229544   4.371   0.517   7.696  1.3187 -0.2262 -0.4789
 2637TIP3   OH229545   0.116   5.530   0.527 -0.4059  0.1149  0.1356
 2637TIP3    H129546   0.114   5.626   0.527  2.4774  0.2463 -0.2221
 2637TIP3    H229547   0.204   5.507   0.557  0.4379 -2.3092 -3.5320
 2638TIP3   OH229548   0.818   2.369   6.337 -0.2592  0.1185 -0.5980
 2638TIP3    H129549   0.735   2.409   6.363 -0.7704 -0.5837 -1.1232
 2638TIP3    H229550   0.794   2.282   6.306  1.0685 -1.8130  3.1482
 2639TIP3   OH229551   6.842   2.385   1.952  0.7451 -0.1543  0.0472
 2639TIP3    H129552   6.893   2.408   2.030 -1.6769  0.0092  1.7077
 2639TIP3    H229553   6.816   2.470   1.916 -0.4599 -0.2017  0.7476
 2640TIP3   OH229554   5.736   4.859   0.136 -0.1297 -0.0653  0.0195
 2640TIP3    H129555   5.710   4.896   0.220 -2.1215  0.4509 -0.7749
 2640TIP3    H229556   5.812   4.805   0.156 -1.0662 -0.6477  2.3086
 2641TIP3   OH229557   1.453   0.480   0.166 -0.3937 -0.1174 -0.2413
 2641TIP3    H129558   1.508   0.402   0.169  0.6966  0.6341 -0.1042
 2641TIP3    H229559   1.401   0.469   0.086 -0.7361 -1.2748  0.1136
 2642TIP3   OH229560   4.447   3.012   0.410  0.2251  0.0214 -0.6683
 2642TIP3    H129561   4.485   3.093   0.447 -0.2249  0.3706 -0.9604
 2642TIP3    H229562   4.358   3.036   0.386  0.5593 -0.1222 -2.1910
 2643TIP3   OH229563   1.637   0.255   7.371 -0.4828  0.0366 -0.3846
 2643TIP3    H129564   1.721   0.216   7.393 -0.0667 -2.0776 -4.6925
 2643TIP3    H229565   1.573   0.200   7.417  0.3525 -1.4019 -0.8949
 2644TIP3   OH229566   1.016   5.424   0.978  0.2084  0.1459  0.2233
 2644TIP3    H129567   1.070   5.349   1.004  0.6855  0.2813 -0.3432
 2644TIP3    H229568   1.076   5.498   0.980  0.4953  0.0510 -1.9684
 2645TIP3   OH229569   6.883   6.650   1.153  0.5721 -0.4947 -0.0690
 2645TIP3    H129570   6.904   6.591   1.080  2.6145 -2.1531  1.7016
 2645TIP3    H229571   6.923   6.733   1.129  0.2415 -0.6909 -1.3353
 2646TIP3   OH229572   3.383   6.277   7.594 -0.0797 -0.0785  0.0696
 2646TIP3    H129573   3.323   6.203   7.585  0.8337 -0.7572 -0.5462
 2646TIP3    H229574   3.387   6.294   7.688 -2.7885  1.2967  0.0494
 2647TIP3   OH229575   3.547   1.616   6.490  0.5030 -0.0423 -0.2149
 2647TIP3    H129576   3.544   1.628   6.585 -1.7481 -1.1375 -0.0644
 2647TIP3    H229577   3.473   1.558   6.471  1.9350 -1.3087 -2.4519
 2648TIP3   OH229578   6.349   4.872   8.268 -0.0508 -0.1625 -0.1627
 2648TIP3    H129579   6.387   4.794   8.308 -0.2452 -0.5170 -0.6672
 2648TIP3    H229580   6.314   4.842   8.184  2.0992  0.9392 -1.5321
 2649TIP3   OH229581   1.060   5.084   6.973  0.2058 -0.0192  0.5451
 2649TIP3    H129582   1.140   5.066   6.924 -0.8451 -1.0902 -0.8977
 2649TIP3    H229583   1.088   5.091   7.064  1.8641 -0.9183  0.1487
 2650TIP3   OH229584   4.195   2.849   2.434 -0.6128 -0.0077 -0.3784
 2650TIP3    H129585   4.266   2.786   2.450  0.5044  1.5575  1.2973
 2650TIP3    H229586   4.131   2.831   2.503 -1.2632 -0.5828 -1.1167
 2651TIP3   OH229587   6.084   2.537   0.987  0.3558  0.1860 -0.6143
 2651TIP3    H129588   6.069   2.452   1.029 -1.0080  1.6374  2.0817
 2651TIP3    H229589   6.159   2.522   0.929  0.7539 -2.6013  0.4634
 2652TIP3   OH229590   4.456   0.360   1.514 -0.5026  0.2592  0.2976
 2652TIP3    H129591   4.532   0.352   1.571 -1.5316 -2.3403  1.4454
 2652TIP3    H229592   4.462   0.284   1.455 -1.0339  1.2701 -1.1274
 2653TIP3   OH229593   0.732   1.511   0.844  0.0763 -0.7313  0.0923
 2653TIP3    H129594   0.694   1.432   0.883 -1.0407 -0.6041 -0.6827
 2653TIP3    H229595   0.761   1.484   0.758  0.7674 -0.5629  0.2691
 2654TIP3   OH229596   0.442   4.652   1.037 -0.1954 -0.4414  0.1169
 2654TIP3    H129597   0.356   4.694   1.039  0.4809  0.9825  0.5165
 2654TIP3    H229598   0.460   4.638   0.944 -0.7609 -0.5682  0.0204
 2655TIP3   OH229599   0.270   0.863   0.125  0.5148  0.0051 -0.4702
 2655TIP3    H129600   0.253   0.787   0.069  1.6263 -1.6819  1.3283
 2655TIP3    H229601   0.186   0.907   0.133 -0.3646 -1.5451 -0.8857
 2656TIP3   OH229602   6.125   0.085   7.131 -0.6572  0.6775  0.1247
 2656TIP3    H129603   6.125   0.180   7.120  0.8159  0.4839 -2.0108
 2656TIP3    H229604   6.194   0.069   7.196  1.1446  0.9339 -1.6428
 2657TIP3   OH229605   0.368   1.439   6.685  0.1917 -0.2416  0.0140
 2657TIP3    H129606   0.435   1.464   6.748 -1.2248 -0.4666  1.6840
 2657TIP3    H229607   0.402   1.468   6.601  1.7124  0.9494  0.9942
 2658TIP3   OH229608   2.241   3.106   8.047  0.0044  0.1520 -0.4755
 2658TIP3    H129609   2.170   3.167   8.068  1.2325  1.4706 -0.0173
 2658TIP3    H229610   2.220   3.027   8.098  0.6636  1.7634  2.5250
 2659TIP3   OH229611   4.937   4.126   7.655 -0.1428  0.4647  0.5163
 2659TIP3    H129612   4.867   4.159   7.712 -0.1020 -0.9866  1.4584
 2659TIP3    H229613   4.924   4.031   7.654  0.4090  0.3746 -1.1964
 2660TIP3   OH229614   5.634   5.869   0.217  0.1078  0.2394 -0.3327
 2660TIP3    H129615   5.630   5.786   0.265  0.2163  0.3693 -0.0943
 2660TIP3    H229616   5.707   5.916   0.257  1.5401 -0.4832 -2.0016
 2661TIP3   OH229617   4.681   6.991   8.164  0.1664 -0.3376 -0.0710
 2661TIP3    H129618   4.690   6.948   8.079  1.8074 -0.4654  0.1368
 2661TIP3    H229619   4.764   6.976   8.208 -1.2990 -2.0463  2.4411
 2662TIP3   OH229620   5.889   6.952   0.854 -0.0472 -0.0515 -0.8478
 2662TIP3    H129621   5.966   7.000   0.823  0.7847  0.1569  1.3420
 2662TIP3    H229622   5.834   6.941   0.777  1.8404  0.4464 -2.3196
 2663TIP3   OH229623   3.532   4.153   2.033 -0.0193 -0.4525  0.6053
 2663TIP3    H129624   3.438   4.155   2.018  0.2924  0.1561 -1.6248
 2663TIP3    H229625   3.548   4.219   2.101 -0.9210  1.4962 -0.9856
 2664TIP3   OH229626   6.488   6.282   1.072  0.2536 -0.1895  0.6078
 2664TIP3    H129627   6.480   6.289   0.977 -1.0397 -0.4409  0.6780
 2664TIP3    H229628   6.530   6.198   1.087  0.5510 -0.1048  0.2544
 2665TIP3   OH229629   0.560   3.285   0.140  0.1400 -0.0869  0.1654
 2665TIP3    H129630   0.611   3.344   0.195  1.2711 -1.2209  0.3985
 2665TIP3    H229631   0.498   3.243   0.200  1.1440 -1.0745  0.5394
 2666TIP3   OH229632   5.159   6.149   2.117  0.4321  0.2594  0.6098
 2666TIP3    H129633   5.220   6.078   2.134  0.3478 -0.6723 -2.3514
 2666TIP3    H229634   5.073   6.114   2.140  0.5243 -0.1745  0.2987
 2667TIP3   OH229635   1.220   0.877   7.497 -0.2716  0.2599  0.8580
 2667TIP3    H129636   1.125   0.864   7.490 -0.3001  1.1382 -1.4326
 2667TIP3    H229637   1.258   0.800   7.455 -0.0448  0.5796  0.4638
 2668TIP3   OH229638   4.606   0.149   1.853  0.1538 -0.3000  0.0740
 2668TIP3    H129639   4.668   0.076   1.851 -0.1186 -0.5868  1.2374
 2668TIP3    H229640   4.534   0.120   1.797  0.4661 -0.5295 -0.2129
 2669TIP3   OH229641   3.333   0.156   0.739 -0.1041 -0.4395 -0.0282
 2669TIP3    H129642   3.276   0.082   0.720  1.3479 -1.8551  0.8106
 2669TIP3    H229643   3.356   0.191   0.653 -1.0205 -0.8029 -0.4298
 2670TIP3   OH229644   3.029   5.035   7.583 -0.2698  0.3986  0.0017
 2670TIP3    H129645   3.028   4.996   7.496 -1.0459 -0.3460  0.3368
 2670TIP3    H229646   3.122   5.042   7.606 -0.0963 -0.2347 -0.5102
 2671TIP3   OH229647   2.423   2.834   1.361 -0.5253  0.2156 -0.2920
 2671TIP3    H129648   2.389   2.745   1.349 -0.7925  0.4419 -1.2478
 2671TIP3    H229649   2.384   2.885   1.291 -0.2274  1.0595  0.1365
 2672TIP3   OH229650   1.343   5.512   0.065  0.9381 -1.0050 -0.2282
 2672TIP3    H129651   1.373   5.539  -0.022  1.0696 -2.0924 -0.5318
 2672TIP3    H229652   1.256   5.474   0.049 -1.1664  2.8674  0.7347
 2673TIP3   OH229653   0.087   0.519   6.886  0.2040 -0.5196 -0.3212
 2673TIP3    H129654   0.122   0.541   6.799  1.7694  0.2498  0.4522
 2673TIP3    H229655   0.097   0.424   6.892  0.5372 -0.5248 -0.8131
 2674TIP3   OH229656   3.250   3.289   0.643  0.4118  0.2572 -0.4524
 2674TIP3    H129657   3.210   3.376   0.634 -0.1328  0.2990  1.8034
 2674TIP3    H229658   3.340   3.306   0.671  0.1045  0.1083  0.6579
 2675TIP3   OH229659   0.856   4.431   2.313 -0.2032 -0.0266  0.0608
 2675TIP3    H129660   0.772   4.416   2.271 -0.0277  1.0559 -0.7308
 2675TIP3    H229661   0.836   4.491   2.386 -0.2661 -0.6045  0.5237
 2676TIP3   OH229662   3.547   4.897   1.916  0.1819 -0.8569 -0.6374
 2676TIP3    H129663   3.582   4.950   1.845 -0.6149  0.7708  0.1046
 2676TIP3    H229664   3.456   4.928   1.925  0.7027  0.1419  2.0628
 2677TIP3   OH229665   4.138   0.850   1.686  0.4279 -0.1324 -0.0739
 2677TIP3    H129666   4.063   0.843   1.744 -1.8565  0.5970 -2.6992
 2677TIP3    H229667   4.189   0.923   1.721 -2.2806  2.0599 -0.3527
 2678TIP3   OH229668   6.355   0.300   8.434 -0.3665  0.4901 -0.8209
 2678TIP3    H129669   6.304   0.379   8.455 -0.9148 -0.1565  0.3638
 2678TIP3    H229670   6.342   0.288   8.340  0.7827  2.5313 -1.3030
 2679TIP3   OH229671   2.116   4.857   1.751 -0.2839 -0.1576  0.0613
 2679TIP3    H129672   2.096   4.905   1.831  0.1786  1.2004 -0.6224
 2679TIP3    H229673   2.170   4.783   1.781 -1.0694 -0.3252  1.1201
 2680TIP3   OH229674   1.032   4.797   0.742  0.2670  0.7261 -0.5862
 2680TIP3    H129675   1.064   4.775   0.829  0.1498 -0.2678 -0.7909
 2680TIP3    H229676   0.944   4.758   0.738 -0.3023  1.9608 -0.6465
 2681TIP3   OH229677   6.168   2.725   7.186 -0.3140 -0.7864  0.0517
 2681TIP3    H129678   6.213   2.662   7.130  1.2545 -0.6339  1.0971
 2681TIP3    H229679   6.210   2.809   7.168 -3.6763  0.5528 -2.8178
 2682TIP3   OH229680   2.359   1.575   7.189  0.0004 -0.2406  0.0547
 2682TIP3    H129681   2.335   1.504   7.129  2.4070  0.0215 -1.3292
 2682TIP3    H229682   2.304   1.560   7.266  0.7559 -3.9707  0.0690
 2683TIP3   OH229683   6.578   2.527   7.471  0.1717 -0.1941 -0.0327
 2683TIP3    H129684   6.514   2.566   7.412  0.7778 -0.7989 -1.1001
 2683TIP3    H229685   6.547   2.552   7.559 -1.0180  0.2720 -0.5622
 2684TIP3   OH229686   4.338   1.876   0.739 -0.0123  0.2997 -0.0424
 2684TIP3    H129687   4.366   1.960   0.775 -0.8464  1.1819 -1.3746
 2684TIP3    H229688   4.375   1.811   0.799  3.5300  1.4074 -0.7678
 2685TIP3   OH229689   2.064   3.033   1.433 -0.3511  0.1011 -0.1803
 2685TIP3    H129690   2.001   3.105   1.427 -0.2715  0.0485 -2.0918
 2685TIP3    H229691   2.135   3.058   1.374  0.0194 -1.2132 -0.3084
 2686TIP3   OH229692   3.748   0.495   2.745 -0.1228  0.1490 -0.1640
 2686TIP3    H129693   3.669   0.521   2.793  1.3903  1.5153  1.7326
 2686TIP3    H229694   3.792   0.434   2.803 -0.9632 -2.6806 -2.3161
 2687TIP3   OH229695   0.246   2.876   1.072 -0.2736 -0.4816  0.6616
 2687TIP3    H129696   0.319   2.856   1.130 -1.0591 -0.0214  1.8246
 2687TIP3    H229697   0.173   2.824   1.105 -0.4667 -1.0469 -0.5734
 2688TIP3   OH229698   4.082   3.000   0.468  0.1826  0.0860 -0.0625
 2688TIP3    H129699   4.082   2.905   0.456 -1.2207 -0.3493  2.5898
 2688TIP3    H229700   4.095   3.036   0.380  0.2873 -2.5460 -1.1924
 2689TIP3   OH229701   0.990   1.682   2.383  0.4286  0.0146 -0.3401
 2689TIP3    H129702   0.937   1.700   2.460  1.0961  0.2805  0.0646
 2689TIP3    H229703   0.965   1.593   2.357  1.4516 -0.7645  1.2206
 2690TIP3   OH229704   5.147   2.868   1.737  0.0527 -0.7424 -0.4455
 2690TIP3    H129705   5.194   2.912   1.808 -0.5014 -0.7826 -0.0465
 2690TIP3    H229706   5.085   2.810   1.781 -1.3824  0.3626 -0.9169
 2691TIP3   OH229707   0.371   0.589   6.983 -0.3870  0.6399 -0.0968
 2691TIP3    H129708   0.346   0.501   6.955  0.6834 -0.0481  1.0180
 2691TIP3    H229709   0.318   0.606   7.061 -0.5108  0.9376 -0.2443
 2692TIP3   OH229710   1.442   4.609   1.091 -0.0266  0.1884  0.0949
 2692TIP3    H129711   1.437   4.680   1.155  1.7127  1.1158 -0.7492
 2692TIP3    H229712   1.535   4.600   1.072 -0.5030  0.1772 -2.5540
 2693TIP3   OH229713   5.772   5.412   1.815  0.0052  0.3583 -0.1976
 2693TIP3    H129714   5.761   5.348   1.886  0.0145 -0.2554 -0.7330
 2693TIP3    H229715   5.722   5.489   1.843 -0.3971 -0.0590  0.2535
 2694TIP3   OH229716   5.585   6.363   0.845  0.0591  0.0524  0.5660
 2694TIP3    H129717   5.655   6.421   0.875  1.1505 -0.7088 -0.3750
 2694TIP3    H229718   5.540   6.335   0.924  0.9179  0.4643  1.2101
 2695TIP3   OH229719   5.698   2.188   7.155  0.0352 -0.0682  0.3935
 2695TIP3    H129720   5.663   2.104   7.124 -0.4208  0.2265  0.1143
 2695TIP3    H229721   5.758   2.163   7.226  0.6998 -0.7078 -0.3640
 2696TIP3   OH229722   6.924   4.199   0.476 -0.4267 -0.3000  0.3197
 2696TIP3    H129723   6.936   4.193   0.382 -0.2004 -3.1957  0.4375
 2696TIP3    H229724   6.994   4.145   0.513 -0.7006  0.4973  2.1550
 2697TIP3   OH229725   0.639   4.806   1.642 -0.4047  0.2652  0.5408
 2697TIP3    H129726   0.726   4.776   1.617  0.9038  2.4622  2.0604
 2697TIP3    H229727   0.584   4.728   1.638  1.3665 -0.9862 -1.4611
 2698TIP3   OH229728   5.106   3.650   1.894 -0.0381 -0.0748  0.1190
 2698TIP3    H129729   5.018   3.672   1.865 -0.2231 -0.8017  0.1046
 2698TIP3    H229730   5.093   3.583   1.961  0.5327 -0.6848 -0.3658
 2699TIP3   OH229731   0.348   0.410   7.577  0.5530  0.0069 -0.6747
 2699TIP3    H129732   0.416   0.471   7.605 -0.4721  0.2699  1.5313
 2699TIP3    H229733   0.277   0.465   7.544  0.1304 -0.0342  0.1321
 2700TIP3   OH229734   0.726   1.326   7.867  0.2096  0.2884 -0.4329
 2700TIP3    H129735   0.689   1.251   7.914  1.1116  0.4804  0.6209
 2700TIP3    H229736   0.701   1.311   7.776 -0.4903 -0.7642 -0.0915
 2701TIP3   OH229737   5.332   3.342   0.319 -0.0119  0.4361 -0.6820
 2701TIP3    H129738   5.384   3.294   0.383  0.3504  2.6048  0.7464
 2701TIP3    H229739   5.259   3.284   0.298  0.8758 -1.0656  0.2854
 2702TIP3   OH229740   4.944   4.860   1.777  0.0355 -0.0892  0.3990
 2702TIP3    H129741   4.876   4.924   1.755  0.0272 -0.4926 -0.7833
 2702TIP3    H229742   4.940   4.855   1.873 -0.6608  0.9086  0.4479
 2703TIP3   OH229743   0.089   4.697   0.576 -0.2694  0.8420 -0.4602
 2703TIP3    H129744   0.109   4.708   0.669  0.6685 -1.3490 -0.3480
 2703TIP3    H229745   0.170   4.722   0.532  0.1219 -0.4577 -0.5091
 2704TIP3   OH229746   1.040   6.189   7.540 -0.2630  0.5186 -0.4628
 2704TIP3    H129747   1.028   6.101   7.507  0.0543  0.3580 -0.1597
 2704TIP3    H229748   1.035   6.245   7.463  1.5704  0.0600 -0.9619
 2705TIP3   OH229749   0.031   5.898   0.280  0.0491  0.2449 -0.7414
 2705TIP3    H129750  -0.014   5.952   0.215 -0.4722  1.0571  0.2512
 2705TIP3    H229751  -0.039   5.868   0.338  0.3789 -1.2557 -1.0802
 2706TIP3   OH229752   1.450   3.575   7.367  0.1969  0.3098  0.2084
 2706TIP3    H129753   1.360   3.605   7.354  0.1143  0.1870  0.5003
 2706TIP3    H229754   1.502   3.656   7.364  0.2629  0.2394 -1.5332
 2707TIP3   OH229755   1.951   0.983   1.429 -0.1831  0.1114 -0.4876
 2707TIP3    H129756   1.901   0.922   1.375  1.0608 -0.8357 -0.6158
 2707TIP3    H229757   1.971   0.934   1.509 -0.1368  0.7403 -0.1099
 2708TIP3   OH229758   2.092   3.415   8.106  0.5948  0.3232 -0.0160
 2708TIP3    H129759   2.132   3.500   8.087  2.2987 -0.8271 -2.1270
 2708TIP3    H229760   2.111   3.400   8.199  1.5024  1.6516  0.0459
 2709TIP3   OH229761   1.602   6.839   1.906 -0.5932 -0.6949 -0.0851
 2709TIP3    H129762   1.694   6.864   1.911 -1.0840  1.1366  0.5584
 2709TIP3    H229763   1.594   6.766   1.968  0.3127 -0.5314  0.2439
 2710TIP3   OH229764   1.600   3.504   1.715  0.5838 -0.0499 -0.0702
 2710TIP3    H129765   1.593   3.599   1.727 -2.1894 -0.1385 -0.2423
 2710TIP3    H229766   1.550   3.467   1.787  0.9518 -1.3666 -0.4551
 2711TIP3   OH229767   3.930   4.207   1.046  0.7236  0.5060 -0.3776
 2711TIP3    H129768   3.911   4.115   1.061 -0.4923  0.9719  1.3448
 2711TIP3    H229769   3.912   4.221   0.953 -4.1627  0.0071  0.2222
 2712TIP3   OH229770   5.584   2.876   6.330 -0.0692  0.4797 -0.5756
 2712TIP3    H129771   5.526   2.914   6.396 -0.2014  0.3305 -0.6074
 2712TIP3    H229772   5.540   2.796   6.302  0.8340 -0.4303  0.4800
 2713TIP3   OH229773   2.290   1.370   1.488 -0.6211  0.2535  0.5857
 2713TIP3    H129774   2.338   1.452   1.475 -2.3868  1.2086 -0.3398
 2713TIP3    H229775   2.322   1.336   1.572 -0.9605  2.7101  1.7854
 2714TIP3   OH229776   1.687   4.643   6.406 -0.4974 -0.3276 -0.1667
 2714TIP3    H129777   1.736   4.719   6.374 -1.2449  0.2950  0.1242
 2714TIP3    H229778   1.603   4.649   6.362 -0.6291 -0.8853  0.0087
 2715TIP3   OH229779   3.984   5.977   6.628  0.0545 -0.7195  0.4879
 2715TIP3    H129780   3.953   6.063   6.658  1.0920 -0.5469  1.1332
 2715TIP3    H229781   4.001   5.929   6.709  0.2695 -1.2295  0.1396
 2716TIP3   OH229782   3.085   3.407   1.275 -0.0655 -0.8393  0.3070
 2716TIP3    H129783   3.033   3.370   1.204  1.0917 -1.3352 -0.3145
 2716TIP3    H229784   3.141   3.472   1.232 -1.0996  0.6798  1.1733
 2717TIP3   OH229785   3.198   6.473   0.685 -0.6920  0.1048  0.0233
 2717TIP3    H129786   3.258   6.526   0.737 -0.5634  0.2733 -0.3000
 2717TIP3    H229787   3.118   6.526   0.679 -0.8242 -0.0547  0.3233
 2718TIP3   OH229788   4.832   3.056   8.017 -0.4593  0.0009  0.0191
 2718TIP3    H129789   4.829   2.970   8.058 -1.0732  0.2839  0.5878
 2718TIP3    H229790   4.914   3.095   8.048 -0.9710  0.2605  1.1068
 2719TIP3   OH229791   0.701   1.757   1.341  0.3167  0.3770  0.1529
 2719TIP3    H129792   0.738   1.678   1.301 -0.0663  0.1806  0.1835
 2719TIP3    H229793   0.772   1.791   1.396  0.2477 -0.3535  0.7157
 2720TIP3   OH229794   2.658   5.343   7.788 -0.6521  0.0960  0.2027
 2720TIP3    H129795   2.615   5.269   7.744 -0.7131  0.0053  0.4119
 2720TIP3    H229796   2.750   5.335   7.764 -1.1881  2.4792 -3.4279
 2721TIP3   OH229797   3.600   1.361   7.891  0.3396  0.0637 -0.5742
 2721TIP3    H129798   3.683   1.329   7.925 -0.0490 -0.2358  0.1137
 2721TIP3    H229799   3.536   1.342   7.961  0.0718  2.2509 -0.1685
 2722TIP3   OH229800   2.460   1.643   7.797 -0.0210 -0.2783 -0.4286
 2722TIP3    H129801   2.368   1.619   7.783 -0.1407 -0.4026  0.5347
 2722TIP3    H229802   2.488   1.677   7.712 -1.2272  0.6263 -0.4997
 2723TIP3   OH229803   4.548   4.134   1.070 -0.2802  0.7373 -0.1540
 2723TIP3    H129804   4.623   4.172   1.025 -0.3575  3.0175  1.4498
 2723TIP3    H229805   4.553   4.040   1.052  0.4061  1.3186 -3.7080
 2724TIP3   OH229806   1.324   5.795   7.687 -0.2130 -0.5520  0.0356
 2724TIP3    H129807   1.350   5.887   7.681 -1.2451 -0.1704  0.9263
 2724TIP3    H229808   1.297   5.772   7.598  0.7122 -0.2047 -0.3425
 2725TIP3   OH229809   4.910   4.848   8.010  0.6046  0.2089  0.2185
 2725TIP3    H129810   4.975   4.795   8.056  1.9582  0.7053 -1.0691
 2725TIP3    H229811   4.941   4.938   8.019  0.0362  0.4686 -0.3171
 2726TIP3   OH229812   1.876   4.220   6.457  0.6062 -0.5513  0.4878
 2726TIP3    H129813   1.965   4.246   6.435  0.4197 -0.7376 -0.5311
 2726TIP3    H229814   1.887   4.144   6.515  1.1542 -2.4799 -1.9484
 2727TIP3   OH229815   4.975   6.672   7.342 -0.1434 -0.2053  0.4318
 2727TIP3    H129816   4.910   6.707   7.281 -1.1342 -1.3068  0.8157
 2727TIP3    H229817   4.939   6.692   7.429  1.3774  1.5969  0.7165
 2728TIP3   OH229818   2.326   1.772   1.177  0.1428 -0.0646  0.4925
 2728TIP3    H129819   2.245   1.806   1.139  0.0869  1.2206  1.6925
 2728TIP3    H229820   2.319   1.792   1.270  1.5220 -0.6249  0.7368
 2729TIP3   OH229821   2.617   2.525   2.306  0.1661  0.3973  0.1167
 2729TIP3    H129822   2.707   2.519   2.338  0.2910  0.5795 -0.1956
 2729TIP3    H229823   2.626   2.538   2.211 -0.1991 -0.5820 -0.0737
 2730TIP3   OH229824   4.795   5.053   0.933  0.3464 -0.8179  0.2599
 2730TIP3    H129825   4.868   5.111   0.910 -0.5592 -0.3010 -1.4359
 2730TIP3    H229826   4.737   5.107   0.987 -0.1063 -0.3607 -0.6622
 2731TIP3   OH229827   2.679   4.263   7.048  0.4315 -0.6289 -0.9358
 2731TIP3    H129828   2.730   4.218   7.116 -1.0727 -1.3442 -0.2270
 2731TIP3    H229829   2.731   4.341   7.027  1.0469 -0.4769  0.9178
 2732TIP3   OH229830   5.434   5.716   8.168  0.4094  0.1908  0.0506
 2732TIP3    H129831   5.451   5.752   8.255  0.5602  1.5531 -0.5215
 2732TIP3    H229832   5.520   5.712   8.127  0.3295 -0.3980 -0.0568
 2733TIP3   OH229833   4.602   5.628   1.526 -0.2812 -0.2443  0.5289
 2733TIP3    H129834   4.550   5.701   1.561  0.8239 -0.2227  2.2459
 2733TIP3    H229835   4.592   5.559   1.591  1.2409 -0.4779  0.5495
 2734TIP3   OH229836   6.116   5.638   6.812  0.1024 -0.4773  0.1639
 2734TIP3    H129837   6.090   5.659   6.722  0.3626  1.6290  0.5262
 2734TIP3    H229838   6.210   5.623   6.807  0.0912 -0.5157  0.0673
 2735TIP3   OH229839   2.897   5.219   7.335 -0.4266  0.2335  0.6178
 2735TIP3    H129840   2.988   5.191   7.343 -0.2741  0.9205  1.4762
 2735TIP3    H229841   2.894   5.271   7.255  0.1033  0.7795  0.9456
 2736TIP3   OH229842   1.475   6.333   6.536 -0.9550 -0.0409  1.2666
 2736TIP3    H129843   1.539   6.262   6.528 -1.9670 -0.9599  1.1376
 2736TIP3    H229844   1.527   6.408   6.567  0.5492 -0.1909 -0.7230
 2737TIP3   OH229845   5.633   6.239   7.116 -0.0082 -0.1868  0.1882
 2737TIP3    H129846   5.688   6.315   7.097 -0.4900  0.8940  2.6861
 2737TIP3    H229847   5.637   6.186   7.037  1.4658  1.7576 -1.1355
 2738TIP3   OH229848   2.309   2.768   7.950  0.1341  0.1766  0.3952
 2738TIP3    H129849   2.288   2.756   8.043 -3.2753 -2.1449 -0.4596
 2738TIP3    H229850   2.358   2.689   7.926 -1.7148 -0.8158 -0.3295
 2739TIP3   OH229851   2.341   5.589   6.906 -0.0058 -0.3765  0.5680
 2739TIP3    H129852   2.280   5.517   6.919 -2.0909  0.8517 -1.5843
 2739TIP3    H229853   2.395   5.562   6.831 -1.8729  0.8192 -1.3174
 2740TIP3   OH229854   4.349   1.607   8.071  0.1811  0.7283  0.3272
 2740TIP3    H129855   4.426   1.664   8.067  1.7920 -1.3834 -1.4850
 2740TIP3    H229856   4.385   1.518   8.071 -2.1926 -0.4374 -2.9869
 2741TIP3   OH229857   1.796   2.941   7.438  0.1957 -0.0492 -0.5406
 2741TIP3    H129858   1.839   3.026   7.422  1.0319 -0.5802 -1.2234
 2741TIP3    H229859   1.868   2.883   7.464 -0.5992 -0.1605  1.5497
 2742TIP3   OH229860   6.065   0.979   1.656 -0.5163 -0.1700  0.0973
 2742TIP3    H129861   6.126   0.969   1.583 -0.1874  0.0242  0.3420
 2742TIP3    H229862   6.072   0.897   1.705 -0.3473 -0.0934  0.2024
 2743TIP3   OH229863   4.589   0.775   0.035  0.7065 -0.3307 -0.8185
 2743TIP3    H129864   4.514   0.731  -0.006  0.9355 -0.6706 -0.8830
 2743TIP3    H229865   4.551   0.849   0.081  0.1519 -1.2636  0.2681
 2744TIP3   OH229866   6.214   4.775   8.046  0.1193  1.1706 -0.3261
 2744TIP3    H129867   6.173   4.856   8.015 -0.8300  0.6880 -0.3518
 2744TIP3    H229868   6.141   4.717   8.067  0.7657  0.6643  0.6423
 2745TIP3   OH229869   6.600   3.434   2.151 -0.2662  0.3896  0.7229
 2745TIP3    H129870   6.678   3.435   2.207 -0.1014 -1.4683  0.5658
 2745TIP3    H229871   6.560   3.520   2.166  1.9325  1.5223  0.6037
 2746TIP3   OH229872   5.043   2.273   6.392  0.3182 -0.2502 -0.3381
 2746TIP3    H129873   5.012   2.305   6.307 -1.6911  0.1199  0.4583
 2746TIP3    H229874   5.100   2.343   6.425  0.3413  0.0304 -0.9660
 2747TIP3   OH229875   4.364   2.624   2.493  0.1592  0.9382  0.2679
 2747TIP3    H129876   4.363   2.584   2.406 -0.7432  0.6822  0.3780
 2747TIP3    H229877   4.434   2.579   2.539 -0.9985 -0.7724  0.4811
 2748TIP3   OH229878   0.426   6.397   6.889 -0.1934  0.1438  0.0946
 2748TIP3    H129879   0.470   6.313   6.898  1.1766  0.6400 -1.5165
 2748TIP3    H229880   0.422   6.432   6.978  1.2440 -0.6378  0.4948
 2749TIP3   OH229881   2.386   1.075   1.546 -0.2593 -0.2139 -0.1263
 2749TIP3    H129882   2.355   1.005   1.488  1.0297 -0.9562  0.0304
 2749TIP3    H229883   2.474   1.094   1.515  0.6655 -0.9828  1.8559
 2750TIP3   OH229884   4.759   1.337   6.876 -0.1969 -0.0925  0.4191
 2750TIP3    H129885   4.682   1.391   6.858 -1.0539 -1.5030 -0.3538
 2750TIP3    H229886   4.753   1.315   6.969 -1.2298 -0.8815  0.1861
 2751TIP3   OH229887   3.297   5.015   1.903  0.5697  0.4211  0.2658
 2751TIP3    H129888   3.240   5.076   1.950 -0.2740  0.8387 -1.2418
 2751TIP3    H229889   3.252   4.931   1.908  0.8594  0.2967  0.8401
 2752TIP3   OH229890   5.919   1.114   7.785  0.4040  1.0510 -0.2912
 2752TIP3    H129891   5.828   1.139   7.770 -0.7378 -2.0118  0.7968
 2752TIP3    H229892   5.922   1.091   7.878  2.2999  1.0776 -0.3095
 2753TIP3   OH229893   2.618   6.863   7.811 -0.3353  0.1996 -0.0445
 2753TIP3    H129894   2.615   6.768   7.805 -1.0318  0.2534 -0.6715
 2753TIP3    H229895   2.531   6.892   7.781 -0.3388  1.0003  0.6811
 2754TIP3   OH229896   5.032   2.302   7.931 -0.0961 -0.3587 -0.3129
 2754TIP3    H129897   4.975   2.263   7.865 -1.9699  0.4690  0.7299
 2754TIP3    H229898   5.049   2.391   7.899  0.1760 -0.4353 -0.3778
 2755TIP3   OH229899   5.389   3.697   7.866 -0.3155  0.0494  0.1447
 2755TIP3    H129900   5.434   3.774   7.902 -0.9952  0.4113  0.2525
 2755TIP3    H229901   5.448   3.664   7.798  1.2272 -0.9244  1.8485
 2756TIP3   OH229902   1.855   4.857   2.159 -0.3260  0.5319  0.1467
 2756TIP3    H129903   1.807   4.779   2.131 -1.2368  1.0380  0.2912
 2756TIP3    H229904   1.947   4.828   2.161 -0.4963 -0.1703 -1.0462
 2757TIP3   OH229905   1.209   5.784   6.656  0.1832 -0.5183 -0.6302
 2757TIP3    H129906   1.212   5.877   6.632 -0.3722 -0.1681  0.5829
 2757TIP3    H229907   1.150   5.745   6.592  2.0914 -0.5132 -2.5294
 2758TIP3   OH229908   0.557   3.302   0.453 -0.2043  0.0883  0.0589
 2758TIP3    H129909   0.602   3.218   0.466  0.8227  0.9865  2.8468
 2758TIP3    H229910   0.468   3.277   0.430  0.8240 -1.7310 -2.5116
 2759TIP3   OH229911   3.289   3.446   6.099  0.2508 -0.5327 -0.0196
 2759TIP3    H129912   3.222   3.408   6.043  0.4854  1.7844 -1.9919
 2759TIP3    H229913   3.249   3.449   6.186 -0.6678 -2.7882 -0.2832
 2760TIP3   OH229914   4.382   3.902   0.924  0.1872 -0.7607  0.5455
 2760TIP3    H129915   4.382   3.975   0.862 -0.7210  0.3169  1.7755
 2760TIP3    H229916   4.292   3.869   0.923 -0.0232 -0.2784  1.7744
 2761TIP3   OH229917   4.177   0.140   1.176  0.0205  0.5711  0.1419
 2761TIP3    H129918   4.115   0.213   1.176 -0.4933  0.1436 -0.7619
 2761TIP3    H229919   4.209   0.136   1.086  0.4007 -0.0267  0.2973
 2762TIP3   OH229920   1.733   1.666   0.179 -0.9414  0.6959  0.1389
 2762TIP3    H129921   1.810   1.638   0.130 -0.4430  0.7406  0.8737
 2762TIP3    H229922   1.660   1.623   0.136 -0.1049 -3.2918  2.1976
 2763TIP3   OH229923   4.122   2.553   7.960 -0.4331 -0.1070 -0.1671
 2763TIP3    H129924   4.093   2.464   7.939  0.9126 -0.2877 -1.4477
 2763TIP3    H229925   4.207   2.541   8.001  0.1056  0.6019 -1.0317
 2764TIP3   OH229926   6.350   3.073   8.021 -0.9583  0.3880  0.0778
 2764TIP3    H129927   6.445   3.065   8.011 -0.9948 -1.4391  0.7696
 2764TIP3    H229928   6.315   3.044   7.937 -0.9229 -0.3024  0.2957
 2765TIP3   OH229929   2.599   2.475   0.814 -1.0399 -0.2644 -0.0064
 2765TIP3    H129930   2.520   2.520   0.844 -0.4591  0.5231  0.3623
 2765TIP3    H229931   2.628   2.425   0.891 -2.6756 -2.7687 -0.9029
 2766TIP3   OH229932   4.737   6.440   1.122  0.6443 -0.0070  0.4103
 2766TIP3    H129933   4.708   6.386   1.049  2.0894  0.5554 -0.6452
 2766TIP3    H229934   4.714   6.529   1.096 -0.7803  0.0182  1.6582
 2767TIP3   OH229935   0.784   6.899   7.986 -0.1866 -0.2283 -0.1387
 2767TIP3    H129936   0.776   6.887   7.891  1.4002 -2.3480 -0.0999
 2767TIP3    H229937   0.695   6.913   8.016 -0.9082 -0.9087 -1.8051
 2768TIP3   OH229938   2.152   4.465   7.036 -0.0043 -0.2221 -0.1479
 2768TIP3    H129939   2.224   4.408   7.064 -1.5055 -1.2074  1.9855
 2768TIP3    H229940   2.113   4.419   6.962 -0.4797 -1.4837  0.8266
 2769TIP3   OH229941   5.647   6.173   8.154 -0.8944 -0.3446  0.2215
 2769TIP3    H129942   5.718   6.165   8.218 -1.2475  0.0477  0.6628
 2769TIP3    H229943   5.571   6.135   8.196 -0.7887 -1.4202 -0.5298
 2770TIP3   OH229944   2.741   3.755   0.759  0.1256  0.1830 -0.1296
 2770TIP3    H129945   2.656   3.799   0.770  1.0894  1.6910  1.8892
 2770TIP3    H229946   2.757   3.758   0.665 -1.8222  0.3027 -0.5051
 2771TIP3   OH229947   1.306   2.494   6.251 -0.0482 -0.2339 -0.6589
 2771TIP3    H129948   1.248   2.493   6.327 -1.3266 -1.8248 -1.6007
 2771TIP3    H229949   1.249   2.515   6.177  0.6074 -1.4987 -1.5709
 2772TIP3   OH229950   5.686   6.356   7.623  0.3465  0.2384  0.1589
 2772TIP3    H129951   5.592   6.339   7.621  0.0287  1.8501 -1.6679
 2772TIP3    H229952   5.707   6.366   7.716 -1.5792  1.2148  0.5323
 2773TIP3   OH229953   2.629   4.057   1.515 -0.6473  0.1919  0.1918
 2773TIP3    H129954   2.567   4.071   1.443  0.7656  0.9911 -0.9123
 2773TIP3    H229955   2.692   4.128   1.507  0.0994 -0.2669  1.6462
 2774TIP3   OH229956   1.291   1.908   1.407  0.2822  0.2632  0.5210
 2774TIP3    H129957   1.265   1.963   1.481 -0.7072  1.5553 -0.7333
 2774TIP3    H229958   1.363   1.854   1.442  1.1990  2.2120  1.8690
 2775TIP3   OH229959   3.175   0.842   7.324 -0.5654  0.1455 -0.2783
 2775TIP3    H129960   3.268   0.862   7.338 -0.5843 -0.2721  0.5299
 2775TIP3    H229961   3.144   0.911   7.266 -0.2688  1.6076  1.2213
 2776TIP3   OH229962   6.591   0.956   6.800 -0.2559 -0.6428  0.1747
 2776TIP3    H129963   6.625   0.921   6.882  1.1597  0.7802  0.2199
 2776TIP3    H229964   6.623   1.046   6.795 -1.3542 -0.2723 -1.3491
 2777TIP3   OH229965   4.195   1.048   0.027 -0.2349  0.1958  0.1180
 2777TIP3    H129966   4.110   1.025   0.062 -0.1415 -0.0645  0.1760
 2777TIP3    H229967   4.177   1.084  -0.060 -0.3824 -0.0856  0.0313
 2778TIP3   OH229968   3.865   5.692   1.252  0.8364  0.5509 -0.4329
 2778TIP3    H129969   3.861   5.596   1.250  1.3883  0.5083  0.0464
 2778TIP3    H229970   3.852   5.714   1.344 -0.7115  1.0296 -0.7280
 2779TIP3   OH229971   3.022   4.098   7.822 -0.0134  0.2600 -0.1347
 2779TIP3    H129972   3.072   4.102   7.904 -1.4681 -1.8436  0.9499
 2779TIP3    H229973   2.943   4.149   7.840 -0.4724 -0.4518 -0.1065
 2780TIP3   OH229974   5.789   5.740   8.414 -0.3128 -0.1791 -0.4706
 2780TIP3    H129975   5.858   5.797   8.447 -0.0705 -0.9442  0.3817
 2780TIP3    H229976   5.817   5.715   8.326  1.3592 -1.8488  0.4889
 2781TIP3   OH229977   0.398   6.724   7.207  0.2910 -0.5882  0.3254
 2781TIP3    H129978   0.329   6.760   7.150 -1.1121 -1.9375  1.1005
 2781TIP3    H229979   0.364   6.736   7.296  0.9758 -1.4444  0.7199
 2782TIP3   OH229980   6.198   5.732   1.713 -0.4366  0.0180 -0.1520
 2782TIP3    H129981   6.141   5.701   1.784 -1.0027  0.1010 -0.5591
 2782TIP3    H229982   6.185   5.668   1.643 -0.6346  0.4663 -0.5334
 2783TIP3   OH229983   0.688   1.378   6.397  0.2788  0.7844  0.2531
 2783TIP3    H129984   0.661   1.291   6.367  1.3231  0.9225 -1.1621
 2783TIP3    H229985   0.605   1.423   6.416 -0.3016 -0.2646  0.2876
 2784TIP3   OH229986   6.336   6.411   1.659  1.0099  0.0254  0.1510
 2784TIP3    H129987   6.356   6.326   1.698  0.3175 -0.6289 -0.8698
 2784TIP3    H229988   6.326   6.392   1.566 -1.0119  0.8920  0.1459
 2785TIP3   OH229989   0.566   0.500   1.201 -0.1652 -0.0591 -0.1222
 2785TIP3    H129990   0.493   0.552   1.168  0.1122  2.0024  2.2193
 2785TIP3    H229991   0.546   0.411   1.173 -1.5681  0.9694 -2.8189
 2786TIP3   OH229992   4.284   0.039   6.890  0.3076  0.5681 -0.2523
 2786TIP3    H129993   4.313   0.119   6.933 -1.5909  0.1304  2.0415
 2786TIP3    H229994   4.215   0.067   6.830  0.6018  0.7863 -0.4925
 2787TIP3   OH229995   4.192   3.209   0.624  0.2259  0.1450 -0.0487
 2787TIP3    H129996   4.143   3.130   0.602  1.5348 -0.1885 -2.0727
 2787TIP3    H229997   4.141   3.280   0.584  0.9692 -0.1271 -1.5520
 2788TIP3   OH229998   0.166   6.111   1.143 -0.4175 -0.3788  0.1213
 2788TIP3    H129999   0.238   6.137   1.085 -0.2834 -0.6175  0.1787
 2788TIP3    H230000   0.114   6.050   1.091  0.1440 -1.2208  0.5026
 2789TIP3   OH230001   6.943   3.640   1.431  0.4794 -0.1419  0.0099
 2789TIP3    H130002   6.858   3.635   1.389 -0.7065  0.1631  2.2075
 2789TIP3    H230003   6.992   3.704   1.380 -1.0675  0.6198 -0.5742
 2790TIP3   OH230004   2.414   0.477   0.362  0.1220 -0.2995  0.2078
 2790TIP3    H130005   2.356   0.491   0.437 -1.2404 -0.5884 -0.7633
 2790TIP3    H230006   2.374   0.528   0.291  1.3154 -0.1415 -0.3674
 2791TIP3   OH230007   4.210   1.160   0.978  0.0048 -0.3583  0.0625
 2791TIP3    H130008   4.176   1.089   1.033 -1.5849  0.6826  0.4782
 2791TIP3    H230009   4.258   1.216   1.038  1.1052 -0.9531 -0.2355
 2792TIP3   OH230010   6.465   6.721   8.100  0.1545  0.7358  0.4823
 2792TIP3    H130011   6.506   6.800   8.064  0.3277  0.4605  0.0586
 2792TIP3    H230012   6.460   6.661   8.025  0.8371  0.0254  0.9865
 2793TIP3   OH230013   0.731   0.169   2.070  0.3921  0.8243 -0.0702
 2793TIP3    H130014   0.819   0.206   2.074  0.0686  1.5645  0.2823
 2793TIP3    H230015   0.676   0.239   2.034  0.1186  0.0288 -1.3041
 2794TIP3   OH230016   0.876   0.178   1.147 -0.5178 -0.4982 -0.5955
 2794TIP3    H130017   0.873   0.153   1.239 -0.5099  0.6911 -0.2638
 2794TIP3    H230018   0.953   0.133   1.112  0.7523  0.7307  0.5056
 2795TIP3   OH230019   1.725   6.143   6.048  0.6061 -0.0744  0.1057
 2795TIP3    H130020   1.709   6.111   5.959 -0.0450 -1.8263  0.8099
 2795TIP3    H230021   1.652   6.108   6.099 -0.1099  2.5181  1.0139
 2796TIP3   OH230022   4.349   5.594   7.261 -0.3322 -0.6104 -0.4687
 2796TIP3    H130023   4.328   5.556   7.347  0.2799 -1.8256 -0.8297
 2796TIP3    H230024   4.331   5.524   7.199 -1.6431  0.5526 -1.4521
 2797TIP3   OH230025   6.309   3.791   0.591  0.2149 -0.3013 -0.0714
 2797TIP3    H130026   6.347   3.860   0.537  0.3657 -2.1745 -2.5479
 2797TIP3    H230027   6.383   3.735   0.614 -0.2567 -1.0633 -0.3665
 2798TIP3   OH230028   5.213   3.618   1.255 -0.0911 -0.2622 -0.4823
 2798TIP3    H130029   5.145   3.562   1.293  0.3406 -0.8155 -0.5232
 2798TIP3    H230030   5.189   3.706   1.284 -0.3269 -0.5569  0.2626
 2799TIP3   OH230031   0.710   6.007   1.044  0.7746 -0.0786  0.3366
 2799TIP3    H130032   0.686   5.949   1.116 -0.4194  0.2576  0.2257
 2799TIP3    H230033   0.746   6.085   1.087 -2.8125  1.4818  0.8025
 2800TIP3   OH230034   1.477   5.100   8.224  0.1572 -0.2249 -0.9261
 2800TIP3    H130035   1.466   5.124   8.316  1.2706 -0.6372 -0.6674
 2800TIP3    H230036   1.406   5.146   8.179  0.5615  1.3111 -0.0861
 2801TIP3   OH230037   4.408   6.836   1.250 -0.0056 -0.8159 -0.0783
 2801TIP3    H130038   4.428   6.826   1.157  0.4557 -1.2758  0.0664
 2801TIP3    H230039   4.417   6.748   1.286  2.3540 -0.2398  0.8936
 2802TIP3   OH230040   2.249   5.099   7.043 -0.4913 -0.8587  0.1373
 2802TIP3    H130041   2.181   5.048   7.087 -1.6932 -0.3415 -1.0638
 2802TIP3    H230042   2.264   5.052   6.961 -2.3624  1.1778 -1.4731
 2803TIP3   OH230043   0.889   5.565   0.598 -0.7057 -0.4438  0.0105
 2803TIP3    H130044   0.867   5.610   0.679 -0.1155 -0.3821  0.1432
 2803TIP3    H230045   0.949   5.495   0.624 -0.9086 -0.7413 -0.3069
 2804TIP3   OH230046   4.756   2.239   7.775  0.1703 -0.0898  0.2195
 2804TIP3    H130047   4.791   2.214   7.690  0.8183 -0.9584  0.7251
 2804TIP3    H230048   4.701   2.315   7.757 -0.8634 -1.1189 -1.2041
 2805TIP3   OH230049   0.119   6.432   1.933  0.3059  0.2536 -0.0594
 2805TIP3    H130050   0.073   6.358   1.894  2.2323 -1.5470  0.8760
 2805TIP3    H230051   0.052   6.478   1.983 -0.5857 -2.1606  1.1355
 2806TIP3   OH230052   4.164   4.579   7.352 -0.4537 -0.4749  0.2693
 2806TIP3    H130053   4.206   4.553   7.270  0.9444  1.7595  0.2036
 2806TIP3    H230054   4.097   4.511   7.367  0.8950 -2.2883 -1.3963
 2807TIP3   OH230055   0.738   5.241   7.175 -0.3883  0.0746 -0.2073
 2807TIP3    H130056   0.777   5.154   7.177  0.2983  0.1864 -3.5503
 2807TIP3    H230057   0.799   5.294   7.124 -2.1005  1.8132 -0.5539
 2808TIP3   OH230058   4.530   1.415   7.482 -0.3520  0.3464 -0.3686
 2808TIP3    H130059   4.447   1.463   7.482 -1.3399 -1.2251  1.5521
 2808TIP3    H230060   4.517   1.343   7.420 -1.0392 -0.7763  1.0175
 2809TIP3   OH230061   3.523   2.107   1.504 -0.3725  0.2571 -0.3083
 2809TIP3    H130062   3.609   2.145   1.487  0.8632 -0.8459  2.6982
 2809TIP3    H230063   3.540   2.013   1.514 -1.5485  0.1933  1.8757
 2810TIP3   OH230064   4.169   6.674   0.609  0.7286  0.4792 -0.4706
 2810TIP3    H130065   4.157   6.580   0.619 -0.9348  0.6798 -0.2974
 2810TIP3    H230066   4.115   6.697   0.534 -0.8750  1.6367  0.9625
 2811TIP3   OH230067   5.501   6.166   0.437 -0.4233  0.4571  0.4160
 2811TIP3    H130068   5.469   6.081   0.408 -1.2758  0.9852 -0.2446
 2811TIP3    H230069   5.513   6.157   0.532  0.8933 -0.8195  0.1713
 2812TIP3   OH230070   5.663   1.924   7.054 -0.0543  0.2630  0.1049
 2812TIP3    H130071   5.731   1.910   6.989 -2.4040 -0.9014 -2.3123
 2812TIP3    H230072   5.660   1.842   7.103 -1.0375 -0.5191 -1.1979
 2813TIP3   OH230073   5.963   2.210   7.474 -0.1906 -0.0599 -0.3589
 2813TIP3    H130074   5.885   2.155   7.463 -0.0395 -0.3251 -0.1238
 2813TIP3    H230075   5.949   2.255   7.557 -0.5693  0.6839 -0.8220
 2814TIP3   OH230076   4.318   5.433   6.803  0.0262  0.2105  0.6567
 2814TIP3    H130077   4.324   5.528   6.795  0.0858  0.1738  0.2422
 2814TIP3    H230078   4.406   5.406   6.832 -0.3029  0.3806  1.8612
 2815TIP3   OH230079   4.347   4.962   8.196 -0.0041  0.3163  0.0899
 2815TIP3    H130080   4.365   5.009   8.277  0.2426 -1.8555  1.3806
 2815TIP3    H230081   4.268   4.910   8.215  0.5817 -0.9231 -0.7236
 2816TIP3   OH230082   6.996   4.605   1.493  0.5633 -0.8308 -0.2915
 2816TIP3    H130083   6.990   4.699   1.504 -1.2760 -0.9304 -0.0401
 2816TIP3    H230084   6.967   4.569   1.577 -2.3755 -1.5657 -1.4582
 2817TIP3   OH230085   6.982   0.965   0.214 -0.0520  0.2924  0.0140
 2817TIP3    H130086   6.999   1.058   0.233 -0.5959  0.3967  0.0155
 2817TIP3    H230087   7.009   0.919   0.293 -0.9060  0.5740  0.4875
 2818TIP3   OH230088   5.096   2.696   7.909 -0.5548 -0.5941  0.0495
 2818TIP3    H130089   5.022   2.727   7.857  0.2231  0.7954 -0.2507
 2818TIP3    H230090   5.173   2.732   7.867  0.0779  1.3830  2.6384
 2819TIP3   OH230091   6.019   5.428   1.337 -0.2733 -0.3648 -0.1076
 2819TIP3    H130092   6.011   5.355   1.275 -4.2064  1.1681 -1.7275
 2819TIP3    H230093   5.999   5.389   1.423  1.4334 -1.8007 -0.3087
 2820TIP3   OH230094   2.672   4.841   2.187 -0.0332 -0.2043 -0.3015
 2820TIP3    H130095   2.624   4.866   2.266 -0.2573 -2.2903  0.2752
 2820TIP3    H230096   2.733   4.913   2.173 -1.0322  0.9281  0.8768
 2821TIP3   OH230097   5.752   2.866   7.943 -0.1740 -0.0522 -0.4849
 2821TIP3    H130098   5.724   2.957   7.950 -1.3578 -0.4561  0.3355
 2821TIP3    H230099   5.810   2.852   8.017 -0.9285 -0.2787  0.0693
 2822TIP3   OH230100   1.383   0.929   1.380  0.4461 -0.3161  0.2217
 2822TIP3    H130101   1.379   0.993   1.310  0.4120 -2.9301 -2.3481
 2822TIP3    H230102   1.302   0.942   1.429  1.1063  2.4825  0.7646
 2823TIP3   OH230103   6.601   1.686   0.886  0.1039 -0.3522 -0.2053
 2823TIP3    H130104   6.673   1.749   0.887 -1.2962  1.2991  0.6587
 2823TIP3    H230105   6.631   1.614   0.941  1.8159 -0.5961 -1.3728
 2824TIP3   OH230106   3.741   0.124   0.744  0.0990 -0.2920 -0.7498
 2824TIP3    H130107   3.796   0.063   0.794 -0.2638  0.8311  1.1512
 2824TIP3    H230108   3.797   0.201   0.730 -0.2381 -0.0685 -0.8855
 2825TIP3   OH230109   2.155   0.474   8.113  0.0496  0.1023  0.1299
 2825TIP3    H130110   2.060   0.481   8.123  0.1472  0.6555  0.7528
 2825TIP3    H230111   2.188   0.562   8.133  0.8017 -0.4319  1.3564
 2826TIP3   OH230112   6.968   6.293   1.353  0.2981  0.1138  0.1459
 2826TIP3    H130113   6.934   6.242   1.279 -0.7329  0.1876  0.5475
 2826TIP3    H230114   7.062   6.299   1.337  0.2345 -0.7231 -0.6392
 2827TIP3   OH230115   4.054   4.303   2.501 -0.6592 -0.7003 -0.1095
 2827TIP3    H130116   4.031   4.227   2.555  0.7080 -1.0011  0.0831
 2827TIP3    H230117   4.027   4.278   2.412 -1.5881 -0.7950  0.1885
 2828TIP3   OH230118   0.214   5.024   6.844 -0.4924 -0.3527 -0.3964
 2828TIP3    H130119   0.172   4.971   6.911 -2.7832  1.6440 -0.1277
 2828TIP3    H230120   0.149   5.031   6.774 -0.5211  2.3925 -0.2155
 2829TIP3   OH230121   4.746   3.571   0.547  0.5725  0.2533  0.1632
 2829TIP3    H130122   4.778   3.516   0.475  0.0998 -1.2488  1.0654
 2829TIP3    H230123   4.766   3.522   0.626 -1.2813  0.6357  0.9180
 2830TIP3   OH230124   2.743   2.686   1.695 -0.4732  0.6446 -0.4204
 2830TIP3    H130125   2.730   2.756   1.759 -0.6820  1.6167 -1.4887
 2830TIP3    H230126   2.836   2.694   1.671  0.5994 -1.9249  2.2057
 2831TIP3   OH230127   2.546   0.087   2.510  0.6061 -0.4360  0.1178
 2831TIP3    H130128   2.525   0.177   2.532 -0.4302 -1.1368  2.2944
 2831TIP3    H230129   2.639   0.078   2.531  1.4802  0.7725 -2.7380
 2832TIP3   OH230130   5.640   3.612   7.318  0.0075  0.4611 -0.4110
 2832TIP3    H130131   5.566   3.574   7.271 -1.3537  0.7886  1.3527
 2832TIP3    H230132   5.688   3.537   7.352  0.5964  0.2440 -1.6542
 2833TIP3   OH230133   4.478   1.681   2.235  0.4264 -0.1594  0.4862
 2833TIP3    H130134   4.461   1.707   2.326  0.2672  1.8024 -0.0766
 2833TIP3    H230135   4.545   1.613   2.243  0.9353  0.4688  2.0332
 2834TIP3   OH230136   1.883   6.500   1.081 -0.1625  0.1953 -0.1112
 2834TIP3    H130137   1.950   6.550   1.128 -1.7579  2.5563 -0.1416
 2834TIP3    H230138   1.824   6.468   1.149 -0.1154 -0.1028 -0.2107
 2835TIP3   OH230139   6.552   0.880   2.526 -1.0636 -0.3497  0.2075
 2835TIP3    H130140   6.644   0.862   2.547 -0.9070 -2.0617 -1.6030
 2835TIP3    H230141   6.529   0.956   2.580  1.5908  0.5345  0.2187
 2836TIP3   OH230142   1.622   6.099   6.473 -0.1415 -0.6057 -0.0241
 2836TIP3    H130143   1.572   6.087   6.392  0.3051 -0.2483 -0.3558
 2836TIP3    H230144   1.713   6.109   6.444  0.1421 -1.3656  0.5847
 2837TIP3   OH230145   5.402   5.120   8.369 -0.3130  0.8198 -0.0300
 2837TIP3    H130146   5.447   5.192   8.414 -1.4250 -0.2150  3.0120
 2837TIP3    H230147   5.463   5.093   8.300  1.8275  2.2212  1.1964
 2838TIP3   OH230148   6.692   5.365   7.711 -0.3805  0.7361  0.1533
 2838TIP3    H130149   6.779   5.363   7.673 -0.8316 -2.4295 -1.0820
 2838TIP3    H230150   6.633   5.358   7.636 -1.5227 -0.5999  1.1230
 2839TIP3   OH230151   3.401   4.008   6.688  0.1675 -0.1425 -0.1228
 2839TIP3    H130152   3.468   4.075   6.700  0.3069 -0.1617 -0.7338
 2839TIP3    H230153   3.430   3.935   6.744  0.6032 -0.1065 -0.2930
 2840TIP3   OH230154   4.600   0.439   7.450  0.3540  0.4186  0.2151
 2840TIP3    H130155   4.550   0.449   7.369  0.2877 -2.6791 -0.2681
 2840TIP3    H230156   4.644   0.522   7.462 -3.2305  2.6509 -0.4585
 2841TIP3   OH230157   4.293   4.007   8.168  0.7875  0.1406  0.3751
 2841TIP3    H130158   4.291   3.925   8.218 -0.7691  0.1189  0.3134
 2841TIP3    H230159   4.230   3.994   8.098  0.5676  1.3812  0.3233
 2842TIP3   OH230160   1.306   4.381   1.038  0.0195  0.3107 -0.0572
 2842TIP3    H130161   1.318   4.469   1.073  2.9970  0.4202 -1.0274
 2842TIP3    H230162   1.344   4.386   0.950  0.6960 -2.0440  0.0436
 2843TIP3   OH230163   0.936   0.627   0.125  0.1380 -0.1581  0.3248
 2843TIP3    H130164   1.015   0.646   0.076  0.2700 -1.1862  0.1172
 2843TIP3    H230165   0.867   0.674   0.079  0.3571 -0.6273 -0.4946
 2844TIP3   OH230166   0.140   1.410   1.319 -0.0595  0.0399 -0.1224
 2844TIP3    H130167   0.201   1.461   1.372  0.6475 -1.4640  0.5834
 2844TIP3    H230168   0.094   1.354   1.382  0.3796 -1.3695 -0.9944
 2845TIP3   OH230169   0.577   0.010   0.309 -0.0073 -0.1536 -0.6418
 2845TIP3    H130170   0.529  -0.048   0.368  0.4615  0.3757  0.2896
 2845TIP3    H230171   0.528   0.092   0.311  1.1661  0.5640  0.7247
 2846TIP3   OH230172   1.425   2.054   0.141  0.7701  0.0565 -0.2853
 2846TIP3    H130173   1.502   2.033   0.088  1.3308  0.0509  0.5062
 2846TIP3    H230174   1.351   2.028   0.088  1.2179  1.8301 -1.9056
 2847TIP3   OH230175   5.490   6.806   8.305  0.2075  0.7510 -0.0659
 2847TIP3    H130176   5.583   6.828   8.313  0.2781  0.2419  0.6058
 2847TIP3    H230177   5.488   6.727   8.252 -0.0072  1.9753 -1.9758
 2848TIP3   OH230178   3.779   0.667   1.580 -0.1273  0.1016 -0.6382
 2848TIP3    H130179   3.743   0.744   1.536  0.6813 -0.6990 -2.8013
 2848TIP3    H230180   3.813   0.701   1.663 -1.8916  1.6253 -0.4709
 2849TIP3   OH230181   6.794   5.036   1.309 -0.0836  0.0597  0.4546
 2849TIP3    H130182   6.782   4.993   1.394  1.0211  1.1293  1.1895
 2849TIP3    H230183   6.835   5.119   1.331 -0.1051  0.5049 -1.1209
 2850TIP3   OH230184   4.568   0.186   7.233  0.4073 -0.1327 -0.0219
 2850TIP3    H130185   4.593   0.116   7.293 -1.2851 -1.2779 -0.5698
 2850TIP3    H230186   4.648   0.208   7.186  1.3936 -0.3562  1.4751
 2851TIP3   OH230187   3.323   6.296   2.013 -0.4121  0.0944 -1.1556
 2851TIP3    H130188   3.338   6.334   1.927 -1.7964 -0.7281 -1.8088
 2851TIP3    H230189   3.251   6.233   1.999  0.3195 -1.1403  0.2925
 2852TIP3   OH230190   5.004   3.736   0.047 -0.1474 -0.1101  0.4270
 2852TIP3    H130191   4.957   3.810   0.087  0.1300  0.2531  0.0868
 2852TIP3    H230192   5.074   3.777  -0.004  0.7574 -0.6438  1.1861
 2853TIP3   OH230193   2.518   5.123   7.608 -0.6010 -0.1897 -0.4344
 2853TIP3    H130194   2.470   5.082   7.679 -1.1612  2.6361  0.9508
 2853TIP3    H230195   2.605   5.083   7.611 -0.5199  0.0344  2.0813
 2854TIP3   OH230196   2.748   0.768   1.727  0.4879  0.4501  0.3221
 2854TIP3    H130197   2.836   0.804   1.734 -0.1870  2.7429 -1.3057
 2854TIP3    H230198   2.724   0.783   1.635 -1.4671 -0.3788  0.6523
 2855TIP3   OH230199   4.395   2.155   7.883 -0.5480  0.2566  0.1028
 2855TIP3    H130200   4.432   2.238   7.853 -1.4770  1.2677  1.5541
 2855TIP3    H230201   4.417   2.092   7.815  1.5676  1.3376 -0.2960
 2856TIP3   OH230202   0.276   3.618   1.310 -0.1134  0.2407  0.7025
 2856TIP3    H130203   0.228   3.699   1.293  0.6903  0.4609 -0.7788
 2856TIP3    H230204   0.368   3.646   1.317  0.5002 -0.7107 -2.1845
 2857TIP3   OH230205   6.003   5.897   0.071  0.3362 -0.1236  0.1497
 2857TIP3    H130206   6.095   5.916   0.053  0.0239  1.1817 -0.1780
 2857TIP3    H230207   6.001   5.866   0.161  1.0944 -0.1722  0.1522
 2858TIP3   OH230208   2.053   2.788   0.319  0.0055  0.4590 -0.7992
 2858TIP3    H130209   2.078   2.845   0.246 -0.6188 -1.2083 -2.4026
 2858TIP3    H230210   2.115   2.808   0.388  2.7168 -0.1298 -2.8979
 2859TIP3   OH230211   2.820   5.184   0.110 -0.2575 -0.1686  0.4026
 2859TIP3    H130212   2.842   5.242   0.183  1.1230 -1.1434  0.8105
 2859TIP3    H230213   2.858   5.100   0.135  0.3866 -0.4910 -1.5014
 2860TIP3   OH230214   5.520   0.598   7.752  0.3534 -0.1292 -0.6295
 2860TIP3    H130215   5.500   0.539   7.825 -1.1232  0.6694 -0.3524
 2860TIP3    H230216   5.604   0.636   7.774 -0.0192  0.0185  0.6196
 2861TIP3   OH230217   6.800   3.572   8.205 -0.1624  0.2448 -0.2957
 2861TIP3    H130218   6.849   3.523   8.138 -1.7960 -3.2570  0.8812
 2861TIP3    H230219   6.708   3.561   8.180 -0.7727 -0.5825  2.0749
 2862TIP3   OH230220   6.622   5.007   7.176 -0.5001  0.6637  0.0633
 2862TIP3    H130221   6.663   5.076   7.230  1.7060 -0.9484  0.5874
 2862TIP3    H230222   6.686   4.989   7.108 -1.6788  0.0931 -0.9235
 2863TIP3   OH230223   2.373   6.137   7.843  0.1737  0.2311  0.2349
 2863TIP3    H130224   2.396   6.106   7.931 -1.6274 -0.4654  0.5031
 2863TIP3    H230225   2.432   6.089   7.784  0.5643 -0.2148  0.9700
 2864TIP3   OH230226   5.298   2.514   1.575  0.1144 -0.0513 -0.5803
 2864TIP3    H130227   5.268   2.583   1.516  0.3427  1.7212  1.2749
 2864TIP3    H230228   5.380   2.547   1.611  0.3383 -1.3891  0.1879
 2865TIP3   OH230229   5.907   4.960   7.634  0.3256  0.1535 -0.1811
 2865TIP3    H130230   5.975   4.905   7.595 -0.4909 -0.8230 -0.2731
 2865TIP3    H230231   5.846   4.898   7.674 -0.0532  1.0486  0.6639
 2866TIP3   OH230232   1.609   1.651   8.340 -0.2352  0.1614 -0.4579
 2866TIP3    H130233   1.616   1.555   8.340 -0.4147  0.1394 -1.9198
 2866TIP3    H230234   1.520   1.669   8.312 -0.1748  0.7741 -0.2704
 2867TIP3   OH230235   6.810   0.936   1.584  0.2097 -0.0124  0.3218
 2867TIP3    H130236   6.744   0.913   1.518 -0.5010  0.3331  0.8939
 2867TIP3    H230237   6.892   0.937   1.536  0.1677 -2.6686  0.0392
 2868TIP3   OH230238   1.249   5.769   0.126  0.8527 -0.5854 -0.2780
 2868TIP3    H130239   1.305   5.692   0.114 -0.5938 -1.6427 -0.5341
 2868TIP3    H230240   1.160   5.734   0.126  0.1635  1.0751 -0.1630
 2869TIP3   OH230241   0.878   6.193   1.124 -0.5261 -0.6891 -0.4284
 2869TIP3    H130242   0.930   6.229   1.196  2.0826 -1.2188 -1.9149
 2869TIP3    H230243   0.942   6.157   1.063 -2.7747 -3.8178 -1.2201
 2870TIP3   OH230244   3.215   5.178   0.673  0.5819  0.1346 -0.7323
 2870TIP3    H130245   3.240   5.102   0.725 -0.0371 -0.6529 -1.5522
 2870TIP3    H230246   3.276   5.177   0.599  1.0399  0.8626 -0.3646
 2871TIP3   OH230247   5.730   3.785   7.757  0.6384 -0.4182 -0.3594
 2871TIP3    H130248   5.664   3.737   7.707 -0.3988  3.2626 -2.9191
 2871TIP3    H230249   5.813   3.760   7.715  0.2428 -0.7206 -0.9919
 2872TIP3   OH230250   4.289   2.331   8.062  0.5747  0.5428  0.2430
 2872TIP3    H130251   4.298   2.257   8.001  1.0683 -0.6809  1.7139
 2872TIP3    H230252   4.370   2.381   8.050 -0.1828  1.4502 -1.4559
 2873TIP3   OH230253   5.421   5.427   0.867 -0.0441 -0.5597  0.5301
 2873TIP3    H130254   5.441   5.412   0.775 -0.3002  1.7138  0.0559
 2873TIP3    H230255   5.335   5.467   0.866 -0.3429 -1.1257  1.8387
 2874TIP3   OH230256   3.114   1.957   8.059  0.2949  0.0728 -0.1454
 2874TIP3    H130257   3.202   1.994   8.061  0.6293 -0.6629 -0.7978
 2874TIP3    H230258   3.064   2.016   8.004  0.1899  0.8799  0.7948
 2875TIP3   OH230259   6.678   5.769   7.610  0.0951  0.2838  0.7275
 2875TIP3    H130260   6.643   5.854   7.582  1.5035  0.1878 -1.5789
 2875TIP3    H230261   6.603   5.710   7.602 -0.4000  0.9361  0.3815
 2876TIP3   OH230262   5.207   0.195   7.817 -0.0748  0.2144 -0.2002
 2876TIP3    H130263   5.241   0.118   7.863  0.8346  0.8283  0.1962
 2876TIP3    H230264   5.175   0.162   7.734 -0.4828 -0.7182  0.3154
 2877TIP3   OH230265   2.304   2.058   2.066 -0.2935  0.7150  0.7766
 2877TIP3    H130266   2.394   2.064   2.033  0.0192 -1.7166  1.0281
 2877TIP3    H230267   2.256   2.010   1.999 -0.5287 -1.0198  2.0957
 2878TIP3   OH230268   1.102   2.696   7.530  0.0830  0.4620 -0.2923
 2878TIP3    H130269   1.064   2.748   7.460  2.6815 -0.9985 -2.9960
 2878TIP3    H230270   1.182   2.744   7.554  1.1441 -0.8922 -1.0027
 2879TIP3   OH230271   5.284   1.464   0.762  0.2853 -0.3187 -0.0142
 2879TIP3    H130272   5.327   1.546   0.787  1.0149 -0.6906 -0.0304
 2879TIP3    H230273   5.229   1.489   0.687  1.5339 -0.0950 -0.8898
 2880TIP3   OH230274   0.732   4.469   7.925  0.5189 -0.2446  0.0606
 2880TIP3    H130275   0.807   4.409   7.923  1.5638  1.0455 -0.8091
 2880TIP3    H230276   0.717   4.485   8.018  0.0951 -1.9719  0.3216
 2881TIP3   OH230277   4.281   5.414   0.316  0.4991 -0.1236 -1.0822
 2881TIP3    H130278   4.279   5.348   0.386  2.1350  0.3165 -0.5793
 2881TIP3    H230279   4.271   5.497   0.361 -1.1472  0.0403 -1.6791
 2882TIP3   OH230280   1.810   0.110   0.794  0.1062  0.7183  0.1735
 2882TIP3    H130281   1.872   0.099   0.867  0.0891 -0.1361  0.0683
 2882TIP3    H230282   1.865   0.104   0.716 -0.1300 -0.2980  0.0717
 2883TIP3   OH230283   0.466   6.835   8.353  0.2019  0.0904 -0.3024
 2883TIP3    H130284   0.538   6.840   8.291 -1.0784 -0.0882 -1.8765
 2883TIP3    H230285   0.398   6.891   8.315 -0.1249  1.0980  1.6699
 2884TIP3   OH230286   4.346   1.553   1.639 -0.0345 -0.7279 -0.5582
 2884TIP3    H130287   4.350   1.544   1.734  0.5770  1.3384 -0.3551
 2884TIP3    H230288   4.315   1.467   1.609  1.9736 -2.2198  1.2939
 2885TIP3   OH230289   4.844   6.636   8.150 -0.1800  0.4159 -0.3760
 2885TIP3    H130290   4.840   6.711   8.091 -2.0229  1.4136  0.9049
 2885TIP3    H230291   4.753   6.607   8.158 -0.0045  0.3037  1.8814
 2886TIP3   OH230292   0.564   2.464   7.965  0.0894  0.0543  0.2183
 2886TIP3    H130293   0.594   2.447   7.875 -0.2329  1.3643 -0.1596
 2886TIP3    H230294   0.534   2.555   7.963  0.4220  0.2223  1.7532
 2887TIP3   OH230295   4.135   1.252   7.855 -0.2241 -0.2014 -0.2612
 2887TIP3    H130296   4.226   1.225   7.861 -0.2977 -0.5523 -0.6494
 2887TIP3    H230297   4.087   1.183   7.900 -0.2747  0.1590  0.2532
 2888TIP3   OH230298   3.183   1.260   0.754  0.0751  0.3329 -0.8742
 2888TIP3    H130299   3.102   1.282   0.708  0.1509  3.2685  0.2310
 2888TIP3    H230300   3.158   1.254   0.846  0.8975  0.0341 -0.6603
 2889TIP3   OH230301   2.115   6.502   7.305  0.3127  0.2405  0.2411
 2889TIP3    H130302   2.145   6.494   7.396  0.4360 -0.7403  0.1219
 2889TIP3    H230303   2.193   6.530   7.257  0.0880  1.4124  0.5305
 2890TIP3   OH230304   6.077   6.769   1.572  0.5955 -0.6414  0.0932
 2890TIP3    H130305   6.082   6.826   1.495 -1.8403  0.0152  0.3419
 2890TIP3    H230306   6.114   6.686   1.542  2.8097  0.5552 -0.7365
 2891TIP3   OH230307   1.421   1.772   1.995  0.2498 -0.0710 -0.0602
 2891TIP3    H130308   1.381   1.757   1.910 -2.5333 -0.6841  1.2511
 2891TIP3    H230309   1.440   1.866   1.997 -1.3461  0.3004 -0.7183
 2892TIP3   OH230310   3.856   0.159   0.310  0.1029 -0.2911 -0.2033
 2892TIP3    H130311   3.835   0.095   0.241  0.3919  0.3464 -0.8870
 2892TIP3    H230312   3.808   0.127   0.387 -1.1012 -0.4092 -0.9847
 2893TIP3   OH230313   5.144   4.278   6.774 -0.1806  0.0473 -0.8891
 2893TIP3    H130314   5.190   4.361   6.761  1.2980 -1.1897 -4.9277
 2893TIP3    H230315   5.060   4.291   6.729 -0.2902 -0.3861 -0.8101
 2894TIP3   OH230316   3.585   0.432   0.586 -0.1066  0.0499  0.4134
 2894TIP3    H130317   3.630   0.426   0.670  0.4054 -0.3097  0.1212
 2894TIP3    H230318   3.559   0.524   0.580  1.8484  0.6406 -0.0133
 2895TIP3   OH230319   5.135   0.559   8.289 -0.6318 -0.1690  0.2975
 2895TIP3    H130320   5.067   0.621   8.264  1.2761  2.0470  0.1568
 2895TIP3    H230321   5.114   0.534   8.379 -1.3695  0.8773  0.4329
 2896TIP3   OH230322   2.233   3.106   1.249  0.1756 -0.2836 -0.1263
 2896TIP3    H130323   2.180   3.069   1.178 -0.1023  1.2133 -0.7339
 2896TIP3    H230324   2.321   3.113   1.212 -0.1876  1.4966 -0.7427
 2897TIP3   OH230325   3.894   5.344   1.312 -0.2450 -0.0462 -0.3393
 2897TIP3    H130326   3.954   5.313   1.380 -0.3280  1.5727  0.5106
 2897TIP3    H230327   3.811   5.357   1.357 -0.7307 -0.4300 -1.0988
 2898TIP3   OH230328   1.751   5.673   0.317 -0.4861  0.3911  0.6035
 2898TIP3    H130329   1.682   5.686   0.251 -1.8544  0.5294  2.0175
 2898TIP3    H230330   1.740   5.746   0.378  1.4874  0.9060  0.4178
 2899TIP3   OH230331   6.295   2.637   1.921 -0.5242  0.2244 -0.2804
 2899TIP3    H130332   6.281   2.549   1.955  2.3578 -0.6001 -0.9934
 2899TIP3    H230333   6.328   2.687   1.996 -1.1572  0.4261 -0.1311
 2900TIP3   OH230334   2.878   3.648   1.691 -0.1931 -0.6453 -0.2988
 2900TIP3    H130335   2.880   3.731   1.740  0.6797 -0.4929 -0.5643
 2900TIP3    H230336   2.970   3.629   1.674 -0.4762 -0.5452 -2.1262
 2901TIP3   OH230337   5.079   1.346   0.947  0.6691 -0.7121 -0.3413
 2901TIP3    H130338   5.150   1.408   0.929 -0.0411  0.5500  0.9632
 2901TIP3    H230339   5.040   1.329   0.861  1.4492 -0.0400 -0.8470
 2902TIP3   OH230340   1.469   1.907   0.379  0.2592 -0.1603 -0.0955
 2902TIP3    H130341   1.448   1.979   0.438  0.9255  0.3402 -0.4565
 2902TIP3    H230342   1.444   1.939   0.292 -0.5397 -0.8206 -0.1280
 2903TIP3   OH230343   6.078   0.051   1.853  0.5725 -0.3465 -0.7259
 2903TIP3    H130344   6.020  -0.024   1.868 -1.5724  1.4006  0.4985
 2903TIP3    H230345   6.040   0.095   1.777  1.2812 -0.0498 -0.9101
 2904TIP3   OH230346   5.156   3.452   2.091  0.2920 -0.4213 -0.3121
 2904TIP3    H130347   5.161   3.374   2.146 -3.6223 -0.6243  0.0248
 2904TIP3    H230348   5.114   3.518   2.146 -1.6303  0.0754 -2.2114
 2905TIP3   OH230349   1.976   6.944   7.665 -0.7847 -0.0034  0.3293
 2905TIP3    H130350   1.959   6.925   7.757 -2.6239 -1.0581 -0.1645
 2905TIP3    H230351   2.034   6.874   7.637 -0.6204  0.0341  0.5765
 2906TIP3   OH230352   5.380   3.804   6.594 -0.4212  0.1913 -0.1662
 2906TIP3    H130353   5.356   3.862   6.666  1.0343 -0.6774  1.1069
 2906TIP3    H230354   5.473   3.823   6.578 -0.5704 -0.0483 -1.4243
 2907TIP3   OH230355   5.898   1.760   7.382 -0.1290 -0.9625 -0.5245
 2907TIP3    H130356   5.851   1.715   7.453  1.3782 -2.2992 -0.3156
 2907TIP3    H230357   5.834   1.762   7.310 -1.5504  0.0678  0.7035
 2908TIP3   OH230358   0.601   4.402   7.586  0.2004 -0.2627 -0.3505
 2908TIP3    H130359   0.538   4.359   7.528 -1.1832  0.0795  0.8221
 2908TIP3    H230360   0.547   4.455   7.644  1.6106  0.2237  0.5660
 2909TIP3   OH230361   6.857   1.047   0.876  0.4112 -0.2550 -0.1033
 2909TIP3    H130362   6.865   1.032   0.782 -2.1988  1.2356 -0.6688
 2909TIP3    H230363   6.849   1.142   0.884  0.4794 -0.3717  1.6224
 2910TIP3   OH230364   6.985   1.923   7.629 -0.4453 -0.3098  0.1703
 2910TIP3    H130365   6.915   1.915   7.694 -0.5031  0.6702  0.2459
 2910TIP3    H230366   7.000   2.017   7.622  0.3591 -0.4727 -0.3926
 2911TIP3   OH230367   6.778   5.328   1.151  0.1107  0.1393  0.4008
 2911TIP3    H130368   6.803   5.296   1.064 -1.5869  0.1257 -0.1051
 2911TIP3    H230369   6.856   5.314   1.205  0.5562 -1.6622 -0.6463
 2912TIP3   OH230370   3.250   3.333   7.874 -0.3910  0.1803  0.1290
 2912TIP3    H130371   3.238   3.239   7.884  0.7570 -0.0015 -0.0386
 2912TIP3    H230372   3.258   3.367   7.963 -1.5287  0.2384  0.2208
 2913TIP3   OH230373   0.755   5.465   0.988 -0.2958  0.1659  0.5960
 2913TIP3    H130374   0.717   5.395   0.935  0.8202  0.5822 -0.8376
 2913TIP3    H230375   0.849   5.460   0.969 -0.1844  2.0001  0.5125
 2914TIP3   OH230376   0.870   0.982   1.565  1.0015 -0.3554  0.2372
 2914TIP3    H130377   0.860   1.030   1.647  1.7809  1.9097 -0.8717
 2914TIP3    H230378   0.939   1.031   1.519  1.1332 -2.0280 -1.4242
 2915TIP3   OH230379   3.632   4.399   0.380  0.2579 -0.1728 -0.1424
 2915TIP3    H130380   3.668   4.476   0.423 -1.3700 -0.2609  1.5003
 2915TIP3    H230381   3.687   4.387   0.302  1.7628  1.4643  0.5955
 2916TIP3   OH230382   6.241   5.278   7.098  0.0705 -0.3469  0.0777
 2916TIP3    H130383   6.329   5.245   7.119  0.2049 -0.1051 -0.0967
 2916TIP3    H230384   6.255   5.337   7.025 -0.1485  0.2221  0.4906
 2917TIP3   OH230385   4.923   4.061   1.196  0.1533 -0.0478  0.0919
 2917TIP3    H130386   4.882   4.121   1.134  0.9457  1.0035  0.5438
 2917TIP3    H230387   4.900   4.096   1.282  2.7442  1.2052  0.3850
 2918TIP3   OH230388   2.797   5.412   1.769 -0.5280  0.4739 -0.4274
 2918TIP3    H130389   2.794   5.416   1.864 -1.5232  1.3529 -0.4799
 2918TIP3    H230390   2.722   5.358   1.745 -0.3824  0.4031 -0.7329
 2919TIP3   OH230391   1.208   1.388   6.755  0.4117 -0.1687  0.3918
 2919TIP3    H130392   1.223   1.460   6.693 -2.2358  0.6930  0.6195
 2919TIP3    H230393   1.166   1.320   6.702  3.3672 -1.9315  0.0502
 2920TIP3   OH230394   6.643   2.199   7.191  0.1902  0.8287 -0.7087
 2920TIP3    H130395   6.734   2.178   7.211  0.4953  1.4439 -1.4038
 2920TIP3    H230396   6.597   2.189   7.274  0.5417 -1.2569 -0.7020
 2921TIP3   OH230397   0.310   5.421   0.753  0.1074  0.2194 -0.0369
 2921TIP3    H130398   0.291   5.378   0.837  0.0821  0.2779 -0.0119
 2921TIP3    H230399   0.316   5.514   0.776 -0.8876  0.3434 -0.2649
 2922TIP3   OH230400   1.845   0.922   0.585  0.4049  0.3381  0.5859
 2922TIP3    H130401   1.819   0.853   0.525 -1.4439 -0.4278  2.1331
 2922TIP3    H230402   1.936   0.903   0.608  1.1330  0.6215 -1.8234
 2923TIP3   OH230403   0.368   3.807   1.031  0.4459 -0.7179 -0.3198
 2923TIP3    H130404   0.398   3.804   1.122 -0.9855 -1.4489  0.1624
 2923TIP3    H230405   0.446   3.788   0.980  1.7244  1.5428  0.6095
 2924TIP3   OH230406   6.427   5.358   2.009  0.6929 -0.0412 -0.3497
 2924TIP3    H130407   6.500   5.314   2.052  0.3983 -0.4556 -0.2580
 2924TIP3    H230408   6.443   5.451   2.024  1.5423 -0.0904 -0.8981
 2925TIP3   OH230409   0.428   6.705   6.596 -0.0150 -0.0197  0.1074
 2925TIP3    H130410   0.364   6.738   6.532 -1.6292 -1.8661  0.6639
 2925TIP3    H230411   0.410   6.756   6.675  1.1954  1.4535 -0.5244
 2926TIP3   OH230412   1.587   6.477   7.895 -0.2002  0.2913  0.1862
 2926TIP3    H130413   1.550   6.436   7.818 -0.2422 -0.4245  0.5828
 2926TIP3    H230414   1.633   6.555   7.861 -1.2451  0.6641 -0.4056
 2927TIP3   OH230415   4.525   3.940   2.394  0.1339  0.4681 -0.7921
 2927TIP3    H130416   4.616   3.911   2.402 -0.1758 -0.6398 -1.0447
 2927TIP3    H230417   4.490   3.935   2.483 -0.4771 -1.9803 -1.1021
 2928TIP3   OH230418   2.902   4.317   7.950 -0.4416  0.4849  0.2942
 2928TIP3    H130419   2.946   4.397   7.922 -1.0604  0.8401  0.3057
 2928TIP3    H230420   2.809   4.337   7.942 -0.6162  0.0462  1.0664
 2929TIP3   OH230421   0.944   4.412   6.792 -0.1356  0.3927 -0.2641
 2929TIP3    H130422   0.910   4.325   6.774  0.6936 -0.1330  0.6265
 2929TIP3    H230423   1.031   4.413   6.755 -0.2414  0.9448 -0.5142
 2930TIP3   OH230424   6.152   1.314   1.179 -0.0673 -0.0686 -0.6302
 2930TIP3    H130425   6.240   1.301   1.214 -0.5550  0.1027  0.7382
 2930TIP3    H230426   6.096   1.318   1.257 -1.2725 -0.0860 -1.4702
 2931TIP3   OH230427   4.121   0.814   7.342 -0.5043 -0.0949  0.2422
 2931TIP3    H130428   4.058   0.743   7.327  1.0914 -1.6519  0.5453
 2931TIP3    H230429   4.187   0.776   7.401  2.0870  0.5351 -2.0103
 2932TIP3   OH230430   4.144   3.931   1.831 -0.3439 -0.1515 -0.8002
 2932TIP3    H130431   4.187   3.847   1.821  0.0155  0.2755 -3.7830
 2932TIP3    H230432   4.065   3.924   1.778  0.3708  1.7704 -2.2216
 2933TIP3   OH230433   1.162   4.327   2.210 -0.1476 -0.2217  0.3003
 2933TIP3    H130434   1.069   4.313   2.228 -0.3600  0.7819  0.0615
 2933TIP3    H230435   1.196   4.241   2.188 -1.3146 -0.3979 -0.9132
 2934TIP3   OH230436   2.772   6.050   8.295 -0.1745 -0.0622 -0.3449
 2934TIP3    H130437   2.837   5.999   8.343  0.4962  0.6295 -0.5059
 2934TIP3    H230438   2.748   5.994   8.221  0.6698 -0.0863 -0.6088
 2935TIP3   OH230439   2.730   4.380   1.013  0.0489 -0.0191  0.0099
 2935TIP3    H130440   2.670   4.419   1.077  0.5282 -1.2091  1.2209
 2935TIP3    H230441   2.800   4.445   1.004  0.9772 -0.6105  2.2105
 2936TIP3   OH230442   2.316   0.247   1.043 -0.0696 -0.3105  0.1446
 2936TIP3    H130443   2.379   0.205   1.103  0.5733  0.8499  0.2963
 2936TIP3    H230444   2.280   0.319   1.094  0.8182  0.9822 -0.9991
 2937TIP3   OH230445   3.170   5.775   7.874 -0.1465  0.0376  0.0034
 2937TIP3    H130446   3.178   5.728   7.791 -1.8252  2.2445 -1.5530
 2937TIP3    H230447   3.076   5.774   7.893  0.1347  0.1634  1.5522
 2938TIP3   OH230448   2.123   5.029   1.964  0.5600 -0.2008 -0.4081
 2938TIP3    H130449   2.095   5.105   1.914  4.6132  0.0357 -2.6312
 2938TIP3    H230450   2.102   5.052   2.055 -0.3294  2.5752 -1.2130
 2939TIP3   OH230451   6.530   2.776   0.102  0.7203  0.4732  0.1499
 2939TIP3    H130452   6.612   2.726   0.099 -1.1199 -2.8652  0.8260
 2939TIP3    H230453   6.493   2.766   0.014  0.4651  0.9088  0.2062
 2940TIP3   OH230454   1.872   6.642   6.738 -0.2078  0.2491  0.1687
 2940TIP3    H130455   1.847   6.607   6.823  0.6925 -1.8610 -0.3825
 2940TIP3    H230456   1.790   6.648   6.690 -0.4569 -0.6137  0.4729
 2941TIP3   OH230457   3.052   2.990   0.711 -0.5346 -0.5940 -0.1137
 2941TIP3    H130458   3.106   3.011   0.788 -2.0320 -0.0010  0.8054
 2941TIP3    H230459   3.105   3.019   0.636  0.8188 -0.8860  0.6861
 2942TIP3   OH230460   0.711   3.228   7.632 -0.1044 -0.1879 -0.1856
 2942TIP3    H130461   0.635   3.263   7.585  0.1747  1.6682  0.6781
 2942TIP3    H230462   0.676   3.153   7.681 -1.8744  1.7635  1.7019
 2943TIP3   OH230463   0.109   5.259   8.022 -0.1843 -0.2631 -0.1822
 2943TIP3    H130464   0.087   5.289   7.934 -0.8809  0.2023  0.1374
 2943TIP3    H230465   0.025   5.238   8.062  0.0461  0.3145  0.6431
 2944TIP3   OH230466   4.249   0.708   0.188 -0.0340 -0.4158 -1.1555
 2944TIP3    H130467   4.167   0.726   0.234  0.5109  1.2964 -0.7786
 2944TIP3    H230468   4.254   0.776   0.121  1.0723 -0.5013 -1.1782
 2945TIP3   OH230469   4.119   4.851   8.291  0.2837  0.4752 -0.2547
 2945TIP3    H130470   4.042   4.892   8.252 -1.7266 -1.9218  0.9521
 2945TIP3    H230471   4.119   4.880   8.382  1.5183  1.3417 -0.5016
 2946TIP3   OH230472   6.209   6.768   7.617  0.2928 -0.1995 -0.1234
 2946TIP3    H130473   6.297   6.751   7.651  0.0578 -0.1438  0.5238
 2946TIP3    H230474   6.210   6.731   7.529  1.4374  1.1361 -0.7024
 2947TIP3   OH230475   5.726   3.334   7.411  0.1798 -0.4755 -0.0759
 2947TIP3    H130476   5.631   3.334   7.423  0.3898 -0.1764  2.0512
 2947TIP3    H230477   5.754   3.249   7.444  0.7101 -0.3294 -0.1482
 2948TIP3   OH230478   5.193   3.716   0.290 -0.1024  0.7538 -1.0452
 2948TIP3    H130479   5.107   3.717   0.331 -0.7922 -0.4275 -2.3849
 2948TIP3    H230480   5.177   3.746   0.200  0.3490 -2.1045 -2.1806
 2949TIP3   OH230481   2.327   6.917   2.448 -0.4961  0.0696 -0.3667
 2949TIP3    H130482   2.388   6.970   2.499  0.5715 -3.0442  1.8913
 2949TIP3    H230483   2.305   6.972   2.372  3.8169  2.0396 -0.5014
 2950TIP3   OH230484   2.681   4.696   2.610  0.5993  0.0869  0.2367
 2950TIP3    H130485   2.625   4.623   2.584  0.1261  0.3985  0.3807
 2950TIP3    H230486   2.747   4.656   2.667  1.3112 -0.5044 -0.9741
 2951TIP3   OH230487   6.251   5.040   7.638 -0.2518 -0.0502  0.4311
 2951TIP3    H130488   6.224   4.965   7.585  2.2109 -0.3365 -0.5500
 2951TIP3    H230489   6.192   5.111   7.611  0.5053 -0.3649 -2.2714
 2952TIP3   OH230490   4.116   4.320   7.669  0.1847  0.0279 -0.0763
 2952TIP3    H130491   4.167   4.271   7.605  1.2001 -1.7417  1.9811
 2952TIP3    H230492   4.159   4.405   7.674 -0.7059  0.7450 -2.5987
 2953TIP3   OH230493   5.212   1.358   1.238  0.7656  0.1261 -0.0176
 2953TIP3    H130494   5.222   1.437   1.185 -2.1667  0.6673  0.0851
 2953TIP3    H230495   5.196   1.288   1.175 -0.2149  0.3109  0.0084
 2954TIP3   OH230496   3.610   0.209   6.752 -0.3242  0.3448  0.1228
 2954TIP3    H130497   3.516   0.226   6.751 -0.1848  1.8873  2.9511
 2954TIP3    H230498   3.625   0.153   6.676 -3.6165 -0.5192 -0.0505
 2955TIP3   OH230499   5.147   2.387   0.760 -0.1265 -0.0318 -0.0880
 2955TIP3    H130500   5.183   2.364   0.846  2.6280  0.7392 -0.9179
 2955TIP3    H230501   5.160   2.308   0.707  0.9598  0.4357 -0.5466
 2956TIP3   OH230502   1.935   1.785   8.194  0.9661 -0.1099 -0.3628
 2956TIP3    H130503   2.015   1.823   8.228 -0.2038  2.5018 -0.3055
 2956TIP3    H230504   1.926   1.823   8.106 -0.1496 -0.4322 -0.4046
 2957TIP3   OH230505   2.172   4.008   7.987  0.7829  0.2461  0.0870
 2957TIP3    H130506   2.178   4.076   8.054 -1.1901 -0.4882  1.0902
 2957TIP3    H230507   2.200   4.050   7.906  1.7656  1.5889  1.0883
 2958TIP3   OH230508   3.826   6.182   6.747  0.1764  0.0339 -0.3349
 2958TIP3    H130509   3.815   6.275   6.765  0.6940  0.2351 -1.0163
 2958TIP3    H230510   3.739   6.151   6.723  0.0323  0.3743 -0.2443
 2959TIP3   OH230511   1.865   5.657   7.088 -0.3805 -0.2665 -0.4560
 2959TIP3    H130512   1.831   5.740   7.054 -0.6918 -0.4792 -0.6763
 2959TIP3    H230513   1.955   5.653   7.056 -0.4576 -0.1493 -0.6938
 2960TIP3   OH230514   0.696   5.651   6.987  0.3220  0.0961  0.0746
 2960TIP3    H130515   0.615   5.693   6.959 -0.9676 -2.4405 -0.3639
 2960TIP3    H230516   0.671   5.597   7.062  2.0115  0.5981  1.0584
 2961TIP3   OH230517   2.293   5.947   7.408 -0.5225  0.1091  0.3348
 2961TIP3    H130518   2.254   6.028   7.375 -0.5576 -0.5998 -1.4548
 2961TIP3    H230519   2.240   5.878   7.368  0.7133 -0.8166  0.2775
 2962TIP3   OH230520   4.213   2.136   8.406 -0.3848 -0.6126 -0.1137
 2962TIP3    H130521   4.157   2.058   8.414  0.4095 -1.1805  0.0784
 2962TIP3    H230522   4.211   2.175   8.493 -2.5710  0.8769 -0.7599
 2963TIP3   OH230523   0.389   2.338   1.278  0.5695  1.0842  0.8415
 2963TIP3    H130524   0.462   2.276   1.270  0.4651  1.1236 -0.6206
 2963TIP3    H230525   0.343   2.332   1.195 -0.4506  1.8917  1.3272
 2964TIP3   OH230526   1.869   3.150   7.180  0.6927 -0.1319  0.8021
 2964TIP3    H130527   1.875   3.219   7.114  1.5442 -1.5652 -0.6994
 2964TIP3    H230528   1.842   3.073   7.131 -1.3120 -0.6810  2.6136
 2965TIP3   OH230529   2.794   1.169   0.985  0.1970  0.2792  0.5035
 2965TIP3    H130530   2.772   1.091   0.935 -1.1073 -0.5333  2.2382
 2965TIP3    H230531   2.860   1.214   0.932 -0.0904 -1.2307 -1.2265
 2966TIP3   OH230532   6.797   1.247   0.488 -1.1395  0.0208 -0.9777
 2966TIP3    H130533   6.762   1.318   0.541  0.2363  0.1529 -0.1829
 2966TIP3    H230534   6.768   1.266   0.399 -3.2243 -0.0311 -0.3458
 2967TIP3   OH230535   4.387   1.093   1.294  0.3087 -0.0008  0.4917
 2967TIP3    H130536   4.367   1.052   1.210  1.6714 -0.1187  0.2141
 2967TIP3    H230537   4.329   1.169   1.297  0.7360  0.4036 -0.8694
 2968TIP3   OH230538   0.015   1.766   7.040 -0.3564 -0.0105 -0.2422
 2968TIP3    H130539  -0.031   1.691   7.078  0.9164 -1.1961 -0.9541
 2968TIP3    H230540   0.070   1.728   6.971  3.6992  0.8407  2.1759
 2969TIP3   OH230541   1.849   3.456   1.602  0.1708 -0.0861 -0.0055
 2969TIP3    H130542   1.842   3.510   1.523  1.6867  1.2137  0.7154
 2969TIP3    H230543   1.767   3.471   1.649 -1.3744 -1.9072 -1.8825
 2970TIP3   OH230544   5.043   2.786   0.157  0.0157 -0.0112 -0.4229
 2970TIP3    H130545   5.010   2.799   0.068 -0.0246  1.6018 -0.2009
 2970TIP3    H230546   5.099   2.709   0.151  1.9055  1.3853 -2.3878
 2971TIP3   OH230547   1.393   0.072   7.223  0.6847 -0.1954  0.2905
 2971TIP3    H130548   1.358   0.007   7.284  2.6343 -1.0978  0.5359
 2971TIP3    H230549   1.471   0.030   7.186  0.9637  1.3178 -0.9368
 2972TIP3   OH230550   3.920   5.151   2.508  0.6508  0.1519  0.0682
 2972TIP3    H130551   3.896   5.202   2.431  2.0157  1.4851  0.4714
 2972TIP3    H230552   3.840   5.146   2.559 -0.1136 -0.2123 -1.1304
 2973TIP3   OH230553   6.056   0.207   6.686 -0.4904 -0.8111  0.1822
 2973TIP3    H130554   6.074   0.136   6.748  1.0717 -0.3607  0.2880
 2973TIP3    H230555   5.989   0.260   6.730  2.0750  0.7307  2.6366
 2974TIP3   OH230556   2.739   2.010   1.647  0.3131  0.2568  0.3465
 2974TIP3    H130557   2.823   1.974   1.618  0.5160  0.6275  0.4623
 2974TIP3    H230558   2.746   2.013   1.743  0.1009  0.1318  0.3678
 2975TIP3   OH230559   3.268   2.202   7.238  0.1178  0.1222 -0.0616
 2975TIP3    H130560   3.179   2.170   7.253  0.5701 -1.7264 -0.9845
 2975TIP3    H230561   3.322   2.155   7.302  0.3893  1.5989  0.8297
 2976TIP3   OH230562   0.717   2.729   1.694 -0.1413 -0.0678  0.1912
 2976TIP3    H130563   0.802   2.691   1.670  0.6065  1.4494  0.3262
 2976TIP3    H230564   0.714   2.721   1.789 -0.8146 -1.3990  0.0891
 2977TIP3   OH230565   1.618   3.013   1.148 -0.1172  0.1524  0.0406
 2977TIP3    H130566   1.683   2.946   1.129  0.1986  0.6712 -0.7632
 2977TIP3    H230567   1.567   3.021   1.068  1.4831  2.6537 -0.8492
 2978TIP3   OH230568   4.317   2.534   0.882 -0.2058  0.4698 -0.2351
 2978TIP3    H130569   4.265   2.468   0.927  1.1262  0.3669  1.2575
 2978TIP3    H230570   4.355   2.587   0.952 -1.3503  2.9696 -1.3850
 2979TIP3   OH230571   6.479   6.698   8.389  0.0282 -0.0053  0.1416
 2979TIP3    H130572   6.424   6.624   8.414  1.0701 -1.3316 -1.3245
 2979TIP3    H230573   6.462   6.711   8.296 -0.9687  2.3882  0.5735
 2980TIP3   OH230574   4.658   2.019   1.211  0.3924 -0.0575 -0.3408
 2980TIP3    H130575   4.702   2.096   1.248 -0.9523  1.3603 -1.5000
 2980TIP3    H230576   4.695   2.011   1.123 -0.0905 -0.1817 -0.5363
 2981TIP3   OH230577   5.674   4.473   0.118 -0.0279  0.0967 -0.4456
 2981TIP3    H130578   5.719   4.442   0.197  0.0257 -0.9032 -0.8606
 2981TIP3    H230579   5.697   4.566   0.112  0.5339  0.0121  0.3293
 2982TIP3   OH230580   6.945   6.250   6.454  0.2927  0.0970  0.5763
 2982TIP3    H130581   7.008   6.319   6.475  1.5619 -1.2605  1.3516
 2982TIP3    H230582   6.990   6.169   6.476 -1.0505 -1.0134 -0.6467
 2983TIP3   OH230583   5.422   5.482   7.827  0.1137 -0.0334  0.5801
 2983TIP3    H130584   5.335   5.446   7.810  0.2553  1.0440 -3.6474
 2983TIP3    H230585   5.480   5.405   7.825 -0.3720 -0.3951 -0.6520
 2984TIP3   OH230586   6.961   1.656   6.553 -0.1798  0.3877  0.3918
 2984TIP3    H130587   6.867   1.666   6.570 -0.4142 -3.2251  2.0848
 2984TIP3    H230588   6.965   1.595   6.479  0.7971 -0.5568  1.2025
 2985TIP3   OH230589   2.809   6.722   7.444  0.4118 -0.2480  0.0167
 2985TIP3    H130590   2.901   6.714   7.469  0.0652 -0.5534  1.2815
 2985TIP3    H230591   2.801   6.810   7.408  0.6190  0.9374  2.6303
 2986TIP3   OH230592   4.059   1.752   0.850 -0.2038 -0.1920  0.4193
 2986TIP3    H130593   4.089   1.662   0.835 -0.0764  0.0376 -0.8281
 2986TIP3    H230594   4.138   1.805   0.842  0.5494 -0.1997  4.9962
 2987TIP3   OH230595   0.697   4.630   1.348  0.1480 -0.6426 -0.4410
 2987TIP3    H130596   0.672   4.607   1.437  1.2908  0.0702  0.0950
 2987TIP3    H230597   0.756   4.705   1.359 -0.6851  0.2577 -1.8813
 2988TIP3   OH230598   0.717   1.695   6.765 -0.0185 -0.4848  0.3703
 2988TIP3    H130599   0.792   1.635   6.758  1.8642  1.7593 -0.0931
 2988TIP3    H230600   0.693   1.714   6.674 -1.2900 -1.3033  0.5190
 2989TIP3   OH230601   2.689   3.603   1.451 -0.6170 -0.7264  0.6663
 2989TIP3    H130602   2.631   3.527   1.460  0.0777 -1.1218  2.0813
 2989TIP3    H230603   2.761   3.585   1.512  0.5335  0.1844 -0.3686
 2990TIP3   OH230604   6.331   3.597   8.368 -0.1712  0.0795 -0.0452
 2990TIP3    H130605   6.410   3.560   8.407  1.6017  3.8741  0.4120
 2990TIP3    H230606   6.360   3.634   8.285 -2.5620 -2.2956 -2.1240
 2991TIP3   OH230607   5.659   2.164   2.137  0.2996 -0.0562  0.6982
 2991TIP3    H130608   5.659   2.129   2.226 -2.5102  0.5330  1.0113
 2991TIP3    H230609   5.574   2.139   2.101 -0.2770  3.1289 -0.4082
 2992TIP3   OH230610   2.970   1.188   7.390 -0.1590  0.0826  0.3795
 2992TIP3    H130611   2.925   1.257   7.341 -0.9841 -0.2087  0.7176
 2992TIP3    H230612   3.023   1.234   7.454  0.6579  0.4584 -0.5368
 2993TIP3   OH230613   3.904   5.011   1.231 -0.0141  0.7511  0.0603
 2993TIP3    H130614   3.842   4.974   1.168 -0.3224  3.1088 -1.1579
 2993TIP3    H230615   3.849   5.062   1.291  0.5671  1.2962  0.1456
 2994TIP3   OH230616   4.416   4.062   2.125 -0.2090  0.1562  0.2951
 2994TIP3    H130617   4.487   4.039   2.186 -0.2719 -0.4635  0.1375
 2994TIP3    H230618   4.338   4.067   2.180  0.0615  1.5557  0.5967
 2995TIP3   OH230619   2.240   5.653   2.065  0.1339  0.8808 -0.4633
 2995TIP3    H130620   2.315   5.710   2.047 -0.3073  1.2975 -0.9854
 2995TIP3    H230621   2.227   5.605   1.983  0.3060  0.2491 -0.1267
 2996TIP3   OH230622   1.641   3.013   0.597 -0.1257  0.1186  0.4689
 2996TIP3    H130623   1.690   2.995   0.517 -0.5732  0.9363  0.0029
 2996TIP3    H230624   1.703   3.059   0.653  0.7037 -1.8501  1.2659
 2997TIP3   OH230625   2.982   0.074   0.835  0.1084  0.4962 -0.6883
 2997TIP3    H130626   2.919   0.098   0.766 -0.0604 -0.6526 -0.9621
 2997TIP3    H230627   3.020   0.157   0.862 -0.3798  1.0576 -1.6384
 2998TIP3   OH230628   1.556   6.668   7.164 -0.1619  0.1366 -0.2957
 2998TIP3    H130629   1.564   6.610   7.088  0.1740  1.6275 -1.4385
 2998TIP3    H230630   1.570   6.756   7.128  0.7465  0.8167  1.6266
 2999TIP3   OH230631   0.566   3.024   7.437 -0.2497 -0.0715 -0.0556
 2999TIP3    H130632   0.569   2.953   7.374 -0.7089  0.1662 -0.3525
 2999TIP3    H230633   0.509   2.991   7.507  2.2284 -1.3333  1.5126
 3000TIP3   OH230634   2.144   1.880   1.802 -0.1103 -0.0775 -0.2189
 3000TIP3    H130635   2.138   1.816   1.873 -0.0928 -0.9671 -1.0028
 3000TIP3    H230636   2.237   1.882   1.778  0.2278  1.6551  1.0438
 3001TIP3   OH230637   5.109   5.974   7.221 -0.5253 -0.1120 -0.8689
 3001TIP3    H130638   5.090   6.018   7.304  1.3579  0.3493 -0.6426
 3001TIP3    H230639   5.127   5.883   7.245 -0.3656 -0.0665 -0.8149
 3002TIP3   OH230640   6.603   5.968   0.443  0.5679 -0.1805  0.0624
 3002TIP3    H130641   6.649   5.914   0.507 -0.7977 -2.7528 -0.9773
 3002TIP3    H230642   6.511   5.950   0.457 -0.0629  2.6256  0.1878
 3003TIP3   OH230643   2.352   4.476   0.676 -0.3920  0.4954 -0.1165
 3003TIP3    H130644   2.358   4.404   0.613 -1.4855 -0.6302  1.0039
 3003TIP3    H230645   2.360   4.555   0.623 -1.4073 -0.3962 -1.6743
 3004TIP3   OH230646   3.608   0.794   0.878 -0.0025  0.7119 -0.5569
 3004TIP3    H130647   3.570   0.756   0.799 -0.0611  0.4534 -0.4072
 3004TIP3    H230648   3.635   0.882   0.852  2.0677 -0.1282 -1.4937
 3005TIP3   OH230649   5.064   5.574   7.580  0.1997  0.4927 -0.0335
 3005TIP3    H130650   4.971   5.581   7.599 -0.1888 -0.5866 -1.4246
 3005TIP3    H230651   5.102   5.534   7.658 -0.6911 -0.1607  0.0692
 3006TIP3   OH230652   4.884   6.871   7.153 -0.3285 -0.4219 -0.5904
 3006TIP3    H130653   4.920   6.934   7.091  1.5688 -0.4315  0.4369
 3006TIP3    H230654   4.857   6.796   7.100  0.3858 -0.0539 -1.4856
 3007TIP3   OH230655   3.300   1.681   8.391 -0.0494  0.2242 -0.5493
 3007TIP3    H130656   3.380   1.725   8.422  0.0934  0.8660 -1.7827
 3007TIP3    H230657   3.230   1.741   8.413  0.3528  2.3792 -4.3707
 3008TIP3   OH230658   2.480   4.891   7.749 -0.3790  0.8104 -0.1007
 3008TIP3    H130659   2.491   4.811   7.699  0.2859  1.6919 -1.4298
 3008TIP3    H230660   2.550   4.889   7.814 -0.3045  0.3644 -0.1926
 3009TIP3   OH230661   4.446   0.049   8.253  0.1128 -0.0789 -0.2804
 3009TIP3    H130662   4.538   0.029   8.237 -0.2761 -2.6964  0.3931
 3009TIP3    H230663   4.441   0.069   8.346  0.1474  1.3192 -0.5503
 3010TIP3   OH230664   4.013   5.274   7.471  0.3081 -0.6513 -0.5591
 3010TIP3    H130665   4.025   5.249   7.379  2.5539  1.4792 -0.9431
 3010TIP3    H230666   4.077   5.220   7.518  0.5235 -0.3638 -0.5195
 3011TIP3   OH230667   6.171   5.459   7.323  0.2801  0.0481  0.2885
 3011TIP3    H130668   6.128   5.538   7.289  2.4657  1.4621  0.5676
 3011TIP3    H230669   6.242   5.443   7.261  0.5174 -1.0778  0.8374
 3012TIP3   OH230670   1.514   6.883   1.616  0.1076  0.3671 -0.0183
 3012TIP3    H130671   1.512   6.879   1.711  1.1053 -2.1572 -0.0421
 3012TIP3    H230672   1.459   6.811   1.586 -0.9084  1.6391 -1.4229
 3013TIP3   OH230673   0.872   2.111   7.265 -0.1239  0.2023  0.6487
 3013TIP3    H130674   0.830   2.174   7.206 -0.1589  0.2611  0.7365
 3013TIP3    H230675   0.954   2.088   7.221 -0.7901 -0.8338 -0.1181
 3014TIP3   OH230676   6.574   3.763   7.819  0.1136 -0.7369  0.2479
 3014TIP3    H130677   6.658   3.772   7.774  0.1639 -1.7495  0.1178
 3014TIP3    H230678   6.598   3.758   7.912  0.4481 -3.5033  0.0784
 3015TIP3   OH230679   2.545   3.873   8.133 -0.5395  0.2716  0.1512
 3015TIP3    H130680   2.572   3.944   8.191  0.9222 -0.4795  0.4309
 3015TIP3    H230681   2.626   3.828   8.111 -1.3731 -0.9818 -0.4646
 3016TIP3   OH230682   1.445   5.262   6.832  0.0278  0.0897 -0.4315
 3016TIP3    H130683   1.496   5.203   6.777  0.2116  0.6531 -0.8740
 3016TIP3    H230684   1.363   5.274   6.785 -0.3388 -0.4423  0.0520
 3017TIP3   OH230685   5.412   3.343   8.319  0.3418 -0.1651 -0.1970
 3017TIP3    H130686   5.411   3.279   8.390  2.4441 -0.7179 -0.5990
 3017TIP3    H230687   5.394   3.292   8.240 -0.0579  0.1203 -0.2975
 3018TIP3   OH230688   4.526   0.324   2.461  0.4893 -0.1717 -0.5311
 3018TIP3    H130689   4.527   0.361   2.549 -1.7569 -1.3571  0.0636
 3018TIP3    H230690   4.567   0.238   2.471 -2.2812 -1.5143  0.0403
 3019TIP3   OH230691   2.652   5.979   1.098 -0.2046 -0.1638  0.2785
 3019TIP3    H130692   2.653   5.900   1.153 -1.4200 -0.6500 -0.3684
 3019TIP3    H230693   2.615   5.950   1.015 -0.0055  0.9439 -0.2148
 3020TIP3   OH230694   6.530   1.961   1.678 -0.3947  0.8425 -0.0657
 3020TIP3    H130695   6.614   1.996   1.707 -1.1522  2.9708 -0.2294
 3020TIP3    H230696   6.520   1.995   1.589 -0.8226 -0.5407 -0.5657
 3021TIP3   OH230697   0.091   5.027   7.465  0.0706  0.1351  0.1047
 3021TIP3    H130698   0.132   5.100   7.419 -0.9707  0.5550 -0.1748
 3021TIP3    H230699   0.143   4.951   7.439  2.3776  0.9684  1.8583
 3022TIP3   OH230700   2.535   4.833   1.329  0.1761  0.4768 -0.4712
 3022TIP3    H130701   2.490   4.800   1.251  0.8463  1.6647 -1.4082
 3022TIP3    H230702   2.565   4.920   1.303  1.2381  0.5190  0.8100
 3023TIP3   OH230703   2.414   5.691   1.821 -0.5471  1.4795  0.3783
 3023TIP3    H130704   2.489   5.749   1.837 -0.8948  1.8623  0.6530
 3023TIP3    H230705   2.444   5.605   1.849  0.3320  1.3009 -0.9731
 3024TIP3   OH230706   4.944   0.924   0.254  0.5202 -0.2245  0.2557
 3024TIP3    H130707   4.988   0.872   0.321 -1.2234 -0.4976  1.2468
 3024TIP3    H230708   4.908   0.998   0.301  1.9747  1.3406 -0.9562
 3025TIP3   OH230709   0.787   0.370   8.254  0.3301  0.1503  0.2868
 3025TIP3    H130710   0.829   0.292   8.291 -1.8470 -0.8473  0.7981
 3025TIP3    H230711   0.848   0.400   8.187  2.5973 -0.2641  2.0411
 3026TIP3   OH230712   4.077   1.439   7.396  0.2191 -0.2751  0.5496
 3026TIP3    H130713   4.029   1.394   7.326 -0.9486 -0.2688  1.3180
 3026TIP3    H230714   4.015   1.504   7.429  0.9651  0.1097  1.2082
 3027TIP3   OH230715   4.978   1.123   0.744 -0.0001  0.0328 -0.4672
 3027TIP3    H130716   5.045   1.136   0.678  0.4887 -0.0162  0.0168
 3027TIP3    H230717   4.915   1.063   0.703 -0.5585  1.2462 -1.4869
 3028TIP3   OH230718   6.856   3.626   2.112  0.2297 -0.1269  0.4125
 3028TIP3    H130719   6.814   3.707   2.084 -0.6864 -0.7356 -0.0287
 3028TIP3    H230720   6.942   3.628   2.069 -1.3973 -1.4190 -3.3967
 3029TIP3   OH230721   4.646   2.810   1.662 -0.3295 -1.2581 -0.1645
 3029TIP3    H130722   4.557   2.786   1.686 -0.2302 -0.6528  0.8582
 3029TIP3    H230723   4.646   2.808   1.566 -1.1050 -2.4304 -0.1653
 3030TIP3   OH230724   1.802   2.804   1.933  0.4998 -0.1550 -0.1191
 3030TIP3    H130725   1.851   2.820   2.014  2.5547  1.2084 -1.5314
 3030TIP3    H230726   1.714   2.837   1.951  1.7455  3.1919  0.6139
 3031TIP3   OH230727   0.884   5.023   1.822  0.2838 -0.3139 -0.3841
 3031TIP3    H130728   0.858   5.108   1.858  0.3508  0.4558 -2.0657
 3031TIP3    H230729   0.830   4.960   1.869 -0.0969  0.6862  0.5837
 3032TIP3   OH230730   4.953   3.399   7.868  0.0013 -0.3988 -0.3843
 3032TIP3    H130731   5.013   3.459   7.913  1.0200  0.8320 -3.1694
 3032TIP3    H230732   5.010   3.331   7.831 -0.1506  0.7623 -3.0245
 3033TIP3   OH230733   6.124   4.396   6.933 -0.0355  0.3477 -0.1907
 3033TIP3    H130734   6.031   4.417   6.936 -0.3960 -1.2530  1.8123
 3033TIP3    H230735   6.160   4.434   7.014  1.4982  2.5964 -1.8086
 3034TIP3   OH230736   2.096   2.228   1.975 -0.8549  0.0664  0.3106
 3034TIP3    H130737   2.059   2.314   1.995 -0.1461  0.8993 -1.7111
 3034TIP3    H230738   2.159   2.211   2.045  0.0193  1.8604  0.0088
 3035TIP3   OH230739   1.105   0.941   0.799  0.0729  0.0725 -0.1118
 3035TIP3    H130740   1.053   0.864   0.824  1.4377 -0.2700  1.9177
 3035TIP3    H230741   1.171   0.906   0.740  1.6884 -0.7403  2.0343
 3036TIP3   OH230742   0.517   3.280   6.360 -0.2863  0.0353  0.0621
 3036TIP3    H130743   0.543   3.203   6.310 -0.8513  0.5135 -1.0111
 3036TIP3    H230744   0.592   3.298   6.417  0.8743  0.1373 -1.4337
 3037TIP3   OH230745   6.152   6.123   1.790  0.0943  0.6832  0.2585
 3037TIP3    H130746   6.124   6.083   1.872 -0.3619  0.4856  0.0109
 3037TIP3    H230747   6.243   6.148   1.805 -0.1732  1.2216  1.0403
 3038TIP3   OH230748   3.837   2.355   8.335  0.7913  0.3710 -0.2984
 3038TIP3    H130749   3.895   2.332   8.262 -0.4870 -3.5702 -0.3193
 3038TIP3    H230750   3.845   2.282   8.396 -1.1223  1.6718  1.6787
 3039TIP3   OH230751   5.161   4.007   1.073 -0.2159 -0.5823 -0.0581
 3039TIP3    H130752   5.080   4.021   1.121 -0.7578  0.7733 -1.3063
 3039TIP3    H230753   5.217   4.081   1.097  0.6174 -1.4120  0.6580
 3040TIP3   OH230754   0.636   5.125   0.149 -0.7815 -0.2506 -0.4404
 3040TIP3    H130755   0.554   5.129   0.199  0.4599 -2.0378  1.9498
 3040TIP3    H230756   0.694   5.187   0.193 -0.6554  0.6178 -1.7932
 3041TIP3   OH230757   3.552   3.183   7.210 -0.1131 -0.0071  0.3529
 3041TIP3    H130758   3.510   3.143   7.134 -0.0617  0.2945  0.1652
 3041TIP3    H230759   3.498   3.155   7.284  0.7053 -1.5689  0.4043
 3042TIP3   OH230760   2.816   5.476   0.065 -0.0312 -0.0548  0.4447
 3042TIP3    H130761   2.909   5.497   0.066 -0.0035 -0.1490 -0.0746
 3042TIP3    H230762   2.808   5.403   0.005 -0.6990  1.2178 -1.0873
 3043TIP3   OH230763   1.994   2.195   7.692  0.2552 -0.3444  0.0462
 3043TIP3    H130764   1.934   2.212   7.620  0.0741 -0.6532  0.1241
 3043TIP3    H230765   2.021   2.283   7.721  0.0182 -0.2104 -0.1335
 3044TIP3   OH230766   5.290   2.772   7.723 -0.1127 -0.6330 -0.1910
 3044TIP3    H130767   5.296   2.866   7.738 -1.8821 -0.5825  0.3883
 3044TIP3    H230768   5.366   2.752   7.668  0.1443  1.1663 -0.5610
 3045TIP3   OH230769   6.398   0.761   1.160  0.0408  0.2262  0.0862
 3045TIP3    H130770   6.481   0.714   1.145  0.4425  0.9949 -0.1754
 3045TIP3    H230771   6.369   0.786   1.072  0.2550  1.1647  0.2704
 3046TIP3   OH230772   0.841   0.593   1.151  0.2196 -0.1366  0.7367
 3046TIP3    H130773   0.876   0.599   1.240 -0.2533 -0.5152  0.9526
 3046TIP3    H230774   0.745   0.593   1.163  0.1422  0.6700  0.1724
 3047TIP3   OH230775   0.948   5.754   1.182 -0.2342 -0.1601 -0.0960
 3047TIP3    H130776   0.874   5.705   1.219 -1.5579  1.0789 -0.9929
 3047TIP3    H230777   1.018   5.689   1.176 -1.6714 -1.7742 -0.5068
 3048TIP3   OH230778   2.511   0.811   0.214  0.6596 -0.3122 -0.5393
 3048TIP3    H130779   2.581   0.749   0.235 -0.1673 -1.7520 -1.8285
 3048TIP3    H230780   2.533   0.844   0.128  1.3089  1.5659  0.3048
 3049TIP3   OH230781   5.016   5.847   1.616 -0.5736  0.0009 -0.6252
 3049TIP3    H130782   5.073   5.911   1.573 -0.5021  1.0025  0.8537
 3049TIP3    H230783   4.948   5.901   1.657 -1.6893 -1.0567 -1.0253
 3050TIP3   OH230784   0.445   1.464   1.132 -0.4918 -0.2580 -0.2775
 3050TIP3    H130785   0.410   1.533   1.189  0.8685  2.7052 -2.7805
 3050TIP3    H230786   0.532   1.445   1.168  0.1026  1.1279 -0.9385
 3051TIP3   OH230787   2.334   1.888   8.033 -0.1878 -0.5374 -0.1141
 3051TIP3    H130788   2.370   1.906   7.946  0.1632  0.9234  0.3115
 3051TIP3    H230789   2.241   1.873   8.017  0.0366 -1.2280 -0.8491
 3052TIP3   OH230790   1.342   6.002   6.969 -0.2011 -0.6688 -0.2485
 3052TIP3    H130791   1.346   6.091   6.932 -3.6788 -0.2456  0.1154
 3052TIP3    H230792   1.288   5.953   6.907 -1.2908 -1.5223  1.3148
 3053TIP3   OH230793   4.090   0.283   7.399  0.0976 -0.0969  0.6478
 3053TIP3    H130794   4.102   0.276   7.493 -1.4833  0.3281  0.9078
 3053TIP3    H230795   4.160   0.230   7.362  0.4761 -0.6296  2.0683
 3054TIP3   OH230796   6.046   6.548   0.512 -0.1184  0.1873  0.5602
 3054TIP3    H130797   5.973   6.517   0.565 -1.9046  2.4767 -0.4217
 3054TIP3    H230798   6.119   6.556   0.573 -1.2440 -0.1750  1.9941
 3055TIP3   OH230799   1.880   6.774   7.034  0.3808  0.7367 -0.2672
 3055TIP3    H130800   1.877   6.803   7.125  2.1226  0.9687 -0.2494
 3055TIP3    H230801   1.859   6.852   6.983 -1.3157  0.4400 -0.0818
 3056TIP3   OH230802   0.723   0.525   7.738 -0.2940  0.2762 -0.0598
 3056TIP3    H130803   0.689   0.566   7.659 -1.7492  1.8550  1.3218
 3056TIP3    H230804   0.738   0.597   7.799  2.7460 -0.6496  0.5081
 3057TIP3   OH230805   0.581   6.355   7.245 -0.1867  0.0311  0.0234
 3057TIP3    H130806   0.492   6.375   7.216 -0.6525 -1.3672  0.3978
 3057TIP3    H230807   0.588   6.394   7.332 -0.8340 -0.7646  0.4510
 3058TIP3   OH230808   2.925   1.867   6.529 -0.8476 -0.3264  0.1916
 3058TIP3    H130809   2.986   1.809   6.575  0.1099  1.5594  1.4420
 3058TIP3    H230810   2.841   1.853   6.573 -0.0651  1.0443  2.3339
 3059TIP3   OH230811   6.727   0.609   7.711 -0.2030 -0.5282  0.1304
 3059TIP3    H130812   6.639   0.588   7.743 -0.1526 -0.9330 -0.0030
 3059TIP3    H230813   6.712   0.645   7.624 -0.2685 -0.2170  0.2673
 3060TIP3   OH230814   3.528   0.605   7.022  0.4351 -0.0608  0.6119
 3060TIP3    H130815   3.562   0.678   7.074  0.5899  0.1311  0.2456
 3060TIP3    H230816   3.585   0.531   7.044  1.6749  0.4890 -0.6893
 3061TIP3   OH230817   4.297   3.359   6.776 -0.1434 -0.5737 -0.2503
 3061TIP3    H130818   4.304   3.446   6.738  0.0648 -0.3464  0.2888
 3061TIP3    H230819   4.379   3.346   6.823 -0.2709 -0.9608 -0.1219
 3062TIP3   OH230820   6.196   3.975   8.370  0.4537 -0.2725  0.6947
 3062TIP3    H130821   6.274   4.015   8.407 -0.6091  2.8197 -0.1229
 3062TIP3    H230822   6.125   4.000   8.429 -0.2588 -1.1201  0.2310
 3063TIP3   OH230823   2.441   1.955   8.283 -0.4590 -0.3883 -0.4339
 3063TIP3    H130824   2.427   1.942   8.189 -0.0354  0.5257 -0.6372
 3063TIP3    H230825   2.415   2.046   8.298 -0.0043 -0.3632  0.2268
 3064TIP3   OH230826   1.810   1.456   7.368 -0.0258 -0.4111 -0.6255
 3064TIP3    H130827   1.769   1.398   7.304 -2.1026  0.7876 -0.4393
 3064TIP3    H230828   1.838   1.532   7.318 -2.5621  0.9905 -0.0642
 3065TIP3   OH230829   3.444   6.928   1.133 -0.3773 -0.0125  0.5702
 3065TIP3    H130830   3.516   6.869   1.151  0.3109  0.7576  0.3864
 3065TIP3    H230831   3.473   6.980   1.058 -2.1982 -1.4944 -1.2882
 3066TIP3   OH230832   5.866   5.619   7.858  0.0270  0.3314  0.3436
 3066TIP3    H130833   5.828   5.624   7.770 -0.6602 -1.8455  0.4678
 3066TIP3    H230834   5.944   5.674   7.853  0.1530  0.0543 -1.7197
 3067TIP3   OH230835   3.444   5.825   0.600 -0.4893  0.7382  0.4191
 3067TIP3    H130836   3.444   5.792   0.510 -0.2336 -0.6185  0.8905
 3067TIP3    H230837   3.396   5.908   0.596  0.3401  1.1810 -1.1253
 3068TIP3   OH230838   2.978   1.718   1.822 -0.1754  0.3876  0.5623
 3068TIP3    H130839   3.065   1.755   1.811 -0.2222  0.7074  1.2366
 3068TIP3    H230840   2.960   1.674   1.739 -0.0931  1.8320 -0.2557
 3069TIP3   OH230841   5.348   0.282   0.234  0.6591  0.2794 -0.4847
 3069TIP3    H130842   5.339   0.194   0.199 -2.7959  0.3110  0.0318
 3069TIP3    H230843   5.333   0.272   0.328 -1.8930  1.5881 -0.6764
 3070TIP3   OH230844   1.357   1.773   8.271 -0.6343 -0.5146 -0.3520
 3070TIP3    H130845   1.282   1.730   8.230 -1.0875  1.4551 -1.7360
 3070TIP3    H230846   1.334   1.867   8.270  0.1744 -0.1864  2.7464
 3071TIP3   OH230847   4.206   0.731   0.878  0.5112  0.4994 -0.6187
 3071TIP3    H130848   4.203   0.811   0.826 -2.2637 -0.5842 -2.3633
 3071TIP3    H230849   4.262   0.672   0.828  1.1870  0.7716 -0.1990
 3072TIP3   OH230850   3.418   6.263   1.721  0.2324  0.1130  0.1029
 3072TIP3    H130851   3.412   6.282   1.627  1.1387  1.1963  0.2358
 3072TIP3    H230852   3.511   6.271   1.740  0.2429 -1.4716  0.8452
 3073TIP3   OH230853   0.631   0.177   1.762  0.1722  0.0963 -0.4422
 3073TIP3    H130854   0.620   0.244   1.829  1.7027 -0.4044  0.3782
 3073TIP3    H230855   0.725   0.156   1.765 -0.1630 -1.6854 -1.0413
 3074TIP3   OH230856   5.515   5.637   7.345 -0.2017 -0.2389 -0.1999
 3074TIP3    H130857   5.507   5.548   7.379  0.1473 -0.2777 -0.2217
 3074TIP3    H230858   5.602   5.640   7.305  0.0941  0.3381  0.4623
 3075TIP3   OH230859   4.542   4.797   8.095  0.1904  0.5701 -0.4334
 3075TIP3    H130860   4.491   4.864   8.141  0.0530 -0.5185  1.0682
 3075TIP3    H230861   4.625   4.793   8.143 -1.3618 -3.2956  2.3866
 3076TIP3   OH230862   3.270   0.031   1.306  0.1596  0.3420  0.2758
 3076TIP3    H130863   3.333  -0.014   1.250  1.7537  1.2365  1.2767
 3076TIP3    H230864   3.214  -0.039   1.340 -0.0730 -0.3445 -1.4358
 3077TIP3   OH230865   2.123   6.273   7.768 -0.3696  0.3856  0.4541
 3077TIP3    H130866   2.211   6.251   7.799 -0.3163  1.6068  1.2113
 3077TIP3    H230867   2.076   6.303   7.846 -1.5556 -0.4879  0.1117
 3078TIP3   OH230868   4.744   5.074   8.275  0.2605  0.1623 -0.9236
 3078TIP3    H130869   4.756   5.109   8.364 -0.2652  1.9449 -1.5168
 3078TIP3    H230870   4.832   5.047   8.248  0.4866 -0.0689 -0.0184
 3079TIP3   OH230871   0.230   6.960   1.581  0.5054  0.0631 -0.8264
 3079TIP3    H130872   0.208   6.956   1.487  1.5038  0.9135 -1.1140
 3079TIP3    H230873   0.314   7.006   1.584  0.2685  0.4523  0.5233
 3080TIP3   OH230874   0.214   3.105   6.692  0.2874  0.2715 -0.0806
 3080TIP3    H130875   0.201   3.025   6.641  2.6819  0.1888 -0.7015
 3080TIP3    H230876   0.309   3.112   6.700  0.1155  2.8092  0.3841
 3081TIP3   OH230877   4.724   1.623   7.597 -0.1213  0.3869 -0.3713
 3081TIP3    H130878   4.648   1.567   7.580  1.5517 -2.0451 -0.3789
 3081TIP3    H230879   4.718   1.646   7.689 -1.3778  1.0994 -0.6133
 3082TIP3   OH230880   4.246   6.033   7.440 -0.0666  0.3365  1.0031
 3082TIP3    H130881   4.273   5.997   7.524 -0.9747  0.0598  1.1891
 3082TIP3    H230882   4.236   6.127   7.455 -1.9799  0.0624  1.7123
 3083TIP3   OH230883   1.878   5.087   0.770 -0.0900 -1.1827  0.2008
 3083TIP3    H130884   1.931   5.166   0.769 -0.6325 -0.7795  1.1971
 3083TIP3    H230885   1.929   5.022   0.722  0.9388 -0.5823  0.4623
 3084TIP3   OH230886   5.238   4.907   1.253 -0.4158  0.2658  0.0737
 3084TIP3    H130887   5.219   4.813   1.256 -0.9356  0.3895  1.3911
 3084TIP3    H230888   5.281   4.920   1.169  0.7275 -1.3580  0.3464
 3085TIP3   OH230889   4.591   3.870   7.991 -0.5798  0.2114  0.5997
 3085TIP3    H130890   4.583   3.958   7.954 -0.0141 -0.3049 -0.8177
 3085TIP3    H230891   4.514   3.823   7.959  0.2945 -0.4536 -0.6019
 3086TIP3   OH230892   6.662   4.968   2.240  0.2214  0.0658  0.8636
 3086TIP3    H130893   6.673   5.063   2.235 -1.0756  0.1722 -1.3523
 3086TIP3    H230894   6.616   4.955   2.323 -1.8277  1.7003  0.0973
 3087TIP3   OH230895   4.368   5.872   1.775  0.1066  0.1572  0.0456
 3087TIP3    H130896   4.383   5.787   1.818 -1.1936 -0.5224 -0.7926
 3087TIP3    H230897   4.278   5.894   1.797  0.4191  1.3103  0.1982
 3088TIP3   OH230898   2.352   2.097   7.120  0.2937  0.1481  0.2490
 3088TIP3    H130899   2.287   2.155   7.160 -0.1409 -0.5747  0.6058
 3088TIP3    H230900   2.436   2.140   7.137  0.1267 -0.1602  1.9960
 3089TIP3   OH230901   6.949   1.731   6.106  0.1356  0.0486  0.2924
 3089TIP3    H130902   6.982   1.812   6.067 -1.3780  0.5045 -0.1055
 3089TIP3    H230903   6.857   1.728   6.080 -0.5126 -0.4899  2.4455
 3090TIP3   OH230904   1.307   2.986   7.239  0.2287  0.1215 -0.3222
 3090TIP3    H130905   1.247   2.912   7.244  2.0265 -1.3896  0.2516
 3090TIP3    H230906   1.260   3.058   7.280 -1.7818 -0.5195 -1.3646
 3091TIP3   OH230907   5.630   6.576   1.440  0.0053  0.6338 -0.1238
 3091TIP3    H130908   5.608   6.483   1.443  1.5003  0.2543 -0.1834
 3091TIP3    H230909   5.646   6.600   1.531 -0.8078  0.9536 -0.0592
 3092TIP3   OH230910   2.554   5.862   7.375 -0.5146  0.3866 -0.2231
 3092TIP3    H130911   2.471   5.889   7.414 -1.4914  0.0180 -1.9217
 3092TIP3    H230912   2.575   5.932   7.313  0.1517  0.2104 -0.1984
 3093TIP3   OH230913   4.249   5.905   2.726  0.1417  0.2336 -0.4343
 3093TIP3    H130914   4.191   5.973   2.761  0.7596 -0.0998  1.3458
 3093TIP3    H230915   4.193   5.829   2.715 -0.4228  0.8137 -1.8642
 3094TIP3   OH230916   2.143   0.738   0.541  0.0819  0.5544 -0.0770
 3094TIP3    H130917   2.129   0.684   0.619  0.4020 -1.4942 -1.3470
 3094TIP3    H230918   2.238   0.739   0.529  0.3167  3.4421  1.1965
 3095TIP3   OH230919   2.255   2.010   6.610  0.2641  0.0690  0.3730
 3095TIP3    H130920   2.230   1.921   6.637 -0.2591  0.2433  0.4790
 3095TIP3    H230921   2.225   2.066   6.682  0.4960  0.3468  0.2572
 3096TIP3   OH230922   4.859   6.297   0.400 -0.4680 -0.2855  0.2752
 3096TIP3    H130923   4.825   6.384   0.420 -0.1979 -0.0285 -0.3921
 3096TIP3    H230924   4.934   6.287   0.458 -0.1348  0.1629 -0.0786
 3097TIP3   OH230925   1.908   6.702   0.367  0.4113 -0.2884 -1.3736
 3097TIP3    H130926   1.941   6.740   0.285  1.3262 -0.7988 -1.2567
 3097TIP3    H230927   1.985   6.698   0.424 -0.0030 -0.8823 -0.8488
 3098TIP3   OH230928   6.328   3.126   0.447  0.2151 -0.0511 -0.4008
 3098TIP3    H130929   6.415   3.153   0.475 -0.1536 -0.1156  0.8511
 3098TIP3    H230930   6.330   3.132   0.351  1.7383 -0.5288 -0.4107
 3099TIP3   OH230931   2.715   5.984   6.845  0.0663  0.9729 -0.2117
 3099TIP3    H130932   2.740   5.934   6.767 -0.3586  0.7981 -0.2358
 3099TIP3    H230933   2.738   5.927   6.918 -0.2606  0.8145 -0.2335
 3100TIP3   OH230934   2.103   1.612   1.492 -0.2520  0.5341  0.3333
 3100TIP3    H130935   2.020   1.660   1.491  0.3286  1.5842  1.0557
 3100TIP3    H230936   2.099   1.558   1.571 -0.9305 -0.7079 -0.5106
 3101TIP3   OH230937   3.997   0.678   2.092 -0.2365 -0.0829  0.4257
 3101TIP3    H130938   4.066   0.702   2.154 -0.3503 -1.0684  0.9547
 3101TIP3    H230939   3.977   0.586   2.112 -1.7413  0.1980  0.3162
 3102TIP3   OH230940   1.676   2.822   1.437  0.0988  0.1137  0.0803
 3102TIP3    H130941   1.588   2.859   1.435  0.3226  0.6166 -0.6836
 3102TIP3    H230942   1.728   2.888   1.482  0.1705 -0.0238  0.2024
 3103TIP3   OH230943   0.083   1.500   0.995 -0.2064  0.2571  0.4935
 3103TIP3    H130944   0.177   1.511   1.009  0.2668 -1.4106 -0.9096
 3103TIP3    H230945   0.055   1.443   1.067 -0.2189  1.0061  1.0890
 3104TIP3   OH230946   5.060   6.174   0.908 -0.0727  0.1090  0.2498
 3104TIP3    H130947   5.012   6.095   0.931  1.9262 -1.0349  0.7712
 3104TIP3    H230948   5.043   6.235   0.980 -2.3652  0.5651 -0.6037
 3105TIP3   OH230949   1.519   4.721   1.359 -0.4154  0.2240  0.2297
 3105TIP3    H130950   1.526   4.816   1.354 -1.4025  0.2375 -1.8503
 3105TIP3    H230951   1.607   4.689   1.341 -0.0256  0.7297  1.1953
 3106TIP3   OH230952   1.748   6.149   7.148 -0.3258 -0.0246 -0.0366
 3106TIP3    H130953   1.746   6.217   7.081 -0.0324 -0.4719 -0.5072
 3106TIP3    H230954   1.792   6.190   7.223  1.6224 -0.2667 -0.9860
 3107TIP3   OH230955   2.506   6.534   8.340  0.3814 -0.0623 -0.5458
 3107TIP3    H130956   2.486   6.625   8.319 -2.0273 -0.0216  1.4317
 3107TIP3    H230957   2.563   6.539   8.417 -0.3901 -0.1594  0.0552
 3108TIP3   OH230958   0.315   3.570   0.737 -0.2427 -0.7259 -0.3544
 3108TIP3    H130959   0.233   3.603   0.773 -0.7283 -0.6764 -1.4673
 3108TIP3    H230960   0.372   3.558   0.814 -1.4436 -1.2199  0.4862
 3109TIP3   OH230961   1.918   5.992   6.576  0.2544 -0.2369  0.1821
 3109TIP3    H130962   1.906   6.045   6.498 -2.3996  0.9241  1.2798
 3109TIP3    H230963   1.902   5.902   6.547 -0.7870  0.1859 -0.6098
 3110TIP3   OH230964   1.048   2.576   6.994 -0.1155 -0.0676 -0.0082
 3110TIP3    H130965   0.992   2.580   7.071  0.3054  0.4362  0.2741
 3110TIP3    H230966   1.078   2.485   6.991 -2.1673 -0.7772 -1.0554
 3111TIP3   OH230967   2.124   6.403   2.714 -0.1802 -0.4077 -0.1828
 3111TIP3    H130968   2.184   6.340   2.753  0.9827  0.7821  0.0078
 3111TIP3    H230969   2.108   6.467   2.783 -0.5631  0.0464 -0.6820
 3112TIP3   OH230970   3.027   2.459   7.977  0.4989  0.2056 -0.6838
 3112TIP3    H130971   3.091   2.424   8.038  0.4727 -2.4546 -2.0561
 3112TIP3    H230972   3.071   2.534   7.936  1.9393 -0.3271 -0.1587
 3113TIP3   OH230973   0.967   3.696   8.031  0.6353  0.5055  0.1688
 3113TIP3    H130974   0.982   3.791   8.037  1.9497  0.3644 -0.4185
 3113TIP3    H230975   1.046   3.663   7.987  0.0050 -0.8098 -0.0021
 3114TIP3   OH230976   1.830   3.623   6.909 -0.1318 -0.1315  0.0727
 3114TIP3    H130977   1.773   3.699   6.918 -1.8077 -1.3774  0.5292
 3114TIP3    H230978   1.824   3.579   6.994  0.1368 -1.1921 -0.4432
 3115TIP3   OH230979   6.410   5.848   8.201 -0.0580  0.2928  0.0428
 3115TIP3    H130980   6.478   5.864   8.266  0.1536 -0.0299 -0.0968
 3115TIP3    H230981   6.454   5.799   8.131  0.5425  3.2849 -1.8630
 3116TIP3   OH230982   0.645   1.694   7.395  0.4858  0.0675 -0.4909
 3116TIP3    H130983   0.605   1.663   7.313  3.3822  0.5254 -2.1999
 3116TIP3    H230984   0.684   1.616   7.434 -1.9939 -0.4251  1.3099
 3117TIP3   OH230985   0.092   2.355   7.386 -0.1275  0.1580  0.5014
 3117TIP3    H130986   0.009   2.403   7.393  0.1261  0.7084 -0.1403
 3117TIP3    H230987   0.129   2.383   7.302 -0.8393 -2.5811 -0.8492
 3118TIP3   OH230988   6.104   3.570   0.854 -0.7629  0.0652 -0.2414
 3118TIP3    H130989   6.114   3.665   0.854  1.1967 -0.1074 -0.9406
 3118TIP3    H230990   6.152   3.541   0.777 -0.6297 -1.5698  0.4211
 3119TIP3   OH230991   5.367   6.030   2.321  0.2639 -0.4378  0.6574
 3119TIP3    H130992   5.296   6.027   2.386 -0.2060 -1.5238  0.1297
 3119TIP3    H230993   5.376   5.939   2.292  1.4124 -0.1942  0.2100
 3120TIP3   OH230994   6.168   1.833   7.370 -0.5136  0.3903 -0.1700
 3120TIP3    H130995   6.077   1.804   7.378 -0.1810 -0.4704  0.7508
 3120TIP3    H230996   6.177   1.902   7.436 -0.4311  0.3085 -0.0966
 3121TIP3   OH230997   5.991   0.956   7.559 -0.0802 -0.4702  0.0999
 3121TIP3    H130998   5.986   1.023   7.627  1.6327 -0.5466  0.3531
 3121TIP3    H230999   6.015   0.876   7.606 -1.7744 -1.2120 -0.2416
 3122TIP3   OH231000   4.917   1.477   7.200 -0.2257  0.2952  0.5432
 3122TIP3    H131001   4.934   1.502   7.291  1.1460 -1.4779  0.8170
 3122TIP3    H231002   4.838   1.424   7.204 -1.2647  1.7427  0.3862
 3123TIP3   OH231003   6.004   6.501   7.362 -0.5158 -0.3035  0.1031
 3123TIP3    H131004   6.046   6.463   7.439 -0.0518 -0.7906 -0.3860
 3123TIP3    H231005   6.001   6.595   7.381  0.6757 -0.2721  0.2116
 3124TIP3   OH231006   4.317   0.397   7.987  0.6839  0.6117  0.3570
 3124TIP3    H131007   4.337   0.454   7.912 -1.6004  0.1551 -0.6689
 3124TIP3    H231008   4.332   0.308   7.954  1.8190  0.4689  1.1817
 3125TIP3   OH231009   4.497   4.295   2.899 -0.4778 -0.2779  0.2648
 3125TIP3    H131010   4.405   4.306   2.872 -0.8368 -0.6771  1.2900
 3125TIP3    H231011   4.522   4.382   2.931 -1.1204 -0.6260  1.7932
 3126TIP3   OH231012   1.131   2.416   0.385  0.1240  0.2738  0.5324
 3126TIP3    H131013   1.191   2.451   0.319 -0.3258  0.5060  0.2399
 3126TIP3    H231014   1.106   2.330   0.351  1.4364 -0.4825  1.3799
 3127TIP3   OH231015   2.362   3.315   1.855  0.4322  0.0228 -0.1672
 3127TIP3    H131016   2.452   3.327   1.886 -0.0143  0.9996  0.8420
 3127TIP3    H231017   2.337   3.228   1.886  1.1018 -0.3546 -0.6638
 3128TIP3   OH231018   5.810   0.914   1.905  0.2040  0.4682  0.5642
 3128TIP3    H131019   5.741   0.911   1.971 -1.2968 -0.1407 -0.9496
 3128TIP3    H231020   5.763   0.923   1.822  2.0087  0.9297 -0.4573
 3129TIP3   OH231021   4.687   2.548   2.105 -0.3432  0.5906 -0.3399
 3129TIP3    H131022   4.707   2.630   2.152 -0.7049  1.2855 -1.3611
 3129TIP3    H231023   4.681   2.482   2.174  0.6336  1.2903  0.4414
 3130TIP3   OH231024   2.181   3.647   7.847 -0.3918  0.2906 -0.0189
 3130TIP3    H131025   2.244   3.590   7.805 -1.4312 -1.1951  0.3458
 3130TIP3    H231026   2.217   3.664   7.934 -0.2845 -0.1847  0.0297
 3131TIP3   OH231027   3.970   6.779   0.402  0.0051 -0.6472 -0.2220
 3131TIP3    H131028   3.994   6.723   0.328 -0.4246 -0.0830 -0.7997
 3131TIP3    H231029   3.875   6.769   0.410  0.0474 -0.6946  0.2486
 3132TIP3   OH231030   1.267   1.633   7.264 -1.2475 -0.3408  0.1970
 3132TIP3    H131031   1.253   1.546   7.225 -0.4043 -0.2055 -0.4474
 3132TIP3    H231032   1.294   1.687   7.190 -1.4577  0.3934  0.6541
 3133TIP3   OH231033   6.158   5.046   2.386 -0.2107  0.1255  0.0476
 3133TIP3    H131034   6.105   4.980   2.431 -1.2774  0.9109 -0.0268
 3133TIP3    H231035   6.216   4.995   2.329 -0.1584 -0.7930  0.8945
 3134TIP3   OH231036   5.497   2.481   1.913 -0.2343  0.6674  0.4222
 3134TIP3    H131037   5.497   2.453   2.004  0.2544  0.2869  0.3075
 3134TIP3    H231038   5.453   2.567   1.915 -1.7672 -0.0947  0.7640
 3135TIP3   OH231039   0.615   6.729   6.948  0.3641  0.2426 -0.8110
 3135TIP3    H131040   0.655   6.728   6.861  2.0022  1.7730 -0.1308
 3135TIP3    H231041   0.526   6.763   6.932  1.0078  1.5816 -1.7955
 3136TIP3   OH231042   6.293   0.663   0.351  0.0053  0.6597  0.2619
 3136TIP3    H131043   6.237   0.596   0.389 -1.1386  1.0601 -0.6289
 3136TIP3    H231044   6.234   0.737   0.335  0.5365  0.7374 -1.6341
 3137TIP3   OH231045   0.784   6.784   0.321  0.2379  0.4765 -0.2080
 3137TIP3    H131046   0.734   6.716   0.367  0.2827  1.9992  2.2727
 3137TIP3    H231047   0.868   6.742   0.301 -0.0236 -0.4576  0.5547
 3138TIP3   OH231048   2.999   6.847   6.541  0.8572 -0.2422  0.1372
 3138TIP3    H131049   3.078   6.835   6.594 -0.3446 -0.9879  1.8359
 3138TIP3    H231050   2.933   6.794   6.584 -0.6946  0.6653 -1.0338
 3139TIP3   OH231051   1.123   4.959   8.478  0.0563 -0.8143  0.3716
 3139TIP3    H131052   1.050   5.001   8.524  0.4959  0.4802 -0.0812
 3139TIP3    H231053   1.082   4.917   8.401 -0.2750 -0.5435  0.3992
 3140TIP3   OH231054   4.804   5.463   7.623  0.1069 -0.2861 -0.0408
 3140TIP3    H131055   4.794   5.524   7.696 -3.9491 -0.6522 -0.0630
 3140TIP3    H231056   4.760   5.506   7.549  2.9385 -0.5078 -2.0656
 3141TIP3   OH231057   6.706   4.737   7.732 -0.4090 -0.4323  0.4444
 3141TIP3    H131058   6.669   4.821   7.708 -1.5002 -0.6403  1.3173
 3141TIP3    H231059   6.717   4.690   7.649 -0.7239  0.1872  0.0485
 3142TIP3   OH231060   0.494   3.514   0.957  0.2556  0.3124 -0.1882
 3142TIP3    H131061   0.535   3.440   0.914 -1.5600 -0.4568 -0.7046
 3142TIP3    H231062   0.535   3.518   1.043  3.1547  1.1942 -1.4972
 3143TIP3   OH231063   5.602   3.830   0.061  0.5064 -0.5006  0.4052
 3143TIP3    H131064   5.554   3.788  -0.011  0.4522 -0.2204  0.2774
 3143TIP3    H231065   5.612   3.761   0.126 -1.6227 -0.1009  1.2271
 3144TIP3   OH231066   4.423   1.387   1.855 -0.0467 -0.4834  0.1483
 3144TIP3    H131067   4.475   1.358   1.780  0.8971  0.9957  0.2044
 3144TIP3    H231068   4.478   1.372   1.931  0.5589  1.5339  0.1643
 3145TIP3   OH231069   6.286   4.915   2.183 -0.2619 -0.2302 -0.0468
 3145TIP3    H131070   6.375   4.938   2.158  0.0247 -1.0034  0.2239
 3145TIP3    H231071   6.251   4.869   2.106 -0.2342 -0.4100  0.0468
 3146TIP3   OH231072   3.075   5.544   0.362 -0.4958 -0.0907 -0.4308
 3146TIP3    H131073   3.041   5.484   0.429 -0.1967  0.1725 -0.0411
 3146TIP3    H231074   3.161   5.571   0.394 -0.0285 -0.5194 -1.2703
 3147TIP3   OH231075   0.375   5.656   8.250  0.0269 -0.8119  0.1820
 3147TIP3    H131076   0.374   5.641   8.344 -0.0978  0.1084  0.3392
 3147TIP3    H231077   0.413   5.576   8.213  2.2762 -0.2795  1.1813
 3148TIP3   OH231078   0.343   2.111   0.246  0.3266 -0.5280 -0.5893
 3148TIP3    H131079   0.375   2.194   0.282  1.6454 -0.6843 -1.3727
 3148TIP3    H231080   0.294   2.136   0.168 -0.2285 -0.4074 -0.2080
 3149TIP3   OH231081   6.857   2.597   6.587  0.1208 -0.4663  0.2150
 3149TIP3    H131082   6.771   2.621   6.621 -0.6260  1.4443 -2.6857
 3149TIP3    H231083   6.917   2.660   6.628 -0.6087  1.1226 -1.0135
 3150TIP3   OH231084   5.029   2.423   1.231  0.6306 -0.1299 -0.5570
 3150TIP3    H131085   5.103   2.364   1.245 -0.3672 -1.0519  1.0942
 3150TIP3    H231086   4.974   2.413   1.309 -1.8882 -0.4343 -2.2253
 3151TIP3   OH231087   6.187   6.708   1.976  0.2086 -0.0168 -0.0201
 3151TIP3    H131088   6.172   6.693   2.069  0.6278 -1.1361 -0.1166
 3151TIP3    H231089   6.106   6.746   1.944 -0.4038 -0.7988  0.5609
 3152TIP3   OH231090   4.427   5.851   7.193 -0.1350  0.0212 -0.1339
 3152TIP3    H131091   4.485   5.805   7.132 -0.4151 -1.6990  0.8318
 3152TIP3    H231092   4.375   5.782   7.234 -3.0483  1.4693 -1.0621
 3153TIP3   OH231093   0.703   1.861   2.331 -0.3239  0.5046  0.5800
 3153TIP3    H131094   0.786   1.897   2.360  0.4622  1.7723 -2.7880
 3153TIP3    H231095   0.637   1.923   2.363  0.3603  1.2576  0.5530
 3154TIP3   OH231096   6.841   2.497   7.396  0.4260 -0.1400  0.2760
 3154TIP3    H131097   6.789   2.497   7.476  0.8171  0.8385  0.5353
 3154TIP3    H231098   6.804   2.567   7.342 -0.0074 -0.9637 -0.5208
 3155TIP3   OH231099   2.958   3.311   0.765  0.0890 -0.0049 -0.0474
 3155TIP3    H131100   2.910   3.393   0.760  1.2840  0.8551  1.6677
 3155TIP3    H231101   3.048   3.334   0.741  0.8420 -0.3690  2.1988
 3156TIP3   OH231102   2.776   5.370   8.039 -0.3838 -0.1421 -0.0803
 3156TIP3    H131103   2.711   5.345   7.973 -0.8328 -1.9061  0.9822
 3156TIP3    H231104   2.815   5.288   8.067 -0.5958  0.4959  2.2501
 3157TIP3   OH231105   5.635   6.119   0.690  0.1653 -0.2020  0.2559
 3157TIP3    H131106   5.570   6.059   0.727 -0.1306  0.0101  0.0863
 3157TIP3    H231107   5.616   6.204   0.730 -0.0242 -0.0159 -0.2127
 3158TIP3   OH231108   1.346   0.506   0.466  0.5102  0.2305 -0.3123
 3158TIP3    H131109   1.333   0.432   0.525  2.0143 -0.7106 -1.0745
 3158TIP3    H231110   1.342   0.467   0.378 -1.1009  1.4898 -0.8506
 3159TIP3   OH231111   0.916   5.620   6.823 -0.4301  0.1753 -0.1785
 3159TIP3    H131112   0.837   5.625   6.876  0.1729 -0.1595  0.7775
 3159TIP3    H231113   0.976   5.684   6.861 -0.3109  0.5942 -1.0392
 3160TIP3   OH231114   3.384   5.909   7.539 -0.3440 -0.1648 -0.1192
 3160TIP3    H131115   3.386   5.957   7.622 -0.5091  1.7729 -1.1583
 3160TIP3    H231116   3.476   5.899   7.515 -0.2953  1.6292 -0.9022
 3161TIP3   OH231117   4.031   6.778   8.314  0.0645  1.0328 -0.0519
 3161TIP3    H131118   3.979   6.706   8.276 -0.1179  0.5071  1.1535
 3161TIP3    H231119   4.016   6.852   8.255 -1.6786  0.7597 -0.0201
 3162TIP3   OH231120   4.787   1.286   1.847 -0.1916  0.1439 -0.1324
 3162TIP3    H131121   4.758   1.321   1.932  0.0439 -0.3464  0.1536
 3162TIP3    H231122   4.710   1.243   1.811 -0.0381 -0.4582  0.2584
 3163TIP3   OH231123   2.491   2.337   7.084 -0.3356 -0.0222 -0.2126
 3163TIP3    H131124   2.559   2.279   7.050  0.1167  0.0841  0.4801
 3163TIP3    H231125   2.432   2.352   7.010  0.2582 -0.3148 -0.7507
 3164TIP3   OH231126   4.581   1.130   0.599  0.0919  0.2956  0.2014
 3164TIP3    H131127   4.540   1.049   0.569 -3.4596  1.2221  1.9323
 3164TIP3    H231128   4.530   1.155   0.676  2.2151  3.2443  0.8045
 3165TIP3   OH231129   1.400   4.931   6.923  0.4694 -0.5026  0.2230
 3165TIP3    H131130   1.391   5.005   6.864 -2.1387 -0.1391  0.9551
 3165TIP3    H231131   1.476   4.953   6.978 -0.5383  1.9058  0.7653
 3166TIP3   OH231132   5.130   6.270   6.769 -0.1733 -0.1968  0.5320
 3166TIP3    H131133   5.199   6.329   6.739 -1.0541  0.7488  0.3123
 3166TIP3    H231134   5.049   6.312   6.741 -0.8054 -1.9514 -0.4263
 3167TIP3   OH231135   2.098   3.403   8.379  0.2043  0.1255  0.1336
 3167TIP3    H131136   2.053   3.480   8.415  2.1995  0.8351  1.2562
 3167TIP3    H231137   2.154   3.374   8.450  0.7371 -1.3699 -0.8660
 3168TIP3   OH231138   6.256   6.051   8.106  0.1603 -0.1675  0.0368
 3168TIP3    H131139   6.163   6.033   8.123 -0.1817  1.0548 -0.4216
 3168TIP3    H231140   6.300   5.967   8.121 -0.8066 -0.4127  1.6849
 3169TIP3   OH231141   3.025   1.633   6.667  0.1514  0.2819 -0.4616
 3169TIP3    H131142   3.109   1.607   6.704  1.0304 -1.8415 -3.5977
 3169TIP3    H231143   2.964   1.566   6.698  0.1648  0.3817 -0.2182
 3170TIP3   OH231144   4.827   3.180   7.434  0.5279 -0.1141  0.3178
 3170TIP3    H131145   4.745   3.164   7.481 -0.1156  0.1091 -0.7125
 3170TIP3    H231146   4.831   3.112   7.368  1.2119 -0.1517  0.3844
 3171TIP3   OH231147   0.953   2.370   1.059  0.1791 -0.0704  0.7452
 3171TIP3    H131148   0.898   2.385   1.136  1.8381  0.3842  1.8835
 3171TIP3    H231149   0.989   2.282   1.071 -0.8548 -0.6956 -0.4018
 3172TIP3   OH231150   5.375   3.679   2.419 -0.3267  0.5593  0.1562
 3172TIP3    H131151   5.334   3.697   2.335  0.7441 -1.6422 -0.9261
 3172TIP3    H231152   5.457   3.728   2.417  0.5240 -0.8216 -0.8976
 3173TIP3   OH231153   4.567   1.013   1.518  0.0277  0.1339 -0.0086
 3173TIP3    H131154   4.543   0.936   1.571  0.8345  0.0186  0.2108
 3173TIP3    H231155   4.502   1.015   1.448 -1.4099  0.6129  1.2848
 3174TIP3   OH231156   6.164   2.337   6.899  0.4820 -0.3526  0.2976
 3174TIP3    H131157   6.084   2.293   6.928  0.5107  0.1080  1.0857
 3174TIP3    H231158   6.151   2.349   6.805  0.5537 -2.1974  0.0028
 3175TIP3   OH231159   5.263   0.479   1.453  0.1999  0.0491  0.0980
 3175TIP3    H131160   5.227   0.483   1.541 -2.1684  1.2015 -0.8188
 3175TIP3    H231161   5.259   0.387   1.429 -0.4684 -0.0887  0.7043
 3176TIP3   OH231162   3.916   6.888   1.702  0.9524 -0.9294  0.6899
 3176TIP3    H131163   3.893   6.924   1.788  0.6349  2.1515 -0.5265
 3176TIP3    H231164   4.012   6.883   1.703  0.9297 -1.3394  1.3616
 3177TIP3   OH231165   3.312   5.176   6.821  0.2102  0.4168  0.0580
 3177TIP3    H131166   3.337   5.111   6.756 -0.5293 -0.3023  0.4687
 3177TIP3    H231167   3.325   5.133   6.905 -2.2442 -0.0075  0.3056
 3178TIP3   OH231168   4.125   4.814   0.592 -0.5739  0.1394 -0.7915
 3178TIP3    H131169   4.144   4.778   0.505 -1.4993  0.9360 -1.3381
 3178TIP3    H231170   4.203   4.794   0.643 -0.0818 -0.4988 -1.7513
 3179TIP3   OH231171   6.151   0.508   6.643 -0.1881 -0.1682  0.4929
 3179TIP3    H131172   6.199   0.541   6.567  0.9721 -0.9801  0.8486
 3179TIP3    H231173   6.117   0.423   6.614 -0.7306  0.0400  0.5111
 3180TIP3   OH231174   3.269   1.672   1.653 -0.3570 -0.2873 -0.1726
 3180TIP3    H131175   3.353   1.630   1.633 -0.4461 -0.9266  0.6788
 3180TIP3    H231176   3.204   1.602   1.641 -0.7021  0.0539 -0.3040
 3181TIP3   OH231177   0.285   1.746   0.004 -0.1048  0.7181  0.3465
 3181TIP3    H131178   0.277   1.673  -0.056 -0.1080  1.3924 -0.4829
 3181TIP3    H231179   0.280   1.706   0.091  0.2642 -0.3025 -0.0867
 3182TIP3   OH231180   0.111   2.449   7.916  0.7219 -0.4297 -0.3000
 3182TIP3    H131181   0.104   2.353   7.909  0.6968 -0.3710 -1.2287
 3182TIP3    H231182   0.068   2.470   7.998  0.1231 -1.1574 -0.4130
 3183TIP3   OH231183   0.367   6.950   0.103  0.4179 -0.4296  0.0010
 3183TIP3    H131184   0.411   7.032   0.124 -0.2150 -0.2453  0.6484
 3183TIP3    H231185   0.409   6.920   0.023  2.9940 -1.2103  1.5327
 3184TIP3   OH231186   3.167   0.415   7.717  0.1487  0.2015  0.1235
 3184TIP3    H131187   3.163   0.320   7.730 -1.5097  0.2001 -0.1054
 3184TIP3    H231188   3.162   0.452   7.805 -1.7160  0.0717  0.1192
 3185TIP3   OH231189   1.275   3.126   8.101  0.1469  0.0116  0.3274
 3185TIP3    H131190   1.368   3.143   8.115 -0.3981  2.6726  1.3007
 3185TIP3    H231191   1.237   3.129   8.189 -0.5612 -4.2256  0.3982
 3186TIP3   OH231192   5.311   3.983   0.547  0.4079  0.2954  0.2606
 3186TIP3    H131193   5.291   4.042   0.619 -0.7299  1.0009 -0.5926
 3186TIP3    H231194   5.282   3.897   0.577  0.7572  0.4148  0.9644
 3187TIP3   OH231195   6.874   3.678   1.693 -0.3499  0.4314 -0.6292
 3187TIP3    H131196   6.909   3.649   1.608  0.4002 -1.7341  0.3413
 3187TIP3    H231197   6.885   3.602   1.750 -2.1052  1.3767  1.0682
 3188TIP3   OH231198   5.312   6.111   7.721  0.0418  0.7633 -0.3623
 3188TIP3    H131199   5.301   6.018   7.698 -1.7869  0.7808  0.2792
 3188TIP3    H231200   5.379   6.110   7.790 -1.7723 -0.4362  1.5018
 3189TIP3   OH231201   4.904   6.094   0.654 -0.3133 -0.6352 -0.0906
 3189TIP3    H131202   4.939   6.179   0.681 -1.2238  0.8551 -3.0735
 3189TIP3    H231203   4.853   6.064   0.728 -0.5093  1.7820  0.8382
 3190TIP3   OH231204   5.504   4.080   0.089  0.0470  0.0631 -0.3822
 3190TIP3    H131205   5.542   4.001   0.051  0.0796  0.7977 -1.9408
 3190TIP3    H231206   5.454   4.048   0.164  1.6282 -1.1981  0.1874
 3191TIP3   OH231207   5.570   0.607   1.370 -1.0032 -0.3111  0.4066
 3191TIP3    H131208   5.627   0.646   1.436  0.1975 -0.2146 -0.6393
 3191TIP3    H231209   5.614   0.626   1.287 -1.7678 -1.6012 -0.3217
 3192TIP3   OH231210   2.688   0.814   0.558 -0.3813  0.2491 -0.2890
 3192TIP3    H131211   2.684   0.772   0.644 -2.0692 -1.3254 -1.0733
 3192TIP3    H231212   2.776   0.797   0.526 -0.1496 -0.2453  0.5786
 3193TIP3   OH231213   4.271   2.993   1.678 -0.1869  0.0743 -0.4275
 3193TIP3    H131214   4.329   2.917   1.681 -1.3621 -0.8356  0.4389
 3193TIP3    H231215   4.240   2.997   1.587  2.2090  1.4017 -1.2723
 3194TIP3   OH231216   3.881   5.854   7.455  0.4149 -0.3887  0.6902
 3194TIP3    H131217   3.922   5.814   7.379  0.0065  0.6900 -0.1142
 3194TIP3    H231218   3.950   5.853   7.522  1.3529  0.2073 -0.2357
 3195TIP3   OH231219   3.151   4.519   2.097 -0.1639  0.2294  0.0561
 3195TIP3    H131220   3.173   4.458   2.027 -1.5551 -1.5681  1.0791
 3195TIP3    H231221   3.153   4.465   2.177  0.1805  1.9228  1.2372
 3196TIP3   OH231222   5.838   2.060   1.303 -0.0232  0.2552 -0.0335
 3196TIP3    H131223   5.845   2.145   1.258  1.2049  0.1566 -0.0625
 3196TIP3    H231224   5.800   2.001   1.238 -0.2379  0.6231 -0.2450
 3197TIP3   OH231225   1.290   5.738   7.396 -0.3153 -0.3796  0.1109
 3197TIP3    H131226   1.247   5.777   7.320 -1.0468 -1.2521  0.0609
 3197TIP3    H231227   1.257   5.648   7.399  0.6038 -0.7099  0.7755
 3198TIP3   OH231228   1.812   1.340   0.666  0.3760  0.0776  0.3987
 3198TIP3    H131229   1.804   1.431   0.636 -0.1761 -0.3073 -0.6689
 3198TIP3    H231230   1.725   1.302   0.650  0.6626 -0.6989  0.6353
 3199TIP3   OH231231   4.190   4.186   7.391 -0.2624 -0.0196 -0.7845
 3199TIP3    H131232   4.274   4.224   7.365 -0.7232  1.2095 -0.5752
 3199TIP3    H231233   4.125   4.234   7.339 -0.9239  0.0149  0.0541
 3200TIP3   OH231234   6.732   6.539   7.774 -0.4161  0.3505 -0.6098
 3200TIP3    H131235   6.826   6.527   7.757 -0.3735 -0.7252  0.2439
 3200TIP3    H231236   6.690   6.528   7.689  0.0544 -1.4563 -0.6405
 3201TIP3   OH231237   6.720   1.630   8.273 -0.0236 -0.3055 -0.1817
 3201TIP3    H131238   6.785   1.560   8.266 -0.1726 -0.4845  0.2128
 3201TIP3    H231239   6.673   1.628   8.190 -1.1558 -1.7900  0.4386
 3202TIP3   OH231240   3.789   0.529   7.655 -0.6382  0.1579 -0.2204
 3202TIP3    H131241   3.774   0.441   7.621 -2.0317 -1.3503  3.8064
 3202TIP3    H231242   3.701   0.564   7.670 -0.1326  0.7918  1.4738
 3203TIP3   OH231243   6.891   1.696   2.207  0.5917 -0.0136  0.4640
 3203TIP3    H131244   6.933   1.745   2.278 -1.3020  1.6030  0.5513
 3203TIP3    H231245   6.887   1.757   2.134 -1.3462 -0.1428  0.3968
 3204TIP3   OH231246   2.165   6.506   0.721  0.2523 -0.5816  0.5782
 3204TIP3    H131247   2.100   6.486   0.653 -0.7304  0.9890  0.9944
 3204TIP3    H231248   2.170   6.602   0.721  2.3121 -0.6485  0.8313
 3205TIP3   OH231249   2.479   4.554   1.477 -0.1662 -0.4765 -0.0142
 3205TIP3    H131250   2.524   4.630   1.439  1.0603 -1.0758  0.1758
 3205TIP3    H231251   2.507   4.553   1.569 -1.5972 -0.1468  0.4594
 3206TIP3   OH231252   0.482   4.253   6.753 -0.3896  0.3749 -0.2078
 3206TIP3    H131253   0.442   4.292   6.830 -1.1619  0.4179 -0.6273
 3206TIP3    H231254   0.450   4.163   6.751 -1.1175  0.6341 -0.9779
 3207TIP3   OH231255   2.159   4.287   7.778  0.3120  0.0351  0.1913
 3207TIP3    H131256   2.104   4.314   7.704  0.6963  1.0716  0.2643
 3207TIP3    H231257   2.112   4.318   7.855 -0.5398 -1.8329  0.4779
 3208TIP3   OH231258   5.170   5.152   1.368  0.5242  0.4987 -0.0204
 3208TIP3    H131259   5.083   5.156   1.407 -0.2412  0.3921 -1.6332
 3208TIP3    H231260   5.180   5.062   1.339 -0.3233  1.2240 -2.9420
 3209TIP3   OH231261   4.630   6.126   7.872  0.2817 -0.8216  0.6854
 3209TIP3    H131262   4.617   6.094   7.783  1.5235 -1.5968  0.7603
 3209TIP3    H231263   4.676   6.055   7.917  2.1493  0.6157  1.1705
 3210TIP3   OH231264   5.664   4.469   6.715 -0.3025 -0.0730 -0.3388
 3210TIP3    H131265   5.593   4.426   6.761 -1.0451  0.6399 -0.7789
 3210TIP3    H231266   5.624   4.547   6.676  0.5854  0.0339 -1.0887
 3211TIP3   OH231267   1.648   5.668   7.742  0.0027  0.2597 -0.3574
 3211TIP3    H131268   1.690   5.615   7.674 -1.7000 -0.6302 -0.7678
 3211TIP3    H231269   1.554   5.653   7.730 -0.5062  2.6061  0.1614
 3212TIP3   OH231270   2.425   1.493   0.984 -0.2734  0.0142  0.5969
 3212TIP3    H131271   2.479   1.432   0.934 -0.9626 -0.9953  1.0600
 3212TIP3    H231272   2.373   1.538   0.917  0.0735 -0.0646  0.2688
 3213TIP3   OH231273   0.492   6.138   8.347  0.2087 -0.2731 -0.6534
 3213TIP3    H131274   0.546   6.194   8.290 -1.0403  0.2081 -1.4000
 3213TIP3    H231275   0.408   6.132   8.301 -2.1802  3.0391  2.6762
 3214TIP3   OH231276   6.792   1.532   1.994  0.3635  0.2637  0.1825
 3214TIP3    H131277   6.697   1.526   2.003  0.2988  0.5218 -0.2720
 3214TIP3    H231278   6.819   1.602   2.054 -0.0148  1.7483 -1.2946
 3215TIP3   OH231279   2.890   0.878   0.169  0.3530 -0.0216  0.0027
 3215TIP3    H131280   2.814   0.820   0.178 -0.1952  0.7091  0.1467
 3215TIP3    H231281   2.881   0.915   0.082 -1.3595  2.6552  1.1880
 3216TIP3   OH231282   2.626   3.648   6.808  0.4224  0.3771 -0.3626
 3216TIP3    H131283   2.672   3.731   6.825 -1.3496  1.2851  0.2764
 3216TIP3    H231284   2.619   3.643   6.713  0.3608  1.0773 -0.4008
 3217TIP3   OH231285   4.063   0.477   7.746 -0.1129  0.2981  0.9029
 3217TIP3    H131286   4.068   0.381   7.737 -1.4704  0.2593  0.3369
 3217TIP3    H231287   3.979   0.500   7.707  0.1322  1.7207  1.1749
 3218TIP3   OH231288   0.227   3.811   8.237  0.2580  0.1138  0.4845
 3218TIP3    H131289   0.256   3.860   8.313 -0.7727 -0.1114  1.0357
 3218TIP3    H231290   0.268   3.725   8.246  2.2070  0.8694 -0.5714
 3219TIP3   OH231291   3.632   4.697   7.883 -0.3410 -0.7751 -0.5713
 3219TIP3    H131292   3.727   4.701   7.875 -0.3870  0.3498 -0.7090
 3219TIP3    H231293   3.601   4.683   7.793 -0.3481  0.2728 -0.7511
 3220TIP3   OH231294   4.831   6.899   0.084 -0.3013 -0.2848 -0.4490
 3220TIP3    H131295   4.840   6.988   0.049 -2.4010 -0.0079 -0.4509
 3220TIP3    H231296   4.850   6.842   0.009  0.8026  0.1433 -0.5146
 3221TIP3   OH231297   5.189   1.417   7.406 -0.5068  0.0695 -0.0450
 3221TIP3    H131298   5.184   1.484   7.475 -0.5335 -0.5598  0.5797
 3221TIP3    H231299   5.212   1.465   7.327  0.9261  0.6527  0.6828
 3222TIP3   OH231300   4.904   0.505   0.281  0.1564  0.0490 -0.8760
 3222TIP3    H131301   4.961   0.503   0.204  1.2906 -0.9202 -0.0465
 3222TIP3    H231302   4.815   0.500   0.245  0.5145  2.1561 -2.2291
 3223TIP3   OH231303   1.131   6.361   8.010 -0.8637 -0.2383  0.2736
 3223TIP3    H131304   1.151   6.412   7.932 -1.3635 -1.2583 -0.5560
 3223TIP3    H231305   1.183   6.282   8.001 -0.9221 -0.3653  0.9818
 3224TIP3   OH231306   3.306   5.915   8.168  0.1829 -0.1524 -0.0908
 3224TIP3    H131307   3.238   5.848   8.179  0.1512 -0.1160 -0.0610
 3224TIP3    H231308   3.327   5.942   8.258  0.4055 -0.3307 -0.0892
 3225TIP3   OH231309   0.955   2.382   7.944  0.5571 -0.5791 -0.1311
 3225TIP3    H131310   0.983   2.474   7.947  1.9120 -0.9324 -1.0097
 3225TIP3    H231311   1.033   2.335   7.916 -0.1209 -2.0138  0.3354
 3226TIP3   OH231312   0.688   2.665   8.384  0.2426 -0.7054  0.2288
 3226TIP3    H131313   0.608   2.619   8.412 -0.0565 -0.3541 -0.0401
 3226TIP3    H231314   0.705   2.633   8.295 -1.0438  1.0629 -0.7259
 3227TIP3   OH231315   5.687   4.768   6.986  0.2479  0.6118  0.2451
 3227TIP3    H131316   5.670   4.770   7.080 -0.7040  1.5095  0.0654
 3227TIP3    H231317   5.783   4.773   6.979  0.4446 -1.0379  1.1869
 3228TIP3   OH231318   0.590   6.617   2.345  0.3854  0.4814 -0.3851
 3228TIP3    H131319   0.542   6.666   2.412 -0.8011 -0.7185 -0.3221
 3228TIP3    H231320   0.651   6.681   2.308  0.1467  1.5165  0.9197
 3229TIP3   OH231321   4.870   2.092   6.807 -0.1271  0.0556  0.2944
 3229TIP3    H131322   4.776   2.108   6.801 -0.2366 -0.1767  1.1795
 3229TIP3    H231323   4.895   2.059   6.721 -1.2883 -2.0739  0.6910
 3230TIP3   OH231324   3.267   2.158   1.556  0.3401  0.4087  1.1158
 3230TIP3    H131325   3.353   2.153   1.515 -0.3573 -0.7496 -0.2531
 3230TIP3    H231326   3.252   2.071   1.593 -0.5964  0.3286  0.5814
 3231TIP3   OH231327   4.646   4.452   7.932 -0.4104 -0.9594 -0.0675
 3231TIP3    H131328   4.595   4.523   7.970  0.9456  0.1236 -0.1996
 3231TIP3    H231329   4.718   4.495   7.886  0.6402 -2.4169  0.1164
 3232TIP3   OH231330   1.650   3.340   0.260  0.9890 -0.2493 -0.3148
 3232TIP3    H131331   1.737   3.328   0.222  1.8430 -1.2459  1.8464
 3232TIP3    H231332   1.593   3.285   0.206  1.9805 -0.8715 -0.7549
 3233TIP3   OH231333   3.154   3.558   7.195  0.4080 -0.1813  0.8741
 3233TIP3    H131334   3.173   3.591   7.107 -1.5906 -3.8094 -1.1629
 3233TIP3    H231335   3.240   3.552   7.236  1.5138  0.9820 -1.0851
 3234TIP3   OH231336   6.982   0.222   0.537  0.2961 -0.5348  0.0385
 3234TIP3    H131337   7.010   0.173   0.459  1.0505 -0.3755  0.2092
 3234TIP3    H231338   7.059   0.225   0.593  1.3321  3.4994 -1.2727
 3235TIP3   OH231339   3.632   2.136   7.538  0.1931 -0.4199  0.1005
 3235TIP3    H131340   3.578   2.208   7.569  1.6380  0.9527 -0.4148
 3235TIP3    H231341   3.700   2.126   7.606  1.1662  0.0819 -0.7672
 3236TIP3   OH231342   1.850   5.004   8.126  0.4659  0.5224  0.3129
 3236TIP3    H131343   1.770   5.012   8.075  0.0771 -2.5660  0.2499
 3236TIP3    H231344   1.821   5.005   8.217  0.0961 -1.7136  0.2875
 3237TIP3   OH231345   0.321   6.880   2.280 -0.0468  0.1576 -0.2239
 3237TIP3    H131346   0.407   6.909   2.310  0.5628  0.9183 -2.5391
 3237TIP3    H231347   0.286   6.830   2.354  1.0880  2.3106  1.9317
 3238TIP3   OH231348   0.879   0.902   6.064  0.0765 -0.2549  0.2708
 3238TIP3    H131349   0.922   0.982   6.095 -0.1632  0.1573 -0.4311
 3238TIP3    H231350   0.950   0.839   6.052  0.3428  0.0493  0.2393
 3239TIP3   OH231351   6.162   6.059   0.911  0.0748 -0.1331  0.4513
 3239TIP3    H131352   6.201   6.077   0.997 -4.0109 -0.1574  2.5706
 3239TIP3    H231353   6.070   6.037   0.930 -0.9692 -0.5987 -3.9367
 3240TIP3   OH231354   1.472   2.282   6.202 -0.3046 -0.3100  0.3099
 3240TIP3    H131355   1.546   2.308   6.256 -0.9233  1.1326  0.4967
 3240TIP3    H231356   1.406   2.350   6.215 -1.7784 -1.6653  0.3285
 3241TIP3   OH231357   2.841   2.460   2.524 -0.0291  0.4033 -0.3374
 3241TIP3    H131358   2.855   2.543   2.570 -1.3925 -0.0913  1.0685
 3241TIP3    H231359   2.923   2.445   2.476  0.4317  2.2924 -0.2330
 3242TIP3   OH231360   6.952   2.970   8.206  0.5021 -0.4929 -0.3309
 3242TIP3    H131361   7.017   3.034   8.237 -0.4942  0.2621  0.2534
 3242TIP3    H231362   6.885   2.970   8.273  0.3211 -1.9357 -0.4953
 3243TIP3   OH231363   5.331   2.002   1.499 -0.0251  0.3586 -0.2874
 3243TIP3    H131364   5.353   1.952   1.578  0.0194  0.8935  0.0441
 3243TIP3    H231365   5.313   2.090   1.531 -0.1999  0.5310 -0.8566
 3244TIP3   OH231366   1.374   0.378   8.180  0.0678 -0.1348 -0.2270
 3244TIP3    H131367   1.374   0.382   8.084  0.2318 -1.0433 -0.2757
 3244TIP3    H231368   1.420   0.458   8.207 -3.8416  2.5745 -0.7396
 3245TIP3   OH231369   3.761   0.767   8.291  0.1866 -0.0347 -0.7285
 3245TIP3    H131370   3.750   0.853   8.333 -0.0521 -0.8943  1.0750
 3245TIP3    H231371   3.672   0.732   8.285  0.4871 -1.2442  1.0718
 3246TIP3   OH231372   3.684   4.705   2.705 -0.0291  0.1492  0.1361
 3246TIP3    H131373   3.628   4.640   2.748  0.9339 -0.8516 -0.0647
 3246TIP3    H231374   3.757   4.654   2.671  1.0031  1.4209  0.3809
 3247TIP3   OH231375   0.178   3.058   7.845  0.0151  0.2690  0.5283
 3247TIP3    H131376   0.100   3.113   7.851 -1.9030 -2.1676 -0.3832
 3247TIP3    H231377   0.147   2.969   7.863  2.6502 -0.7851  0.3735
 3248TIP3   OH231378   6.169   6.546   0.126 -0.1385  0.6912  0.0087
 3248TIP3    H131379   6.233   6.511   0.188 -1.7097 -0.6849  0.9252
 3248TIP3    H231380   6.205   6.526   0.040  0.5306 -0.2982  0.5077
 3249TIP3   OH231381   6.051   6.538   7.692  0.0655 -0.1346 -0.2208
 3249TIP3    H131382   5.986   6.580   7.636  1.3209  2.1305 -0.1194
 3249TIP3    H231383   6.106   6.610   7.722  2.7175 -1.9412 -0.4119
 3250TIP3   OH231384   0.709   1.919   0.793  0.1708 -0.4072  0.1558
 3250TIP3    H131385   0.743   1.857   0.857  0.2178 -1.9376 -1.2899
 3250TIP3    H231386   0.654   1.978   0.844 -1.1049 -2.5456  1.4049
 3251TIP3   OH231387   6.816   6.113   6.974  0.1012 -0.3988  0.0078
 3251TIP3    H131388   6.803   6.102   6.880 -1.4586  0.5819  0.0638
 3251TIP3    H231389   6.911   6.113   6.986  0.3393 -2.7697 -1.2500
 3252TIP3   OH231390   1.258   0.040   6.903 -0.0006 -0.4249  0.2668
 3252TIP3    H131391   1.307   0.101   6.958  1.3562 -0.3297 -0.9755
 3252TIP3    H231392   1.187   0.008   6.959 -1.2370  2.8187  0.7282
 3253TIP3   OH231393   5.714   3.108   1.274  0.1020  0.6233 -0.2641
 3253TIP3    H131394   5.787   3.142   1.326  0.4931  0.8395 -0.9388
 3253TIP3    H231395   5.752   3.089   1.188 -0.7957  1.5794 -0.9151
 3254TIP3   OH231396   6.512   4.656   6.882  0.5837  0.5718  0.3030
 3254TIP3    H131397   6.535   4.579   6.831 -0.7941 -0.7671  1.6161
 3254TIP3    H231398   6.582   4.664   6.947  0.0419 -0.3988  1.0204
 3255TIP3   OH231399   4.888   1.864   8.206 -0.0235 -0.0205 -0.6508
 3255TIP3    H131400   4.799   1.852   8.240  0.5010 -3.6198 -0.2058
 3255TIP3    H231401   4.891   1.957   8.181 -3.0535  0.8803  1.6292
 3256TIP3   OH231402   0.275   4.903   0.198 -0.0194  0.6242  0.0702
 3256TIP3    H131403   0.357   4.897   0.148  1.1083 -1.4567  2.0151
 3256TIP3    H231404   0.214   4.847   0.150  0.5519 -0.0233  0.0780
 3257TIP3   OH231405   5.032   4.251   2.809 -0.1783 -0.0143 -0.1185
 3257TIP3    H131406   4.966   4.285   2.748 -1.5386 -3.1771 -0.5952
 3257TIP3    H231407   5.007   4.286   2.894 -1.5438  0.0916 -0.5415
 3258TIP3   OH231408   4.432   6.534   1.185  0.0353 -0.1743 -0.1003
 3258TIP3    H131409   4.365   6.542   1.253  0.6505  4.0720  0.2769
 3258TIP3    H231410   4.514   6.529   1.233  0.3128  0.0473 -0.5536
 3259TIP3   OH231411   4.731   0.986   1.855 -0.6684 -0.1167  0.1076
 3259TIP3    H131412   4.637   0.984   1.871 -0.8335 -1.6087 -0.8526
 3259TIP3    H231413   4.762   0.899   1.879  0.4669  0.3230  0.3352
 3260TIP3   OH231414   1.750   0.538   0.614 -0.2068  0.0722 -0.5360
 3260TIP3    H131415   1.728   0.628   0.588  2.4801  0.9590  0.0431
 3260TIP3    H231416   1.771   0.494   0.531 -1.6957 -0.1382 -0.8400
 3261TIP3   OH231417   2.635   1.609   1.276  0.5792  0.0558 -0.4981
 3261TIP3    H131418   2.660   1.674   1.342 -0.2785  0.7244 -0.8138
 3261TIP3    H231419   2.712   1.553   1.268  1.7188  1.6024 -0.8905
 3262TIP3   OH231420   4.008   2.224   1.290  0.0995  0.0363  0.1750
 3262TIP3    H131421   4.056   2.144   1.267 -0.4889 -0.3175  0.1523
 3262TIP3    H231422   3.916   2.202   1.274  0.0569  1.3182 -1.5802
 3263TIP3   OH231423   5.386   2.062   0.532 -0.5103 -0.2360 -1.0690
 3263TIP3    H131424   5.337   2.071   0.614 -0.9922 -1.4867 -1.1976
 3263TIP3    H231425   5.413   2.151   0.511  0.6974 -0.0203  1.0790
 3264TIP3   OH231426   4.763   4.701   7.808  0.6559 -0.2938  0.0511
 3264TIP3    H131427   4.756   4.775   7.748  2.0308  0.0829  0.3231
 3264TIP3    H231428   4.795   4.739   7.889 -0.9435 -0.8362  0.9795
 3265TIP3   OH231429   2.456   1.197   7.089  0.3198 -0.5508 -0.5141
 3265TIP3    H131430   2.538   1.151   7.069 -0.1233 -1.3745 -0.5032
 3265TIP3    H231431   2.458   1.208   7.184 -0.5631 -2.5743 -0.2043
 3266TIP3   OH231432   5.053   2.745   7.581 -0.1889 -0.0402 -0.1396
 3266TIP3    H131433   4.978   2.781   7.629 -0.1363  0.6174 -0.5418
 3266TIP3    H231434   5.129   2.766   7.636 -0.1506  0.5417 -0.4063
 3267TIP3   OH231435   5.720   0.881   7.531  0.1141 -0.3382  0.1518
 3267TIP3    H131436   5.726   0.795   7.572  1.3098 -0.1463  0.4062
 3267TIP3    H231437   5.798   0.927   7.561  0.9067 -0.1043 -2.1059
 3268TIP3   OH231438   1.760   5.776   1.579  0.4415  0.5117  0.4233
 3268TIP3    H131439   1.685   5.793   1.636  0.1615 -0.1014  0.2427
 3268TIP3    H231440   1.833   5.762   1.639  0.0587 -0.5702  0.6535
 3269TIP3   OH231441   6.202   0.590   1.306  0.4000 -0.3403 -0.2324
 3269TIP3    H131442   6.230   0.539   1.382 -1.4273 -1.1755 -0.0545
 3269TIP3    H231443   6.277   0.646   1.286  1.3642 -0.9329  1.4479
 3270TIP3   OH231444   5.566   6.073   1.767  0.1727 -0.6062 -0.6387
 3270TIP3    H131445   5.629   6.089   1.838  0.6903 -0.9055 -1.0248
 3270TIP3    H231446   5.606   6.003   1.716  0.0311 -0.0587 -1.5145
 3271TIP3   OH231447   4.666   0.407   1.774  0.4623 -0.0613  0.4849
 3271TIP3    H131448   4.606   0.438   1.842 -1.6758 -0.1837 -1.2539
 3271TIP3    H231449   4.659   0.312   1.777  1.5843 -0.1426  1.1019
 3272TIP3   OH231450   2.972   4.563   0.959  0.4804  0.3372 -0.0828
 3272TIP3    H131451   3.034   4.490   0.950 -0.6877 -0.6903 -0.1067
 3272TIP3    H231452   2.972   4.583   1.052  1.0100  0.4923 -0.1137
 3273TIP3   OH231453   0.327   4.985   7.154  0.7202  0.1885  0.1547
 3273TIP3    H131454   0.343   4.978   7.060  1.2373 -0.3341  0.2753
 3273TIP3    H231455   0.394   5.045   7.186  0.8044  0.0398  0.2563
 3274TIP3   OH231456   3.444   2.355   7.587  0.5500 -0.0560 -0.1255
 3274TIP3    H131457   3.354   2.389   7.586  0.8603  0.7804 -0.3196
 3274TIP3    H231458   3.499   2.432   7.581  1.2626 -0.6671 -2.2874
 3275TIP3   OH231459   5.691   6.820   0.631 -0.3685  0.3285 -0.2545
 3275TIP3    H131460   5.743   6.886   0.585  0.5590 -1.6641 -2.2588
 3275TIP3    H231461   5.606   6.822   0.588 -0.9438  1.3407  0.8555
 3276TIP3   OH231462   3.090   4.932   7.342  0.0126 -0.4976  0.1045
 3276TIP3    H131463   3.132   5.013   7.311  1.5467 -0.7654  1.3277
 3276TIP3    H231464   3.140   4.862   7.301 -0.2896 -0.8316  0.3045
 3277TIP3   OH231465   0.219   0.534   6.120  0.4422  0.6748 -0.1430
 3277TIP3    H131466   0.308   0.568   6.128 -0.4462  3.0332  0.7742
 3277TIP3    H231467   0.223   0.475   6.044  3.3479 -1.5935  1.5580
 3278TIP3   OH231468   3.980   5.611   7.735  0.0108 -0.0774 -0.0569
 3278TIP3    H131469   4.009   5.585   7.822  0.7312 -0.2962 -0.3581
 3278TIP3    H231470   3.994   5.705   7.731  0.8549 -0.2078 -0.2625
 3279TIP3   OH231471   1.162   5.303   0.319  0.0959 -0.0585  0.1598
 3279TIP3    H131472   1.132   5.330   0.406 -0.3149  2.4554 -0.6646
 3279TIP3    H231473   1.232   5.241   0.336 -1.0142 -0.8388  2.2441
 3280TIP3   OH231474   1.602   4.787   6.641  0.2847 -0.0077  0.0991
 3280TIP3    H131475   1.509   4.771   6.658  0.6172 -1.2498  0.9689
 3280TIP3    H231476   1.621   4.736   6.562  0.8286 -2.2000  1.5612
 3281TIP3   OH231477   2.448   1.051   7.962 -0.5345  0.6376 -0.1429
 3281TIP3    H131478   2.523   1.044   7.903  0.4727 -0.7481  1.2507
 3281TIP3    H231479   2.377   1.009   7.914 -0.0378  0.5622 -0.8324
 3282TIP3   OH231480   6.235   0.964   8.079  0.1188  0.1446 -0.0193
 3282TIP3    H131481   6.173   1.009   8.022  0.5500 -0.1629 -0.7497
 3282TIP3    H231482   6.286   0.908   8.020  0.8672  0.1434  0.6042
 3283TIP3   OH231483   5.713   5.633   7.603  0.2600 -0.0945 -0.6760
 3283TIP3    H131484   5.619   5.643   7.616  0.4609  0.5650  0.4533
 3283TIP3    H231485   5.724   5.548   7.562 -0.8132 -0.2500 -0.6476
 3284TIP3   OH231486   2.424   0.725   0.486 -0.7771  0.0278 -0.2734
 3284TIP3    H131487   2.424   0.740   0.391  1.2815 -2.4060 -0.7394
 3284TIP3    H231488   2.516   0.735   0.512 -1.3213  0.7493  1.5266
 3285TIP3   OH231489   6.800   5.187   6.511 -0.2192 -0.2414  0.3698
 3285TIP3    H131490   6.813   5.255   6.445 -0.2241 -1.1664 -0.5893
 3285TIP3    H231491   6.720   5.142   6.485 -0.6332 -0.1600  1.4191
 3286TIP3   OH231492   2.058   2.687   2.503  0.0140 -0.3149 -0.2404
 3286TIP3    H131493   1.972   2.646   2.496 -1.0964  2.1158 -2.9798
 3286TIP3    H231494   2.104   2.659   2.424  1.4723 -0.8797  0.7656
 3287TIP3   OH231495   3.167   6.123   7.974 -0.0907 -0.0930 -0.4990
 3287TIP3    H131496   3.086   6.172   7.989 -1.0050 -1.2868 -1.3793
 3287TIP3    H231497   3.172   6.062   8.047 -0.3903 -0.5331 -0.8426
 3288TIP3   OH231498   4.976   6.874   2.053 -0.5306 -0.6893 -0.4620
 3288TIP3    H131499   4.979   6.906   2.144 -1.8110 -2.2623  0.1675
 3288TIP3    H231500   5.057   6.824   2.043  0.3987  0.8118 -0.7395
 3289TIP3   OH231501   5.702   3.022   6.931  0.4123  0.1806 -0.2644
 3289TIP3    H131502   5.711   3.117   6.921  2.0381  0.0690 -0.1903
 3289TIP3    H231503   5.636   3.011   7.000 -0.3010  1.2292 -0.7580
 3290TIP3   OH231504   6.415   3.487   1.699 -0.4453  0.2769  0.2515
 3290TIP3    H131505   6.448   3.422   1.761 -2.1066 -0.1558  0.7337
 3290TIP3    H231506   6.342   3.443   1.655 -0.1654  1.0595 -1.0482
 3291TIP3   OH231507   5.559   6.475   2.539  0.4325 -0.3246 -0.4614
 3291TIP3    H131508   5.613   6.414   2.588  0.6692  1.0050  1.0225
 3291TIP3    H231509   5.598   6.477   2.451  1.2787 -1.2144 -0.1244
 3292TIP3   OH231510   6.506   0.091   0.094 -0.2144  0.5755 -0.1160
 3292TIP3    H131511   6.474   0.170   0.051 -0.9427  1.0318  1.1949
 3292TIP3    H231512   6.547   0.041   0.024  0.6698  2.3006 -0.9031
 3293TIP3   OH231513   3.798   6.556   8.416 -0.2529 -0.3205 -0.3170
 3293TIP3    H131514   3.767   6.610   8.344 -2.1094 -0.6345  0.1969
 3293TIP3    H231515   3.835   6.478   8.374  0.2504  0.2656 -0.9724
 3294TIP3   OH231516   6.370   2.880   7.767 -0.2444  0.1979  0.3304
 3294TIP3    H131517   6.291   2.926   7.737 -0.0089 -0.4906 -1.5140
 3294TIP3    H231518   6.440   2.917   7.714 -0.0923 -2.4087 -1.4910
 3295TIP3   OH231519   6.114   0.685   6.881  0.5637 -0.4108 -0.3360
 3295TIP3    H131520   6.139   0.637   6.802 -0.7776 -0.9489 -0.4511
 3295TIP3    H231521   6.136   0.626   6.953  1.0684 -0.2375 -0.3457
 3296TIP3   OH231522   1.832   1.907   7.362  0.0185 -0.1234 -0.4847
 3296TIP3    H131523   1.878   1.838   7.314  0.1414 -0.0497 -0.4765
 3296TIP3    H231524   1.849   1.986   7.310 -2.7236 -0.5747 -2.2669
 3297TIP3   OH231525   1.362   6.431   0.388  0.4433  0.4298 -0.0155
 3297TIP3    H131526   1.335   6.342   0.367  2.8278  0.0661 -1.8653
 3297TIP3    H231527   1.316   6.451   0.470 -0.7842 -2.1547  0.0175
 3298TIP3   OH231528   2.447   3.269   8.013 -0.0296 -0.5869  0.3686
 3298TIP3    H131529   2.515   3.210   7.980 -0.6101 -0.8160 -0.4579
 3298TIP3    H231530   2.366   3.218   8.007 -0.4176  0.0110  0.4320
 3299TIP3   OH231531   1.766   6.419   6.522 -0.2290 -0.0780 -0.5332
 3299TIP3    H131532   1.730   6.492   6.572  1.0945 -0.2626  0.7422
 3299TIP3    H231533   1.829   6.460   6.462  1.0055 -0.1777  0.6387
 3300TIP3   OH231534   0.278   4.072   7.201 -0.7936 -0.3061 -0.5945
 3300TIP3    H131535   0.224   4.094   7.277  1.1593  1.6791  0.3600
 3300TIP3    H231536   0.325   3.992   7.228 -1.3260 -0.5478 -0.3757
 3301TIP3   OH231537   3.200   2.448   7.568  0.4666  1.1247 -0.8879
 3301TIP3    H131538   3.174   2.540   7.574 -0.4247  0.7827  2.1074
 3301TIP3    H231539   3.130   2.406   7.519  0.0691  1.7842 -0.8950
 3302TIP3   OH231540   4.642   3.490   7.398 -0.4228  0.7480 -0.1756
 3302TIP3    H131541   4.734   3.489   7.422 -0.6705  2.3343  0.9536
 3302TIP3    H231542   4.595   3.489   7.482 -1.5003 -1.3061 -0.7234
 3303TIP3   OH231543   4.489   0.718   7.481 -0.4176  0.1461 -0.9073
 3303TIP3    H131544   4.573   0.705   7.526  0.1805  2.2592 -1.3011
 3303TIP3    H231545   4.428   0.659   7.527  0.9381 -0.3302  0.3641
 3304TIP3   OH231546   6.452   0.740   0.555 -0.3339  0.2145 -0.2916
 3304TIP3    H131547   6.392   0.717   0.484 -0.3545  0.6034 -0.4052
 3304TIP3    H231548   6.463   0.835   0.546  0.0165  0.1962 -0.0513
 3305TIP3   OH231549   5.829   2.648   7.554  0.8334 -0.4792  0.0208
 3305TIP3    H131550   5.736   2.626   7.551  0.2898  1.5406  0.1562
 3305TIP3    H231551   5.838   2.702   7.633  1.3295  2.2792 -1.7638
 3306TIP3   OH231552   0.937   0.695   7.499 -0.5848 -0.2314 -0.2745
 3306TIP3    H131553   0.967   0.604   7.504 -1.6174 -0.5749 -0.1814
 3306TIP3    H231554   0.842   0.688   7.490 -0.5506  0.8092 -1.6138
 3307TIP3   OH231555   5.913   4.649   1.542 -0.0266 -0.4042 -0.1147
 3307TIP3    H131556   5.907   4.704   1.620 -1.0094 -0.1880 -0.3309
 3307TIP3    H231557   5.844   4.583   1.553 -0.4489 -0.1305 -0.9768
 3308TIP3   OH231558   4.218   0.414   2.392  0.0562  0.1387  0.3150
 3308TIP3    H131559   4.201   0.326   2.426 -0.0293  0.4525  1.1203
 3308TIP3    H231560   4.263   0.458   2.465 -1.4141  1.2919  0.5632
 3309TIP3   OH231561   2.546   1.239   6.465 -0.2960  0.8368  0.4887
 3309TIP3    H131562   2.514   1.149   6.453 -2.3116  1.2905  1.8878
 3309TIP3    H231563   2.635   1.237   6.431 -0.1529 -1.7892  0.7628
 3310TIP3   OH231564   6.860   2.169   6.966 -0.0618 -0.5244  0.1553
 3310TIP3    H131565   6.857   2.246   7.022  2.5974  1.8917 -2.7089
 3310TIP3    H231566   6.770   2.157   6.936 -0.3980  2.0713 -0.0426
 3311TIP3   OH231567   5.251   1.955   8.302 -0.6272  0.4424  0.5922
 3311TIP3    H131568   5.262   2.041   8.262 -0.7148  0.5132  0.7209
 3311TIP3    H231569   5.302   1.896   8.247 -0.1693  0.6576  0.7890
 3312TIP3   OH231570   6.967   0.114   1.336 -0.2364 -0.1996  0.1217
 3312TIP3    H131571   6.943   0.021   1.345  0.3405 -0.3544  0.1437
 3312TIP3    H231572   6.888   0.162   1.359 -1.0699 -0.7150 -1.5102
 3313TIP3   OH231573   1.616   3.782   6.992  0.8059 -0.2580  0.0937
 3313TIP3    H131574   1.556   3.707   6.989  1.1491 -0.5126 -0.6869
 3313TIP3    H231575   1.600   3.829   6.910  1.4072 -0.1219  0.0483
 3314TIP3   OH231576   0.489   2.568   7.516  0.0646  0.6178 -0.0602
 3314TIP3    H131577   0.426   2.611   7.457 -0.3819  0.6653  0.4473
 3314TIP3    H231578   0.445   2.487   7.543  0.3920  0.4506 -0.0197
 3315TIP3   OH231579   2.936   3.322   7.870 -0.1247 -0.2484  0.3519
 3315TIP3    H131580   2.920   3.399   7.924 -1.2474  0.0986 -0.4233
 3315TIP3    H231581   3.028   3.328   7.846 -0.3966  1.3871 -0.4539
 3316TIP3   OH231582   1.337   3.379   6.574  0.1243 -0.2681 -0.7075
 3316TIP3    H131583   1.260   3.336   6.538 -0.0614 -0.2766 -0.3110
 3316TIP3    H231584   1.401   3.378   6.503  0.0288 -0.9515 -0.7886
 3317TIP3   OH231585   0.736   0.560   6.420 -0.1682  0.7375 -0.0767
 3317TIP3    H131586   0.783   0.477   6.413 -0.2447  0.6850  0.0249
 3317TIP3    H231587   0.805   0.624   6.438  0.1028  0.9719 -1.7990
 3318TIP3   OH231588   6.318   1.218   1.674 -0.7749  0.7707  0.7654
 3318TIP3    H131589   6.233   1.204   1.715 -0.7689  2.1538  1.3070
 3318TIP3    H231590   6.304   1.289   1.611 -0.3306  0.0251 -0.2137
 3319TIP3   OH231591   6.815   0.988   0.614 -0.0854  0.4833  0.2515
 3319TIP3    H131592   6.815   1.068   0.561  1.0842 -0.3643 -1.0942
 3319TIP3    H231593   6.863   0.924   0.562 -0.4850 -0.9479  1.5547
 3320TIP3   OH231594   4.756   2.351   1.348  0.2051 -0.1407 -0.0199
 3320TIP3    H131595   4.739   2.277   1.406  0.5021  0.5875  1.0147
 3320TIP3    H231596   4.746   2.428   1.404 -0.3148  0.6199 -1.1297
 3321TIP3   OH231597   1.222   5.651   1.023  0.7947  0.0919 -0.0481
 3321TIP3    H131598   1.242   5.743   1.006  0.7128  0.3217  0.9945
 3321TIP3    H231599   1.222   5.644   1.119 -2.3036 -0.2558  0.0478
 3322TIP3   OH231600   2.318   0.035   1.816  0.0532  0.2927  0.5172
 3322TIP3    H131601   2.280  -0.005   1.738  0.0647  0.9567  0.1621
 3322TIP3    H231602   2.256   0.015   1.886 -2.0894  3.0038 -0.3885
 3323TIP3   OH231603   4.459   5.873   1.100 -0.4832 -0.0586 -0.7886
 3323TIP3    H131604   4.534   5.861   1.159 -0.3566 -3.3485 -1.4048
 3323TIP3    H231605   4.498   5.906   1.019  0.3631 -1.6555 -1.0716
 3324TIP3   OH231606   4.821   0.206   0.086 -0.6135  0.3366 -0.7453
 3324TIP3    H131607   4.780   0.289   0.063 -0.0112  1.0708  0.7378
 3324TIP3    H231608   4.915   0.222   0.075 -0.4834 -0.0851 -0.2778
 3325TIP3   OH231609   3.529   3.962   1.343 -0.0521 -0.0720 -0.1070
 3325TIP3    H131610   3.494   3.874   1.359  0.3689 -0.6409 -1.9712
 3325TIP3    H231611   3.452   4.015   1.323 -0.4352  0.3268  2.2206
 3326TIP3   OH231612   5.503   3.826   1.409 -0.0356  0.1901  0.1133
 3326TIP3    H131613   5.532   3.743   1.447 -0.5491  0.5158  1.2586
 3326TIP3    H231614   5.542   3.827   1.322 -0.4172 -1.4858 -0.1241
 3327TIP3   OH231615   1.129   6.502   1.720  0.3508  0.5125 -0.3775
 3327TIP3    H131616   1.171   6.417   1.724 -0.1587  0.2814  0.3113
 3327TIP3    H231617   1.092   6.507   1.632  1.4778  0.5716 -0.8726
 3328TIP3   OH231618   0.206   6.448   0.032  0.1573 -0.1616  0.0958
 3328TIP3    H131619   0.238   6.398   0.107 -0.3359  0.3533  0.6637
 3328TIP3    H231620   0.244   6.536   0.045  0.1746 -0.1048 -0.3290
 3329TIP3   OH231621   3.897   2.816   0.993 -0.4084  0.1224  0.0304
 3329TIP3    H131622   3.823   2.874   1.012 -0.1038  0.8146 -0.8209
 3329TIP3    H231623   3.864   2.757   0.924 -0.7012 -0.7097  0.8579
 3330TIP3   OH231624   1.506   2.554   8.384  0.0201  0.2593  0.0839
 3330TIP3    H131625   1.417   2.520   8.386 -0.1753  0.5360 -1.7732
 3330TIP3    H231626   1.506   2.627   8.446 -1.0428  0.2681  0.0936
 3331TIP3   OH231627   2.120   2.231   8.409 -0.0937 -0.2573 -0.3909
 3331TIP3    H131628   2.209   2.225   8.373 -0.2265 -3.3004 -0.5364
 3331TIP3    H231629   2.064   2.205   8.336 -0.8934 -0.5474  0.3162
 3332TIP3   OH231630   4.777   5.978   1.193  0.0324 -0.3265 -0.1905
 3332TIP3    H131631   4.732   6.055   1.227 -0.5723 -1.0114  0.6231
 3332TIP3    H231632   4.859   5.974   1.242  0.3822  0.1608 -0.7145
 3333TIP3   OH231633   3.100   4.117   1.045  0.5843 -0.3046 -0.1539
 3333TIP3    H131634   3.150   4.159   1.115  0.3313 -2.3132  1.3186
 3333TIP3    H231635   3.008   4.124   1.073  0.3305  0.2388 -1.0802
 3334TIP3   OH231636   6.064   6.152   1.549 -0.2614 -0.0059  0.4683
 3334TIP3    H131637   6.100   6.143   1.637 -1.3880 -2.3499  0.7517
 3334TIP3    H231638   6.049   6.063   1.519 -3.7445  0.7358 -0.4607
 3335TIP3   OH231639   2.469   1.234   0.261  0.3690  0.6950 -0.4829
 3335TIP3    H131640   2.556   1.195   0.258 -0.1404 -0.4544 -1.7362
 3335TIP3    H231641   2.449   1.241   0.354  1.6528  0.6433 -0.1869
 3336TIP3   OH231642   6.811   0.017   6.648  0.3319  0.2165 -0.2713
 3336TIP3    H131643   6.791   0.110   6.642  0.4523  0.2597 -0.0151
 3336TIP3    H231644   6.883   0.003   6.586 -1.4587 -0.2348 -2.3826
 3337TIP3   OH231645   0.601   0.370   0.506  0.7535  0.5309 -0.2945
 3337TIP3    H131646   0.609   0.465   0.502  0.4836  0.5997  0.5098
 3337TIP3    H231647   0.650   0.345   0.585  0.8804 -0.0044 -0.5377
 3338TIP3   OH231648   0.785   5.334   1.229  0.4253 -0.0589  0.5806
 3338TIP3    H131649   0.817   5.385   1.303  0.5089 -0.0046  0.5078
 3338TIP3    H231650   0.785   5.396   1.156  1.3568 -0.3787  0.2877
 3339TIP3   OH231651   2.148   3.839   2.088 -0.1818  0.2261 -0.0160
 3339TIP3    H131652   2.240   3.814   2.094  0.0232  1.3609  3.0453
 3339TIP3    H231653   2.100   3.756   2.097  0.4226 -0.4947 -2.4827
 3340TIP3   OH231654   0.602   0.218   6.567 -0.0351  0.0710 -0.2399
 3340TIP3    H131655   0.581   0.269   6.488  1.0989  0.7880 -0.1075
 3340TIP3    H231656   0.650   0.142   6.533  0.1659  0.2091 -0.2645
 3341TIP3   OH231657   3.590   1.106   1.950 -0.5177 -0.4261  0.3622
 3341TIP3    H131658   3.500   1.110   1.982 -1.3208 -3.7322 -1.0822
 3341TIP3    H231659   3.583   1.062   1.865  2.5998 -2.3370  0.9509
 3342TIP3   OH231660   0.465   1.063   1.422  0.0428  0.5153  0.8429
 3342TIP3    H131661   0.542   1.005   1.418  1.1235  1.8052  1.7597
 3342TIP3    H231662   0.398   1.019   1.370  1.4520 -0.5937 -0.1006
 3343TIP3   OH231663   1.181   0.843   7.144 -0.1987  0.3232 -0.0151
 3343TIP3    H131664   1.249   0.821   7.080  0.1204 -0.3532  0.5388
 3343TIP3    H231665   1.198   0.783   7.217 -2.5566 -1.2193 -0.6300
 3344TIP3   OH231666   3.470   6.316   0.739  0.5272 -0.1337  0.6304
 3344TIP3    H131667   3.445   6.408   0.751 -0.1332 -0.0836 -0.9189
 3344TIP3    H231668   3.556   6.309   0.781  1.8910  1.9075 -1.5547
 3345TIP3   OH231669   5.647   5.330   6.843 -1.0175  0.1662 -0.3165
 3345TIP3    H131670   5.639   5.239   6.815 -0.3969  0.1449 -0.4357
 3345TIP3    H231671   5.618   5.381   6.767  0.1552  0.0948 -0.8425
 3346TIP3   OH231672   6.480   0.605   8.314 -0.2436 -0.1119  0.0579
 3346TIP3    H131673   6.422   0.609   8.391  1.5860 -2.2771  1.6794
 3346TIP3    H231674   6.504   0.696   8.297  0.8358  0.3573  3.3801
 3347TIP3   OH231675   1.702   6.976   0.434 -0.0834 -0.4965 -0.5122
 3347TIP3    H131676   1.768   7.041   0.410  0.1719 -0.1141  1.1024
 3347TIP3    H231677   1.618   7.021   0.425  0.0313 -0.2516 -0.3702
 3348TIP3   OH231678   4.944   3.849   7.375  0.1162  0.5555 -0.3640
 3348TIP3    H131679   4.935   3.765   7.330 -0.2646  0.4992 -0.1898
 3348TIP3    H231680   5.025   3.841   7.426  0.7292  0.7393 -1.2906
 3349TIP3   OH231681   0.604   2.792   7.952  0.3025 -0.0566 -0.2538
 3349TIP3    H131682   0.613   2.853   8.026  1.0839  1.0214 -1.2013
 3349TIP3    H231683   0.510   2.773   7.949  0.0711  0.9342  0.1993
 3350TIP3   OH231684   5.319   1.099   1.346 -0.3457 -0.2073 -0.1170
 3350TIP3    H131685   5.302   1.137   1.260  0.0407 -1.1457 -0.6263
 3350TIP3    H231686   5.235   1.063   1.373 -0.8444  1.4276  0.6065
 3351TIP3   OH231687   1.368   1.105   7.472 -0.3207 -0.4329 -0.3284
 3351TIP3    H131688   1.315   1.154   7.409 -2.5691  0.1663  1.8449
 3351TIP3    H231689   1.311   1.033   7.500  0.2361 -0.2013  1.5621
 3352TIP3   OH231690   4.264   1.183   7.140  0.5796  0.5600  0.2778
 3352TIP3    H131691   4.241   1.093   7.118  0.3946  0.4948  0.7252
 3352TIP3    H231692   4.181   1.222   7.168  1.0155  0.3006  2.0113
 3353TIP3   OH231693   1.098   3.097   7.901  0.0005 -0.1655  0.4481
 3353TIP3    H131694   1.165   3.101   7.970 -0.0255  0.5668  0.4371
 3353TIP3    H231695   1.015   3.096   7.948 -0.0269 -3.2250  0.5739
 3354TIP3   OH231696   5.386   4.844   8.134  0.0437 -0.1625  0.1590
 3354TIP3    H131697   5.458   4.907   8.124  0.9306 -0.9063  1.5421
 3354TIP3    H231698   5.421   4.761   8.102  0.9311 -1.2244  3.4733
 3355TIP3   OH231699   2.251   4.709   8.227 -0.0896 -0.4143 -0.0865
 3355TIP3    H131700   2.323   4.764   8.194 -0.5945  0.0498 -0.4369
 3355TIP3    H231701   2.176   4.733   8.172 -0.5988 -0.6365  0.5048
 3356TIP3   OH231702   4.457   3.139   7.332  0.1862  0.1642  0.1267
 3356TIP3    H131703   4.369   3.133   7.369 -0.0726  2.8766  0.1978
 3356TIP3    H231704   4.515   3.117   7.405 -0.3992  0.2477  0.6299
 3357TIP3   OH231705   0.691   1.895   7.980 -0.0936  0.1144  0.1499
 3357TIP3    H131706   0.653   1.855   7.901 -0.8714 -0.1020  0.6216
 3357TIP3    H231707   0.639   1.975   7.994 -0.9019 -0.5766  1.2364
 3358TIP3   OH231708   4.377   6.176   1.255  0.0556 -0.0880  0.0724
 3358TIP3    H131709   4.400   6.089   1.288  0.4770  0.1642  0.4667
 3358TIP3    H231710   4.417   6.236   1.318 -0.7044  0.3877  0.1241
 3359TIP3   OH231711   4.539   3.169   0.859  0.1167  0.0804  0.1696
 3359TIP3    H131712   4.592   3.133   0.930  0.5480  1.1020  0.3844
 3359TIP3    H231713   4.449   3.148   0.884  0.2841  0.1861  0.8783
 3360TIP3   OH231714   6.768   2.308   6.679 -0.3613  0.6287 -0.1047
 3360TIP3    H131715   6.775   2.403   6.668 -0.6294  0.7024  0.3535
 3360TIP3    H231716   6.856   2.280   6.703 -0.3725  0.8140  0.1540
 3361TIP3   OH231717   1.112   1.967   7.000 -0.4687 -0.4019  0.0415
 3361TIP3    H131718   1.107   1.919   6.918 -1.8340 -0.7458  0.3099
 3361TIP3    H231719   1.174   1.916   7.054  0.0044 -0.4732 -0.5561
 3362TIP3   OH231720   5.483   3.615   0.517  0.0521 -0.0530 -0.2210
 3362TIP3    H131721   5.399   3.634   0.474  0.4378 -0.9879 -1.4432
 3362TIP3    H231722   5.467   3.536   0.568  0.4428 -0.8535 -1.3054
 3363TIP3   OH231723   0.537   2.837   7.202 -0.3326  0.5119  0.5618
 3363TIP3    H131724   0.502   2.906   7.145  0.2140  0.2999 -0.0395
 3363TIP3    H231725   0.539   2.759   7.146  0.3377  0.3337  0.8268
 3364TIP3   OH231726   0.868   0.023   0.846  0.4120  0.2288  0.8571
 3364TIP3    H131727   0.832  -0.065   0.838 -0.9106  0.8855 -1.4465
 3364TIP3    H231728   0.935   0.016   0.913 -0.6395 -2.1965  1.7680
 3365TIP3   OH231729   6.583   5.281   8.249  0.0986  0.5059 -0.0455
 3365TIP3    H131730   6.508   5.221   8.245  0.5888 -0.1978  0.9786
 3365TIP3    H231731   6.594   5.311   8.158 -0.0733 -1.0739 -0.6175
 3366TIP3   OH231732   3.133   5.097   1.601 -0.0396 -0.1820  0.3987
 3366TIP3    H131733   3.166   5.118   1.689  0.0596 -0.4053  0.4144
 3366TIP3    H231734   3.043   5.067   1.615  0.2363 -0.9765  0.5069
 3367TIP3   OH231735   1.386   4.505   2.292 -0.0730 -0.2015  0.1192
 3367TIP3    H131736   1.448   4.435   2.312 -1.4532 -1.3795  0.4084
 3367TIP3    H231737   1.300   4.465   2.303 -0.9238  1.8208  1.2940
 3368TIP3   OH231738   5.215   1.186   0.538  0.1572  0.3798 -0.3883
 3368TIP3    H131739   5.278   1.148   0.598  1.8131  3.5691  0.1008
 3368TIP3    H231740   5.235   1.145   0.453  0.1685 -1.5171  0.4649
 3369TIP3   OH231741   1.323   2.043   6.218  0.5213 -0.3760  0.2903
 3369TIP3    H131742   1.233   2.062   6.243  0.7077 -0.1190  0.7895
 3369TIP3    H231743   1.363   2.129   6.203  1.1814 -0.3580  1.8838
 3370TIP3   OH231744   0.312   4.770   0.428 -0.4159  0.0945  0.5743
 3370TIP3    H131745   0.383   4.732   0.375 -1.8259 -0.4811 -1.0095
 3370TIP3    H231746   0.277   4.841   0.374 -0.9624  0.4634  1.3924
 3371TIP3   OH231747   5.905   4.328   1.044 -0.4408  0.1586  0.1476
 3371TIP3    H131748   5.858   4.266   0.989  0.9767 -0.7140 -0.1509
 3371TIP3    H231749   5.874   4.414   1.016  0.0944 -0.2581 -1.9255
 3372TIP3   OH231750   1.371   3.324   7.423  0.2845 -0.6344  0.1107
 3372TIP3    H131751   1.382   3.310   7.517  1.1813 -1.6289 -0.1170
 3372TIP3    H231752   1.416   3.406   7.405  3.3003 -2.1742  0.0260
 3373TIP3   OH231753   3.529   0.187   7.599 -1.4039 -0.3745  0.6491
 3373TIP3    H131754   3.495   0.122   7.660  0.4170 -0.8984  1.1579
 3373TIP3    H231755   3.603   0.227   7.644 -2.9610  2.7568  0.7374
 3374TIP3   OH231756   6.075   1.424   0.746  0.1544  0.2096 -0.0150
 3374TIP3    H131757   6.141   1.484   0.709  0.0316  0.6524  0.4802
 3374TIP3    H231758   6.124   1.370   0.808  0.0026  0.7381  0.5746
 3375TIP3   OH231759   6.074   5.650   6.553 -0.5019  0.3449 -0.0313
 3375TIP3    H131760   6.043   5.732   6.513 -0.5213  0.7380  0.7712
 3375TIP3    H231761   6.111   5.600   6.480 -0.1735  1.2183 -0.4777
 3376TIP3   OH231762   4.818   4.549   1.048  0.0210 -0.0025  0.0460
 3376TIP3    H131763   4.837   4.521   1.137  0.2207 -0.9866 -0.2886
 3376TIP3    H231764   4.796   4.642   1.056 -0.6236 -0.2356  1.1998
 3377TIP3   OH231765   1.924   4.902   1.502 -0.2387  0.0392 -0.0673
 3377TIP3    H131766   1.978   4.826   1.484  1.0857  0.3140  2.2968
 3377TIP3    H231767   1.938   4.920   1.596 -2.6595  1.5195  0.0957
 3378TIP3   OH231768   5.093   6.575   0.369  0.2033  0.3748  0.3664
 3378TIP3    H131769   5.084   6.661   0.327 -2.4988 -0.0959 -0.2252
 3378TIP3    H231770   5.072   6.592   0.461  1.4627  0.6012  0.6369
 3379TIP3   OH231771   1.133   5.313   0.058 -0.2757 -0.5358  0.2316
 3379TIP3    H131772   1.132   5.318   0.154 -0.7132  0.2218  0.1930
 3379TIP3    H231773   1.076   5.238   0.038  0.3357 -1.1014  0.5800
 3380TIP3   OH231774   3.723   6.000   1.737  0.4940 -0.3490 -0.2267
 3380TIP3    H131775   3.796   5.991   1.676  1.9399 -0.8138  1.5326
 3380TIP3    H231776   3.707   6.094   1.742  2.4078 -0.0503  0.9842
 3381TIP3   OH231777   5.500   0.785   1.017 -0.1097 -0.4259 -0.5374
 3381TIP3    H131778   5.483   0.876   1.040  3.4087  0.6702 -1.6369
 3381TIP3    H231779   5.531   0.745   1.098  0.8166  0.1388 -0.5911
 3382TIP3   OH231780   6.185   0.991   1.155 -0.3188  0.0038  0.2665
 3382TIP3    H131781   6.151   1.035   1.233 -0.7349 -0.2749  0.2457
 3382TIP3    H231782   6.256   0.936   1.188  1.2875  1.8590  0.0759
 3383TIP3   OH231783   0.664   0.666   0.562  0.4088 -0.8578 -0.0454
 3383TIP3    H131784   0.714   0.682   0.482  2.0356 -0.9337  0.9036
 3383TIP3    H231785   0.727   0.683   0.633 -0.5659 -2.1979  1.1845
 3384TIP3   OH231786   3.340   2.099   8.106  0.7091  0.2854 -0.2961
 3384TIP3    H131787   3.326   2.191   8.127  1.0036  0.4215 -0.6925
 3384TIP3    H231788   3.434   2.091   8.092  0.5263  0.2201 -1.6271
 3385TIP3   OH231789   1.338   4.410   1.978 -0.1001 -0.1056  0.0497
 3385TIP3    H131790   1.410   4.346   1.980 -0.1868 -0.1849  0.6747
 3385TIP3    H231791   1.293   4.398   2.061 -1.3553 -0.6319 -0.6837
 3386TIP3   OH231792   2.377   4.346   7.114  0.1745 -0.7374 -0.0803
 3386TIP3    H131793   2.416   4.362   7.200 -0.1468  0.9521 -0.2173
 3386TIP3    H231794   2.416   4.263   7.086  0.7707 -1.0080  1.4066
 3387TIP3   OH231795   3.316   0.104   8.392 -0.1462 -0.2213  0.7165
 3387TIP3    H131796   3.280   0.039   8.452 -0.4947  0.1279  0.8887
 3387TIP3    H231797   3.304   0.066   8.305 -3.3219  0.9344  0.5186
 3388TIP3   OH231798   5.762   0.416   0.709  0.0986 -0.0263  0.3033
 3388TIP3    H131799   5.707   0.388   0.782  1.1949 -1.2219  0.7059
 3388TIP3    H231800   5.812   0.490   0.743 -0.4496  0.3660  0.2750
 3389TIP3   OH231801   3.844   1.665   7.956 -0.3448  0.0253  0.3211
 3389TIP3    H131802   3.780   1.656   8.026 -1.1591 -0.6236 -0.4778
 3389TIP3    H231803   3.928   1.647   7.998 -0.6305  1.2337  1.4567
 3390TIP3   OH231804   4.452   2.278   6.399  0.7030  0.3721 -0.4261
 3390TIP3    H131805   4.461   2.370   6.425  1.1596  0.1386  0.2695
 3390TIP3    H231806   4.365   2.273   6.358 -0.1309  0.7419  1.2170
 3391TIP3   OH231807   6.577   1.692   2.154 -0.2005  0.2654 -0.4048
 3391TIP3    H131808   6.544   1.610   2.189  0.3319  0.2072 -0.0370
 3391TIP3    H231809   6.562   1.756   2.224 -0.6089  0.4825 -0.6868
 3392TIP3   OH231810   5.827   6.658   7.591 -0.2865 -0.4493 -0.3582
 3392TIP3    H131811   5.760   6.602   7.629 -0.3912 -0.0632  0.0383
 3392TIP3    H231812   5.823   6.641   7.497 -1.0453 -0.3197 -0.3546
 3393TIP3   OH231813   6.761   6.096   6.681  0.7646  0.1443 -0.0137
 3393TIP3    H131814   6.670   6.076   6.661  0.6588  0.9801 -0.3660
 3393TIP3    H231815   6.799   6.125   6.598  0.6658  2.3425  0.6533
 3394TIP3   OH231816   1.703   0.323   8.074  0.1629 -0.0310 -0.1497
 3394TIP3    H131817   1.629   0.364   8.119 -0.8496 -1.4186 -0.5021
 3394TIP3    H231818   1.708   0.235   8.111  0.2419 -0.6969 -1.6675
 3395TIP3   OH231819   1.445   2.110   8.065  0.5101  0.0722 -0.2440
 3395TIP3    H131820   1.393   2.032   8.045  0.1669 -0.1903  1.4511
 3395TIP3    H231821   1.505   2.119   7.991 -1.0535 -0.3867 -1.6313
 3396TIP3   OH231822   5.895   4.030   0.935  0.8762 -0.1010  0.0494
 3396TIP3    H131823   5.973   4.027   0.990  0.1087 -0.7309  1.1620
 3396TIP3    H231824   5.845   3.952   0.960  0.4107 -0.3187 -1.4420
 3397TIP3   OH231825   2.138   5.850   1.121 -0.4766  0.0153 -0.3840
 3397TIP3    H131826   2.172   5.763   1.142  3.1481  1.2456 -0.4816
 3397TIP3    H231827   2.136   5.896   1.205  2.0247  1.1279 -0.8507
 3398TIP3   OH231828   3.845   6.155   7.414  0.0534 -0.3759  0.4034
 3398TIP3    H131829   3.877   6.068   7.439  0.5189  0.3469  2.5229
 3398TIP3    H231830   3.919   6.195   7.367 -0.0275 -0.9630 -0.2424
 3399TIP3   OH231831   0.038   2.786   6.703  0.0857 -0.1270 -0.0729
 3399TIP3    H131832  -0.023   2.841   6.752 -0.1783 -0.4655 -0.0149
 3399TIP3    H231833   0.062   2.839   6.627  0.5246  0.4156  0.4374
 3400TIP3   OH231834   0.875   6.279   1.950  0.2017  0.1153 -0.4986
 3400TIP3    H131835   0.957   6.229   1.957  0.4255  0.5987  0.5466
 3400TIP3    H231836   0.897   6.352   1.892  0.3527 -0.0867 -0.6955
 3401TIP3   OH231837   4.850   4.100   1.452 -0.3859 -0.5161  0.1903
 3401TIP3    H131838   4.915   4.075   1.517  0.7477  0.7156 -0.4086
 3401TIP3    H231839   4.799   4.170   1.494  0.5979  0.5514 -0.3385
 3402TIP3   OH231840   3.104   5.569   6.985 -0.0291 -0.2041 -0.6772
 3402TIP3    H131841   3.159   5.532   6.916 -1.6571 -0.6149 -1.8345
 3402TIP3    H231842   3.092   5.660   6.960  0.0441 -0.1376 -0.4754
 3403TIP3   OH231843   4.838   5.877   8.338  0.1551  0.5811  0.4027
 3403TIP3    H131844   4.747   5.873   8.366  0.4195  1.3668  1.4168
 3403TIP3    H231845   4.886   5.907   8.415  1.4884 -1.2065  0.3418
 3404TIP3   OH231846   1.284   5.760   7.953 -0.6334 -0.4771 -0.2209
 3404TIP3    H131847   1.198   5.781   7.990 -0.2344 -2.0843  1.7854
 3404TIP3    H231848   1.275   5.781   7.860 -2.4514  1.5105  0.3339
 3405TIP3   OH231849   5.806   4.222   6.665 -0.1410  0.6926  0.5365
 3405TIP3    H131850   5.770   4.307   6.692  0.3235  1.5980 -1.4884
 3405TIP3    H231851   5.730   4.171   6.638 -0.4142  0.4455  1.6889
 3406TIP3   OH231852   2.191   6.799   0.913  0.5492  0.1700 -0.3849
 3406TIP3    H131853   2.287   6.793   0.916  0.4256 -3.4742  1.5821
 3406TIP3    H231854   2.167   6.835   0.999  0.0890  1.3736 -0.9883
 3407TIP3   OH231855   0.675   6.896   1.877 -0.4718 -0.1677 -0.4110
 3407TIP3    H131856   0.743   6.963   1.875 -0.2310 -0.4175 -0.8351
 3407TIP3    H231857   0.714   6.821   1.832 -1.2147 -0.1328 -1.1395
 3408TIP3   OH231858   1.737   1.754   7.773 -0.3566 -1.0513 -0.5205
 3408TIP3    H131859   1.690   1.785   7.850  1.0471 -1.6631  0.6214
 3408TIP3    H231860   1.773   1.833   7.733  0.0208 -0.8369  0.2210
 3409TIP3   OH231861   6.566   5.267   0.631 -0.0362 -0.5007  0.2827
 3409TIP3    H131862   6.618   5.197   0.592  1.4240  0.2418  0.8358
 3409TIP3    H231863   6.627   5.339   0.643 -1.4680  0.8564 -0.1591
 3410TIP3   OH231864   6.058   6.354   7.885 -0.0822  0.7950  0.1337
 3410TIP3    H131865   6.052   6.418   7.814  0.6637  2.2098  1.3143
 3410TIP3    H231866   6.093   6.275   7.843 -1.4773  0.9493 -1.4441
 3411TIP3   OH231867   1.875   5.442   7.757 -0.0070  0.2563 -0.2961
 3411TIP3    H131868   1.866   5.490   7.675  1.9657  2.1098  0.4858
 3411TIP3    H231869   1.955   5.390   7.746 -0.2338 -0.1972  0.1346
 3412TIP3   OH231870   6.383   1.137   7.256 -0.1043  0.2994 -0.2702
 3412TIP3    H131871   6.333   1.064   7.292 -1.1197  0.5558 -1.0952
 3412TIP3    H231872   6.353   1.213   7.306 -0.5751  0.4537 -0.7686
 3413TIP3   OH231873   2.154   0.697   6.949  0.0330 -0.1963 -0.0457
 3413TIP3    H131874   2.156   0.613   6.904  0.6386  0.0325 -0.4428
 3413TIP3    H231875   2.237   0.702   6.996 -0.2710 -0.0975  0.5007
 3414TIP3   OH231876   1.425   0.766   0.352  1.0016 -0.4661  0.1038
 3414TIP3    H131877   1.411   0.686   0.403 -1.2358 -0.4989 -0.4819
 3414TIP3    H231878   1.499   0.745   0.295 -0.1640 -2.5367 -0.7670
 3415TIP3   OH231879   0.080   5.095   1.906  0.1196 -0.1812  0.3640
 3415TIP3    H131880   0.046   5.182   1.926 -1.0183 -0.6784  0.6839
 3415TIP3    H231881   0.107   5.100   1.814  0.3676  0.5945  0.4738
 3416TIP3   OH231882   6.261   0.952   6.875  0.1369 -0.0201 -0.6030
 3416TIP3    H131883   6.196   0.884   6.891  0.1288 -0.1365 -1.1127
 3416TIP3    H231884   6.339   0.923   6.922  0.0773 -0.2914 -0.6740
 3417TIP3   OH231885   2.293   0.681   7.761  0.1452 -0.3431  0.4713
 3417TIP3    H131886   2.375   0.713   7.724  0.4440 -0.3483  1.1236
 3417TIP3    H231887   2.225   0.724   7.708  0.5631 -0.4563 -0.1637
 3418TIP3   OH231888   3.547   0.881   1.332 -0.2659  0.1878 -0.0905
 3418TIP3    H131889   3.469   0.905   1.283 -1.5708  0.3244  1.9455
 3418TIP3    H231890   3.610   0.854   1.265 -2.2256 -0.4710 -1.7784
 3419TIP3   OH231891   0.912   4.675   1.593 -0.5891 -0.0224  0.5127
 3419TIP3    H131892   0.924   4.580   1.600 -1.2806 -0.1409  0.2177
 3419TIP3    H231893   0.994   4.712   1.625  1.0423 -0.7711 -2.4071
 3420TIP3   OH231894   4.275   6.122   0.453 -0.5147  0.4449 -0.2295
 3420TIP3    H131895   4.272   6.144   0.359 -2.5001  0.6697 -0.1568
 3420TIP3    H231896   4.313   6.199   0.494 -0.2153  0.6061 -0.7990
 3421TIP3   OH231897   6.205   3.155   7.380 -0.6650 -0.2034  0.7392
 3421TIP3    H131898   6.235   3.244   7.361  2.5331 -1.2373  0.5082
 3421TIP3    H231899   6.122   3.168   7.427  0.7638  3.0121  2.7300
 3422TIP3   OH231900   4.587   4.194   1.725  0.1087 -0.1333  0.3426
 3422TIP3    H131901   4.619   4.216   1.812 -1.2787  0.8625  0.6354
 3422TIP3    H231902   4.507   4.143   1.741 -0.2359  0.1802 -0.3216
 3423TIP3   OH231903   0.403   2.626   6.244 -0.2431  0.0554  0.4436
 3423TIP3    H131904   0.463   2.564   6.284 -0.9621 -0.4301  0.8015
 3423TIP3    H231905   0.454   2.669   6.175  0.6970  0.1425  1.1797
 3424TIP3   OH231906   6.662   0.148   6.087  0.3725  0.1861  0.2681
 3424TIP3    H131907   6.606   0.076   6.115  0.8640 -0.6116 -0.7038
 3424TIP3    H231908   6.601   0.213   6.053 -0.1364  0.6459  1.9827
 3425TIP3   OH231909   4.298   4.528   1.178  0.4008 -0.1940 -0.1908
 3425TIP3    H131910   4.289   4.499   1.268 -1.9142  1.9783  0.4058
 3425TIP3    H231911   4.250   4.463   1.127 -2.2087  0.8659  0.7595
 3426TIP3   OH231912   0.324   4.574   7.092  0.1289  0.1657  1.1887
 3426TIP3    H131913   0.407   4.615   7.066 -0.8102  0.8766 -0.9885
 3426TIP3    H231914   0.271   4.647   7.126 -0.6028  0.3158 -0.1972
 3427TIP3   OH231915   0.721   0.984   0.594  0.1624 -0.1906 -0.1537
 3427TIP3    H131916   0.689   0.923   0.661 -0.2384 -0.2801 -0.4251
 3427TIP3    H231917   0.642   1.022   0.556  0.3848 -0.1877 -0.6223
 3428TIP3   OH231918   3.844   3.270   1.721 -0.0635 -0.1488  0.8176
 3428TIP3    H131919   3.823   3.202   1.657 -0.1056 -0.8652  1.5885
 3428TIP3    H231920   3.759   3.297   1.755  0.0526 -0.9800  1.8065
 3429TIP3   OH231921   2.821   4.240   1.440 -0.5034 -0.2071  0.4012
 3429TIP3    H131922   2.840   4.216   1.349  0.4237 -2.5428  1.1414
 3429TIP3    H231923   2.898   4.289   1.468 -1.0038  0.9544 -0.1731
 3430TIP3   OH231924   3.973   5.590   1.634 -0.0075 -0.5948 -0.5124
 3430TIP3    H131925   4.033   5.647   1.587  1.2951 -1.2073  0.3679
 3430TIP3    H231926   3.886   5.618   1.604  0.7075 -0.0214 -2.1590
 3431TIP3   OH231927   3.160   3.192   8.401 -0.3517 -0.3111 -0.3630
 3431TIP3    H131928   3.110   3.122   8.359 -0.9796 -0.2235  0.2154
 3431TIP3    H231929   3.095   3.239   8.453  0.1132  0.5579 -0.5594
 3432TIP3   OH231930   1.482   3.534   6.969  0.4875 -0.6133  0.3777
 3432TIP3    H131931   1.480   3.545   6.874  3.4654  0.3261  0.3063
 3432TIP3    H231932   1.478   3.439   6.982 -2.0486 -0.6898 -0.4905
 3433TIP3   OH231933   3.872   3.442   2.225  0.1751 -0.1426 -0.6037
 3433TIP3    H131934   3.894   3.382   2.296  0.5896  1.3333  0.5801
 3433TIP3    H231935   3.786   3.476   2.249  1.3270  2.1785  0.5618
 3434TIP3   OH231936   4.690   2.549   0.038  0.4889  0.2718  0.9133
 3434TIP3    H131937   4.613   2.500   0.068  0.8029 -0.6499  0.2567
 3434TIP3    H231938   4.742   2.562   0.117 -1.2172  2.6255  1.7611
 3435TIP3   OH231939   5.704   2.321   0.598 -0.6528  0.6075  0.0549
 3435TIP3    H131940   5.619   2.331   0.642 -1.5366 -1.6810 -0.9800
 3435TIP3    H231941   5.687   2.350   0.508 -0.3919 -0.0081 -0.1966
 3436TIP3   OH231942   4.884   2.612   7.064  0.3046 -0.1047 -0.0322
 3436TIP3    H131943   4.812   2.554   7.088  0.5848  0.0767  1.3266
 3436TIP3    H231944   4.843   2.698   7.052  0.3146  0.0600  1.0254
 3437TIP3   OH231945   4.796   4.446   2.515  0.2463  0.1033  0.5786
 3437TIP3    H131946   4.805   4.542   2.519 -0.2595  0.2384 -0.9153
 3437TIP3    H231947   4.885   4.415   2.500  0.2662  0.4468 -0.0988
 3438TIP3   OH231948   4.997   0.309   0.459  0.5075  0.0256  0.1367
 3438TIP3    H131949   4.949   0.354   0.390  0.8542 -1.6047 -1.2361
 3438TIP3    H231950   5.063   0.371   0.488 -0.7662  1.3717  0.2806
 3439TIP3   OH231951   4.037   6.977   8.111 -0.0145  0.3052  0.1994
 3439TIP3    H131952   3.972   7.044   8.088 -1.2636 -0.9715 -0.1166
 3439TIP3    H231953   4.090   6.966   8.032 -1.9846 -1.4670 -0.9810
 3440TIP3   OH231954   4.042   5.992   0.485  0.8147  0.3642  0.0539
 3440TIP3    H131955   4.056   5.918   0.544  0.8411 -0.9816 -1.5575
 3440TIP3    H231956   4.125   6.039   0.484  1.0057  0.0382  0.5896
 3441TIP3   OH231957   6.324   3.391   7.326 -0.3342  0.6314 -0.0153
 3441TIP3    H131958   6.288   3.467   7.280  0.6938  0.8063 -0.5352
 3441TIP3    H231959   6.415   3.386   7.298 -1.0988 -2.7150 -2.5698
 3442TIP3   OH231960   6.219   2.522   2.452  0.0157 -0.0783 -0.0872
 3442TIP3    H131961   6.314   2.529   2.463  0.1450 -0.9200 -0.5864
 3442TIP3    H231962   6.208   2.463   2.378 -0.9159 -1.5958  1.1958
 3443TIP3   OH231963   6.242   0.636   6.350  0.5032  0.1868 -0.4681
 3443TIP3    H131964   6.332   0.654   6.322  0.6616  1.3145  0.6463
 3443TIP3    H231965   6.193   0.714   6.323 -0.1361 -0.3726 -0.9640
 3444TIP3   OH231966   0.522   6.682   6.108 -0.2805 -0.0460 -0.1339
 3444TIP3    H131967   0.435   6.695   6.072  0.0050  0.5296 -0.6295
 3444TIP3    H231968   0.535   6.587   6.108 -0.9410 -0.1412  0.0429
 3445TIP3   OH231969   5.569   2.416   1.362 -0.5548  0.2581 -0.4155
 3445TIP3    H131970   5.527   2.330   1.353  2.0647 -1.0873 -0.8145
 3445TIP3    H231971   5.581   2.427   1.456  0.1679 -0.4128 -0.4168
 3446TIP3   OH231972   6.368   1.779   8.112 -0.6270  0.4930 -0.0237
 3446TIP3    H131973   6.330   1.822   8.035  0.9418 -0.0707 -1.1633
 3446TIP3    H231974   6.404   1.851   8.164 -0.8997  0.8092 -0.2667
 3447TIP3   OH231975   2.356   4.295   6.679 -0.0358  0.2154 -0.1450
 3447TIP3    H131976   2.307   4.263   6.603 -2.0502  1.9767  0.3232
 3447TIP3    H231977   2.446   4.304   6.648 -0.7885  0.7838 -2.3095
 3448TIP3   OH231978   4.129   3.155   6.670  0.5149 -0.2058  0.2039
 3448TIP3    H131979   4.072   3.208   6.615 -0.7032  0.7614  2.2777
 3448TIP3    H231980   4.198   3.216   6.698 -0.5276  0.1784  2.0689
 3449TIP3   OH231981   2.352   5.536   0.155 -0.8108 -0.8712 -0.2629
 3449TIP3    H131982   2.443   5.541   0.185 -0.4776 -0.2125 -1.3160
 3449TIP3    H231983   2.303   5.585   0.221 -0.6452 -2.4475  1.0979
 3450TIP3   OH231984   4.134   6.763   0.860  0.7109 -0.7258  0.2592
 3450TIP3    H131985   4.126   6.749   0.765  0.2590  4.1171 -0.6579
 3450TIP3    H231986   4.044   6.764   0.892  0.7840 -0.7263  0.4693
 3451TIP3   OH231987   3.035   2.995   1.065  0.2091 -0.6340  0.0268
 3451TIP3    H131988   3.118   3.029   1.033  0.4491 -0.2415  1.0256
 3451TIP3    H231989   2.970   3.023   1.000  0.2078  2.7229  1.3047
 3452TIP3   OH231990   5.674   6.348   7.888  0.0542 -0.6362  0.4834
 3452TIP3    H131991   5.580   6.338   7.899 -0.4198  3.7708  2.6934
 3452TIP3    H231992   5.712   6.293   7.956 -0.9150 -1.6268  0.2613
 3453TIP3   OH231993   3.657   1.574   6.949  0.3144 -0.2724 -0.0214
 3453TIP3    H131994   3.593   1.522   6.998 -0.0941  0.4854  0.2687
 3453TIP3    H231995   3.603   1.628   6.891  0.7720 -0.8226 -0.9901
 3454TIP3   OH231996   3.102   3.797   8.103  0.4327 -0.3607 -0.5500
 3454TIP3    H131997   3.027   3.832   8.151 -0.3692  0.9854 -2.6364
 3454TIP3    H231998   3.137   3.729   8.160 -1.0576  0.4284  1.4438
 3455TIP3   OH231999   2.433   2.501   8.388  0.2429 -0.1343 -0.3417
 3455TIP3    H132000   2.481   2.475   8.467  0.4352 -2.4722 -1.1486
 3455TIP3    H232001   2.412   2.593   8.402 -0.4701 -0.6735  2.7986
 3456TIP3   OH232002   4.558   4.984   1.930 -0.2262 -1.1061  0.1067
 3456TIP3    H132003   4.485   5.045   1.925 -0.7171 -1.7344 -0.4840
 3456TIP3    H232004   4.583   4.984   2.023 -0.3135 -0.1311  0.1383
 3457TIP3   OH232005   2.680   2.115   0.803  0.7177 -0.1729 -0.5552
 3457TIP3    H132006   2.629   2.037   0.783  0.1841 -0.1533  0.6457
 3457TIP3    H232007   2.623   2.188   0.778 -0.7879 -0.0969  2.6456
 3458TIP3   OH232008   4.121   5.807   7.136  0.0993  0.1883  0.1064
 3458TIP3    H132009   4.131   5.775   7.225 -3.7261 -1.7357  0.0081
 3458TIP3    H232010   4.137   5.731   7.081 -1.9422  0.1741 -0.5398
 3459TIP3   OH232011   0.030   5.768   2.555  0.0949  0.8281  0.5547
 3459TIP3    H132012  -0.045   5.746   2.499  0.1091  1.2549  0.3678
 3459TIP3    H232013   0.053   5.685   2.598 -0.4521  0.6825  0.5737
 3460TIP3   OH232014   3.073   0.060   8.010  0.2739 -0.1526  0.5409
 3460TIP3    H132015   3.045   0.145   8.043  1.9124  0.0633  1.4597
 3460TIP3    H232016   2.996   0.004   8.021 -0.9203  1.2346 -0.3262
 3461TIP3   OH232017   3.432   4.675   1.354  0.1956 -0.5139 -0.3749
 3461TIP3    H132018   3.419   4.764   1.386  0.3389 -0.4547 -0.4799
 3461TIP3    H232019   3.492   4.635   1.417 -1.9206 -1.4010  1.2046
 3462TIP3   OH232020   5.372   1.364   7.700  0.1223 -0.2837 -0.0382
 3462TIP3    H132021   5.395   1.439   7.646  0.2972 -0.3065  0.0030
 3462TIP3    H232022   5.326   1.304   7.641  0.5532 -0.4281 -0.2298
 3463TIP3   OH232023   4.733   0.879   2.167 -0.1992  0.1436  0.0940
 3463TIP3    H132024   4.694   0.827   2.097  0.3566  0.2552 -0.3025
 3463TIP3    H232025   4.770   0.814   2.227 -2.5423 -0.0604  1.4458
 3464TIP3   OH232026   4.523   1.482   0.657 -0.2939 -0.2305 -0.2233
 3464TIP3    H132027   4.564   1.413   0.710 -0.2414  0.4140  0.5959
 3464TIP3    H232028   4.559   1.563   0.691 -2.1528  0.3568  0.4577
 3465TIP3   OH232029   2.824   5.969   1.662 -0.6314 -0.3384  0.1858
 3465TIP3    H132030   2.897   6.031   1.666  1.0937 -2.1555 -0.9088
 3465TIP3    H232031   2.773   5.997   1.586  0.6054 -0.6983 -0.8156
 3466TIP3   OH232032   1.401   4.787   7.608 -0.5680  0.5726  0.7206
 3466TIP3    H132033   1.368   4.777   7.697 -1.4592  0.3257  0.3769
 3466TIP3    H232034   1.467   4.856   7.614 -0.0158 -0.0166  1.7209
 3467TIP3   OH232035   5.413   3.083   1.791 -0.0205 -0.6943 -0.2453
 3467TIP3    H132036   5.427   3.039   1.875  2.1301  0.8287  0.2997
 3467TIP3    H232037   5.347   3.149   1.809 -1.9379 -2.4293 -0.6204
 3468TIP3   OH232038   2.348   2.871   0.445 -0.1039  0.2705  0.2171
 3468TIP3    H132039   2.295   2.813   0.390 -1.7291  1.9714 -0.1007
 3468TIP3    H232040   2.433   2.827   0.450 -1.2674 -2.1719  0.0957
 3469TIP3   OH232041   0.077   0.702   8.128 -0.1523  0.2364  0.2633
 3469TIP3    H132042  -0.013   0.733   8.115  0.3766  1.8134  0.0803
 3469TIP3    H232043   0.069   0.607   8.136 -1.9334  0.4146  1.1548
 3470TIP3   OH232044   5.825   2.933   1.581 -0.0370  0.2443  0.1334
 3470TIP3    H132045   5.899   2.939   1.642 -0.0395  0.0717  0.1530
 3470TIP3    H232046   5.832   2.845   1.543 -2.5325 -1.4370  3.1011
 3471TIP3   OH232047   0.825   6.430   2.328 -0.2622  0.0075  0.0933
 3471TIP3    H132048   0.738   6.469   2.325  0.0452  0.8831  1.3750
 3471TIP3    H232049   0.884   6.503   2.312  0.2598 -0.4522 -0.1144
 3472TIP3   OH232050   6.484   4.352   7.003  0.2463 -0.8066  0.7024
 3472TIP3    H132051   6.409   4.400   7.037  0.1399 -0.8350  0.5083
 3472TIP3    H232052   6.446   4.278   6.955  0.4162 -1.2458  1.2354
 3473TIP3   OH232053   1.762   3.733   0.133 -0.0530 -0.3887  0.2149
 3473TIP3    H132054   1.676   3.696   0.150 -0.8290  1.1769 -0.0673
 3473TIP3    H232055   1.756   3.822   0.169  1.7480 -0.5360  0.9767
 3474TIP3   OH232056   3.181   2.335   1.176  0.2947 -0.1767  0.8496
 3474TIP3    H132057   3.102   2.387   1.194  0.8097  1.3372 -0.9331
 3474TIP3    H232058   3.184   2.329   1.080  2.1345 -0.5566  0.9011
 3475TIP3   OH232059   0.378   5.842   0.519 -0.2883 -0.1773 -0.1434
 3475TIP3    H132060   0.318   5.830   0.592 -0.2064 -0.3621 -0.1057
 3475TIP3    H232061   0.443   5.904   0.550 -1.1033  0.9147 -0.5700
 3476TIP3   OH232062   3.823   0.246   7.279  0.3460  0.2981  0.4292
 3476TIP3    H132063   3.808   0.156   7.252 -0.9500  0.3782  0.8107
 3476TIP3    H232064   3.908   0.244   7.324  0.2085 -0.7777  0.6636
 3477TIP3   OH232065   1.181   6.208   2.021  0.5132 -0.1033 -0.5828
 3477TIP3    H132066   1.260   6.260   2.030  0.5887 -0.2422 -0.4485
 3477TIP3    H232067   1.129   6.230   2.098  0.4786 -0.1122 -0.6034
 3478TIP3   OH232068   3.662   1.018   0.713 -0.5736 -0.0170 -0.1350
 3478TIP3    H132069   3.618   1.057   0.637  0.5923  2.3827  0.3296
 3478TIP3    H232070   3.741   1.071   0.725 -1.2921  0.4965  3.4322
 3479TIP3   OH232071   4.564   6.796   0.044 -0.8949  0.0289  0.0632
 3479TIP3    H132072   4.548   6.702   0.033  0.5910 -0.2686  0.2249
 3479TIP3    H232073   4.650   6.801   0.085 -1.0144  1.4676  0.1802
 3480TIP3   OH232074   2.872   1.879   7.502  0.4868 -0.7432 -0.0284
 3480TIP3    H132075   2.925   1.894   7.581  0.9072  1.9007 -0.7172
 3480TIP3    H232076   2.936   1.853   7.436  0.2515 -2.0681  0.2337
 3481TIP3   OH232077   0.331   0.144   6.709 -0.0528 -1.1711 -0.2311
 3481TIP3    H132078   0.401   0.208   6.700  1.5657 -3.0560 -1.9871
 3481TIP3    H232079   0.251   0.196   6.714  1.3267  1.0164  0.7196
 3482TIP3   OH232080   0.578   2.938   8.186 -0.4223 -0.4924 -0.2227
 3482TIP3    H132081   0.545   2.899   8.267  0.3319 -0.4219  0.1288
 3482TIP3    H232082   0.597   3.029   8.208  0.3612 -0.6276 -0.3058
 3483TIP3   OH232083   4.997   3.454   0.053  0.3487  0.4627 -0.2952
 3483TIP3    H132084   5.006   3.545   0.023 -0.2133  0.2777 -1.0709
 3483TIP3    H232085   4.925   3.457   0.116  0.4775  0.5903 -0.1527
 3484TIP3   OH232086   6.993   3.248   7.256 -0.4065  0.4146 -0.7325
 3484TIP3    H132087   6.976   3.282   7.168 -0.7454  2.5172  0.0878
 3484TIP3    H232088   6.908   3.250   7.300 -0.3502 -1.1304 -0.4800
 3485TIP3   OH232089   5.482   5.599   0.269 -0.1787 -0.0223  0.3748
 3485TIP3    H132090   5.415   5.547   0.313  0.2210 -2.1799 -1.3571
 3485TIP3    H232091   5.465   5.585   0.176  0.9077  1.8073 -0.1483
 3486TIP3   OH232092   5.169   1.364   1.878 -0.5513 -0.1301 -0.5924
 3486TIP3    H132093   5.211   1.345   1.961 -0.4375 -1.5326 -0.9419
 3486TIP3    H232094   5.209   1.446   1.848 -0.1276  0.0390  0.4120
 3487TIP3   OH232095   3.963   0.563   2.399 -0.6395  0.2279 -0.3804
 3487TIP3    H132096   4.027   0.506   2.355 -1.8567 -0.4089 -1.3669
 3487TIP3    H232097   4.017   0.631   2.440  0.7067 -0.5510 -0.7865
 3488TIP3   OH232098   4.497   6.625   7.498  0.0226 -0.4605  0.0388
 3488TIP3    H132099   4.517   6.705   7.546  0.5015 -1.0043  0.7792
 3488TIP3    H232100   4.484   6.653   7.407  1.7649  0.2611 -0.0246
 3489TIP3   OH232101   2.867   1.173   8.455 -0.7027  0.4063  0.1063
 3489TIP3    H132102   2.924   1.099   8.434 -0.1232  0.7659  0.3982
 3489TIP3    H232103   2.804   1.175   8.382 -0.2249  0.1326 -0.3269
 3490TIP3   OH232104   1.740   5.305   0.838  0.3695 -0.5215 -0.3206
 3490TIP3    H132105   1.766   5.216   0.814 -0.9994 -1.4018  1.2728
 3490TIP3    H232106   1.678   5.331   0.769  0.0240 -1.1869 -0.2668
 3491TIP3   OH232107   5.386   3.935   0.274  0.3387  0.0903  0.0771
 3491TIP3    H132108   5.318   3.868   0.270  1.4391 -1.0627 -0.0825
 3491TIP3    H232109   5.379   3.972   0.361 -0.6109  0.1168 -0.0064
 3492TIP3   OH232110   5.632   0.365   1.526 -0.0785 -0.4668 -0.7367
 3492TIP3    H132111   5.606   0.405   1.609  2.9430  0.8283 -0.2989
 3492TIP3    H232112   5.626   0.437   1.462  2.9012  0.1529 -0.4531
 3493TIP3   OH232113   6.641   4.036   1.022 -0.0944 -0.0852 -0.0391
 3493TIP3    H132114   6.735   4.056   1.023 -0.4343  1.7614 -0.1561
 3493TIP3    H232115   6.617   4.041   0.929 -0.6751  1.5833  0.1695
 3494TIP3   OH232116   4.467   1.506   7.763 -0.1353 -0.1132 -0.1085
 3494TIP3    H132117   4.427   1.418   7.762  2.1090 -1.1893 -0.6637
 3494TIP3    H232118   4.504   1.514   7.851  0.7827 -0.2695 -0.4779
 3495TIP3   OH232119   2.588   1.782   1.563 -0.0917  0.1033  0.3007
 3495TIP3    H132120   2.603   1.864   1.610  0.2321 -0.1643  0.6666
 3495TIP3    H232121   2.630   1.715   1.616  0.4408 -0.1856 -0.4669
 3496TIP3   OH232122   4.916   0.513   1.486  1.3828 -0.0924  0.4178
 3496TIP3    H132123   4.892   0.564   1.408  0.8451  0.2619  0.8031
 3496TIP3    H232124   4.884   0.425   1.467  1.2749 -0.0127  0.2222
 3497TIP3   OH232125   6.601   2.978   7.650  0.3862 -0.3607  0.2425
 3497TIP3    H132126   6.650   2.898   7.668  0.1299 -0.3419  1.0202
 3497TIP3    H232127   6.614   3.033   7.727  0.5191  0.3357 -0.2633
 3498TIP3   OH232128   0.042   0.687   6.262 -0.3814  0.1638  0.4973
 3498TIP3    H132129   0.089   0.763   6.296  0.5876 -0.8565  1.5035
 3498TIP3    H232130   0.103   0.646   6.200  0.0716 -1.0954  1.7163
 3499TIP3   OH232131   0.693   2.172   6.177 -0.0885 -0.0765  0.2815
 3499TIP3    H132132   0.671   2.177   6.083  2.2810  0.9454 -0.2987
 3499TIP3    H232133   0.779   2.130   6.179  0.0531  0.2301  1.9793
 3500TIP3   OH232134   2.257   0.149   0.130  0.0655  0.5725  0.1351
 3500TIP3    H132135   2.235   0.088   0.060  2.0448 -0.1698  0.1033
 3500TIP3    H232136   2.268   0.233   0.087 -1.4340  0.7162 -0.0090
 3501TIP3   OH232137   1.894   5.140   2.123  0.1678 -0.0440 -0.3373
 3501TIP3    H132138   1.885   5.046   2.139 -1.2183  0.0040 -0.7711
 3501TIP3    H232139   1.909   5.177   2.210  0.7506 -0.6476 -0.1642
 3502TIP3   OH232140   6.959   4.792   1.244 -0.1269  0.0901 -0.0369
 3502TIP3    H132141   7.028   4.814   1.306 -1.5423 -0.6029  1.8915
 3502TIP3    H232142   6.902   4.870   1.244 -0.0329  0.1615 -0.6251
 3503TIP3   OH232143   6.568   6.268   0.214  0.4539 -0.6465 -0.4707
 3503TIP3    H132144   6.513   6.250   0.291  0.2261 -0.9861 -0.7096
 3503TIP3    H232145   6.580   6.363   0.216  0.4224 -0.6470 -0.0340
 3504TIP3   OH232146   4.015   6.274   7.173  0.0904  0.0087  0.6449
 3504TIP3    H132147   4.081   6.206   7.162  1.2434  1.2968 -0.6434
 3504TIP3    H232148   4.020   6.297   7.266 -1.3148 -2.5686  1.4767
 3505TIP3   OH232149   4.977   6.295   1.138  0.5041  0.9889  0.1270
 3505TIP3    H132150   4.895   6.346   1.142 -0.2008 -0.1712  1.1359
 3505TIP3    H232151   5.025   6.321   1.216 -0.6997 -1.1964  1.6775
 3506TIP3   OH232152   6.436   3.230   6.897  0.6271  0.1156  0.4304
 3506TIP3    H132153   6.529   3.241   6.920  1.0899 -0.6735 -0.9962
 3506TIP3    H232154   6.418   3.301   6.836  0.3343  0.1380  0.5394
 3507TIP3   OH232155   0.335   5.766   7.655 -0.2457  0.4625  0.2227
 3507TIP3    H132156   0.407   5.755   7.717 -0.6826  0.3293  0.7205
 3507TIP3    H232157   0.276   5.828   7.699 -0.9560 -0.2599  0.3076
 3508TIP3   OH232158   0.343   0.717   1.412 -0.3541  0.3206  0.4350
 3508TIP3    H132159   0.328   0.767   1.331  2.0187  2.2931  1.0799
 3508TIP3    H232160   0.287   0.640   1.404  0.3381  0.0333 -3.4413
 3509TIP3   OH232161   3.959   5.251   0.440  0.0180  0.0317  0.3562
 3509TIP3    H132162   4.049   5.255   0.472  0.9588  2.5611 -2.1538
 3509TIP3    H232163   3.906   5.286   0.512  0.9934 -1.3445  1.8101
 3510TIP3   OH232164   3.885   3.872   7.645 -0.3573 -0.2054 -0.1416
 3510TIP3    H132165   3.832   3.928   7.702  0.0069  0.0380 -0.0403
 3510TIP3    H232166   3.973   3.877   7.681 -0.7463 -2.9102  1.4992
 3511TIP3   OH232167   4.118   0.732   7.791 -0.3186  0.3334  0.1500
 3511TIP3    H132168   4.023   0.725   7.782 -0.1836 -0.7904 -0.5598
 3511TIP3    H232169   4.150   0.642   7.784  0.6694  0.4529  2.2732
 3512TIP3   OH232170   5.021   3.490   0.831 -0.1198 -0.1983  0.7006
 3512TIP3    H132171   4.936   3.450   0.815 -0.4633  0.8001 -0.0348
 3512TIP3    H232172   5.073   3.470   0.753  0.3721 -0.8888  1.1858
 3513TIP3   OH232173   1.178   4.723   1.663  0.5235  0.0764  0.0274
 3513TIP3    H132174   1.255   4.727   1.719  1.7980  0.1064 -1.6661
 3513TIP3    H232175   1.154   4.815   1.650 -0.0163  0.0571  0.8036
 3514TIP3   OH232176   0.590   2.328   0.733 -0.8213 -0.3885  0.4405
 3514TIP3    H132177   0.528   2.366   0.671 -0.2258  2.1244  1.2824
 3514TIP3    H232178   0.667   2.307   0.679 -1.7913 -2.1951 -0.3424
 3515TIP3   OH232179   5.443   6.045   7.121 -0.5883  0.1392 -0.0063
 3515TIP3    H132180   5.513   6.106   7.143 -0.0924 -0.1381 -0.7926
 3515TIP3    H232181   5.418   6.006   7.205  1.0027 -0.6205  0.1433
 3516TIP3   OH232182   0.875   5.886   1.444 -0.0297  0.4831 -0.3003
 3516TIP3    H132183   0.931   5.883   1.366  0.1765 -0.7100 -0.1256
 3516TIP3    H232184   0.936   5.883   1.517 -0.2947 -1.9087 -0.0964
 3517TIP3   OH232185   3.032   3.288   0.259 -0.2846 -0.3996 -0.1751
 3517TIP3    H132186   3.001   3.302   0.170 -0.9282  1.7932  0.3479
 3517TIP3    H232187   2.991   3.357   0.311  3.4354  1.1730  1.0302
 3518TIP3   OH232188   0.169   6.290   1.561 -0.4456 -0.2374  0.3514
 3518TIP3    H132189   0.125   6.273   1.644 -0.9177  0.9842  0.3650
 3518TIP3    H232190   0.150   6.213   1.508  0.0277 -1.1231  1.4367
 3519TIP3   OH232191   6.166   1.396   8.407  0.0827  0.4654  0.0972
 3519TIP3    H132192   6.090   1.445   8.377 -1.7515 -0.9721  2.0853
 3519TIP3    H232193   6.166   1.317   8.352  0.4185  0.6523 -0.1783
 3520TIP3   OH232194   3.277   0.535   7.484 -0.3340  0.1245 -0.1234
 3520TIP3    H132195   3.257   0.521   7.576  0.3337  1.5935  0.2599
 3520TIP3    H232196   3.356   0.482   7.468 -0.4575 -0.1394  0.1357
 3521TIP3   OH232197   6.408   0.401   7.532  0.9970  0.3686  0.1940
 3521TIP3    H132198   6.476   0.421   7.468 -0.4266  2.1785 -0.8462
 3521TIP3    H232199   6.362   0.484   7.544 -1.7003 -1.0053  0.0131
 3522TIP3   OH232200   4.461   3.262   1.737  0.1227  0.2455 -0.4939
 3522TIP3    H132201   4.368   3.276   1.717 -0.0548  0.8530  0.6705
 3522TIP3    H232202   4.507   3.310   1.668 -0.4532  1.0956 -0.3118
 3523TIP3   OH232203   1.365   3.428   1.574  0.2096 -0.2922  0.1108
 3523TIP3    H132204   1.312   3.446   1.651 -2.6691 -0.8214 -1.6103
 3523TIP3    H232205   1.446   3.390   1.609 -1.0805 -0.7562  2.8372
 3524TIP3   OH232206   0.717   1.247   0.969 -0.2252 -0.1187  0.8232
 3524TIP3    H132207   0.760   1.163   0.955  1.0532 -0.1598  4.0452
 3524TIP3    H232208   0.628   1.234   0.937  0.4527 -2.0726 -0.4480
 3525TIP3   OH232209   1.888   6.206   6.408  0.1805 -0.2602 -0.2664
 3525TIP3    H132210   1.882   6.244   6.321 -0.0281 -1.4808 -0.8099
 3525TIP3    H232211   1.855   6.274   6.467  3.0064  1.7267 -0.7595
 3526TIP3   OH232212   3.032   5.539   1.972  0.0098  0.2878 -0.1087
 3526TIP3    H132213   3.053   5.581   2.055  0.5806 -1.4810  0.6842
 3526TIP3    H232214   2.948   5.496   1.986 -0.9747  1.7387 -1.1704
 3527TIP3   OH232215   3.111   2.009   0.350  0.0540 -0.7141 -0.1681
 3527TIP3    H132216   3.191   2.062   0.349  0.7929 -1.7818 -0.1551
 3527TIP3    H232217   3.142   1.921   0.371 -1.1296 -1.1617 -0.2438
 3528TIP3   OH232218   6.843   4.388   1.689  0.3332  0.0100  0.0797
 3528TIP3    H132219   6.919   4.419   1.737  0.1362 -0.7592  0.9057
 3528TIP3    H232220   6.786   4.349   1.755 -1.3488  1.6204 -0.3370
 3529TIP3   OH232221   3.973   6.640   7.828 -0.2329  0.2915 -0.3617
 3529TIP3    H132222   3.966   6.723   7.780  1.0681  0.2406 -0.6722
 3529TIP3    H232223   3.932   6.576   7.771  1.2861  0.2343 -1.4681
 3530TIP3   OH232224   5.825   6.423   0.625 -0.0536 -0.0813 -0.5892
 3530TIP3    H132225   5.849   6.349   0.680 -0.1546 -0.0314 -0.4759
 3530TIP3    H232226   5.773   6.386   0.554 -0.5449 -0.0564 -0.2503
 3531TIP3   OH232227   5.636   5.038   8.217  0.1315  0.1462 -0.6343
 3531TIP3    H132228   5.675   5.098   8.281 -1.2623  1.0449 -0.5880
 3531TIP3    H232229   5.703   4.972   8.202  1.3593  1.1946  0.0373
 3532TIP3   OH232230   0.453   5.821   7.914 -0.6616 -0.5676 -0.1336
 3532TIP3    H132231   0.373   5.852   7.957 -0.4787 -2.0142  1.3146
 3532TIP3    H232232   0.524   5.868   7.959 -0.6331  0.5851 -1.3016
 3533TIP3   OH232233   3.845   0.661   7.901 -0.1615 -0.6375  0.8853
 3533TIP3    H132234   3.805   0.628   7.820 -3.6841 -1.1129  2.6484
 3533TIP3    H232235   3.923   0.607   7.912 -0.9031 -2.2127 -0.9528
 3534TIP3   OH232236   2.663   4.215   0.808 -0.6417  0.0337  0.5770
 3534TIP3    H132237   2.682   4.268   0.730 -2.2898  0.5360  0.4626
 3534TIP3    H232238   2.690   4.270   0.882 -0.7058  0.3018  0.4051
 3535TIP3   OH232239   2.284   3.000   1.596 -0.1236 -1.0241 -0.0251
 3535TIP3    H132240   2.239   2.980   1.678 -1.7536  0.2573 -0.5489
 3535TIP3    H232241   2.215   3.002   1.530  0.6690  0.8633 -0.8940
 3536TIP3   OH232242   2.792   0.126   0.625  0.0377  0.1611  0.5524
 3536TIP3    H132243   2.841   0.184   0.567 -1.3461  0.5463 -0.2928
 3536TIP3    H232244   2.718   0.096   0.571  0.3963 -1.9444  1.1433
 3537TIP3   OH232245   4.310   5.013   7.880  0.3420  0.0679  0.0693
 3537TIP3    H132246   4.317   5.002   7.974 -0.7054 -1.4408 -0.0006
 3537TIP3    H232247   4.376   4.955   7.843  0.1622 -0.0050 -0.1427
 3538TIP3   OH232248   0.402   4.790   6.549  0.2880  0.2473  0.1073
 3538TIP3    H132249   0.420   4.725   6.482 -4.0151 -1.4490  0.2618
 3538TIP3    H232250   0.387   4.871   6.500 -0.3601 -0.3907 -0.7997
 3539TIP3   OH232251   4.822   3.133   0.339 -0.1571 -0.1808 -0.1587
 3539TIP3    H132252   4.830   3.094   0.426 -1.8487  0.4099  0.2921
 3539TIP3    H232253   4.901   3.187   0.330  0.3815 -0.7919  0.7049
 3540TIP3   OH232254   0.962   3.225   0.505  0.2204 -0.4113 -0.5086
 3540TIP3    H132255   0.903   3.283   0.554  0.1711 -0.3828 -0.6007
 3540TIP3    H232256   1.042   3.222   0.558  1.4912  2.3387 -1.9956
 3541TIP3   OH232257   3.384   0.811   7.692 -0.5796 -0.4098 -0.1898
 3541TIP3    H132258   3.312   0.812   7.754 -1.4144  2.5778 -1.0568
 3541TIP3    H232259   3.447   0.874   7.728  0.8830 -1.7585 -0.2904
 3542TIP3   OH232260   4.147   2.873   6.703 -0.8201  0.1561 -0.3490
 3542TIP3    H132261   4.152   2.968   6.688 -0.3504  0.2063  0.1115
 3542TIP3    H232262   4.225   2.838   6.660  0.0088  0.1920  1.0536
 3543TIP3   OH232263   1.630   5.651   6.445  0.1660 -0.0887  0.3624
 3543TIP3    H132264   1.711   5.700   6.454 -0.3061  0.8353 -0.3201
 3543TIP3    H232265   1.614   5.615   6.533 -0.3261  2.3144  1.3393
 3544TIP3   OH232266   4.355   0.185   0.625  0.6029  0.0349 -0.4340
 3544TIP3    H132267   4.377   0.093   0.639 -1.0630 -0.2397  0.7336
 3544TIP3    H232268   4.276   0.182   0.570  0.1359  0.7301  0.1777
 3545TIP3   OH232269   6.946   6.259   0.248  0.5373 -0.0854 -0.0115
 3545TIP3    H132270   6.862   6.303   0.264  0.6643  0.9257 -1.8009
 3545TIP3    H232271   6.921   6.176   0.208  0.3603 -0.7468  1.4087
 3546TIP3   OH232272   6.185   1.739   2.256 -0.6311  0.1469 -0.0760
 3546TIP3    H132273   6.149   1.826   2.273 -2.9523 -1.0127  1.6027
 3546TIP3    H232274   6.109   1.687   2.229  0.1294 -1.9527  1.5266
 3547TIP3   OH232275   1.684   0.840   0.810  0.1582  0.7490 -0.1590
 3547TIP3    H132276   1.764   0.868   0.766 -0.1850 -0.1176 -1.4057
 3547TIP3    H232277   1.695   0.869   0.901  2.0190  0.3811 -0.2203
 3548TIP3   OH232278   0.519   2.202   8.479 -0.2584  0.4807 -0.2808
 3548TIP3    H132279   0.526   2.109   8.502  0.4715  0.2731 -1.2739
 3548TIP3    H232280   0.514   2.247   8.563 -0.3009 -0.4328  0.2236
 3549TIP3   OH232281   3.123   2.173   6.969 -0.1386  0.0466 -0.0824
 3549TIP3    H132282   3.157   2.193   6.882  0.6971 -1.5069 -0.1398
 3549TIP3    H232283   3.201   2.169   7.025 -0.6352  0.6908  0.6899
 3550TIP3   OH232284   0.816   2.928   1.193  0.2433 -0.4126  0.3443
 3550TIP3    H132285   0.754   2.930   1.266  2.2325 -3.0412  2.3035
 3550TIP3    H232286   0.890   2.981   1.223  0.4343 -0.1998 -0.4744
 3551TIP3   OH232287   3.235   6.294   1.482  0.0381  0.3122  0.0615
 3551TIP3    H132288   3.265   6.330   1.399 -0.4822 -1.2787 -0.8442
 3551TIP3    H232289   3.236   6.200   1.470 -0.5004  0.0572  1.7119
 3552TIP3   OH232290   2.949   1.739   1.133  0.0750 -0.0233  0.5299
 3552TIP3    H132291   2.928   1.750   1.040 -0.1326  0.0955  0.5889
 3552TIP3    H232292   2.991   1.821   1.158  0.2852 -0.1212  0.5003
 3553TIP3   OH232293   4.423   0.672   2.695 -0.5243 -0.0803  0.1565
 3553TIP3    H132294   4.363   0.745   2.681  0.2787  0.4860 -0.4293
 3553TIP3    H232295   4.369   0.604   2.736 -1.0076  1.2826  1.9177
 3554TIP3   OH232296   0.326   1.441   0.456  0.2281 -0.3594 -0.4817
 3554TIP3    H132297   0.279   1.466   0.535 -0.0977 -0.4789 -0.6347
 3554TIP3    H232298   0.260   1.400   0.401 -0.1769  1.9747 -1.8857
 3555TIP3   OH232299   2.217   0.889   1.349 -0.3146  0.1205 -0.1665
 3555TIP3    H132300   2.223   0.807   1.398  1.4917  1.9393  3.0392
 3555TIP3    H232301   2.127   0.917   1.361 -1.1204 -1.5759 -1.7914
 3556TIP3   OH232302   4.401   5.738   0.066  0.7761  0.1021 -0.0633
 3556TIP3    H132303   4.459   5.804   0.105  0.8706  0.9451 -1.5733
 3556TIP3    H232304   4.317   5.782   0.056  0.6309 -0.2456 -0.3992
 3557TIP3   OH232305   1.855   3.106   0.929 -0.6552  0.1691 -0.3829
 3557TIP3    H132306   1.861   3.010   0.929  0.3072  0.1628  1.5846
 3557TIP3    H232307   1.792   3.126   0.861 -3.8102 -2.1197  1.5559
 3558TIP3   OH232308   4.673   4.082   0.783  0.0950  0.5591  0.1503
 3558TIP3    H132309   4.692   4.002   0.832  1.1662  0.6186 -0.1346
 3558TIP3    H232310   4.578   4.082   0.771 -0.0581 -0.0105  1.2602
 3559TIP3   OH232311   0.227   4.789   1.155 -0.3887 -0.2308 -0.5520
 3559TIP3    H132312   0.142   4.830   1.141 -0.5499 -0.6643 -0.8574
 3559TIP3    H232313   0.277   4.854   1.205 -1.1748 -0.3000  0.3647
 3560TIP3   OH232314   1.696   5.001   7.345 -0.7721 -0.4336  0.5195
 3560TIP3    H132315   1.665   4.917   7.312 -0.3558 -0.7440  0.9163
 3560TIP3    H232316   1.788   4.986   7.366  0.2988  1.0036 -2.5911
 3561TIP3   OH232317   4.423   2.049   1.397 -0.8228  0.0850 -0.5491
 3561TIP3    H132318   4.507   2.023   1.359 -1.5149 -0.6257 -1.6757
 3561TIP3    H232319   4.387   1.968   1.433 -0.6663  0.5500  0.6853
 3562TIP3   OH232320   1.494   6.162   1.154  0.4302  0.3763  0.4390
 3562TIP3    H132321   1.455   6.248   1.162  0.4057  0.2619  1.6057
 3562TIP3    H232322   1.581   6.171   1.193  0.0897 -0.3444  1.3964
 3563TIP3   OH232323   4.530   2.669   8.330 -0.0884  0.5413  0.2757
 3563TIP3    H132324   4.592   2.612   8.374  0.8173  0.7932 -0.6439
 3563TIP3    H232325   4.557   2.758   8.356  1.0398  0.7498 -1.4591
 3564TIP3   OH232326   0.574   2.471   6.403  0.0152  0.2527  0.0182
 3564TIP3    H132327   0.553   2.381   6.427  1.5793  0.0211  0.6020
 3564TIP3    H232328   0.626   2.504   6.476 -1.0572  1.8590  0.1179
 3565TIP3   OH232329   5.968   6.811   1.856 -0.0529  0.3847  0.4956
 3565TIP3    H132330   6.013   6.798   1.772 -0.4133  0.5179  0.2800
 3565TIP3    H232331   5.881   6.841   1.832  0.1786  1.4577  0.9393
 3566TIP3   OH232332   5.206   5.606   0.754  0.3377  0.5502 -0.2031
 3566TIP3    H132333   5.162   5.600   0.670  0.6130 -0.5760 -0.2754
 3566TIP3    H232334   5.196   5.698   0.780 -1.9973  0.3507 -0.2392
 3567TIP3   OH232335   6.949   4.023   1.120 -0.1547 -0.5686 -0.1774
 3567TIP3    H132336   7.023   4.027   1.059 -0.9734 -1.4447 -1.2661
 3567TIP3    H232337   6.938   4.113   1.150  0.0296 -0.0436 -1.6117
 3568TIP3   OH232338   0.748   5.621   0.224 -0.0900  0.4526 -0.6799
 3568TIP3    H132339   0.680   5.643   0.160  0.7273  0.4542 -1.5838
 3568TIP3    H232340   0.710   5.642   0.309 -0.1690  3.3877 -1.3198
 3569TIP3   OH232341   1.287   3.859   8.117  0.0183  0.2922 -0.1605
 3569TIP3    H132342   1.263   3.766   8.120  0.0327  0.2574 -0.9208
 3569TIP3    H232343   1.293   3.879   8.024  0.7415  0.8738  0.0014
 3570TIP3   OH232344   6.778   4.815   5.942 -0.0022  0.2093  0.1597
 3570TIP3    H132345   6.741   4.890   5.896  0.9561  0.1431 -0.7669
 3570TIP3    H232346   6.871   4.816   5.918  0.1353 -0.9460  0.5769
 3571TIP3   OH232347   5.145   5.088   8.480 -0.0183  0.3526  0.1499
 3571TIP3    H132348   5.227   5.109   8.435 -0.1796 -0.5169 -0.5826
 3571TIP3    H232349   5.101   5.025   8.423 -2.7690  3.1767 -1.1692
 3572TIP3   OH232350   5.331   0.597   1.161  0.6937 -0.3011 -0.0359
 3572TIP3    H132351   5.355   0.667   1.100 -0.4758  0.2339  0.0820
 3572TIP3    H232352   5.257   0.553   1.118 -1.3372  1.1967  1.7350
 3573TIP3   OH232353   5.252   2.243   1.573 -0.1688 -0.1426 -0.0737
 3573TIP3    H132354   5.159   2.254   1.596 -0.0910  0.2791  0.0529
 3573TIP3    H232355   5.289   2.331   1.582  0.6796 -0.6369  1.7829
 3574TIP3   OH232356   1.345   2.316   8.221  0.2580 -0.0129  0.1732
 3574TIP3    H132357   1.419   2.344   8.275  0.4093  0.4336 -0.2638
 3574TIP3    H232358   1.381   2.247   8.166  1.2244  2.2477 -2.2474
 3575TIP3   OH232359   0.837   2.793   7.183 -0.6272  0.0609  0.0429
 3575TIP3    H132360   0.824   2.823   7.273 -1.4533  0.7025 -0.2717
 3575TIP3    H232361   0.769   2.838   7.133  0.0852  0.0380 -0.9776
 3576TIP3   OH232362   3.433   2.963   7.990  0.3343 -0.3534  0.1448
 3576TIP3    H132363   3.453   2.883   7.941  1.4754 -0.8223  1.3454
 3576TIP3    H232364   3.471   2.949   8.076  0.2326  1.3498  0.4947
 3577TIP3   OH232365   6.069   2.348   7.687 -0.1718  0.0782 -0.0736
 3577TIP3    H132366   6.135   2.358   7.618 -0.7054 -0.5824 -0.6930
 3577TIP3    H232367   6.072   2.431   7.735  0.3782  0.4571 -0.7391
 3578TIP3   OH232368   1.898   5.637   7.979 -0.3059 -0.0611 -0.0703
 3578TIP3    H132369   1.853   5.581   7.915 -1.8051 -1.5468  2.1480
 3578TIP3    H232370   1.990   5.628   7.958 -0.7426 -0.4901 -2.0100
 3579TIP3   OH232371   2.295   5.711   7.919 -0.2711 -0.1748  0.1305
 3579TIP3    H132372   2.225   5.648   7.937  0.4098 -0.7739  0.7536
 3579TIP3    H232373   2.344   5.673   7.847 -2.4418  1.7824 -2.6011
 3580TIP3   OH232374   6.876   1.013   6.257 -0.4075 -0.3996  0.3705
 3580TIP3    H132375   6.819   1.080   6.219  0.8437 -0.8136 -2.4880
 3580TIP3    H232376   6.818   0.942   6.282 -1.2948 -0.2278 -1.1402
 3581TIP3   OH232377   5.718   6.926   1.826 -0.2881 -0.6026  0.1056
 3581TIP3    H132378   5.651   6.942   1.760  1.2186 -1.5187 -1.7700
 3581TIP3    H232379   5.732   7.011   1.867 -0.9669  0.1194 -1.0805
 3582TIP3   OH232380   5.842   2.644   8.376 -0.3023 -0.6617 -0.6052
 3582TIP3    H132381   5.771   2.639   8.440 -0.9241 -0.9521 -1.3032
 3582TIP3    H232382   5.921   2.621   8.426 -0.9283 -2.0079 -0.1915
 3583TIP3   OH232383   3.618   4.320   7.045  0.5817 -0.1761 -0.6074
 3583TIP3    H132384   3.640   4.386   6.979 -1.0943 -0.4906 -1.5574
 3583TIP3    H232385   3.523   4.311   7.038  0.1118  0.7154  2.7505
 3584TIP3   OH232386   4.111   2.883   7.913 -0.1619  0.3523  0.1980
 3584TIP3    H132387   4.201   2.893   7.883 -0.4378  3.6692  0.1668
 3584TIP3    H232388   4.118   2.828   7.991  2.1403  1.8709  1.1669
 3585TIP3   OH232389   0.037   4.617   7.379  0.4247  0.1569  0.1671
 3585TIP3    H132390   0.080   4.693   7.338 -0.5390 -0.9189 -3.0955
 3585TIP3    H232391   0.106   4.552   7.387  0.4952  0.1594 -0.3819
 3586TIP3   OH232392   5.693   1.950   8.454  0.2600  0.0975 -0.2509
 3586TIP3    H132393   5.636   1.987   8.521 -2.4907  0.3978 -2.5388
 3586TIP3    H232394   5.644   1.875   8.419  2.0745 -0.7097 -1.1831
 3587TIP3   OH232395   0.638   1.108   7.366  0.5578 -0.4298  0.3318
 3587TIP3    H132396   0.718   1.057   7.380 -0.7911 -1.9269  3.9044
 3587TIP3    H232397   0.596   1.067   7.291  2.6963 -0.0926 -1.1359
 3588TIP3   OH232398   1.348   1.175   1.642  0.0181  0.1268  0.1153
 3588TIP3    H132399   1.350   1.269   1.660  0.3886  0.1617 -0.1005
 3588TIP3    H232400   1.281   1.165   1.574  0.4778  0.3305 -0.3757
 3589TIP3   OH232401   5.099   3.513   7.586 -0.2479 -0.6529 -0.2003
 3589TIP3    H132402   5.010   3.532   7.615 -0.5312 -0.0380 -1.3887
 3589TIP3    H232403   5.088   3.463   7.505  0.4066  1.6092 -1.7904
 3590TIP3   OH232404   2.072   3.588   0.579 -0.1579 -0.4306 -0.0783
 3590TIP3    H132405   2.010   3.639   0.630  1.5978  3.1810 -1.2475
 3590TIP3    H232406   2.145   3.570   0.639 -0.4340 -0.8960  0.1205
 3591TIP3   OH232407   6.568   2.849   7.049  0.9384  0.2593 -0.3041
 3591TIP3    H132408   6.612   2.930   7.076  1.0914 -0.1109  0.6123
 3591TIP3    H232409   6.497   2.878   6.992 -0.4628  1.2747  1.8303
 3592TIP3   OH232410   6.083   5.912   1.456 -0.0630  0.6100  0.3021
 3592TIP3    H132411   6.011   5.849   1.467 -1.3039  1.7064 -1.0371
 3592TIP3    H232412   6.143   5.869   1.396  0.0831 -0.0469  0.8979
 3593TIP3   OH232413   6.713   0.070   0.721  0.0121 -0.3431  0.2717
 3593TIP3    H132414   6.618   0.078   0.718 -0.0895 -0.9391  1.2727
 3593TIP3    H232415   6.740   0.140   0.781  0.5049  1.6398 -2.0862
 3594TIP3   OH232416   2.931   4.668   7.433 -0.0152 -0.1340  0.0019
 3594TIP3    H132417   2.940   4.583   7.388  0.2869  1.5663 -3.5119
 3594TIP3    H232418   3.018   4.709   7.424 -0.5958  1.1731  0.1337
 3595TIP3   OH232419   4.746   4.740   8.395  0.7856 -0.0636 -0.2955
 3595TIP3    H132420   4.669   4.760   8.448  0.9391  1.0593 -0.4603
 3595TIP3    H232421   4.733   4.650   8.366  0.4516 -0.5197  1.2115
 3596TIP3   OH232422   6.361   4.178   8.166 -0.3897  0.3745  0.1674
 3596TIP3    H132423   6.393   4.112   8.228 -1.5647  0.8978  1.3956
 3596TIP3    H232424   6.438   4.232   8.146 -0.0200  0.2952  1.3165
 3597TIP3   OH232425   6.720   3.962   6.954  0.4300  0.2495  0.1512
 3597TIP3    H132426   6.745   4.000   7.039 -1.0339  0.0267  0.7129
 3597TIP3    H232427   6.734   4.033   6.891 -0.2461  1.0440  0.8681
 3598TIP3   OH232428   1.578   2.816   7.316 -0.2337 -0.2363  0.0285
 3598TIP3    H132429   1.515   2.888   7.326 -0.3671 -0.5583  1.8220
 3598TIP3    H232430   1.658   2.848   7.358 -0.8775 -1.7798  2.6428
 3599TIP3   OH232431   0.817   6.432   6.727  0.4243 -0.5795  0.3572
 3599TIP3    H132432   0.866   6.472   6.655 -1.7922 -0.5695 -1.2258
 3599TIP3    H232433   0.739   6.487   6.736  0.9143 -0.1871  3.2634
 3600TIP3   OH232434   5.479   6.477   0.175 -0.2616 -0.2721  0.2178
 3600TIP3    H132435   5.438   6.519   0.100  2.0793  0.0355 -0.9969
 3600TIP3    H232436   5.461   6.384   0.163 -1.2297 -0.0819  0.1508
 3601TIP3   OH232437   2.381   5.353   7.086  0.2532 -0.2048 -0.7746
 3601TIP3    H132438   2.325   5.294   7.036 -1.8987  0.4002  0.7821
 3601TIP3    H232439   2.466   5.309   7.087 -1.2764 -3.5331  0.5699
 3602TIP3   OH232440   2.458   3.186   6.844 -0.1420  0.5368 -0.5588
 3602TIP3    H132441   2.515   3.118   6.807  1.6996  0.4488  2.1909
 3602TIP3    H232442   2.370   3.160   6.818  0.7906 -0.8108 -2.6931
 3603TIP3   OH232443   4.253   5.220   2.451 -0.2477  0.3566 -0.1259
 3603TIP3    H132444   4.244   5.150   2.516  0.5155  1.0715  0.7548
 3603TIP3    H232445   4.200   5.189   2.377 -1.9805  0.0043  1.2012
 3604TIP3   OH232446   3.053   6.168   1.667  0.2338  0.1923  0.5006
 3604TIP3    H132447   3.096   6.240   1.621  0.1177  0.2973  0.5567
 3604TIP3    H232448   3.118   6.098   1.668 -0.5666 -0.7130 -2.0241
 3605TIP3   OH232449   5.766   1.810   1.195 -0.3551 -0.3316 -0.6510
 3605TIP3    H132450   5.679   1.810   1.235 -0.1507 -0.5669 -0.1959
 3605TIP3    H232451   5.785   1.717   1.178  1.3834 -0.7774  2.7991
 3606TIP3   OH232452   6.086   3.997   7.366  0.3454  0.9959  0.2492
 3606TIP3    H132453   6.073   3.905   7.341  1.7306  0.1339  2.4543
 3606TIP3    H232454   6.038   4.007   7.448  3.7121  0.8999  2.4178
 3607TIP3   OH232455   4.333   0.388   2.130 -0.2500 -0.0212 -0.0896
 3607TIP3    H132456   4.335   0.410   2.223 -0.1773  0.7198 -0.2581
 3607TIP3    H232457   4.319   0.293   2.127  1.2953 -0.2991  0.7050
 3608TIP3   OH232458   4.415   4.312   7.294 -0.0970  0.2558 -0.9189
 3608TIP3    H132459   4.487   4.283   7.239  2.5022  2.2058  1.2032
 3608TIP3    H232460   4.368   4.376   7.241  1.6165  1.2199 -1.3157
 3609TIP3   OH232461   5.275   0.227   6.900 -0.9727  0.2611 -0.0961
 3609TIP3    H132462   5.235   0.163   6.841  0.9215 -0.4991 -0.6233
 3609TIP3    H232463   5.211   0.238   6.971 -1.2589 -2.4620  0.1812
 3610TIP3   OH232464   5.346   6.864   7.630  0.3023  0.1756 -0.4864
 3610TIP3    H132465   5.420   6.907   7.586  0.1232 -0.9055 -1.9172
 3610TIP3    H232466   5.374   6.773   7.639 -0.2116  0.1074  0.4667
 3611TIP3   OH232467   0.828   2.107   1.286  0.4378  0.1579  0.7502
 3611TIP3    H132468   0.813   2.057   1.366 -0.6812 -1.9862 -0.7082
 3611TIP3    H232469   0.900   2.063   1.242  0.2301  0.5575 -0.0144
 3612TIP3   OH232470   5.713   5.218   7.303 -0.1697  0.4683 -0.2133
 3612TIP3    H132471   5.742   5.282   7.238  0.5614 -1.0532 -1.4875
 3612TIP3    H232472   5.618   5.214   7.293 -0.2957  1.7349  0.2959
 3613TIP3   OH232473   5.323   4.387   7.478  0.1162  0.3059  0.5456
 3613TIP3    H132474   5.397   4.422   7.528  1.9681 -3.2080  0.5971
 3613TIP3    H232475   5.252   4.380   7.542  1.6435 -1.6494  2.1793
 3614TIP3   OH232476   0.771   2.883   6.576  0.3445 -0.4531  0.2103
 3614TIP3    H132477   0.705   2.833   6.626 -0.2057 -0.4053 -0.4571
 3614TIP3    H232478   0.773   2.968   6.619 -1.7649  0.3700 -1.1647
 3615TIP3   OH232479   2.526   5.457   1.268 -0.0859  0.2898 -0.6023
 3615TIP3    H132480   2.475   5.385   1.230  1.7322 -0.7313 -1.2252
 3615TIP3    H232481   2.552   5.426   1.354 -0.6631  0.9018 -0.1926
 3616TIP3   OH232482   1.459   0.261   7.915  0.3303  0.3925  0.4123
 3616TIP3    H132483   1.417   0.175   7.920  0.7175  0.2043  0.4494
 3616TIP3    H232484   1.551   0.242   7.898 -0.1124  0.8816 -3.1487
 3617TIP3   OH232485   6.094   5.615   0.225 -0.2369  0.9605  0.0984
 3617TIP3    H132486   6.022   5.668   0.259 -1.0381  0.7784 -1.2331
 3617TIP3    H232487   6.126   5.663   0.149  1.4897  1.3464  1.0124
 3618TIP3   OH232488   5.934   3.499   7.555 -0.4523 -0.5585 -0.3695
 3618TIP3    H132489   5.919   3.588   7.524 -1.3367 -0.5289  0.0991
 3618TIP3    H232490   5.897   3.443   7.487  2.1527 -0.6914 -1.8090
 3619TIP3   OH232491   6.085   5.063   7.204  0.2810  0.1295  0.0325
 3619TIP3    H132492   6.170   5.029   7.230  1.7420  2.8337 -0.8742
 3619TIP3    H232493   6.103   5.124   7.133 -2.5286  0.1257 -0.8138
 3620TIP3   OH232494   1.637   1.928   6.353 -0.4361 -0.0027  0.1111
 3620TIP3    H132495   1.568   1.946   6.289  0.3029 -0.2526 -0.7740
 3620TIP3    H232496   1.633   2.001   6.414 -0.8060  0.5157 -0.5229
 3621TIP3   OH232497   6.083   2.274   8.070 -0.3222 -0.1985 -0.0520
 3621TIP3    H132498   5.993   2.243   8.081 -0.1744 -0.4324  0.5117
 3621TIP3    H232499   6.118   2.279   8.159  0.6109 -1.2467 -0.3466
 3622TIP3   OH232500   3.210   3.124   0.907 -0.0312 -0.5717  0.1193
 3622TIP3    H132501   3.182   3.214   0.886  0.8793 -0.6934 -1.8613
 3622TIP3    H232502   3.301   3.133   0.935  0.1002 -0.8770 -0.2013
 3623TIP3   OH232503   5.303   4.446   1.750 -0.0931  0.8250  0.0141
 3623TIP3    H132504   5.278   4.521   1.803  0.3662  0.9339  0.0824
 3623TIP3    H232505   5.227   4.428   1.696 -0.1756  1.3946 -0.0612
 3624TIP3   OH232506   6.405   4.136   1.569  0.0658  0.4610 -0.0267
 3624TIP3    H132507   6.315   4.125   1.601 -0.5836  0.8706 -1.5881
 3624TIP3    H232508   6.442   4.204   1.626 -1.1021  1.3172 -0.2351
 3625TIP3   OH232509   0.315   4.866   0.697  0.0830  0.0664  1.3216
 3625TIP3    H132510   0.405   4.887   0.719  0.2300 -0.9662  1.7846
 3625TIP3    H232511   0.317   4.849   0.602  0.0266  1.6570  1.0122
 3626TIP3   OH232512   5.802   5.403   1.042  0.1630 -0.5848  0.8151
 3626TIP3    H132513   5.853   5.344   1.098  0.2417 -0.6348  0.6890
 3626TIP3    H232514   5.712   5.391   1.071  0.3773  0.6833  2.1428
 3627TIP3   OH232515   3.047   2.673   1.834  0.4212 -0.3203 -0.0514
 3627TIP3    H132516   2.978   2.738   1.843 -0.1528 -0.7633 -0.9864
 3627TIP3    H232517   3.110   2.694   1.903  0.8609  1.9628 -1.0432
 3628TIP3   OH232518   5.752   0.696   1.159 -0.4196  0.0367 -0.1488
 3628TIP3    H132519   5.807   0.769   1.185  1.2649 -1.5282  0.9787
 3628TIP3    H232520   5.758   0.694   1.063  0.8195  0.4247 -0.1020
 3629TIP3   OH232521   2.134   6.266   8.043  0.4548 -0.2497  0.5785
 3629TIP3    H132522   2.130   6.276   8.139 -0.3139 -0.2429  0.5565
 3629TIP3    H232523   2.163   6.176   8.029  0.0348 -0.4281  0.8278
 3630TIP3   OH232524   3.806   1.835   6.425  0.2932  0.4868 -0.3554
 3630TIP3    H132525   3.839   1.924   6.426  1.4509  0.0923  1.0430
 3630TIP3    H232526   3.753   1.828   6.505 -0.8605  0.2663 -1.1045
 3631TIP3   OH232527   6.480   1.737   0.375  0.7108 -0.3162  0.5851
 3631TIP3    H132528   6.515   1.675   0.311  0.4403 -1.2713  1.3594
 3631TIP3    H232529   6.445   1.683   0.446 -1.5061  0.6080  0.2968
 3632TIP3   OH232530   3.565   1.006   0.226 -0.7783  0.1034 -0.3527
 3632TIP3    H132531   3.586   1.068   0.296  0.3814 -1.9320  1.2224
 3632TIP3    H232532   3.638   1.014   0.164  0.1962 -0.7425  0.6474
 3633TIP3   OH232533   1.164   5.466   8.098  0.2103  0.1621  0.1123
 3633TIP3    H132534   1.145   5.548   8.144  0.1692 -0.7553  1.8399
 3633TIP3    H232535   1.080   5.438   8.063  0.2729  0.9747 -0.7164
 3634TIP3   OH232536   6.322   3.752   7.274 -0.3914  0.4370  0.2194
 3634TIP3    H132537   6.343   3.793   7.358 -1.1791  1.8259 -0.2301
 3634TIP3    H232538   6.378   3.798   7.211 -0.9801  0.5434 -0.2362
 3635TIP3   OH232539   5.957   4.723   1.830 -0.0986 -0.3106 -0.0081
 3635TIP3    H132540   5.975   4.629   1.825  2.3513  0.1801 -2.3293
 3635TIP3    H232541   5.863   4.729   1.812 -0.0463 -2.2561 -1.3423
 3636TIP3   OH232542   3.473   2.432   0.772 -0.0120  0.1095  0.2048
 3636TIP3    H132543   3.545   2.493   0.757  0.3256 -0.3036  0.1175
 3636TIP3    H232544   3.399   2.470   0.724  0.9526 -0.9848 -2.3038
 3637TIP3   OH232545   6.581   3.223   0.465 -0.7639  0.4300 -0.5771
 3637TIP3    H132546   6.604   3.258   0.379  0.7545  0.2118 -0.2956
 3637TIP3    H232547   6.583   3.299   0.524 -1.6667  0.5567 -0.7039
 3638TIP3   OH232548   1.999   3.682   8.458  0.4421 -0.2746  0.0445
 3638TIP3    H132549   1.968   3.739   8.388 -0.7588  0.1334  0.8752
 3638TIP3    H232550   1.919   3.651   8.501  0.9433 -3.9191 -1.3520
 3639TIP3   OH232551   6.131   0.856   2.171 -0.3006 -0.5680 -0.3930
 3639TIP3    H132552   6.212   0.809   2.153  0.0101 -0.4457  0.5991
 3639TIP3    H232553   6.151   0.948   2.156 -0.1897 -0.5184  0.0330
 3640TIP3   OH232554   6.625   0.869   8.474  0.0581 -0.1553 -0.0940
 3640TIP3    H132555   6.642   0.775   8.482  0.0018 -0.2219 -0.7245
 3640TIP3    H232556   6.628   0.886   8.380  2.1608  0.8519  0.0826
 3641TIP3   OH232557   6.572   1.252   7.553  0.2086 -0.0016 -0.4671
 3641TIP3    H132558   6.654   1.215   7.585 -0.6812 -1.2467  0.4674
 3641TIP3    H232559   6.511   1.243   7.626 -0.4765  1.9520 -0.7377
 3642TIP3   OH232560   3.584   0.322   0.189  0.2728 -0.2923 -0.1521
 3642TIP3    H132561   3.580   0.285   0.277 -0.1978 -1.5313 -0.6693
 3642TIP3    H232562   3.568   0.247   0.131 -1.7087  0.8710 -1.2280
 3643TIP3   OH232563   0.726   4.821   1.901  0.2453  0.2899 -0.6160
 3643TIP3    H132564   0.686   4.818   1.814 -0.5076 -0.4495 -0.2551
 3643TIP3    H232565   0.657   4.793   1.961  1.2760 -0.9965  0.0277
 3644TIP3   OH232566   6.911   0.619   7.428 -0.0700 -0.0479  1.0552
 3644TIP3    H132567   6.835   0.620   7.370 -0.8921  0.2298  2.0890
 3644TIP3    H232568   6.875   0.594   7.513  0.9581  0.3793  1.6328
 3645TIP3   OH232569   0.595   0.930   7.594  0.6536  0.4256 -0.6034
 3645TIP3    H132570   0.551   0.846   7.581 -0.7203  0.7067  1.6375
 3645TIP3    H232571   0.557   0.988   7.527 -2.1775  0.5240  0.9345
 3646TIP3   OH232572   5.381   2.711   1.964  0.2392  0.4156  0.1013
 3646TIP3    H132573   5.405   2.703   2.056  0.1145  1.6549  0.2456
 3646TIP3    H232574   5.285   2.718   1.964 -0.1649 -3.0008 -0.3797
 3647TIP3   OH232575   1.790   5.454   1.529 -0.1178  0.0907  0.1123
 3647TIP3    H132576   1.872   5.449   1.579 -0.1240 -0.4377  0.0815
 3647TIP3    H232577   1.752   5.538   1.553  0.2363  0.1616  0.4429
 3648TIP3   OH232578   5.485   6.952   1.095 -0.1390 -0.1980 -0.7833
 3648TIP3    H132579   5.574   6.988   1.088  0.2839 -1.1950 -0.6710
 3648TIP3    H232580   5.498   6.860   1.115 -1.1630  0.2372  2.7073
 3649TIP3   OH232581   5.744   5.902   1.144  0.7034 -0.2899 -0.8446
 3649TIP3    H132582   5.717   5.894   1.235  1.2323  2.0217 -0.4102
 3649TIP3    H232583   5.831   5.863   1.141  0.0185 -1.8787 -0.7696
 3650TIP3   OH232584   2.595   2.116   7.002  0.1552 -0.2855  0.2446
 3650TIP3    H132585   2.672   2.070   7.032  1.7735  1.2329 -1.3227
 3650TIP3    H232586   2.542   2.050   6.957  1.2219 -1.0882  0.1561
 3651TIP3   OH232587   2.568   4.023   6.206  0.0514  0.1479  0.3227
 3651TIP3    H132588   2.518   3.971   6.143  0.8047  0.0027 -0.1613
 3651TIP3    H232589   2.654   3.983   6.208  0.2888  0.6649  0.8287
 3652TIP3   OH232590   1.865   5.787   8.192 -0.2814  0.0406 -0.1436
 3652TIP3    H132591   1.941   5.756   8.242 -0.1816  0.4947 -0.0085
 3652TIP3    H232592   1.860   5.727   8.117  1.4356  1.2066 -1.2705
 3653TIP3   OH232593   0.035   2.211   7.607  1.1563 -0.2084  0.3305
 3653TIP3    H132594  -0.053   2.246   7.622  1.3526  0.2913  0.3426
 3653TIP3    H232595   0.064   2.253   7.526  0.5468 -2.0122 -0.8968
 3654TIP3   OH232596   1.657   0.983   6.535  0.0604 -0.4118 -0.3013
 3654TIP3    H132597   1.647   0.955   6.444 -2.2853 -0.8138  0.0062
 3654TIP3    H232598   1.645   0.902   6.586 -0.9434  0.1463  0.4006
 3655TIP3   OH232599   4.687   6.876   0.570  0.2924 -0.0012 -0.1969
 3655TIP3    H132600   4.600   6.867   0.530  0.3499  0.9659 -0.5716
 3655TIP3    H232601   4.747   6.842   0.504  0.1459 -1.7523  0.5118
 3656TIP3   OH232602   6.585   6.224   7.898  0.5107 -0.7995  0.4504
 3656TIP3    H132603   6.601   6.242   7.805 -1.2582 -1.4742 -0.0231
 3656TIP3    H232604   6.567   6.311   7.935 -1.3723 -0.7409 -0.4358
 3657TIP3   OH232605   5.958   0.801   8.429 -0.0704 -0.2359 -0.0938
 3657TIP3    H132606   6.039   0.849   8.411 -0.3347  0.2027 -0.1148
 3657TIP3    H232607   5.894   0.869   8.451 -0.7458 -0.4959 -1.2122
 3658TIP3   OH232608   2.595   6.957   0.312 -0.2326 -0.2562 -0.4079
 3658TIP3    H132609   2.628   6.917   0.393  0.0626  0.2877 -0.2576
 3658TIP3    H232610   2.550   7.036   0.340 -1.2205 -0.7041 -0.6655
 3659TIP3   OH232611   4.442   6.267   1.500 -0.4399  0.7475 -0.9821
 3659TIP3    H132612   4.360   6.220   1.488  0.1593 -0.4338 -0.6649
 3659TIP3    H232613   4.471   6.242   1.588  1.1645 -0.3549 -1.7782
 3660TIP3   OH232614   4.673   6.458   7.823 -0.1875 -0.0383 -0.0084
 3660TIP3    H132615   4.680   6.554   7.828  1.3392 -0.1750  1.4099
 3660TIP3    H232616   4.756   6.426   7.858 -0.2578 -1.8970 -1.3817
 3661TIP3   OH232617   3.831   3.951   6.741  1.1532 -0.2587 -0.3035
 3661TIP3    H132618   3.814   3.917   6.829  1.1574 -0.5109 -0.4019
 3661TIP3    H232619   3.791   3.887   6.682  2.9368 -1.1829 -0.5745
 3662TIP3   OH232620   3.790   0.929   2.023  0.0880 -0.3850 -0.3658
 3662TIP3    H132621   3.710   0.981   2.015  0.2744 -0.2246 -1.4315
 3662TIP3    H232622   3.806   0.924   2.117 -1.0455 -0.2274 -0.1434
 3663TIP3   OH232623   6.723   0.635   1.421 -0.1612 -0.0184  0.4080
 3663TIP3    H132624   6.672   0.565   1.380 -0.0281  0.5459 -0.7756
 3663TIP3    H232625   6.669   0.713   1.409  0.8380  0.5363 -0.6186
 3664TIP3   OH232626   0.992   5.091   0.714  0.0925 -0.5796 -0.1339
 3664TIP3    H132627   0.919   5.051   0.761  1.1690 -2.0398  0.3866
 3664TIP3    H232628   1.034   5.019   0.668  2.1416 -0.1093  0.8544
 3665TIP3   OH232629   6.385   0.613   0.820 -0.6869  0.1383  0.5750
 3665TIP3    H132630   6.399   0.622   0.726 -0.2114  0.5485  0.6830
 3665TIP3    H232631   6.327   0.686   0.843 -2.2658 -0.9812  0.3013
 3666TIP3   OH232632   1.777   1.523   7.645 -0.3099  0.0827 -0.0613
 3666TIP3    H132633   1.752   1.610   7.676  1.0229  0.5339 -0.2191
 3666TIP3    H232634   1.780   1.532   7.550 -0.7432 -0.3041 -0.1154
 3667TIP3   OH232635   6.752   3.865   8.110  0.0462 -0.6728  0.2686
 3667TIP3    H132636   6.834   3.910   8.133  1.4968 -2.4092 -1.2725
 3667TIP3    H232637   6.729   3.816   8.189  0.6434 -0.4370  0.5947
 3668TIP3   OH232638   2.865   4.761   1.641  0.0071  0.2745 -0.0223
 3668TIP3    H132639   2.959   4.782   1.644  0.1582 -0.5183  2.0700
 3668TIP3    H232640   2.822   4.846   1.649  0.5429  0.5321  0.1880
 3669TIP3   OH232641   4.411   0.380   8.252  0.2078  0.0799 -0.5969
 3669TIP3    H132642   4.361   0.321   8.308  0.0492  0.7016 -0.0616
 3669TIP3    H232643   4.379   0.363   8.164 -0.2722 -0.2013 -0.3736
 3670TIP3   OH232644   3.799   2.907   7.742  0.1976 -0.6453 -0.6505
 3670TIP3    H132645   3.721   2.852   7.736  0.4230 -1.0273 -0.1141
 3670TIP3    H232646   3.854   2.878   7.668 -0.5864  0.3078 -1.6347
 3671TIP3   OH232647   0.142   2.769   0.061 -0.2956 -0.3036 -0.5409
 3671TIP3    H132648   0.165   2.803  -0.025 -2.6136  1.5195 -0.5325
 3671TIP3    H232649   0.047   2.775   0.065 -0.2118  0.9858  2.6356
 3672TIP3   OH232650   2.125   5.627   6.599  0.0069 -0.0268  0.4032
 3672TIP3    H132651   2.057   5.613   6.665 -1.6760 -2.1542 -1.5653
 3672TIP3    H232652   2.173   5.544   6.596 -1.4407 -0.9176 -2.4388
 3673TIP3   OH232653   1.498   2.748   5.825  0.0152 -0.1374  0.1698
 3673TIP3    H132654   1.561   2.798   5.876 -0.4317  1.3345 -0.6703
 3673TIP3    H232655   1.546   2.722   5.746 -0.2696  0.5208 -0.2222
 3674TIP3   OH232656   3.231   2.767   0.763 -0.5218  0.3679  0.0797
 3674TIP3    H132657   3.167   2.823   0.719  2.6098  2.5315 -2.1388
 3674TIP3    H232658   3.251   2.814   0.845 -2.6665 -1.0900  1.5589
 3675TIP3   OH232659   0.615   2.183   2.108 -0.0127  0.1988 -0.1209
 3675TIP3    H132660   0.529   2.142   2.097 -0.3070 -0.0565  2.4977
 3675TIP3    H232661   0.595   2.273   2.135  0.5678  0.3548 -0.1961
 3676TIP3   OH232662   0.837   6.781   1.479 -0.2232 -0.1496  0.3232
 3676TIP3    H132663   0.747   6.758   1.501 -0.6804  1.7526  0.6944
 3676TIP3    H232664   0.883   6.780   1.563 -0.4450  0.9330  0.4817
 3677TIP3   OH232665   6.652   4.532   7.891  0.2364 -0.2305 -0.1490
 3677TIP3    H132666   6.693   4.580   7.964  0.1510  1.1767 -0.9806
 3677TIP3    H232667   6.662   4.591   7.816 -1.1303 -0.9293 -0.9142
 3678TIP3   OH232668   2.940   4.437   7.278 -0.3890  0.0163  0.4846
 3678TIP3    H132669   2.864   4.379   7.288 -0.6709  0.5999  2.0185
 3678TIP3    H232670   2.988   4.401   7.204 -2.6621  0.1832 -1.2041
 3679TIP3   OH232671   5.660   5.471   2.069 -0.2741 -0.3523  0.3185
 3679TIP3    H132672   5.695   5.552   2.034 -1.3039 -0.4909 -1.1696
 3679TIP3    H232673   5.642   5.489   2.161  0.9298  0.6039  0.3773
 3680TIP3   OH232674   2.475   1.099   0.022  0.6806  0.3191  0.1753
 3680TIP3    H132675   2.511   1.163  -0.039 -0.4708  0.9057  0.0996
 3680TIP3    H232676   2.448   1.150   0.098  1.5040 -0.3277  0.9209
 3681TIP3   OH232677   3.666   0.417   1.538 -0.3890 -0.7025  0.0311
 3681TIP3    H132678   3.607   0.460   1.475  1.7410 -0.9905 -2.3329
 3681TIP3    H232679   3.705   0.489   1.587 -0.2471 -0.2421 -0.7268
 3682TIP3   OH232680   4.913   3.969   0.147  0.4041  0.6252 -0.6917
 3682TIP3    H132681   4.824   3.968   0.182  0.6591  0.4795 -0.0316
 3682TIP3    H232682   4.908   4.025   0.069 -0.5845 -0.6045 -1.5551
 3683TIP3   OH232683   3.220   6.737   0.998 -0.5003 -0.5355 -0.0568
 3683TIP3    H132684   3.187   6.672   1.059 -0.7637  0.5713  1.0224
 3683TIP3    H232685   3.240   6.813   1.052  0.4018  0.0733 -1.1877
 3684TIP3   OH232686   1.809   6.302   0.658  0.1345 -0.2414 -0.4090
 3684TIP3    H132687   1.807   6.232   0.724 -1.2242 -1.2978 -1.5220
 3684TIP3    H232688   1.785   6.381   0.707 -1.9830 -1.1923  0.2055
 3685TIP3   OH232689   1.307   1.301   6.341  0.2089  0.0362 -0.2766
 3685TIP3    H132690   1.238   1.362   6.364  3.0238  3.2767  0.4520
 3685TIP3    H232691   1.345   1.275   6.426  0.3079 -1.1353 -0.6702
 3686TIP3   OH232692   2.847   6.901   7.990  0.2227 -0.0131 -0.5816
 3686TIP3    H132693   2.819   6.877   7.902 -1.1022 -0.9821  0.0787
 3686TIP3    H232694   2.770   6.943   8.029 -0.6722 -3.1760  1.4469
 3687TIP3   OH232695   5.356   6.354   7.584  0.0815 -0.0099  0.2471
 3687TIP3    H132696   5.349   6.267   7.623  0.3750  0.1205  0.5979
 3687TIP3    H232697   5.392   6.337   7.497 -1.9621 -0.4280 -0.5611
 3688TIP3   OH232698   4.289   6.653   1.429 -0.1268  0.0414 -0.6080
 3688TIP3    H132699   4.259   6.725   1.483  0.4627 -0.3127  0.2144
 3688TIP3    H232700   4.246   6.576   1.466  1.2005 -0.3757  0.1589
 3689TIP3   OH232701   3.916   6.202   0.996  0.0343 -0.0983 -0.2689
 3689TIP3    H132702   3.955   6.285   1.024 -0.6088  0.3501 -0.6786
 3689TIP3    H232703   3.970   6.174   0.922 -0.3704  0.5014 -0.8083
 3690TIP3   OH232704   4.608   4.326   0.640 -0.2785 -0.3510  0.3132
 3690TIP3    H132705   4.638   4.265   0.707 -0.0818 -0.5701  0.0283
 3690TIP3    H232706   4.669   4.313   0.567 -0.4277 -0.0406  0.1313
 3691TIP3   OH232707   4.131   5.899   0.089  0.1626  0.8600 -0.2665
 3691TIP3    H132708   4.043   5.862   0.101 -0.3777  2.2223  0.2913
 3691TIP3    H232709   4.117   5.973   0.029  1.1042  0.5025 -0.9436
 3692TIP3   OH232710   1.822   6.467   0.162 -0.1776 -0.5099  0.3175
 3692TIP3    H132711   1.762   6.395   0.143 -2.7353  0.8912  2.5218
 3692TIP3    H232712   1.896   6.425   0.207 -0.8417 -1.9477  0.1174
 3693TIP3   OH232713   4.321   4.491   7.737  0.0174  0.1218 -0.6661
 3693TIP3    H132714   4.406   4.483   7.694  0.5840 -1.3146  0.6358
 3693TIP3    H232715   4.340   4.536   7.819 -0.4590 -0.2947 -0.3243
 3694TIP3   OH232716   1.254   5.352   6.625  0.1227  0.3883  0.6912
 3694TIP3    H132717   1.159   5.360   6.615  0.1164  0.5492  0.8787
 3694TIP3    H232718   1.289   5.383   6.542 -0.0198 -0.4480  0.3055
 3695TIP3   OH232719   5.215   1.541   1.619 -0.0549 -0.3507 -0.0213
 3695TIP3    H132720   5.285   1.486   1.656 -0.6826 -1.4918 -0.4650
 3695TIP3    H232721   5.213   1.619   1.674  2.4870  0.3650 -0.8131
 3696TIP3   OH232722   5.878   3.381   1.537 -0.5476 -0.0068 -0.3033
 3696TIP3    H132723   5.901   3.293   1.505  0.4599 -0.4640  1.5389
 3696TIP3    H232724   5.956   3.433   1.522 -0.8125  0.3344 -0.5107
 3697TIP3   OH232725   1.417   1.661   7.500  0.0478 -0.3540  0.0597
 3697TIP3    H132726   1.443   1.570   7.514 -3.6742 -1.5604  0.5015
 3697TIP3    H232727   1.346   1.656   7.436  0.0904  2.3144 -0.3094
 3698TIP3   OH232728   4.141   3.246   1.721 -0.4664  0.1241 -0.2040
 3698TIP3    H132729   4.045   3.242   1.712 -0.4510  1.2452 -1.1641
 3698TIP3    H232730   4.167   3.156   1.738 -1.7218 -0.1475  0.4317
 3699TIP3   OH232731   0.376   1.707   2.400  0.1559  0.3439  0.3861
 3699TIP3    H132732   0.384   1.738   2.310 -0.8389  0.5200  0.3407
 3699TIP3    H232733   0.460   1.666   2.420  0.8606  1.5189 -0.1464
 3700TIP3   OH232734   1.020   3.761   0.052  0.2169 -0.7518  0.3098
 3700TIP3    H132735   0.968   3.790   0.126 -0.7712  1.4414 -1.1370
 3700TIP3    H232736   1.020   3.835  -0.008  1.6753 -2.1338 -1.5233
 3701TIP3   OH232737   3.562   3.863   1.011 -0.3392  0.5399  0.4791
 3701TIP3    H132738   3.532   3.782   1.052  0.4929 -0.2453 -0.4313
 3701TIP3    H232739   3.482   3.913   0.996 -0.8656 -0.1014  1.0529
 3702TIP3   OH232740   2.366   5.926   1.584 -0.2645  0.1565  0.8553
 3702TIP3    H132741   2.442   5.924   1.643  0.5838 -1.5832 -0.2109
 3702TIP3    H232742   2.356   5.835   1.555 -2.0669  0.5619  0.0635
 3703TIP3   OH232743   3.200   1.331   6.970 -0.4165 -0.6339  0.6228
 3703TIP3    H132744   3.167   1.241   6.967 -3.0472  0.2598 -0.7377
 3703TIP3    H232745   3.157   1.369   7.047  1.9124 -0.8759  2.1462
 3704TIP3   OH232746   0.394   0.972   0.949 -0.3573  1.0234 -0.0737
 3704TIP3    H132747   0.324   0.957   0.886  0.3114  0.9550 -0.8184
 3704TIP3    H232748   0.420   1.063   0.935  1.1025  0.4615 -1.2780
 3705TIP3   OH232749   1.038   4.986   8.047  0.6941  0.2372 -0.4285
 3705TIP3    H132750   1.112   4.937   8.081  0.4020  0.1920  0.1574
 3705TIP3    H232751   1.066   5.015   7.960  1.2097 -0.1882 -0.4090
 3706TIP3   OH232752   1.994   5.860   0.529  0.3135 -0.0495  0.2942
 3706TIP3    H132753   1.995   5.792   0.597 -1.0240 -0.5395 -0.1483
 3706TIP3    H232754   1.904   5.892   0.527 -0.3532 -1.6537 -2.7605
 3707TIP3   OH232755   1.019   5.164   7.273 -0.0479 -0.2368  0.3201
 3707TIP3    H132756   0.975   5.244   7.302  0.5374  0.1759  0.0842
 3707TIP3    H232757   1.110   5.189   7.261  0.2375 -1.0477  0.6618
 3708TIP3   OH232758   3.728   4.139   7.997 -0.1122  0.0283 -0.0166
 3708TIP3    H132759   3.802   4.166   8.052 -0.0960  0.0800 -0.0644
 3708TIP3    H232760   3.652   4.182   8.036 -0.4527 -1.6672  1.2958
 3709TIP3   OH232761   4.123   3.829   0.936  0.1949  0.2533  0.2038
 3709TIP3    H132762   4.094   3.894   0.872 -2.0836  0.3072  1.2210
 3709TIP3    H232763   4.087   3.746   0.904  2.3402 -0.4589 -0.6077
 3710TIP3   OH232764   6.385   6.582   0.639  0.1437  0.6008 -0.4897
 3710TIP3    H132765   6.313   6.578   0.702  1.5253  1.6819  1.2487
 3710TIP3    H232766   6.399   6.676   0.625  0.7319  0.3905 -1.4073
 3711TIP3   OH232767   5.784   0.789   0.873  0.1290  0.9235 -0.5100
 3711TIP3    H132768   5.860   0.793   0.815  0.2350  1.2228 -0.3547
 3711TIP3    H232769   5.818   0.813   0.959  0.3017 -1.0270  0.0212
 3712TIP3   OH232770   0.669   2.417   1.654 -0.0157  0.1717 -0.3918
 3712TIP3    H132771   0.638   2.392   1.566  0.0034 -0.8651 -0.1247
 3712TIP3    H232772   0.742   2.476   1.638  0.5888 -0.7300 -1.1068
 3713TIP3   OH232773   6.396   1.013   0.053  0.3513 -0.7673  0.1786
 3713TIP3    H132774   6.470   0.962   0.021 -0.6154 -1.4018 -1.1477
 3713TIP3    H232775   6.431   1.063   0.127  2.0203 -1.2384 -0.2565
 3714TIP3   OH232776   0.605   4.838   7.129 -0.0174 -0.5210  0.3617
 3714TIP3    H132777   0.549   4.878   7.062  0.9304  0.2718  0.0276
 3714TIP3    H232778   0.692   4.838   7.091  0.2570 -1.5992  0.9481
 3715TIP3   OH232779   1.597   3.806   8.211  0.4445 -0.0141  0.6769
 3715TIP3    H132780   1.505   3.790   8.229  0.4815 -1.8661 -0.4476
 3715TIP3    H232781   1.644   3.744   8.266  0.9684  0.2481  0.5393
 3716TIP3   OH232782   0.358   2.315   8.051 -0.0179  0.2179  0.3647
 3716TIP3    H132783   0.279   2.359   8.020 -0.6847 -1.4191 -0.3464
 3716TIP3    H232784   0.430   2.371   8.020 -0.7888  0.3061 -1.4114
 3717TIP3   OH232785   6.835   3.082   0.327 -0.0504  0.5674 -0.6623
 3717TIP3    H132786   6.757   3.046   0.286 -0.8502  0.2712  1.0068
 3717TIP3    H232787   6.804   3.160   0.374  0.6507  0.4923 -0.0441
 3718TIP3   OH232788   4.111   5.118   6.540 -0.2099 -0.1652 -0.8649
 3718TIP3    H132789   4.176   5.123   6.470  1.8457  0.7826  0.9644
 3718TIP3    H232790   4.109   5.025   6.565 -0.1978 -0.3409 -1.5124
 3719TIP3   OH232791   2.913   5.950   7.555  0.3363 -0.5902  0.1818
 3719TIP3    H132792   2.917   5.937   7.650 -1.4179  1.2242  0.5669
 3719TIP3    H232793   2.953   6.037   7.541 -3.5148  1.3412 -0.0640
 3720TIP3   OH232794   2.382   3.997   8.418 -0.1638  0.0910  0.0675
 3720TIP3    H132795   2.399   3.910   8.383 -0.4260  0.0748 -0.0164
 3720TIP3    H232796   2.464   4.021   8.463  0.4819  0.4345 -1.2222
 3721TIP3   OH232797   2.307   5.130   7.354  0.0051  0.1848  0.5132
 3721TIP3    H132798   2.297   5.224   7.345 -1.3682 -0.0097 -0.2946
 3721TIP3    H232799   2.381   5.108   7.297 -0.9572  0.5286 -0.8964
 3722TIP3   OH232800   3.141   4.209   7.134 -0.2783 -0.0125 -0.2790
 3722TIP3    H132801   3.066   4.162   7.097 -0.5538  0.4623 -0.3207
 3722TIP3    H232802   3.206   4.209   7.064 -0.6704  0.5853 -0.6454
 3723TIP3   OH232803   3.429   5.081   7.360 -0.0012 -0.9639 -0.0306
 3723TIP3    H132804   3.504   5.140   7.362 -0.5054 -0.2109 -1.8169
 3723TIP3    H232805   3.460   5.003   7.316 -0.4921 -0.2517 -1.7078
 3724TIP3   OH232806   5.399   1.751   7.659 -0.1500 -0.3039  0.5360
 3724TIP3    H132807   5.393   1.727   7.752 -0.7453 -0.0667  0.5620
 3724TIP3    H232808   5.423   1.844   7.660 -0.9151 -0.1036  0.4595
 3725TIP3   OH232809   1.626   5.068   7.010  0.3698 -0.2268 -0.0846
 3725TIP3    H132810   1.574   5.119   7.072 -1.4938  0.1211 -1.8681
 3725TIP3    H232811   1.717   5.093   7.030 -0.1785  0.1864  2.1787
 3726TIP3   OH232812   3.773   5.777   1.498  0.1699  0.3450 -0.2038
 3726TIP3    H132813   3.830   5.854   1.505 -1.2290  1.6051 -1.8745
 3726TIP3    H232814   3.685   5.813   1.484 -0.7949 -1.5555  0.5600
 3727TIP3   OH232815   3.990   0.259   8.020 -0.0860 -0.1625  0.0020
 3727TIP3    H132816   4.049   0.273   7.945 -0.1478  0.2031  0.0184
 3727TIP3    H232817   4.049   0.238   8.093  0.0364  0.2762  0.0371
 3728TIP3   OH232818   6.586   0.889   1.391 -0.7024  0.0194 -0.8345
 3728TIP3    H132819   6.522   0.893   1.462 -1.2949 -1.6043 -1.2199
 3728TIP3    H232820   6.543   0.932   1.317 -1.3480 -0.9905 -1.0682
 3729TIP3   OH232821   1.110   4.249   7.185  0.1702  0.3995  0.0565
 3729TIP3    H132822   1.162   4.236   7.264  1.0485 -0.6046 -0.6587
 3729TIP3    H232823   1.163   4.308   7.132 -0.5514  1.3019  0.3207
 3730TIP3   OH232824   2.416   0.274   6.356 -1.0429  0.5418  0.1826
 3730TIP3    H132825   2.393   0.203   6.298  0.5450 -0.0286  0.2019
 3730TIP3    H232826   2.336   0.292   6.406 -1.5885 -0.9276 -0.1271
 3731TIP3   OH232827   1.605   4.552   8.154 -0.1419 -0.0401 -0.5685
 3731TIP3    H132828   1.693   4.583   8.178 -0.3620  0.5114 -0.4758
 3731TIP3    H232829   1.550   4.630   8.156 -1.4575 -0.8260  3.0559
 3732TIP3   OH232830   1.456   3.235   6.998 -0.8363  0.1831  0.7215
 3732TIP3    H132831   1.492   3.204   7.081 -0.7875 -1.8827 -0.0138
 3732TIP3    H232832   1.529   3.226   6.936 -0.9814  1.3607  0.3429
 3733TIP3   OH232833   6.520   2.996   0.825 -0.1631  0.0328 -0.2538
 3733TIP3    H132834   6.533   2.984   0.731 -1.2990  1.6906 -0.6678
 3733TIP3    H232835   6.469   3.076   0.832  0.4107  0.2782  1.8247
 3734TIP3   OH232836   1.683   5.855   7.933  0.4412 -0.0204 -0.3673
 3734TIP3    H132837   1.666   5.801   7.856  1.7932  0.2522 -0.8855
 3734TIP3    H232838   1.763   5.818   7.970 -1.3310 -1.6000  2.2495
 3735TIP3   OH232839   5.709   5.167   1.955  0.0561  0.4858 -0.5466
 3735TIP3    H132840   5.672   5.125   1.877  0.0668 -0.3271 -0.1278
 3735TIP3    H232841   5.751   5.095   2.003 -3.4538  0.0373  2.3215
 3736TIP3   OH232842   0.068   2.400   8.324  0.3499 -0.2009 -0.0585
 3736TIP3    H132843   0.151   2.351   8.320 -0.4979 -1.6660 -0.4913
 3736TIP3    H232844   0.043   2.396   8.416 -0.0263 -1.1552 -0.1922
 3737TIP3   OH232845   5.660   3.412   1.319  0.4109 -0.1267  0.2137
 3737TIP3    H132846   5.639   3.319   1.310  2.8478 -0.7464  0.2120
 3737TIP3    H232847   5.588   3.457   1.275 -1.2825 -1.9310  0.9581
 3738TIP3   OH232848   2.382   2.701   2.305 -0.1479 -0.5463  0.3337
 3738TIP3    H132849   2.325   2.635   2.265  0.6131  0.2652 -2.2675
 3738TIP3    H232850   2.466   2.656   2.316  0.0282 -0.3935 -0.3189
 3739TIP3   OH232851   2.046   1.172   0.447 -0.2055  0.3253  0.1403
 3739TIP3    H132852   2.028   1.201   0.357 -0.5032  2.0283  0.7095
 3739TIP3    H232853   2.118   1.110   0.438 -2.1257 -1.8111 -1.5475
 3740TIP3   OH232854   6.189   5.811   7.367 -0.8501 -0.3719 -0.5379
 3740TIP3    H132855   6.199   5.780   7.457  0.3865  0.2637 -0.4365
 3740TIP3    H232856   6.103   5.779   7.340 -0.2513 -2.6244  0.0512
 3741TIP3   OH232857   3.562   5.122   7.681 -0.2602  0.4478  0.1178
 3741TIP3    H132858   3.592   5.133   7.591  1.6702 -0.0414  0.6565
 3741TIP3    H232859   3.593   5.201   7.726 -0.1906  0.1388  0.6140
 3742TIP3   OH232860   4.510   5.335   7.726  0.5604  0.0180 -0.0691
 3742TIP3    H132861   4.509   5.335   7.821 -1.8429 -0.4880 -0.0388
 3742TIP3    H232862   4.508   5.242   7.702  1.4319  0.1331 -0.6377
 3743TIP3   OH232863   5.151   0.779   1.342  0.3902 -0.2095  0.3246
 3743TIP3    H132864   5.081   0.724   1.378  0.3394 -0.1767  0.2753
 3743TIP3    H232865   5.131   0.867   1.374  0.8407 -0.3256  0.9571
 3744TIP3   OH232866   6.656   6.690   7.146 -0.0127  0.0196  0.0688
 3744TIP3    H132867   6.727   6.683   7.083 -1.0743 -1.6560 -1.0368
 3744TIP3    H232868   6.685   6.639   7.222  0.4154  0.2623  0.0674
 3745TIP3   OH232869   0.621   6.534   2.760 -0.5261  0.3823 -0.4169
 3745TIP3    H132870   0.635   6.454   2.710  0.2371 -0.3535  0.9532
 3745TIP3    H232871   0.708   6.561   2.788 -1.0626 -0.0652  1.8043
 3746TIP3   OH232872   2.990   0.322   1.397 -0.3153 -0.4413 -0.5296
 3746TIP3    H132873   3.073   0.276   1.407 -0.2720 -0.2742 -0.0676
 3746TIP3    H232874   2.988   0.350   1.305  0.3466 -0.0550 -0.4343
 3747TIP3   OH232875   0.345   6.446   7.146 -0.6842  0.0249  0.9056
 3747TIP3    H132876   0.270   6.429   7.090  0.7545  1.3761 -1.6219
 3747TIP3    H232877   0.332   6.536   7.177  0.4305  0.7813 -0.6495
 3748TIP3   OH232878   6.717   2.857   7.998  0.5518 -0.4802 -0.4865
 3748TIP3    H132879   6.797   2.849   8.051 -0.6923 -0.7914  1.4215
 3748TIP3    H232880   6.707   2.951   7.985  0.8008 -0.3926 -0.0624
 3749TIP3   OH232881   1.860   4.122   2.113 -0.1509 -0.1425 -0.0900
 3749TIP3    H132882   1.873   4.212   2.141 -1.2209  0.4095 -1.2479
 3749TIP3    H232883   1.774   4.099   2.148  0.9106 -1.4453  1.8846
 3750TIP3   OH232884   6.408   1.324   1.272  0.0630 -0.2537 -0.7769
 3750TIP3    H132885   6.423   1.413   1.242 -1.3424  0.1323 -0.4346
 3750TIP3    H232886   6.402   1.332   1.367  1.5420 -0.9923 -0.5935
 3751TIP3   OH232887   2.224   0.145   7.090 -0.5627  0.0213  0.1779
 3751TIP3    H132888   2.298   0.175   7.037 -0.8646 -0.1666 -0.3562
 3751TIP3    H232889   2.237   0.187   7.175 -0.3844  0.7823 -0.2129
 3752TIP3   OH232890   3.211   6.837   1.786 -0.0356  0.6093  0.7325
 3752TIP3    H132891   3.286   6.778   1.790  0.0499  0.6920  0.3196
 3752TIP3    H232892   3.245   6.921   1.819 -0.4290  0.1628  2.3655
 3753TIP3   OH232893   3.813   4.207   7.586  0.0770  0.5567 -0.2832
 3753TIP3    H132894   3.883   4.161   7.631  1.2347  2.0519 -0.4946
 3753TIP3    H232895   3.795   4.283   7.641 -1.1812  0.3578 -0.3952
 3754TIP3   OH232896   3.679   6.364   7.882 -0.5012 -0.1045 -0.6390
 3754TIP3    H132897   3.629   6.311   7.820  0.6790 -1.8433 -0.1707
 3754TIP3    H232898   3.767   6.327   7.880 -0.4742 -0.4008  2.2170
 3755TIP3   OH232899   1.963   0.931   1.959 -0.0955 -0.4260 -0.5548
 3755TIP3    H132900   2.051   0.920   1.995  0.3319 -0.2805 -1.5215
 3755TIP3    H232901   1.946   0.850   1.910 -1.1359 -1.1194  0.8800
 3756TIP3   OH232902   4.972   6.949   6.865  0.0549 -0.3545  0.9363
 3756TIP3    H132903   4.960   7.035   6.826  1.0983 -0.8248 -0.5155
 3756TIP3    H232904   4.924   6.890   6.807  0.8561 -0.9586  0.8655
 3757TIP3   OH232905   3.488   4.855   7.198 -0.7508  0.1355 -0.4385
 3757TIP3    H132906   3.404   4.895   7.172 -0.9818 -0.6023 -0.8442
 3757TIP3    H232907   3.470   4.761   7.202 -0.1855  0.0517  0.4195
 3758TIP3   OH232908   6.972   2.115   6.417 -0.5087 -0.1392  0.9958
 3758TIP3    H132909   6.990   2.209   6.416 -0.9532 -0.0172  2.2645
 3758TIP3    H232910   6.876   2.109   6.416 -0.4791 -0.6155 -0.1000
 3759TIP3   OH232911   0.915   5.896   8.453  0.0549  0.1086 -0.3260
 3759TIP3    H132912   0.822   5.917   8.456 -0.1599 -0.8598  0.5734
 3759TIP3    H232913   0.951   5.929   8.535 -0.0493 -1.7945  0.5462
 3760TIP3   OH232914   2.083   6.286   0.862  0.0981  0.6401  0.1360
 3760TIP3    H132915   2.110   6.371   0.827 -0.4856  1.2331  1.0524
 3760TIP3    H232916   2.002   6.305   0.909 -1.4759 -0.8983 -1.7715
 3761TIP3   OH232917   3.200   2.486   0.758 -0.3603  0.4451 -0.2237
 3761TIP3    H132918   3.168   2.575   0.739 -0.1625  0.4705 -0.4361
 3761TIP3    H232919   3.161   2.465   0.843 -1.2371  0.3320 -0.6420
 3762TIP3   OH232920   2.401   4.304   0.905 -0.1247 -0.5000 -0.1378
 3762TIP3    H132921   2.485   4.259   0.900 -0.0860 -0.4718  0.2179
 3762TIP3    H232922   2.395   4.354   0.824  0.9292  0.7604  0.5317
 3763TIP3   OH232923   2.837   1.312   1.426  0.0952  0.2730 -0.2830
 3763TIP3    H132924   2.913   1.270   1.466 -0.3917 -1.0192 -0.6856
 3763TIP3    H232925   2.873   1.388   1.380  1.2158 -0.6276 -0.9249
 3764TIP3   OH232926   5.829   6.604   7.946 -0.6342 -0.0945 -0.4703
 3764TIP3    H132927   5.742   6.642   7.961 -1.5107 -2.5598  1.2358
 3764TIP3    H232928   5.811   6.522   7.899  1.0256  0.5297 -2.3154
 3765TIP3   OH232929   2.503   3.073   0.283 -0.6093  0.3355 -0.2632
 3765TIP3    H132930   2.592   3.101   0.261 -0.2572 -0.3141  0.3192
 3765TIP3    H232931   2.515   2.999   0.342 -1.5376  0.4574  0.0902
 3766TIP3   OH232932   4.777   0.752   6.436  0.4250 -0.0862 -0.3510
 3766TIP3    H132933   4.750   0.813   6.368  2.2312  0.8361 -0.3018
 3766TIP3    H232934   4.712   0.764   6.506  0.5555  1.5622 -0.4719
 3767TIP3   OH232935   2.902   2.286   7.104 -0.0082 -0.4928  0.0108
 3767TIP3    H132936   2.996   2.268   7.100 -0.1407 -0.9803 -1.4643
 3767TIP3    H232937   2.872   2.276   7.014 -1.0935  1.9230  0.0231
 3768TIP3   OH232938   2.734   0.479   0.615 -0.1378 -0.6684  0.0227
 3768TIP3    H132939   2.796   0.455   0.546  1.4917  0.7073  0.9471
 3768TIP3    H232940   2.758   0.424   0.689  1.2641  1.1380  0.9838
 3769TIP3   OH232941   0.989   3.958   1.360  0.5257  0.0087 -0.2851
 3769TIP3    H132942   0.931   3.925   1.429 -1.0584 -0.7254 -1.8823
 3769TIP3    H232943   0.935   4.021   1.313  1.9051  1.2127 -0.2890
 3770TIP3   OH232944   0.361   1.275   1.590  0.3422  0.1409 -0.3491
 3770TIP3    H132945   0.424   1.319   1.533  0.1414 -0.6847 -1.2335
 3770TIP3    H232946   0.371   1.182   1.570  0.3345 -0.1875  1.0571
 3771TIP3   OH232947   6.897   5.660   2.320  0.3912  0.6147  0.8119
 3771TIP3    H132948   6.936   5.575   2.298  1.5514  1.3582 -0.0811
 3771TIP3    H232949   6.809   5.638   2.351 -0.3064 -0.7772 -1.8093
 3772TIP3   OH232950   5.250   3.572   6.682 -0.1809 -0.3106 -0.8756
 3772TIP3    H132951   5.267   3.508   6.613 -2.5173  0.7853 -2.6135
 3772TIP3    H232952   5.298   3.650   6.655 -1.0660  0.1084 -1.2869
 3773TIP3   OH232953   6.343   0.073   1.843  0.0809  1.2620 -0.3981
 3773TIP3    H132954   6.250   0.050   1.841  0.6621 -1.5367  0.3248
 3773TIP3    H232955   6.346   0.156   1.891 -1.9113  0.3840  1.4217
 3774TIP3   OH232956   3.746   6.885   7.556  0.4712 -0.0387 -0.0304
 3774TIP3    H132957   3.822   6.914   7.606  1.3137  0.7279 -1.6691
 3774TIP3    H232958   3.730   6.957   7.494 -0.3731 -1.0398 -1.0112
 3775TIP3   OH232959   2.489   5.993   6.679  0.1560 -0.3967  0.3289
 3775TIP3    H132960   2.551   5.980   6.751 -0.0971 -0.4530  0.5400
 3775TIP3    H232961   2.441   5.910   6.673 -0.1266 -0.2384  0.3889
 3776TIP3   OH232962   4.559   2.283   2.011 -0.4001  0.0443 -0.5309
 3776TIP3    H132963   4.592   2.295   2.100  0.7540 -1.5468 -0.7171
 3776TIP3    H232964   4.464   2.279   2.021 -0.2661 -0.3917  0.6598
 3777TIP3   OH232965   2.188   6.593   6.200 -0.3759  0.1084  0.5448
 3777TIP3    H132966   2.266   6.546   6.171 -1.2380 -0.8609 -0.2895
 3777TIP3    H232967   2.179   6.665   6.138 -0.7145 -0.3879  0.0100
 3778TIP3   OH232968   5.324   4.780   0.587 -0.7909  0.0532  0.1101
 3778TIP3    H132969   5.345   4.742   0.502  0.2242  0.1945  0.2898
 3778TIP3    H232970   5.248   4.836   0.570  0.2011  1.1210 -0.9882
 3779TIP3   OH232971   1.253   2.831   8.064 -0.2059 -0.1332  0.0568
 3779TIP3    H132972   1.301   2.913   8.080 -0.7172  0.4204 -1.1500
 3779TIP3    H232973   1.317   2.762   8.082  0.2499  0.5190  1.0452
 3780TIP3   OH232974   6.852   6.272   1.081 -0.1290 -0.0215 -0.5680
 3780TIP3    H132975   6.857   6.350   1.026  3.1773  0.0787 -0.3354
 3780TIP3    H232976   6.904   6.206   1.034 -0.1579 -1.0474  0.7706
 3781TIP3   OH232977   1.026   2.818   1.509  0.2787 -0.5533 -0.0445
 3781TIP3    H132978   1.004   2.861   1.426 -0.2598 -0.2256  0.2572
 3781TIP3    H232979   1.047   2.890   1.568 -0.9199 -0.6556  0.5525
 3782TIP3   OH232980   1.779   0.835   1.747 -0.0652 -0.3530 -0.5009
 3782TIP3    H132981   1.776   0.927   1.772  0.4967 -0.3529 -0.4088
 3782TIP3    H232982   1.747   0.788   1.824 -0.2689 -0.2371 -0.5162
 3783TIP3   OH232983   4.301   2.496   6.957  0.2248 -0.3314 -0.3270
 3783TIP3    H132984   4.341   2.510   6.871  0.0893 -2.0123 -0.6936
 3783TIP3    H232985   4.291   2.584   6.993  3.2111  0.2404 -0.6669
 3784TIP3   OH232986   0.106   3.027   0.333  0.1450  0.2075 -0.5733
 3784TIP3    H132987   0.015   3.057   0.341  0.0023 -0.2786 -0.3611
 3784TIP3    H232988   0.119   2.970   0.409  0.6568  0.3494 -0.5513
 3785TIP3   OH232989   0.968   1.881   7.979  0.5788  0.1382  0.0031
 3785TIP3    H132990   0.873   1.888   7.971  0.6251  0.9383  0.1110
 3785TIP3    H232991   0.998   1.852   7.893  0.1111 -1.5652  0.3825
 3786TIP3   OH232992   3.452   4.717   0.558  0.5028  0.0810  0.0301
 3786TIP3    H132993   3.544   4.713   0.529  0.6463  0.4615  0.4304
 3786TIP3    H232994   3.439   4.634   0.604  0.9068  0.3967  0.7280
 3787TIP3   OH232995   3.427   5.137   0.516  0.2990 -0.2444  0.2360
 3787TIP3    H132996   3.475   5.205   0.470  0.3303 -0.2237  0.2984
 3787TIP3    H232997   3.475   5.126   0.599  1.9685 -2.2722 -0.8876
 3788TIP3   OH232998   2.479   1.896   6.829 -0.1539 -0.6499 -0.4252
 3788TIP3    H132999   2.405   1.898   6.890 -0.3195 -1.6083 -0.5773
 3788TIP3    H233000   2.468   1.813   6.781  1.1788 -0.9393 -0.2572
 3789TIP3   OH233001   1.940   4.602   2.354 -0.1080  0.0989  0.1793
 3789TIP3    H133002   1.845   4.602   2.360 -0.1349  2.1270  0.6630
 3789TIP3    H233003   1.970   4.577   2.442 -0.2224  0.7576  0.4110
 3790TIP3   OH233004   2.304   0.246   1.333  0.0423  0.4525  0.2441
 3790TIP3    H133005   2.219   0.244   1.378 -0.6171 -1.0872 -0.9392
 3790TIP3    H233006   2.349   0.167   1.364 -0.1514 -0.2703 -1.2119
 3791TIP3   OH233007   6.356   2.188   0.074 -0.2637 -0.6399  0.0844
 3791TIP3    H133008   6.353   2.215  -0.018 -2.1842  0.5923  0.4588
 3791TIP3    H233009   6.335   2.095   0.072 -0.1511 -0.6551 -0.7197
 3792TIP3   OH233010   1.527   0.457   0.976 -0.5514  0.2372 -0.5301
 3792TIP3    H133011   1.586   0.410   0.917  0.8193  1.5387 -0.2627
 3792TIP3    H233012   1.478   0.516   0.919 -0.5993  0.1497 -0.5806
 3793TIP3   OH233013   5.994   1.274   7.544  0.0019 -0.4371  0.3136
 3793TIP3    H133014   5.964   1.235   7.626  1.5361 -1.0590  0.6148
 3793TIP3    H233015   5.917   1.274   7.488 -0.7280 -1.3183  1.2712
 3794TIP3   OH233016   1.370   6.680   1.809  0.3270  0.1285 -0.5593
 3794TIP3    H133017   1.404   6.710   1.893 -0.7208  0.4182 -0.2268
 3794TIP3    H233018   1.291   6.630   1.831  0.5438 -0.5647 -1.3028
 3795TIP3   OH233019   4.853   1.679   1.546  0.0303 -0.1685 -0.4744
 3795TIP3    H133020   4.774   1.651   1.499  0.2859 -0.4057 -0.7666
 3795TIP3    H233021   4.926   1.650   1.490  0.3037  1.3242 -0.9537
 3796TIP3   OH233022   2.824   1.912   8.214 -0.1644  0.1408 -0.0664
 3796TIP3    H133023   2.764   1.922   8.140 -0.4929 -0.3468  0.1364
 3796TIP3    H233024   2.900   1.867   8.177  0.7144  1.9883 -0.6576
 3797TIP3   OH233025   4.431   4.097   0.371 -0.3568 -0.1814  0.5657
 3797TIP3    H133026   4.362   4.058   0.426  0.7366 -3.3661 -0.1032
 3797TIP3    H233027   4.383   4.147   0.305 -2.0843 -2.0951  0.2520
 3798TIP3   OH233028   0.423   2.848   7.601 -0.0393  0.0048 -0.1547
 3798TIP3    H133029   0.341   2.832   7.646  0.0709 -0.9102 -0.2614
 3798TIP3    H233030   0.468   2.763   7.601  1.4510  0.7386  0.9827
 3799TIP3   OH233031   0.512   5.456   0.555  1.1422  0.8711  0.1006
 3799TIP3    H133032   0.448   5.422   0.618  1.3046 -0.4609 -0.4184
 3799TIP3    H233033   0.586   5.483   0.608 -0.0803  3.1462  0.7945
 3800TIP3   OH233034   3.240   5.330   1.054  0.5313 -0.0767  0.2199
 3800TIP3    H133035   3.293   5.254   1.030  0.6605  0.1836 -0.3306
 3800TIP3    H233036   3.154   5.311   1.019  0.0111 -0.8698  1.8127
 3801TIP3   OH233037   1.919   4.040   8.346 -0.5297  0.3784  0.2425
 3801TIP3    H133038   1.887   4.058   8.258 -1.3792  0.3065  0.5275
 3801TIP3    H233039   1.935   4.127   8.384  1.3651  0.4027 -0.5017
 3802TIP3   OH233040   3.740   4.546   7.244  0.2913 -0.1136 -0.3705
 3802TIP3    H133041   3.652   4.582   7.259  0.2710 -0.0775 -0.5755
 3802TIP3    H233042   3.725   4.468   7.190  0.4582  0.3624 -1.1062
 3803TIP3   OH233043   1.857   0.850   6.894 -0.1447 -0.2540  0.0204
 3803TIP3    H133044   1.797   0.835   6.821  0.5332 -0.3384 -0.5386
 3803TIP3    H233045   1.834   0.784   6.959 -0.4909 -0.4468 -0.2943
 3804TIP3   OH233046   3.042   1.626   7.570 -0.2253  0.0757 -0.2874
 3804TIP3    H133047   2.996   1.637   7.654  2.0677 -1.5464  1.3100
 3804TIP3    H233048   2.975   1.642   7.504 -2.1284  1.5228  1.8300
 3805TIP3   OH233049   4.117   1.765   1.725 -0.1833 -0.4277 -0.2044
 3805TIP3    H133050   4.161   1.749   1.809 -2.3781 -1.0907  0.8899
 3805TIP3    H233051   4.186   1.801   1.669  1.2239  0.7061  2.0720
 3806TIP3   OH233052   3.875   6.974   7.205  0.1260  0.1698 -0.4567
 3806TIP3    H133053   3.810   6.906   7.189  1.5394 -1.7433  1.3210
 3806TIP3    H233054   3.901   7.004   7.118 -2.1614  0.0988 -1.2260
 3807TIP3   OH233055   2.936   4.812   2.407  0.1721  0.0124  0.0151
 3807TIP3    H133056   2.965   4.899   2.433 -1.3917  0.4012  0.5309
 3807TIP3    H233057   2.869   4.788   2.470 -0.6751 -0.8250 -1.1463
 3808TIP3   OH233058   1.471   0.133   0.522 -0.2382  0.3549 -0.2963
 3808TIP3    H133059   1.458   0.204   0.584  0.8529  0.6716 -0.4149
 3808TIP3    H233060   1.416   0.062   0.555 -2.8615  1.8166 -1.2095
 3809TIP3   OH233061   2.852   2.845   0.832 -0.3450  0.7069 -0.4502
 3809TIP3    H133062   2.915   2.902   0.789 -0.5932  0.5400 -1.0391
 3809TIP3    H233063   2.904   2.795   0.895  0.0040  0.9991 -0.5017
 3810TIP3   OH233064   4.695   5.263   1.090 -0.5195  0.4367  0.5654
 3810TIP3    H133065   4.705   5.350   1.051 -1.4443  0.8609  1.2430
 3810TIP3    H233066   4.720   5.274   1.181 -1.1077  0.1102  0.7757
 3811TIP3   OH233067   6.185   0.061   0.475  0.0087  0.2492  0.1698
 3811TIP3    H133068   6.211  -0.030   0.469  1.9141  0.6931  1.0621
 3811TIP3    H233069   6.150   0.082   0.389 -0.8308 -1.4065  0.0683
 3812TIP3   OH233070   6.215   2.939   2.367  0.3047  0.8520 -0.1287
 3812TIP3    H133071   6.161   2.929   2.446  0.0149 -1.7569 -0.5375
 3812TIP3    H233072   6.152   2.957   2.297  0.0672 -0.6448 -0.3432
 3813TIP3   OH233073   5.603   2.464   1.645 -0.3952  0.1337  0.6156
 3813TIP3    H133074   5.564   2.508   1.720  0.2988  3.2754 -0.7101
 3813TIP3    H233075   5.654   2.393   1.683  0.0918  1.7123  3.1635
 3814TIP3   OH233076   3.367   2.601   8.011  0.3619  0.2360 -0.4640
 3814TIP3    H133077   3.282   2.644   8.001  0.2820 -0.0248 -0.9524
 3814TIP3    H233078   3.349   2.525   8.066  0.8725  1.8931  2.1511
 3815TIP3   OH233079   1.814   0.540   6.618  0.2598  0.4544  0.2084
 3815TIP3    H133080   1.844   0.454   6.587  2.5553  1.2932 -0.0865
 3815TIP3    H233081   1.840   0.543   6.710 -0.6008  0.5072  0.4543
 3816TIP3   OH233082   4.290   5.804   8.235  0.0093  0.1240  0.1428
 3816TIP3    H133083   4.197   5.822   8.227  0.4545  1.8356 -1.8991
 3816TIP3    H233084   4.304   5.724   8.184 -0.0330  1.0750 -1.4055
 3817TIP3   OH233085   1.437   5.184   0.015  0.1703 -1.2288 -0.2239
 3817TIP3    H133086   1.347   5.216   0.010 -0.5016 -3.0897 -0.9126
 3817TIP3    H233087   1.481   5.244   0.074 -1.2777  0.2829 -0.6213
 3818TIP3   OH233088   0.688   4.163   1.416  0.1422  0.3359  0.2796
 3818TIP3    H133089   0.722   4.194   1.332  0.1569 -0.0203  0.1527
 3818TIP3    H233090   0.736   4.213   1.482  3.2807 -2.3274  0.2612
 3819TIP3   OH233091   6.519   1.458   2.736 -0.0393 -0.1842  0.0967
 3819TIP3    H133092   6.590   1.426   2.680 -1.3319  0.2766 -1.8821
 3819TIP3    H233093   6.459   1.385   2.743 -0.5188  0.1756 -0.2112
 3820TIP3   OH233094   3.207   4.513   1.503  0.2031  0.4877 -0.2429
 3820TIP3    H133095   3.231   4.527   1.411 -0.0019 -1.8656 -0.7169
 3820TIP3    H233096   3.278   4.461   1.539  1.4483  3.2982  1.6652
 3821TIP3   OH233097   6.071   0.511   1.625  0.2032  0.6281  0.0432
 3821TIP3    H133098   6.060   0.604   1.643 -2.5930  0.2914  0.5692
 3821TIP3    H233099   6.166   0.498   1.623  0.6804  3.2065  1.3030
 3822TIP3   OH233100   0.335   6.072   1.875 -0.2652 -0.8150 -0.0136
 3822TIP3    H133101   0.403   6.010   1.903 -0.3737 -2.0536 -2.2757
 3822TIP3    H233102   0.305   6.038   1.791 -2.5570  0.6236  0.1494
 3823TIP3   OH233103   4.026   1.967   1.063  0.2100  0.5539 -0.1511
 3823TIP3    H133104   4.103   1.910   1.059  0.7195  1.1292  0.9371
 3823TIP3    H233105   3.952   1.907   1.054  0.7655 -0.0747 -0.7044
 3824TIP3   OH233106   2.946   6.262   8.067 -0.5387  0.8937  0.2752
 3824TIP3    H133107   2.850   6.255   8.072 -0.4412 -1.5941 -0.2746
 3824TIP3    H233108   2.975   6.261   8.158 -0.9324 -0.9954  0.4110
 3825TIP3   OH233109   0.041   5.421   2.231  0.9411 -0.6488  0.4549
 3825TIP3    H133110  -0.024   5.380   2.173 -1.2274  1.8816  0.9224
 3825TIP3    H233111   0.122   5.421   2.180 -0.4543 -0.0549 -1.9280
 3826TIP3   OH233112   3.917   5.730   0.359  0.1503 -0.3132 -0.0861
 3826TIP3    H133113   3.937   5.643   0.325  2.1067  0.0761 -0.0483
 3826TIP3    H233114   3.909   5.785   0.281 -0.7486 -0.4335 -0.0944
 3827TIP3   OH233115   2.128   0.332   1.895 -0.0446  0.4083 -0.2053
 3827TIP3    H133116   2.038   0.328   1.862 -0.1297  0.1855  0.0447
 3827TIP3    H233117   2.149   0.242   1.919 -0.0306  0.5793  0.4561
 3828TIP3   OH233118   5.117   2.562   6.887  0.1755 -0.5221 -0.5388
 3828TIP3    H133119   5.037   2.583   6.935 -0.4570 -0.1362 -1.7034
 3828TIP3    H233120   5.108   2.469   6.866  0.2850 -0.6075 -0.1971
 3829TIP3   OH233121   1.560   5.000   6.376  0.0113  0.2450  0.3871
 3829TIP3    H133122   1.643   4.957   6.360 -0.0915 -0.1749  0.9556
 3829TIP3    H233123   1.580   5.094   6.372  0.5343  0.1430  0.6731
 3830TIP3   OH233124   4.451   0.251   0.353 -0.6251 -0.3860 -0.0555
 3830TIP3    H133125   4.422   0.337   0.381  0.7621 -0.3824  1.4823
 3830TIP3    H233126   4.371   0.197   0.353 -1.0925  0.2634  1.4824
 3831TIP3   OH233127   2.641   2.308   7.770 -0.2779 -1.0163  0.0998
 3831TIP3    H133128   2.559   2.309   7.722 -1.4242 -1.3649  1.9311
 3831TIP3    H233129   2.702   2.259   7.715 -1.6083 -1.6829 -0.8073
 3832TIP3   OH233130   6.708   6.893   0.515  0.1267 -0.0341 -0.0802
 3832TIP3    H133131   6.725   6.939   0.433  0.1809  0.7378  0.3524
 3832TIP3    H233132   6.716   6.960   0.582  0.0265 -0.6438  0.5571
 3833TIP3   OH233133   6.218   1.641   1.383  0.0954  0.0527  0.2117
 3833TIP3    H133134   6.284   1.646   1.315 -2.1179 -0.7086 -2.1641
 3833TIP3    H233135   6.161   1.716   1.368  0.8420  1.2731  2.8296
 3834TIP3   OH233136   2.164   1.590   8.401 -0.6428  0.2196 -0.6097
 3834TIP3    H133137   2.194   1.666   8.350  0.7620  1.5399  1.9466
 3834TIP3    H233138   2.076   1.614   8.430  0.3330  1.6929  1.4199
 3835TIP3   OH233139   2.863   2.685   0.528 -0.1146  0.6794  0.2751
 3835TIP3    H133140   2.823   2.601   0.552 -1.3100  1.4634  1.1386
 3835TIP3    H233141   2.943   2.689   0.580  0.0781 -0.0305  0.0466
 3836TIP3   OH233142   3.199   6.024   1.438 -0.0985  0.1187 -0.3593
 3836TIP3    H133143   3.172   5.962   1.507  1.7368  1.4184  1.6553
 3836TIP3    H233144   3.236   5.968   1.370  0.9703 -1.1055  1.1406
 3837TIP3   OH233145   3.999   4.896   0.068 -0.6480 -0.2978  0.1418
 3837TIP3    H133146   4.020   4.977   0.115 -0.2063 -0.4790  0.2633
 3837TIP3    H233147   3.904   4.890   0.073 -0.7542  0.5787 -0.4786
 3838TIP3   OH233148   0.528   4.870   2.222 -0.2908 -0.5609 -0.1882
 3838TIP3    H133149   0.523   4.814   2.145  2.3424 -3.4279  1.4545
 3838TIP3    H233150   0.499   4.814   2.294  0.5253  0.8456  1.3170
 3839TIP3   OH233151   4.692   6.558   0.137  0.0625  0.0805  0.0736
 3839TIP3    H133152   4.773   6.579   0.092 -1.0688  3.4139 -0.6626
 3839TIP3    H233153   4.720   6.522   0.221  2.2929  1.0011 -0.2170
 3840TIP3   OH233154   1.524   5.757   7.134  0.7519  0.1736 -0.0448
 3840TIP3    H133155   1.593   5.791   7.076 -1.0599  1.7915 -1.4080
 3840TIP3    H233156   1.448   5.811   7.114 -1.4549 -2.6633  0.0960
 3841TIP3   OH233157   5.742   0.654   7.942 -0.7809  0.0984 -0.4095
 3841TIP3    H133158   5.684   0.619   8.010 -1.7364  0.5211 -0.9919
 3841TIP3    H233159   5.824   0.606   7.954 -1.4182 -0.8919  0.0899
 3842TIP3   OH233160   4.837   6.141   7.249  0.4112 -0.8700 -0.4390
 3842TIP3    H133161   4.773   6.092   7.198  1.2456 -0.5265 -1.9134
 3842TIP3    H233162   4.822   6.233   7.224  1.2058 -0.7502 -0.5091
 3843TIP3   OH233163   5.845   2.471   0.345  0.0172 -0.0182 -0.1120
 3843TIP3    H133164   5.872   2.530   0.275  0.2754 -0.7668 -0.6497
 3843TIP3    H233165   5.853   2.524   0.425  1.1926  0.3909 -0.4721
 3844TIP3   OH233166   0.609   1.119   1.752 -0.2171 -0.3239  0.3177
 3844TIP3    H133167   0.689   1.170   1.753 -1.6283  2.3614 -3.0199
 3844TIP3    H233168   0.574   1.126   1.841  0.5548  3.2107  0.4785
 3845TIP3   OH233169   3.877   3.505   1.912  0.1782 -0.3099  0.7820
 3845TIP3    H133170   3.886   3.599   1.896  1.3925 -0.5552 -0.1048
 3845TIP3    H233171   3.959   3.467   1.881  0.5704 -1.4456  2.9667
 3846TIP3   OH233172   6.308   3.954   1.800 -0.1278 -0.3651  0.7617
 3846TIP3    H133173   6.273   3.913   1.721  1.2986  0.4587 -0.3513
 3846TIP3    H233174   6.402   3.934   1.798 -0.3570 -2.1658  3.4239
 3847TIP3   OH233175   0.449   1.421   1.841  0.6426 -0.1650  0.5501
 3847TIP3    H133176   0.453   1.362   1.916 -1.7524  0.3264  1.1767
 3847TIP3    H233177   0.403   1.370   1.773  0.3543  0.2858  0.4005
 3848TIP3   OH233178   5.581   4.075   6.684 -0.3017  0.6012 -0.4034
 3848TIP3    H133179   5.608   3.987   6.657 -1.4169 -0.4775  1.8016
 3848TIP3    H233180   5.490   4.066   6.710  0.3433  1.6808  2.6671
 3849TIP3   OH233181   2.424   6.750   1.518  0.0495 -0.9568  0.2900
 3849TIP3    H133182   2.474   6.669   1.511 -0.5924 -1.3535  0.3019
 3849TIP3    H233183   2.352   6.729   1.576 -0.0698 -0.3486  0.3660
 3850TIP3   OH233184   4.798   2.469   0.522 -0.3677 -0.3321  0.1064
 3850TIP3    H133185   4.729   2.489   0.459  0.5588 -1.2346 -1.2606
 3850TIP3    H233186   4.875   2.449   0.468 -0.0700 -3.1880  1.3967
 3851TIP3   OH233187   2.883   3.567   0.899 -0.2107  0.0873  0.1939
 3851TIP3    H133188   2.885   3.601   0.988 -0.3075 -1.0402  0.6429
 3851TIP3    H233189   2.856   3.642   0.845  2.2300  1.4994  0.7490
 3852TIP3   OH233190   2.026   4.002   1.921  0.0368 -0.0136  0.0895
 3852TIP3    H133191   1.993   4.058   1.992  1.8896  1.4605 -0.1484
 3852TIP3    H233192   2.054   3.922   1.965 -5.3657 -2.2915  0.1331
 3853TIP3   OH233193   5.233   3.307   1.843  0.4804  0.5469  0.5734
 3853TIP3    H133194   5.201   3.342   1.926 -0.2183  2.5156 -0.4446
 3853TIP3    H233195   5.250   3.384   1.789  0.5908 -0.6563 -1.2329
 3854TIP3   OH233196   0.914   4.716   7.082 -0.0142 -0.2228  0.3601
 3854TIP3    H133197   0.975   4.688   7.150 -0.4220  0.7827  1.1755
 3854TIP3    H233198   0.889   4.805   7.108 -1.3880 -0.4014 -0.2545
 3855TIP3   OH233199   3.515   6.754   7.525  0.0625  0.3099 -0.4529
 3855TIP3    H133200   3.473   6.782   7.444  1.7578  0.0591 -1.4771
 3855TIP3    H233201   3.599   6.799   7.525  0.3032 -0.0979  0.9294
 3856TIP3   OH233202   5.573   4.963   7.542 -0.6645 -0.1423  0.1387
 3856TIP3    H133203   5.635   4.910   7.592 -1.1942 -1.5767 -0.6814
 3856TIP3    H233204   5.511   4.995   7.607 -0.4296 -0.6648  0.6270
 3857TIP3   OH233205   3.271   0.862   6.304 -0.2688 -0.6133  0.8773
 3857TIP3    H133206   3.286   0.922   6.377 -1.0638  1.0035 -0.2241
 3857TIP3    H233207   3.357   0.824   6.286  0.4730  0.9044  1.0431
 3858TIP3   OH233208   4.713   2.852   0.607 -0.0181  0.0773  0.2752
 3858TIP3    H133209   4.770   2.800   0.551 -1.0909 -0.0921 -0.7019
 3858TIP3    H233210   4.664   2.788   0.658  0.1163  0.1992  0.5611
 3859TIP3   OH233211   4.949   1.625   7.444  0.4627  0.3747  0.7456
 3859TIP3    H133212   4.867   1.613   7.491 -0.8982  1.3129 -1.2195
 3859TIP3    H233213   5.017   1.602   7.507 -1.2875 -0.2618  2.5019
 3860TIP3   OH233214   0.183   4.659   0.848  0.1047 -0.3657  0.4541
 3860TIP3    H133215   0.234   4.734   0.816  0.2588  0.1915  1.9287
 3860TIP3    H233216   0.100   4.698   0.878 -0.3055 -0.9670  0.1222
 3861TIP3   OH233217   0.624   4.288   0.634  0.1840 -0.3236 -0.0131
 3861TIP3    H133218   0.536   4.314   0.608  0.0130  3.6553  3.4252
 3861TIP3    H233219   0.623   4.294   0.730  4.5746  1.7686  0.1208
 3862TIP3   OH233220   0.347   4.546   7.675 -0.1293 -0.3334 -0.4843
 3862TIP3    H133221   0.277   4.504   7.724 -1.8450  0.1371 -2.3689
 3862TIP3    H233222   0.334   4.640   7.690  1.1335 -0.2858  0.4376
 3863TIP3   OH233223   1.047   4.308   1.002 -0.6606  0.6152  1.0012
 3863TIP3    H133224   1.140   4.309   1.026 -0.9403  1.2970  2.1358
 3863TIP3    H233225   1.043   4.251   0.925  0.6906  0.5583  0.9448
 3864TIP3   OH233226   4.847   1.910   7.398  0.0782  0.1479  0.2304
 3864TIP3    H133227   4.870   1.905   7.490 -1.9165  2.5511  0.9654
 3864TIP3    H233228   4.910   1.854   7.354  0.9585 -1.2231  3.0568
 3865TIP3   OH233229   0.414   0.004   1.963 -0.6657  0.1822  0.1141
 3865TIP3    H133230   0.494   0.022   2.013 -1.2739 -0.3334  1.2963
 3865TIP3    H233231   0.437   0.026   1.873 -0.0345  2.7437  0.8159
 3866TIP3   OH233232   5.589   6.221   0.061  0.7687  0.3587  0.0304
 3866TIP3    H133233   5.662   6.205   0.121  0.9134 -0.6280 -0.3832
 3866TIP3    H233234   5.622   6.285  -0.001  1.2881 -0.0729 -0.1470
 3867TIP3   OH233235   2.147   4.172   7.017  0.1379  0.2215 -0.3644
 3867TIP3    H133236   2.242   4.166   7.008 -0.0817 -0.4405 -3.0764
 3867TIP3    H233237   2.118   4.081   7.023 -0.3969  0.3581 -0.7839
 3868TIP3   OH233238   6.966   3.134   7.595  0.9450  0.0856 -0.4814
 3868TIP3    H133239   6.965   3.154   7.688  1.2834  0.5685 -0.5765
 3868TIP3    H233240   6.911   3.202   7.555  1.5651  0.4504 -0.7333
 3869TIP3   OH233241   5.030   2.119   8.433  0.0379 -0.0691  0.3653
 3869TIP3    H133242   5.001   2.080   8.350  1.3502 -1.1017  0.3604
 3869TIP3    H233243   4.953   2.116   8.489 -0.4887 -0.6395 -0.3652
 3870TIP3   OH233244   2.292   2.258   2.235 -0.6245  0.3398  0.5239
 3870TIP3    H133245   2.372   2.247   2.287 -1.0022 -0.3140  0.9871
 3870TIP3    H233246   2.287   2.178   2.182 -0.2548  0.9904 -0.5145
 3871TIP3   OH233247   0.091   2.404   0.877  0.1569  0.8404  0.9889
 3871TIP3    H133248   0.042   2.456   0.940  1.2280  2.6086  0.4267
 3871TIP3    H233249   0.132   2.468   0.819 -1.1864 -0.7120 -1.8738
 3872TIP3   OH233250   5.059   1.675   8.322 -0.6256 -0.5081 -0.3530
 3872TIP3    H133251   4.991   1.726   8.278 -2.1512 -0.1388  2.2337
 3872TIP3    H233252   5.012   1.623   8.387  1.3765 -1.8640  0.1118
 3873TIP3   OH233253   3.291   6.983   8.131  0.0926 -0.0848  0.0805
 3873TIP3    H133254   3.354   7.008   8.063 -0.3848  3.4929  0.7292
 3873TIP3    H233255   3.206   6.984   8.087  0.2064 -3.3242 -0.4208
 3874TIP3   OH233256   3.389   1.692   0.949 -0.0036  0.2595  0.5718
 3874TIP3    H133257   3.296   1.683   0.925  0.1038  0.1481  0.2001
 3874TIP3    H233258   3.437   1.651   0.877  0.3696  1.0749  0.3420
 3875TIP3   OH233259   0.686   3.494   0.277  0.0549  0.3335  0.0977
 3875TIP3    H133260   0.612   3.508   0.335  0.4459 -1.3238  1.0723
 3875TIP3    H233261   0.751   3.559   0.305 -0.2765  0.4584  0.5928
 3876TIP3   OH233262   1.779   4.623   1.302 -0.0440  0.0146 -0.8728
 3876TIP3    H133263   1.790   4.655   1.213  0.2715  0.0888 -0.8076
 3876TIP3    H233264   1.864   4.637   1.343  0.8842 -3.1289 -1.5172
 3877TIP3   OH233265   3.915   5.125   8.328 -0.5659  0.6019  0.6596
 3877TIP3    H133266   3.977   5.142   8.257 -0.3732 -0.5908  0.5108
 3877TIP3    H233267   3.848   5.070   8.288 -2.2812  2.6453  0.5755
 3878TIP3   OH233268   4.050   1.957   0.142 -0.5225  0.2949 -0.6751
 3878TIP3    H133269   4.015   2.046   0.146  0.0934  0.4974  0.8633
 3878TIP3    H233270   4.039   1.922   0.230 -1.8993 -1.6431 -1.5356
 3879TIP3   OH233271   2.925   1.695   8.071  0.1058 -0.3652 -0.0667
 3879TIP3    H133272   2.992   1.662   8.011 -0.9199 -0.9810 -0.9225
 3879TIP3    H233273   2.843   1.655   8.039 -0.8539  1.2959  0.2017
 3880TIP3   OH233274   6.747   6.323   1.514  0.0421  0.2570 -0.4887
 3880TIP3    H133275   6.673   6.328   1.454 -2.0397 -2.7058  1.5376
 3880TIP3    H233276   6.825   6.325   1.458 -1.5287  2.3781 -2.7827
 3881TIP3   OH233277   5.321   1.058   0.326  0.5887  0.4010 -0.4320
 3881TIP3    H133278   5.339   1.055   0.232 -2.2907  1.8381 -1.1122
 3881TIP3    H233279   5.310   0.966   0.351 -0.3465  0.0985 -1.8888
 3882TIP3   OH233280   4.671   2.074   7.989 -0.9217  0.8665 -0.6541
 3882TIP3    H133281   4.592   2.019   7.984 -0.2181 -0.1818 -0.6472
 3882TIP3    H233282   4.670   2.126   7.909 -1.2943  0.3860 -0.9673
 3883TIP3   OH233283   3.863   4.813   0.433  0.2744 -0.1058 -0.4394
 3883TIP3    H133284   3.878   4.853   0.519 -0.8588  0.1019 -0.3223
 3883TIP3    H233285   3.805   4.874   0.388 -0.3785 -0.9564 -0.7718
 3884TIP3   OH233286   3.894   6.481   0.585 -0.0828 -0.1430 -0.4875
 3884TIP3    H133287   3.964   6.470   0.521 -1.3499 -1.2120 -1.7248
 3884TIP3    H233288   3.850   6.396   0.588 -1.9078  0.7630 -0.4401
 3885TIP3   OH233289   0.207   2.476   7.158  0.1413 -0.0985 -0.3059
 3885TIP3    H133290   0.201   2.567   7.187  1.1067 -0.5891  1.5898
 3885TIP3    H233291   0.295   2.468   7.122 -0.0560 -0.2238 -0.7767
 3886TIP3   OH233292   0.704   4.230   5.681 -0.5197 -0.2831 -0.3745
 3886TIP3    H133293   0.781   4.212   5.627 -0.2103 -1.3373  0.4067
 3886TIP3    H233294   0.642   4.271   5.620  0.1165 -0.7278 -1.3401
 3887TIP3   OH233295   5.788   2.106   1.575  0.7094 -0.1021 -0.3219
 3887TIP3    H133296   5.811   2.078   1.487  1.5223 -1.2055  0.2170
 3887TIP3    H233297   5.806   2.030   1.630 -0.8668  0.1922  0.6474
 3888TIP3   OH233298   0.998   3.023   0.974  0.1155  0.1156 -0.4171
 3888TIP3    H133299   0.916   3.017   1.023  0.4409 -2.4868 -0.0260
 3888TIP3    H233300   1.039   2.937   0.986  3.2278  1.5007 -0.0665
 3889TIP3   OH233301   3.699   6.883   0.159  0.0830 -0.3702 -0.0168
 3889TIP3    H133302   3.646   6.957   0.128  0.8369  0.6278  1.0090
 3889TIP3    H233303   3.635   6.825   0.202 -0.8701 -1.4529 -2.6934
 3890TIP3   OH233304   4.355   2.757   0.507 -0.7260 -0.1006 -0.3307
 3890TIP3    H133305   4.402   2.841   0.504 -0.2033 -0.3454  0.7725
 3890TIP3    H233306   4.271   2.776   0.464 -1.9268  1.8541  2.5267
 3891TIP3   OH233307   0.786   6.719   0.871  0.2294 -0.6096  0.1535
 3891TIP3    H133308   0.822   6.663   0.940 -2.8178  0.0529  2.4778
 3891TIP3    H233309   0.700   6.745   0.903  0.1790  2.8619 -2.2442
 3892TIP3   OH233310   1.668   1.877   8.462 -0.0828  0.6191 -0.2225
 3892TIP3    H133311   1.723   1.812   8.506 -0.5769  0.2083 -0.2049
 3892TIP3    H233312   1.625   1.828   8.392 -1.8768  0.4586  0.9223
 3893TIP3   OH233313   0.922   5.080   1.151 -0.0332 -0.5031  0.5340
 3893TIP3    H133314   1.009   5.077   1.191 -0.4684 -1.4557  1.4313
 3893TIP3    H233315   0.892   5.169   1.168 -0.1487 -0.8362  2.2513
 3894TIP3   OH233316   3.549   2.643   7.475  0.4393  0.8273 -0.4574
 3894TIP3    H133317   3.608   2.658   7.549 -0.9053 -1.5093  1.2456
 3894TIP3    H233318   3.549   2.725   7.426  0.4338  2.9663  2.8546
 3895TIP3   OH233319   5.065   0.858   6.924  0.1040 -0.1363 -0.1530
 3895TIP3    H133320   5.109   0.921   6.981  0.4149  0.3010 -0.8708
 3895TIP3    H233321   5.125   0.845   6.851 -0.3221 -0.6438 -0.4233
 3896TIP3   OH233322   3.663   0.242   8.293  0.3675 -0.1632  0.0060
 3896TIP3    H133323   3.590   0.301   8.275  1.3431  1.4132  1.0167
 3896TIP3    H233324   3.741   0.294   8.276  1.2660 -1.0488  1.2802
 3897TIP3   OH233325   2.751   2.178   7.567 -0.0341 -0.1833 -0.1425
 3897TIP3    H133326   2.729   2.085   7.581 -2.6118  0.5030  0.9028
 3897TIP3    H233327   2.741   2.190   7.472 -0.6254 -0.7745 -0.1662
 3898TIP3   OH233328   5.291   2.797   7.201  0.2487  0.7139  0.6006
 3898TIP3    H133329   5.232   2.723   7.219  0.1690  0.3569 -1.0504
 3898TIP3    H233330   5.329   2.818   7.287 -2.8629  1.4825  1.9426
 3899TIP3   OH233331   1.632   5.097   7.984 -0.5702 -0.6414  0.2621
 3899TIP3    H133332   1.618   5.182   7.943 -1.4951 -0.8713  0.0716
 3899TIP3    H233333   1.590   5.104   8.070 -0.1331 -0.7098  0.4796
 3900TIP3   OH233334   5.559   3.308   2.639 -0.1476  0.2745 -0.3345
 3900TIP3    H133335   5.540   3.217   2.662 -1.1961  0.6054  0.1415
 3900TIP3    H233336   5.485   3.358   2.673 -0.1052  1.1909 -1.5119
 3901TIP3   OH233337   4.729   6.660   7.023 -1.1710  0.3356  0.3666
 3901TIP3    H133338   4.726   6.571   7.059 -3.0342  0.4376  0.5163
 3901TIP3    H233339   4.649   6.668   6.972 -0.9373  1.8809  0.2025
 3902TIP3   OH233340   3.299   4.389   7.816  0.5197 -0.0786 -0.3485
 3902TIP3    H133341   3.378   4.421   7.860  1.0986 -0.2626 -1.2339
 3902TIP3    H233342   3.227   4.421   7.871  1.1762  0.6440  0.1228
 3903TIP3   OH233343   6.139   0.876   0.275  0.2604 -0.9877  0.1933
 3903TIP3    H133344   6.046   0.857   0.290  0.3927 -2.8482 -1.0388
 3903TIP3    H233345   6.140   0.922   0.191  0.4869 -1.2835  0.0339
 3904TIP3   OH233346   4.059   1.302   8.330  0.1412  0.0565 -0.1257
 3904TIP3    H133347   4.003   1.374   8.302 -1.0127 -0.6328  0.3288
 3904TIP3    H233348   4.057   1.306   8.426  2.2468  1.0358 -0.0648
 3905TIP3   OH233349   3.094   2.561   1.474  0.6063 -0.3991 -0.3685
 3905TIP3    H133350   3.052   2.480   1.503  1.1943  0.0241  1.8689
 3905TIP3    H233351   3.180   2.533   1.442  0.6063 -0.7221 -0.0926
 3906TIP3   OH233352   6.283   3.714   1.661  0.0184  0.4773  0.0437
 3906TIP3    H133353   6.327   3.756   1.587 -0.5593  0.8236 -0.1045
 3906TIP3    H233354   6.351   3.660   1.701  0.9385  1.9484  0.5650
 3907TIP3   OH233355   4.223   5.484   2.557 -0.3545 -0.3831 -0.7667
 3907TIP3    H133356   4.208   5.396   2.521 -4.1951 -1.7672  3.3129
 3907TIP3    H233357   4.286   5.471   2.627 -0.2111  0.3286 -0.7588
 3908TIP3   OH233358   1.515   1.969   6.683  0.2746 -0.3369  0.1617
 3908TIP3    H133359   1.447   1.958   6.616  0.4249  1.7957 -0.4096
 3908TIP3    H233360   1.498   1.898   6.745 -0.1036 -2.1944 -1.9055
 3909TIP3   OH233361   0.430   3.219   7.133  0.6201 -0.9060 -0.1632
 3909TIP3    H133362   0.362   3.212   7.200 -0.3599  1.7335 -0.7776
 3909TIP3    H233363   0.510   3.193   7.179 -0.1275  0.0990  1.8764
 3910TIP3   OH233364   2.906   0.290   8.476 -0.1864 -0.6253  0.2179
 3910TIP3    H133365   2.828   0.249   8.515 -0.7566  0.1858 -0.0302
 3910TIP3    H233366   2.941   0.223   8.418 -0.6076 -1.0629  0.4553
 3911TIP3   OH233367   5.124   3.848   7.796 -0.5069 -0.0559  0.9194
 3911TIP3    H133368   5.152   3.817   7.709  1.0218  0.8165  1.0676
 3911TIP3    H233369   5.179   3.800   7.857 -1.5832 -0.6652  1.4419
 3912TIP3   OH233370   4.470   2.104   0.848 -0.3690 -0.1736  0.3107
 3912TIP3    H133371   4.490   2.198   0.855 -0.0829 -0.1683 -0.4835
 3912TIP3    H233372   4.430   2.082   0.932 -0.8676  0.7635  0.3297
 3913TIP3   OH233373   6.102   3.730   8.420 -0.2416  0.1281  0.5893
 3913TIP3    H133374   6.118   3.810   8.370  2.1888 -1.1561 -0.8711
 3913TIP3    H233375   6.186   3.684   8.419 -1.4733 -2.3160  1.6444
 3914TIP3   OH233376   4.844   0.104   0.613 -0.4427  0.4310 -0.3676
 3914TIP3    H133377   4.786   0.037   0.577 -2.1609  1.3438  0.5631
 3914TIP3    H233378   4.876   0.152   0.537  1.1833 -1.6491 -1.0999
 3915TIP3   OH233379   2.735   2.364   8.184 -0.2832 -0.1894  0.1032
 3915TIP3    H133380   2.698   2.359   8.272 -1.0987 -2.0061 -0.2859
 3915TIP3    H233381   2.824   2.330   8.193 -0.8462 -1.7740  0.0279
 3916TIP3   OH233382   5.685   4.039   2.404  0.6292 -0.3946  0.0400
 3916TIP3    H133383   5.676   4.028   2.309  1.6355 -0.9362 -0.0074
 3916TIP3    H233384   5.779   4.052   2.418  0.5977 -1.0738  1.0242
 3917TIP3   OH233385   4.158   3.925   1.196 -0.5840  0.7285 -0.0516
 3917TIP3    H133386   4.253   3.930   1.185 -0.4512  0.1965  0.7513
 3917TIP3    H233387   4.126   3.889   1.113  0.1583 -1.1959  0.4362
 3918TIP3   OH233388   6.504   5.675   1.188  0.1533  0.1357  0.5986
 3918TIP3    H133389   6.409   5.660   1.181 -0.3412  3.1487 -1.0127
 3918TIP3    H233390   6.526   5.652   1.278 -1.9124 -1.5405  0.7460
 3919TIP3   OH233391   1.052   5.929   0.938  0.5294 -0.0829  0.5175
 3919TIP3    H133392   1.033   6.023   0.938  1.6377  0.2209 -1.6894
 3919TIP3    H233393   1.066   5.907   1.030  2.9537  2.5285  0.9177
 3920TIP3   OH233394   2.843   3.512   0.279 -0.0560  0.6634 -0.7413
 3920TIP3    H133395   2.788   3.453   0.226 -0.3061 -0.6208  0.8810
 3920TIP3    H233396   2.783   3.581   0.307  0.4692  2.4060 -3.5328
 3921TIP3   OH233397   4.431   5.029   2.282  0.1765  0.2779  0.3541
 3921TIP3    H133398   4.427   5.091   2.210  0.0947 -0.5110 -0.3369
 3921TIP3    H233399   4.341   5.019   2.311  0.2143  0.6247  0.5948
 3922TIP3   OH233400   6.779   6.053   1.683  0.5366  1.3678  0.3299
 3922TIP3    H133401   6.747   6.071   1.595 -2.6027  0.5737  1.1821
 3922TIP3    H233402   6.803   5.960   1.682 -0.2745  1.1489  0.4883
 3923TIP3   OH233403   0.155   1.303   7.547  0.0142 -0.6393 -0.6893
 3923TIP3    H133404   0.157   1.266   7.635  0.8930 -0.3739 -0.5874
 3923TIP3    H233405   0.247   1.317   7.524 -0.2457  0.7892 -1.0009
 3924TIP3   OH233406   6.915   4.420   7.611  0.0628  0.2580  0.5917
 3924TIP3    H133407   6.847   4.357   7.587  2.2756 -1.5931 -1.3270
 3924TIP3    H233408   6.872   4.505   7.603 -1.5598 -0.6778 -2.7868
 3925TIP3   OH233409   4.227   4.701   7.570 -0.2106  0.0015 -0.1638
 3925TIP3    H133410   4.195   4.657   7.492 -0.2018  0.9549 -0.7226
 3925TIP3    H233411   4.253   4.630   7.629 -0.5530 -0.7327 -0.8757
 3926TIP3   OH233412   3.905   4.227   0.512  0.6113 -0.2296  0.1976
 3926TIP3    H133413   3.966   4.166   0.469  0.4784 -0.8718  0.8988
 3926TIP3    H233414   3.922   4.311   0.469  1.7752 -0.4589  0.1525
 3927TIP3   OH233415   6.562   1.531   7.153 -0.0499  0.6490 -0.4356
 3927TIP3    H133416   6.612   1.612   7.161 -0.0901  0.6361 -0.0398
 3927TIP3    H233417   6.475   1.553   7.186 -0.7917  1.0894 -2.4945
 3928TIP3   OH233418   2.082   1.907   7.184  0.2836 -0.1361 -0.0311
 3928TIP3    H133419   2.061   1.969   7.115 -2.5501 -1.8054 -0.7970
 3928TIP3    H233420   2.091   1.961   7.263 -0.9836  1.3582 -0.8651
 3929TIP3   OH233421   5.159   3.736   7.119  0.0078  0.0908 -0.4201
 3929TIP3    H133422   5.117   3.689   7.190 -1.7801  1.9205 -0.1892
 3929TIP3    H233423   5.089   3.753   7.056  1.3066 -0.4965 -2.1186
 3930TIP3   OH233424   4.998   5.960   0.075  0.5299  0.0664  0.0606
 3930TIP3    H133425   5.020   5.882   0.127  1.6249  0.1858 -0.1858
 3930TIP3    H233426   4.977   6.027   0.140 -0.2433 -0.3826  0.2784
 3931TIP3   OH233427   1.177   6.453   7.736 -0.1877 -0.0294  0.2464
 3931TIP3    H133428   1.233   6.530   7.729 -1.8179  1.1339 -1.0284
 3931TIP3    H233429   1.187   6.409   7.651 -1.0878  0.1399  0.0406
 3932TIP3   OH233430   1.925   2.374   1.290  0.3117 -0.0925  0.4120
 3932TIP3    H133431   1.926   2.348   1.198  1.3705 -0.9948  0.6621
 3932TIP3    H233432   1.885   2.462   1.289 -3.2400 -1.5293 -0.4780
 3933TIP3   OH233433   4.953   4.681   0.160 -0.3471  0.6147 -0.3202
 3933TIP3    H133434   5.029   4.737   0.176 -0.6572  0.5306  1.6104
 3933TIP3    H233435   4.895   4.734   0.107  0.9634  0.7403 -1.7071
 3934TIP3   OH233436   1.986   6.312   2.142 -0.6355 -0.5509 -0.5784
 3934TIP3    H133437   1.952   6.340   2.057 -1.4735  0.3156  0.0170
 3934TIP3    H233438   2.006   6.219   2.131  1.1075 -0.0377 -2.2789
 3935TIP3   OH233439   1.926   0.457   7.134  0.2269  0.2159  0.0789
 3935TIP3    H133440   1.878   0.376   7.148 -0.3362  0.1604 -1.8839
 3935TIP3    H233441   2.014   0.440   7.167  0.0743 -1.1492 -0.1769
 3936TIP3   OH233442   2.595   2.124   1.462 -0.1204 -0.2922  0.2690
 3936TIP3    H133443   2.623   2.215   1.454  2.3883 -0.7950  2.1764
 3936TIP3    H233444   2.642   2.091   1.539 -2.1570 -2.7815  0.5772
 3937TIP3   OH233445   6.074   6.345   8.167  0.1888  0.4690 -0.1315
 3937TIP3    H133446   6.066   6.370   8.075  0.6444  3.3080  0.5013
 3937TIP3    H233447   6.168   6.347   8.184  0.1134 -0.1289  0.3757
 3938TIP3   OH233448   1.912   3.360   7.779 -0.8470  0.1166 -0.4998
 3938TIP3    H133449   2.007   3.353   7.790 -1.0075  0.0468  1.0659
 3938TIP3    H233450   1.901   3.435   7.721  0.1467  0.4396 -0.3004
 3939TIP3   OH233451   6.968   1.831   7.331 -0.7099 -0.0896  0.5645
 3939TIP3    H133452   6.981   1.851   7.424  1.5038  0.3002  0.2216
 3939TIP3    H233453   7.029   1.759   7.313 -2.1967 -1.2059 -0.2802
 3940TIP3   OH233454   3.572   1.934   7.030  0.7108  0.3835  0.0647
 3940TIP3    H133455   3.641   1.924   6.965 -0.3628  1.2017 -1.2362
 3940TIP3    H233456   3.560   1.846   7.066  2.2079  0.1760  0.1098
 3941TIP3   OH233457   6.546   5.572   0.859 -0.7341 -0.1169 -0.4696
 3941TIP3    H133458   6.541   5.541   0.950 -1.6502  0.3739 -0.3442
 3941TIP3    H233459   6.606   5.511   0.817  0.1172 -0.0440  0.5915
 3942TIP3   OH233460   6.486   5.658   0.144  0.3850 -0.6262  0.0629
 3942TIP3    H133461   6.553   5.606   0.189 -0.4118 -1.7090  0.0285
 3942TIP3    H233462   6.514   5.749   0.156  1.1546 -0.9914  1.1795
 3943TIP3   OH233463   6.923   2.951   7.251 -0.1813  0.5635 -0.3353
 3943TIP3    H133464   6.958   3.019   7.309 -0.4331 -0.2915  0.8699
 3943TIP3    H233465   6.955   2.869   7.289  0.6092  0.0147 -2.0956
 3944TIP3   OH233466   3.541   3.359   1.023  0.0421  0.3464  0.4774
 3944TIP3    H133467   3.631   3.377   0.997  0.6537 -2.4200  0.4066
 3944TIP3    H233468   3.499   3.327   0.944 -0.8248  0.9187  0.6925
 3945TIP3   OH233469   1.067   5.346   2.150  0.2973  0.0608 -0.1733
 3945TIP3    H133470   0.972   5.350   2.163  0.3363  0.8063 -0.0975
 3945TIP3    H233471   1.097   5.285   2.218 -0.2606 -1.1956 -1.0102
 3946TIP3   OH233472   2.686   4.408   0.603 -0.0554 -0.0804  0.4029
 3946TIP3    H133473   2.732   4.384   0.523 -1.9441 -0.8737 -0.5088
 3946TIP3    H233474   2.722   4.493   0.628  1.2950 -0.3104 -0.6885
 3947TIP3   OH233475   3.223   3.907   6.336 -0.4598 -0.1871  0.6220
 3947TIP3    H133476   3.229   3.995   6.374 -0.1284  0.2239 -0.3421
 3947TIP3    H233477   3.140   3.907   6.289  0.6702  0.5382 -1.5351
 3948TIP3   OH233478   6.505   0.519   7.856 -0.3530 -0.0801 -0.1909
 3948TIP3    H133479   6.430   0.545   7.909 -0.6150 -0.4512 -0.3719
 3948TIP3    H233480   6.505   0.423   7.860  1.2389 -0.0657  1.3670
 3949TIP3   OH233481   2.004   6.122   0.659 -0.1023  0.1545  0.0219
 3949TIP3    H133482   1.940   6.169   0.606  0.5985  0.4142 -0.6119
 3949TIP3    H233483   2.024   6.181   0.731 -0.5791  0.0666  0.2298
 3950TIP3   OH233484   2.388   5.586   1.053  0.1676  0.6127 -0.2982
 3950TIP3    H133485   2.415   5.510   1.000  0.5911  1.6114 -1.5552
 3950TIP3    H233486   2.433   5.573   1.136 -1.4598 -1.6229  0.3306
 3951TIP3   OH233487   5.046   5.199   0.428  0.3220  0.5676  0.3892
 3951TIP3    H133488   4.969   5.168   0.381  0.5043 -1.6073  1.4040
 3951TIP3    H233489   5.119   5.184   0.367  0.5105 -1.8883  1.1429
 3952TIP3   OH233490   1.835   4.303   8.275  0.0186 -0.4069  0.2251
 3952TIP3    H133491   1.777   4.314   8.200  0.8385  0.3932 -0.3205
 3952TIP3    H233492   1.805   4.368   8.339  0.2632 -0.0329 -0.0337
 3953TIP3   OH233493   1.382   1.729   7.950 -0.0736  0.3118 -0.1171
 3953TIP3    H133494   1.471   1.742   7.982 -0.2911  2.2993 -0.1818
 3953TIP3    H233495   1.388   1.747   7.856 -0.6849  1.3922  0.0340
 3954TIP3   OH233496   3.882   2.133   6.533  0.6242 -0.6057 -0.4073
 3954TIP3    H133497   3.969   2.123   6.571 -0.2534 -0.8747  1.7027
 3954TIP3    H233498   3.837   2.194   6.591 -1.2203 -2.0217 -0.2320
 3955TIP3   OH233499   4.620   0.316   1.160  0.5623  0.4206  0.9638
 3955TIP3    H133500   4.629   0.279   1.248  1.2161 -0.4709  0.5358
 3955TIP3    H233501   4.620   0.241   1.102  2.1745  1.0665  0.0511
 3956TIP3   OH233502   5.245   4.740   1.561  0.2578 -0.1276 -0.3267
 3956TIP3    H133503   5.205   4.737   1.474 -2.6469  0.8273  0.8464
 3956TIP3    H233504   5.196   4.676   1.612  0.3571  0.9282  1.1496
 3957TIP3   OH233505   4.945   0.198   7.380  0.0705  0.5219  0.0977
 3957TIP3    H133506   4.907   0.146   7.451  0.6594  0.1792  0.1667
 3957TIP3    H233507   4.916   0.287   7.397  0.2207  0.4398  0.7741
 3958TIP3   OH233508   3.201   3.077   7.947 -0.5833  0.0241 -0.1682
 3958TIP3    H133509   3.128   3.033   7.990  1.0117 -0.6833  1.9902
 3958TIP3    H233510   3.279   3.031   7.978  0.7965  0.1846 -3.0410
 3959TIP3   OH233511   3.600   2.436   0.229  0.6937  0.1364  0.4763
 3959TIP3    H133512   3.614   2.429   0.323 -1.3060 -0.6536  0.7424
 3959TIP3    H233513   3.526   2.496   0.220  1.2787  0.7320 -0.6565
 3960TIP3   OH233514   3.627   5.522   1.700  0.1565  0.2760 -0.2578
 3960TIP3    H133515   3.558   5.472   1.744  0.6628 -1.0568 -0.9321
 3960TIP3    H233516   3.632   5.604   1.750 -0.7180 -0.3152  0.8635
 3961TIP3   OH233517   4.181   2.230   6.952 -0.1760  0.0289 -0.5034
 3961TIP3    H133518   4.219   2.314   6.980 -0.0095 -0.0442 -0.5122
 3961TIP3    H233519   4.176   2.237   6.857  0.2304 -0.1379 -0.5386
 3962TIP3   OH233520   3.102   6.892   1.466 -0.4887 -0.0008  0.0943
 3962TIP3    H133521   3.049   6.962   1.504  0.4418  1.0597 -0.4684
 3962TIP3    H233522   3.183   6.892   1.517  0.8178  1.5044 -1.7981
 3963TIP3   OH233523   5.101   3.226   8.379  0.0729 -0.6918  0.0341
 3963TIP3    H133524   5.165   3.168   8.420  0.4651 -0.0480  0.3520
 3963TIP3    H233525   5.053   3.264   8.453  1.9212  1.8129  0.1009
 3964TIP3   OH233526   2.238   2.724   8.215 -0.4611 -0.2452 -0.1154
 3964TIP3    H133527   2.281   2.755   8.294 -1.3285  0.2450  0.1798
 3964TIP3    H233528   2.170   2.790   8.197  1.0058  0.7771 -2.4294
 3965TIP3   OH233529   6.975   5.822   1.208  0.0566  0.0320  0.5056
 3965TIP3    H133530   7.003   5.755   1.270  0.5443  0.1457  0.4204
 3965TIP3    H233531   6.888   5.796   1.180  0.2145 -0.5254  0.5317
 3966TIP3   OH233532   4.637   6.724   7.779 -0.4973 -0.6059  0.1021
 3966TIP3    H133533   4.674   6.785   7.843  0.8185 -0.7668 -0.4693
 3966TIP3    H233534   4.547   6.709   7.810 -0.5867  0.9595  0.7005
 3967TIP3   OH233535   3.643   6.590   6.739  0.0003  0.5705 -0.0427
 3967TIP3    H133536   3.738   6.577   6.743 -0.1683 -0.5466  1.1313
 3967TIP3    H233537   3.606   6.511   6.778 -1.3493  1.7802  1.3024
 3968TIP3   OH233538   6.170   6.864   8.214  0.9168 -0.3684  0.2193
 3968TIP3    H133539   6.253   6.911   8.208  0.4353  0.3474 -1.4051
 3968TIP3    H233540   6.170   6.826   8.302  1.4381  2.4608  1.5457
 3969TIP3   OH233541   5.645   4.652   0.859 -0.1740  0.2884  0.1742
 3969TIP3    H133542   5.677   4.600   0.785  1.2962 -1.3020  1.8409
 3969TIP3    H233543   5.557   4.618   0.876  0.4672 -1.1554  0.7361
 3970TIP3   OH233544   4.955   5.941   1.963 -0.3368  0.3397 -0.1810
 3970TIP3    H133545   4.963   6.001   2.037 -1.8223 -0.8468  1.0113
 3970TIP3    H233546   4.862   5.920   1.959  0.2465 -2.7609  0.1814
 3971TIP3   OH233547   4.780   1.077   0.989 -0.0805 -0.0978  0.2779
 3971TIP3    H133548   4.813   1.005   1.043  1.6165 -0.2141 -0.8471
 3971TIP3    H233549   4.844   1.086   0.918 -0.8278  1.7992 -0.2326
 3972TIP3   OH233550   4.905   5.240   7.792  0.2781 -0.7858  0.7509
 3972TIP3    H133551   4.874   5.225   7.882  1.8113 -1.1021  1.2467
 3972TIP3    H233552   4.831   5.283   7.749 -0.5275 -0.7090  2.1354
 3973TIP3   OH233553   6.804   4.874   8.385  0.2771  0.0412 -0.0587
 3973TIP3    H133554   6.882   4.872   8.441  1.0834 -0.0991 -1.1486
 3973TIP3    H233555   6.758   4.953   8.412  1.2964  0.6488 -0.0252
 3974TIP3   OH233556   4.786   6.777   0.821  0.1035 -0.6168 -0.5762
 3974TIP3    H133557   4.757   6.796   0.731 -0.4587 -0.8830 -0.4553
 3974TIP3    H233558   4.854   6.842   0.838 -0.8523  0.4237 -0.6410
 3975TIP3   OH233559   0.295   5.002   8.284 -0.3271  0.7608  0.0657
 3975TIP3    H133560   0.335   4.930   8.333 -1.0960 -0.4847 -1.0588
 3975TIP3    H233561   0.368   5.060   8.261  0.4871 -0.2864 -0.0371
 3976TIP3   OH233562   3.414   5.163   7.082  0.5041 -0.2495  0.0316
 3976TIP3    H133563   3.455   5.245   7.107  0.6862 -0.5800  0.8867
 3976TIP3    H233564   3.349   5.147   7.152  1.9083 -1.8534  1.0655
 3977TIP3   OH233565   2.134   3.945   2.355 -0.0002 -0.3562 -0.2194
 3977TIP3    H133566   2.080   3.873   2.386 -0.7837 -0.0771 -0.9049
 3977TIP3    H233567   2.122   3.945   2.260  0.4570  0.3027 -0.2812
 3978TIP3   OH233568   0.906   6.816   8.296 -0.3405  0.0500  0.8271
 3978TIP3    H133569   0.845   6.854   8.359 -0.7571 -1.1953  1.1977
 3978TIP3    H233570   0.987   6.865   8.309 -1.0649  1.3064  0.7620
 3979TIP3   OH233571   2.879   5.030   1.669 -0.0859 -0.6355  0.4062
 3979TIP3    H133572   2.879   5.015   1.763  0.6019 -2.2058  0.1768
 3979TIP3    H233573   2.795   5.074   1.652 -0.1856 -0.2630  1.7353
 3980TIP3   OH233574   6.444   1.433   0.924  0.2486  0.1771 -0.2213
 3980TIP3    H133575   6.530   1.446   0.963 -0.6556  0.2407  1.8468
 3980TIP3    H233576   6.385   1.488   0.976 -1.1177 -0.1083 -1.3910
 3981TIP3   OH233577   6.805   0.033   1.603  0.5142 -0.0476 -0.3445
 3981TIP3    H133578   6.796  -0.002   1.515 -0.8014 -0.9678  0.1204
 3981TIP3    H233579   6.807  -0.045   1.660  0.1510  0.5546  0.5162
 3982TIP3   OH233580   6.727   0.156   1.964  0.1106  0.4823 -0.0855
 3982TIP3    H133581   6.787   0.185   2.033  1.4973 -0.5165 -0.8130
 3982TIP3    H233582   6.640   0.165   2.002  0.8325  0.0345  1.7699
 3983TIP3   OH233583   6.319   6.536   7.924 -1.0755  0.4123 -1.0485
 3983TIP3    H133584   6.247   6.591   7.954 -0.8296  0.7062 -0.9793
 3983TIP3    H233585   6.277   6.459   7.885 -1.4118 -0.8741  1.6200
 3984TIP3   OH233586   2.536   0.314   7.550 -0.4254 -0.0402 -0.0254
 3984TIP3    H133587   2.453   0.310   7.598 -0.5615 -0.3917 -0.2839
 3984TIP3    H233588   2.603   0.298   7.616 -0.4749  1.4441  0.4166
 3985TIP3   OH233589   2.807   2.242   6.853 -0.2921 -0.2521  0.1503
 3985TIP3    H133590   2.828   2.152   6.827 -0.9793 -0.6962  1.1004
 3985TIP3    H233591   2.712   2.245   6.855 -0.2663  0.2599  0.9239
 3986TIP3   OH233592   5.955   1.833   0.024 -0.2775  0.6737 -0.0356
 3986TIP3    H133593   5.892   1.896  -0.011 -1.7924 -0.1474  1.1184
 3986TIP3    H233594   6.004   1.882   0.090  0.5376  1.3876 -1.1193
 3987TIP3   OH233595   4.125   5.875   1.881 -0.6727  0.3843 -0.5703
 3987TIP3    H133596   4.091   5.962   1.898 -0.2546  0.5806 -0.7305
 3987TIP3    H233597   4.048   5.821   1.866 -0.9161  0.8073 -0.8552
 3988TIP3   OH233598   3.107   6.688   7.459 -0.1885 -0.1634 -0.5692
 3988TIP3    H133599   3.185   6.743   7.451  0.1866 -0.0148  2.5728
 3988TIP3    H233600   3.141   6.600   7.469 -0.1706  0.0766  2.4460
 3989TIP3   OH233601   6.856   5.129   8.099 -0.1694  0.0023 -0.0157
 3989TIP3    H133602   6.842   5.047   8.052 -0.4297  1.0771 -1.9029
 3989TIP3    H233603   6.774   5.178   8.088  0.0637  0.6263  0.8806
 3990TIP3   OH233604   4.034   4.391   0.805 -0.0795  0.0084 -0.0597
 3990TIP3    H133605   3.950   4.346   0.797 -0.9160  1.6650 -1.2742
 3990TIP3    H233606   4.011   4.484   0.806  1.7081  0.4787  0.2960
 3991TIP3   OH233607   4.648   6.887   2.109 -0.0053  0.1118  0.2390
 3991TIP3    H133608   4.704   6.850   2.177 -0.3253  0.3401  0.6310
 3991TIP3    H233609   4.707   6.902   2.035  0.1508 -1.0763  0.1019
 3992TIP3   OH233610   6.559   6.462   2.061  0.2090 -0.3902 -0.1122
 3992TIP3    H133611   6.614   6.391   2.030  0.4078 -0.0229 -0.6145
 3992TIP3    H233612   6.592   6.540   2.016 -0.0391  0.0104  0.3875
 3993TIP3   OH233613   0.992   4.401   1.657  0.4536  0.5063 -0.6527
 3993TIP3    H133614   1.052   4.336   1.693 -1.7903 -1.2019  0.2609
 3993TIP3    H233615   1.000   4.391   1.562  2.6168  1.3909 -0.6282
 3994TIP3   OH233616   5.577   3.036   7.182  0.0238  0.1723  0.6143
 3994TIP3    H133617   5.618   3.064   7.263 -1.7126 -0.7257  1.8638
 3994TIP3    H233618   5.556   2.944   7.196  0.4908 -0.2686 -1.2206
 3995TIP3   OH233619   5.904   0.781   7.087  0.1584 -0.4029 -0.1208
 3995TIP3    H133620   5.812   0.762   7.106 -0.8374  0.6205 -3.3284
 3995TIP3    H233621   5.932   0.711   7.029  0.8184  0.2528 -0.6218
 3996TIP3   OH233622   6.108   1.229   6.818 -0.6927 -0.4857 -0.5327
 3996TIP3    H133623   6.018   1.256   6.804 -1.0775 -1.3726  0.1749
 3996TIP3    H233624   6.106   1.134   6.812 -0.1334 -0.6468  1.2420
 3997TIP3   OH233625   1.219   6.696   8.390 -0.2497 -0.1777 -0.7888
 3997TIP3    H133626   1.204   6.784   8.356 -1.6787  0.3815  1.0766
 3997TIP3    H233627   1.273   6.710   8.469  0.0067 -1.0354 -0.8005
 3998TIP3   OH233628   2.738   3.787   6.181 -0.1906  0.2960 -0.2128
 3998TIP3    H133629   2.659   3.748   6.144 -0.1713  0.4566 -0.4247
 3998TIP3    H233630   2.803   3.717   6.176 -0.5549 -0.1275  0.7861
 3999TIP3   OH233631   3.999   5.734   1.003  0.0075  0.8673 -0.3940
 3999TIP3    H133632   4.066   5.795   1.033  0.5075 -0.1124  0.5603
 3999TIP3    H233633   3.946   5.716   1.081 -0.4238  0.4461 -0.7739
 4000TIP3   OH233634   4.184   0.937   7.068  0.5446  0.2684 -0.0468
 4000TIP3    H133635   4.252   0.873   7.046  1.6023  1.2707  0.1915
 4000TIP3    H233636   4.137   0.897   7.142  0.7781 -0.5051 -0.3073
 4001TIP3   OH233637   1.639   2.553   7.362 -0.8337 -0.5617  0.6787
 4001TIP3    H133638   1.566   2.495   7.344  0.0353 -1.4675 -0.0362
 4001TIP3    H233639   1.612   2.637   7.325 -0.6348 -1.4414 -1.6455
 4002TIP3   OH233640   4.150   2.999   1.412 -0.1522 -0.2378  0.1731
 4002TIP3    H133641   4.133   3.092   1.398  2.6901  0.2424 -0.5708
 4002TIP3    H233642   4.080   2.955   1.363 -0.8618  1.4780 -0.4504
 4003TIP3   OH233643   1.639   6.012   1.571  0.3724 -0.2214  0.0876
 4003TIP3    H133644   1.707   6.058   1.521  0.0170  1.1341  0.8261
 4003TIP3    H233645   1.674   6.007   1.660 -0.3168  0.0942  0.3755
 4004TIP3   OH233646   0.566   6.747   1.537 -0.1331  0.1464  0.3402
 4004TIP3    H133647   0.509   6.722   1.464  1.7845 -1.7708 -0.5699
 4004TIP3    H233648   0.518   6.720   1.616  0.0569 -2.7475 -0.4565
 4005TIP3   OH233649   0.687   6.683   6.693  0.0685  0.7044 -0.1820
 4005TIP3    H133650   0.600   6.692   6.654  0.2454 -0.7284 -0.9566
 4005TIP3    H233651   0.743   6.738   6.639  0.2319 -0.9349 -1.7662
 4006TIP3   OH233652   6.620   2.193   1.235 -0.2165 -0.6840  0.5246
 4006TIP3    H133653   6.684   2.179   1.305 -1.6748 -0.4867  1.9688
 4006TIP3    H233654   6.609   2.288   1.230 -2.4586 -0.7361  2.3744
 4007TIP3   OH233655   2.081   6.778   2.725  0.0311  0.4458 -0.0303
 4007TIP3    H133656   2.035   6.712   2.674  0.1276 -0.0976  0.5750
 4007TIP3    H233657   2.022   6.854   2.725 -1.7984 -0.8323  2.2759
 4008TIP3   OH233658   0.428   2.467   6.762  0.4945  0.5282  0.1719
 4008TIP3    H133659   0.517   2.490   6.735  0.3299  0.3330 -0.5539
 4008TIP3    H233660   0.388   2.431   6.683  0.0934 -0.3376  0.7554
 4009TIP3   OH233661   6.439   6.623   1.843  0.5882  0.1491 -0.2142
 4009TIP3    H133662   6.414   6.553   1.783 -0.2903  0.8424 -0.6834
 4009TIP3    H233663   6.357   6.650   1.884  1.3482 -1.2160  2.3515
 4010TIP3   OH233664   0.441   6.390   1.535 -0.1507 -0.1528 -0.1923
 4010TIP3    H133665   0.375   6.322   1.550 -1.5474  0.6497 -2.1652
 4010TIP3    H233666   0.397   6.471   1.562 -0.0889  0.4179 -1.7049
 4011TIP3   OH233667   6.994   5.879   1.746 -0.4014 -0.1027 -0.2584
 4011TIP3    H133668   7.085   5.880   1.718 -0.1226  0.0291  0.6023
 4011TIP3    H233669   6.993   5.936   1.823 -0.5676 -2.4985  1.6281
 4012TIP3   OH233670   4.693   0.658   1.685 -0.3478  0.1430 -0.0436
 4012TIP3    H133671   4.787   0.673   1.682 -0.3019  0.0260  0.5871
 4012TIP3    H233672   4.684   0.564   1.700 -0.5757  0.0768 -0.5797
 4013TIP3   OH233673   2.836   4.641   0.709 -0.3076 -0.4198 -0.7019
 4013TIP3    H133674   2.902   4.611   0.647  0.9348  0.0712  0.3356
 4013TIP3    H233675   2.875   4.627   0.795 -0.0093  3.1394 -0.1094
 4014TIP3   OH233676   5.960   3.174   7.582  0.0420 -0.1254  0.2462
 4014TIP3    H133677   5.941   3.246   7.642 -0.3995 -1.0565  1.2628
 4014TIP3    H233678   5.874   3.140   7.557  0.2493 -1.0652  0.7483
 4015TIP3   OH233679   4.420   4.113   0.707 -0.2781  0.1779 -0.2970
 4015TIP3    H133680   4.389   4.075   0.625 -1.2377 -0.2501  0.2466
 4015TIP3    H233681   4.426   4.207   0.689 -0.5001  0.0899 -0.8540
 4016TIP3   OH233682   2.219   6.132   1.064 -0.1325 -0.3968  0.5353
 4016TIP3    H133683   2.229   6.140   0.969 -1.8068  0.2100  0.3718
 4016TIP3    H233684   2.176   6.048   1.077 -0.8443 -0.0165  0.6668
 4017TIP3   OH233685   4.339   1.819   7.308  0.2046 -0.0317  0.6292
 4017TIP3    H133686   4.267   1.881   7.296  1.8729  1.5793 -2.4036
 4017TIP3    H233687   4.408   1.870   7.350  1.0635 -0.1830 -0.5312
 4018TIP3   OH233688   2.559   5.682   0.748  0.5052  0.0284  0.0936
 4018TIP3    H133689   2.651   5.704   0.764  0.5818  0.7315 -1.1588
 4018TIP3    H233690   2.518   5.766   0.725 -0.3617 -0.3459  0.2312
 4019TIP3   OH233691   0.373   5.101   2.180  0.3160 -0.3826  0.3399
 4019TIP3    H133692   0.418   5.031   2.227  2.1030 -1.1045 -2.2562
 4019TIP3    H233693   0.425   5.179   2.197 -0.2958 -0.1592  1.2678
 4020TIP3   OH233694   4.471   5.834   2.611 -0.5534 -0.5920 -0.5266
 4020TIP3    H133695   4.398   5.869   2.663  0.6576 -1.5954  2.0436
 4020TIP3    H233696   4.549   5.862   2.659  0.7341 -0.5157 -2.5787
 4021TIP3   OH233697   5.646   5.671   1.514 -0.1253 -0.0251 -0.0087
 4021TIP3    H133698   5.739   5.682   1.494  1.0375 -1.9494  3.5445
 4021TIP3    H233699   5.617   5.600   1.457 -0.1072  1.8714 -2.5773
 4022TIP3   OH233700   4.404   4.973   0.591 -0.5260  0.1820  0.6299
 4022TIP3    H133701   4.418   4.880   0.611 -1.0101  0.2944  1.5450
 4022TIP3    H233702   4.468   5.019   0.646 -1.4635  0.4651  1.5200
 4023TIP3   OH233703   1.587   6.353   7.329 -0.0108  0.4618 -0.5421
 4023TIP3    H133704   1.537   6.421   7.284  2.3073  2.2805 -0.5545
 4023TIP3    H233705   1.678   6.379   7.317  0.8931 -1.8029  0.8641
 4024TIP3   OH233706   0.597   0.244   1.140  0.0385 -0.6431 -0.1460
 4024TIP3    H133707   0.691   0.246   1.155 -0.0435 -0.5662  0.3525
 4024TIP3    H233708   0.562   0.194   1.213 -0.4827  0.7645  0.6167
 4025TIP3   OH233709   0.682   4.017   0.568 -0.0451  0.2349 -0.3894
 4025TIP3    H133710   0.677   4.100   0.522  0.1475  1.0616  1.0262
 4025TIP3    H233711   0.774   3.991   0.563  0.3859  1.3451  1.2182
 4026TIP3   OH233712   4.461   6.941   2.278 -0.1712 -0.1726  0.1765
 4026TIP3    H133713   4.469   6.857   2.321  0.1548 -0.1432  0.1818
 4026TIP3    H233714   4.534   6.943   2.216 -1.4620 -0.8266 -1.4354
 4027TIP3   OH233715   1.562   1.403   0.898 -0.5429 -0.2145 -0.7540
 4027TIP3    H133716   1.520   1.432   0.979 -0.0382  0.6211 -0.7832
 4027TIP3    H233717   1.653   1.429   0.908 -0.0612 -1.7766 -0.7971
 4028TIP3   OH233718   4.026   5.330   0.034 -0.0097  0.6984 -0.0412
 4028TIP3    H133719   4.094   5.290   0.089  0.1650  0.6439 -0.2951
 4028TIP3    H233720   3.979   5.256  -0.003 -1.2838  0.7135  1.4295
 4029TIP3   OH233721   0.598   3.007   7.780 -0.3308 -0.2285  0.1200
 4029TIP3    H133722   0.549   2.928   7.757 -0.0728  0.0870 -1.7065
 4029TIP3    H233723   0.664   2.978   7.843 -0.4839 -1.3916 -0.2470
 4030TIP3   OH233724   4.382   2.019   8.170  0.0193 -0.2286 -0.2380
 4030TIP3    H133725   4.380   2.110   8.138  0.4600 -0.4367 -0.8733
 4030TIP3    H233726   4.322   2.019   8.245  0.7865  0.8345  0.4118
 4031TIP3   OH233727   0.297   1.661   0.266  0.0800 -0.2190  0.5849
 4031TIP3    H133728   0.348   1.644   0.345 -0.0608  3.1674  1.5916
 4031TIP3    H233729   0.216   1.700   0.298 -0.2033  0.7549 -1.1709
 4032TIP3   OH233730   0.089   3.840   1.289  0.3288 -0.1538  0.5874
 4032TIP3    H133731   0.083   3.880   1.202 -2.4030 -0.9355  0.3004
 4032TIP3    H233732   0.103   3.913   1.349  0.9365  0.5559 -0.3946
 4033TIP3   OH233733   4.814   3.456   0.263 -0.7397 -0.0697 -0.1123
 4033TIP3    H133734   4.772   3.541   0.255  0.3581  0.7092  1.8229
 4033TIP3    H233735   4.741   3.393   0.265 -1.7751  1.1084  1.6977
 4034TIP3   OH233736   5.204   5.026   0.970 -0.6026  0.2543  0.0200
 4034TIP3    H133737   5.274   5.091   0.967  0.4771 -0.9017 -1.1055
 4034TIP3    H233738   5.162   5.040   1.055  2.3096 -0.2986  1.6911
 4035TIP3   OH233739   1.496   3.360   1.921  0.5424  0.0989  0.3483
 4035TIP3    H133740   1.528   3.299   1.988  1.1256  2.1142  2.0233
 4035TIP3    H233741   1.401   3.360   1.933  0.6611  0.6622  1.4213
 4036TIP3   OH233742   0.497   2.371   0.219 -0.2920  0.6524 -0.3489
 4036TIP3    H133743   0.408   2.403   0.201 -0.3960  0.0395 -0.9439
 4036TIP3    H233744   0.548   2.451   0.234 -1.2018  0.9822  1.3156
 4037TIP3   OH233745   0.543   5.444   7.096 -0.5530 -0.4548 -0.2781
 4037TIP3    H133746   0.592   5.365   7.118 -0.2631 -0.1138  0.3618
 4037TIP3    H233747   0.454   5.414   7.077 -0.4443 -0.9298 -0.0450
 4038TIP3   OH233748   6.639   0.716   7.476  0.0891  0.3679  0.0533
 4038TIP3    H133749   6.592   0.799   7.472  0.1925  0.4672  0.7331
 4038TIP3    H233750   6.635   0.681   7.387 -1.0132  0.5120  0.0335
 4039TIP3   OH233751   6.101   4.087   7.728  0.1519 -0.6456 -0.6475
 4039TIP3    H133752   6.132   4.002   7.761  1.7494  0.0201 -0.3590
 4039TIP3    H233753   6.177   4.145   7.735 -1.7551  1.8019  2.4460
 4040TIP3   OH233754   0.866   0.772   6.494 -0.0708 -0.7261  0.2538
 4040TIP3    H133755   0.881   0.764   6.588 -2.2119  0.2959  0.7461
 4040TIP3    H233756   0.890   0.863   6.475  0.2353 -0.8961 -0.1770
 4041TIP3   OH233757   5.834   0.652   7.640 -0.8082 -0.2281 -0.3530
 4041TIP3    H133758   5.909   0.666   7.697 -0.6356 -0.9178 -0.3928
 4041TIP3    H233759   5.871   0.617   7.559 -1.2496 -2.1020  0.1805
 4042TIP3   OH233760   6.608   0.105   7.037  0.1097 -0.4560  0.3619
 4042TIP3    H133761   6.698   0.129   7.062 -0.4697  0.3998  1.8011
 4042TIP3    H233762   6.600   0.131   6.946  0.5672  1.9029  0.9249
 4043TIP3   OH233763   3.305   4.964   7.617  0.1988  0.4881 -0.1774
 4043TIP3    H133764   3.348   5.021   7.553 -0.9150 -0.0971 -1.4943
 4043TIP3    H233765   3.329   4.875   7.590 -0.6348  0.2156 -0.0417
 4044TIP3   OH233766   6.201   3.262   0.679  0.1512  0.1927 -0.1779
 4044TIP3    H133767   6.119   3.229   0.717 -0.4926  2.1749  0.2579
 4044TIP3    H233768   6.203   3.226   0.590 -1.0725 -0.0554 -0.1178
 4045TIP3   OH233769   2.426   4.697   0.485  0.0076  0.5205 -0.4331
 4045TIP3    H133770   2.455   4.683   0.395  0.0996  0.9847 -0.4814
 4045TIP3    H233771   2.500   4.743   0.526  0.8322 -1.4747  0.4515
 4046TIP3   OH233772   3.595   4.976   7.938  0.4243 -0.2090  0.1156
 4046TIP3    H133773   3.613   5.036   7.866  1.3774  0.6806  1.0615
 4046TIP3    H233774   3.614   4.889   7.902 -1.4856 -0.0548 -1.4285
 4047TIP3   OH233775   0.886   6.192   0.756  0.3549  0.7457  0.4564
 4047TIP3    H133776   0.854   6.104   0.739 -0.2077  1.1610 -0.7750
 4047TIP3    H233777   0.878   6.237   0.672  0.0198  2.1566  1.2086
 4048TIP3   OH233778   2.090   5.087   0.955  0.5494  0.8942 -0.7743
 4048TIP3    H133779   2.095   5.165   1.012 -0.1106  1.2198 -1.1489
 4048TIP3    H233780   1.998   5.081   0.931  0.7530  0.5145 -1.4792
 4049TIP3   OH233781   5.609   2.319   8.002 -0.2541 -0.0452  0.2078
 4049TIP3    H133782   5.699   2.316   8.032 -0.1843  2.5906  0.5285
 4049TIP3    H233783   5.616   2.335   7.908 -0.3690  0.2991  0.2557
 4050TIP3   OH233784   0.100   5.481   1.631  0.5039  0.1078  0.3072
 4050TIP3    H133785   0.097   5.460   1.724 -0.9103  0.0661  0.2636
 4050TIP3    H233786   0.076   5.400   1.586  2.9643 -0.4157 -0.2151
 4051TIP3   OH233787   3.176   4.193   6.704  0.4233  0.0967  0.0092
 4051TIP3    H133788   3.136   4.224   6.623 -1.2096  0.5779  0.9746
 4051TIP3    H233789   3.236   4.123   6.675  0.0434  0.3966 -1.6212
 4052TIP3   OH233790   3.866   4.948   7.791 -0.4752 -0.1064 -0.0270
 4052TIP3    H133791   3.853   5.008   7.718 -0.1091  0.4517  0.3567
 4052TIP3    H233792   3.953   4.910   7.776 -0.5606 -0.2727 -0.0896
 4053TIP3   OH233793   3.999   2.535   1.033 -0.3297 -0.3607 -0.5716
 4053TIP3    H133794   3.911   2.547   1.067 -0.4064 -1.2036 -0.4454
 4053TIP3    H233795   3.995   2.566   0.943 -0.9681 -1.1380 -0.8173
 4054TIP3   OH233796   5.165   6.966   1.600 -0.9232  0.1359 -0.4355
 4054TIP3    H133797   5.093   6.973   1.536  0.3520 -1.7025 -2.1780
 4054TIP3    H233798   5.170   6.873   1.619  2.3964 -0.1712 -2.1444
 4055TIP3   OH233799   3.381   6.904   2.409  0.3130  0.3171  0.0506
 4055TIP3    H133800   3.471   6.882   2.388  1.0390  2.6599  0.4961
 4055TIP3    H233801   3.334   6.896   2.326  1.4506  1.4666 -0.7276
 4056TIP3   OH233802   1.854   2.690   0.549 -0.5674  0.2424 -0.2334
 4056TIP3    H133803   1.818   2.765   0.502 -0.4259 -0.1884 -1.0537
 4056TIP3    H233804   1.787   2.622   0.541 -0.3024 -0.0148 -0.3021
 4057TIP3   OH233805   6.293   0.385   6.849  0.0975  0.3376 -0.3632
 4057TIP3    H133806   6.242   0.419   6.775 -0.2218  1.7662  0.4795
 4057TIP3    H233807   6.375   0.355   6.809  0.1002  1.4703 -1.2725
 4058TIP3   OH233808   5.457   0.150   7.636 -0.0447  0.1869  0.3187
 4058TIP3    H133809   5.532   0.169   7.580 -0.9077  1.8616 -0.3502
 4058TIP3    H233810   5.382   0.185   7.587 -0.8656  1.5032  2.3972
 4059TIP3   OH233811   0.177   3.765   0.081 -0.8631  0.4022 -0.2988
 4059TIP3    H133812   0.266   3.736   0.059 -0.7385 -1.0370  1.7834
 4059TIP3    H233813   0.120   3.700   0.040 -0.8474  0.2767 -0.1253
 4060TIP3   OH233814   0.868   3.127   0.276  0.1646 -0.2795 -0.1276
 4060TIP3    H133815   0.875   3.192   0.206 -0.6787  0.4554  0.4386
 4060TIP3    H233816   0.920   3.162   0.348 -0.4838 -0.1056  0.2646
 4061TIP3   OH233817   2.764   0.675   2.225 -0.3938 -0.1455 -0.4019
 4061TIP3    H133818   2.811   0.593   2.211 -2.2024 -1.6025  1.3743
 4061TIP3    H233819   2.725   0.695   2.140 -0.0256 -1.2108 -0.8382
 4062TIP3   OH233820   6.726   4.435   7.126  0.4437  0.8113 -0.0958
 4062TIP3    H133821   6.646   4.417   7.077  1.2453  0.2157 -1.2244
 4062TIP3    H233822   6.767   4.349   7.138  1.0325  1.1359  0.2686
 4063TIP3   OH233823   4.020   2.656   6.947  0.0159 -0.3755 -0.1886
 4063TIP3    H133824   3.983   2.687   6.865 -1.5728  1.5342  1.1515
 4063TIP3    H233825   4.078   2.727   6.976  1.0106 -1.2709  0.0889
 4064TIP3   OH233826   3.016   0.960   8.410  0.0795  0.0783 -0.4188
 4064TIP3    H133827   2.966   0.903   8.352  1.5150  1.0288 -2.7037
 4064TIP3    H233828   3.094   0.910   8.433 -0.5569 -0.3597  0.9147
 4065TIP3   OH233829   2.816   3.262   2.008 -0.0117 -0.3173 -0.4737
 4065TIP3    H133830   2.768   3.291   2.086  0.2126 -1.3200  0.0495
 4065TIP3    H233831   2.748   3.254   1.941 -0.3892 -0.5043 -0.0809
 4066TIP3   OH233832   1.914   1.661   7.229 -0.1578  0.7830  0.5460
 4066TIP3    H133833   1.991   1.681   7.177 -0.1449 -1.5496 -0.4410
 4066TIP3    H233834   1.840   1.687   7.174 -0.1175  1.4164  0.7806
 4067TIP3   OH233835   5.407   0.937   8.111 -0.0162  0.3860  0.2019
 4067TIP3    H133836   5.456   0.995   8.170 -0.1391 -0.0789  0.7738
 4067TIP3    H233837   5.321   0.976   8.104 -1.0939 -1.2012  2.9508
 4068TIP3   OH233838   6.600   1.514   0.226 -0.1321 -0.0268  0.1520
 4068TIP3    H133839   6.681   1.477   0.193  0.1722  1.1648 -0.4848
 4068TIP3    H233840   6.560   1.443   0.278  0.7504 -0.9838 -0.4506
 4069TIP3   OH233841   6.283   1.286   2.747  0.7689 -0.0533 -0.3923
 4069TIP3    H133842   6.256   1.317   2.660 -0.8576 -1.2518 -0.3659
 4069TIP3    H233843   6.201   1.267   2.792  1.5762  0.7856  1.5347
 4070TIP3   OH233844   6.447   4.930   0.192 -0.0691 -0.2845  0.1549
 4070TIP3    H133845   6.420   4.907   0.281 -0.0432 -0.2313  0.1771
 4070TIP3    H233846   6.374   4.903   0.137 -0.0096 -0.4814  0.1723
 4071TIP3   OH233847   6.558   1.092   1.160  0.4318  0.4562  0.2297
 4071TIP3    H133848   6.507   1.168   1.187  0.7463  1.2130 -1.1840
 4071TIP3    H233849   6.531   1.076   1.070  0.6907 -0.8585  0.3645
 4072TIP3   OH233850   0.861   1.455   8.190  0.3053 -0.2777 -0.7999
 4072TIP3    H133851   0.886   1.534   8.237 -1.1777 -0.4422  0.3689
 4072TIP3    H233852   0.824   1.486   8.108 -2.3170  0.4963  0.5496
 4073TIP3   OH233853   6.097   2.846   0.776  0.5515  0.1151 -0.0392
 4073TIP3    H133854   6.149   2.771   0.805  2.7472  1.5989  0.0864
 4073TIP3    H233855   6.006   2.815   0.778  1.2135 -1.9172  1.9087
 4074TIP3   OH233856   0.812   4.383   7.069  0.4433 -0.3725  0.0516
 4074TIP3    H133857   0.814   4.369   6.974 -0.4088 -0.9087  0.0995
 4074TIP3    H233858   0.869   4.457   7.084  2.0383 -1.3977 -0.6926
 4075TIP3   OH233859   3.265   6.893   2.158 -0.0353  0.7531  0.3210
 4075TIP3    H133860   3.206   6.851   2.096  0.3672  0.0721  0.3916
 4075TIP3    H233861   3.263   6.985   2.134 -0.9611  0.7111  0.1876
 4076TIP3   OH233862   3.841   1.920   0.592  0.1950  0.0490 -0.1020
 4076TIP3    H133863   3.905   1.912   0.663  1.8030  2.5286 -1.1447
 4076TIP3    H233864   3.785   1.993   0.619  0.3113  0.4776 -1.0001
 4077TIP3   OH233865   4.198   4.359   2.856  0.0385 -0.2188  0.0693
 4077TIP3    H133866   4.200   4.298   2.930 -2.4967 -1.3478 -0.6579
 4077TIP3    H233867   4.171   4.443   2.894 -1.9082 -0.9470  0.4304
 4078TIP3   OH233868   4.148   2.684   0.736 -0.1055  0.1674  0.2466
 4078TIP3    H133869   4.219   2.696   0.674  0.3919 -2.4792  0.1842
 4078TIP3    H233870   4.183   2.624   0.801 -1.6662  0.3504  1.3031
 4079TIP3   OH233871   4.454   2.305   8.438  0.2619 -0.2656  0.1567
 4079TIP3    H133872   4.382   2.245   8.421 -0.5634  0.6210  0.4438
 4079TIP3    H233873   4.452   2.318   8.533  1.1734 -0.6871  0.2426
 4080TIP3   OH233874   0.925   0.385   0.978 -0.7972 -0.4554  0.9771
 4080TIP3    H133875   0.911   0.444   1.052  1.2214 -1.3770  2.1747
 4080TIP3    H233876   0.884   0.303   1.004  0.2145 -0.8870  1.2678
 4081TIP3   OH233877   1.022   0.145   2.633 -0.1387  0.4621 -0.6089
 4081TIP3    H133878   1.072   0.227   2.642  0.4785 -0.0080  0.5107
 4081TIP3    H233879   1.089   0.077   2.626 -0.5905 -0.1705  0.8306
 4082TIP3   OH233880   6.216   0.227   7.654 -0.7832  0.1136 -0.7045
 4082TIP3    H133881   6.288   0.279   7.619 -1.9360  1.3866 -1.2842
 4082TIP3    H233882   6.194   0.166   7.584  0.6810 -1.3246  0.0384
 4083TIP3   OH233883   4.090   1.983   6.632  0.5018 -0.2906 -0.0741
 4083TIP3    H133884   4.170   1.943   6.665  0.0336 -2.0097 -0.8854
 4083TIP3    H233885   4.067   1.930   6.555 -1.2629  0.3107 -0.0037
 4084TIP3   OH233886   6.987   5.525   6.524 -0.4238 -0.4361 -0.0652
 4084TIP3    H133887   6.991   5.460   6.454  0.5450  1.6432 -2.1089
 4084TIP3    H233888   6.917   5.584   6.498 -0.2716  0.2024  0.9147
 4085TIP3   OH233889   5.484   6.357   1.198  0.0060  0.0052 -0.3361
 4085TIP3    H133890   5.466   6.347   1.291  0.4863 -0.5753 -0.2970
 4085TIP3    H233891   5.558   6.298   1.181 -1.0056 -1.0327 -1.3747
 4086TIP3   OH233892   5.856   2.688   0.501  0.1390  0.1835  0.8587
 4086TIP3    H133893   5.924   2.749   0.472 -1.0555  0.0664 -2.6576
 4086TIP3    H233894   5.781   2.743   0.523 -0.4195  0.1336 -0.7896
 4087TIP3   OH233895   5.684   1.697   7.226  0.0288  0.0739  0.3276
 4087TIP3    H133896   5.605   1.677   7.276 -0.3689 -0.1826 -0.3811
 4087TIP3    H233897   5.676   1.644   7.146 -0.0096  1.4189 -0.6046
 4088TIP3   OH233898   0.597   0.032   1.326  0.5461 -0.5916  0.1667
 4088TIP3    H133899   0.570   0.018   1.417 -0.4892 -1.0851 -0.2088
 4088TIP3    H233900   0.624  -0.055   1.295  0.1728 -0.5723 -0.2239
 4089TIP3   OH233901   0.615   2.847   0.941 -0.4288 -0.4347  0.2901
 4089TIP3    H133902   0.606   2.778   0.876 -0.5360  0.1419 -0.3157
 4089TIP3    H233903   0.710   2.860   0.950 -0.4288  0.0915 -0.4107
 4090TIP3   OH233904   0.272   4.005   6.475 -0.2298  0.2765  0.0854
 4090TIP3    H133905   0.328   4.001   6.397 -1.3773  0.5568 -0.7943
 4090TIP3    H233906   0.227   4.090   6.468  0.2847  0.6991  1.5337
 4091TIP3   OH233907   6.280   6.129   1.149 -0.3921  0.1275 -0.1021
 4091TIP3    H133908   6.208   6.184   1.179  0.0821 -0.3527  2.0782
 4091TIP3    H233909   6.358   6.183   1.160 -0.3788  1.1710 -3.7450
 4092TIP3   OH233910   3.992   5.492   0.859  0.5652 -0.2021 -0.2477
 4092TIP3    H133911   3.972   5.577   0.899 -2.2767 -0.7722 -0.2816
 4092TIP3    H233912   3.990   5.430   0.932 -0.9103 -0.7094 -0.6944
 4093TIP3   OH233913   6.341   3.980   0.906  0.3656 -0.0884 -0.1866
 4093TIP3    H133914   6.428   3.999   0.872  0.0054  0.2105 -0.9733
 4093TIP3    H233915   6.297   4.065   0.909 -0.1756 -0.3478 -0.5921
 4094TIP3   OH233916   3.035   0.877   7.571  0.0874  0.5156 -0.3330
 4094TIP3    H133917   2.948   0.893   7.536  0.1025  0.6433 -0.3108
 4094TIP3    H233918   3.090   0.864   7.494 -0.5835 -3.0900 -0.4017
 4095TIP3   OH233919   0.607   3.597   7.844 -0.0240 -0.2273  0.4415
 4095TIP3    H133920   0.517   3.563   7.844 -1.0359  2.1919  1.0810
 4095TIP3    H233921   0.597   3.689   7.870  2.7386 -0.1121  1.4024
 4096TIP3   OH233922   6.547   5.375   7.476 -0.1874 -1.2752  0.2113
 4096TIP3    H133923   6.541   5.286   7.442  0.0095 -1.7180  1.2922
 4096TIP3    H233924   6.564   5.429   7.399  1.4783 -2.3793 -0.2624
 4097TIP3   OH233925   2.974   6.062   0.559 -0.3610  0.0753  0.4772
 4097TIP3    H133926   2.972   5.978   0.514  0.2620  0.4140 -0.2153
 4097TIP3    H233927   2.965   6.127   0.489 -0.8130  0.5883  0.9968
 4098TIP3   OH233928   6.811   2.343   7.666  0.3651 -0.0187  0.4896
 4098TIP3    H133929   6.812   2.321   7.759 -0.2162  1.5564  0.8896
 4098TIP3    H233930   6.719   2.338   7.641  0.4498  0.1417  0.1387
 4099TIP3   OH233931   3.236   6.511   1.655  0.2228  0.1301 -0.5058
 4099TIP3    H133932   3.236   6.427   1.609  1.6437 -0.5727  0.6782
 4099TIP3    H233933   3.159   6.509   1.711  0.2706 -0.4104 -0.4588
 4100TIP3   OH233934   0.684   0.347   7.332 -0.2251  0.3588  0.3280
 4100TIP3    H133935   0.609   0.368   7.277 -1.1389 -1.3152  0.8746
 4100TIP3    H233936   0.722   0.269   7.292  2.2706  2.0474 -0.8852
 4101TIP3   OH233937   0.333   4.070   0.196 -0.3394  0.3353 -0.1046
 4101TIP3    H133938   0.341   4.080   0.101 -0.2344  2.4956  0.0899
 4101TIP3    H233939   0.409   4.018   0.222 -0.2589 -0.0942 -1.1488
 4102TIP3   OH233940   5.101   1.788   0.653 -0.0615 -0.8536  0.0515
 4102TIP3    H133941   5.187   1.749   0.642 -0.2626 -1.1440 -0.4996
 4102TIP3    H233942   5.067   1.797   0.564 -0.5475 -0.6256  0.2584
 4103TIP3   OH233943   4.687   0.689   6.949 -0.7942  0.0743 -0.7203
 4103TIP3    H133944   4.756   0.693   7.015 -1.1178  2.1750 -0.4445
 4103TIP3    H233945   4.728   0.649   6.873  0.1064 -0.6747  0.1387
 4104TIP3   OH233946   4.077   3.277   1.283  1.1561  0.0127 -0.1000
 4104TIP3    H133947   4.068   3.336   1.357  0.4823 -0.8031  0.4779
 4104TIP3    H233948   3.994   3.228   1.279  2.2695 -2.0556  0.4605
 4105TIP3   OH233949   6.722   3.442   0.598  0.3928 -0.5180 -0.3440
 4105TIP3    H133950   6.725   3.409   0.688  2.7154  0.1218 -0.1077
 4105TIP3    H233951   6.798   3.501   0.592 -2.6037  3.7288 -1.1478
 4106TIP3   OH233952   1.962   6.057   6.845 -0.0209  0.0574  0.7375
 4106TIP3    H133953   1.986   6.002   6.770  0.9412  2.2471 -0.6469
 4106TIP3    H233954   2.042   6.107   6.865 -1.0297  1.4345  1.4840
 4107TIP3   OH233955   6.733   2.716   0.808 -0.7972  0.6262 -0.2980
 4107TIP3    H133956   6.712   2.714   0.715  1.5629 -1.2780 -0.9096
 4107TIP3    H233957   6.811   2.771   0.814  1.9938 -2.9414 -0.3499
 4108TIP3   OH233958   3.926   4.626   0.704  0.7124  0.1608 -0.2246
 4108TIP3    H133959   3.908   4.700   0.763 -3.0067  1.6713 -2.8289
 4108TIP3    H233960   4.012   4.645   0.667  0.6269  2.2420  0.5109
 4109TIP3   OH233961   5.470   0.660   7.457  0.2881 -0.4169 -0.2033
 4109TIP3    H133962   5.521   0.600   7.402  0.5051 -0.4835  0.0630
 4109TIP3    H233963   5.475   0.620   7.544 -0.5212 -0.6134 -0.2410
 4110TIP3   OH233964   3.520   0.085   2.556  0.2789 -0.0989 -0.1107
 4110TIP3    H133965   3.523   0.139   2.478 -0.8807  1.1391  0.6546
 4110TIP3    H233966   3.479   0.003   2.527  0.1979  0.2022 -0.8664
 4111TIP3   OH233967   0.766   3.109   6.740 -0.2733  0.1770  0.0524
 4111TIP3    H133968   0.816   3.132   6.819 -0.2762  0.7372 -0.1042
 4111TIP3    H233969   0.812   3.154   6.669 -2.2551  2.6276  0.1722
 4112TIP3   OH233970   2.432   2.306   1.204  0.2354  0.1060 -0.2768
 4112TIP3    H133971   2.356   2.248   1.210  0.2338  0.2393  1.7045
 4112TIP3    H233972   2.458   2.303   1.112 -1.8413 -0.3434 -0.8958
 4113TIP3   OH233973   5.125   2.910   6.974  0.1827 -0.1152  0.9320
 4113TIP3    H133974   5.157   2.829   7.014 -1.5198 -0.5612  1.4480
 4113TIP3    H233975   5.030   2.901   6.974  0.0251  1.1269 -0.6188
 4114TIP3   OH233976   6.581   6.442   0.491 -0.4982 -0.0496 -0.1935
 4114TIP3    H133977   6.656   6.491   0.524  0.3644 -0.4757 -1.4268
 4114TIP3    H233978   6.508   6.470   0.545  0.6860 -0.2103  1.5921
 4115TIP3   OH233979   3.833   4.690   1.236 -0.2349  0.1948 -0.5107
 4115TIP3    H133980   3.862   4.634   1.309 -0.6982 -0.0299 -0.4955
 4115TIP3    H233981   3.819   4.776   1.275 -0.4866  0.0734 -0.3299
 4116TIP3   OH233982   1.740   2.140   8.455  0.5040  0.4218 -0.0415
 4116TIP3    H133983   1.693   2.167   8.376 -1.1021  0.4166  0.8590
 4116TIP3    H233984   1.739   2.044   8.452 -0.8237  0.3865  0.6443
 4117TIP3   OH233985   5.273   1.301   8.357 -0.6749  0.3310  0.4933
 4117TIP3    H133986   5.259   1.334   8.446 -0.8446  2.5875 -0.3032
 4117TIP3    H233987   5.368   1.285   8.352 -0.5567  0.8766  0.8798
 4118TIP3   OH233988   4.100   2.487   1.284 -0.5366 -0.1357  1.1267
 4118TIP3    H133989   4.079   2.502   1.192  1.2076  0.6044  0.8172
 4118TIP3    H233990   4.079   2.395   1.298 -0.7798 -0.2722 -0.0251
 4119TIP3   OH233991   5.003   0.627   6.584 -0.2742 -0.5437 -0.2997
 4119TIP3    H133992   4.969   0.537   6.582  0.4771 -0.8143 -1.0622
 4119TIP3    H233993   5.083   0.621   6.635 -0.8553 -0.0715  0.6943
 4120TIP3   OH233994   0.804   4.652   6.233 -0.9268 -0.1518  0.5603
 4120TIP3    H133995   0.808   4.557   6.217 -1.4396 -0.3621  1.6010
 4120TIP3    H233996   0.852   4.690   6.160 -0.9046 -1.2037 -0.0008
 4121TIP3   OH233997   5.253   4.011   2.220  0.1088  0.1766 -0.4375
 4121TIP3    H133998   5.246   4.036   2.312  1.0454 -1.7371  0.1957
 4121TIP3    H233999   5.308   4.079   2.181  3.3386 -1.1614  1.4054
 4122TIP3   OH234000   0.545   4.597   0.349  0.6135  0.1402  0.1984
 4122TIP3    H134001   0.556   4.574   0.257  1.0572 -0.0883  0.3016
 4122TIP3    H234002   0.517   4.515   0.391  1.3568 -0.0055  0.4253
 4123TIP3   OH234003   5.636   3.414   8.049  0.1307 -0.6996  0.2544
 4123TIP3    H134004   5.633   3.509   8.035  0.3750 -0.9525 -1.7291
 4123TIP3    H234005   5.543   3.389   8.054  0.0664 -0.2879  1.5336
 4124TIP3   OH234006   3.462   6.482   0.509  0.1553  0.3733 -0.4333
 4124TIP3    H134007   3.485   6.414   0.573 -0.5464  1.5508  1.1344
 4124TIP3    H234008   3.374   6.509   0.533  0.0996  1.2731 -1.5619
 4125TIP3   OH234009   0.563   2.156   1.185  0.3267 -0.0317 -0.0855
 4125TIP3    H134010   0.658   2.160   1.202  0.3015  0.5173 -0.0812
 4125TIP3    H234011   0.537   2.070   1.219  0.5835  0.3540  1.1639
 4126TIP3   OH234012   3.951   4.562   6.665 -0.0314 -0.6791  0.5017
 4126TIP3    H134013   4.032   4.511   6.661  1.1227  0.6410  3.7755
 4126TIP3    H234014   3.883   4.496   6.678  1.2089 -1.6197  2.8466
 4127TIP3   OH234015   5.615   1.624   2.295  0.7641  0.5445 -0.1864
 4127TIP3    H134016   5.554   1.561   2.257 -0.0433 -0.0446  1.9816
 4127TIP3    H234017   5.699   1.578   2.296  0.2863 -0.3494  0.9018
 4128TIP3   OH234018   2.629   4.382   7.897  0.1979 -0.1729 -0.2250
 4128TIP3    H134019   2.679   4.427   7.829  0.4858  1.5981  1.0952
 4128TIP3    H234020   2.597   4.452   7.954  0.0031 -1.5953  1.5031
 4129TIP3   OH234021   0.633   4.575   0.093  0.5752  0.1933  0.1544
 4129TIP3    H134022   0.677   4.659   0.077 -0.3081  0.7126  0.3364
 4129TIP3    H234023   0.693   4.509   0.059  0.4216  1.0302 -1.8914
 4130TIP3   OH234024   0.085   4.312   7.110 -0.2617 -0.4779  0.3096
 4130TIP3    H134025   0.139   4.256   7.166  0.4970 -0.0220  0.0364
 4130TIP3    H234026   0.135   4.393   7.102 -1.4802  0.3617  0.9311
 4131TIP3   OH234027   2.432   2.355   7.565 -0.2209 -0.2079  0.0259
 4131TIP3    H134028   2.454   2.399   7.482  1.0609 -0.6065  0.1242
 4131TIP3    H234029   2.429   2.262   7.543 -0.4885 -0.2648  0.3025
 4132TIP3   OH234030   6.223   5.474   7.579 -0.0797  0.0989  0.5267
 4132TIP3    H134031   6.196   5.391   7.619 -0.7665  0.1508  0.1860
 4132TIP3    H234032   6.197   5.466   7.487 -2.1552  1.5088  0.9085
 4133TIP3   OH234033   1.910   5.329   8.019  0.0384 -0.3728 -0.3726
 4133TIP3    H134034   1.850   5.398   7.989 -1.3228 -0.6078  1.6008
 4133TIP3    H234035   1.871   5.297   8.101  1.6789 -2.1417 -0.2024
 4134TIP3   OH234036   4.024   4.142   1.995  0.2723 -0.1625 -0.3555
 4134TIP3    H134037   3.934   4.120   1.973  0.4279  1.0567 -2.4726
 4134TIP3    H234038   4.077   4.085   1.939  0.7805  0.1430 -0.1906
 4135TIP3   OH234039   3.253   2.034   8.385 -0.1160  0.0337  0.3388
 4135TIP3    H134040   3.329   2.090   8.396 -0.8272  0.9049  0.9792
 4135TIP3    H234041   3.245   2.021   8.290  0.5381  0.3311  0.2427
 4136TIP3   OH234042   0.737   2.646   2.288 -0.4163 -0.4526 -0.5792
 4136TIP3    H134043   0.827   2.633   2.258  0.2337 -2.2374  1.8435
 4136TIP3    H234044   0.741   2.729   2.336  0.5986 -1.5666  1.4247
 4137TIP3   OH234045   6.783   3.874   1.336 -0.3037 -0.1911  0.0055
 4137TIP3    H134046   6.857   3.908   1.285 -1.4760  4.4940  0.9434
 4137TIP3    H234047   6.722   3.840   1.270  0.4255  0.9063 -1.3038
 4138TIP3   OH234048   4.582   0.034   1.601 -0.2484  0.3384  0.3025
 4138TIP3    H134049   4.536  -0.041   1.640 -0.6739 -0.0266 -0.8772
 4138TIP3    H234050   4.529   0.058   1.525  0.6342  0.9575 -0.1298
 4139TIP3   OH234051   0.200   5.355   8.298 -0.8239 -0.2048  0.5974
 4139TIP3    H134052   0.212   5.359   8.203  2.8862 -0.7243  0.8820
 4139TIP3    H234053   0.194   5.261   8.318 -1.0554 -0.1226  0.9256
 4140TIP3   OH234054   3.996   1.441   1.148  0.1713 -0.1220 -0.1361
 4140TIP3    H134055   4.025   1.532   1.141 -0.2758 -0.0912 -2.1267
 4140TIP3    H234056   3.902   1.447   1.168 -0.0212 -0.1222 -1.0125
 4141TIP3   OH234057   2.019   6.524   6.392 -0.8164  0.3073 -0.3569
 4141TIP3    H134058   2.063   6.548   6.310  1.5300 -1.3653  0.2921
 4141TIP3    H234059   2.076   6.557   6.461 -1.5454 -0.3207  0.5714
 4142TIP3   OH234060   4.046   0.784   8.340  0.3811 -0.0397 -0.1279
 4142TIP3    H134061   4.032   0.816   8.429  0.0850  0.2748 -0.2884
 4142TIP3    H234062   3.958   0.767   8.306  0.5008 -3.6331  0.8890
 4143TIP3   OH234063   2.071   3.179   0.517 -0.6606  0.2604 -0.3181
 4143TIP3    H134064   1.980   3.180   0.487 -1.3216 -1.8272  1.3848
 4143TIP3    H234065   2.122   3.174   0.436 -2.0729  0.6388 -1.2807
 4144TIP3   OH234066   4.870   0.717   0.084  0.4328  0.5040  0.1343
 4144TIP3    H134067   4.899   0.789   0.141  1.5131  1.2628 -1.3197
 4144TIP3    H234068   4.775   0.728   0.078  0.3587  0.6999  1.3688
 4145TIP3   OH234069   2.087   6.051   2.050 -0.2124 -0.0446 -0.1732
 4145TIP3    H134070   2.144   6.056   2.127 -1.0032 -0.9196  0.4889
 4145TIP3    H234071   2.148   6.051   1.976  0.5637  0.7664  0.4463
 4146TIP3   OH234072   6.043   5.086   0.477  0.5818  0.8162 -0.4293
 4146TIP3    H134073   5.981   5.159   0.480  0.4575  0.7857 -1.7304
 4146TIP3    H234074   5.990   5.010   0.453  0.9144  0.5220 -0.2482
 4147TIP3   OH234075   5.275   1.125   7.564  0.6582  0.5326  0.2225
 4147TIP3    H134076   5.345   1.061   7.554  0.4146  0.4718 -1.3993
 4147TIP3    H234077   5.222   1.115   7.485 -0.4213  1.4931  0.7904
 4148TIP3   OH234078   5.457   4.996   2.338 -0.1141 -0.2188  0.3243
 4148TIP3    H134079   5.438   4.946   2.258  0.7546 -0.9525  0.5591
 4148TIP3    H234080   5.505   4.934   2.393 -2.4472 -0.4275  2.2791
 4149TIP3   OH234081   6.623   5.909   0.187  0.7629  0.4864  0.1992
 4149TIP3    H134082   6.679   5.833   0.201 -1.9532 -1.6475  0.4570
 4149TIP3    H234083   6.606   5.944   0.274  1.6274  1.1528  0.1186
 4150TIP3   OH234084   4.424   2.383   1.251  0.2208 -0.0375 -0.1949
 4150TIP3    H134085   4.333   2.362   1.233  0.1635 -0.1246  0.1864
 4150TIP3    H234086   4.467   2.298   1.260  0.4763 -0.0070 -1.0244
 4151TIP3   OH234087   0.718   5.040   2.097 -0.2946 -0.2233  0.8767
 4151TIP3    H134088   0.677   4.954   2.091  0.5069 -0.5246 -0.7645
 4151TIP3    H234089   0.663   5.089   2.158 -1.0577 -1.7225  1.4369
 4152TIP3   OH234090   3.525   4.251   8.418  0.7824  0.6921 -0.4891
 4152TIP3    H134091   3.486   4.297   8.492  1.9706  2.0946 -0.6710
 4152TIP3    H234092   3.484   4.165   8.418 -0.4188  1.2282  0.8092
 4153TIP3   OH234093   2.216   2.138   1.280  0.5588 -0.3619  0.0325
 4153TIP3    H134094   2.270   2.071   1.323 -1.0458 -1.5963  0.2113
 4153TIP3    H234095   2.165   2.177   1.351  0.1567 -0.2180 -0.3319
 4154TIP3   OH234096   4.651   3.909   0.169  0.4638  0.6176 -0.4204
 4154TIP3    H134097   4.559   3.918   0.142 -0.1518 -1.6564  0.6596
 4154TIP3    H234098   4.675   3.820   0.142  0.6778 -0.8024  3.7857
 4155TIP3   OH234099   2.029   0.670   8.371  0.0913 -0.4116  0.6958
 4155TIP3    H134100   2.124   0.681   8.367 -0.0583  0.6903 -0.2688
 4155TIP3    H234101   1.994   0.751   8.336 -1.1622 -1.9803 -2.0068
 4156TIP3   OH234102   2.365   1.347   1.977 -0.2409  0.1370 -0.3207
 4156TIP3    H134103   2.325   1.423   2.019  0.5815 -0.3759  1.5119
 4156TIP3    H234104   2.296   1.281   1.978  0.3356 -0.5651  2.3233
 4157TIP3   OH234105   4.722   4.253   0.011  0.4407  0.2450 -0.3563
 4157TIP3    H134106   4.795   4.203  -0.026 -0.8842 -1.9587 -0.1817
 4157TIP3    H234107   4.682   4.296  -0.064 -0.5649 -1.9713 -1.1929
 4158TIP3   OH234108   0.291   2.806   0.792  0.1310  1.2786 -0.5009
 4158TIP3    H134109   0.322   2.852   0.870  1.2729  1.0898 -0.8257
 4158TIP3    H234110   0.307   2.713   0.811 -0.3793  1.1634 -0.6216
 4159TIP3   OH234111   0.597   0.207   8.141 -0.6582  0.0017  0.2051
 4159TIP3    H134112   0.609   0.207   8.046 -0.9909  0.4527  0.1611
 4159TIP3    H234113   0.663   0.267   8.175  0.3356 -1.1520  0.3845
 4160TIP3   OH234114   1.014   4.067   6.627  0.0885 -0.3122 -0.0603
 4160TIP3    H134115   1.099   4.064   6.583  0.1141 -0.2272 -0.0154
 4160TIP3    H234116   1.035   4.082   6.719 -0.0141  0.5399 -0.1687
 4161TIP3   OH234117   1.654   2.199   6.471 -0.0537 -0.1622  0.2047
 4161TIP3    H134118   1.650   2.200   6.566 -1.0682  0.0682  0.1688
 4161TIP3    H234119   1.668   2.290   6.446  1.2784 -0.3560  0.1512
 4162TIP3   OH234120   2.555   3.973   0.794  0.0690  0.7106  0.3482
 4162TIP3    H134121   2.503   3.975   0.874 -1.0121  1.5894 -0.3499
 4162TIP3    H234122   2.621   4.042   0.806  0.9554 -0.2326  1.1234
 4163TIP3   OH234123   2.892   0.089   7.021  0.3249  0.1378 -0.1577
 4163TIP3    H134124   2.860   0.134   7.099 -1.3239  0.8177 -1.1605
 4163TIP3    H234125   2.886   0.155   6.951  0.9953 -0.6868 -1.0192
 4164TIP3   OH234126   0.864   2.525   7.204 -0.3067 -0.0379 -0.0783
 4164TIP3    H134127   0.837   2.616   7.216  0.0789  0.0179  0.4052
 4164TIP3    H234128   0.797   2.474   7.250  0.5027  0.1139  1.3383
 4165TIP3   OH234129   5.441   0.861   1.284 -0.3436 -0.0319  0.2471
 4165TIP3    H134130   5.512   0.860   1.348  0.8009  0.3793 -0.9787
 4165TIP3    H234131   5.385   0.934   1.312  1.3291  1.6008 -0.4287
 4166TIP3   OH234132   5.307   1.277   6.490 -0.0363  0.0257  0.1296
 4166TIP3    H134133   5.253   1.325   6.428  0.0438 -2.0578 -1.6774
 4166TIP3    H234134   5.244   1.227   6.542  0.0001  0.0341  0.1821
 4167TIP3   OH234135   6.362   0.680   7.532 -0.2520 -0.4921  0.3828
 4167TIP3    H134136   6.453   0.685   7.502 -0.4191 -1.8157 -0.4388
 4167TIP3    H234137   6.312   0.726   7.464 -0.2916 -0.5984  0.3399
 4168TIP3   OH234138   0.407   6.683   2.656  0.7944  0.1915  0.8474
 4168TIP3    H134139   0.483   6.643   2.699  1.4397  0.8868  0.3728
 4168TIP3    H234140   0.440   6.765   2.620  0.3773 -0.5484 -1.3456
 4169TIP3   OH234141   5.903   4.125   7.947  0.1933 -0.0594 -0.4865
 4169TIP3    H134142   5.929   4.064   8.017 -0.5523 -0.4834 -0.5613
 4169TIP3    H234143   5.975   4.123   7.885  1.4356  1.2375  0.8270
 4170TIP3   OH234144   5.188   6.808   8.069 -0.2043  0.1968 -0.5510
 4170TIP3    H134145   5.268   6.846   8.032 -0.3871  1.3843  0.2084
 4170TIP3    H234146   5.157   6.874   8.131  0.1524 -1.7440  1.8523
 4171TIP3   OH234147   1.749   0.560   6.309 -0.2505 -0.1542  0.0231
 4171TIP3    H134148   1.804   0.484   6.330  1.9753  1.0511 -1.1021
 4171TIP3    H234149   1.738   0.606   6.392  0.4310 -0.4253  0.2704
 4172TIP3   OH234150   0.331   2.745   7.958  0.0316  0.1625 -0.2994
 4172TIP3    H134151   0.307   2.706   8.041  0.2259 -2.0809 -1.2288
 4172TIP3    H234152   0.248   2.756   7.911  0.0959 -0.5228 -0.5882
 4173TIP3   OH234153   2.979   4.803   6.636  0.2148  0.1084 -0.5226
 4173TIP3    H134154   2.935   4.740   6.579  1.2561  0.6919 -2.0268
 4173TIP3    H234155   3.070   4.773   6.639  0.2854  0.3745  0.4479
 4174TIP3   OH234156   3.008   0.884   6.280 -0.3415  0.2304  0.1954
 4174TIP3    H134157   3.103   0.881   6.264 -0.2285  0.7238  0.7246
 4174TIP3    H234158   2.973   0.808   6.234  0.2313  0.4194 -0.5733
 4175TIP3   OH234159   6.562   6.488   7.411 -0.6219  0.0835 -0.1997
 4175TIP3    H134160   6.511   6.472   7.332 -0.0614 -1.3955 -0.3091
 4175TIP3    H234161   6.653   6.488   7.381 -0.4092 -0.3580  0.4229
 4176TIP3   OH234162   6.912   6.352   0.646 -0.3065 -0.1370  0.2929
 4176TIP3    H134163   6.870   6.431   0.612  0.9961 -0.0842 -1.3315
 4176TIP3    H234164   6.854   6.281   0.621 -0.1601  0.0642 -0.6546
 4177TIP3   OH234165   3.226   0.157   7.809 -0.1005 -0.1286 -0.4597
 4177TIP3    H134166   3.183   0.093   7.866 -0.4700  0.9484  0.5163
 4177TIP3    H234167   3.316   0.161   7.842  0.3341 -1.1878 -1.4578
 4178TIP3   OH234168   2.554   1.313   0.833 -0.2753  0.4770 -0.5829
 4178TIP3    H134169   2.635   1.269   0.806  0.7201  0.9099  1.4745
 4178TIP3    H234170   2.484   1.262   0.792  0.9387 -1.3664 -0.4951
 4179TIP3   OH234171   5.012   1.920   0.405  0.5843 -0.1213  0.8101
 4179TIP3    H134172   5.073   1.863   0.358 -1.2996 -2.8657  1.4250
 4179TIP3    H234173   4.927   1.902   0.364  0.0514  3.4740  0.0330
 4180TIP3   OH234174   3.670   2.206   0.472  0.4965 -0.0205  0.2791
 4180TIP3    H134175   3.677   2.165   0.558  4.0832  2.1209  1.2361
 4180TIP3    H234176   3.640   2.295   0.491  2.0644  0.7109 -0.5177
 4181TIP3   OH234177   1.604   5.579   1.168 -0.5284 -0.0256 -0.7760
 4181TIP3    H134178   1.621   5.627   1.087 -2.3495 -0.4604 -1.4763
 4181TIP3    H234179   1.690   5.567   1.209  0.1444  2.6026 -1.2566
 4182TIP3   OH234180   0.964   2.488   6.727  0.3080  0.5024  0.0403
 4182TIP3    H134181   1.043   2.438   6.749  2.4866  2.2194 -3.0863
 4182TIP3    H234182   0.936   2.526   6.811  1.1928 -2.2305  1.6954
 4183TIP3   OH234183   6.355   1.885   1.251 -0.1052  0.3220  0.3966
 4183TIP3    H134184   6.261   1.871   1.248  0.2511 -2.7521  0.0919
 4183TIP3    H234185   6.381   1.898   1.160 -0.3258  2.7131  0.6040
 4184TIP3   OH234186   6.806   1.970   0.379 -0.0839 -0.7744  0.1290
 4184TIP3    H134187   6.900   1.978   0.392 -0.1141 -1.0563  0.5309
 4184TIP3    H234188   6.789   2.019   0.298  0.3941 -0.6676  0.0892
 4185TIP3   OH234189   4.768   1.786   0.924 -0.6618 -0.0569 -0.2844
 4185TIP3    H134190   4.753   1.741   0.841  1.6559  2.0641 -1.9964
 4185TIP3    H234191   4.727   1.872   0.912  0.7707  0.7349  0.2382
 4186TIP3   OH234192   3.768   1.641   0.502 -0.3583  0.0836  0.4222
 4186TIP3    H134193   3.754   1.603   0.589  0.5861  3.2485  2.1075
 4186TIP3    H234194   3.808   1.726   0.519  4.1334 -0.8957 -3.2737
 4187TIP3   OH234195   1.718   1.256   2.087  0.2177 -0.3059 -0.1673
 4187TIP3    H134196   1.632   1.262   2.130 -0.9470  0.4373 -2.4467
 4187TIP3    H234197   1.778   1.299   2.148 -1.4819  1.3724  0.4072
 4188TIP3   OH234198   4.424   5.352   0.831 -0.5656 -0.1814 -0.4762
 4188TIP3    H134199   4.499   5.300   0.801 -1.3458 -1.0727 -0.9433
 4188TIP3    H234200   4.356   5.287   0.850 -0.5737  0.4656  1.9166
 4189TIP3   OH234201   4.465   5.164   1.262  0.2217  0.0884  0.2628
 4189TIP3    H134202   4.535   5.197   1.205  1.0867  0.7092  1.6346
 4189TIP3    H234203   4.387   5.211   1.233  0.7305  0.7337 -0.1127
 4190TIP3   OH234204   5.215   3.519   7.967 -0.1564  0.0238 -0.1509
 4190TIP3    H134205   5.291   3.576   7.960  1.3443 -1.9616 -0.8297
 4190TIP3    H234206   5.160   3.560   8.034  2.0027  0.9499  1.1297
 4191TIP3   OH234207   3.835   0.710   0.232 -0.1851 -0.2343 -0.4064
 4191TIP3    H134208   3.748   0.699   0.270 -1.2111  1.5561 -2.0866
 4191TIP3    H234209   3.865   0.620   0.215 -2.1581 -0.8717 -0.7775
 4192TIP3   OH234210   2.934   3.868   1.852 -0.0372 -0.1925  0.2922
 4192TIP3    H134211   3.014   3.919   1.863 -1.2274  1.5127  1.6974
 4192TIP3    H234212   2.897   3.862   1.940 -0.8337 -2.0573 -0.1125
 4193TIP3   OH234213   1.362   1.665   0.861 -0.1783 -0.0415  0.5101
 4193TIP3    H134214   1.383   1.588   0.915 -2.4242  0.3784  2.1210
 4193TIP3    H234215   1.275   1.647   0.827  1.2633 -0.4367 -3.4556
 4194TIP3   OH234216   3.305   5.600   1.079  0.4453 -0.3293 -0.0347
 4194TIP3    H134217   3.338   5.628   0.993 -1.5359  0.5712 -0.5485
 4194TIP3    H234218   3.290   5.506   1.070  0.6372 -0.3146 -0.5466
 4195TIP3   OH234219   2.753   4.952   7.599  0.1563 -0.1332 -0.0584
 4195TIP3    H134220   2.810   4.882   7.632  0.6709  0.1766 -0.2834
 4195TIP3    H234221   2.771   4.954   7.505 -1.8766 -1.5593 -0.5566
 4196TIP3   OH234222   0.447   2.535   8.412  0.0092  0.2251  0.0471
 4196TIP3    H134223   0.420   2.443   8.410 -3.1209  1.0106 -0.1512
 4196TIP3    H234224   0.410   2.572   8.332  0.2397  1.8865  0.6677
 4197TIP3   OH234225   6.971   4.100   6.883 -0.3681 -0.1147 -0.5011
 4197TIP3    H134226   7.061   4.074   6.903  0.1242  1.2701 -0.8270
 4197TIP3    H234227   6.966   4.096   6.787 -0.0078  1.7752 -0.6259
 4198TIP3   OH234228   1.580   3.803   7.417 -0.3503  0.0189 -0.1725
 4198TIP3    H134229   1.610   3.865   7.350 -0.6605 -0.8484 -1.1478
 4198TIP3    H234230   1.643   3.812   7.488 -0.6135  1.7251 -0.1092
 4199TIP3   OH234231   6.131   3.329   1.748 -0.0108  0.7755 -0.0800
 4199TIP3    H134232   6.052   3.359   1.793  0.4601  0.8745  0.6936
 4199TIP3    H234233   6.148   3.241   1.783  1.1082  1.3741  0.9369
 4200TIP3   OH234234   3.072   0.236   1.686  0.1468 -0.1794  0.3899
 4200TIP3    H134235   3.064   0.215   1.779 -0.1835  0.6861  0.5635
 4200TIP3    H234236   3.014   0.173   1.642  2.4807 -2.5422  0.4630
 4201TIP3   OH234237   4.374   2.721   1.717 -0.2693 -0.8282  0.6208
 4201TIP3    H134238   4.369   2.668   1.797  3.2831 -1.9304  0.2593
 4201TIP3    H234239   4.348   2.661   1.647  0.7343 -1.1927  0.5443
 4202TIP3   OH234240   4.031   4.612   1.430 -0.3182  0.2227  0.2407
 4202TIP3    H134241   4.067   4.699   1.417 -0.6672  0.4346  0.6690
 4202TIP3    H234242   4.107   4.554   1.427 -0.3089  0.2545 -2.4132
 4203TIP3   OH234243   3.415   3.720   7.642 -0.1923  0.1895  0.0595
 4203TIP3    H134244   3.341   3.659   7.640  0.6712 -0.8813 -2.4144
 4203TIP3    H234245   3.489   3.667   7.671  0.2855  0.4028 -0.7496
 4204TIP3   OH234246   0.165   1.533   8.300 -0.6146 -0.1573  0.3435
 4204TIP3    H134247   0.107   1.603   8.271 -0.7825 -1.2794 -2.3026
 4204TIP3    H234248   0.116   1.453   8.284  1.4010 -1.1303 -1.5869
 4205TIP3   OH234249   3.510   1.835   2.547  0.6885  0.7991 -0.2621
 4205TIP3    H134250   3.439   1.894   2.572  1.3548  1.1618  0.7898
 4205TIP3    H234251   3.502   1.761   2.608  0.4431  0.2203 -0.9679
 4206TIP3   OH234252   1.044   0.300   0.232 -0.0036  0.4303  0.5234
 4206TIP3    H134253   1.025   0.370   0.295  0.6341  0.3570  0.8029
 4206TIP3    H234254   1.122   0.330   0.185 -0.8131  0.7623 -0.6661
 4207TIP3   OH234255   2.057   1.058   7.048 -0.0571 -0.0645  0.4563
 4207TIP3    H134256   2.055   1.154   7.045  2.3445  0.0344 -2.3032
 4207TIP3    H234257   2.120   1.037   7.117  2.8971  0.6104 -1.8616
 4208TIP3   OH234258   5.425   2.849   7.427 -0.4900  0.4509  0.4578
 4208TIP3    H134259   5.460   2.927   7.470  0.1387  0.3557  0.1328
 4208TIP3    H234260   5.499   2.789   7.423 -0.1917  0.8737 -1.7739
 4209TIP3   OH234261   0.149   4.116   1.338 -0.1039 -0.1942  0.0551
 4209TIP3    H134262   0.228   4.158   1.372  0.4943  0.8431 -2.3900
 4209TIP3    H234263   0.086   4.187   1.328 -0.0106 -0.2876 -1.5484
 4210TIP3   OH234264   3.326   2.986   7.195 -0.3671 -0.1023  0.3539
 4210TIP3    H134265   3.322   2.891   7.184  0.2544 -0.0132 -0.7470
 4210TIP3    H234266   3.374   2.998   7.278  3.6260 -0.7575 -1.6212
 4211TIP3   OH234267   1.880   0.928   2.233  0.8099 -0.3892  0.2729
 4211TIP3    H134268   1.803   0.873   2.222 -0.6734  1.4737  0.7646
 4211TIP3    H234269   1.912   0.944   2.144 -0.1988 -0.0828 -0.0420
 4212TIP3   OH234270   0.456   3.325   7.581 -0.1395  0.9867 -0.5116
 4212TIP3    H134271   0.436   3.384   7.509  0.5412  2.1036  0.1738
 4212TIP3    H234272   0.399   3.250   7.568 -0.1504  1.2426 -2.1003
 4213TIP3   OH234273   5.780   0.058   0.375 -0.2269  0.0917 -0.5514
 4213TIP3    H134274   5.760   0.036   0.284 -0.4136 -1.2368 -0.2194
 4213TIP3    H234275   5.874   0.075   0.376 -0.4610  1.5099 -1.2335
 4214TIP3   OH234276   3.318   0.388   2.702  0.1972 -0.0210  0.7140
 4214TIP3    H134277   3.343   0.319   2.764 -0.7964 -0.0105  1.1491
 4214TIP3    H234278   3.287   0.340   2.625  1.2298 -0.0344  0.2853
 4215TIP3   OH234279   2.588   3.760   1.231 -0.0578  0.5236 -0.4777
 4215TIP3    H134280   2.602   3.717   1.315 -1.4561  0.3726 -0.2919
 4215TIP3    H234281   2.550   3.693   1.174 -2.3615  1.4319 -0.1522
 4216TIP3   OH234282   5.714   4.957   7.301 -0.5765  0.3960 -0.5583
 4216TIP3    H134283   5.726   5.047   7.273  0.4479  0.2789 -0.5460
 4216TIP3    H234284   5.672   4.964   7.387  0.5456  0.9195 -0.0254
 4217TIP3   OH234285   3.266   4.039   0.121  0.5326  0.0450  0.4572
 4217TIP3    H134286   3.343   4.011   0.072  1.1239 -1.2068  2.0071
 4217TIP3    H234287   3.248   3.966   0.181 -1.1164  0.8370  0.9918
 4218TIP3   OH234288   3.430   4.346   0.164  0.1214  0.5643  0.7359
 4218TIP3    H134289   3.361   4.342   0.230 -0.3057 -1.6835  0.2168
 4218TIP3    H234290   3.500   4.396   0.206 -0.4961 -0.0365  2.5626
 4219TIP3   OH234291   2.411   1.981   1.779 -0.3985  0.4767  0.1490
 4219TIP3    H134292   2.401   2.056   1.721 -0.7566  0.8704  0.7088
 4219TIP3    H234293   2.418   2.019   1.867 -1.0630 -0.1619  0.4900
 4220TIP3   OH234294   0.186   0.931   8.253 -0.1498 -0.8968 -0.0736
 4220TIP3    H134295   0.132   0.890   8.320  1.9516 -1.4386  1.4037
 4220TIP3    H234296   0.202   0.861   8.188  0.0192 -1.1911  0.2819
 4221TIP3   OH234297   1.882   6.278   7.404 -0.1720  0.2770  0.6913
 4221TIP3    H134298   1.938   6.348   7.368 -0.3619  0.7815  1.3554
 4221TIP3    H234299   1.944   6.211   7.434  0.2847  1.7441  3.3886
 4222TIP3   OH234300   1.329   5.885   6.361  0.2955  0.4974  0.0858
 4222TIP3    H134301   1.260   5.931   6.409  0.9737  1.9324 -0.2752
 4222TIP3    H234302   1.369   5.827   6.426 -1.0194 -0.1274  0.3758
 4223TIP3   OH234303   3.535   3.792   6.834 -0.2793  0.2310  0.2203
 4223TIP3    H134304   3.620   3.783   6.876  0.3491  0.3334 -0.9837
 4223TIP3    H234305   3.504   3.702   6.821 -0.6696  0.2053  1.2446
 4224TIP3   OH234306   6.432   0.034   1.013 -0.2139 -0.1414 -0.4728
 4224TIP3    H134307   6.355   0.031   1.070 -1.1701  1.0919 -1.6221
 4224TIP3    H234308   6.491   0.096   1.056 -0.0092 -0.7961  0.2137
 4225TIP3   OH234309   0.953   2.670   0.661  0.1300 -0.7306  0.1803
 4225TIP3    H134310   1.036   2.713   0.683  0.8783 -2.1446  0.2339
 4225TIP3    H234311   0.886   2.734   0.685  1.2074  0.8167 -0.7023
 4226TIP3   OH234312   5.577   0.432   1.855 -0.3606 -0.3329  0.5940
 4226TIP3    H134313   5.568   0.453   1.948 -1.0634 -0.4097  0.5478
 4226TIP3    H234314   5.529   0.351   1.843 -0.4888 -0.1909  0.1109
 4227TIP3   OH234315   3.212   5.212   7.284 -0.5487  0.3079  0.0755
 4227TIP3    H134316   3.215   5.307   7.281 -1.1980  0.3622  0.9737
 4227TIP3    H234317   3.292   5.188   7.332 -0.4790  0.4088  0.0111
 4228TIP3   OH234318   3.382   3.903   0.368  0.0655 -0.4434 -0.2783
 4228TIP3    H134319   3.457   3.851   0.341  1.7238  0.6992  1.8071
 4228TIP3    H234320   3.398   3.922   0.461 -0.4903  3.6110 -0.8343
 4229TIP3   OH234321   4.394   1.168   7.850  0.1810 -0.0290  0.1354
 4229TIP3    H134322   4.482   1.147   7.882  0.0215 -0.5641  0.2366
 4229TIP3    H234323   4.395   1.140   7.758  0.6249  1.4642 -0.3411
 4230TIP3   OH234324   3.050   6.420   2.337 -0.2214 -0.1695 -0.4230
 4230TIP3    H134325   3.124   6.359   2.331  0.2377  0.5297 -2.6231
 4230TIP3    H234326   3.079   6.498   2.289 -1.3891  1.1948  0.9908
 4231TIP3   OH234327   5.188   6.729   1.248 -0.0631 -0.4270 -0.3019
 4231TIP3    H134328   5.257   6.730   1.181 -0.7799 -0.3379 -1.0522
 4231TIP3    H234329   5.236   6.725   1.331  0.8412 -0.8137 -0.8194
 4232TIP3   OH234330   2.938   0.863   2.375 -0.5328  0.0274  0.2388
 4232TIP3    H134331   2.996   0.808   2.428  1.2365 -0.3017 -1.8813
 4232TIP3    H234332   2.880   0.802   2.331 -1.5446  0.2491  1.2251
 4233TIP3   OH234333   2.116   2.401   0.579  0.0995 -0.0039  0.4338
 4233TIP3    H134334   2.129   2.486   0.620 -0.4276 -0.2017  1.0233
 4233TIP3    H234335   2.039   2.412   0.524 -0.2192 -0.2095  0.8333
 4234TIP3   OH234336   5.576   2.784   7.708 -0.5839 -0.0081  0.5948
 4234TIP3    H134337   5.592   2.811   7.798 -0.5520 -0.5515  0.7560
 4234TIP3    H234338   5.633   2.840   7.655 -1.5202  1.1751  0.8073
 4235TIP3   OH234339   1.223   6.112   7.908  0.7128 -0.7545 -0.1057
 4235TIP3    H134340   1.173   6.033   7.929  0.9224 -1.0397 -0.6458
 4235TIP3    H234341   1.228   6.113   7.812 -1.5894  1.3721 -0.2961
 4236TIP3   OH234342   5.740   3.532   8.386  0.5360  0.0576  0.2229
 4236TIP3    H134343   5.798   3.605   8.407  1.1588 -0.3403 -0.0818
 4236TIP3    H234344   5.694   3.513   8.468  0.2071  0.9199  0.2532
 4237TIP3   OH234345   3.037   2.755   6.978 -0.1789  0.3000  0.5774
 4237TIP3    H134346   3.123   2.797   6.971  0.5151 -0.8887  1.6023
 4237TIP3    H234347   3.027   2.707   6.896 -0.0200  0.7146  0.3126
 4238TIP3   OH234348   6.080   5.883   0.643 -0.3261  0.2851 -0.0325
 4238TIP3    H134349   6.053   5.867   0.553  1.4678 -2.0363 -0.2325
 4238TIP3    H234350   6.038   5.813   0.693 -0.6347  1.0659  0.8410
 4239TIP3   OH234351   1.732   5.029   2.392  0.4835 -0.6059 -0.5075
 4239TIP3    H134352   1.766   4.944   2.365  1.5795 -0.1252 -0.6797
 4239TIP3    H234353   1.809   5.078   2.421 -0.4109 -0.4720  1.8454
 4240TIP3   OH234354   2.298   3.581   6.804 -0.5489  0.1250  0.3765
 4240TIP3    H134355   2.389   3.585   6.834 -0.8143  1.4922  1.0657
 4240TIP3    H234356   2.291   3.652   6.740 -1.0866 -0.0742  0.2134
 4241TIP3   OH234357   1.389   4.293   0.776 -0.2560 -0.1353 -0.0097
 4241TIP3    H134358   1.373   4.383   0.746 -0.2022  0.3436  1.3517
 4241TIP3    H234359   1.476   4.272   0.744  1.0021  1.4166  2.1500
 4242TIP3   OH234360   3.171   3.764   6.778 -0.0262  0.0409 -0.3617
 4242TIP3    H134361   3.186   3.677   6.815 -1.0063 -0.4550 -1.0403
 4242TIP3    H234362   3.140   3.746   6.689  1.0170  1.1392 -0.9655
 4243TIP3   OH234363   5.911   0.188   1.269  0.8763 -0.2720  0.3915
 4243TIP3    H134364   5.892   0.281   1.256  0.3432 -0.3647  0.4627
 4243TIP3    H234365   5.875   0.168   1.356  0.1701 -0.7512 -0.0016
 4244TIP3   OH234366   5.720   1.244   0.839 -0.3873  0.2856  0.2790
 4244TIP3    H134367   5.628   1.263   0.855 -0.4309  0.5339 -0.2292
 4244TIP3    H234368   5.753   1.207   0.921 -0.6615  1.2169  0.8134
 4245TIP3   OH234369   0.063   5.558   2.728  0.2734  0.1844  0.3608
 4245TIP3    H134370   0.138   5.576   2.784  0.3300 -0.4105  0.4813
 4245TIP3    H234371   0.093   5.489   2.669 -0.2145 -0.1508  0.4944
 4246TIP3   OH234372   4.128   0.200   7.688  0.3339 -0.0582  0.5126
 4246TIP3    H134373   4.209   0.171   7.647 -0.4428 -0.7300 -0.5835
 4246TIP3    H234374   4.082   0.119   7.711 -0.1424  0.3131  0.8920
 4247TIP3   OH234375   2.645   2.428   1.539  0.2246 -0.5782 -0.3202
 4247TIP3    H134376   2.738   2.429   1.517  0.1567  1.2532 -0.6133
 4247TIP3    H234377   2.608   2.502   1.492 -0.8403  0.5076  2.0424
 4248TIP3   OH234378   0.985   5.518   1.383  0.7083  0.0065 -0.2178
 4248TIP3    H134379   1.060   5.566   1.348 -0.5068  0.8049 -1.8829
 4248TIP3    H234380   0.994   5.525   1.478  2.4910  0.4229 -0.3804
 4249TIP3   OH234381   5.449   0.118   7.309  0.0334  0.1623  0.2144
 4249TIP3    H134382   5.407   0.193   7.352 -0.9912 -0.4725  0.3360
 4249TIP3    H234383   5.380   0.079   7.256  1.3769  1.2857 -2.5910
 4250TIP3   OH234384   3.120   6.737   0.721  0.5005 -0.0374  0.1860
 4250TIP3    H134385   3.157   6.734   0.809 -0.8507 -1.4303  0.7657
 4250TIP3    H234386   3.181   6.790   0.671  0.4358  2.2479  2.3534
 4251TIP3   OH234387   5.819   5.002   1.339  0.0362  0.4571 -0.0603
 4251TIP3    H134388   5.785   5.067   1.401  1.2099 -0.5866  1.7594
 4251TIP3    H234389   5.913   4.999   1.356  0.5306  0.5848 -2.3891
 4252TIP3   OH234390   0.791   5.281   0.320  0.7179  0.1277 -0.3836
 4252TIP3    H134391   0.764   5.370   0.341  0.1707  0.4236 -2.1907
 4252TIP3    H234392   0.884   5.278   0.341  0.0234 -0.0834  3.3677
 4253TIP3   OH234393   0.995   2.200   7.667  0.7983  0.0987 -0.2964
 4253TIP3    H134394   1.064   2.205   7.732 -0.3981 -1.5898  1.1857
 4253TIP3    H234395   0.975   2.292   7.646  0.8911  0.7280  2.1100
 4254TIP3   OH234396   3.481   3.414   7.757 -0.0093 -0.0336  0.3571
 4254TIP3    H134397   3.389   3.415   7.732 -0.3129  0.0566  1.4553
 4254TIP3    H234398   3.489   3.342   7.819  0.2876  1.0186  1.5881
 4255TIP3   OH234399   5.660   3.603   1.524  0.1036 -0.5446 -0.3684
 4255TIP3    H134400   5.702   3.539   1.466  0.7764 -0.8546  0.4434
 4255TIP3    H234401   5.622   3.551   1.594 -2.3849 -0.3523 -1.4686
 4256TIP3   OH234402   5.472   2.340   7.061 -0.4992 -0.4452 -0.0306
 4256TIP3    H134403   5.556   2.313   7.097 -1.3254 -0.9665  1.6408
 4256TIP3    H234404   5.490   2.422   7.016  1.4737 -2.0553 -2.4495
 4257TIP3   OH234405   6.553   2.403   6.989 -0.2416  0.2419 -0.3793
 4257TIP3    H134406   6.503   2.322   6.985 -0.9142  0.5108  1.6729
 4257TIP3    H234407   6.634   2.380   7.035 -0.9457  0.9271  1.2786
 4258TIP3   OH234408   6.048   6.977   0.217  0.9080  0.1700 -0.7946
 4258TIP3    H134409   6.104   6.908   0.254  1.9877  1.0705 -0.6729
 4258TIP3    H234410   6.084   6.992   0.130  1.0321  0.9544 -0.6123
 4259TIP3   OH234411   3.048   5.641   0.101 -0.3159 -0.0315 -0.2750
 4259TIP3    H134412   3.020   5.644   0.193  0.3462 -2.1148  0.0590
 4259TIP3    H234413   3.134   5.682   0.101  0.2362 -1.1303  0.3226
 4260TIP3   OH234414   4.010   3.037   8.316 -0.4669  0.5429  0.0042
 4260TIP3    H134415   4.054   3.119   8.336 -1.1579  0.8810  0.1480
 4260TIP3    H234416   4.081   2.974   8.306  0.0101  0.8836  1.1105
 4261TIP3   OH234417   5.844   4.418   0.379  0.0440  1.1316  0.1662
 4261TIP3    H134418   5.834   4.333   0.337  1.4300  1.7287 -1.4847
 4261TIP3    H234419   5.863   4.398   0.471 -1.5422 -0.2454  0.2458
 4262TIP3   OH234420   4.314   0.986   8.216 -0.1571  0.3214  0.0728
 4262TIP3    H134421   4.321   0.930   8.293  1.1478  1.9566  1.1804
 4262TIP3    H234422   4.264   0.933   8.153  2.2392 -2.7025  0.4918
 4263TIP3   OH234423   2.268   6.101   6.916  0.2899  0.0909  0.0495
 4263TIP3    H134424   2.337   6.097   6.982  0.6555 -0.3665 -0.3482
 4263TIP3    H234425   2.257   6.011   6.887  0.7211  0.3818 -1.0848
 4264TIP3   OH234426   6.069   4.265   1.271  0.2274  0.2571  0.4722
 4264TIP3    H134427   6.083   4.335   1.335 -0.2264 -0.0755  0.9483
 4264TIP3    H234428   5.988   4.291   1.226 -1.3636 -1.1316  2.3221
 4265TIP3   OH234429   0.593   0.374   7.066 -0.1776 -0.4414  0.6359
 4265TIP3    H134430   0.580   0.346   6.975  0.3897 -0.4924  0.5694
 4265TIP3    H234431   0.583   0.469   7.064  2.8760 -0.0324 -0.0625
 4266TIP3   OH234432   5.089   3.110   8.105  0.2896  0.3281 -0.3954
 4266TIP3    H134433   5.111   3.174   8.173 -0.7427 -0.9418  1.1803
 4266TIP3    H234434   5.170   3.060   8.092  0.3163  0.1473  0.4019
 4267TIP3   OH234435   6.732   2.745   1.232 -0.0956  0.8361 -0.6106
 4267TIP3    H134436   6.717   2.796   1.152  0.9200  0.2118 -1.2230
 4267TIP3    H234437   6.663   2.774   1.292 -0.6734  1.5656 -1.5880
 4268TIP3   OH234438   5.984   1.608   6.456 -0.3906  0.3167 -0.0125
 4268TIP3    H134439   5.981   1.693   6.412 -1.1821  0.1891 -0.2330
 4268TIP3    H234440   5.894   1.593   6.485  0.1427  0.4539  1.8054
 4269TIP3   OH234441   1.965   6.089   2.305 -0.1539 -0.5543  0.7030
 4269TIP3    H134442   1.920   6.005   2.293 -0.3955 -0.3310  0.0483
 4269TIP3    H234443   2.056   6.065   2.322 -0.3480 -0.9729  1.1940
 4270TIP3   OH234444   6.790   3.721   7.187  0.4699  0.1827  0.0758
 4270TIP3    H134445   6.845   3.800   7.186 -0.4636  0.8946  1.7510
 4270TIP3    H234446   6.718   3.742   7.246 -2.1976 -0.3882 -2.7239
 4271TIP3   OH234447   4.365   0.108   7.948  0.2042 -0.3419  0.5436
 4271TIP3    H134448   4.363   0.096   8.043 -1.4676 -0.0676  0.5821
 4271TIP3    H234449   4.315   0.035   7.913 -0.6654  0.4750  0.0132
 4272TIP3   OH234450   0.680   1.992   7.434  0.1763  0.0128  0.1182
 4272TIP3    H134451   0.755   2.025   7.384 -0.8761  1.3814 -0.6049
 4272TIP3    H234452   0.678   1.898   7.413  0.9937  0.1667 -0.7507
 4273TIP3   OH234453   1.775   6.984   1.619 -0.2721 -0.2159  0.5347
 4273TIP3    H134454   1.692   6.940   1.632 -0.4097  0.2009  1.1417
 4273TIP3    H234455   1.782   7.045   1.693  0.3396  0.1067  0.2267
 4274TIP3   OH234456   1.519   6.788   1.304  0.2713 -0.0444  0.7771
 4274TIP3    H134457   1.466   6.868   1.302  1.5025  0.8321  1.6058
 4274TIP3    H234458   1.608   6.818   1.285  0.4650 -1.5113 -0.8676
 4275TIP3   OH234459   2.810   6.109   6.293 -0.3214 -0.4067 -0.0647
 4275TIP3    H134460   2.791   6.041   6.357 -0.1988  1.0768  1.6231
 4275TIP3    H234461   2.785   6.191   6.336  1.7461  0.8489 -1.0910
 4276TIP3   OH234462   0.736   5.043   0.536 -0.1090  0.0866  0.2366
 4276TIP3    H134463   0.771   5.087   0.458  0.0036  1.8086  1.1931
 4276TIP3    H234464   0.721   4.953   0.508 -1.2917  0.9243 -2.1604
 4277TIP3   OH234465   4.657   4.766   6.116  0.1066  0.6225 -0.6491
 4277TIP3    H134466   4.567   4.769   6.149 -0.0324 -0.8701 -0.8061
 4277TIP3    H234467   4.700   4.701   6.172  0.5431 -0.1180 -1.8185
 4278TIP3   OH234468   2.222   0.920   7.890 -0.1330  0.5826  0.7424
 4278TIP3    H134469   2.247   0.831   7.865 -1.5662  0.6488 -1.1667
 4278TIP3    H234470   2.131   0.913   7.920 -0.0816  1.3262  1.1177
 4279TIP3   OH234471   5.794   4.240   0.584  0.0166 -0.3131  0.4751
 4279TIP3    H134472   5.806   4.220   0.492 -1.6254 -0.5459  0.2760
 4279TIP3    H234473   5.803   4.156   0.629  1.4311 -0.1013  0.6135
 4280TIP3   OH234474   6.127   6.853   6.506 -0.2139 -0.2455  0.0923
 4280TIP3    H134475   6.053   6.877   6.449  1.0357 -0.4374 -1.7127
 4280TIP3    H234476   6.136   6.759   6.495 -0.4609 -0.4214  1.2967
 4281TIP3   OH234477   3.663   3.365   7.528  0.0003  0.5222 -0.1182
 4281TIP3    H134478   3.601   3.384   7.599  1.4364  1.2515  0.9872
 4281TIP3    H234479   3.745   3.405   7.557  0.6648  0.6932 -2.1378
 4282TIP3   OH234480   2.920   1.647   2.421  0.3485 -0.3368 -0.4029
 4282TIP3    H134481   2.835   1.639   2.378 -0.2749  0.1219  0.6840
 4282TIP3    H234482   2.907   1.604   2.506  1.6872 -1.6635 -0.8426
 4283TIP3   OH234483   5.068   6.313   8.229  0.2283 -0.2007  0.2393
 4283TIP3    H134484   5.082   6.396   8.182 -0.2050 -0.2451  0.0220
 4283TIP3    H234485   5.063   6.247   8.160 -0.4967 -0.2557  0.3368
 4284TIP3   OH234486   0.580   6.564   7.801 -0.4191  0.3415 -0.2782
 4284TIP3    H134487   0.522   6.553   7.876  1.3138 -1.9468  0.8464
 4284TIP3    H234488   0.668   6.567   7.839  0.4035  1.0189 -2.1018
 4285TIP3   OH234489   6.121   3.811   7.852 -0.2730 -0.1515 -0.5515
 4285TIP3    H134490   6.163   3.852   7.928 -0.9325  1.9873 -1.2670
 4285TIP3    H234491   6.127   3.717   7.869 -0.4121  0.2558  2.1469
 4286TIP3   OH234492   3.611   6.226   1.454 -0.4096 -0.0850 -0.1585
 4286TIP3    H134493   3.560   6.226   1.374 -0.3010 -0.5259 -0.2282
 4286TIP3    H234494   3.595   6.141   1.494 -0.8954  0.3338  0.5705
 4287TIP3   OH234495   1.237   3.205   6.819 -0.2270 -0.6539 -1.0128
 4287TIP3    H134496   1.274   3.218   6.906 -0.5291 -1.1334 -0.8124
 4287TIP3    H234497   1.281   3.271   6.764 -1.3004  0.8505 -0.1426
 4288TIP3   OH234498   0.566   3.403   2.085  0.2022 -0.2937 -0.5076
 4288TIP3    H134499   0.540   3.477   2.030  0.5919 -0.2869 -0.6838
 4288TIP3    H234500   0.662   3.406   2.086  0.2962 -1.6681 -1.7535
 4289TIP3   OH234501   2.555   0.819   1.465 -0.7425 -0.2459  0.1161
 4289TIP3    H134502   2.585   0.905   1.435  0.9466 -1.0592 -0.6501
 4289TIP3    H234503   2.549   0.766   1.386 -0.4811 -1.2094  0.7194
 4290TIP3   OH234504   0.760   4.265   1.641 -0.4779 -0.3654 -0.0731
 4290TIP3    H134505   0.774   4.187   1.694 -1.0971 -1.3123 -1.2333
 4290TIP3    H234506   0.844   4.310   1.640  0.6312 -2.3209 -1.3649
 4291TIP3   OH234507   1.001   4.679   6.824 -0.1158  0.4583  0.6059
 4291TIP3    H134508   0.996   4.586   6.799 -0.4554  1.0690 -1.7978
 4291TIP3    H234509   0.958   4.682   6.910 -2.6819 -1.2214 -0.4979
 4292TIP3   OH234510   6.436   0.314   7.113  0.7267 -0.2728 -0.3625
 4292TIP3    H134511   6.409   0.362   7.035  1.8698  0.3464 -0.4117
 4292TIP3    H234512   6.460   0.227   7.082 -0.7320 -0.6846 -0.3784
 4293TIP3   OH234513   1.260   6.870   6.500 -0.4394  0.2516 -0.6467
 4293TIP3    H134514   1.339   6.816   6.493 -1.2565 -0.9535 -0.8248
 4293TIP3    H234515   1.188   6.812   6.474 -1.2572  1.7093 -1.8568
 4294TIP3   OH234516   6.535   3.167   7.271  0.7209  1.0780  0.3409
 4294TIP3    H134517   6.592   3.161   7.194 -0.2412  0.2810 -0.3371
 4294TIP3    H234518   6.452   3.201   7.237 -0.0120 -0.1448  0.8463
 4295TIP3   OH234519   2.016   2.432   6.797  0.1070 -0.1703  0.7483
 4295TIP3    H134520   1.975   2.385   6.724 -0.6695 -0.6553  1.4806
 4295TIP3    H234521   1.942   2.466   6.848  0.6480  0.7889  0.9218
 4296TIP3   OH234522   1.519   0.622   7.846  0.3006 -0.1898 -0.0418
 4296TIP3    H134523   1.445   0.566   7.821 -0.2207  0.6920 -0.5145
 4296TIP3    H234524   1.506   0.703   7.796  2.4250 -0.5725 -1.3853
 4297TIP3   OH234525   3.018   1.559   1.602  0.0374  0.0614  0.4958
 4297TIP3    H134526   3.010   1.560   1.506  1.3706 -0.1187  0.3724
 4297TIP3    H234527   2.997   1.469   1.627  2.0390 -0.5567  0.1247
 4298TIP3   OH234528   1.992   6.647   2.128  0.6561  0.0985  0.0849
 4298TIP3    H134529   2.000   6.742   2.138 -1.9628  0.2061  2.1298
 4298TIP3    H234530   1.900   6.632   2.107  1.5171 -1.8989 -3.0701
 4299TIP3   OH234531   6.608   0.408   7.343 -0.0018  0.3556 -0.5538
 4299TIP3    H134532   6.660   0.333   7.374 -0.9865 -0.2795 -0.4134
 4299TIP3    H234533   6.582   0.384   7.254 -1.7115 -0.2378  0.0632
 4300TIP3   OH234534   4.601   2.234   7.229  0.1181  0.7231 -0.5265
 4300TIP3    H134535   4.545   2.174   7.180 -0.8622  0.4849  0.8353
 4300TIP3    H234536   4.544   2.307   7.252  0.2198  0.2793  1.2404
 4301TIP3   OH234537   1.578   4.962   1.865  0.5008  0.1849 -0.2467
 4301TIP3    H134538   1.588   4.948   1.959  4.9787 -0.8136 -0.6761
 4301TIP3    H234539   1.629   5.042   1.847 -0.3444  0.4114 -1.8405
 4302TIP3   OH234540   2.813   3.493   7.541  0.6079  0.9038 -0.0906
 4302TIP3    H134541   2.762   3.472   7.618  1.3641 -0.6896  0.0196
 4302TIP3    H234542   2.793   3.584   7.523  1.1128  1.6225  2.5358
 4303TIP3   OH234543   2.602   6.541   7.466  0.3584 -0.3629 -0.1914
 4303TIP3    H134544   2.629   6.550   7.557 -0.6378 -1.2909  0.2187
 4303TIP3    H234545   2.673   6.582   7.416  0.3273  1.3094  1.0389
 4304TIP3   OH234546   6.921   1.374   8.251  0.7278 -0.3457  0.3352
 4304TIP3    H134547   6.917   1.331   8.337  2.1601 -0.7072  0.2407
 4304TIP3    H234548   6.973   1.314   8.197  2.5149  1.3425  0.1005
 4305TIP3   OH234549   0.455   0.249   0.305  0.1933  0.1242 -0.3491
 4305TIP3    H134550   0.487   0.293   0.384 -0.5236 -1.6874  1.0241
 4305TIP3    H234551   0.487   0.303   0.233  2.4972  0.8333  1.0913
 4306TIP3   OH234552   4.784   3.502   1.107 -0.3582  0.4186 -0.4296
 4306TIP3    H134553   4.851   3.570   1.099  1.0554 -1.0025 -1.4513
 4306TIP3    H234554   4.704   3.543   1.075  0.1198  2.0212  0.3401
 4307TIP3   OH234555   4.738   2.533   0.776  0.1677 -0.1021 -0.0808
 4307TIP3    H134556   4.815   2.561   0.826 -1.5149  3.6571  0.6785
 4307TIP3    H234557   4.770   2.525   0.686  1.5601  0.8908  0.2892
 4308TIP3   OH234558   6.440   6.836   0.516 -0.0011  0.9437 -0.6355
 4308TIP3    H134559   6.533   6.851   0.532 -0.1116  2.9385 -1.5382
 4308TIP3    H234560   6.424   6.874   0.429 -1.2807 -1.1237 -1.3829
 4309TIP3   OH234561   6.117   4.678   1.144  0.0441  0.1101 -0.0327
 4309TIP3    H134562   6.189   4.617   1.130 -0.2789 -0.2756 -0.0481
 4309TIP3    H234563   6.041   4.622   1.159 -0.4025  0.5075 -0.7401
 4310TIP3   OH234564   3.002   0.625   7.334  0.4051  0.4455  0.2118
 4310TIP3    H134565   3.025   0.566   7.406 -0.5083 -0.0666  0.0989
 4310TIP3    H234566   3.072   0.691   7.334  2.3195 -1.4636 -0.6482
 4311TIP3   OH234567   1.793   2.597   0.830  0.0875 -0.0507  0.2658
 4311TIP3    H134568   1.858   2.604   0.761  1.1443 -1.0809  1.1109
 4311TIP3    H234569   1.718   2.647   0.798  1.2732  1.1427 -0.7354
 4312TIP3   OH234570   2.322   5.615   7.648 -0.0197 -0.3209  0.1574
 4312TIP3    H134571   2.246   5.587   7.597  0.4594 -0.6300 -0.3953
 4312TIP3    H234572   2.392   5.625   7.584  0.6026 -0.7319  0.7518
 4313TIP3   OH234573   2.025   5.648   0.147 -0.0136 -0.3009 -0.2498
 4313TIP3    H134574   2.008   5.609   0.061  0.1224  1.0527 -0.9157
 4313TIP3    H234575   1.939   5.651   0.188 -0.2106 -0.2625 -0.6538
 4314TIP3   OH234576   0.366   4.480   7.405  0.3730 -0.1705  0.4000
 4314TIP3    H134577   0.297   4.414   7.414 -0.5149  0.6509 -0.1734
 4314TIP3    H234578   0.363   4.528   7.488  0.1844 -0.0703  0.3359
 4315TIP3   OH234579   2.235   1.349   7.657  0.7698  0.0420  0.3125
 4315TIP3    H134580   2.191   1.342   7.742 -0.7962 -2.0798 -0.5837
 4315TIP3    H234581   2.164   1.369   7.595  1.9784  2.2158 -0.4641
 4316TIP3   OH234582   6.109   2.142   1.112  0.2622 -0.2118  0.1284
 4316TIP3    H134583   6.027   2.180   1.145  0.4371 -2.0583  3.0619
 4316TIP3    H234584   6.177   2.177   1.169  1.4089  0.3467 -1.5048
 4317TIP3   OH234585   5.288   0.795   0.336 -0.2595  0.2093 -0.1105
 4317TIP3    H134586   5.205   0.765   0.373  0.8341 -2.2471  0.5636
 4317TIP3    H234587   5.310   0.730   0.269  1.0938  0.8070 -0.2914
 4318TIP3   OH234588   1.623   2.591   1.084  0.6988 -0.5835 -0.0158
 4318TIP3    H134589   1.548   2.536   1.109  0.5176  0.5102  2.1047
 4318TIP3    H234590   1.648   2.560   0.997 -1.7043 -1.5241 -0.4468
 4319TIP3   OH234591   5.428   6.074   8.293 -0.0459 -0.0820 -0.2104
 4319TIP3    H134592   5.456   5.991   8.333 -0.4526 -0.5703 -0.9273
 4319TIP3    H234593   5.334   6.078   8.310 -0.0184  0.2714 -0.1278
 4320TIP3   OH234594   6.775   3.212   7.406 -0.7931  0.2216 -0.2272
 4320TIP3    H134595   6.698   3.176   7.363 -1.6701  0.2885  1.2459
 4320TIP3    H234596   6.741   3.273   7.471  0.1643 -2.8198  3.4920
 4321TIP3   OH234597   4.855   2.518   1.043  0.5157 -0.2615  0.3318
 4321TIP3    H134598   4.802   2.439   1.034  1.1552 -0.6132 -0.5144
 4321TIP3    H234599   4.915   2.499   1.115  0.1025 -0.2161  0.6881
 4322TIP3   OH234600   1.915   4.037   6.659 -0.3570  0.3820  0.8003
 4322TIP3    H134601   1.996   4.005   6.696  0.2697  1.1997  0.1737
 4322TIP3    H234602   1.869   3.958   6.629  0.2684 -0.0677  1.0237
 4323TIP3   OH234603   2.159   5.303   2.424  0.2670  0.4380 -1.0317
 4323TIP3    H134604   2.201   5.218   2.441 -0.5682 -0.0619 -1.4307
 4323TIP3    H234605   2.200   5.335   2.344  1.5274  1.0484 -0.1829
 4324TIP3   OH234606   5.577   0.879   2.065 -0.0929  0.5454 -0.0435
 4324TIP3    H134607   5.587   0.786   2.084  0.7286  0.5749 -0.2874
 4324TIP3    H234608   5.482   0.893   2.061 -0.2213 -0.3594 -0.3934
 4325TIP3   OH234609   5.153   1.807   1.267  0.3204  0.6792 -0.2625
 4325TIP3    H134610   5.085   1.763   1.318  0.2959  0.1701 -0.7227
 4325TIP3    H234611   5.197   1.864   1.329  0.3644 -0.0193  0.3500
 4326TIP3   OH234612   4.755   6.614   1.634  0.2554 -0.2324  0.3505
 4326TIP3    H134613   4.797   6.698   1.613  0.3054 -0.4259 -0.3478
 4326TIP3    H234614   4.739   6.618   1.729  1.3463  0.0749  0.5354
 4327TIP3   OH234615   1.026   6.273   0.016 -0.0949  0.4391 -0.0230
 4327TIP3    H134616   0.942   6.309   0.045  0.5488  1.0139  1.1645
 4327TIP3    H234617   1.050   6.328  -0.059  0.8559  2.5763  1.7317
 4328TIP3   OH234618   3.289   5.091   1.338 -0.4191 -0.1320 -0.2774
 4328TIP3    H134619   3.235   5.080   1.416 -0.1436 -1.4873 -0.2519
 4328TIP3    H234620   3.275   5.182   1.312 -1.0645  0.1400  0.9356
 4329TIP3   OH234621   4.836   5.643   7.843 -0.2449 -0.1853  0.6579
 4329TIP3    H134622   4.795   5.688   7.917  0.4276  0.0385  0.9038
 4329TIP3    H234623   4.917   5.691   7.828 -1.3633  1.1587 -1.6420
 4330TIP3   OH234624   0.589   4.195   7.967 -0.1487  0.1796  0.1474
 4330TIP3    H134625   0.560   4.285   7.981  0.7331  0.3296  1.1300
 4330TIP3    H234626   0.673   4.203   7.924  1.3132 -0.0346  2.7395
 4331TIP3   OH234627   0.664   1.479   0.390  0.4540  0.9470 -0.1358
 4331TIP3    H134628   0.733   1.467   0.454  0.3191 -1.4847 -0.3455
 4331TIP3    H234629   0.601   1.537   0.433 -0.3749 -1.7423  2.6308
 4332TIP3   OH234630   5.254   2.517   7.532  0.1474 -0.0734 -0.3283
 4332TIP3    H134631   5.190   2.528   7.462 -0.9466 -0.4521  0.5935
 4332TIP3    H234632   5.245   2.595   7.586 -1.5067 -1.3302  1.3324
 4333TIP3   OH234633   2.019   0.194   6.912 -0.1063 -0.8030  0.2624
 4333TIP3    H134634   1.936   0.151   6.937 -0.8872  1.6385  2.2660
 4333TIP3    H234635   2.078   0.175   6.985  0.0339  0.1914  0.4134
 4334TIP3   OH234636   1.863   6.725   1.563 -0.0639 -0.6143 -0.0365
 4334TIP3    H134637   1.859   6.815   1.593  0.9902 -0.8524  0.8803
 4334TIP3    H234638   1.785   6.684   1.600  1.3703 -1.0001  2.8477
 4335TIP3   OH234639   4.292   3.453   2.333 -0.2530 -0.2215  0.1477
 4335TIP3    H134640   4.356   3.396   2.377  1.3218  0.7153 -0.8104
 4335TIP3    H234641   4.343   3.530   2.307 -1.9104  0.7944 -0.2424
 4336TIP3   OH234642   2.289   1.416   6.988  0.0633  0.8046 -0.0445
 4336TIP3    H134643   2.318   1.334   7.026 -2.5607 -0.4769 -0.5331
 4336TIP3    H234644   2.255   1.392   6.902  0.0222  2.5511 -0.5569
 4337TIP3   OH234645   5.421   2.911   6.563 -0.1057  0.4577  0.0854
 4337TIP3    H134646   5.351   2.945   6.618  1.1606  0.2982  1.9079
 4337TIP3    H234647   5.501   2.928   6.613  0.9441 -1.4169 -0.8189
 4338TIP3   OH234648   1.702   2.153   1.114 -0.3828 -0.0634 -0.2206
 4338TIP3    H134649   1.699   2.065   1.075  0.7138 -0.1636 -0.1216
 4338TIP3    H234650   1.727   2.137   1.205 -1.2989  0.2820  0.0944
 4339TIP3   OH234651   1.116   3.503   8.231 -0.0048  0.3383  0.1921
 4339TIP3    H134652   1.065   3.429   8.197  0.1944  1.2156 -2.1847
 4339TIP3    H234653   1.052   3.556   8.279 -1.2179  0.9113 -1.9234
 4340TIP3   OH234654   2.208   3.936   6.757  0.8341 -0.1490 -0.2119
 4340TIP3    H134655   2.253   3.880   6.694  1.3839  0.5938 -0.4773
 4340TIP3    H234656   2.255   4.019   6.755 -0.4796  0.6252 -0.4372
 4341TIP3   OH234657   5.658   5.224   1.201  0.2831  0.1446  0.1172
 4341TIP3    H134658   5.639   5.228   1.295  0.1984 -2.9275  0.3457
 4341TIP3    H234659   5.744   5.181   1.196  0.0425 -0.2355 -1.1925
 4342TIP3   OH234660   1.898   1.620   8.437  0.0839 -0.3520 -0.3845
 4342TIP3    H134661   1.833   1.552   8.419  1.1465 -1.4839 -0.0524
 4342TIP3    H234662   1.904   1.670   8.356  1.5955 -2.6519 -1.8229
 4343TIP3   OH234663   0.143   0.850   6.903  0.1706 -0.1328 -0.1223
 4343TIP3    H134664   0.225   0.832   6.857  0.4545  2.9909 -1.0745
 4343TIP3    H234665   0.076   0.848   6.835 -0.1926 -0.3923  0.2347
 4344TIP3   OH234666   3.878   5.025   0.603  0.2982  0.1065  0.5114
 4344TIP3    H134667   3.813   5.086   0.570 -0.1727  0.0079  1.2394
 4344TIP3    H234668   3.961   5.071   0.594  0.3726 -0.3608 -1.9145
 4345TIP3   OH234669   1.256   0.886   0.575 -0.5376 -0.5362 -0.3402
 4345TIP3    H134670   1.221   0.815   0.521  2.5634 -1.8891 -0.8303
 4345TIP3    H234671   1.289   0.949   0.512 -3.3117  1.5280  0.0936
 4346TIP3   OH234672   6.700   2.716   7.749 -0.2896  0.0100  0.0309
 4346TIP3    H134673   6.736   2.761   7.825 -1.8071  0.7274  0.3634
 4346TIP3    H234674   6.771   2.718   7.684  0.5270  0.6592  0.9196
 4347TIP3   OH234675   2.311   4.108   0.670 -0.1417 -0.5083 -0.0817
 4347TIP3    H134676   2.376   4.063   0.724 -0.6581 -2.8573 -1.2804
 4347TIP3    H234677   2.227   4.077   0.702 -0.4661 -1.7801 -1.9575
 4348TIP3   OH234678   3.473   2.659   1.005  0.1018  0.2113 -0.5899
 4348TIP3    H134679   3.446   2.751   1.004 -2.8218 -0.5347  0.7722
 4348TIP3    H234680   3.520   2.649   1.088 -0.7829  0.2061 -0.0748
 4349TIP3   OH234681   3.738   1.434   7.240 -0.1978  0.0894 -0.2068
 4349TIP3    H134682   3.653   1.439   7.197 -0.6627 -2.1096  0.3115
 4349TIP3    H234683   3.749   1.341   7.261  2.2189  0.3486 -0.0021
 4350TIP3   OH234684   6.118   2.221   1.803 -0.4275  0.3414  0.4658
 4350TIP3    H134685   6.186   2.249   1.864  0.0381 -0.6972  0.4464
 4350TIP3    H234686   6.043   2.201   1.859  0.2153 -1.2575  0.7917
 4351TIP3   OH234687   3.773   5.858   8.074 -0.1982  0.0171 -0.1585
 4351TIP3    H134688   3.735   5.908   8.146  0.4960  0.1568  0.1284
 4351TIP3    H234689   3.786   5.770   8.109  0.3844  0.1541 -0.0200
 4352TIP3   OH234690   2.236   6.016   0.811 -0.1518 -0.3363  0.1072
 4352TIP3    H134691   2.160   6.054   0.767 -1.6631 -0.6947  2.2911
 4352TIP3    H234692   2.229   5.922   0.795  0.7524 -0.2471 -0.9863
 4353TIP3   OH234693   3.931   1.731   0.029  0.2050  0.1335  1.1888
 4353TIP3    H134694   3.991   1.789   0.076  0.6143  0.4693  0.2960
 4353TIP3    H234695   3.901   1.668   0.094 -0.7247  1.6989  2.3450
 4354TIP3   OH234696   2.549   2.988   6.644  0.0555 -0.6978 -0.7954
 4354TIP3    H134697   2.493   3.042   6.588  3.0595  2.3480 -1.2062
 4354TIP3    H234698   2.633   2.985   6.599  2.4803  1.4326  3.0267
 4355TIP3   OH234699   0.141   2.769   7.716  0.2285 -0.2833 -0.4538
 4355TIP3    H134700   0.059   2.804   7.752  0.3279 -0.7881  0.2965
 4355TIP3    H234701   0.115   2.690   7.669  0.0959  0.3900 -1.5475
 4356TIP3   OH234702   2.895   1.044   1.608  0.5146 -0.3153  0.8958
 4356TIP3    H134703   2.935   1.004   1.531  0.0702  0.1348  0.4225
 4356TIP3    H234704   2.929   0.994   1.682  0.7648 -0.9001  0.3896
 4357TIP3   OH234705   2.300   1.559   0.148 -0.8837 -0.0092  0.4630
 4357TIP3    H134706   2.362   1.500   0.105 -1.5391 -0.7560  0.5328
 4357TIP3    H234707   2.238   1.583   0.080 -2.4897 -1.9518  1.1443
 4358TIP3   OH234708   6.229   4.271   1.889 -0.3008  0.2620 -0.4643
 4358TIP3    H134709   6.309   4.323   1.885 -0.2689  0.4958  1.7444
 4358TIP3    H234710   6.259   4.181   1.875  0.4976  0.2682  0.9910
 4359TIP3   OH234711   0.326   3.205   0.309  0.1204  0.1405  0.2177
 4359TIP3    H134712   0.301   3.297   0.312  0.3265  0.3446 -2.2422
 4359TIP3    H234713   0.242   3.158   0.311 -0.1512  0.5260 -1.2227
 4360TIP3   OH234714   6.012   0.635   0.591  0.4518 -0.1494  0.2266
 4360TIP3    H134715   6.032   0.610   0.501 -1.9194 -0.3332 -0.3166
 4360TIP3    H234716   6.033   0.558   0.644  2.2683  0.1091 -0.0672
 4361TIP3   OH234717   5.223   4.793   0.252  0.2768  0.0854 -0.5566
 4361TIP3    H134718   5.269   4.723   0.299  0.0130  1.3494  1.7158
 4361TIP3    H234719   5.270   4.801   0.169  2.1323 -0.8519  0.3484
 4362TIP3   OH234720   1.489   3.679   0.144  0.5225  0.0863 -0.1199
 4362TIP3    H134721   1.459   3.595   0.178 -1.7415  1.5026  1.6650
 4362TIP3    H234722   1.411   3.720   0.108  1.4975  1.5909 -0.6301
 4363TIP3   OH234723   3.425   2.934   1.041  0.2247 -0.2458  0.1039
 4363TIP3    H134724   3.384   2.998   1.099  0.9442 -0.3228  0.7182
 4363TIP3    H234725   3.517   2.961   1.037  0.2552 -0.4561 -0.7105
 4364TIP3   OH234726   5.155   0.225   1.093 -0.0916 -0.3864 -0.1219
 4364TIP3    H134727   5.159   0.157   1.026 -0.7332 -1.0859  0.5364
 4364TIP3    H234728   5.229   0.207   1.151  1.5204  1.2421 -1.5556
 4365TIP3   OH234729   3.200   1.059   1.764  0.3923 -0.3592  0.5572
 4365TIP3    H134730   3.251   1.066   1.845 -0.6078  2.5032  1.0516
 4365TIP3    H234731   3.110   1.042   1.794  0.1262  0.0880  0.0305
 4366TIP3   OH234732   5.939   1.321   0.217 -0.0541 -0.6853 -0.2955
 4366TIP3    H134733   5.966   1.406   0.182  0.0246 -0.9068 -0.7669
 4366TIP3    H234734   6.000   1.258   0.179  1.0930 -0.7437  1.4911
 4367TIP3   OH234735   0.613   5.708   0.453 -0.4709  0.3671 -0.0459
 4367TIP3    H134736   0.657   5.781   0.497 -0.4461  0.2889  0.0618
 4367TIP3    H234737   0.539   5.687   0.510 -1.6677  1.5982 -1.0709
 4368TIP3   OH234738   3.625   2.741   0.403 -0.6987  0.0729  0.5226
 4368TIP3    H134739   3.538   2.780   0.407  0.4890  3.0609 -0.1986
 4368TIP3    H234740   3.684   2.816   0.394  1.8260 -1.9402 -0.7402
 4369TIP3   OH234741   0.908   2.833   8.379 -0.4765  0.3055  0.1301
 4369TIP3    H134742   0.833   2.779   8.406 -0.1497  0.9633  2.6530
 4369TIP3    H234743   0.977   2.810   8.443  0.4581  1.9188 -0.2532
 4370TIP3   OH234744   0.631   3.869   6.604  0.1785 -0.6839  0.2286
 4370TIP3    H134745   0.636   3.911   6.518  0.7573 -0.5369  0.3279
 4370TIP3    H234746   0.661   3.779   6.588  0.5792 -0.5721  0.3247
 4371TIP3   OH234747   0.992   3.217   7.551  0.2391 -0.5694 -0.1738
 4371TIP3    H134748   1.013   3.131   7.587 -0.7262  0.0248  1.9260
 4371TIP3    H234749   0.904   3.236   7.584  0.7306  1.5502  0.0367
 4372TIP3   OH234750   5.709   4.100   7.164  0.2709 -0.3570 -0.0550
 4372TIP3    H134751   5.711   4.012   7.202  0.4379  0.6740  2.5606
 4372TIP3    H234752   5.615   4.121   7.157  0.2380 -0.3081  0.4766
 4373TIP3   OH234753   1.407   2.774   7.639  0.1160  0.4275 -0.1771
 4373TIP3    H134754   1.335   2.808   7.694  1.3347 -0.8443  2.3707
 4373TIP3    H234755   1.479   2.836   7.654 -0.2793  1.5807 -2.5598
 4374TIP3   OH234756   2.428   3.760   0.655  0.3298  0.3086 -0.1246
 4374TIP3    H134757   2.462   3.837   0.700 -0.3765  1.2208 -1.0921
 4374TIP3    H234758   2.388   3.795   0.575 -1.1380 -0.9229  0.0241
 4375TIP3   OH234759   1.220   6.814   0.795 -0.3759  0.4724 -0.5744
 4375TIP3    H134760   1.288   6.771   0.744  1.5543 -0.0550  2.2621
 4375TIP3    H234761   1.185   6.745   0.852  0.7041  1.8850  1.9498
 4376TIP3   OH234762   6.195   2.371   0.464 -0.0205 -0.5751 -0.5356
 4376TIP3    H134763   6.106   2.353   0.433  0.0439 -0.7808 -0.6035
 4376TIP3    H234764   6.246   2.383   0.384  0.0436 -0.6049 -0.4992
 4377TIP3   OH234765   3.389   4.469   1.933 -0.4364 -0.1077 -0.4806
 4377TIP3    H134766   3.423   4.546   1.886 -1.5858  0.7991  0.1276
 4377TIP3    H234767   3.328   4.428   1.871  0.8256 -1.0556 -1.1300
 4378TIP3   OH234768   3.855   0.998   6.905  0.5339  0.2954  0.2619
 4378TIP3    H134769   3.774   1.048   6.916  1.9471  2.7499  0.3747
 4378TIP3    H234770   3.866   0.952   6.988 -2.0274 -2.2869 -0.6841
 4379TIP3   OH234771   1.021   2.312   1.508 -0.6604 -0.1781 -0.4196
 4379TIP3    H134772   0.972   2.325   1.426 -0.8603  0.5763 -0.1864
 4379TIP3    H234773   0.985   2.231   1.544 -0.3879 -0.6651 -1.2029
 4380TIP3   OH234774   3.441   3.587   0.841 -0.8483 -0.6530 -0.3357
 4380TIP3    H134775   3.353   3.549   0.842 -0.6694 -1.1978  2.0770
 4380TIP3    H234776   3.498   3.513   0.818 -0.9372 -0.4880 -1.1133
 4381TIP3   OH234777   3.647   2.180   1.754 -1.0843  0.1032  0.3339
 4381TIP3    H134778   3.562   2.142   1.731 -0.9019  0.4065 -0.8925
 4381TIP3    H234779   3.709   2.138   1.695 -0.4849  0.4183  0.7287
 4382TIP3   OH234780   5.870   0.800   0.291 -0.7820 -0.3247 -0.1174
 4382TIP3    H134781   5.875   0.720   0.238 -0.5354 -0.2551 -0.1989
 4382TIP3    H234782   5.780   0.801   0.324 -0.6254 -0.9222  0.3314
 4383TIP3   OH234783   4.137   4.065   0.818  0.6125  0.1757  0.0831
 4383TIP3    H134784   4.119   4.152   0.781  2.5353  0.9215  0.7727
 4383TIP3    H234785   4.207   4.080   0.881  0.4330 -1.7742  0.8074
 4384TIP3   OH234786   2.486   2.268   0.651  0.4434  0.6286  0.0309
 4384TIP3    H134787   2.474   2.265   0.556  3.7356  0.1956 -0.4964
 4384TIP3    H234788   2.466   2.358   0.675 -0.4489  0.7373 -1.0536
 4385TIP3   OH234789   0.778   0.208   0.119  0.3422 -0.5583 -0.9090
 4385TIP3    H134790   0.782   0.294   0.161 -0.4480 -1.0090  0.1537
 4385TIP3    H234791   0.701   0.213   0.062 -1.1567 -1.2465  0.9132
 4386TIP3   OH234792   0.271   5.029   1.322 -0.0325 -0.2187 -0.4672
 4386TIP3    H134793   0.279   5.124   1.327 -2.0450 -0.0414  0.0695
 4386TIP3    H234794   0.361   4.997   1.331  0.6512  1.6107 -0.4045
 4387TIP3   OH234795   0.673   0.213   0.871  0.2170  0.4679  0.3124
 4387TIP3    H134796   0.741   0.146   0.861 -0.7109 -0.6324  1.2746
 4387TIP3    H234797   0.644   0.205   0.961  0.1932  2.2997  0.5031
 4388TIP3   OH234798   0.252   6.370   1.231  0.1711 -0.6989  0.1310
 4388TIP3    H134799   0.239   6.280   1.200 -0.2170 -1.0889  1.3632
 4388TIP3    H234800   0.344   6.372   1.259  1.1197  0.2172 -2.7141
 4389TIP3   OH234801   2.853   0.396   6.198 -0.5618 -0.4343 -0.3219
 4389TIP3    H134802   2.844   0.301   6.186 -1.7684 -0.2990 -0.6107
 4389TIP3    H234803   2.946   0.409   6.215 -0.1642 -1.5512 -1.4445
 4390TIP3   OH234804   3.753   3.424   0.075 -0.4569  0.0046 -0.4054
 4390TIP3    H134805   3.740   3.401  -0.016  1.6495  2.1668 -1.3715
 4390TIP3    H234806   3.818   3.362   0.107 -1.2623 -0.8099 -0.3115
 4391TIP3   OH234807   4.729   5.700   1.268 -0.3069  0.1384 -0.5980
 4391TIP3    H134808   4.717   5.790   1.238 -0.7850  0.1400 -0.4197
 4391TIP3    H234809   4.682   5.696   1.351  1.6935  0.3524  0.5989
 4392TIP3   OH234810   5.030   5.248   7.496  0.0680  0.0694 -0.5218
 4392TIP3    H134811   5.000   5.206   7.416  0.2464  1.6664 -1.4795
 4392TIP3    H234812   4.951   5.260   7.548 -0.0226 -1.1556 -0.3482
 4393TIP3   OH234813   1.785   0.276   1.405 -0.2377 -0.6430  0.5773
 4393TIP3    H134814   1.755   0.232   1.326 -0.4252 -0.3810  0.5021
 4393TIP3    H234815   1.718   0.257   1.470  0.2381 -1.4130  0.8694
 4394TIP3   OH234816   3.977   5.484   0.262 -0.1172  0.2642  0.7461
 4394TIP3    H134817   3.950   5.415   0.323 -0.5786 -0.5011 -0.3086
 4394TIP3    H234818   4.007   5.437   0.184  1.9162  1.1653  0.9103
 4395TIP3   OH234819   3.033   3.532   0.592 -0.8744 -0.5852  0.5270
 4395TIP3    H134820   2.938   3.522   0.581 -0.7792 -0.4526 -0.4851
 4395TIP3    H234821   3.042   3.612   0.642 -1.3388 -1.3327  1.8744
 4396TIP3   OH234822   4.511   5.032   0.056 -0.1241 -0.2956 -0.6051
 4396TIP3    H134823   4.527   4.938   0.053  1.0260 -0.1590  0.4195
 4396TIP3    H234824   4.454   5.044   0.133 -0.5957 -0.1804 -0.9630
 4397TIP3   OH234825   0.592   1.895   2.037  0.3664 -0.3974  0.0501
 4397TIP3    H134826   0.607   1.872   2.129 -0.2877  0.0623  0.2768
 4397TIP3    H234827   0.666   1.951   2.013  0.4032 -0.3094  0.3694
 4398TIP3   OH234828   4.238   3.808   0.263 -0.0817  0.0545  0.1461
 4398TIP3    H134829   4.250   3.714   0.252  0.2406  0.1591 -0.4797
 4398TIP3    H234830   4.271   3.827   0.351  1.5584 -0.1461 -0.3956
 4399TIP3   OH234831   4.750   5.595   0.511 -0.6419  0.1305 -0.1923
 4399TIP3    H134832   4.760   5.500   0.509 -1.2616  0.0742 -0.7559
 4399TIP3    H234833   4.659   5.610   0.535 -0.5214  0.5887  0.0012
 4400TIP3   OH234834   4.498   2.010   0.065 -0.0655 -0.2889 -0.0852
 4400TIP3    H134835   4.493   2.023   0.160  2.1345  0.3008 -0.0004
 4400TIP3    H234836   4.429   1.947   0.046 -1.3181  0.4492  1.7250
 4401TIP3   OH234837   1.613   6.996   0.936 -0.0209  0.2364 -0.6036
 4401TIP3    H134838   1.683   6.978   0.873  0.3506 -2.1280  0.3820
 4401TIP3    H234839   1.649   7.064   0.993  1.2571 -0.5241 -0.4770
 4402TIP3   OH234840   4.862   6.847   0.364 -0.0232 -0.5093 -0.9923
 4402TIP3    H134841   4.929   6.805   0.310 -1.9142 -2.3347 -2.0819
 4402TIP3    H234842   4.830   6.919   0.311  0.7932  0.1417 -0.6197
 4403TIP3   OH234843   3.235   4.056   8.049 -0.3201  0.7353  0.2692
 4403TIP3    H134844   3.190   3.972   8.058  1.4764 -0.4059 -0.7839
 4403TIP3    H234845   3.211   4.105   8.128 -1.3054 -0.8008  0.9691
 4404TIP3   OH234846   3.506   4.467   7.961 -0.3798 -0.7830  0.2119
 4404TIP3    H134847   3.562   4.540   7.934  0.2055 -0.2571  2.6446
 4404TIP3    H234848   3.558   4.421   8.027 -1.7990 -1.8360  0.6256
 4405TIP3   OH234849   1.476   5.851   8.108 -0.0760 -0.0365  0.0627
 4405TIP3    H134850   1.543   5.857   8.040 -0.9212  0.4234 -0.7616
 4405TIP3    H234851   1.403   5.805   8.065 -0.3612 -0.3515  0.8738
 4406TIP3   OH234852   3.358   1.916   2.319  0.8063  0.3442 -0.0523
 4406TIP3    H134853   3.273   1.871   2.315 -0.5710  2.8435 -1.5822
 4406TIP3    H234854   3.379   1.918   2.412 -1.1628  0.2137  0.4507
 4407TIP3   OH234855   2.314   5.550   0.677 -0.0958  0.0811 -0.6106
 4407TIP3    H134856   2.272   5.597   0.748 -1.9677  0.0966 -1.6607
 4407TIP3    H234857   2.396   5.517   0.714 -1.1271 -0.1343  1.5963
 4408TIP3   OH234858   3.813   3.930   1.306 -0.0380  0.1540 -0.1120
 4408TIP3    H134859   3.836   3.935   1.213 -0.9590 -1.0222 -0.4209
 4408TIP3    H234860   3.719   3.943   1.308  0.0093  0.4041  0.6972
 4409TIP3   OH234861   2.473   1.649   0.485  0.1101  0.0441 -0.3110
 4409TIP3    H134862   2.398   1.700   0.453  1.3442  2.0237 -0.2610
 4409TIP3    H234863   2.518   1.620   0.407  0.5056  0.7917 -0.3703
 4410TIP3   OH234864   2.564   6.234   2.517 -0.0428  0.4742  0.3462
 4410TIP3    H134865   2.519   6.288   2.583 -0.6707  0.3396  0.0372
 4410TIP3    H234866   2.499   6.168   2.492  0.3473  0.2466 -0.0745
 4411TIP3   OH234867   6.991   3.612   0.341 -0.2505 -0.7994 -0.1792
 4411TIP3    H134868   7.021   3.527   0.308 -0.7054 -0.1800 -2.3235
 4411TIP3    H234869   7.071   3.666   0.344 -0.5861  0.1116 -3.5605
 4412TIP3   OH234870   3.156   4.023   1.603  0.1346  0.8053  0.0143
 4412TIP3    H134871   3.140   3.978   1.686  1.9402  0.2964  0.1209
 4412TIP3    H234872   3.235   4.074   1.618  0.4164  0.8112 -1.3581
 4413TIP3   OH234873   2.118   0.843   7.606 -0.0743  0.6968  0.0459
 4413TIP3    H134874   2.071   0.926   7.598 -0.2571  0.6766  0.8503
 4413TIP3    H234875   2.061   0.780   7.562 -1.1216  0.5631  1.5115
 4414TIP3   OH234876   5.114   6.290   7.811  0.2003  0.3001  0.0954
 4414TIP3    H134877   5.176   6.238   7.759  0.1518 -0.1739  0.4935
 4414TIP3    H234878   5.079   6.227   7.875  0.7870  1.0193  1.1560
 4415TIP3   OH234879   5.419   3.207   6.854  0.3086  0.2444 -0.2997
 4415TIP3    H134880   5.477   3.282   6.869  1.0313 -0.3859  0.0547
 4415TIP3    H234881   5.363   3.204   6.932  1.3277 -0.5267  0.4244
 4416TIP3   OH234882   1.605   4.318   6.312 -0.1285  0.1376  0.1403
 4416TIP3    H134883   1.527   4.312   6.257 -0.6079 -2.4549  0.9445
 4416TIP3    H234884   1.678   4.325   6.250 -0.8268 -0.2847 -0.7431
 4417TIP3   OH234885   1.569   1.398   8.260  0.2877  0.9019 -0.6014
 4417TIP3    H134886   1.506   1.403   8.189  1.3006  1.1996 -1.5113
 4417TIP3    H234887   1.652   1.377   8.217  0.9699  1.3185  0.4650
 4418TIP3   OH234888   6.613   5.834   8.399  0.3789  0.6529  0.6523
 4418TIP3    H134889   6.611   5.851   8.493 -0.4326 -0.5837  0.8815
 4418TIP3    H234890   6.699   5.863   8.371  0.1837  2.1599  1.5483
 4419TIP3   OH234891   2.595   3.329   1.191  0.0310 -0.0184 -0.3365
 4419TIP3    H134892   2.618   3.236   1.192  0.0272 -0.0861 -2.4389
 4419TIP3    H234893   2.607   3.357   1.282 -0.4429 -2.1645  0.4632
 4420TIP3   OH234894   5.589   3.719   6.910  0.0591 -0.1927  0.0861
 4420TIP3    H134895   5.604   3.765   6.827 -1.9676 -0.8889 -0.7351
 4420TIP3    H234896   5.614   3.629   6.892 -1.7405 -0.6590 -0.2820
 4421TIP3   OH234897   2.002   0.132   0.988 -0.3155 -0.1322 -0.2483
 4421TIP3    H134898   2.069   0.142   0.920  0.0933  0.9499  0.2924
 4421TIP3    H234899   2.023   0.049   1.031  2.2337  1.3217  1.5346
 4422TIP3   OH234900   6.579   5.070   8.478  0.3251 -0.0426 -0.1446
 4422TIP3    H134901   6.531   5.042   8.400  0.9014  0.4353 -0.6885
 4422TIP3    H234902   6.526   5.041   8.552 -0.2976 -0.3833 -0.7230
 4423TIP3   OH234903   3.477   1.755   8.015 -0.1253  0.4900  0.4350
 4423TIP3    H134904   3.542   1.753   8.085 -0.9025  0.2494  1.1553
 4423TIP3    H234905   3.404   1.704   8.048 -0.3625  0.0669 -0.6997
 4424TIP3   OH234906   0.134   6.386   7.890  0.0691 -0.0130  0.2681
 4424TIP3    H134907   0.145   6.291   7.884 -0.2857  0.0351 -2.8471
 4424TIP3    H234908   0.041   6.399   7.906 -0.3101 -0.2400 -1.5293
 4425TIP3   OH234909   2.064   1.017   0.742  0.8466 -0.2679 -0.0432
 4425TIP3    H134910   2.005   1.038   0.814 -0.9972 -0.9167 -1.2859
 4425TIP3    H234911   2.042   1.081   0.674  0.5300 -1.4020 -1.0511
 4426TIP3   OH234912   5.854   1.346   6.902 -0.3276  0.4654  0.1347
 4426TIP3    H134913   5.800   1.406   6.953  2.2855  1.5373  1.8947
 4426TIP3    H234914   5.835   1.366   6.811 -2.5032  1.0537  0.6761
 4427TIP3   OH234915   2.667   1.433   1.607  0.2330 -0.1697  0.0170
 4427TIP3    H134916   2.597   1.372   1.631 -0.1842  0.3706  0.2257
 4427TIP3    H234917   2.711   1.393   1.533  0.6105 -1.1934  0.7738
 4428TIP3   OH234918   6.605   3.015   0.200  0.5053 -0.2891 -0.8296
 4428TIP3    H134919   6.576   2.926   0.180 -0.8782  0.4603 -2.3085
 4428TIP3    H234920   6.525   3.068   0.199  0.9430  0.6799  2.2185
 4429TIP3   OH234921   2.924   6.495   0.699 -0.1665  0.8932 -0.2464
 4429TIP3    H134922   2.841   6.452   0.719  0.4519  0.2349  0.9850
 4429TIP3    H234923   2.902   6.588   0.695 -0.8266  0.8055  0.8817
 4430TIP3   OH234924   0.642   3.359   6.602 -0.0384  0.2807 -0.3032
 4430TIP3    H134925   0.731   3.325   6.608 -1.2176 -3.0643  0.2772
 4430TIP3    H234926   0.635   3.421   6.675  2.2397  2.0282 -1.4229
 4431TIP3   OH234927   0.710   5.625   1.711 -0.0005  0.4007 -0.7965
 4431TIP3    H134928   0.715   5.720   1.719 -0.9735  0.4018 -0.0044
 4431TIP3    H234929   0.772   5.603   1.642 -1.7428  1.9025 -2.9786
 4432TIP3   OH234930   4.578   1.957   7.427 -0.4663  0.4381  0.1140
 4432TIP3    H134931   4.660   1.908   7.427  0.6239  2.0128 -2.4452
 4432TIP3    H234932   4.592   2.027   7.363 -3.6493  1.0836 -0.0634
 4433TIP3   OH234933   3.868   4.720   6.882  0.4367 -0.3640  0.4169
 4433TIP3    H134934   3.916   4.675   6.951 -0.3886 -2.2241 -0.1509
 4433TIP3    H234935   3.902   4.683   6.801  0.6773  1.0547 -0.1647
 4434TIP3   OH234936   5.918   2.817   7.729 -0.5080  0.5343 -0.6404
 4434TIP3    H134937   5.877   2.855   7.807  1.0407 -0.7230  0.8803
 4434TIP3    H234938   6.004   2.859   7.724 -0.9796  1.3975 -2.3697
 4435TIP3   OH234939   1.085   2.585   7.804  0.6411  0.0276 -0.4188
 4435TIP3    H134940   1.015   2.645   7.830  2.6355  1.9666  0.8144
 4435TIP3    H234941   1.095   2.601   7.710  0.1373  0.4826 -0.4056
 4436TIP3   OH234942   3.811   1.917   7.217  0.4956  0.1022  0.3678
 4436TIP3    H134943   3.783   1.966   7.139 -0.4535 -0.1925  0.5160
 4436TIP3    H234944   3.876   1.975   7.259  0.1244  0.7992  0.0068
 4437TIP3   OH234945   1.029   3.562   7.170 -0.7487  0.1027 -0.3272
 4437TIP3    H134946   1.078   3.481   7.157 -0.4258  0.1526  0.5063
 4437TIP3    H234947   1.096   3.625   7.197 -1.2597  0.1740  0.8307
 4438TIP3   OH234948   3.117   2.050   0.685 -0.2374  0.2275 -0.4183
 4438TIP3    H134949   3.097   2.096   0.603  1.7754  0.2913 -0.9274
 4438TIP3    H234950   3.146   1.963   0.658  0.9926  0.4363  0.1562
 4439TIP3   OH234951   2.406   1.957   1.370  0.1690 -0.3647 -0.4736
 4439TIP3    H134952   2.455   1.874   1.367  1.0213 -0.1812  3.0680
 4439TIP3    H234953   2.468   2.019   1.410 -1.9435  0.6754  1.3897
 4440TIP3   OH234954   3.186   0.456   7.997  0.2822 -0.6716  0.0048
 4440TIP3    H134955   3.169   0.373   8.042  1.2899 -0.8724  0.0447
 4440TIP3    H234956   3.167   0.523   8.064  0.5202 -0.9146  0.3204
 4441TIP3   OH234957   0.497   0.022   1.590  0.4331  0.5213  0.4079
 4441TIP3    H134958   0.518  -0.071   1.600 -0.5846  0.0827 -1.2343
 4441TIP3    H234959   0.564   0.066   1.641  0.6934 -1.1239  1.5769
 4442TIP3   OH234960   1.219   5.547   0.775  0.3480 -0.4858 -0.0743
 4442TIP3    H134961   1.215   5.588   0.861  1.1400 -0.8180  0.1296
 4442TIP3    H234962   1.211   5.620   0.713 -1.8094 -0.3964  0.2464
 4443TIP3   OH234963   1.867   3.793   0.972  0.2155  0.8213  0.4307
 4443TIP3    H134964   1.815   3.719   1.002  2.5389 -0.8254  0.5972
 4443TIP3    H234965   1.843   3.865   1.031 -2.7431  0.5608 -0.2833
 4444TIP3   OH234966   0.988   5.484   7.195  0.4375  0.2149  0.4504
 4444TIP3    H134967   1.045   5.485   7.118 -0.8795 -1.2556 -0.6209
 4444TIP3    H234968   1.045   5.462   7.268  1.7688  1.9119 -0.0315
 4445TIP3   OH234969   1.943   4.788   0.051 -0.2091  0.4746 -0.2523
 4445TIP3    H134970   2.010   4.749   0.107  0.6439  3.9530  1.4425
 4445TIP3    H234971   1.993   4.830  -0.020 -0.7479  1.2233 -0.1987
 4446TIP3   OH234972   5.982   4.572   0.871 -0.1427 -0.3556 -0.1035
 4446TIP3    H134973   6.071   4.605   0.889 -0.4316  0.2516  0.2432
 4446TIP3    H234974   5.925   4.629   0.923 -0.6952 -1.1287  0.1408
 4447TIP3   OH234975   3.874   2.860   0.125  0.3205  0.3749  0.1115
 4447TIP3    H134976   3.793   2.886   0.079  0.1100  0.4927  0.5490
 4447TIP3    H234977   3.859   2.884   0.216  1.1628  1.0998  0.0701
 4448TIP3   OH234978   1.849   2.845   0.962  0.3241  0.3871  0.1745
 4448TIP3    H134979   1.828   2.755   0.938 -0.2573  0.0080  1.9890
 4448TIP3    H234980   1.900   2.838   1.042 -0.6299  1.7027  0.9386
 4449TIP3   OH234981   6.781   2.059   1.719  0.2475 -0.1159 -0.1476
 4449TIP3    H134982   6.789   2.059   1.623 -0.9280  0.7959 -0.2755
 4449TIP3    H234983   6.864   2.096   1.750 -0.6999  3.1109 -1.0365
 4450TIP3   OH234984   2.051   1.269   1.358 -0.4985  0.0731  0.1163
 4450TIP3    H134985   2.036   1.178   1.384  0.1319 -0.0275  0.1252
 4450TIP3    H234986   2.086   1.311   1.437 -3.2131  0.9898  0.9708
 4451TIP3   OH234987   0.778   0.023   6.529  0.5239  0.0155 -0.2817
 4451TIP3    H134988   0.816  -0.063   6.512 -0.1019 -0.7923  1.9412
 4451TIP3    H234989   0.852   0.083   6.529  1.1132 -0.6968 -0.8759
 4452TIP3   OH234990   3.025   5.171   6.872 -0.3426  0.2158  0.2307
 4452TIP3    H134991   3.119   5.152   6.868 -0.6339 -1.3098  0.1451
 4452TIP3    H234992   2.986   5.116   6.804 -1.5968 -1.2371  2.0142
 4453TIP3   OH234993   5.170   6.479   1.068 -0.0379  0.4010  0.2890
 4453TIP3    H134994   5.082   6.499   1.099 -0.7749  0.8026 -1.8787
 4453TIP3    H234995   5.204   6.416   1.131 -0.9728  1.9136  2.4713
 4454TIP3   OH234996   4.878   2.489   1.941  0.4822  0.2780  0.0698
 4454TIP3    H134997   4.803   2.523   1.991 -0.0116 -0.2033 -0.3252
 4454TIP3    H234998   4.881   2.545   1.864 -0.3090 -0.5193 -0.5636
 4455TIP3   OH234999   5.891   3.802   7.523 -0.2367  0.2267  0.0031
 4455TIP3    H135000   5.887   3.896   7.542  0.0834 -0.1386  2.2083
 4455TIP3    H235001   5.895   3.797   7.428 -2.3391  2.3688 -0.3172
 4456TIP3   OH235002   0.715   4.836   8.481  0.2737  0.8662 -0.0673
 4456TIP3    H135003   0.769   4.868   8.409 -0.4876  1.0370 -0.5723
 4456TIP3    H235004   0.700   4.914   8.535  1.9952  0.4694  1.0595
 4457TIP3   OH235005   4.686   0.617   0.600 -0.3975  0.1448 -0.1508
 4457TIP3    H135006   4.664   0.637   0.691 -1.1739 -0.1397 -0.2694
 4457TIP3    H235007   4.667   0.523   0.591 -2.1248  0.5423 -1.0947
 4458TIP3   OH235008   1.815   2.230   0.486 -0.1058  0.6091  0.1836
 4458TIP3    H135009   1.806   2.163   0.418  0.0074  1.6955 -0.9455
 4458TIP3    H235010   1.882   2.289   0.452  1.1061  0.3624  1.9652
 4459TIP3   OH235011   1.938   3.696   1.858  0.1311  0.1688 -0.2843
 4459TIP3    H135012   1.975   3.657   1.938  0.1818  2.2985  0.7888
 4459TIP3    H235013   2.009   3.749   1.823 -0.1737 -0.0878 -1.3130
 4460TIP3   OH235014   3.206   5.463   0.727  0.2646  0.3976  0.1686
 4460TIP3    H135015   3.222   5.397   0.794  1.0566  1.5813  1.1797
 4460TIP3    H235016   3.111   5.463   0.716  0.3194 -2.2929 -1.3446
 4461TIP3   OH235017   6.418   5.375   0.025  0.2876 -0.4625 -0.2284
 4461TIP3    H135018   6.336   5.329   0.003 -0.3340  0.9593 -1.0471
 4461TIP3    H235019   6.391   5.443   0.087  1.0729 -0.7492  0.4430
 4462TIP3   OH235020   0.923   5.388   8.033 -0.3236  0.2917 -0.5303
 4462TIP3    H135021   0.904   5.319   7.969 -2.7266 -0.8752  1.3024
 4462TIP3    H235022   0.847   5.446   8.029 -1.3583 -0.7087  2.3104
 4463TIP3   OH235023   0.871   6.312   7.296 -0.0443  0.3895  0.4708
 4463TIP3    H135024   0.788   6.314   7.249 -0.1426  0.7685  0.6583
 4463TIP3    H235025   0.890   6.403   7.317  1.2606  0.4992 -1.0108
 4464TIP3   OH235026   6.102   4.470   7.793  0.2983 -0.2593  0.5595
 4464TIP3    H135027   6.141   4.401   7.846 -0.4077  0.0901  1.5537
 4464TIP3    H235028   6.177   4.514   7.752  0.7891 -1.1686  0.4602
 4465TIP3   OH235029   3.518   1.185   7.521 -0.1560  0.0549  0.2946
 4465TIP3    H135030   3.452   1.234   7.571  0.9983  0.9237  1.0338
 4465TIP3    H235031   3.595   1.185   7.578  0.1553 -1.9067 -0.0750
 4466TIP3   OH235032   4.224   1.570   6.719 -0.2913  0.2961 -0.2455
 4466TIP3    H135033   4.225   1.526   6.633  0.1226 -0.4271  0.1173
 4466TIP3    H235034   4.302   1.626   6.718 -0.7540  0.9454 -0.6628
 4467TIP3   OH235035   5.525   5.308   0.051 -0.2378 -0.7828  0.5378
 4467TIP3    H135036   5.613   5.301   0.012 -0.2490 -2.6934  0.8053
 4467TIP3    H235037   5.503   5.401   0.042  0.4437 -0.8176 -2.5487
 4468TIP3   OH235038   3.133   0.361   0.834 -0.2390 -0.2096  0.1129
 4468TIP3    H135039   3.143   0.437   0.776 -2.1962 -0.4901 -0.6758
 4468TIP3    H235040   3.196   0.297   0.800  0.4154  0.5340 -0.1140
 4469TIP3   OH235041   1.644   2.092   7.875  0.1540  0.0832 -0.8593
 4469TIP3    H135042   1.707   2.163   7.864 -1.0060  1.0029 -1.7704
 4469TIP3    H235043   1.604   2.081   7.789 -1.5526  0.1207 -0.1040
 4470TIP3   OH235044   1.200   6.666   7.184 -0.4129  0.6439 -0.2867
 4470TIP3    H135045   1.244   6.751   7.191 -1.2973  0.9813  1.6875
 4470TIP3    H235046   1.167   6.648   7.272  1.8362 -2.9209  0.0583
 4471TIP3   OH235047   6.792   0.867   2.309  0.6585 -0.5845  0.4283
 4471TIP3    H135048   6.777   0.887   2.402 -0.2628 -0.3802  0.2461
 4471TIP3    H235049   6.829   0.948   2.273 -1.9020  0.4909 -0.0368
 4472TIP3   OH235050   2.164   1.897   8.301  0.5953 -0.3239  0.0603
 4472TIP3    H135051   2.259   1.895   8.294  0.6129 -2.0175  0.3509
 4472TIP3    H235052   2.147   1.897   8.395  0.2717  2.2225  0.0734
 4473TIP3   OH235053   2.863   3.401   8.236  0.1164  0.0907 -0.4660
 4473TIP3    H135054   2.851   3.459   8.161 -2.1797  0.4921  0.1356
 4473TIP3    H235055   2.797   3.332   8.223  2.7313 -2.4538 -1.1455
 4474TIP3   OH235056   3.359   6.360   1.239  0.9382  0.2421 -0.2083
 4474TIP3    H135057   3.453   6.362   1.254  1.2416  0.0484 -1.9258
 4474TIP3    H235058   3.349   6.322   1.152 -0.7903 -0.7396  0.3603
 4475TIP3   OH235059   5.737   2.061   0.360 -0.5463 -0.3911  0.1546
 4475TIP3    H135060   5.668   2.077   0.296  0.2366 -2.7718 -1.4341
 4475TIP3    H235061   5.699   2.085   0.444 -2.8144 -0.3677 -0.8195
 4476TIP3   OH235062   1.767   3.902   7.696  0.0922  0.2588  0.0664
 4476TIP3    H135063   1.796   3.812   7.712  2.3489  1.1771  1.6109
 4476TIP3    H235064   1.717   3.925   7.775  1.9278  1.2283  1.0000
 4477TIP3   OH235065   2.363   6.221   8.248  0.3239  0.3603  0.0422
 4477TIP3    H135066   2.375   6.135   8.288  0.1387  0.3103 -0.0114
 4477TIP3    H235067   2.348   6.280   8.322 -0.9840  0.1106 -0.0121
 4478TIP3   OH235068   2.513   4.855   1.610  0.3649 -0.5051 -0.4648
 4478TIP3    H135069   2.520   4.846   1.515  0.3376  1.2146 -0.6621
 4478TIP3    H235070   2.555   4.939   1.629  0.9355 -1.1118  1.1315
 4479TIP3   OH235071   3.574   4.669   1.727  0.5697 -0.7305  0.6462
 4479TIP3    H135072   3.668   4.689   1.725  0.0912  1.5979 -0.9260
 4479TIP3    H235073   3.537   4.733   1.787 -0.5801  1.4219 -2.1791
 4480TIP3   OH235074   6.928   0.036   6.150 -0.3226 -0.5070  0.7123
 4480TIP3    H135075   6.973  -0.032   6.200  0.8040  0.2081  0.6914
 4480TIP3    H235076   6.843   0.045   6.193  0.2177 -0.6541  1.8383
 4481TIP3   OH235077   6.242   2.674   8.211  0.4871 -0.3493 -0.2717
 4481TIP3    H135078   6.281   2.617   8.144 -0.0815 -0.4657 -0.5096
 4481TIP3    H235079   6.148   2.655   8.206  0.4194 -0.2058  0.4181
 4482TIP3   OH235080   1.391   5.011   7.359 -0.0774  0.0727 -0.4874
 4482TIP3    H135081   1.475   5.045   7.330  0.2459  0.6028  0.9870
 4482TIP3    H235082   1.394   4.918   7.337  1.2155 -0.0793  0.2441
 4483TIP3   OH235083   0.274   1.763   7.550  0.0340 -0.1998 -0.2942
 4483TIP3    H135084   0.337   1.835   7.555 -1.7393  1.4915 -0.5366
 4483TIP3    H235085   0.313   1.700   7.491  1.8706  0.3358  0.2796
 4484TIP3   OH235086   6.316   0.134   6.930 -0.1882 -0.2336  0.2318
 4484TIP3    H135087   6.236   0.094   6.966 -0.3762 -0.1667 -0.1072
 4484TIP3    H235088   6.292   0.225   6.916 -0.7163 -0.6518 -1.8099
 4485TIP3   OH235089   1.243   4.960   6.450 -0.1702  0.2278  0.3437
 4485TIP3    H135090   1.317   4.901   6.435 -2.0938 -2.3382  0.3151
 4485TIP3    H235091   1.194   4.957   6.368 -1.8992 -0.6166  1.3488
 4486TIP3   OH235092   2.374   4.876   7.454 -0.3364 -0.0840  0.2975
 4486TIP3    H135093   2.426   4.933   7.511  0.3076 -0.2517 -0.1210
 4486TIP3    H235094   2.348   4.932   7.381  1.9677 -0.7737 -1.1507
 4487TIP3   OH235095   1.489   4.693   2.077 -0.1594 -0.4464 -0.2088
 4487TIP3    H135096   1.581   4.678   2.055  0.9948  2.6897  1.8035
 4487TIP3    H235097   1.470   4.627   2.143  1.2804 -0.0207  0.6908
 4488TIP3   OH235098   3.285   3.394   8.127 -0.1496 -0.4778 -0.8584
 4488TIP3    H135099   3.366   3.440   8.109  1.4221 -3.2723 -1.5289
 4488TIP3    H235100   3.299   3.355   8.214 -0.6124 -1.3023 -1.1475
 4489TIP3   OH235101   0.738   4.600   7.432 -0.0471  0.4969  0.2295
 4489TIP3    H135102   0.819   4.556   7.408 -0.2560  0.2134  0.0448
 4489TIP3    H235103   0.688   4.534   7.481 -0.3094  0.5617  0.0511
 4490TIP3   OH235104   0.146   6.009   7.716  0.0945  0.0852 -0.5035
 4490TIP3    H135105   0.071   5.970   7.760 -0.2999 -0.1788 -1.3700
 4490TIP3    H235106   0.176   6.078   7.774 -1.3053  0.7098 -0.5022
 4491TIP3   OH235107   2.898   5.498   2.288 -0.2012 -0.1060  0.2793
 4491TIP3    H135108   2.939   5.546   2.360 -1.7879  1.6534  0.0984
 4491TIP3    H235109   2.891   5.409   2.320 -1.2743  0.7109  2.5571
 4492TIP3   OH235110   2.507   4.654   7.629 -0.2655 -0.7630 -0.3810
 4492TIP3    H135111   2.590   4.618   7.659  0.6697  0.8282 -0.9317
 4492TIP3    H235112   2.442   4.587   7.653  1.3074 -2.6886 -1.1777
 4493TIP3   OH235113   3.777   2.385   6.658  0.0602  0.6212 -0.3454
 4493TIP3    H135114   3.814   2.462   6.614  1.4350 -1.0101 -2.2543
 4493TIP3    H235115   3.689   2.377   6.622 -0.2666  1.5307  0.2194
 4494TIP3   OH235116   2.777   1.901   1.332  0.3928 -0.0536  0.3268
 4494TIP3    H135117   2.745   1.896   1.242 -0.3795  1.1023  0.5095
 4494TIP3    H235118   2.720   1.966   1.374 -0.3159 -1.7340  2.1041
 4495TIP3   OH235119   0.843   6.327   7.779 -0.3976  0.1409 -0.9746
 4495TIP3    H135120   0.805   6.409   7.811 -0.9747 -0.6616  0.4878
 4495TIP3    H235121   0.932   6.327   7.812  0.1841  0.9535 -2.4528
 4496TIP3   OH235122   0.672   2.587   0.339  0.3259  0.7327  0.1004
 4496TIP3    H135123   0.680   2.680   0.321  0.9231  1.1101  2.1244
 4496TIP3    H235124   0.760   2.558   0.361 -0.2537  0.3071  2.0721
 4497TIP3   OH235125   0.035   6.886   8.283  0.1067  0.1460  0.2503
 4497TIP3    H135126   0.085   6.813   8.248  1.1253  0.0288  1.8847
 4497TIP3    H235127   0.054   6.887   8.377 -2.3256  0.6017  0.8197
 4498TIP3   OH235128   6.765   1.570   7.639  0.5302 -0.3967  0.7279
 4498TIP3    H135129   6.763   1.552   7.545 -1.2527 -0.9534  0.8271
 4498TIP3    H235130   6.767   1.483   7.679  0.4463 -0.1737  1.2149
 4499TIP3   OH235131   1.569   2.427   0.621 -0.3479 -0.4577 -0.1150
 4499TIP3    H135132   1.478   2.400   0.635  0.1490 -2.0042  0.3749
 4499TIP3    H235133   1.617   2.385   0.692  0.7304  0.5281 -0.2401
 4500TIP3   OH235134   6.920   4.288   1.188  0.6196  0.6152  0.0631
 4500TIP3    H135135   6.973   4.344   1.132  0.1557  0.5688 -0.4277
 4500TIP3    H235136   6.836   4.335   1.195 -0.8502 -1.3253 -2.7065
 4501TIP3   OH235137   3.890   1.362   7.949 -0.4164 -0.5364 -0.2348
 4501TIP3    H135138   3.875   1.454   7.926 -0.1225 -0.3360  0.3661
 4501TIP3    H235139   3.985   1.352   7.947 -0.4967 -1.3182 -2.1357
 4502TIP3   OH235140   2.422   2.188   0.930 -0.0564  0.6902  0.0666
 4502TIP3    H135141   2.398   2.097   0.912 -0.2533  0.4080  1.6822
 4502TIP3    H235142   2.421   2.230   0.843 -0.0409 -0.8082 -0.6935
 4503TIP3   OH235143   6.231   5.138   1.147 -0.0438 -0.2999  0.1057
 4503TIP3    H135144   6.294   5.087   1.097  0.0974 -0.1964  0.1758
 4503TIP3    H235145   6.262   5.228   1.140 -1.0929 -0.0190 -1.2282
 4504TIP3   OH235146   1.520   6.362   1.718 -0.5858  0.0685  0.6006
 4504TIP3    H135147   1.473   6.309   1.654  1.1790 -0.8781  0.0288
 4504TIP3    H235148   1.603   6.316   1.732  0.8676  2.4570  0.3842
 4505TIP3   OH235149   1.413   3.293   7.684  0.1824  0.0004 -0.3367
 4505TIP3    H135150   1.486   3.231   7.681  0.2575  0.0920 -0.4354
 4505TIP3    H235151   1.356   3.260   7.753 -1.5147 -2.1256 -2.5733
 4506TIP3   OH235152   2.366   6.646   6.886  0.3288 -0.1695  0.2561
 4506TIP3    H135153   2.424   6.598   6.827 -1.8448  0.5888 -2.7273
 4506TIP3    H235154   2.321   6.578   6.936  1.0826 -0.9272 -0.0717
 4507TIP3   OH235155   4.666   0.594   1.107 -0.1804  0.3382  0.8030
 4507TIP3    H135156   4.592   0.611   1.166 -0.7822 -0.5238  0.3073
 4507TIP3    H235157   4.679   0.500   1.111  1.2606  0.5360  1.3015
 4508TIP3   OH235158   3.867   2.118   0.304  0.1729 -0.1033  0.3879
 4508TIP3    H135159   3.797   2.161   0.353 -0.1220  0.8301 -0.8053
 4508TIP3    H235160   3.938   2.108   0.367 -0.6366 -0.0653  1.3249
 4509TIP3   OH235161   4.097   1.921   8.200  0.3616 -0.2615 -0.1529
 4509TIP3    H135162   4.150   1.953   8.127  0.3868  3.6674  1.3365
 4509TIP3    H235163   4.008   1.947   8.178  0.2857  0.4374  0.9034
 4510TIP3   OH235164   0.174   0.281   2.047  0.2345  0.7412 -0.2046
 4510TIP3    H135165   0.109   0.317   2.107  1.1033  1.2105  0.4964
 4510TIP3    H235166   0.256   0.324   2.073  1.2700 -1.4830  0.4689
 4511TIP3   OH235167   1.146   3.692   0.381  0.0339 -0.2143  0.7421
 4511TIP3    H135168   1.195   3.760   0.334  0.2028 -0.6846  0.2282
 4511TIP3    H235169   1.208   3.659   0.447  0.4852 -0.9378 -0.0293
 4512TIP3   OH235170   4.375   3.885   2.629  0.4476 -0.3256  0.9008
 4512TIP3    H135171   4.392   3.931   2.711 -0.7134  1.5867  0.1243
 4512TIP3    H235172   4.292   3.920   2.598  1.4692  0.0185 -1.7452
 4513TIP3   OH235173   1.281   3.924   6.534 -0.1538 -0.5020  0.2706
 4513TIP3    H135174   1.307   3.995   6.475 -1.8908  0.3137  0.4307
 4513TIP3    H235175   1.326   3.847   6.499  0.5481  0.3680 -0.8353
 4514TIP3   OH235176   0.181   4.162   8.091  0.3846 -0.2580  0.2845
 4514TIP3    H135177   0.150   4.074   8.114 -0.0582  0.3267  2.0909
 4514TIP3    H235178   0.101   4.211   8.072  0.5226  0.0935  0.6008
 4515TIP3   OH235179   6.583   2.934   8.253  0.0580  0.6001  0.1011
 4515TIP3    H135180   6.492   2.952   8.276  0.1696 -0.5100  1.5694
 4515TIP3    H235181   6.634   2.985   8.315  0.4766  1.7819 -1.1732
 4516TIP3   OH235182   1.375   0.149   0.265  0.1556 -0.2929 -0.3763
 4516TIP3    H135183   1.414   0.178   0.347  0.6390  0.3128 -0.8087
 4516TIP3    H235184   1.313   0.080   0.290  0.0347  0.1346  0.5290
 4517TIP3   OH235185   6.967   0.898   8.435 -0.1328  0.4177  0.0738
 4517TIP3    H135186   6.974   0.929   8.526 -1.8322 -0.8858  0.6995
 4517TIP3    H235187   6.926   0.971   8.388 -0.7341  0.5144  0.7267
 4518TIP3   OH235188   6.631   5.647   2.399 -0.0066  0.4593 -0.0750
 4518TIP3    H135189   6.545   5.686   2.413 -0.3074 -0.4845  0.8334
 4518TIP3    H235190   6.652   5.605   2.483  0.5168 -0.8808 -0.8537
 4519TIP3   OH235191   2.288   5.038   1.619 -0.0803  0.6310  0.1896
 4519TIP3    H135192   2.244   4.964   1.661 -0.7832  0.0565 -1.4534
 4519TIP3    H235193   2.374   5.004   1.595 -0.1684  0.5307  0.0079
 4520TIP3   OH235194   6.239   6.761   0.312  0.6601  0.6084  0.1361
 4520TIP3    H135195   6.189   6.684   0.285  1.0385 -0.0331  1.1747
 4520TIP3    H235196   6.302   6.727   0.376  0.2510  1.9126  1.2863
 4521TIP3   OH235197   4.114   4.908   7.060  0.1312 -0.3830 -0.5878
 4521TIP3    H135198   4.181   4.911   6.991  1.9079 -2.1343  0.9417
 4521TIP3    H235199   4.162   4.886   7.139 -1.9705  0.6858  1.0929
 4522TIP3   OH235200   2.589   6.909   6.924 -0.0473 -0.4385 -0.0275
 4522TIP3    H135201   2.558   6.999   6.933  0.1355 -0.2972 -0.7942
 4522TIP3    H235202   2.576   6.887   6.832  0.5283 -0.9706  0.0079
 4523TIP3   OH235203   6.978   0.940   7.748  0.3276 -0.0279  0.7502
 4523TIP3    H135204   6.973   0.868   7.685  0.4401 -0.3428  1.1023
 4523TIP3    H235205   7.062   0.928   7.792  0.5028  0.5189  0.5684
 4524TIP3   OH235206   3.473   1.740   0.367  0.2694  0.5215  0.5022
 4524TIP3    H135207   3.542   1.805   0.354  0.4242  0.2235 -0.2528
 4524TIP3    H235208   3.518   1.666   0.408  0.2233  0.6516  0.7868
 4525TIP3   OH235209   1.332   4.085   0.006 -0.4488  0.0630  0.3332
 4525TIP3    H135210   1.376   4.151  -0.047  1.0210 -0.0934  1.2869
 4525TIP3    H235211   1.252   4.065  -0.042  1.0045 -0.4027 -2.0776
 4526TIP3   OH235212   6.848   1.745   1.763  0.3283 -0.0314 -0.2095
 4526TIP3    H135213   6.846   1.828   1.810 -0.4467  0.2643 -0.7425
 4526TIP3    H235214   6.840   1.678   1.832  1.2049  0.3170  0.2427
 4527TIP3   OH235215   1.600   5.606   2.711 -0.5718  0.4420 -0.3796
 4527TIP3    H135216   1.543   5.638   2.641 -0.3980  1.3975 -0.0957
 4527TIP3    H235217   1.550   5.535   2.751 -0.6965 -0.0752 -1.4282
 4528TIP3   OH235218   3.411   5.999   8.443 -0.0272  0.3426 -1.0404
 4528TIP3    H135219   3.469   6.034   8.510  0.7940 -1.1528 -0.9054
 4528TIP3    H235220   3.373   6.076   8.400 -0.3248  1.3297  0.8953
 4529TIP3   OH235221   1.473   0.926   8.438  0.3682  0.2231 -0.2496
 4529TIP3    H135222   1.455   0.954   8.349  0.5082 -2.6768 -1.2889
 4529TIP3    H235223   1.390   0.891   8.470  1.1081 -2.0279 -0.6138
 4530TIP3   OH235224   4.430   0.831   2.314  0.0687  0.4414  0.2289
 4530TIP3    H135225   4.468   0.751   2.349 -0.5954 -0.2514 -0.5852
 4530TIP3    H235226   4.474   0.902   2.361  0.7926 -0.3958  0.8300
 4531TIP3   OH235227   1.735   2.655   8.249 -0.0655  0.1010  0.3582
 4531TIP3    H135228   1.672   2.605   8.301  0.8669 -1.3954  0.1060
 4531TIP3    H235229   1.684   2.685   8.173 -0.6556 -0.4677  0.5204
 4532TIP3   OH235230   1.196   1.636   1.526 -0.2451 -0.1290  0.5065
 4532TIP3    H135231   1.189   1.573   1.454  1.0768  1.3020 -0.9535
 4532TIP3    H235232   1.105   1.661   1.544 -0.5721  0.1146 -1.2740
 4533TIP3   OH235233   1.207   6.950   1.439 -0.5172 -0.1925  0.3163
 4533TIP3    H135234   1.297   6.976   1.425 -1.1314  0.9615 -1.9236
 4533TIP3    H235235   1.211   6.858   1.462  1.2515  0.0720  1.2148
 4534TIP3   OH235236   4.685   3.637   2.111 -0.1570 -0.8824 -0.0914
 4534TIP3    H135237   4.627   3.713   2.100 -0.3608 -0.6833  1.9946
 4534TIP3    H235238   4.634   3.564   2.077 -0.7310 -0.3758 -0.3532
 4535TIP3   OH235239   4.422   1.410   1.300  0.2819  0.4687  0.3648
 4535TIP3    H135240   4.483   1.439   1.232  0.0027 -0.9261 -0.5196
 4535TIP3    H235241   4.472   1.346   1.352 -0.3606 -0.5968 -0.2952
 4536TIP3   OH235242   1.163   3.486   7.594  0.5743  0.2690 -0.6098
 4536TIP3    H135243   1.142   3.399   7.560  2.0414 -0.7979  1.0608
 4536TIP3    H235244   1.142   3.481   7.687 -0.4082  2.1179 -0.6825
 4537TIP3   OH235245   6.610   0.537   1.643 -0.0952 -0.3418  0.2966
 4537TIP3    H135246   6.647   0.572   1.562 -0.2854  0.5729  0.5925
 4537TIP3    H235247   6.653   0.452   1.655 -0.5448 -0.7762 -1.0898
 4538TIP3   OH235248   5.511   3.547   0.113 -0.3922  0.1886  0.3956
 4538TIP3    H135249   5.564   3.534   0.192 -0.4229  0.4282  0.4576
 4538TIP3    H235250   5.439   3.484   0.121 -0.6682  0.5540  0.8009
 4539TIP3   OH235251   0.447   5.200   7.290  0.3532  0.2532  0.1300
 4539TIP3    H135252   0.505   5.273   7.312 -0.0676  0.1273  1.8076
 4539TIP3    H235253   0.361   5.239   7.281  0.3674  0.1655 -0.3809
 4540TIP3   OH235254   1.011   6.300   1.350  0.3807  0.1781  0.3647
 4540TIP3    H135255   1.099   6.279   1.380  1.7986  3.8581 -0.7134
 4540TIP3    H235256   0.969   6.343   1.425  0.4272  0.7103  0.0867
 4541TIP3   OH235257   3.707   5.331   7.923  0.0343  0.0028  0.7144
 4541TIP3    H135258   3.649   5.387   7.871  0.6573  0.3310  0.3462
 4541TIP3    H235259   3.773   5.300   7.860 -0.0605 -0.8107  1.0031
 4542TIP3   OH235260   2.021   4.365   7.516  0.0716  0.1559 -0.1560
 4542TIP3    H135261   2.068   4.326   7.442  0.4996  0.5683 -0.1020
 4542TIP3    H235262   1.996   4.452   7.485 -2.1590 -0.6571 -0.8136
 4543TIP3   OH235263   3.323   2.470   1.372 -0.5225 -0.0494 -0.1586
 4543TIP3    H135264   3.369   2.401   1.419  1.5064 -0.2498 -2.2501
 4543TIP3    H235265   3.283   2.426   1.297 -2.7288  0.4384  0.6479
 4544TIP3   OH235266   2.052   5.719   2.530 -0.1587 -0.5040  0.3180
 4544TIP3    H135267   1.959   5.729   2.549 -0.1485 -0.3141  0.2685
 4544TIP3    H235268   2.057   5.721   2.434 -0.2041 -1.4025  0.2814
 4545TIP3   OH235269   4.232   3.227   0.916 -0.1792 -0.2304  0.1377
 4545TIP3    H135270   4.199   3.221   0.826 -0.2804 -0.9284  0.2162
 4545TIP3    H235271   4.190   3.306   0.951 -0.4933 -0.2039 -0.2843
 4546TIP3   OH235272   4.982   2.295   1.674 -0.5960 -0.3825  0.5711
 4546TIP3    H135273   5.026   2.355   1.734 -1.5708  0.6458  0.3006
 4546TIP3    H235274   4.891   2.325   1.674 -1.1077 -1.8895  0.4385
 4547TIP3   OH235275   0.320   2.141   2.117 -0.2220  0.7942  0.0090
 4547TIP3    H135276   0.278   2.059   2.091  1.8921  0.0844 -1.3888
 4547TIP3    H235277   0.294   2.204   2.050  0.0931  0.6300 -0.2681
 4548TIP3   OH235278   2.584   0.570   7.521  0.2790 -0.2862 -0.1750
 4548TIP3    H135279   2.553   0.479   7.523 -1.7482  0.3165  2.4761
 4548TIP3    H235280   2.658   0.571   7.582  1.6973 -0.5033 -1.8226
 4549TIP3   OH235281   0.022   3.652   7.332  0.3013 -0.3436 -0.1585
 4549TIP3    H135282  -0.006   3.744   7.338  0.1428 -0.3933 -0.1284
 4549TIP3    H235283  -0.033   3.615   7.263 -0.3009 -0.6591  0.4879
 4550TIP3   OH235284   4.845   2.727   7.795  0.6766  0.4640  0.3883
 4550TIP3    H135285   4.803   2.689   7.718  3.0135 -0.0994 -0.6771
 4550TIP3    H235286   4.804   2.681   7.869 -1.5498  0.9534 -0.4449
 4551TIP3   OH235287   1.276   2.381   0.647  0.4535 -0.0860 -0.1183
 4551TIP3    H135288   1.203   2.382   0.709  1.6325 -0.2912  1.3258
 4551TIP3    H235289   1.257   2.453   0.586 -0.8638 -0.0427  0.3055
 4552TIP3   OH235290   0.900   5.315   6.960 -0.0003  0.1394 -0.4811
 4552TIP3    H135291   0.977   5.368   6.941 -0.4764 -0.0667 -3.3357
 4552TIP3    H235292   0.936   5.229   6.985  0.7180  0.2600 -1.0704
 4553TIP3   OH235293   5.306   4.622   7.706 -0.1138  0.0254  0.0393
 4553TIP3    H135294   5.224   4.668   7.723 -0.5718 -1.1776  1.2825
 4553TIP3    H235295   5.292   4.534   7.742  1.2117 -0.6620 -1.0233
 4554TIP3   OH235296   2.712   6.507   8.041  0.3736  0.4744 -0.6453
 4554TIP3    H135297   2.659   6.428   8.032 -2.0791  1.9929 -0.6384
 4554TIP3    H235298   2.700   6.533   8.132  0.9701  0.9661 -0.7020
 4555TIP3   OH235299   6.744   5.008   0.796  0.2241 -0.2653 -0.1443
 4555TIP3    H135300   6.717   5.087   0.750 -0.8772 -1.4738 -1.7064
 4555TIP3    H235301   6.679   4.997   0.865 -0.6816 -0.7171 -1.0376
 4556TIP3   OH235302   1.559   2.306   1.879 -0.4487  0.6424 -0.5810
 4556TIP3    H135303   1.650   2.327   1.859  0.2254 -0.7667  0.7197
 4556TIP3    H235304   1.529   2.377   1.936 -0.2105  1.1774 -1.1208
 4557TIP3   OH235305   3.159   4.756   1.946  0.3291  0.0022  0.5355
 4557TIP3    H135306   3.148   4.666   1.976  1.6270 -0.9601 -1.6420
 4557TIP3    H235307   3.116   4.759   1.860 -0.4307  1.7165  0.9262
 4558TIP3   OH235308   2.774   6.309   2.334  0.0727  0.1832 -0.5097
 4558TIP3    H135309   2.847   6.346   2.384 -0.9091  1.5552 -0.0138
 4558TIP3    H235310   2.703   6.302   2.398 -0.0991 -1.6394 -0.8543
 4559TIP3   OH235311   2.427   6.258   0.719  0.5387 -0.4470 -0.1557
 4559TIP3    H135312   2.335   6.239   0.733  0.6333 -1.0605 -0.3324
 4559TIP3    H235313   2.462   6.275   0.807  0.4632 -1.1969  0.0324
 4560TIP3   OH235314   5.091   2.917   0.596  0.0651  0.4449  0.1936
 4560TIP3    H135315   5.091   3.004   0.635  1.5337  0.5430  0.0348
 4560TIP3    H235316   5.095   2.857   0.671 -0.3599  0.5337  0.2861
 4561TIP3   OH235317   0.299   1.327   7.957  0.3168 -0.5727 -0.1258
 4561TIP3    H135318   0.373   1.386   7.945 -0.1767 -0.2207 -1.6012
 4561TIP3    H235319   0.226   1.385   7.980  0.3305 -0.8491  0.6452
 4562TIP3   OH235320   5.868   5.191   7.767 -0.2689  0.1662  0.3977
 4562TIP3    H135321   5.869   5.103   7.730 -1.5833  0.1293  0.3938
 4562TIP3    H235322   5.950   5.230   7.739 -0.1427 -0.6975 -0.4880
 4563TIP3   OH235323   5.866   4.339   8.336 -1.0149 -0.4484  0.1770
 4563TIP3    H135324   5.886   4.430   8.358  0.8107 -1.0444  1.2751
 4563TIP3    H235325   5.862   4.338   8.241  1.7987  0.3443 -0.0498
 4564TIP3   OH235326   6.267   3.747   6.251 -0.7517 -0.3072  0.0718
 4564TIP3    H135327   6.349   3.794   6.236  0.4277 -2.2964 -0.0726
 4564TIP3    H235328   6.235   3.726   6.164  0.9818 -3.3589  0.0381
 4565TIP3   OH235329   5.456   1.823   2.382  0.5978 -0.4235  0.1490
 4565TIP3    H135330   5.523   1.775   2.336  0.4598 -0.5755  0.1065
 4565TIP3    H235331   5.396   1.756   2.415  0.2357 -0.2619 -0.1802
 4566TIP3   OH235332   4.612   4.439   8.352 -0.6223 -0.1225  0.0331
 4566TIP3    H135333   4.536   4.449   8.408 -1.2450 -3.1529 -0.1019
 4566TIP3    H235334   4.577   4.443   8.263 -0.4391 -0.2967 -0.0473
 4567TIP3   OH235335   0.328   2.761   0.250  0.3916  0.4860 -0.3091
 4567TIP3    H135336   0.245   2.783   0.209 -0.0578  0.6803  0.6711
 4567TIP3    H235337   0.391   2.756   0.178 -0.9679 -2.2921 -1.4529
 4568TIP3   OH235338   6.274   5.817   7.832  0.1942  0.4441 -0.5186
 4568TIP3    H135339   6.342   5.810   7.899 -2.7991  0.1713  2.8108
 4568TIP3    H235340   6.275   5.732   7.788  2.3158  0.6676 -1.0052
 4569TIP3   OH235341   3.960   2.936   7.121 -0.4442  0.4366 -0.5680
 4569TIP3    H135342   4.010   2.996   7.065 -0.3664  0.5217 -0.4073
 4569TIP3    H235343   3.869   2.952   7.098 -0.3968  0.2413 -0.9050
 4570TIP3   OH235344   5.989   2.879   6.694 -0.6592  0.2386 -0.3476
 4570TIP3    H135345   6.082   2.870   6.718 -0.8696  0.1165  0.4624
 4570TIP3    H235346   5.980   2.970   6.667 -0.1408  0.0493 -1.1858
 4571TIP3   OH235347   1.196   5.896   0.429  0.1309 -0.4250 -0.3030
 4571TIP3    H135348   1.103   5.895   0.410  0.3353 -1.5838 -1.3433
 4571TIP3    H235349   1.235   5.836   0.365  1.3604 -1.4003  1.2851
 4572TIP3   OH235350   5.114   2.571   7.250  0.4582 -0.4774  0.3160
 4572TIP3    H135351   5.042   2.578   7.187  0.7857  2.1086  0.1281
 4572TIP3    H235352   5.154   2.486   7.231 -0.6383 -0.6091 -1.6420
 4573TIP3   OH235353   4.573   4.517   6.661 -0.3707  0.2381  0.2897
 4573TIP3    H135354   4.611   4.449   6.606 -3.7959 -1.1479 -0.6608
 4573TIP3    H235355   4.613   4.599   6.631 -1.2128 -0.5963 -3.5469
 4574TIP3   OH235356   1.201   1.959   0.032  0.2524 -0.6653 -0.8046
 4574TIP3    H135357   1.204   1.968  -0.063  1.4379 -1.1947 -0.8353
 4574TIP3    H235358   1.163   1.873   0.047 -2.0958  0.3066 -0.7121
 4575TIP3   OH235359   4.601   1.657   1.453  0.1156 -0.4490  0.0020
 4575TIP3    H135360   4.564   1.732   1.499 -1.2734  0.7502 -2.7834
 4575TIP3    H235361   4.541   1.585   1.471  0.0168 -0.2189  0.6143
 4576TIP3   OH235362   2.157   3.008   7.689  0.0274 -0.2344 -0.0195
 4576TIP3    H135363   2.175   3.074   7.622  1.4923 -1.6386 -1.0744
 4576TIP3    H235364   2.236   3.004   7.741  0.2629 -1.6460 -0.4321
 4577TIP3   OH235365   1.656   3.907   7.956  0.2142 -0.2481 -0.0016
 4577TIP3    H135366   1.628   3.864   8.037 -0.4596  0.3886  0.1104
 4577TIP3    H235367   1.744   3.940   7.976 -0.6120  1.4367  1.0851
 4578TIP3   OH235368   0.098   6.455   6.547 -0.5202 -0.4455  0.1401
 4578TIP3    H135369   0.192   6.448   6.530 -0.2498  0.2560  1.2048
 4578TIP3    H235370   0.081   6.549   6.547 -1.4033 -0.5855 -0.8728
 4579TIP3   OH235371   2.537   0.670   8.011 -0.7210 -0.1746  0.5549
 4579TIP3    H135372   2.476   0.608   8.052  0.2621 -0.6202  1.3923
 4579TIP3    H235373   2.547   0.740   8.075 -0.5086  0.0028  0.3315
 4580TIP3   OH235374   3.977   1.244   7.191 -0.3934 -0.0791  1.0501
 4580TIP3    H135375   3.959   1.157   7.156 -1.3635  0.5884 -0.1680
 4580TIP3    H235376   3.940   1.243   7.279 -0.0298 -1.0093  1.2093
 4581TIP3   OH235377   4.317   5.925   7.697  0.0120 -0.2060 -0.2435
 4581TIP3    H135378   4.381   5.860   7.668 -2.0390 -2.2716 -0.5270
 4581TIP3    H235379   4.327   5.928   7.793  0.3800 -0.6859 -0.2652
 4582TIP3   OH235380   0.164   6.664   0.355 -0.2770 -0.1179  0.1153
 4582TIP3    H135381   0.245   6.657   0.406  1.5420 -0.3427 -2.5676
 4582TIP3    H235382   0.138   6.756   0.366  0.1221 -0.1202  1.2973
 4583TIP3   OH235383   4.908   2.837   0.402 -0.1173  0.1510 -0.2086
 4583TIP3    H135384   4.987   2.831   0.455 -0.1141  1.1022 -0.0985
 4583TIP3    H235385   4.929   2.791   0.321  0.6675  0.6945 -0.3179
 4584TIP3   OH235386   1.644   3.140   2.110  0.1076 -0.0016 -0.2591
 4584TIP3    H135387   1.675   3.060   2.152  0.6098  0.4467  0.2438
 4584TIP3    H235388   1.654   3.208   2.177 -0.9602  0.3560 -0.4513
 4585TIP3   OH235389   4.199   5.041   1.611  0.1911  0.2049  0.1798
 4585TIP3    H135390   4.261   4.975   1.583  0.5380  0.3358  0.6298
 4585TIP3    H235391   4.133   4.993   1.661  1.6125  0.4578  2.4137
 4586TIP3   OH235392   4.557   5.474   0.276 -0.3015 -0.6182 -0.0848
 4586TIP3    H135393   4.547   5.554   0.326  0.9167  0.7065 -1.8225
 4586TIP3    H235394   4.468   5.446   0.255 -0.7470  1.7520 -1.6296
 4587TIP3   OH235395   0.635   1.839   1.783 -0.2591  0.0671 -0.1079
 4587TIP3    H135396   0.623   1.874   1.871 -1.2033 -1.4801  0.4239
 4587TIP3    H235397   0.703   1.894   1.745 -0.4302  1.3123  1.2763
 4588TIP3   OH235398   6.899   0.178   5.898  0.0354 -0.4189  0.1990
 4588TIP3    H135399   6.899   0.116   5.971  1.4683  0.5288  1.0565
 4588TIP3    H235400   6.841   0.249   5.927  0.6077 -0.0406  0.4377
 4589TIP3   OH235401   0.494   2.525   1.820  0.4658  0.0408 -0.5272
 4589TIP3    H135402   0.529   2.603   1.865  0.3369  0.0128 -0.3744
 4589TIP3    H235403   0.543   2.520   1.738 -0.2660  0.9062 -1.0340
 4590TIP3   OH235404   0.891   5.127   2.383  0.7881 -0.5847  0.1699
 4590TIP3    H135405   0.853   5.210   2.353  0.2046 -1.0108 -0.2786
 4590TIP3    H235406   0.984   5.148   2.397  0.6777  0.1099 -0.0826
 4591TIP3   OH235407   0.562   5.563   6.636 -0.3271 -0.1431  0.0566
 4591TIP3    H135408   0.550   5.617   6.558  0.3010  0.7861  0.5810
 4591TIP3    H235409   0.488   5.584   6.692  0.0439  0.3856  0.3641
 4592TIP3   OH235410   1.177   6.464   2.280 -0.6931 -0.3560  0.5020
 4592TIP3    H135411   1.261   6.509   2.292 -0.7058 -0.4133  0.8131
 4592TIP3    H235412   1.113   6.535   2.271 -0.4391 -0.2979 -1.0596
 4593TIP3   OH235413   5.487   1.353   1.372 -0.0051 -0.1845  0.0833
 4593TIP3    H135414   5.462   1.393   1.456  1.1224 -0.0054  0.3454
 4593TIP3    H235415   5.442   1.268   1.372 -0.6034  0.1207  0.5346
 4594TIP3   OH235416   4.924   4.136   8.356  0.0263  0.0531 -0.4295
 4594TIP3    H135417   4.931   4.199   8.285  0.2292 -1.0317 -1.4054
 4594TIP3    H235418   5.005   4.085   8.352  1.0645  1.3142  1.9676
 4595TIP3   OH235419   0.906   0.537   7.219  0.1740  0.3505 -0.1636
 4595TIP3    H135420   0.988   0.565   7.260 -0.5518  0.0401  1.5896
 4595TIP3    H235421   0.887   0.453   7.260 -2.0612  1.3635  1.0564
 4596TIP3   OH235422   0.823   2.836   0.266 -0.9527  0.2859  0.0988
 4596TIP3    H135423   0.862   2.922   0.283 -2.6998  1.0797  0.4416
 4596TIP3    H235424   0.895   2.781   0.239  0.3752  1.6359  0.7411
 4597TIP3   OH235425   2.744   5.284   0.835 -0.3106  0.0755  0.2294
 4597TIP3    H135426   2.795   5.282   0.916 -0.9712  0.4601  0.6715
 4597TIP3    H235427   2.774   5.208   0.785  0.8568  0.4303  0.3663
 4598TIP3   OH235428   4.722   6.231   1.324 -0.2936 -0.1242 -0.1066
 4598TIP3    H135429   4.798   6.261   1.374  1.2284 -0.7354 -1.9772
 4598TIP3    H235430   4.693   6.308   1.275 -0.3226 -0.1291 -0.0981
 4599TIP3   OH235431   0.265   4.778   1.685  0.0848 -0.6605 -0.0924
 4599TIP3    H135432   0.335   4.731   1.730 -0.1313 -2.1815 -1.2629
 4599TIP3    H235433   0.291   4.870   1.689  0.8128 -0.9069  1.7660
 4600TIP3   OH235434   5.804   4.301   7.689  0.2481 -0.0489 -0.2089
 4600TIP3    H135435   5.875   4.329   7.746 -1.2384  0.3009  1.5580
 4600TIP3    H235436   5.784   4.212   7.716 -0.9092  0.3486  0.3467
 4601TIP3   OH235437   4.838   6.875   1.565 -0.4414  0.3118  0.1714
 4601TIP3    H135438   4.765   6.935   1.550 -1.9043 -1.6130 -0.8276
 4601TIP3    H235439   4.908   6.908   1.509 -1.5122  0.6166 -1.0431
 4602TIP3   OH235440   3.223   1.803   1.304  0.0291  0.5012 -0.3388
 4602TIP3    H135441   3.203   1.807   1.397  0.6230  0.6948 -0.2148
 4602TIP3    H235442   3.196   1.889   1.270  1.5392  1.1504  0.0197
 4603TIP3   OH235443   2.359   3.805   6.587 -0.0755 -0.3583  0.2060
 4603TIP3    H135444   2.350   3.763   6.502 -0.1443  2.5276 -1.3131
 4603TIP3    H235445   2.453   3.811   6.601 -0.0458 -2.0795  1.0848
 4604TIP3   OH235446   6.288   6.374   7.662 -0.2754  0.0688 -0.5918
 4604TIP3    H135447   6.281   6.380   7.566 -0.0975 -0.9161 -0.6794
 4604TIP3    H235448   6.283   6.280   7.680  1.2956  0.1203  0.2386
 4605TIP3   OH235449   3.716   4.323   2.502 -0.6057  0.1576 -0.1089
 4605TIP3    H135450   3.644   4.296   2.559 -1.5152  1.6747 -0.4938
 4605TIP3    H235451   3.702   4.273   2.421 -2.5485  1.9872 -0.9922
 4606TIP3   OH235452   1.100   0.574   8.241 -0.0163 -0.3877  0.2092
 4606TIP3    H135453   1.027   0.527   8.201 -0.3045  0.5077 -0.3312
 4606TIP3    H235454   1.164   0.584   8.171  0.2198 -0.3381  0.4306
 4607TIP3   OH235455   3.022   1.754   0.644 -0.0712 -0.2903 -0.5142
 4607TIP3    H135456   2.942   1.806   0.653 -1.1163 -1.8518 -0.3025
 4607TIP3    H235457   3.000   1.687   0.579  1.6790  0.3189 -1.8060
 4608TIP3   OH235458   4.904   1.060   7.567 -0.2663 -0.0066  0.0488
 4608TIP3    H135459   4.903   1.017   7.652 -1.8638 -2.2375 -1.0128
 4608TIP3    H235460   4.825   1.114   7.567  0.2940  0.8380  0.3392
 4609TIP3   OH235461   4.953   0.552   7.829  0.6558 -0.4672 -0.0177
 4609TIP3    H135462   4.983   0.584   7.744 -1.1055  1.6325  0.0697
 4609TIP3    H235463   4.862   0.527   7.814 -0.7831  3.0040  1.8192
 4610TIP3   OH235464   6.379   2.457   1.722 -0.1237  0.3579 -0.6595
 4610TIP3    H135465   6.430   2.517   1.775  0.3262 -0.9949  0.4968
 4610TIP3    H235466   6.328   2.406   1.785 -0.4696 -0.5027 -1.6002
 4611TIP3   OH235467   5.397   2.957   0.700 -0.2476 -0.3801 -0.6022
 4611TIP3    H135468   5.398   3.037   0.752  2.0793 -0.7134  0.0029
 4611TIP3    H235469   5.319   2.910   0.729 -1.7865  1.6963 -1.1251
 4612TIP3   OH235470   5.061   3.650   6.858  0.4699  0.1731  0.0731
 4612TIP3    H135471   5.130   3.614   6.801 -0.2099 -1.0051 -0.0178
 4612TIP3    H235472   5.058   3.743   6.833  3.6769  0.8861  1.7659
 4613TIP3   OH235473   3.396   1.317   0.605  0.1931  0.3264  0.1387
 4613TIP3    H135474   3.401   1.412   0.602  1.5283  0.2986  0.7232
 4613TIP3    H235475   3.325   1.298   0.665 -0.5055  0.9362 -0.4748
 4614TIP3   OH235476   3.774   4.816   2.052 -0.4250 -0.3644 -0.0719
 4614TIP3    H135477   3.697   4.859   2.014  1.9278  3.9849 -0.4345
 4614TIP3    H235478   3.800   4.873   2.124  2.9530 -1.2199 -0.4835
 4615TIP3   OH235479   1.431   0.037   1.879  0.3332  0.3212 -0.2778
 4615TIP3    H135480   1.461   0.125   1.903 -0.7545  0.7550 -0.4160
 4615TIP3    H235481   1.507  -0.020   1.893  0.4139  0.9027  2.0910
 4616TIP3   OH235482   2.625   4.899   0.275  1.0195 -0.0706  0.5241
 4616TIP3    H135483   2.656   4.864   0.359 -0.6337  0.4388  1.3767
 4616TIP3    H235484   2.700   4.948   0.241  1.8993 -0.7360  1.4356
 4617TIP3   OH235485   2.098   5.451   0.976  0.7947  1.0297  0.5813
 4617TIP3    H135486   2.170   5.498   1.019  1.8144 -1.0960  1.4036
 4617TIP3    H235487   2.075   5.382   1.039  1.4859 -1.4410 -1.6795
 4618TIP3   OH235488   1.077   5.622   6.454 -0.1467  0.2714  0.0340
 4618TIP3    H135489   1.017   5.587   6.389  0.9440  0.1378 -0.9345
 4618TIP3    H235490   1.155   5.566   6.449 -0.1299  0.0945  1.6472
 4619TIP3   OH235491   5.955   6.705   0.919 -0.1142 -0.0231 -0.7950
 4619TIP3    H135492   5.925   6.796   0.916  0.9421  0.3591 -0.2563
 4619TIP3    H235493   5.885   6.656   0.877 -1.3695  0.8589  0.1871
 4620TIP3   OH235494   1.737   4.644   2.002  0.2309 -1.0452  0.0132
 4620TIP3    H135495   1.816   4.595   1.976  0.4929 -0.3249 -0.5878
 4620TIP3    H235496   1.728   4.712   1.935 -0.0657 -0.2035  0.8868
 4621TIP3   OH235497   1.657   5.935   1.832 -0.2709 -0.1270  0.0770
 4621TIP3    H135498   1.607   5.991   1.893 -3.2860 -0.2580 -2.0309
 4621TIP3    H235499   1.632   5.846   1.856 -1.5009 -0.1771 -1.2868
 4622TIP3   OH235500   4.472   5.085   7.605  0.2482  0.4531  0.7297
 4622TIP3    H135501   4.421   5.028   7.663 -0.8223 -0.1410 -0.7223
 4622TIP3    H235502   4.423   5.084   7.522  3.4232 -1.5458 -1.3545
 4623TIP3   OH235503   0.640   0.369   1.452 -0.3832 -0.1369 -0.1350
 4623TIP3    H135504   0.548   0.356   1.475 -0.0196 -1.5847  0.6244
 4623TIP3    H235505   0.638   0.412   1.367 -1.7554  0.8348  0.3552
 4624TIP3   OH235506   0.070   6.031   1.965 -0.3184 -0.6858 -0.0948
 4624TIP3    H135507   0.162   6.042   1.988 -0.3973  0.5653 -0.3045
 4624TIP3    H235508   0.022   6.062   2.041 -0.5900  4.0566 -1.8431
 4625TIP3   OH235509   6.832   0.849   8.068  0.1701  0.6709 -0.9387
 4625TIP3    H135510   6.800   0.908   8.136  1.1833 -1.2688  1.3597
 4625TIP3    H235511   6.760   0.787   8.054  0.1036  0.8471 -1.4269
 4626TIP3   OH235512   2.747   1.368   1.149 -0.2674  0.0596 -0.0595
 4626TIP3    H135513   2.757   1.341   1.240 -0.2676  0.0709 -0.0560
 4626TIP3    H235514   2.737   1.287   1.100 -3.1113  0.1109  0.2923
 4627TIP3   OH235515   1.404   1.538   0.605  0.4772 -0.2751 -0.2475
 4627TIP3    H135516   1.337   1.470   0.608 -1.1971  1.2839 -0.7288
 4627TIP3    H235517   1.418   1.561   0.697 -0.5020  0.1877 -0.2095
 4628TIP3   OH235518   3.637   1.388   6.331  0.0749  0.2863 -0.3609
 4628TIP3    H135519   3.559   1.422   6.374  0.6221  0.1583  0.7853
 4628TIP3    H235520   3.651   1.302   6.371  0.2225 -0.1398 -1.2979
 4629TIP3   OH235521   0.266   6.540   1.017  0.2243  0.1436 -0.5760
 4629TIP3    H135522   0.294   6.607   1.080 -0.1432 -0.0392 -0.2126
 4629TIP3    H235523   0.220   6.475   1.070  0.3444 -0.2629 -0.9667
 4630TIP3   OH235524   4.528   4.938   7.025  0.9695 -0.1596 -0.4650
 4630TIP3    H135525   4.604   4.950   7.081  0.6347  0.2621 -0.1024
 4630TIP3    H235526   4.520   5.020   6.976 -0.1138  0.3718  0.5591
 4631TIP3   OH235527   2.790   1.313   2.397  0.3035 -0.1450 -0.3657
 4631TIP3    H135528   2.793   1.219   2.415 -0.0581 -0.1386 -0.2658
 4631TIP3    H235529   2.834   1.353   2.471  1.6676 -0.3114 -1.0491
 4632TIP3   OH235530   4.709   1.317   0.169 -0.5431 -0.7569  0.2787
 4632TIP3    H135531   4.630   1.300   0.119 -0.8245 -0.1687  0.5158
 4632TIP3    H235532   4.686   1.295   0.259 -0.6361 -0.0209  0.4463
 4633TIP3   OH235533   5.495   5.381   7.466 -0.2806  0.1381 -0.0895
 4633TIP3    H135534   5.513   5.314   7.532 -0.4089  0.1369 -0.0554
 4633TIP3    H235535   5.400   5.390   7.467 -0.2209  0.8045  0.3812
 4634TIP3   OH235536   4.446   0.768   1.602  0.5465 -0.3074  0.3259
 4634TIP3    H135537   4.534   0.737   1.623  0.5933  0.6223  1.6490
 4634TIP3    H235538   4.389   0.725   1.666  0.4005  1.0163  1.1277
 4635TIP3   OH235539   2.984   0.431   0.248 -0.6451 -0.1120  0.1800
 4635TIP3    H135540   2.940   0.413   0.165  0.3506  0.4094 -0.4680
 4635TIP3    H235541   3.046   0.501   0.229 -1.4979  1.1391  1.7238
 4636TIP3   OH235542   2.155   3.750   8.133 -0.4891  0.4621 -0.1659
 4636TIP3    H135543   2.172   3.833   8.087 -2.5413  1.6517  1.1069
 4636TIP3    H235544   2.069   3.761   8.172  0.5332 -1.0306  2.7819
 4637TIP3   OH235545   5.468   1.502   1.135  0.4392 -0.0162 -0.2344
 4637TIP3    H135546   5.402   1.570   1.146 -0.1036 -0.5374 -0.2085
 4637TIP3    H235547   5.463   1.449   1.215  0.9773  0.0107 -0.1754
 4638TIP3   OH235548   0.536   6.042   0.824  0.3520  0.0075  0.0458
 4638TIP3    H135549   0.615   6.018   0.872 -0.8372 -3.1355  0.6628
 4638TIP3    H235550   0.565   6.050   0.733  1.5110 -0.3173  0.3695
 4639TIP3   OH235551   3.018   3.891   7.351 -0.4439 -0.1705  0.4074
 4639TIP3    H135552   3.094   3.851   7.394  0.5073  0.0757 -0.9976
 4639TIP3    H235553   2.975   3.818   7.307 -0.4992 -0.1522  0.4312
 4640TIP3   OH235554   1.651   5.343   0.557 -0.2997  0.1675  0.3324
 4640TIP3    H135555   1.582   5.391   0.603 -0.6192 -0.1735  0.2117
 4640TIP3    H235556   1.716   5.410   0.536  0.1475  0.2217  1.8172
 4641TIP3   OH235557   5.985   4.625   8.020  0.4258 -0.4196 -0.4907
 4641TIP3    H135558   5.933   4.548   8.041  0.6235 -0.4087  0.0634
 4641TIP3    H235559   6.032   4.602   7.940  1.5349 -1.3974  0.4052
 4642TIP3   OH235560   1.044   0.284   7.255  0.1886  0.1847  0.1740
 4642TIP3    H135561   1.091   0.282   7.338 -0.3554  0.7164  0.5120
 4642TIP3    H235562   0.980   0.213   7.262 -0.8089  1.1096  0.8171
 4643TIP3   OH235563   0.823   0.958   7.741 -0.0724 -0.3277  0.1383
 4643TIP3    H135564   0.843   0.893   7.808  0.1644 -1.9902 -1.4547
 4643TIP3    H235565   0.746   0.924   7.696 -2.2482  2.3815  1.5444
 4644TIP3   OH235566   0.620   2.960   1.406  0.2418  0.2928 -0.4519
 4644TIP3    H135567   0.592   3.027   1.343 -3.0569 -0.0309  0.4678
 4644TIP3    H235568   0.564   2.885   1.388  1.1779 -0.8240  1.0580
 4645TIP3   OH235569   5.510   5.190   0.301 -0.2647 -0.7215  0.0048
 4645TIP3    H135570   5.536   5.226   0.216  2.0311 -1.0762  0.4996
 4645TIP3    H235571   5.420   5.159   0.287 -0.4778  0.5587 -1.8501
 4646TIP3   OH235572   3.964   5.278   1.047  0.8636 -0.1068  0.3628
 4646TIP3    H135573   4.030   5.209   1.039 -0.7798 -1.9094  1.7411
 4646TIP3    H235574   3.935   5.274   1.138 -0.1724  1.6140  0.1562
 4647TIP3   OH235575   4.835   4.716   2.481  0.3243  0.1327  0.2480
 4647TIP3    H135576   4.887   4.797   2.485 -0.0061  0.3263  0.6244
 4647TIP3    H235577   4.755   4.741   2.437  0.4020 -0.0900 -0.0201
 4648TIP3   OH235578   5.876   6.232   7.467 -0.1539  0.2728  0.4782
 4648TIP3    H135579   5.809   6.287   7.507  0.2059  0.5622  0.6889
 4648TIP3    H235580   5.915   6.184   7.540  0.1107  0.3727  0.4038
 4649TIP3   OH235581   0.049   0.170   1.643 -0.0830  0.9035 -0.6691
 4649TIP3    H135582  -0.028   0.128   1.605  0.4083 -2.0902  1.3204
 4649TIP3    H235583   0.123   0.118   1.611  0.6779  0.9178  0.9710
 4650TIP3   OH235584   0.677   1.560   8.014  0.6101 -0.4706  0.9933
 4650TIP3    H135585   0.678   1.497   7.943 -0.7706 -1.1652  1.5454
 4650TIP3    H235586   0.601   1.616   7.995  0.5423 -0.3375  1.6264
 4651TIP3   OH235587   4.444   2.384   0.213  0.0176 -0.6308 -0.3774
 4651TIP3    H135588   4.490   2.448   0.267 -0.7395 -0.2012 -0.2141
 4651TIP3    H235589   4.473   2.299   0.246  4.1210 -0.5734 -3.1586
 4652TIP3   OH235590   0.187   6.145   0.249 -0.2032  0.1360  0.2595
 4652TIP3    H135591   0.118   6.211   0.265  0.0318  0.8255 -1.3793
 4652TIP3    H235592   0.143   6.061   0.262 -1.1098  0.5779  0.1566
 4653TIP3   OH235593   2.645   3.274   0.446 -0.1473 -0.2328  0.4060
 4653TIP3    H135594   2.569   3.230   0.484 -0.8565 -0.1236 -0.8279
 4653TIP3    H235595   2.719   3.242   0.497 -0.8987 -1.1888  0.9340
 4654TIP3   OH235596   5.292   6.986   8.323  0.3081  0.8385  0.1468
 4654TIP3    H135597   5.357   6.931   8.278 -0.5723  1.3397 -1.8836
 4654TIP3    H235598   5.254   6.928   8.389  2.6754  0.4906  1.3018
 4655TIP3   OH235599   6.159   4.249   7.272 -0.6211 -0.0557  0.1364
 4655TIP3    H135600   6.156   4.155   7.288  0.9505 -0.3185 -0.9496
 4655TIP3    H235601   6.067   4.275   7.268 -1.0830 -1.6108  0.0750
 4656TIP3   OH235602   0.095   4.884   1.489  0.3514 -1.0729 -0.0850
 4656TIP3    H135603   0.154   4.860   1.561  0.4410 -1.1625 -0.1897
 4656TIP3    H235604   0.147   4.941   1.432 -0.1580  0.2239  0.6918
 4657TIP3   OH235605   0.951   5.697   7.458 -0.4495  0.7414 -0.1938
 4657TIP3    H135606   1.009   5.622   7.473 -0.6108  0.7640  0.5615
 4657TIP3    H235607   0.864   5.658   7.445 -0.8539  0.8612  1.8831
 4658TIP3   OH235608   5.468   5.647   0.566 -0.4072  0.6037 -0.5491
 4658TIP3    H135609   5.402   5.670   0.501 -3.7071 -1.0068  1.9607
 4658TIP3    H235610   5.457   5.553   0.580  1.5115  0.5273  0.9751
 4659TIP3   OH235611   2.527   0.185   0.453  0.3477 -0.0227  0.3493
 4659TIP3    H135612   2.467   0.156   0.521  0.0245 -0.6019 -0.1736
 4659TIP3    H235613   2.498   0.275   0.433  0.2741  0.0517  0.7785
 4660TIP3   OH235614   2.848   1.341   1.930  0.1873 -0.0987  0.0915
 4660TIP3    H135615   2.814   1.299   1.851 -0.5881  0.7292 -0.0230
 4660TIP3    H235616   2.882   1.425   1.899  0.4468 -0.0341  0.5478
 4661TIP3   OH235617   3.497   1.361   7.032 -0.1539 -0.1898  0.1691
 4661TIP3    H135618   3.526   1.286   6.981 -2.4253 -0.9527 -0.1038
 4661TIP3    H235619   3.422   1.329   7.081 -1.4881  2.0011 -0.3055
 4662TIP3   OH235620   3.342   4.820   2.221 -0.2153 -0.7234 -0.0115
 4662TIP3    H135621   3.319   4.745   2.277  0.6447 -1.5015 -0.6545
 4662TIP3    H235622   3.293   4.806   2.140 -0.1075 -0.5499 -0.1075
 4663TIP3   OH235623   1.527   2.304   0.907  0.8108 -0.0623  0.0740
 4663TIP3    H135624   1.442   2.268   0.881  0.7747 -0.7302  1.0361
 4663TIP3    H235625   1.592   2.247   0.866  0.9267  2.1887 -3.1590
 4664TIP3   OH235626   6.345   4.029   7.475 -0.3571  0.1514  0.0179
 4664TIP3    H135627   6.267   3.984   7.441 -1.4903  1.2857  1.0418
 4664TIP3    H235628   6.329   4.036   7.569  2.2260 -1.9650  0.7173
 4665TIP3   OH235629   0.421   2.998   1.606  0.0092 -0.6184  0.0436
 4665TIP3    H135630   0.346   3.023   1.552  0.7481  1.8886  0.0518
 4665TIP3    H235631   0.483   2.960   1.544 -0.6122 -1.2355 -0.2207
 4666TIP3   OH235632   2.342   3.493   7.664  0.7936 -0.6345 -0.4469
 4666TIP3    H135633   2.398   3.569   7.649  3.5928 -2.0244  2.0547
 4666TIP3    H235634   2.368   3.430   7.597  1.0248 -0.6871 -0.3061
 4667TIP3   OH235635   4.709   5.703   0.836  0.3176  0.7417  0.4742
 4667TIP3    H135636   4.794   5.659   0.832 -0.8330 -1.6215 -2.1187
 4667TIP3    H235637   4.655   5.655   0.772 -1.9776  4.2565 -0.4987
 4668TIP3   OH235638   1.670   1.226   7.274  0.4852 -0.0001 -0.7662
 4668TIP3    H135639   1.703   1.140   7.300  1.1109  0.2397 -0.7466
 4668TIP3    H235640   1.683   1.228   7.179  0.6339  0.1383 -0.7431
 4669TIP3   OH235641   1.569   5.684   1.932  0.1447 -0.4470  0.1316
 4669TIP3    H135642   1.476   5.666   1.920 -0.1742  0.1647  1.4289
 4669TIP3    H235643   1.601   5.609   1.982  0.2439 -0.4538  0.0566
 4670TIP3   OH235644   3.363   4.704   0.061 -0.3315  0.3933 -0.5432
 4670TIP3    H135645   3.291   4.660   0.016 -0.6364 -0.3329  0.6159
 4670TIP3    H235646   3.354   4.679   0.152  1.8788 -0.4118 -0.4773
 4671TIP3   OH235647   5.650   1.473   0.270 -0.5705 -0.2800  0.2452
 4671TIP3    H135648   5.656   1.561   0.307  0.2939  0.0903 -0.7436
 4671TIP3    H235649   5.605   1.484   0.187  0.4852 -0.6028 -0.3859
 4672TIP3   OH235650   6.498   4.371   0.384  0.2758 -0.1902 -0.7474
 4672TIP3    H135651   6.461   4.408   0.304 -1.6527 -1.3039 -0.4319
 4672TIP3    H235652   6.440   4.400   0.454  0.4452 -1.3022 -0.1091
 4673TIP3   OH235653   4.488   6.317   7.632 -0.0316  0.5047  0.3141
 4673TIP3    H135654   4.412   6.365   7.665  1.3820  0.7951  3.5673
 4673TIP3    H235655   4.559   6.343   7.690  1.5209 -3.1220  0.2780
 4674TIP3   OH235656   4.920   5.437   0.281 -0.0982  0.0698 -0.3133
 4674TIP3    H135657   4.883   5.360   0.237 -0.0356  0.3282 -0.8210
 4674TIP3    H235658   4.918   5.414   0.374 -0.6800 -0.2915 -0.4072
 4675TIP3   OH235659   5.729   2.180   6.738  0.7230  0.2645  0.0166
 4675TIP3    H135660   5.772   2.237   6.673 -1.2281  0.3505 -1.2931
 4675TIP3    H235661   5.713   2.098   6.691  0.0005  0.0298  0.6527
 4676TIP3   OH235662   2.242   0.586   0.160 -0.0233  0.1935  0.1085
 4676TIP3    H135663   2.234   0.507   0.107 -0.7095 -1.3026  2.3262
 4676TIP3    H235664   2.158   0.630   0.150 -1.5392 -1.8825  2.5498
 4677TIP3   OH235665   5.765   0.155   0.081  0.1385  0.0467  0.4174
 4677TIP3    H135666   5.818   0.163   0.002  1.0002  0.1530  0.9914
 4677TIP3    H235667   5.759   0.061   0.097  0.3216  0.0397  0.4518
 4678TIP3   OH235668   4.620   5.960   0.533  0.5706  0.7280 -0.0041
 4678TIP3    H135669   4.670   5.881   0.513  2.4651  1.8824 -0.1402
 4678TIP3    H235670   4.536   5.928   0.566  0.9223 -1.3047 -0.9123
 4679TIP3   OH235671   4.110   2.734   0.129  0.1751  0.2212  0.0018
 4679TIP3    H135672   4.175   2.749   0.061 -0.6949  0.1285 -0.8627
 4679TIP3    H235673   4.043   2.800   0.113 -1.1087 -1.1936 -0.5972
 4680TIP3   OH235674   5.222   2.354   7.146 -0.0163  0.4008  0.3159
 4680TIP3    H135675   5.298   2.355   7.088  0.6961 -0.7784  1.1605
 4680TIP3    H235676   5.147   2.361   7.087  0.4684 -4.0762 -1.2692
 4681TIP3   OH235677   4.184   0.747   2.254  0.2054 -0.6185  0.0668
 4681TIP3    H135678   4.135   0.745   2.336  1.7972  0.4336  1.0977
 4681TIP3    H235679   4.269   0.786   2.277  0.0794  1.3805 -2.3953
 4682TIP3   OH235680   3.637   5.381   6.439 -0.1203  0.5386 -0.2229
 4682TIP3    H135681   3.686   5.464   6.438 -1.3133  1.2660 -1.1465
 4682TIP3    H235682   3.703   5.314   6.420  0.6866  1.3797 -0.4801
 4683TIP3   OH235683   4.696   3.170   1.870 -0.2116  0.1198  0.7057
 4683TIP3    H135684   4.762   3.145   1.805 -0.1192 -0.0550  0.8660
 4683TIP3    H235685   4.620   3.194   1.818  0.4203  1.6817  0.4486
 4684TIP3   OH235686   1.276   5.612   2.293  0.4086  0.1348  0.2323
 4684TIP3    H135687   1.351   5.557   2.272 -0.2796 -0.6237 -0.3031
 4684TIP3    H235688   1.226   5.562   2.357 -0.4914 -0.1319 -0.6413
 4685TIP3   OH235689   6.001   2.160   0.409  0.1951  0.0511  0.1429
 4685TIP3    H135690   5.916   2.117   0.402  0.7030 -0.7765 -1.5104
 4685TIP3    H235691   6.039   2.125   0.490 -1.6265  1.6518  1.8033
 4686TIP3   OH235692   1.687   2.524   0.386  0.0160 -0.0393 -0.0257
 4686TIP3    H135693   1.651   2.461   0.323  0.4549 -0.5287  0.2089
 4686TIP3    H235694   1.666   2.487   0.471  1.2319 -0.4394  0.1228
 4687TIP3   OH235695   0.165   0.595   6.635  0.6223  0.2153 -0.2242
 4687TIP3    H135696   0.171   0.544   6.555  2.3998  0.9909 -0.6402
 4687TIP3    H235697   0.236   0.659   6.628  1.8313 -0.6415  2.6314
 4688TIP3   OH235698   1.770   6.341   1.910  0.3367 -0.1722  0.1676
 4688TIP3    H135699   1.779   6.246   1.904  1.3514 -0.1874  1.4459
 4688TIP3    H235700   1.847   6.375   1.865  1.3453 -0.0439  1.9095
 4689TIP3   OH235701   6.510   3.573   1.415  0.2318  0.2517  0.1031
 4689TIP3    H135702   6.514   3.537   1.504  1.0884 -0.3573 -0.1693
 4689TIP3    H235703   6.499   3.668   1.428 -0.8445  0.0466  0.8371
 4690TIP3   OH235704   2.150   2.326   1.555 -0.6533  0.0680  0.4602
 4690TIP3    H135705   2.087   2.376   1.504  0.1509 -1.4307 -2.2052
 4690TIP3    H235706   2.096   2.265   1.606 -1.5039  2.0511  2.0797
 4691TIP3   OH235707   4.895   1.502   8.454  0.2476  0.7164 -0.1417
 4691TIP3    H135708   4.800   1.505   8.446  0.1179 -0.2545  0.9051
 4691TIP3    H235709   4.922   1.425   8.405  0.2901 -0.1340  1.1761
 4692TIP3   OH235710   4.229   1.437   0.382 -0.4178 -0.0160  0.3822
 4692TIP3    H135711   4.185   1.376   0.322 -2.5246  0.6155  1.1884
 4692TIP3    H235712   4.158   1.474   0.434  1.0296  1.6904  1.2355
 4693TIP3   OH235713   1.657   6.232   0.418  0.6974 -0.2857 -0.2860
 4693TIP3    H135714   1.600   6.298   0.457  2.7348  1.1199  0.4415
 4693TIP3    H235715   1.740   6.241   0.465  1.9032 -1.4898 -2.0667
 4694TIP3   OH235716   0.223   2.443   0.251 -0.0867 -0.3117  0.1722
 4694TIP3    H135717   0.188   2.382   0.316 -1.3507  0.3044  0.0993
 4694TIP3    H235718   0.202   2.530   0.285 -0.6262  0.0268 -0.9608
 4695TIP3   OH235719   4.218   3.647   7.647  0.0677 -0.0567  0.3806
 4695TIP3    H135720   4.142   3.633   7.592  0.4946 -0.8581 -0.0252
 4695TIP3    H235721   4.287   3.673   7.586  0.2191  0.2909  0.6960
 4696TIP3   OH235722   5.668   4.458   7.139 -0.4058 -0.0992  0.2549
 4696TIP3    H135723   5.595   4.404   7.110 -0.1169 -1.0259  1.1790
 4696TIP3    H235724   5.628   4.537   7.176 -0.9247 -0.4330  0.4055
 4697TIP3   OH235725   5.574   3.493   1.782 -0.3859  0.2790  0.1609
 4697TIP3    H135726   5.511   3.436   1.737 -1.6715  0.9667  1.0181
 4697TIP3    H235727   5.520   3.551   1.835  0.9561  1.4369  0.3221
 4698TIP3   OH235728   5.319   0.815   0.808  0.2177 -0.1403 -0.5337
 4698TIP3    H135729   5.354   0.868   0.737 -1.3948  0.9722 -0.5495
 4698TIP3    H235730   5.385   0.821   0.877  1.3870 -0.5016 -1.5812
 4699TIP3   OH235731   4.325   6.897   0.991 -0.2730  0.4123 -0.3143
 4699TIP3    H135732   4.258   6.843   0.949 -2.4078  1.9699  0.8990
 4699TIP3    H235733   4.330   6.975   0.937  1.7236 -0.2746 -1.2208
 4700TIP3   OH235734   6.017   5.885   7.902  0.4498  0.7355  0.6272
 4700TIP3    H135735   6.109   5.868   7.881  0.7795 -0.0416  2.5471
 4700TIP3    H235736   6.010   5.872   7.996 -1.9837 -0.8260  0.3182
 4701TIP3   OH235737   3.887   2.782   0.672  0.3248  0.3484  0.3320
 4701TIP3    H135738   3.879   2.855   0.611  0.5541  0.9299  0.9756
 4701TIP3    H235739   3.981   2.762   0.675  0.5296  1.3606  1.6418
 4702TIP3   OH235740   6.031   5.357   6.901 -0.1448 -0.0852  0.4893
 4702TIP3    H135741   6.048   5.296   6.829  1.2343 -0.4160  1.0634
 4702TIP3    H235742   6.059   5.442   6.868 -0.7988  0.0100  0.1657
 4703TIP3   OH235743   4.399   2.811   7.993 -0.1139 -0.3951  0.4469
 4703TIP3    H135744   4.417   2.716   7.992 -0.0017 -0.3920 -1.1437
 4703TIP3    H235745   4.452   2.844   8.065  0.1173 -1.5112  0.8147
 4704TIP3   OH235746   1.952   6.246   6.148  0.4161  0.3763 -0.3261
 4704TIP3    H135747   1.997   6.168   6.181 -0.4436  0.8380  2.1455
 4704TIP3    H235748   1.875   6.211   6.103 -0.9781 -0.2510  2.3659
 4705TIP3   OH235749   3.904   2.817   1.607 -0.2302  0.0867 -0.5090
 4705TIP3    H135750   3.970   2.809   1.676  1.2719 -1.0034 -1.9780
 4705TIP3    H235751   3.907   2.733   1.561 -1.7833  0.4715 -1.3799
 4706TIP3   OH235752   5.217   4.430   7.915 -0.1497  0.5790  0.0589
 4706TIP3    H135753   5.311   4.413   7.922  0.4068  2.8207 -1.1181
 4706TIP3    H235754   5.182   4.355   7.866  0.7906 -0.7729  1.3442
 4707TIP3   OH235755   6.297   2.340   0.972  0.9286 -0.4949 -0.1967
 4707TIP3    H135756   6.387   2.324   0.945  1.3149  1.2475 -0.0623
 4707TIP3    H235757   6.243   2.299   0.904  1.8123 -0.9953 -0.6119
 4708TIP3   OH235758   0.983   6.433   0.247  0.4448  0.0047  0.1074
 4708TIP3    H135759   0.903   6.416   0.296 -0.1079  1.5988 -0.1620
 4708TIP3    H235760   0.994   6.356   0.191  0.0120 -0.9599  1.3045
 4709TIP3   OH235761   4.877   0.021   8.314 -0.0377 -0.5255  0.0158
 4709TIP3    H135762   4.853   0.114   8.321 -1.1397 -0.6938 -1.0601
 4709TIP3    H235763   4.962   0.021   8.270 -0.0569 -0.0325 -0.0231
 4710TIP3   OH235764   2.610   5.181   1.917 -0.4618 -0.0356 -0.1265
 4710TIP3    H135765   2.601   5.191   1.822 -0.3396  0.8550 -0.0535
 4710TIP3    H235766   2.696   5.142   1.929  0.1131  1.1511 -0.3220
 4711TIP3   OH235767   3.669   5.217   7.401 -0.4307 -0.2989 -0.0402
 4711TIP3    H135768   3.686   5.311   7.401  1.6545 -0.6169  0.6953
 4711TIP3    H235769   3.710   5.185   7.320 -0.2908 -0.6921  0.1821
 4712TIP3   OH235770   1.617   3.245   6.294 -0.1966 -0.0066  0.2275
 4712TIP3    H135771   1.582   3.160   6.320  1.1982 -0.5783  0.3076
 4712TIP3    H235772   1.617   3.243   6.198  0.0652 -0.2082  0.2296
 4713TIP3   OH235773   0.470   3.927   8.382 -0.3842 -0.5900  0.2206
 4713TIP3    H135774   0.431   4.014   8.390 -0.9141 -0.6896 -1.0142
 4713TIP3    H235775   0.558   3.943   8.347  0.0749 -0.4730  1.3912
 4714TIP3   OH235776   3.548   0.985   7.815  0.0860  0.0054 -0.0118
 4714TIP3    H135777   3.592   0.905   7.843 -0.6016 -0.3892 -0.0224
 4714TIP3    H235778   3.559   1.045   7.888 -1.8852 -1.0907  1.2809
 4715TIP3   OH235779   1.055   2.733   0.114 -0.3266  0.7366 -0.0790
 4715TIP3    H135780   1.138   2.753   0.072  0.4787  0.3986  1.2789
 4715TIP3    H235781   1.025   2.653   0.071 -0.4241  1.3656 -1.2096
 4716TIP3   OH235782   3.820   1.940   1.945 -0.1926 -1.2090 -0.5598
 4716TIP3    H135783   3.887   1.903   2.003  2.4196  0.2895 -2.3764
 4716TIP3    H235784   3.775   2.005   1.999  1.2918 -0.7554  0.2051
 4717TIP3   OH235785   6.543   0.057   7.649 -0.2539 -1.0386  0.4540
 4717TIP3    H135786   6.534   0.042   7.555 -1.5397  0.0296  0.3888
 4717TIP3    H235787   6.568  -0.029   7.684  0.1930 -1.4590 -0.8433
 4718TIP3   OH235788   3.902   2.601   1.451 -0.4311  0.1083 -0.1853
 4718TIP3    H135789   3.967   2.544   1.410  0.5042  0.8605  0.2037
 4718TIP3    H235790   3.818   2.565   1.424  0.1397 -1.0710 -0.4610
 4719TIP3   OH235791   0.574   6.655   8.128  0.1652  0.0403 -0.1754
 4719TIP3    H135792   0.556   6.738   8.085  1.1831 -0.2660 -1.2463
 4719TIP3    H235793   0.647   6.673   8.187 -1.7704  0.6721  2.2379
 4720TIP3   OH235794   3.825   0.762   7.512 -0.4293  0.1322 -0.2669
 4720TIP3    H135795   3.778   0.692   7.468  1.5298 -0.2273 -1.9222
 4720TIP3    H235796   3.917   0.735   7.511  0.2547  2.1931  0.0663
 4721TIP3   OH235797   5.483   3.837   8.114  0.1615 -0.1736 -0.3807
 4721TIP3    H135798   5.483   3.770   8.182  0.5043  0.4081  0.2106
 4721TIP3    H235799   5.573   3.839   8.082  1.0861  2.2779  1.9632
 4722TIP3   OH235800   2.332   3.102   6.484  0.3041  0.1750  0.1148
 4722TIP3    H135801   2.275   3.176   6.503 -0.6412 -0.8028  1.2927
 4722TIP3    H235802   2.294   3.061   6.407 -0.0504  0.0611  0.3485
 4723TIP3   OH235803   2.306   4.482   8.371 -0.0058 -0.2409 -0.1558
 4723TIP3    H135804   2.280   4.411   8.313 -2.6799  0.2330  0.2987
 4723TIP3    H235805   2.270   4.561   8.330  0.3253  0.4481  0.8330
 4724TIP3   OH235806   1.482   6.676   0.784  0.4141  0.1576 -0.1603
 4724TIP3    H135807   1.466   6.582   0.786  1.4510 -0.0302  0.4155
 4724TIP3    H235808   1.561   6.688   0.837  1.2440  1.1627 -1.5413
 4725TIP3   OH235809   3.065   6.454   1.884  0.0290 -0.1437  0.3575
 4725TIP3    H135810   3.121   6.506   1.941  1.2473 -0.1492 -0.7979
 4725TIP3    H235811   3.019   6.395   1.943 -0.1800  1.1339  1.5247
 4726TIP3   OH235812   6.099   5.199   1.701 -0.0181 -0.2488 -0.1690
 4726TIP3    H135813   6.176   5.143   1.714 -0.1818 -0.7261 -1.1882
 4726TIP3    H235814   6.067   5.175   1.614  0.5370  2.2122 -1.1224
 4727TIP3   OH235815   3.166   6.623   8.389 -0.2288  0.0010  0.2917
 4727TIP3    H135816   3.221   6.563   8.339 -1.4117 -1.9953  1.2614
 4727TIP3    H235817   3.118   6.673   8.323  1.4330  0.5825 -0.5431
 4728TIP3   OH235818   5.930   1.073   8.059 -0.1343  0.1004 -0.1370
 4728TIP3    H135819   5.887   1.140   8.112  1.3719  1.0786 -0.0822
 4728TIP3    H235820   5.859   1.020   8.023 -1.3946  1.8741 -0.3620
 4729TIP3   OH235821   6.323   1.617   1.929 -0.0105  0.7959 -0.1589
 4729TIP3    H135822   6.386   1.547   1.944 -0.9635  0.2084  1.3466
 4729TIP3    H235823   6.239   1.571   1.919 -0.4639  1.6600 -0.3670
 4730TIP3   OH235824   6.123   4.066   1.077  0.4810 -0.2804  0.3364
 4730TIP3    H135825   6.208   4.022   1.086  2.3729  3.0083 -0.0013
 4730TIP3    H235826   6.125   4.135   1.143 -1.2763  0.8585 -0.7334
 4731TIP3   OH235827   4.206   4.270   1.104 -0.9554 -0.0203  0.1859
 4731TIP3    H135828   4.205   4.245   1.197 -1.8515 -1.2304 -0.1294
 4731TIP3    H235829   4.114   4.279   1.081 -0.8124 -1.2864 -0.9728
 4732TIP3   OH235830   4.145   5.155   8.128  0.3793 -0.4760  0.6150
 4732TIP3    H135831   4.151   5.251   8.138  1.3049 -0.2115 -1.8908
 4732TIP3    H235832   4.234   5.124   8.141  0.8337 -0.5334 -2.1582
 4733TIP3   OH235833   3.389   1.358   7.719  0.5954 -0.1834  0.1336
 4733TIP3    H135834   3.476   1.396   7.714  0.5100 -0.0656 -0.6023
 4733TIP3    H235835   3.372   1.348   7.813  1.7613 -1.0647  0.2778
 4734TIP3   OH235836   5.480   1.834   1.317  0.0354 -0.0526  0.2490
 4734TIP3    H135837   5.414   1.890   1.359  0.5049  1.1707 -0.5840
 4734TIP3    H235838   5.511   1.777   1.387  1.3114  2.3738  1.8138
 4735TIP3   OH235839   3.650   4.182   6.678  0.0517 -0.0674  0.2429
 4735TIP3    H135840   3.725   4.241   6.681 -0.5748  0.7377  0.3426
 4735TIP3    H235841   3.683   4.100   6.715  0.3675  0.8471  2.1029
 4736TIP3   OH235842   3.290   3.255   0.332 -0.8629  0.3520 -0.2813
 4736TIP3    H135843   3.197   3.250   0.310 -0.2534  0.3633 -3.2836
 4736TIP3    H235844   3.307   3.349   0.345 -1.0955  0.4417 -0.6339
 4737TIP3   OH235845   4.759   6.721   2.294  0.2213 -0.5476  0.1531
 4737TIP3    H135846   4.773   6.767   2.377 -0.6389  2.9274 -1.4732
 4737TIP3    H235847   4.675   6.677   2.305  0.3252 -0.5125  1.2531
 4738TIP3   OH235848   2.677   5.320   7.132  0.7368 -0.0655  0.8062
 4738TIP3    H135849   2.677   5.238   7.082 -0.3216  0.5646 -0.2860
 4738TIP3    H235850   2.767   5.352   7.125  0.4888  0.3428 -1.3690
 4739TIP3   OH235851   2.325   3.557   7.158 -0.4172 -0.6326  0.4856
 4739TIP3    H135852   2.369   3.487   7.109  0.6955 -0.0185  0.5704
 4739TIP3    H235853   2.333   3.634   7.103  0.4184 -0.0462  1.3916
 4740TIP3   OH235854   0.468   3.039   0.666 -0.0379 -0.2810 -0.5394
 4740TIP3    H135855   0.461   3.069   0.575  1.1929  0.5556 -0.3739
 4740TIP3    H235856   0.478   2.944   0.658  1.5240 -0.0855 -1.3874
 4741TIP3   OH235857   2.744   3.504   0.632 -0.1291  0.6591 -0.0005
 4741TIP3    H135858   2.729   3.561   0.708 -1.1783  1.2662 -0.6421
 4741TIP3    H235859   2.687   3.429   0.646  1.6494 -0.5638  1.1149
 4742TIP3   OH235860   6.764   5.290   7.218 -0.1933 -0.0790 -0.2154
 4742TIP3    H135861   6.834   5.353   7.204 -0.7286  0.6143  0.1665
 4742TIP3    H235862   6.782   5.251   7.303 -0.1287 -0.0934 -0.2361
 4743TIP3   OH235863   6.920   6.492   0.896 -0.2998 -0.4281  0.2222
 4743TIP3    H135864   6.891   6.445   0.817  1.3245  2.1095 -2.0814
 4743TIP3    H235865   7.007   6.524   0.874 -0.3478  1.6061  2.5301
 4744TIP3   OH235866   6.947   6.345   8.451  0.4266  0.9063 -0.3507
 4744TIP3    H135867   7.038   6.365   8.476  0.4360  0.7128 -0.2289
 4744TIP3    H235868   6.903   6.328   8.534  0.7862 -1.1327 -0.5306
 4745TIP3   OH235869   1.874   0.375   7.672  0.1974  0.2837 -0.1064
 4745TIP3    H135870   1.846   0.452   7.623  1.0165  1.2171  0.8318
 4745TIP3    H235871   1.950   0.404   7.721  0.8497 -1.2843 -0.1182
 4746TIP3   OH235872   1.692   5.874   7.392 -0.5743 -0.5488 -0.5361
 4746TIP3    H135873   1.626   5.816   7.430  0.4945 -1.7676 -0.4537
 4746TIP3    H235874   1.708   5.838   7.305  0.6179 -0.8288 -0.2192
 4747TIP3   OH235875   6.247   6.072   7.307 -0.0781  0.1542 -0.3714
 4747TIP3    H135876   6.328   6.106   7.268  0.5817  0.2618  1.0141
 4747TIP3    H235877   6.271   5.984   7.338  0.4628  1.2678  2.7196
 4748TIP3   OH235878   6.869   5.277   8.412  0.2829  0.5170 -0.0217
 4748TIP3    H135879   6.911   5.302   8.330 -1.8321 -0.5659 -1.4990
 4748TIP3    H235880   6.911   5.195   8.437  2.4448  1.8941  1.2306
 4749TIP3   OH235881   1.529   6.281   7.662  0.3120 -0.1791  0.3083
 4749TIP3    H135882   1.516   6.230   7.741 -0.4450 -0.1465  0.2178
 4749TIP3    H235883   1.534   6.216   7.592  0.8361 -0.2009  0.3644
 4750TIP3   OH235884   2.467   2.330   0.389 -0.6307  0.5691 -0.3195
 4750TIP3    H135885   2.500   2.334   0.299 -1.0780  1.1881 -0.4697
 4750TIP3    H235886   2.423   2.414   0.402 -0.7375  0.4098  0.4166
 4751TIP3   OH235887   3.411   1.150   6.840 -0.3329  0.2534 -0.1136
 4751TIP3    H135888   3.342   1.088   6.813 -1.5912  1.4881  0.1590
 4751TIP3    H235889   3.490   1.097   6.843 -1.4728 -1.5017  0.7013
 4752TIP3   OH235890   1.353   0.693   8.109 -0.5823 -0.2906 -0.1008
 4752TIP3    H135891   1.373   0.780   8.074  0.3034 -0.4615 -0.0292
 4752TIP3    H235892   1.431   0.668   8.158 -0.2413 -1.7561 -1.3188
 4753TIP3   OH235893   1.167   4.320   7.874  0.0770  0.2389  0.2421
 4753TIP3    H135894   1.160   4.382   7.802 -1.1334 -0.0997  0.0346
 4753TIP3    H235895   1.171   4.374   7.953 -1.0241  0.6112  0.0676
 4754TIP3   OH235896   2.124   5.255   1.181  0.3360  0.5595  0.0830
 4754TIP3    H135897   2.218   5.273   1.171  0.2090  0.5282 -1.4118
 4754TIP3    H235898   2.111   5.245   1.275  2.1572 -1.1747  0.2053
 4755TIP3   OH235899   1.712   1.487   1.259  0.0405  0.2592 -0.4971
 4755TIP3    H135900   1.750   1.477   1.172  2.1488  1.1705  0.2238
 4755TIP3    H235901   1.701   1.582   1.270  2.3815  0.4618  1.1133
 4756TIP3   OH235902   2.953   1.017   1.900  0.2523 -0.2853  0.4319
 4756TIP3    H135903   2.975   0.927   1.925  1.6112 -0.1561 -0.1729
 4756TIP3    H235904   2.961   1.067   1.981 -0.8741 -0.7566  0.8466
 4757TIP3   OH235905   4.667   5.551   1.061 -0.3837 -0.0206  0.2422
 4757TIP3    H135906   4.673   5.619   0.994  0.7627  0.3287  0.6766
 4757TIP3    H235907   4.717   5.586   1.135 -1.2861 -0.5717  1.1439
 4758TIP3   OH235908   3.337   5.548   0.506  0.0152  0.1670 -0.5140
 4758TIP3    H135909   3.360   5.461   0.476  2.5435  0.3400  0.6689
 4758TIP3    H235910   3.315   5.537   0.599  2.4365  0.9937  0.2306
 4759TIP3   OH235911   1.604   2.145   7.337 -0.0614 -0.5568  0.7710
 4759TIP3    H135912   1.603   2.049   7.341  0.4649 -0.5957  0.1244
 4759TIP3    H235913   1.686   2.166   7.293 -0.4382  0.1735  0.4039
 4760TIP3   OH235914   4.279   5.347   8.282 -0.1272 -0.3489  0.2843
 4760TIP3    H135915   4.257   5.380   8.370  1.4304  0.4527  0.4191
 4760TIP3    H235916   4.365   5.307   8.293 -0.8728 -2.2422 -0.4435
 4761TIP3   OH235917   6.846   4.895   2.058  0.7024 -0.4024 -0.6216
 4761TIP3    H135918   6.928   4.934   2.088  0.6421 -0.7966  0.0717
 4761TIP3    H235919   6.789   4.896   2.135 -0.4736  1.2139 -1.4518
 4762TIP3   OH235920   2.828   4.086   7.503  0.5249 -0.1857 -0.2869
 4762TIP3    H135921   2.829   4.029   7.426 -0.4022 -0.0180 -0.4350
 4762TIP3    H235922   2.742   4.071   7.543  0.7316  0.2421  0.3265
 4763TIP3   OH235923   0.398   0.511   8.054 -0.0590  0.1496  0.7802
 4763TIP3    H135924   0.429   0.434   8.007  0.5847  0.3679  0.8354
 4763TIP3    H235925   0.326   0.545   8.001  0.9570  0.6738 -0.3131
 4764TIP3   OH235926   3.645   2.485   0.522 -0.2570 -0.1134  0.0101
 4764TIP3    H135927   3.623   2.563   0.471  1.3041 -0.3986 -1.2100
 4764TIP3    H235928   3.661   2.517   0.611  0.4558  0.9877 -0.4977
 4765TIP3   OH235929   5.669   1.565   6.956  0.3471  0.0069 -0.2321
 4765TIP3    H135930   5.680   1.607   6.871  0.4298  0.7904  0.1622
 4765TIP3    H235931   5.577   1.538   6.958  0.0565  0.9582 -0.1415
 4766TIP3   OH235932   4.442   4.810   7.766  0.6571 -0.1961 -0.0433
 4766TIP3    H135933   4.490   4.735   7.802 -0.4662 -0.5622  0.7590
 4766TIP3    H235934   4.420   4.783   7.677 -0.4319 -1.2011  0.4945
 4767TIP3   OH235935   3.584   1.737   7.247 -0.3880 -0.2377 -0.4076
 4767TIP3    H135936   3.577   1.691   7.330 -1.1480  1.5319  0.5453
 4767TIP3    H235937   3.662   1.792   7.256  0.5988 -1.3693 -1.5905
 4768TIP3   OH235938   3.692   6.700   0.926 -0.4641 -0.0049 -0.3916
 4768TIP3    H135939   3.700   6.659   0.840 -1.2518  1.3679 -1.1690
 4768TIP3    H235940   3.733   6.639   0.986  3.0619  0.4013 -2.1240
 4769TIP3   OH235941   4.426   4.458   0.446  0.1950 -0.5415 -0.4320
 4769TIP3    H135942   4.479   4.465   0.367  1.5031  0.6662  0.4995
 4769TIP3    H235943   4.472   4.392   0.499  1.4394  1.2334  0.8114
 4770TIP3   OH235944   1.921   4.242   0.100  0.7582  0.0324  0.9404
 4770TIP3    H135945   1.933   4.335   0.081 -1.4749 -0.2268 -2.8649
 4770TIP3    H235946   2.009   4.205   0.092  1.4656  1.6161  1.0832
 4771TIP3   OH235947   6.040   4.453   1.815  0.3267  0.4483  0.5754
 4771TIP3    H135948   6.116   4.395   1.826 -0.2115 -0.3403  0.1974
 4771TIP3    H235949   5.977   4.401   1.766 -0.9964  0.6202  2.0266
 4772TIP3   OH235950   5.111   4.178   0.242  0.0553  0.3948 -0.1145
 4772TIP3    H135951   5.025   4.136   0.249 -0.8650  2.0174 -1.0457
 4772TIP3    H235952   5.140   4.157   0.153  0.5716 -0.0298  0.1496
 4773TIP3   OH235953   1.658   3.248   7.829  0.1371  0.0212 -0.0870
 4773TIP3    H135954   1.726   3.315   7.818 -1.2842  1.2261 -2.1057
 4773TIP3    H235955   1.671   3.188   7.755  0.1459 -0.8300  0.5883
 4774TIP3   OH235956   6.631   6.805   7.795 -0.4134  0.6455  0.6425
 4774TIP3    H135957   6.704   6.762   7.839  0.2678 -0.0523 -1.0808
 4774TIP3    H235958   6.581   6.733   7.755 -0.4936  1.2922 -0.4603
 4775TIP3   OH235959   4.075   2.742   0.412  0.0126  0.5394 -0.3748
 4775TIP3    H135960   4.078   2.733   0.317 -0.6829  0.8392 -0.4308
 4775TIP3    H235961   4.035   2.660   0.442  1.5938 -0.2230 -0.2037
 4776TIP3   OH235962   0.056   2.235   0.358  0.0718 -0.1399  0.4290
 4776TIP3    H135963   0.108   2.182   0.418 -1.1308  0.2130  1.8382
 4776TIP3    H235964   0.011   2.172   0.302  0.2752 -0.5273  0.7031
 4777TIP3   OH235965   3.173   1.569   0.822 -0.2895 -0.2324 -0.0728
 4777TIP3    H135966   3.135   1.522   0.896  0.2705 -0.5299  0.0330
 4777TIP3    H235967   3.098   1.602   0.773 -0.6905 -1.0951 -0.0510
 4778TIP3   OH235968   1.907   5.036   7.629  0.0509  0.3530  0.3314
 4778TIP3    H135969   1.874   4.951   7.657  0.7427 -0.0019  0.0908
 4778TIP3    H235970   1.954   5.070   7.705  0.2976  0.2389  0.2331
 4779TIP3   OH235971   2.142   1.251   2.149 -0.2233  0.4413 -0.8093
 4779TIP3    H135972   2.116   1.248   2.057  0.3725  1.0272 -1.0038
 4779TIP3    H235973   2.170   1.341   2.163  0.1378  0.2343 -0.1774
 4780TIP3   OH235974   6.996   1.518   6.283  0.0613  0.0420  0.2744
 4780TIP3    H135975   7.055   1.450   6.254 -0.4472 -0.1782 -0.2626
 4780TIP3    H235976   7.004   1.588   6.218  1.5191  1.0621  1.4801
 4781TIP3   OH235977   1.118   2.096   0.986 -0.0241  0.1696  0.0752
 4781TIP3    H135978   1.058   2.123   0.916  1.9868 -0.8874 -2.2329
 4781TIP3    H235979   1.065   2.041   1.043 -1.4705  0.0141 -1.3285
 4782TIP3   OH235980   4.380   1.082   0.776  0.4879 -0.2986 -0.7911
 4782TIP3    H135981   4.331   1.144   0.830  0.9762  1.8248 -2.6797
 4782TIP3    H235982   4.313   1.020   0.745 -0.3409  0.3256 -0.3005
 4783TIP3   OH235983   6.473   5.602   1.444 -0.1293 -0.1576 -0.3056
 4783TIP3    H135984   6.438   5.526   1.491  0.8575 -0.1071  0.5235
 4783TIP3    H235985   6.473   5.672   1.508  2.4057 -0.3970  0.0577
 4784TIP3   OH235986   6.238   1.842   7.880  0.4632 -0.1331 -0.1299
 4784TIP3    H135987   6.233   1.935   7.860  0.7368  0.2998  1.6529
 4784TIP3    H235988   6.237   1.799   7.794 -2.8578  1.3021 -0.9722
 4785TIP3   OH235989   6.167   5.471   6.351  1.0127 -0.5324  0.6117
 4785TIP3    H135990   6.168   5.381   6.383  1.7958 -1.0834 -0.8723
 4785TIP3    H235991   6.137   5.464   6.261  0.5219  0.7676  0.6536
 4786TIP3   OH235992   6.390   0.903   6.012 -0.0826  0.5878 -0.3142
 4786TIP3    H135993   6.474   0.866   6.039 -0.3376  0.5446  0.4406
 4786TIP3    H235994   6.409   0.994   5.991  0.1052  0.6488  0.1182
 4787TIP3   OH235995   5.234   2.706   1.385  0.0381  0.1621  0.0991
 4787TIP3    H135996   5.321   2.712   1.346 -0.2334 -0.6579 -0.6778
 4787TIP3    H235997   5.193   2.790   1.366  0.1165 -0.0148 -0.8983
 4788TIP3   OH235998   1.994   0.397   1.107  0.5892 -0.1183  0.4258
 4788TIP3    H135999   1.950   0.472   1.067  0.2485 -0.1273  0.7771
 4788TIP3    H236000   1.961   0.321   1.060 -2.4427 -0.4932  2.8519
 4789TIP3   OH236001   2.351   3.226   2.190 -0.0638 -0.1453 -0.3155
 4789TIP3    H136002   2.341   3.165   2.263 -1.6023  0.0793 -0.3048
 4789TIP3    H236003   2.344   3.171   2.112 -0.0595 -0.1609 -0.3049
 4790TIP3   OH236004   3.315   1.209   7.308  0.2729 -0.5740  0.1887
 4790TIP3    H136005   3.387   1.183   7.366  0.3582  1.1075  0.9072
 4790TIP3    H236006   3.238   1.166   7.344  0.4868 -0.2792  1.0166
 4791TIP3   OH236007   3.247   4.544   6.591  0.5098  0.2600 -0.5570
 4791TIP3    H136008   3.331   4.501   6.609  0.8491  1.3639  0.5975
 4791TIP3    H236009   3.267   4.637   6.591 -0.5976  0.5144 -0.9970
 4792TIP3   OH236010   2.819   2.013   7.119  0.6022  0.9245 -0.3068
 4792TIP3    H136011   2.882   2.078   7.150  0.5186  0.5198  0.7622
 4792TIP3    H236012   2.862   1.928   7.135  0.3670  0.6891 -0.8928
 4793TIP3   OH236013   4.730   0.683   7.611 -0.1488 -0.8049 -0.3771
 4793TIP3    H136014   4.825   0.684   7.605 -0.1154  1.2868 -0.2070
 4793TIP3    H236015   4.712   0.631   7.690  1.1316  2.3822  2.2411
 4794TIP3   OH236016   5.454   6.034   7.930  0.0805 -0.4168 -0.2029
 4794TIP3    H136017   5.444   6.110   7.988 -0.5368  0.0275 -0.8738
 4794TIP3    H236018   5.546   6.010   7.939  0.2556  0.3308  0.1228
 4795TIP3   OH236019   4.376   6.325   6.872  0.3609 -0.3439  0.5723
 4795TIP3    H136020   4.299   6.373   6.901 -0.1720 -1.1321  0.5054
 4795TIP3    H236021   4.356   6.300   6.782 -0.3898 -2.6128  1.2890
 4796TIP3   OH236022   0.241   3.002   7.197  0.0233 -0.2185 -0.7926
 4796TIP3    H136023   0.213   2.997   7.288 -0.3425 -0.8922 -0.9337
 4796TIP3    H236024   0.162   3.027   7.148  1.0038  4.0756 -0.5480
 4797TIP3   OH236025   6.718   0.868   7.033  0.0580  0.1544  0.4023
 4797TIP3    H136026   6.768   0.907   7.105  1.0794 -0.3754 -0.0018
 4797TIP3    H236027   6.749   0.778   7.028  1.6736  0.7463 -2.1246
 4798TIP3   OH236028   1.168   4.219   1.737 -0.1855 -0.0665 -0.4874
 4798TIP3    H136029   1.250   4.170   1.744  0.1329  0.6403  0.8879
 4798TIP3    H236030   1.100   4.153   1.752  0.1158 -0.5997 -1.3574
 4799TIP3   OH236031   1.915   2.437   2.118 -0.0257 -0.5121  0.0102
 4799TIP3    H136032   1.842   2.378   2.097  0.0213  0.1410 -2.1712
 4799TIP3    H236033   1.874   2.517   2.149 -0.3476  0.2959 -2.3581
 4800TIP3   OH236034   5.403   0.098   0.608  0.1061 -0.2750  0.0374
 4800TIP3    H136035   5.357   0.173   0.644 -0.4680  0.5596 -2.2721
 4800TIP3    H236036   5.486   0.134   0.576  0.3805 -0.8866  0.0415
 4801TIP3   OH236037   6.685   6.220   1.887 -0.1286  0.0189 -0.4053
 4801TIP3    H136038   6.692   6.161   1.812 -1.4621 -0.7870  0.0772
 4801TIP3    H236039   6.740   6.178   1.954 -3.5036 -2.5458  1.0367
 4802TIP3   OH236040   6.204   6.222   0.681  0.0157  0.4657  0.4852
 4802TIP3    H136041   6.119   6.228   0.636  1.3858  0.6578 -2.2618
 4802TIP3    H236042   6.189   6.158   0.751 -2.1657 -0.1808 -0.4674
 4803TIP3   OH236043   1.942   3.947   7.509 -0.0673 -0.3291 -0.2667
 4803TIP3    H136044   2.025   3.915   7.546  0.6250  0.4578 -1.0658
 4803TIP3    H236045   1.884   3.956   7.584  0.2554 -1.8094  0.1954
 4804TIP3   OH236046   0.229   4.068   1.029  0.2562  0.0057  0.4915
 4804TIP3    H136047   0.272   3.982   1.032 -1.2958 -0.8462 -0.0999
 4804TIP3    H236048   0.281   4.123   1.087  1.0315 -1.4662  1.2624
 4805TIP3   OH236049   5.480   5.886   1.294 -0.1873  0.3584 -0.1268
 4805TIP3    H136050   5.500   5.884   1.200 -0.1524 -0.0974 -0.1137
 4805TIP3    H236051   5.393   5.845   1.301  0.8206 -1.8608  0.2719
 4806TIP3   OH236052   5.306   4.390   0.195 -0.1090 -0.5467 -0.0884
 4806TIP3    H136053   5.227   4.335   0.191 -1.3708  1.2403 -1.3907
 4806TIP3    H236054   5.354   4.368   0.115 -0.1666 -0.4146 -0.1603
 4807TIP3   OH236055   0.418   3.980   6.722  0.0886  0.1367  0.5777
 4807TIP3    H136056   0.361   3.983   6.646 -0.9001 -1.8503  1.1725
 4807TIP3    H236057   0.500   3.943   6.689  0.8700  2.3945 -0.1462
 4808TIP3   OH236058   5.878   6.976   8.145 -0.0001  0.5686 -0.2781
 4808TIP3    H136059   5.841   6.945   8.228  0.4655  1.5865  0.3262
 4808TIP3    H236060   5.961   6.928   8.136 -0.0700  0.4292 -0.1850
 4809TIP3   OH236061   6.275   4.517   8.358  0.0007 -0.2519  0.0880
 4809TIP3    H136062   6.188   4.530   8.320 -0.6607 -1.1157  1.2277
 4809TIP3    H236063   6.334   4.515   8.283 -1.1634 -1.2335 -0.8599
 4810TIP3   OH236064   2.991   6.728   8.195 -0.9058  0.2484  0.4062
 4810TIP3    H136065   2.967   6.791   8.127  0.7899 -0.5987 -1.0505
 4810TIP3    H236066   2.941   6.649   8.175  0.4179 -0.3763 -0.5870
 4811TIP3   OH236067   5.363   1.592   7.899 -0.4622  0.0272 -0.9217
 4811TIP3    H136068   5.317   1.564   7.978 -0.9702  0.6939 -0.9730
 4811TIP3    H236069   5.364   1.514   7.843  0.5095 -0.6548  0.0025
 4812TIP3   OH236070   2.113   0.634   1.811 -0.5154 -0.4973  0.4387
 4812TIP3    H136071   2.059   0.638   1.731  1.5105  0.0358 -0.9784
 4812TIP3    H236072   2.133   0.541   1.821 -0.0002 -0.4702 -0.2465
 4813TIP3   OH236073   5.872   6.320   1.465  0.0865  0.0953  0.1257
 4813TIP3    H136074   5.816   6.265   1.409 -0.2786  1.0198 -0.4406
 4813TIP3    H236075   5.938   6.260   1.499 -1.7574 -1.2329  1.5467
 4814TIP3   OH236076   6.635   2.161   8.193  0.8847  0.0293 -0.5325
 4814TIP3    H136077   6.543   2.135   8.205  1.3575 -4.3207 -3.9080
 4814TIP3    H236078   6.673   2.156   8.281 -1.5280 -0.5915  0.5678
 4815TIP3   OH236079   6.721   5.799   1.079 -0.1666 -0.2186  0.0788
 4815TIP3    H136080   6.719   5.817   0.985  0.5266 -0.9433 -0.0792
 4815TIP3    H236081   6.632   5.769   1.099  0.2986 -2.4211 -0.8482
 4816TIP3   OH236082   3.488   4.256   0.565  0.1669  0.0485 -0.1341
 4816TIP3    H136083   3.537   4.313   0.505  0.9027 -0.2775  0.1389
 4816TIP3    H236084   3.556   4.212   0.616 -0.4415  0.4803  1.0986
 4817TIP3   OH236085   6.345   6.732   1.265 -0.1253 -0.0781 -0.6632
 4817TIP3    H136086   6.334   6.702   1.175  1.4842 -0.8910 -0.6290
 4817TIP3    H236087   6.439   6.721   1.282 -0.3222  0.5279  0.9504
 4818TIP3   OH236088   1.043   1.646   1.084  0.2283  0.3366 -0.6606
 4818TIP3    H136089   1.010   1.556   1.087  2.8542 -0.6810  0.8076
 4818TIP3    H236090   1.053   1.665   0.991 -0.7898 -0.7007 -1.0033
 4819TIP3   OH236091   5.141   0.411   7.228 -0.6750  0.2075 -0.0501
 4819TIP3    H136092   5.047   0.407   7.246 -0.5256  1.6454  1.2393
 4819TIP3    H236093   5.154   0.496   7.187 -0.0572 -0.4261 -1.2286
 4820TIP3   OH236094   6.139   6.909   1.343  0.1910  0.0833  0.0514
 4820TIP3    H136095   6.066   6.896   1.283  0.0093  2.3875 -0.2950
 4820TIP3    H236096   6.207   6.849   1.311 -0.9170 -0.8371 -0.6526
 4821TIP3   OH236097   0.653   1.263   7.618  0.6828  0.0012 -0.3760
 4821TIP3    H136098   0.654   1.241   7.525 -3.1953  1.1326 -0.8681
 4821TIP3    H236099   0.608   1.189   7.659 -2.3043  1.6871 -0.3421
 4822TIP3   OH236100   2.432   3.608   1.834  0.0996 -0.2588  0.3669
 4822TIP3    H136101   2.473   3.615   1.920  1.3970  1.7219 -0.3536
 4822TIP3    H236102   2.475   3.533   1.793 -0.0488 -0.7964  1.1639
 4823TIP3   OH236103   6.118   3.742   0.388 -0.2511 -0.0157  0.2887
 4823TIP3    H136104   6.167   3.759   0.469  0.1366 -1.2845  0.3513
 4823TIP3    H236105   6.100   3.648   0.391  0.1970 -0.1797 -1.3370
 4824TIP3   OH236106   3.715   3.902   7.875  0.2569  0.2324  0.6698
 4824TIP3    H136107   3.625   3.873   7.890  0.4838 -0.1446  1.3595
 4824TIP3    H236108   3.719   3.990   7.912  0.2237  0.1689  0.8252
 4825TIP3   OH236109   3.081   0.972   2.183  0.0732 -0.2120 -0.0670
 4825TIP3    H136110   3.072   0.878   2.168  1.4672 -0.7834  2.1437
 4825TIP3    H236111   3.010   0.993   2.244 -1.7109  0.7515 -2.3325
 4826TIP3   OH236112   1.132   0.015   0.632  0.1452  0.7210 -0.6360
 4826TIP3    H136113   1.154  -0.055   0.693  1.4644  1.3874 -0.3230
 4826TIP3    H236114   1.050   0.052   0.667  0.0123  0.0424 -0.2085
 4827TIP3   OH236115   4.662   2.630   7.625 -0.8266  0.0960 -0.3086
 4827TIP3    H136116   4.684   2.576   7.550 -0.1955  0.9647 -0.7564
 4827TIP3    H236117   4.589   2.684   7.595 -0.2822  0.7620 -0.4510
 4828TIP3   OH236118   2.666   2.163   7.976 -0.0745  0.8412 -0.2385
 4828TIP3    H136119   2.646   2.210   8.057  0.0633  0.4034  0.0510
 4828TIP3    H236120   2.646   2.226   7.906 -0.8647  0.9851  0.1074
 4829TIP3   OH236121   6.304   6.371   2.033 -0.2022  0.0221 -0.5222
 4829TIP3    H136122   6.296   6.330   2.119  1.2845 -0.4368 -0.5693
 4829TIP3    H236123   6.383   6.424   2.040 -0.1800  0.1318 -1.5540
 4830TIP3   OH236124   5.500   4.377   7.880 -0.4841 -0.4723  0.1096
 4830TIP3    H136125   5.491   4.284   7.862 -1.2897 -0.0184 -2.2023
 4830TIP3    H236126   5.496   4.419   7.793  0.0290  1.7006  1.0558
 4831TIP3   OH236127   0.241   0.788   7.158 -0.9232 -0.6437 -0.7877
 4831TIP3    H136128   0.222   0.807   7.067 -0.9474 -0.5321 -0.7605
 4831TIP3    H236129   0.190   0.710   7.178 -1.9092  0.0452 -0.5198
 4832TIP3   OH236130   0.861   4.935   7.252  0.0346 -0.0080  0.7223
 4832TIP3    H136131   0.917   5.006   7.283 -2.1847  1.8703  0.7445
 4832TIP3    H236132   0.785   4.937   7.311  0.3070 -3.1056  1.3357
 4833TIP3   OH236133   6.599   1.358   7.972 -0.1471  0.2089  0.5425
 4833TIP3    H136134   6.688   1.325   7.960 -0.6842 -1.7207  1.4878
 4833TIP3    H236135   6.544   1.304   7.916 -1.0009 -0.2274  1.7432
 4834TIP3   OH236136   5.213   5.517   0.380  0.2392 -0.2519 -0.3310
 4834TIP3    H136137   5.154   5.578   0.424 -0.2506 -0.9762  0.0377
 4834TIP3    H236138   5.182   5.431   0.407  0.3698 -0.6882 -1.5333
 4835TIP3   OH236139   4.640   0.991   7.894  0.3593  0.4545  0.2373
 4835TIP3    H136140   4.728   1.006   7.858  0.5692  1.5725  1.1486
 4835TIP3    H236141   4.629   1.061   7.958 -0.6496 -0.5086  1.1478
 4836TIP3   OH236142   3.159   3.076   6.999  0.1086  0.3088 -0.4317
 4836TIP3    H136143   3.151   3.167   7.026 -1.2730 -0.2444  1.1845
 4836TIP3    H236144   3.210   3.035   7.069  0.5000 -0.2302 -1.0182
 4837TIP3   OH236145   0.687   6.867   2.178  0.2682 -0.7558 -0.2487
 4837TIP3    H136146   0.724   6.931   2.117  0.4270 -0.2883  0.3278
 4837TIP3    H236147   0.637   6.920   2.241  1.0038 -1.1131  0.6699
 4838TIP3   OH236148   3.442   6.540   1.437  0.1398  0.4119 -0.0060
 4838TIP3    H136149   3.388   6.542   1.358  1.4346  1.1510 -0.9010
 4838TIP3    H236150   3.379   6.547   1.509 -0.9235  3.0099 -1.0518
 4839TIP3   OH236151   2.532   0.154   1.176  0.6799  0.0968 -0.4927
 4839TIP3    H136152   2.564   0.202   1.252  0.2055 -0.9581  0.3996
 4839TIP3    H236153   2.598   0.088   1.159  0.4645 -0.0953 -0.5899
 4840TIP3   OH236154   5.819   1.505   1.908  0.4004 -0.2243  0.2654
 4840TIP3    H136155   5.807   1.441   1.978  0.1047 -0.5249 -0.0607
 4840TIP3    H236156   5.914   1.515   1.901  0.4212  0.2352  1.0941
 4841TIP3   OH236157   1.846   4.543   6.853 -0.0408 -0.2811 -0.4562
 4841TIP3    H136158   1.910   4.578   6.914 -1.0878  0.3872  0.2988
 4841TIP3    H236159   1.784   4.495   6.908  0.0846 -1.3483 -1.2231
 4842TIP3   OH236160   0.910   0.660   1.848  0.7474 -0.2559  0.5461
 4842TIP3    H136161   0.867   0.745   1.861 -0.1460 -0.2385 -2.0051
 4842TIP3    H236162   0.930   0.657   1.754 -1.6198 -3.9132 -0.0373
 4843TIP3   OH236163   0.744   4.880   5.919 -0.5721 -0.2487 -0.3149
 4843TIP3    H136164   0.828   4.854   5.959 -1.3308 -0.6966  1.0631
 4843TIP3    H236165   0.753   4.974   5.904  0.7108 -0.5418 -1.5639
 4844TIP3   OH236166   6.550   1.037   6.437 -0.0890  0.2914  0.1243
 4844TIP3    H136167   6.580   0.969   6.376  0.0554 -0.6294  1.1879
 4844TIP3    H236168   6.591   1.118   6.405  0.2506 -0.2303 -0.7950
 4845TIP3   OH236169   5.680   4.154   8.296 -0.5868  0.5984 -0.0326
 4845TIP3    H136170   5.725   4.233   8.326  0.7544 -0.4869  0.9628
 4845TIP3    H236171   5.587   4.175   8.301 -0.2789  1.7537  1.2457
 4846TIP3   OH236172   1.800   2.624   1.281  0.2955  0.2080 -0.1599
 4846TIP3    H136173   1.763   2.699   1.329  1.5897  1.0462 -0.4149
 4846TIP3    H236174   1.735   2.604   1.214 -0.6124  0.3358  0.6554
 4847TIP3   OH236175   6.639   4.548   1.441 -0.0645  0.0092 -0.0746
 4847TIP3    H136176   6.589   4.603   1.502  1.6810  0.8099  0.7007
 4847TIP3    H236177   6.723   4.535   1.484  0.6550 -0.7517 -1.6266
 4848TIP3   OH236178   2.676   4.817   0.531 -0.4761 -0.0250 -0.0132
 4848TIP3    H136179   2.700   4.906   0.555  1.0110 -0.3321 -0.3141
 4848TIP3    H236180   2.739   4.761   0.576  0.1412 -0.7944 -1.7280
 4849TIP3   OH236181   5.740   0.319   1.009  0.2727  0.1637 -0.3866
 4849TIP3    H136182   5.814   0.347   1.064 -0.4065 -0.1838  0.7518
 4849TIP3    H236183   5.710   0.237   1.051  0.6729 -0.9423 -2.1670
 4850TIP3   OH236184   1.357   4.266   6.795  0.8342  0.3025 -0.5070
 4850TIP3    H136185   1.343   4.287   6.703  0.0916 -1.2247 -0.7677
 4850TIP3    H236186   1.452   4.259   6.803  0.8613 -0.4770 -1.3772
 4851TIP3   OH236187   0.081   3.225   1.063 -0.6200 -0.6246 -0.1893
 4851TIP3    H136188   0.103   3.318   1.073 -1.2402 -0.3627 -1.1562
 4851TIP3    H236189   0.153   3.189   1.012  1.4510 -1.4966  3.0674
 4852TIP3   OH236190   5.255   3.936   1.841 -0.1005  0.3312  0.0529
 4852TIP3    H136191   5.221   3.860   1.890  1.1426 -0.5488 -0.3980
 4852TIP3    H236192   5.204   4.010   1.874 -1.5020 -0.7127  0.3740
 4853TIP3   OH236193   3.793   2.111   1.523  0.8323  0.8047  0.1805
 4853TIP3    H136194   3.794   2.091   1.429 -1.5102 -0.2958  0.3239
 4853TIP3    H236195   3.857   2.051   1.561 -0.5585 -1.1328 -0.3659
 4854TIP3   OH236196   5.726   5.351   8.163 -0.7054 -0.3119  1.4378
 4854TIP3    H136197   5.788   5.281   8.143 -2.9710 -2.6912  2.2121
 4854TIP3    H236198   5.756   5.388   8.246  0.2880 -0.6159  1.2247
 4855TIP3   OH236199   6.144   2.007   8.275 -0.1936  0.3145 -0.3149
 4855TIP3    H136200   6.140   1.973   8.365 -0.7937  1.5901  0.1677
 4855TIP3    H236201   6.053   2.018   8.250 -0.0206  1.7374 -0.3716
 4856TIP3   OH236202   4.794   4.210   1.003  0.1348  0.1029  0.2245
 4856TIP3    H136203   4.813   4.302   1.021  1.1299 -0.1342  0.4218
 4856TIP3    H236204   4.793   4.204   0.907 -1.8995  0.6929  0.1497
 4857TIP3   OH236205   1.658   4.315   8.062  0.4334  0.9759  0.0107
 4857TIP3    H136206   1.622   4.401   8.080 -1.4921  0.0618  0.8811
 4857TIP3    H236207   1.585   4.255   8.081  2.0384 -0.9055  0.4854
 4858TIP3   OH236208   3.363   6.169   7.243  0.3543  0.1862 -0.1573
 4858TIP3    H136209   3.446   6.210   7.269 -0.2613  1.0472  0.5119
 4858TIP3    H236210   3.305   6.243   7.226 -1.0488 -0.3860  1.8944
 4859TIP3   OH236211   2.369   6.843   1.250 -0.1273  0.3650 -0.2545
 4859TIP3    H136212   2.390   6.807   1.336 -0.6444 -1.3782 -0.8157
 4859TIP3    H236213   2.405   6.779   1.188  0.9834  1.9935 -1.3905
 4860TIP3   OH236214   2.734   1.371   7.389 -0.0628 -0.2408  0.2875
 4860TIP3    H136215   2.743   1.452   7.439 -2.4362  0.5013 -0.3354
 4860TIP3    H236216   2.650   1.335   7.416  1.2966 -3.0422  1.1837
 4861TIP3   OH236217   0.449   6.087   7.223 -0.1364 -0.1155  0.8396
 4861TIP3    H136218   0.503   6.163   7.244  1.0882 -1.0219  1.0474
 4861TIP3    H236219   0.454   6.080   7.127 -0.6051  0.2917  0.7748
 4862TIP3   OH236220   6.060   3.570   7.962 -0.2192 -0.2195 -0.0344
 4862TIP3    H136221   6.077   3.489   7.914 -1.9291 -0.8729  0.3874
 4862TIP3    H236222   6.004   3.543   8.035 -0.8092  1.3262  0.1231
 4863TIP3   OH236223   2.323   6.449   0.938 -0.1317 -0.3950 -0.3625
 4863TIP3    H136224   2.307   6.381   1.003 -1.6330  0.6434  0.4245
 4863TIP3    H236225   2.236   6.470   0.904  0.6055 -0.8804 -2.7294
 4864TIP3   OH236226   0.705   3.801   0.119 -0.2333  0.2790 -0.4512
 4864TIP3    H136227   0.756   3.760   0.188  1.3701 -1.2036 -2.3900
 4864TIP3    H236228   0.615   3.801   0.152  0.4088 -0.7278  1.4430
 4865TIP3   OH236229   0.824   0.107   0.440 -0.1711 -0.5291 -0.1700
 4865TIP3    H136230   0.832   0.086   0.533 -1.5709  0.8112  0.3004
 4865TIP3    H236231   0.882   0.182   0.427 -1.4998  0.6009  0.1421
 4866TIP3   OH236232   5.246   5.091   0.253  0.0886  0.2106 -0.6116
 4866TIP3    H136233   5.215   5.118   0.167  0.9663 -0.3995 -1.1374
 4866TIP3    H236234   5.228   4.997   0.258  0.1255  0.2232 -0.1654
 4867TIP3   OH236235   2.889   0.761   6.778  0.2616  0.0805  0.2583
 4867TIP3    H136236   2.811   0.796   6.733 -1.2747 -5.1620 -1.8640
 4867TIP3    H236237   2.961   0.778   6.717 -0.8552 -2.1516 -1.8468
 4868TIP3   OH236238   2.327   3.874   1.332  0.5726  0.3274  0.2851
 4868TIP3    H136239   2.386   3.826   1.274  0.5365  1.3511 -0.6386
 4868TIP3    H236240   2.363   3.860   1.419  1.8507  0.4446 -0.1933
 4869TIP3   OH236241   0.513   0.814   0.289  1.0467  0.0251 -0.2567
 4869TIP3    H136242   0.584   0.791   0.229  0.9666  0.9243 -0.7111
 4869TIP3    H236243   0.435   0.816   0.234  0.9832  0.9281 -0.1497
 4870TIP3   OH236244   2.773   2.662   6.515  0.3183  0.3718  0.8540
 4870TIP3    H136245   2.805   2.572   6.523 -0.7376 -0.0373  0.6032
 4870TIP3    H236246   2.836   2.705   6.458  0.3774 -0.4414  0.2928
 4871TIP3   OH236247   1.471   3.675   0.572  0.6517 -0.2957  0.0790
 4871TIP3    H136248   1.527   3.640   0.641  0.3460 -0.2605  0.3491
 4871TIP3    H236249   1.420   3.600   0.542  0.1238 -0.1251  0.5345
 4872TIP3   OH236250   4.064   5.243   2.187 -0.2117 -0.3171 -0.3523
 4872TIP3    H136251   3.974   5.275   2.193 -0.7921 -1.1804 -3.1649
 4872TIP3    H236252   4.057   5.148   2.195  0.9176 -0.2643  2.6616
 4873TIP3   OH236253   4.959   6.864   1.145  0.1417 -0.5368  0.0249
 4873TIP3    H136254   4.970   6.864   1.050  1.1149  2.7548  0.0099
 4873TIP3    H236255   5.040   6.826   1.178  0.7938  0.3845 -0.4651
 4874TIP3   OH236256   6.435   5.013   0.972 -0.7955 -0.0767 -0.3460
 4874TIP3    H136257   6.444   5.083   0.908 -0.9334 -0.9948 -1.4050
 4874TIP3    H236258   6.378   4.948   0.929 -1.8146 -0.2238  1.1391
 4875TIP3   OH236259   5.669   3.835   7.147 -0.0005 -0.1261 -0.5610
 4875TIP3    H136260   5.640   3.795   7.066 -0.2209 -2.3708  0.5568
 4875TIP3    H236261   5.650   3.770   7.215  0.2763  1.6013  1.2966
 4876TIP3   OH236262   4.187   3.940   7.507 -0.2260 -0.0154  0.5843
 4876TIP3    H136263   4.167   4.022   7.462 -1.7383 -0.4779  0.3485
 4876TIP3    H236264   4.151   3.872   7.449 -1.3476 -0.6801  1.9921
 4877TIP3   OH236265   1.987   0.634   7.454 -0.6297  0.2777  0.5069
 4877TIP3    H136266   1.920   0.694   7.487 -0.5618  0.5339  0.1917
 4877TIP3    H236267   2.015   0.673   7.371 -0.1346  0.1391  0.6038
 4878TIP3   OH236268   3.221   4.916   2.551 -0.0699  0.4602 -0.1911
 4878TIP3    H136269   3.191   4.848   2.490 -0.4221  0.0437  0.4338
 4878TIP3    H236270   3.144   4.970   2.565  0.1834  0.9406 -0.6049
 4879TIP3   OH236271   6.578   6.459   7.999 -0.7445  0.3602 -0.2252
 4879TIP3    H136272   6.487   6.474   8.024 -0.2314  2.4723  0.6489
 4879TIP3    H236273   6.590   6.510   7.919 -0.7306 -1.2814 -1.3117
 4880TIP3   OH236274   2.811   4.997   1.953 -0.5798  0.2940  0.6927
 4880TIP3    H136275   2.876   5.003   2.023  0.8080 -0.0332 -0.5143
 4880TIP3    H236276   2.786   4.904   1.950  1.7469 -0.3825 -1.2217
 4881TIP3   OH236277   6.039   0.205   7.879  0.0934  0.3781 -0.0761
 4881TIP3    H136278   6.044   0.121   7.924 -0.8601  0.6069  0.4795
 4881TIP3    H236279   6.102   0.197   7.807  1.8041  0.0882  1.3919
 4882TIP3   OH236280   2.200   6.460   1.445 -0.0272 -0.4177  0.4460
 4882TIP3    H136281   2.279   6.440   1.394  0.1645 -0.4132  0.7411
 4882TIP3    H236282   2.227   6.451   1.536  0.4471  2.3712  0.6815
 4883TIP3   OH236283   2.418   0.584   0.899 -0.0028  1.0972  0.6576
 4883TIP3    H136284   2.326   0.610   0.898 -0.9486 -1.6151  2.9294
 4883TIP3    H236285   2.424   0.513   0.836  0.3672  0.8129  1.0047
 4884TIP3   OH236286   3.192   1.424   8.382 -0.5942  0.0385 -0.1390
 4884TIP3    H136287   3.097   1.431   8.368 -0.8169 -2.2106 -0.0124
 4884TIP3    H236288   3.217   1.511   8.415 -2.6843  0.5242  0.3356
 4885TIP3   OH236289   5.215   5.910   8.035 -1.0215 -0.2409  0.0911
 4885TIP3    H136290   5.264   5.878   8.111 -0.0166  1.4080  0.1919
 4885TIP3    H236291   5.280   5.961   7.985 -2.1461  0.2909 -0.8666
 4886TIP3   OH236292   3.531   3.616   7.982  0.0811 -0.0098 -0.1175
 4886TIP3    H136293   3.469   3.595   7.912  0.6770  1.9774 -1.3136
 4886TIP3    H236294   3.609   3.565   7.961 -1.0847 -2.6584  1.4919
 4887TIP3   OH236295   4.836   3.372   2.840 -1.0429  0.4404  0.3889
 4887TIP3    H136296   4.885   3.326   2.908 -1.6853 -1.0539 -0.1271
 4887TIP3    H236297   4.744   3.350   2.857 -1.6913  3.5871  1.6487
 4888TIP3   OH236298   2.821   0.208   7.296 -0.1048 -0.0620  0.3905
 4888TIP3    H136299   2.745   0.150   7.304 -0.1144  0.0755  1.3947
 4888TIP3    H236300   2.783   0.294   7.276 -0.2058 -0.0342  0.6959
 4889TIP3   OH236301   5.667   2.135   1.083  0.0294 -0.2133  0.3706
 4889TIP3    H136302   5.608   2.081   1.030 -0.3139 -0.6818  1.2115
 4889TIP3    H236303   5.721   2.181   1.019 -1.6323  0.6939 -0.4715
 4890TIP3   OH236304   1.413   4.550   0.689 -0.1816 -0.3657  0.9647
 4890TIP3    H136305   1.374   4.632   0.658  0.5006  0.1614  1.4492
 4890TIP3    H236306   1.504   4.553   0.658 -0.4515 -1.4666  0.0429
 4891TIP3   OH236307   2.240   5.975   8.063  0.5341 -0.4380 -0.0761
 4891TIP3    H136308   2.307   5.969   8.131 -0.5233 -1.3332  0.9463
 4891TIP3    H236309   2.266   5.909   7.998  0.2502 -1.3538  0.7116
 4892TIP3   OH236310   6.500   5.012   1.257  0.1315  0.4022  0.0648
 4892TIP3    H136311   6.592   5.034   1.270  0.1787  0.4227 -0.3067
 4892TIP3    H236312   6.488   5.012   1.162 -0.2567  0.4255  0.1113
 4893TIP3   OH236313   2.369   5.697   8.427  0.1647 -0.4283 -0.1882
 4893TIP3    H136314   2.349   5.637   8.498 -0.2597 -0.1584 -0.0691
 4893TIP3    H236315   2.423   5.647   8.366 -0.3556 -0.9932 -0.1915
 4894TIP3   OH236316   0.572   4.895   0.759  0.0895 -0.0705  0.9061
 4894TIP3    H136317   0.625   4.819   0.783  0.1883 -0.4887 -0.5543
 4894TIP3    H236318   0.632   4.952   0.711 -0.4892 -0.0385  0.2046
 4895TIP3   OH236319   5.776   1.210   8.272 -0.0079  0.0967 -0.4843
 4895TIP3    H136320   5.685   1.189   8.253 -0.3983  0.0061  1.2579
 4895TIP3    H236321   5.772   1.292   8.322  0.8084 -0.1779  0.0509
 4896TIP3   OH236322   6.996   0.349   8.071 -0.1731 -0.2535  1.1163
 4896TIP3    H136323   7.065   0.289   8.045 -0.6051 -0.7331  1.0535
 4896TIP3    H236324   6.965   0.388   7.989  0.2466  0.2164  1.1768
 4897TIP3   OH236325   0.714   0.980   1.296  0.7852 -0.5004 -0.4835
 4897TIP3    H136326   0.775   0.973   1.223  1.3550  1.0293 -0.1853
 4897TIP3    H236327   0.769   0.976   1.374  0.1398 -2.6538 -0.0534
 4898TIP3   OH236328   6.869   5.585   7.317 -0.6549  0.4138 -0.3147
 4898TIP3    H136329   6.834   5.599   7.229 -0.3886 -1.5722 -0.7800
 4898TIP3    H236330   6.940   5.523   7.305 -1.5515 -1.0636  1.4558
 4899TIP3   OH236331   4.756   4.597   7.277 -0.0622 -0.0784 -0.2552
 4899TIP3    H136332   4.815   4.665   7.311 -0.1036  0.2582 -0.8409
 4899TIP3    H236333   4.745   4.536   7.350 -0.1621  0.6384  0.3409
 4900TIP3   OH236334   1.328   0.416   6.646 -0.3027 -0.4044 -0.1737
 4900TIP3    H136335   1.260   0.483   6.645 -0.4135 -0.4828 -2.4233
 4900TIP3    H236336   1.353   0.406   6.555  2.6535 -0.5111  0.5682
 4901TIP3   OH236337   2.226   1.030   8.199 -0.3578  0.0775  0.0208
 4901TIP3    H136338   2.141   1.066   8.224 -0.0455 -0.3399  1.8390
 4901TIP3    H236339   2.286   1.105   8.203 -0.6201  0.3647 -1.2295
 4902TIP3   OH236340   4.237   4.133   1.372  0.9345 -0.0731  0.5118
 4902TIP3    H136341   4.151   4.110   1.339  0.9670  1.8574 -1.1042
 4902TIP3    H236342   4.295   4.064   1.340  0.2165 -0.5990  0.3459
 4903TIP3   OH236343   4.297   4.709   6.721  0.0496  0.2608  0.5303
 4903TIP3    H136344   4.391   4.715   6.705 -0.3116  0.4208 -1.9596
 4903TIP3    H236345   4.287   4.631   6.776  1.4770 -0.9783 -0.8653
 4904TIP3   OH236346   2.858   5.824   1.398 -0.0484 -0.0793  1.0267
 4904TIP3    H136347   2.786   5.888   1.398 -0.0504 -0.0822  0.4859
 4904TIP3    H236348   2.869   5.801   1.491  0.4928  1.3100  1.3406
 4905TIP3   OH236349   5.398   6.306   7.984 -0.0942  0.3242 -0.3674
 4905TIP3    H136350   5.357   6.382   7.944 -1.3317 -0.0285  0.2053
 4905TIP3    H236351   5.386   6.317   8.078 -0.9015 -0.8850 -0.2995
 4906TIP3   OH236352   2.688   2.710   1.406  0.4009  0.1075 -0.2260
 4906TIP3    H136353   2.619   2.767   1.373  1.2814  0.4151 -1.6327
 4906TIP3    H236354   2.708   2.744   1.493 -2.0657 -0.7795  0.7680
 4907TIP3   OH236355   4.397   4.052   1.853 -0.1222  0.0178  0.6066
 4907TIP3    H136356   4.307   4.050   1.819 -0.5894 -1.6602  1.8247
 4907TIP3    H236357   4.386   4.050   1.948  1.2155  0.0781  0.7739
 4908TIP3   OH236358   1.429   1.013   6.770  0.7036  0.6608 -0.2720
 4908TIP3    H136359   1.347   1.051   6.799  0.1387  0.1741 -1.1788
 4908TIP3    H236360   1.470   0.980   6.849 -1.4978 -2.0324 -0.1349
 4909TIP3   OH236361   1.788   5.991   1.088 -0.0809  0.5527  0.2440
 4909TIP3    H136362   1.734   6.029   1.158  0.1135  1.3451 -0.0208
 4909TIP3    H236363   1.847   5.931   1.133  1.5566  2.6832  1.1039
 4910TIP3   OH236364   4.709   0.107   6.900 -0.1797 -0.2644 -0.2099
 4910TIP3    H136365   4.775   0.123   6.833 -1.2647  1.7112 -0.9082
 4910TIP3    H236366   4.759   0.081   6.977  1.1127 -2.5973 -1.7053
 4911TIP3   OH236367   4.955   4.316   8.161 -0.3187 -0.2829  0.2721
 4911TIP3    H136368   5.042   4.304   8.123 -0.0474 -0.7206  1.0122
 4911TIP3    H236369   4.964   4.391   8.220 -0.1506 -1.0019  1.1807
 4912TIP3   OH236370   2.867   2.321   1.265 -0.0452 -0.3485  0.5474
 4912TIP3    H136371   2.817   2.402   1.256  1.8072  0.6343 -2.1182
 4912TIP3    H236372   2.845   2.271   1.186  1.5931 -0.7813  0.3416
 4913TIP3   OH236373   4.918   2.819   8.134  0.3774 -0.1297  0.0881
 4913TIP3    H136374   5.006   2.799   8.100  0.9144 -0.6633  1.6537
 4913TIP3    H236375   4.935   2.854   8.221 -0.9935 -5.1123  2.7654
 4914TIP3   OH236376   3.495   5.359   0.379 -0.3830  0.5249  0.4094
 4914TIP3    H136377   3.468   5.329   0.292  0.6632 -1.6547  0.7587
 4914TIP3    H236378   3.567   5.419   0.363  0.3039 -0.4404 -0.2373
 4915TIP3   OH236379   1.122   6.240   0.917 -0.4488  0.2386 -0.0979
 4915TIP3    H136380   1.038   6.261   0.877  0.5785  1.7114 -1.6790
 4915TIP3    H236381   1.182   6.233   0.843  1.2803  1.7049  1.0605
 4916TIP3   OH236382   4.342   6.608   0.319 -0.4891  0.1762 -0.4499
 4916TIP3    H136383   4.393   6.684   0.347  0.1591 -0.6507  0.7208
 4916TIP3    H236384   4.296   6.637   0.240 -1.6716  2.3419  0.9392
 4917TIP3   OH236385   4.142   4.988   7.535  0.1082  0.2562  0.1030
 4917TIP3    H136386   4.047   4.990   7.543 -0.2444 -1.4702 -2.4488
 4917TIP3    H236387   4.163   4.895   7.524  1.8925  0.7344 -0.9565
 4918TIP3   OH236388   3.580   2.173   0.126  0.2856  0.1788  0.2570
 4918TIP3    H136389   3.577   2.173   0.030 -1.0911  0.7605  0.2842
 4918TIP3    H236390   3.617   2.258   0.149 -0.6320  0.5820  0.2599
 4919TIP3   OH236391   6.755   0.834   6.556  0.1145 -0.1881  0.1821
 4919TIP3    H136392   6.729   0.830   6.464 -1.1880  0.0934  0.5194
 4919TIP3    H236393   6.707   0.909   6.591 -1.1990 -1.6331  1.6147
 4920TIP3   OH236394   0.836   1.525   7.563 -0.1872  0.2328  0.1123
 4920TIP3    H136395   0.785   1.444   7.567 -0.3999  0.3841  0.4961
 4920TIP3    H236396   0.927   1.496   7.558 -0.3572 -0.0750 -2.1619
 4921TIP3   OH236397   3.269   3.934   0.824  0.0049 -0.2215  0.2302
 4921TIP3    H136398   3.231   3.868   0.882  1.8102 -0.4873  1.1884
 4921TIP3    H236399   3.305   4.000   0.884  0.0298  0.6001 -0.6659
 4922TIP3   OH236400   0.686   3.431   7.389  0.4952 -0.0126 -0.4432
 4922TIP3    H136401   0.602   3.470   7.410  0.9624  1.2061 -0.7685
 4922TIP3    H236402   0.741   3.449   7.465  1.2470  1.6081 -1.3255
 4923TIP3   OH236403   0.543   3.226   8.193  0.2844 -0.4632  0.6921
 4923TIP3    H136404   0.491   3.204   8.116  0.3126 -0.0788  0.5603
 4923TIP3    H236405   0.568   3.317   8.179  0.1613 -0.3456  1.2292
 4924TIP3   OH236406   1.559   0.519   7.320  0.6996 -0.6059  0.8101
 4924TIP3    H136407   1.596   0.431   7.332  1.8220 -0.3533 -0.5223
 4924TIP3    H236408   1.517   0.516   7.234  1.8730  0.4861  0.1530
 4925TIP3   OH236409   0.146   0.490   1.409  0.2308 -0.4301  0.3619
 4925TIP3    H136410   0.098   0.482   1.492 -0.9997  1.3824 -0.1203
 4925TIP3    H236411   0.093   0.549   1.357  3.0764  1.8550 -0.1635
 4926TIP3   OH236412   5.938   0.849   6.757  0.2519  0.1371  0.0043
 4926TIP3    H136413   5.996   0.800   6.816  0.7564  0.5296 -0.1582
 4926TIP3    H236414   5.934   0.796   6.678 -3.1298 -2.1683  1.4893
 4927TIP3   OH236415   2.643   4.565   1.729  0.0649  0.0524  0.7674
 4927TIP3    H136416   2.604   4.644   1.767  0.6076  0.3648  0.6870
 4927TIP3    H236417   2.732   4.591   1.705  1.2072 -1.2803  3.1810
 4928TIP3   OH236418   5.953   5.660   1.487  0.0998 -0.1917  0.9914
 4928TIP3    H136419   5.924   5.572   1.512 -1.7706  0.3261  0.7775
 4928TIP3    H236420   6.004   5.647   1.407 -1.1291 -0.9996  0.3032
 4929TIP3   OH236421   6.178   6.566   1.419  0.0707 -0.6605  0.2206
 4929TIP3    H136422   6.208   6.483   1.381 -1.5807 -1.0782 -0.2497
 4929TIP3    H236423   6.246   6.629   1.395 -0.9275 -0.8214 -3.8107
 4930TIP3   OH236424   1.393   0.046   0.795 -0.1225 -0.1099 -0.3928
 4930TIP3    H136425   1.467   0.018   0.849 -0.8610  1.2525  1.4142
 4930TIP3    H236426   1.335  -0.030   0.792  0.4120 -0.5364 -0.1598
 4931TIP3   OH236427   2.470   4.131   6.448  0.1815 -0.2660 -0.2328
 4931TIP3    H136428   2.492   4.224   6.442  1.6669 -0.4753  1.0836
 4931TIP3    H236429   2.520   4.090   6.378 -0.2384 -0.1026 -0.6267
 4932TIP3   OH236430   4.673   4.474   1.808 -0.0870  0.0520 -0.6633
 4932TIP3    H136431   4.696   4.567   1.806 -1.4764  0.4012 -0.9505
 4932TIP3    H236432   4.627   4.463   1.891 -0.5141 -0.2392 -0.9403
 4933TIP3   OH236433   1.344   1.030   8.124  0.2709 -0.0098  0.4261
 4933TIP3    H136434   1.293   0.957   8.162 -0.1516  0.1913  0.2513
 4933TIP3    H236435   1.288   1.064   8.054  1.6601 -1.3284 -1.4211
 4934TIP3   OH236436   1.099   5.337   0.623 -0.3112  0.4222  0.4056
 4934TIP3    H136437   1.153   5.388   0.684 -0.0019  0.4747  0.0930
 4934TIP3    H236438   1.082   5.255   0.669  0.7826  0.0360  0.1649
 4935TIP3   OH236439   6.441   2.419   1.444  0.1929 -0.2490 -0.0116
 4935TIP3    H136440   6.375   2.430   1.375 -0.1003 -0.2950  0.2570
 4935TIP3    H236441   6.392   2.432   1.526  0.5383 -0.1900  0.1868
 4936TIP3   OH236442   3.681   5.410   1.453  0.1631  0.2181 -0.3725
 4936TIP3    H136443   3.617   5.447   1.393 -2.0680  2.4555  3.0162
 4936TIP3    H236444   3.701   5.481   1.514  1.9780 -1.9135  1.7415
 4937TIP3   OH236445   4.613   5.258   7.186  0.2459 -0.8123 -0.6044
 4937TIP3    H136446   4.671   5.246   7.261  1.7811 -1.5662 -1.8537
 4937TIP3    H236447   4.534   5.298   7.223  0.6475 -1.8342  1.5213
 4938TIP3   OH236448   4.699   4.371   6.471 -0.0588  0.1956 -0.0685
 4938TIP3    H136449   4.639   4.297   6.460 -0.4952  0.7685 -1.9518
 4938TIP3    H236450   4.786   4.332   6.458 -0.3804  0.2901 -3.6951
 4939TIP3   OH236451   3.038   6.697   6.316  0.0157 -0.3510 -0.7804
 4939TIP3    H136452   3.021   6.764   6.381  0.1280 -1.0801  0.0216
 4939TIP3    H236453   2.952   6.665   6.289 -0.0512  0.3741 -1.4568
 4940TIP3   OH236454   5.771   5.657   0.625  0.1536 -0.1054 -0.0412
 4940TIP3    H136455   5.812   5.698   0.549  0.3591 -1.2428 -0.5694
 4940TIP3    H236456   5.705   5.598   0.587 -0.1138 -0.2746  0.6812
 4941TIP3   OH236457   2.632   1.691   2.096 -0.2511 -0.2284  0.0360
 4941TIP3    H136458   2.540   1.694   2.071 -0.5517 -0.2866  1.0938
 4941TIP3    H236459   2.633   1.648   2.181  0.6669  0.5420  0.4419
 4942TIP3   OH236460   4.419   2.354   7.510  0.0208 -0.7565 -0.5160
 4942TIP3    H136461   4.332   2.337   7.544  0.4919 -2.2659  0.0613
 4942TIP3    H236462   4.428   2.294   7.435  0.0085  0.5136 -1.5649
 4943TIP3   OH236463   1.866   5.857   1.347 -0.1237 -0.0007 -0.6133
 4943TIP3    H136464   1.831   5.835   1.434 -0.9956  3.4831  0.0620
 4943TIP3    H236465   1.921   5.934   1.363 -0.0288  0.5235 -3.1258
 4944TIP3   OH236466   3.847   0.770   6.496  0.6111  0.3668  0.0036
 4944TIP3    H136467   3.773   0.732   6.448  1.3691 -2.4178  0.8739
 4944TIP3    H236468   3.806   0.830   6.559 -1.0747 -1.8432  1.1489
 4945TIP3   OH236469   6.165   0.855   7.330  0.3536 -0.5107 -0.2482
 4945TIP3    H136470   6.123   0.769   7.331  1.7517 -1.2848  2.6094
 4945TIP3    H236471   6.138   0.896   7.412 -1.1895  2.3622 -2.0251
 4946TIP3   OH236472   5.086   6.638   1.728  0.3957  0.0655 -1.1683
 4946TIP3    H136473   5.122   6.574   1.667  1.3610  1.3522 -1.9920
 4946TIP3    H236474   5.015   6.591   1.772  1.1457 -1.6018 -1.6435
 4947TIP3   OH236475   0.331   2.251   1.013  0.7197 -0.5636 -0.4869
 4947TIP3    H136476   0.257   2.190   1.010  1.0914 -1.0150 -0.5696
 4947TIP3    H236477   0.408   2.196   1.003  1.1388 -0.2306  0.7334
 4948TIP3   OH236478   6.716   6.875   7.448 -0.2352 -0.1048  0.0319
 4948TIP3    H136479   6.770   6.886   7.526  1.0863 -0.2266 -0.8319
 4948TIP3    H236480   6.778   6.870   7.375 -1.4619  1.5141 -1.2282
 4949TIP3   OH236481   3.965   4.557   0.320  0.5242 -0.2709  0.4003
 4949TIP3    H136482   3.990   4.518   0.403  0.6496  0.4676  0.7117
 4949TIP3    H236483   3.922   4.639   0.343 -2.0338 -1.3591 -0.1111
 4950TIP3   OH236484   3.792   2.071   1.255  0.0047 -0.2125 -0.1016
 4950TIP3    H136485   3.728   2.001   1.245 -1.9736  1.2915  1.1741
 4950TIP3    H236486   3.853   2.059   1.183 -3.0274 -0.3814 -2.8527
 4951TIP3   OH236487   5.950   3.409   1.216 -0.4304  0.3040 -0.4533
 4951TIP3    H136488   5.874   3.413   1.275 -0.7573  0.5215 -0.8860
 4951TIP3    H236489   6.023   3.389   1.274 -0.2228  3.3890  0.4874
 4952TIP3   OH236490   0.400   1.683   1.712 -0.6575  0.2910 -0.4108
 4952TIP3    H136491   0.484   1.727   1.725 -1.1428  1.3282 -0.6667
 4952TIP3    H236492   0.413   1.595   1.747  0.4216  0.5545 -0.1154
 4953TIP3   OH236493   5.422   1.509   2.143  0.5553 -0.4194  0.5056
 4953TIP3    H136494   5.328   1.509   2.123  0.7135 -0.0348 -0.3113
 4953TIP3    H236495   5.454   1.427   2.104  0.6091 -0.4163  0.5438
 4954TIP3   OH236496   4.407   1.303   2.768  0.1292  0.1662 -0.4053
 4954TIP3    H136497   4.439   1.338   2.851 -0.9233 -0.4466  0.2817
 4954TIP3    H236498   4.419   1.208   2.776  1.4502  0.1962 -1.5951
 4955TIP3   OH236499   3.149   2.162   7.705  0.7498 -0.0566  0.0545
 4955TIP3    H136500   3.083   2.170   7.773  0.9467  0.2951  0.2069
 4955TIP3    H236501   3.145   2.245   7.657  1.1034 -0.0177  0.0876
 4956TIP3   OH236502   3.154   5.873   0.332 -0.4735 -0.0489  0.2184
 4956TIP3    H136503   3.195   5.862   0.246 -1.4283  1.5943 -0.5192
 4956TIP3    H236504   3.163   5.967   0.351  2.7910 -0.8275  3.6084
 4957TIP3   OH236505   6.679   1.829   1.251  0.0710 -0.4561 -0.1940
 4957TIP3    H136506   6.728   1.775   1.313  1.7122 -0.7704 -1.6954
 4957TIP3    H236507   6.685   1.917   1.287  0.7511 -0.6769  0.2581
 4958TIP3   OH236508   5.465   5.377   0.586  0.0971  0.4172  0.3855
 4958TIP3    H136509   5.389   5.319   0.580  1.2038 -0.9222 -1.9143
 4958TIP3    H236510   5.537   5.328   0.546  2.9001  0.6662  4.5295
 4959TIP3   OH236511   1.809   5.350   6.945  0.2515 -0.5172  0.2978
 4959TIP3    H136512   1.806   5.280   7.010 -0.9472 -0.3946  0.3968
 4959TIP3    H236513   1.764   5.423   6.986  0.0762 -0.2126 -0.4145
 4960TIP3   OH236514   6.391   3.241   0.865  0.5364  0.3347  0.5036
 4960TIP3    H136515   6.326   3.273   0.803  0.1391 -0.4208  0.5132
 4960TIP3    H236516   6.468   3.294   0.849  0.6588 -0.2689 -1.0948
 4961TIP3   OH236517   6.743   0.633   7.222 -0.4554 -0.1002 -0.3270
 4961TIP3    H136518   6.686   0.560   7.246 -0.2942 -0.1895 -0.2131
 4961TIP3    H236519   6.761   0.620   7.130 -0.3807 -0.2357 -0.2930
 4962TIP3   OH236520   1.701   3.595   1.044  0.0739  0.1525 -0.2866
 4962TIP3    H136521   1.724   3.518   1.095 -0.0283  0.2667 -0.0665
 4962TIP3    H236522   1.637   3.642   1.098 -0.5509 -0.0784 -0.8167
 4963TIP3   OH236523   5.367   5.110   2.044  0.0464  0.2785 -0.0635
 4963TIP3    H136524   5.391   5.018   2.045 -0.3095  0.0283 -3.4215
 4963TIP3    H236525   5.272   5.110   2.035  0.1287  0.9367 -1.0345
 4964TIP3   OH236526   0.350   5.259   0.986  0.1451 -0.3687 -0.2382
 4964TIP3    H136527   0.349   5.316   1.063  1.3344  2.3556 -2.0541
 4964TIP3    H236528   0.412   5.190   1.008  1.3142  0.9688  0.8850
 4965TIP3   OH236529   6.444   1.989   6.607  0.4261 -0.3458 -0.5722
 4965TIP3    H136530   6.423   1.927   6.537  1.2542 -1.0889 -0.1871
 4965TIP3    H236531   6.360   2.006   6.650  0.3421 -2.1147  0.0369
 4966TIP3   OH236532   0.109   1.527   7.962  0.3193 -0.0712  0.1746
 4966TIP3    H136533   0.056   1.577   8.023 -1.2396 -1.9932  0.4640
 4966TIP3    H236534   0.078   1.554   7.875  1.0996  1.1052  0.2272
 4967TIP3   OH236535   5.142   5.604   0.119 -0.4819  0.3692  0.0160
 4967TIP3    H136536   5.165   5.681   0.171 -1.6606  0.3565  0.6031
 4967TIP3    H236537   5.139   5.532   0.182  0.9763 -0.2559 -0.5940
 4968TIP3   OH236538   2.310   1.810   7.032 -0.0912 -0.1207 -0.2499
 4968TIP3    H136539   2.254   1.853   7.097 -0.6051  0.7082 -1.2146
 4968TIP3    H236540   2.321   1.721   7.065 -2.8538 -0.6429 -0.5296
 4969TIP3   OH236541   4.836   3.655   1.883 -0.1546  0.1025 -0.1459
 4969TIP3    H136542   4.788   3.652   1.966 -0.3348  0.6044 -0.2244
 4969TIP3    H236543   4.775   3.619   1.819  0.0249 -0.3876 -0.0478
 4970TIP3   OH236544   1.083   6.424   6.113 -1.0359 -0.5905  0.2648
 4970TIP3    H136545   0.998   6.449   6.149 -1.3665 -0.7524 -0.3818
 4970TIP3    H236546   1.126   6.506   6.091 -1.8972 -0.5337 -1.3553
 4971TIP3   OH236547   1.001   4.656   0.412  0.0672 -0.3081  0.2278
 4971TIP3    H136548   1.016   4.743   0.373  0.0401 -0.5018 -0.2284
 4971TIP3    H236549   0.906   4.651   0.422  0.0971 -0.1425  0.5930
 4972TIP3   OH236550   5.274   2.071   2.446  0.3653 -0.3921 -0.5253
 4972TIP3    H136551   5.341   2.002   2.447  0.2337 -0.5181 -0.2550
 4972TIP3    H236552   5.192   2.025   2.465  0.3122 -0.1288 -0.0989
 4973TIP3   OH236553   5.790   0.096   6.518 -0.4698  0.4195 -0.6699
 4973TIP3    H136554   5.795   0.001   6.507 -1.9280  0.0696  1.1749
 4973TIP3    H236555   5.869   0.130   6.475  1.7309 -1.8592  1.2666
 4974TIP3   OH236556   4.326   5.382   7.109 -0.2110  0.3447 -0.3748
 4974TIP3    H136557   4.263   5.314   7.088  0.7841 -0.4624 -0.7958
 4974TIP3    H236558   4.389   5.380   7.038 -0.2758  1.8733 -0.5186
 4975TIP3   OH236559   0.117   2.223   7.045 -0.3826 -0.0005 -0.5458
 4975TIP3    H136560   0.119   2.312   7.083 -3.3890  0.0200 -0.1771
 4975TIP3    H236561   0.120   2.237   6.951  0.1367  0.4360 -0.4670
 4976TIP3   OH236562   4.383   3.636   0.640  0.4700  0.1541  0.5026
 4976TIP3    H136563   4.393   3.691   0.563 -0.5522  2.0609  1.6477
 4976TIP3    H236564   4.448   3.567   0.629  1.7129  1.4959 -1.1009
 4977TIP3   OH236565   5.437   5.411   8.207  0.0704  0.0432 -0.0734
 4977TIP3    H136566   5.527   5.381   8.192 -0.2780  0.0639 -2.8274
 4977TIP3    H236567   5.436   5.501   8.174 -0.7197  0.4488  0.9899
 4978TIP3   OH236568   3.400   3.061   8.430 -0.3202  0.6741 -0.0089
 4978TIP3    H136569   3.319   3.099   8.394  0.3450 -0.5632 -3.0599
 4978TIP3    H236570   3.387   3.064   8.525 -3.2302  2.0322 -0.3379
 4979TIP3   OH236571   6.244   2.194   7.279 -0.3122  0.2459  0.0844
 4979TIP3    H136572   6.326   2.187   7.329 -1.1079 -0.2043  1.3902
 4979TIP3    H236573   6.233   2.288   7.266 -1.0616  0.5923  2.5686
 4980TIP3   OH236574   2.466   0.167   6.875 -0.1923  0.0403  0.1500
 4980TIP3    H136575   2.410   0.117   6.815 -4.4660  2.9117  1.3403
 4980TIP3    H236576   2.479   0.251   6.831  0.7141  0.4747  1.2062
 4981TIP3   OH236577   4.913   0.695   8.211  0.2036  0.0998 -0.1020
 4981TIP3    H136578   4.862   0.639   8.152 -0.0380  1.0844 -0.8799
 4981TIP3    H236579   4.872   0.684   8.296 -0.3009 -0.3459 -0.3959
 4982TIP3   OH236580   5.110   0.998   1.478  0.2003 -0.3596 -0.3750
 4982TIP3    H136581   5.139   1.061   1.544 -0.3346  0.7054 -1.1249
 4982TIP3    H236582   5.019   0.978   1.503  0.4069 -0.9667 -0.0646
 4983TIP3   OH236583   3.121   6.527   0.139 -0.7152  0.0549  0.3096
 4983TIP3    H136584   3.135   6.544   0.046 -0.0300  1.0668  0.5861
 4983TIP3    H236585   3.187   6.461   0.161  0.1641  0.9371  0.4053
 4984TIP3   OH236586   6.553   3.439   7.167 -0.0480 -0.2104  0.6843
 4984TIP3    H136587   6.608   3.388   7.107  1.3206  0.2227  1.5041
 4984TIP3    H236588   6.534   3.520   7.120 -0.8840 -0.8029 -0.0128
 4985TIP3   OH236589   3.635   1.935   0.289  0.4032  0.8748 -0.0896
 4985TIP3    H136590   3.730   1.925   0.287  0.3924  0.8196 -2.2002
 4985TIP3    H236591   3.618   2.020   0.249 -0.4665  0.4481 -0.6685
 4986TIP3   OH236592   1.346   6.310   6.110 -0.0573 -0.3080  0.2459
 4986TIP3    H136593   1.255   6.329   6.087 -0.5776 -1.3226  1.3703
 4986TIP3    H236594   1.365   6.370   6.182  0.7284  1.0414 -1.0224
 4987TIP3   OH236595   3.939   3.623   6.886  0.1120 -0.0467  0.6592
 4987TIP3    H136596   4.002   3.600   6.955 -1.2685 -0.0744  1.9540
 4987TIP3    H236597   3.874   3.678   6.929 -1.0749 -0.4756 -0.5098
 4988TIP3   OH236598   4.314   3.361   1.509  0.3268  0.7932  0.0944
 4988TIP3    H136599   4.253   3.423   1.468 -0.4804 -0.5805 -0.8546
 4988TIP3    H236600   4.262   3.318   1.578  0.5204  0.3597 -0.0272
 4989TIP3   OH236601   2.295   4.357   1.138  0.3346  0.2936 -0.9535
 4989TIP3    H136602   2.295   4.451   1.156  2.4461  0.1221  0.1963
 4989TIP3    H236603   2.305   4.352   1.043 -0.6841  1.1883 -1.1435
 4990TIP3   OH236604   5.908   5.738   7.374 -0.0552 -0.2224  0.2380
 4990TIP3    H136605   5.834   5.738   7.314 -0.4272  2.5775  0.5856
 4990TIP3    H236606   5.876   5.693   7.452 -0.3260 -1.7872 -0.7291
 4991TIP3   OH236607   2.867   5.746   7.845 -0.3869 -0.2743  0.4017
 4991TIP3    H136608   2.793   5.750   7.785  0.2192 -0.2691 -0.3685
 4991TIP3    H236609   2.923   5.678   7.808  1.8463  2.2602 -1.2350
 4992TIP3   OH236610   3.916   1.055   7.389  0.7068 -0.1826 -0.4713
 4992TIP3    H136611   3.937   1.092   7.475 -0.6564  0.0035 -0.1925
 4992TIP3    H236612   3.930   0.961   7.400  1.5839 -0.0501 -0.3795
 4993TIP3   OH236613   2.757   2.514   7.067 -0.0805 -0.0228 -0.1900
 4993TIP3    H136614   2.706   2.497   6.988  0.3800  1.2591 -0.7857
 4993TIP3    H236615   2.828   2.450   7.065 -1.7153 -2.0010  0.7738
 4994TIP3   OH236616   3.961   2.569   6.553  0.1762 -0.7172 -0.4674
 4994TIP3    H136617   4.056   2.564   6.559  0.1467 -1.5184 -0.6278
 4994TIP3    H236618   3.938   2.647   6.604  1.0248  0.3120 -1.5979
 4995TIP3   OH236619   1.353   5.154   1.995 -0.1343  0.3265 -0.0865
 4995TIP3    H136620   1.441   5.162   1.960  0.0852 -1.5355 -0.0354
 4995TIP3    H236621   1.365   5.145   2.090 -0.4350  0.7565 -0.0014
 4996TIP3   OH236622   2.114   2.004   0.088  0.0894 -0.0868 -0.1583
 4996TIP3    H136623   2.166   2.030   0.164 -1.1491  0.3684  0.5420
 4996TIP3    H236624   2.101   2.085   0.038 -0.1986 -0.1508 -0.1865
 4997TIP3   OH236625   0.092   4.711   6.606 -0.0380 -0.1437 -0.3716
 4997TIP3    H136626   0.030   4.758   6.661  1.9754  0.9143  1.1696
 4997TIP3    H236627   0.176   4.754   6.623  1.7557 -3.4845  0.1837
 4998TIP3   OH236628   1.857   0.559   0.916  0.2617 -0.2625  0.3659
 4998TIP3    H136629   1.863   0.654   0.923 -0.8879 -0.1401 -0.1006
 4998TIP3    H236630   1.806   0.544   0.836 -1.5486 -1.2027  1.6363
 4999TIP3   OH236631   2.391   1.619   1.448 -0.1495  0.0180 -0.2668
 4999TIP3    H136632   2.452   1.661   1.508 -0.3037  0.9103 -0.7270
 4999TIP3    H236633   2.305   1.633   1.486 -0.0633 -1.7050  0.6641
 5000TIP3   OH236634   3.897   0.030   6.919  0.2930  0.3806  0.5964
 5000TIP3    H136635   3.818  -0.023   6.925  0.3131  0.2667 -0.0327
 5000TIP3    H236636   3.924   0.023   6.827 -1.3453  3.7777 -0.3354
 5001TIP3   OH236637   1.601   6.660   1.030 -0.0068  0.1362  0.2336
 5001TIP3    H136638   1.555   6.733   1.070  1.5307  1.7238 -0.7479
 5001TIP3    H236639   1.691   6.691   1.020  0.1265 -0.8642 -2.5952
 5002TIP3   OH236640   6.628   6.588   0.947 -0.0025  0.1183  0.2552
 5002TIP3    H136641   6.701   6.650   0.941  1.6053 -1.7525 -0.4497
 5002TIP3    H236642   6.662   6.516   1.000 -2.3833  0.4863  2.5201
 5003TIP3   OH236643   4.200   6.477   7.167 -0.0876  0.1879 -0.1276
 5003TIP3    H136644   4.125   6.424   7.138 -0.0713 -0.6816  1.3173
 5003TIP3    H236645   4.173   6.567   7.150 -1.3507 -0.1318  0.0825
 5004TIP3   OH236646   6.571   4.279   1.332  0.0273 -0.1387  0.1411
 5004TIP3    H136647   6.586   4.374   1.336  1.8109 -0.4119  1.1280
 5004TIP3    H236648   6.537   4.256   1.418 -1.0397 -0.3291 -0.3146
 5005TIP3   OH236649   6.353   5.989   1.492  0.2476  0.8682  0.0519
 5005TIP3    H136650   6.355   5.893   1.493  0.7924  0.8623 -0.6269
 5005TIP3    H236651   6.261   6.011   1.478  0.1433  0.4422  0.0478
 5006TIP3   OH236652   4.518   6.195   2.464  0.1032  0.5030 -0.7060
 5006TIP3    H136653   4.612   6.185   2.478  0.1151  1.6184  0.2291
 5006TIP3    H236654   4.506   6.290   2.456 -0.8101  0.3037 -1.9046
 5007TIP3   OH236655   1.225   6.666   6.136  0.9487  0.2008 -0.1705
 5007TIP3    H136656   1.313   6.646   6.103  2.3850  1.5542  2.5129
 5007TIP3    H236657   1.227   6.639   6.227 -1.1308  1.1127  0.1884
 5008TIP3   OH236658   6.756   2.434   0.767 -0.0985  0.2034 -0.8782
 5008TIP3    H136659   6.742   2.399   0.679 -1.0530 -0.4230 -0.4897
 5008TIP3    H236660   6.760   2.529   0.754 -0.1016  0.1100 -1.6097
 5009TIP3   OH236661   4.555   4.308   2.436  0.0687  0.2280 -0.0462
 5009TIP3    H136662   4.631   4.339   2.486  0.6066  0.1586 -0.8064
 5009TIP3    H236663   4.483   4.307   2.500  0.8375 -0.2786  0.8261
 5010TIP3   OH236664   3.249   1.522   1.231  0.7798 -0.5387  0.1178
 5010TIP3    H136665   3.248   1.617   1.223  1.3598 -0.6963 -2.5930
 5010TIP3    H236666   3.317   1.504   1.296  1.4053  0.8379 -0.1393
 5011TIP3   OH236667   4.713   2.980   7.768  0.0351 -0.4355  0.0228
 5011TIP3    H136668   4.754   3.030   7.839  0.2600 -0.5677 -0.0128
 5011TIP3    H236669   4.740   2.889   7.784  0.1024 -0.4634 -0.2412
 5012TIP3   OH236670   5.980   0.360   7.055 -0.1853 -0.5122 -0.2635
 5012TIP3    H136671   5.940   0.354   6.969  0.9902 -1.7325 -0.7664
 5012TIP3    H236672   6.047   0.428   7.046 -1.5045  0.9180  0.3357
 5013TIP3   OH236673   1.694   1.663   7.062 -0.1968 -0.3057  0.3190
 5013TIP3    H136674   1.643   1.724   7.009 -1.0210 -1.6628 -0.5360
 5013TIP3    H236675   1.666   1.576   7.032  1.9006 -1.1233  0.5206
 5014TIP3   OH236676   1.494   0.240   7.621 -0.5246 -0.1474  0.1189
 5014TIP3    H136677   1.466   0.328   7.644 -3.4064 -1.1616  0.9373
 5014TIP3    H236678   1.562   0.219   7.686 -1.1265  0.8098  1.0959
 5015TIP3   OH236679   3.925   2.168   7.276  0.2693 -0.1352 -0.1875
 5015TIP3    H136680   3.985   2.243   7.271  2.2776 -1.7367 -2.1405
 5015TIP3    H236681   3.899   2.152   7.185 -1.8086 -0.5888  0.4187
 5016TIP3   OH236682   5.618   2.753   7.075  0.2193  0.1428 -0.3066
 5016TIP3    H136683   5.685   2.736   7.009  1.6468 -1.2411  1.3938
 5016TIP3    H236684   5.536   2.728   7.034  0.2065  4.1930 -3.3658
 5017TIP3   OH236685   2.033   1.403   1.035 -0.2188  0.5473  0.3359
 5017TIP3    H136686   2.109   1.347   1.016 -0.3280 -0.1455  1.8259
 5017TIP3    H236687   2.065   1.464   1.101 -0.6521  1.0087  0.1231
 5018TIP3   OH236688   5.086   2.438   0.139 -0.0389 -0.6738  0.0713
 5018TIP3    H136689   5.128   2.461   0.222 -1.2638  2.4270 -0.0364
 5018TIP3    H236690   5.156   2.448   0.073  0.1872 -0.1421  0.3884
 5019TIP3   OH236691   6.120   2.094   1.566 -0.1806 -0.1225 -0.3687
 5019TIP3    H136692   6.114   2.138   1.650 -1.1101 -1.2741  0.1859
 5019TIP3    H236693   6.188   2.028   1.579 -0.2061 -0.1904 -0.5787
 5020TIP3   OH236694   0.524   3.608   0.477 -0.3460  0.2242 -0.0411
 5020TIP3    H136695   0.468   3.553   0.533 -2.1679  1.5070 -0.5446
 5020TIP3    H236696   0.579   3.656   0.539 -0.4338 -0.3681  0.5087
 5021TIP3   OH236697   4.741   4.933   7.573 -0.2998 -1.0641  0.4907
 5021TIP3    H136698   4.647   4.918   7.568 -0.5233 -0.4099  2.1162
 5021TIP3    H236699   4.779   4.867   7.515 -1.7688 -1.0481 -0.5418
 5022TIP3   OH236700   1.804   2.995   1.578 -0.1956  0.1503  0.2890
 5022TIP3    H136701   1.835   3.084   1.561 -0.3789  0.2687  0.5620
 5022TIP3    H236702   1.784   2.995   1.672 -0.9069  0.0408  0.1422
 5023TIP3   OH236703   5.681   3.221   0.864 -0.2774 -0.3196  0.1663
 5023TIP3    H136704   5.723   3.159   0.924  2.3585  0.5081 -0.6524
 5023TIP3    H236705   5.687   3.179   0.779  0.2566  0.4198 -0.1787
 5024TIP3   OH236706   4.312   6.147   0.989 -0.4385 -0.2914  0.1433
 5024TIP3    H136707   4.348   6.169   1.075  0.6915 -1.3927 -0.0158
 5024TIP3    H236708   4.385   6.105   0.943 -0.9721  0.4363 -1.4291
 5025TIP3   OH236709   3.490   2.952   0.241 -0.2288  0.3347  0.1784
 5025TIP3    H136710   3.462   2.887   0.177 -1.0717 -0.4772  1.3280
 5025TIP3    H236711   3.562   2.998   0.198 -1.6281  0.7589 -1.8753
 5026TIP3   OH236712   6.827   1.106   7.590  0.0899 -0.4659 -0.0000
 5026TIP3    H136713   6.913   1.114   7.549  0.1441 -1.9155 -0.1985
 5026TIP3    H236714   6.846   1.087   7.682  0.0348  5.1837  1.5888
 5027TIP3   OH236715   3.547   6.384   8.123 -0.1591  0.7097 -0.0246
 5027TIP3    H136716   3.591   6.386   8.038  1.3379  0.7076  0.7236
 5027TIP3    H236717   3.616   6.404   8.186 -1.3785  1.3326  1.1480
 5028TIP3   OH236718   1.295   0.617   1.156 -0.4074  0.5173  0.1511
 5028TIP3    H136719   1.381   0.653   1.175 -1.6319  3.3787  0.9156
 5028TIP3    H236720   1.299   0.593   1.063  1.1931  0.5930  0.1717
 5029TIP3   OH236721   4.787   5.669   0.218  0.5025 -0.6531  0.1519
 5029TIP3    H136722   4.767   5.687   0.310  1.5874 -0.2316  0.3255
 5029TIP3    H236723   4.832   5.585   0.219  0.3517 -0.7360 -0.0154
 5030TIP3   OH236724   5.961   5.244   2.458 -0.0688  0.1186 -0.9368
 5030TIP3    H136725   6.052   5.215   2.452 -0.0080 -0.1596  0.7948
 5030TIP3    H236726   5.909   5.168   2.429  0.2147 -0.1680 -0.6919
 5031TIP3   OH236727   5.041   4.812   0.459  0.5618  0.1058 -0.1931
 5031TIP3    H136728   5.113   4.802   0.396  0.0303  2.0753 -1.2075
 5031TIP3    H236729   4.962   4.806   0.405  0.1143  3.3716 -0.0647
 5032TIP3   OH236730   2.514   2.905   2.171 -0.3349 -0.0696  0.9563
 5032TIP3    H136731   2.472   2.886   2.087 -1.7709 -0.1464  1.6557
 5032TIP3    H236732   2.467   2.851   2.234 -0.5824  1.3963  2.1004
 5033TIP3   OH236733   5.321   5.802   7.074  0.4110 -0.2438 -0.4658
 5033TIP3    H136734   5.252   5.821   7.011 -2.2838 -0.3669  2.1975
 5033TIP3    H236735   5.366   5.886   7.088  0.8011 -0.1404 -2.1591
 5034TIP3   OH236736   4.214   6.788   7.059  0.1697  0.1422 -0.1505
 5034TIP3    H136737   4.222   6.878   7.026 -1.5035 -0.1290 -1.4252
 5034TIP3    H236738   4.218   6.733   6.981 -0.1481 -0.7874  0.4696
 5035TIP3   OH236739   0.884   0.696   2.700  0.9695 -0.1851  0.3881
 5035TIP3    H136740   0.850   0.720   2.613 -0.0804 -0.7325  0.6293
 5035TIP3    H236741   0.928   0.775   2.731 -1.0867  0.9738  0.5285
 5036TIP3   OH236742   5.667   5.043   0.967 -0.5583 -0.8285  0.3499
 5036TIP3    H136743   5.587   5.093   0.985  0.5458  1.3706 -0.4241
 5036TIP3    H236744   5.705   5.086   0.890  0.8569 -2.4657  0.0743
 5037TIP3   OH236745   2.392   2.754   0.007 -0.0518 -0.4664  0.0810
 5037TIP3    H136746   2.347   2.809   0.071  1.2768 -1.1634  1.7056
 5037TIP3    H236747   2.482   2.747   0.040  0.8070 -0.5366 -2.1115
 5038TIP3   OH236748   3.491   0.517   7.954  0.2657 -0.5333 -0.4162
 5038TIP3    H136749   3.463   0.607   7.973  0.7911 -0.5132  0.2921
 5038TIP3    H236750   3.421   0.462   7.989  1.1151 -0.4858  1.4400
 5039TIP3   OH236751   1.414   0.391   6.388  0.1039 -0.4666  0.4104
 5039TIP3    H136752   1.388   0.331   6.319  0.9202 -0.0728 -0.2569
 5039TIP3    H236753   1.428   0.475   6.344  0.9541 -0.2847  0.9841
 5040TIP3   OH236754   1.423   6.582   0.177 -0.6471 -0.4300  0.0746
 5040TIP3    H136755   1.489   6.645   0.206 -2.4152  1.7830 -0.4182
 5040TIP3    H236756   1.404   6.530   0.255  0.4185  0.0342  0.6762
 5041TIP3   OH236757   6.024   2.542   0.058  0.2325  0.1127 -1.3935
 5041TIP3    H136758   6.044   2.450   0.079  0.2067  0.0784 -1.5207
 5041TIP3    H236759   6.095   2.591   0.098 -0.3367  0.1284 -0.3659
 5042TIP3   OH236760   2.855   6.553   6.131  0.0516  0.1662  0.2254
 5042TIP3    H136761   2.775   6.573   6.179 -0.1149 -1.3379  0.6104
 5042TIP3    H236762   2.828   6.544   6.040  0.0840  1.3363  0.0871
 5043TIP3   OH236763   4.603   6.447   2.140  0.4199  0.2142  0.4518
 5043TIP3    H136764   4.662   6.397   2.196 -0.0298 -0.1555  0.5972
 5043TIP3    H236765   4.517   6.441   2.183  0.3619  1.1180  0.4795
 5044TIP3   OH236766   5.721   4.098   1.259  0.1463  0.7541  0.4001
 5044TIP3    H136767   5.768   4.015   1.248  0.2814  0.7769  0.8018
 5044TIP3    H236768   5.776   4.162   1.213  0.9764  0.9394  1.5979
 5045TIP3   OH236769   1.926   0.923   8.243 -0.0954 -0.3164 -0.3507
 5045TIP3    H136770   1.881   0.914   8.159  0.2122  0.1723 -0.5694
 5045TIP3    H236771   1.943   1.017   8.252  1.3206 -0.5473 -0.5036
 5046TIP3   OH236772   5.036   6.417   0.013  0.6655  0.1911 -0.0158
 5046TIP3    H136773   5.115   6.376   0.049  1.9163  2.0864 -0.4638
 5046TIP3    H236774   5.012   6.361  -0.061  1.0269 -0.9191  0.6755
 5047TIP3   OH236775   1.425   1.820   6.902 -0.1175 -0.8038 -0.0123
 5047TIP3    H136776   1.332   1.834   6.882 -0.3173 -1.9623  0.0392
 5047TIP3    H236777   1.440   1.728   6.882  0.8740 -0.7782  0.5697
 5048TIP3   OH236778   2.167   6.485   7.577 -0.0312 -0.7015  0.0915
 5048TIP3    H136779   2.137   6.430   7.650  1.4340 -1.8550 -0.1294
 5048TIP3    H236780   2.211   6.558   7.619 -0.7636 -0.4010  0.3672
 5049TIP3   OH236781   5.025   3.365   7.388  0.1436 -0.1772  0.5268
 5049TIP3    H136782   4.943   3.316   7.393 -0.8689  1.4287  0.5006
 5049TIP3    H236783   5.080   3.313   7.328 -1.1164 -0.9256 -0.0328
 5050TIP3   OH236784   1.853   0.283   1.774 -0.6024  0.3644  0.2878
 5050TIP3    H136785   1.781   0.272   1.711 -0.4443  0.9921 -0.0118
 5050TIP3    H236786   1.836   0.367   1.815 -0.1588  0.4104  0.3797
 5051TIP3   OH236787   1.399   6.362   6.948  0.1362  0.3174 -0.4297
 5051TIP3    H136788   1.479   6.415   6.952  0.0735  0.4429 -0.7814
 5051TIP3    H236789   1.352   6.383   7.028  0.2351  0.5981 -0.4439
 5052TIP3   OH236790   0.803   5.287   6.091 -0.1366  0.5219  0.6421
 5052TIP3    H136791   0.740   5.232   6.138 -3.3401  2.3587 -1.1416
 5052TIP3    H236792   0.850   5.226   6.035 -1.8542 -0.7582  0.4784
 5053TIP3   OH236793   2.000   6.666   0.004 -0.5401 -0.7609  0.4040
 5053TIP3    H136794   1.980   6.582   0.045 -1.2718 -1.0219 -0.4475
 5053TIP3    H236795   2.006   6.728   0.077  1.1484 -1.7521  1.1407
 5054TIP3   OH236796   6.137   3.842   0.804  0.2513  0.3434  0.4378
 5054TIP3    H136797   6.184   3.820   0.724  2.3308 -0.6286  1.8370
 5054TIP3    H236798   6.204   3.879   0.862 -1.1902  1.0367  1.7492
 5055TIP3   OH236799   3.852   5.009   2.251 -0.7621 -0.4901  0.1626
 5055TIP3    H136800   3.920   4.982   2.314  1.4369 -0.8522 -2.1919
 5055TIP3    H236801   3.842   5.103   2.266  0.9460 -0.2489  0.0333
 5056TIP3   OH236802   3.680   6.671   0.543  0.1014  0.2730 -0.1845
 5056TIP3    H136803   3.754   6.614   0.563 -2.0051 -1.8447  2.2759
 5056TIP3    H236804   3.606   6.611   0.532 -1.6375  2.3829 -0.7339
 5057TIP3   OH236805   3.799   4.321   1.279 -0.5958 -0.4492  0.2183
 5057TIP3    H136806   3.825   4.293   1.191 -0.2992 -0.7838  0.4124
 5057TIP3    H236807   3.721   4.375   1.264  0.2470  0.6587 -0.3742
 5058TIP3   OH236808   0.595   6.179   0.136 -0.1589  0.1413 -0.1423
 5058TIP3    H136809   0.536   6.180   0.060 -1.6288 -0.4072  0.9434
 5058TIP3    H236810   0.565   6.105   0.189  0.7252  0.6102  1.0576
 5059TIP3   OH236811   6.431   6.033   6.778 -0.4589 -0.3489  0.0462
 5059TIP3    H136812   6.347   6.040   6.823 -0.8954  0.0854 -0.8195
 5059TIP3    H236813   6.468   5.950   6.810 -0.6418  0.0485  1.3618
 5060TIP3   OH236814   5.726   0.594   8.477 -0.7241 -0.0136 -0.5463
 5060TIP3    H136815   5.809   0.607   8.525 -0.4093 -0.3180 -1.0032
 5060TIP3    H236816   5.685   0.520   8.521 -0.4106 -0.3279 -0.7798
 5061TIP3   OH236817   0.398   3.347   1.473  0.2180  0.6161 -0.3455
 5061TIP3    H136818   0.303   3.342   1.466  0.2379  0.6631 -0.6460
 5061TIP3    H236819   0.414   3.377   1.563 -0.0121 -0.5774  0.1023
 5062TIP3   OH236820   3.381   5.668   7.054  0.5305  0.4478  0.4778
 5062TIP3    H136821   3.384   5.652   6.959  2.5339  2.0498  0.1950
 5062TIP3    H236822   3.304   5.722   7.067  1.2473  1.7858 -0.5751
 5063TIP3   OH236823   0.923   2.056   6.076  1.0835  0.5363  0.4067
 5063TIP3    H136824   0.885   2.016   5.998  3.9688  0.8546 -1.3065
 5063TIP3    H236825   0.941   2.146   6.051 -0.1300  1.3622  2.3110
 5064TIP3   OH236826   6.373   4.564   8.123 -0.0409 -0.0289 -0.2249
 5064TIP3    H136827   6.392   4.493   8.061  0.5886 -0.5503  0.5510
 5064TIP3    H236828   6.333   4.632   8.069 -0.2391 -0.7903 -1.0674
 5065TIP3   OH236829   2.709   4.915   0.926 -0.6414 -0.1166 -0.2873
 5065TIP3    H136830   2.768   4.839   0.924 -0.3424  0.0674  0.8663
 5065TIP3    H236831   2.716   4.953   0.838  0.1150 -0.7319 -0.5038
 5066TIP3   OH236832   1.441   5.150   0.868  0.1639  0.4541 -0.5237
 5066TIP3    H136833   1.445   5.055   0.857  0.7104  0.2157  1.4956
 5066TIP3    H236834   1.457   5.185   0.780  0.1736 -1.3046 -1.2512
 5067TIP3   OH236835   3.682   0.839   8.045 -0.0967 -0.3856 -0.2178
 5067TIP3    H136836   3.743   0.795   7.986  2.0830  1.5381  0.4367
 5067TIP3    H236837   3.728   0.840   8.130 -1.3988  0.4137  0.5081
 5068TIP3   OH236838   6.379   4.011   7.776 -0.3848 -0.8378 -0.1347
 5068TIP3    H136839   6.361   3.971   7.861  1.6075 -0.2940  0.5837
 5068TIP3    H236840   6.470   4.040   7.781 -0.6799  0.5916 -1.9026
 5069TIP3   OH236841   3.616   5.757   7.821  0.1544 -0.0096  0.3282
 5069TIP3    H136842   3.698   5.760   7.869 -0.2792  1.0195  1.0466
 5069TIP3    H236843   3.557   5.706   7.876 -0.2606  0.9362  0.7937
 5070TIP3   OH236844   6.066   5.310   8.080  0.3527 -0.0088  0.2625
 5070TIP3    H136845   6.032   5.263   8.156  2.7813 -0.8907  0.9014
 5070TIP3    H236846   6.094   5.395   8.115 -2.1574  1.2188 -0.4970
 5071TIP3   OH236847   2.047   6.109   7.546 -0.0944  0.0273 -0.1014
 5071TIP3    H136848   2.064   6.150   7.631 -0.3912  0.4340 -0.2364
 5071TIP3    H236849   2.112   6.147   7.487 -1.8206  2.0950 -0.7795
 5072TIP3   OH236850   3.282   1.107   0.267  0.9417  0.2227  0.2200
 5072TIP3    H136851   3.267   1.151   0.183  0.0959 -1.0943 -0.3591
 5072TIP3    H236852   3.373   1.077   0.261  0.6158 -0.6598 -0.6498
 5073TIP3   OH236853   3.146   4.355   1.858  0.0041 -0.3632  0.7620
 5073TIP3    H136854   3.064   4.321   1.823 -0.0507 -0.7972  1.3003
 5073TIP3    H236855   3.198   4.277   1.878 -0.2119 -0.1653  2.2180
 5074TIP3   OH236856   1.697   4.559   7.361 -0.2536 -0.7243 -0.1641
 5074TIP3    H136857   1.699   4.625   7.291  1.9327 -1.1364 -0.5712
 5074TIP3    H236858   1.761   4.590   7.425 -0.8086 -1.3512  0.7112
 5075TIP3   OH236859   5.210   1.756   1.784  0.2864 -0.1458  0.4307
 5075TIP3    H136860   5.280   1.820   1.800 -0.5398  1.0716 -0.6241
 5075TIP3    H236861   5.142   1.806   1.740 -0.7962 -1.5653  0.4295
 5076TIP3   OH236862   3.134   6.172   7.683 -0.7624  0.4287 -0.0510
 5076TIP3    H136863   3.047   6.207   7.704  0.2086  1.4305  2.8203
 5076TIP3    H236864   3.164   6.132   7.764  2.3076  2.0659 -0.2206
 5077TIP3   OH236865   0.274   1.112   7.784  0.0646 -0.3339  0.4981
 5077TIP3    H136866   0.274   1.044   7.852 -3.0405 -0.6208  0.3273
 5077TIP3    H236867   0.278   1.194   7.832 -0.0656 -0.5763  0.9285
 5078TIP3   OH236868   0.979   0.407   8.048 -0.0235 -0.8288 -0.2673
 5078TIP3    H136869   0.973   0.315   8.023  1.3917 -0.9091 -0.3547
 5078TIP3    H236870   1.003   0.452   7.967  2.3960 -0.8065  0.3956
 5079TIP3   OH236871   4.919   4.528   8.378  0.4871  0.1810 -0.7803
 5079TIP3    H136872   4.893   4.483   8.458 -0.4260 -0.0328 -1.1856
 5079TIP3    H236873   4.908   4.621   8.398  0.5738  0.1413 -0.5523
 5080TIP3   OH236874   3.494   5.082   1.704  0.2259  0.2435  0.3101
 5080TIP3    H136875   3.421   5.091   1.766 -0.0651  0.2650 -0.0322
 5080TIP3    H236876   3.496   5.166   1.658  0.7101  0.3811  0.5809
 5081TIP3   OH236877   0.362   6.503   7.959 -0.0940 -0.0526 -0.5913
 5081TIP3    H136878   0.284   6.449   7.964  0.1824 -0.5320 -1.3219
 5081TIP3    H236879   0.400   6.499   8.047 -0.7966  0.0504 -0.2805
 5082TIP3   OH236880   5.111   1.129   6.644 -0.1283 -0.4052  0.4761
 5082TIP3    H136881   5.038   1.126   6.581 -0.4897  0.4239  0.8424
 5082TIP3    H236882   5.132   1.037   6.659  0.3425 -0.6196 -1.2733
 5083TIP3   OH236883   0.104   5.164   7.187  0.2465  0.5504  0.5302
 5083TIP3    H136884   0.168   5.206   7.130 -0.2856 -0.3279 -0.7529
 5083TIP3    H236885   0.114   5.070   7.170 -0.4430  0.3159  1.3323
 5084TIP3   OH236886   3.711   6.313   0.835  0.1692  0.0328  0.4099
 5084TIP3    H136887   3.756   6.394   0.811  0.4441 -0.1737  0.2222
 5084TIP3    H236888   3.779   6.257   0.871  0.4625 -0.9892 -1.5779
 5085TIP3   OH236889   3.754   0.228   7.754 -0.0845  0.1682 -0.6192
 5085TIP3    H136890   3.748   0.255   7.845  1.0010  0.8250 -0.7239
 5085TIP3    H236891   3.802   0.145   7.756 -2.5923 -1.3933 -0.3813
 5086TIP3   OH236892   5.183   4.335   1.263 -0.0882 -0.8930 -0.8331
 5086TIP3    H136893   5.245   4.304   1.197  2.2673  0.6551  0.5120
 5086TIP3    H236894   5.179   4.429   1.250 -0.0538 -0.6340  0.8172
 5087TIP3   OH236895   4.922   3.248   1.220  0.0838  0.2410  0.2325
 5087TIP3    H136896   4.906   3.207   1.304 -1.3738  2.1762  0.9773
 5087TIP3    H236897   4.844   3.301   1.204  0.5064  0.2576 -2.1504
 5088TIP3   OH236898   1.326   1.451   1.726  0.1376  0.3307 -0.2003
 5088TIP3    H136899   1.288   1.517   1.667  0.5484  0.6191 -0.1446
 5088TIP3    H236900   1.312   1.487   1.813 -1.6011 -0.6753 -0.0180
 5089TIP3   OH236901   0.946   6.994   1.380  0.3801 -0.0575 -0.0446
 5089TIP3    H136902   1.040   6.984   1.395  0.2612 -1.3085 -0.0467
 5089TIP3    H236903   0.910   6.908   1.397 -0.6643  0.1909 -0.8923
 5090TIP3   OH236904   1.032   6.576   1.998 -0.0215  0.7009 -0.4517
 5090TIP3    H136905   1.070   6.629   2.068 -0.4764  0.3568  0.0596
 5090TIP3    H236906   1.103   6.519   1.969  0.5814  1.8193 -1.2495
 5091TIP3   OH236907   3.836   1.779   1.010  0.3830 -0.2722 -0.1184
 5091TIP3    H136908   3.891   1.723   0.956  0.2776  0.0283 -0.5434
 5091TIP3    H236909   3.832   1.735   1.095 -0.2805 -1.2779 -0.6521
 5092TIP3   OH236910   6.550   1.232   0.712 -0.6657 -0.1917 -0.1587
 5092TIP3    H136911   6.502   1.290   0.771  0.9161  0.3283  0.6815
 5092TIP3    H236912   6.576   1.158   0.768  1.8504  0.8545  0.1838
 5093TIP3   OH236913   4.789   4.329   1.570 -0.2531 -0.8761 -0.7869
 5093TIP3    H136914   4.844   4.379   1.631 -1.6628  1.1270 -1.0420
 5093TIP3    H236915   4.705   4.323   1.615 -0.0429 -3.4310 -0.6261
 5094TIP3   OH236916   1.191   0.219   7.472  0.0312  0.1382 -0.0495
 5094TIP3    H136917   1.284   0.197   7.482 -0.0145  0.0921  0.2919
 5094TIP3    H236918   1.152   0.199   7.557 -0.2591  0.3237 -0.1353
 5095TIP3   OH236919   5.127   6.886   7.396 -0.1900 -0.0272 -0.3251
 5095TIP3    H136920   5.068   6.836   7.340  1.0004 -1.5080 -0.3158
 5095TIP3    H236921   5.137   6.833   7.475  1.2861  0.0896 -0.4084
 5096TIP3   OH236922   1.061   4.812   1.249  0.0376  0.6049  0.5475
 5096TIP3    H136923   1.128   4.758   1.290 -0.9549 -0.9560  0.1916
 5096TIP3    H236924   0.999   4.832   1.320 -0.3881 -0.0161  0.3558
 5097TIP3   OH236925   0.747   2.656   7.563  0.0652 -0.5184  0.3860
 5097TIP3    H136926   0.780   2.662   7.653  1.2581 -1.1998  0.0205
 5097TIP3    H236927   0.657   2.626   7.573 -0.3800  1.0025  1.4072
 5098TIP3   OH236928   4.312   6.294   7.360 -0.8069 -0.2028  0.1270
 5098TIP3    H136929   4.342   6.339   7.438 -0.4027  0.5828 -0.4700
 5098TIP3    H236930   4.262   6.360   7.312 -1.1565 -0.7102 -0.2187
 5099TIP3   OH236931   4.015   1.366   2.448 -0.1790  0.2060  0.2735
 5099TIP3    H136932   3.935   1.339   2.492  0.3271 -1.2394  0.3665
 5099TIP3    H236933   4.079   1.377   2.518  0.0092  0.2125  0.1039
 5100TIP3   OH236934   6.092   1.075   1.391  0.3363 -0.4281 -0.3207
 5100TIP3    H136935   6.046   0.996   1.418 -0.1963  0.3781  1.2511
 5100TIP3    H236936   6.027   1.145   1.402  1.5378  0.5601  0.7896
 5101TIP3   OH236937   1.446   0.064   1.377 -0.4411 -0.4047  0.1598
 5101TIP3    H136938   1.385   0.137   1.389 -1.7793 -1.5399  0.4359
 5101TIP3    H236939   1.501   0.066   1.455 -0.5011  0.2697  0.1904
 5102TIP3   OH236940   0.041   4.860   7.003  0.2267 -0.1939 -0.1275
 5102TIP3    H136941  -0.040   4.905   6.980  0.3695  0.9326  1.4634
 5102TIP3    H236942   0.015   4.769   7.017 -0.7787  0.1695  0.4304
 5103TIP3   OH236943   2.844   4.323   1.740 -0.3319 -0.3291 -0.2365
 5103TIP3    H136944   2.903   4.399   1.742  0.2365 -0.7529 -0.7914
 5103TIP3    H236945   2.778   4.347   1.675 -0.1135 -0.3377 -0.4633
 5104TIP3   OH236946   5.023   6.025   1.327 -0.4414  0.3591 -0.5788
 5104TIP3    H136947   5.106   6.005   1.370 -1.6932 -4.1214  0.3497
 5104TIP3    H236948   4.999   6.112   1.357  2.3790  0.4552  1.6966
 5105TIP3   OH236949   1.880   5.534   2.737  0.3449  0.2302  0.0175
 5105TIP3    H136950   1.902   5.608   2.681  0.1648  0.6466  0.4935
 5105TIP3    H236951   1.785   5.524   2.727  0.4408 -0.2686 -0.4470
 5106TIP3   OH236952   2.382   1.456   1.728  0.0440 -0.5924  0.5454
 5106TIP3    H136953   2.407   1.544   1.753 -2.5879  0.4489 -0.1832
 5106TIP3    H236954   2.401   1.402   1.804  2.3852  0.4162  0.7433
 5107TIP3   OH236955   0.083   2.289   6.755  0.0739 -0.4206 -0.4744
 5107TIP3    H136956   0.118   2.284   6.666  1.0526  0.4713 -0.1675
 5107TIP3    H236957   0.112   2.375   6.787 -0.0980 -0.7999  0.7648
 5108TIP3   OH236958   1.512   1.509   6.529 -0.7112 -0.1346 -0.0271
 5108TIP3    H136959   1.420   1.532   6.517 -0.5867  0.8364  0.7104
 5108TIP3    H236960   1.517   1.416   6.506 -2.0260 -0.3994  0.6404
 5109TIP3   OH236961   2.854   5.200   1.322 -0.5322  0.0060 -0.1315
 5109TIP3    H136962   2.948   5.216   1.313 -0.7346  1.8124  0.6740
 5109TIP3    H236963   2.835   5.218   1.414 -1.7195 -0.0370 -0.3554
 5110TIP3   OH236964   6.810   3.199   1.063  0.2451  0.6308  0.3932
 5110TIP3    H136965   6.769   3.195   1.149  0.8256 -1.3138  0.6486
 5110TIP3    H236966   6.904   3.207   1.082  0.3155  0.9825 -0.0852
 5111TIP3   OH236967   4.688   5.946   1.945  0.2301  0.2592 -0.0670
 5111TIP3    H136968   4.659   6.003   1.873  0.0136 -0.0616 -0.2354
 5111TIP3    H236969   4.647   5.983   2.023  0.4021  0.5627 -0.1206
 5112TIP3   OH236970   6.058   1.846   1.288 -0.1414 -0.0813  0.0060
 5112TIP3    H136971   6.059   1.885   1.200  1.2086  0.5072  0.2542
 5112TIP3    H236972   5.973   1.870   1.324 -0.4883  0.1498 -0.9411
 5113TIP3   OH236973   4.550   2.757   0.818 -0.4096 -0.3322  0.1389
 5113TIP3    H136974   4.505   2.676   0.796 -1.9447  0.1457  1.3689
 5113TIP3    H236975   4.484   2.811   0.860  1.0210  0.8944  0.9227
 5114TIP3   OH236976   0.359   6.428   7.659  1.0609  0.7411  0.0858
 5114TIP3    H136977   0.353   6.416   7.754  0.2876 -0.3404 -0.0764
 5114TIP3    H236978   0.431   6.490   7.647  3.3081 -1.4855  1.2292
 5115TIP3   OH236979   2.282   5.411   2.210 -0.0590  1.1277  0.0563
 5115TIP3    H136980   2.362   5.378   2.169  0.2123  0.3144  1.1956
 5115TIP3    H236981   2.257   5.487   2.156  1.3415  1.2619 -0.4504
 5116TIP3   OH236982   3.737   2.602   7.693  0.4490 -0.1288 -0.4263
 5116TIP3    H136983   3.731   2.506   7.700 -0.0220 -0.0697  0.1687
 5116TIP3    H236984   3.802   2.626   7.759  0.3216 -0.0118 -0.3446
 5117TIP3   OH236985   5.474   1.925   7.266 -0.7736  0.0769  0.3793
 5117TIP3    H136986   5.472   2.007   7.315  0.0442  0.4282 -0.1591
 5117TIP3    H236987   5.538   1.940   7.197  1.0476 -1.7776  1.5639
 5118TIP3   OH236988   1.915   1.816   1.290  0.0099 -0.3206  0.4349
 5118TIP3    H136989   1.858   1.892   1.287  0.8202  0.2884  0.1548
 5118TIP3    H236990   1.912   1.786   1.381  0.8517  0.9581  0.9032
 5119TIP3   OH236991   3.749   1.244   7.679  0.6268  0.5555  0.1266
 5119TIP3    H136992   3.841   1.233   7.653  0.4798 -0.5270 -0.0076
 5119TIP3    H236993   3.748   1.230   7.773  0.6532  0.9501  0.1862
 5120TIP3   OH236994   0.444   3.735   7.067 -0.0444  0.3616  0.3010
 5120TIP3    H136995   0.536   3.730   7.044 -0.0178  1.4950  0.1038
 5120TIP3    H236996   0.414   3.644   7.068  0.7692  0.0609 -0.8530
 5121TIP3   OH236997   4.706   0.109   0.307 -0.4971 -0.1541 -0.5128
 5121TIP3    H136998   4.753   0.141   0.230  0.9799  1.0930  0.8237
 5121TIP3    H236999   4.624   0.158   0.306  0.8589  2.3715  0.3601
 5122TIP3   OH237000   5.474   4.330   2.355  0.3606  0.0699 -0.0129
 5122TIP3    H137001   5.481   4.399   2.420 -1.2046  0.2088  0.0492
 5122TIP3    H237002   5.449   4.375   2.274 -1.0505 -0.4170  0.1168
 5123TIP3   OH237003   1.676   0.020   0.134 -0.0110  0.1729 -0.0673
 5123TIP3    H137004   1.704   0.104   0.169  0.7261 -0.0622 -0.0746
 5123TIP3    H237005   1.692  -0.042   0.205 -2.2052  0.2780  0.5965
 5124TIP3   OH237006   0.936   5.768   0.406 -0.2352 -0.2215  0.0834
 5124TIP3    H137007   0.927   5.684   0.452 -1.4346 -0.5797 -0.7608
 5124TIP3    H237008   0.901   5.751   0.319  0.1290  0.9905 -0.3071
 5125TIP3   OH237009   2.380   6.766   0.363 -0.3626  0.2894  0.0181
 5125TIP3    H137010   2.383   6.789   0.271 -0.7796 -0.0695 -0.0889
 5125TIP3    H237011   2.397   6.672   0.366  3.0499  0.8040  0.5869
 5126TIP3   OH237012   3.327   6.795   0.478 -0.3382  0.4776 -0.2112
 5126TIP3    H137013   3.336   6.886   0.452  0.1737  0.4821 -0.0267
 5126TIP3    H237014   3.381   6.787   0.557  2.0172 -0.6778 -1.8139
 5127TIP3   OH237015   1.631   2.946   5.983 -0.6568  0.2682 -0.1779
 5127TIP3    H137016   1.597   3.035   5.996 -2.6400 -0.5166  0.4698
 5127TIP3    H237017   1.597   2.897   6.058  0.8146 -0.9544 -0.2622
 5128TIP3   OH237018   4.560   0.684   0.343 -0.2025 -0.8336 -0.0638
 5128TIP3    H137019   4.611   0.642   0.274  0.1803 -0.7987  0.1989
 5128TIP3    H237020   4.622   0.697   0.415 -0.3678 -0.0155 -0.0600
 5129TIP3   OH237021   5.389   6.365   0.667 -0.2140  0.3626  0.2221
 5129TIP3    H137022   5.380   6.423   0.591  0.2324  0.9854  0.6352
 5129TIP3    H237023   5.475   6.385   0.702  0.3590 -1.2370 -0.1735
 5130TIP3   OH237024   1.701   1.964   0.560  0.2498 -0.2816 -0.0042
 5130TIP3    H137025   1.622   2.012   0.533  1.3671 -0.0436 -3.2431
 5130TIP3    H237026   1.703   1.887   0.503  1.7466 -0.9386  0.8768
 5131TIP3   OH237027   0.451   4.204   1.119  0.1500 -0.2693 -0.1965
 5131TIP3    H137028   0.478   4.173   1.033  1.6904  0.8831 -0.1761
 5131TIP3    H237029   0.490   4.292   1.126 -0.0188 -0.3010  1.6297
 5132TIP3   OH237030   1.330   2.452   7.862 -0.5749  0.3016  0.4085
 5132TIP3    H137031   1.259   2.511   7.838  0.3153  2.2934  2.3304
 5132TIP3    H237032   1.380   2.440   7.781 -2.4441 -0.3059 -0.7152
 5133TIP3   OH237033   2.704   1.944   6.682  0.1110 -0.5243  0.2985
 5133TIP3    H137034   2.767   1.960   6.751  0.1678 -0.3803  0.2143
 5133TIP3    H237035   2.622   1.926   6.728  0.2052 -0.6794  0.4064
 5134TIP3   OH237036   2.677   3.831   6.557  0.2492  0.2305  0.2684
 5134TIP3    H137037   2.762   3.875   6.554 -0.2098  1.1406  0.2830
 5134TIP3    H237038   2.692   3.746   6.516  1.6443 -0.4601  2.0552
 5135TIP3   OH237039   0.890   0.830   7.972  0.4680  0.0292 -0.1911
 5135TIP3    H137040   0.860   0.916   8.002  1.1352  0.0770  0.3686
 5135TIP3    H237041   0.825   0.769   8.005  1.2658  0.0581  1.5749
 5136TIP3   OH237042   4.272   4.134   2.335  0.3672 -0.1449  0.0378
 5136TIP3    H137043   4.231   4.064   2.386  1.0754 -0.2575  0.4705
 5136TIP3    H237044   4.335   4.173   2.395  0.8461  0.0643 -0.5937
 5137TIP3   OH237045   1.898   1.065   0.043 -0.1152 -0.6586 -0.2210
 5137TIP3    H137046   1.808   1.091   0.063 -0.1874  0.1961 -1.5838
 5137TIP3    H237047   1.907   1.078  -0.051  1.3847 -0.9103 -0.1381
 5138TIP3   OH237048   3.872   4.834   7.143 -0.1133  0.5033  0.4279
 5138TIP3    H137049   3.958   4.875   7.133  0.1517 -0.0270  0.4912
 5138TIP3    H237050   3.850   4.802   7.056  1.4996 -2.7452  1.0501
 5139TIP3   OH237051   2.711   0.150   0.129  0.2796  0.2420  0.2431
 5139TIP3    H137052   2.700   0.091   0.204  0.6954 -0.1269  0.0173
 5139TIP3    H237053   2.645   0.120   0.066 -0.0650  0.5473  0.4526
 5140TIP3   OH237054   4.961   4.893   8.438 -0.1723  0.4471  0.2455
 5140TIP3    H137055   5.031   4.844   8.395 -0.4274  0.6503 -0.4085
 5140TIP3    H237056   4.880   4.853   8.405 -0.3713  0.7423  0.3763
 5141TIP3   OH237057   1.703   5.807   2.133  0.0130 -0.4398  0.6200
 5141TIP3    H137058   1.648   5.769   2.065  1.8191 -3.1695  0.5370
 5141TIP3    H237059   1.791   5.808   2.096  0.2451  3.9490  0.6770
 5142TIP3   OH237060   2.821   4.424   0.373  0.7159 -0.7986 -0.5539
 5142TIP3    H137061   2.794   4.447   0.284  1.0399 -0.6408 -0.6138
 5142TIP3    H237062   2.916   4.421   0.369  0.7117 -1.3694 -0.3485
 5143TIP3   OH237063   2.939   5.781   0.487 -0.0180  0.4699 -0.5193
 5143TIP3    H137064   2.899   5.695   0.492 -2.8727  1.6828 -0.3884
 5143TIP3    H237065   3.001   5.775   0.414  0.7556 -1.9583  0.2485
 5144TIP3   OH237066   0.218   6.712   8.218 -0.5367  0.5494 -0.0611
 5144TIP3    H137067   0.235   6.620   8.237 -0.5281  0.1784 -1.6521
 5144TIP3    H237068   0.297   6.758   8.246 -0.5595  0.0889  0.7875
 5145TIP3   OH237069   6.037   1.036   7.127 -0.5159  0.8549  0.4407
 5145TIP3    H137070   6.078   0.997   7.204  0.3238 -0.2387 -0.5195
 5145TIP3    H237071   6.000   0.961   7.079 -0.6958  1.4694 -0.3989
 5146TIP3   OH237072   5.688   5.184   6.420  0.2147 -0.3288  0.0000
 5146TIP3    H137073   5.777   5.188   6.384  0.2584 -0.0960  0.1331
 5146TIP3    H237074   5.674   5.270   6.458 -0.7284  0.2514 -1.5825
 5147TIP3   OH237075   2.203   1.853   0.609 -0.2778 -0.3514 -0.2341
 5147TIP3    H137076   2.209   1.939   0.568 -1.0854 -0.1377  0.0795
 5147TIP3    H237077   2.142   1.805   0.553 -2.1884  0.2701  1.2297
 5148TIP3   OH237078   2.124   5.423   8.359  0.1634 -0.1217 -0.7093
 5148TIP3    H137079   2.195   5.360   8.346 -1.0755 -1.5870 -0.5678
 5148TIP3    H237080   2.064   5.380   8.419 -0.3021  1.5732  0.1251
 5149TIP3   OH237081   4.536   2.358   0.872 -0.3666  0.0241 -0.6536
 5149TIP3    H137082   4.478   2.432   0.892  0.3675  0.2216  0.8533
 5149TIP3    H237083   4.618   2.399   0.844  0.6550 -0.1373  1.9267
 5150TIP3   OH237084   1.975   2.649   7.703  0.4030 -0.0746 -0.4645
 5150TIP3    H137085   2.018   2.565   7.721 -0.8810 -0.5157  0.6549
 5150TIP3    H237086   1.984   2.699   7.784 -0.4012  0.1676 -0.5144
 5151TIP3   OH237087   5.010   4.629   6.417  0.0820 -0.0826  0.0647
 5151TIP3    H137088   5.089   4.576   6.421 -0.0739 -0.5036 -1.6455
 5151TIP3    H237089   5.042   4.720   6.418  0.6009 -0.2480 -0.6057
 5152TIP3   OH237090   3.294   6.836   7.021  0.0185 -1.1660 -0.6721
 5152TIP3    H137091   3.369   6.827   6.963 -0.6373 -0.7335 -1.6020
 5152TIP3    H237092   3.304   6.923   7.059 -0.1312 -1.0189 -0.9675
 5153TIP3   OH237093   4.148   3.377   2.586 -0.0386  0.2186 -0.0890
 5153TIP3    H137094   4.136   3.355   2.494 -0.2872 -1.6136  0.3491
 5153TIP3    H237095   4.059   3.375   2.623  0.1585 -0.0283  0.3808
 5154TIP3   OH237096   6.544   2.868   1.382  0.3908  0.1014  0.1441
 5154TIP3    H137097   6.474   2.877   1.317  0.0167 -0.4137  0.4736
 5154TIP3    H237098   6.526   2.935   1.447  0.5492  0.3645 -0.0785
 5155TIP3   OH237099   4.941   3.504   2.282  0.2128 -0.5873 -0.0581
 5155TIP3    H137100   4.941   3.546   2.368  0.8400  0.3308 -0.4857
 5155TIP3    H237101   4.856   3.528   2.244 -0.2696 -1.3948  0.4742
 5156TIP3   OH237102   2.587   0.436   1.063  0.0357  0.5118  0.2949
 5156TIP3    H137103   2.531   0.480   1.000  0.0659 -0.6565 -0.5688
 5156TIP3    H237104   2.549   0.349   1.074  1.8128 -0.4265 -0.5399
 5157TIP3   OH237105   5.941   5.364   0.577  0.2482 -0.2400  0.3735
 5157TIP3    H137106   6.030   5.397   0.584  0.4124  0.0957 -2.2427
 5157TIP3    H237107   5.902   5.414   0.505 -0.9351 -2.6858 -0.8033
 5158TIP3   OH237108   3.359   2.149   0.339 -0.4813  0.4388  0.2463
 5158TIP3    H137109   3.408   2.147   0.421 -0.4623 -1.6897  0.2544
 5158TIP3    H237110   3.427   2.153   0.271 -0.2891 -1.1364  0.2951
 5159TIP3   OH237111   2.889   6.653   1.578  0.1130 -0.3664  0.4785
 5159TIP3    H137112   2.945   6.725   1.551 -0.4838 -0.4420 -1.0658
 5159TIP3    H237113   2.834   6.635   1.502 -0.6638 -1.5796  1.2815
 5160TIP3   OH237114   1.816   2.698   0.195  0.5623  0.6585  0.1645
 5160TIP3    H137115   1.877   2.704   0.268 -0.9515 -1.3052  1.7218
 5160TIP3    H237116   1.781   2.609   0.200 -2.1238  1.5503 -0.8736
 5161TIP3   OH237117   4.439   3.752   7.521  0.5302  0.4413 -0.1042
 5161TIP3    H137118   4.518   3.738   7.574  0.9230 -1.3440 -1.0837
 5161TIP3    H237119   4.426   3.847   7.522 -0.1536  0.4653  4.0672
 5162TIP3   OH237120   0.322   2.295   8.324 -0.1085 -0.0435  0.4129
 5162TIP3    H137121   0.344   2.299   8.231 -1.9304  0.3934 -0.0396
 5162TIP3    H237122   0.404   2.272   8.367  0.9256  0.3882 -1.2336
 5163TIP3   OH237123   1.362   2.228   2.155  0.3614 -0.3266  0.3183
 5163TIP3    H137124   1.312   2.291   2.102  1.6090 -0.3086 -0.9080
 5163TIP3    H237125   1.299   2.159   2.176 -0.7491  0.7811  0.7597
 5164TIP3   OH237126   4.699   1.289   0.835  0.5870  0.1310 -0.5869
 5164TIP3    H137127   4.775   1.324   0.789  0.7703 -1.0299 -1.2209
 5164TIP3    H237128   4.734   1.252   0.916  0.3323  1.7246  0.3075
 5165TIP3   OH237129   6.680   6.401   1.221  0.6048 -0.2374 -0.0518
 5165TIP3    H137130   6.598   6.369   1.182 -0.1538  2.6260 -1.0739
 5165TIP3    H237131   6.745   6.335   1.198 -0.9669 -1.4441 -1.2729
 5166TIP3   OH237132   5.099   1.859   8.032 -0.0629 -0.2734  0.4893
 5166TIP3    H137133   5.075   1.781   7.983  0.1834  0.4631 -0.8406
 5166TIP3    H237134   5.021   1.879   8.085 -0.7381 -0.4543 -0.4255
 5167TIP3   OH237135   4.190   3.400   7.769  0.1886 -0.4019 -0.8267
 5167TIP3    H137136   4.224   3.486   7.745  2.1762 -1.2662 -1.3130
 5167TIP3    H237137   4.113   3.419   7.823  0.4683  1.6635 -1.0727
 5168TIP3   OH237138   3.507   4.431   6.671 -0.7314 -0.4994 -0.2808
 5168TIP3    H137139   3.551   4.474   6.745  0.4745  0.9878 -1.7918
 5168TIP3    H237140   3.541   4.341   6.672  0.6320  0.0031 -0.0845
 5169TIP3   OH237141   6.781   0.420   5.999  0.1248  0.3714 -0.8381
 5169TIP3    H137142   6.736   0.466   6.070  1.1945 -0.0059  0.1054
 5169TIP3    H237143   6.815   0.490   5.943 -0.8332  0.6679 -1.0750
 5170TIP3   OH237144   5.155   1.012   8.408 -0.0650 -0.1841  0.0609
 5170TIP3    H137145   5.079   1.012   8.466  0.1482 -1.0867  0.3504
 5170TIP3    H237146   5.118   1.026   8.321 -0.3816  1.2613  0.3958
 5171TIP3   OH237147   0.073   1.789   0.366  0.0492  0.3176  0.0423
 5171TIP3    H137148   0.091   1.872   0.411  1.8706 -0.1731  0.2907
 5171TIP3    H237149  -0.023   1.783   0.366 -0.0950  1.8407  1.0662
 5172TIP3   OH237150   0.130   3.405   1.394  0.0317  0.0087  0.0510
 5172TIP3    H137151   0.176   3.482   1.358 -0.7513  0.0103 -0.9990
 5172TIP3    H237152   0.044   3.438   1.417 -0.1461 -0.4487  0.0396
 5173TIP3   OH237153   3.120   3.020   7.389 -0.6777  0.0718  0.5111
 5173TIP3    H137154   3.165   3.017   7.474 -1.3288  0.5316  0.8863
 5173TIP3    H237155   3.190   3.037   7.326 -0.1633 -0.4362  0.9372
 5174TIP3   OH237156   5.774   2.698   6.870  0.5479  0.7663  0.5736
 5174TIP3    H137157   5.738   2.627   6.818  2.0208 -0.0851  0.6492
 5174TIP3    H237158   5.824   2.751   6.808 -0.7870  1.9397  0.4626
 5175TIP3   OH237159   4.876   0.453   7.290 -0.2153 -0.4849 -0.4324
 5175TIP3    H137160   4.784   0.466   7.267 -0.4618  0.2178  0.8505
 5175TIP3    H237161   4.908   0.541   7.309  0.6702 -0.7535 -0.6694
 5176TIP3   OH237162   2.042   3.962   6.326  0.2786  0.1581  0.5751
 5176TIP3    H137163   2.126   3.941   6.286  0.4444 -0.3896  1.2023
 5176TIP3    H237164   2.008   3.879   6.357  1.2983  0.8256  3.7904
 5177TIP3   OH237165   0.329   3.545   8.307  0.3168  0.3286  0.3132
 5177TIP3    H137166   0.408   3.569   8.355  1.5885 -1.5364 -0.7162
 5177TIP3    H237167   0.275   3.497   8.370  1.4542 -1.1078  0.2412
 5178TIP3   OH237168   2.126   6.988   8.443  0.2384 -0.5991  0.1825
 5178TIP3    H137169   2.130   6.934   8.364  0.6246 -0.1374 -0.1173
 5178TIP3    H237170   2.058   7.053   8.425 -0.5381 -1.2327  0.7137
 5179TIP3   OH237171   2.424   0.748   7.036 -0.5836 -0.6908 -0.3285
 5179TIP3    H137172   2.477   0.713   7.108 -0.0493  1.4082  0.3678
 5179TIP3    H237173   2.467   0.715   6.957  0.2075 -1.1375  0.2690
 5180TIP3   OH237174   0.896   0.632   0.720  0.2407  0.4459 -0.6530
 5180TIP3    H137175   0.988   0.624   0.696  1.2258 -0.0458  2.8587
 5180TIP3    H237176   0.894   0.704   0.783 -1.4046 -0.8785  0.8887
 5181TIP3   OH237177   6.590   2.070   0.984  0.4209 -0.2492  0.1019
 5181TIP3    H137178   6.579   2.091   1.076 -0.1236  0.3533 -0.0889
 5181TIP3    H237179   6.579   2.154   0.939  0.4653 -0.5707 -0.5212
 5182TIP3   OH237180   1.649   4.214   0.095 -0.3689 -0.4544  0.8093
 5182TIP3    H137181   1.743   4.198   0.098 -0.3323 -0.1747  1.1278
 5182TIP3    H237182   1.610   4.128   0.108 -0.1609 -0.5075  1.0942
 5183TIP3   OH237183   5.759   1.756   1.652 -0.2423  0.2050  0.2911
 5183TIP3    H137184   5.665   1.775   1.656 -0.0880  0.8755  1.0836
 5183TIP3    H237185   5.799   1.824   1.706  0.9611  1.4710 -2.0738
 5184TIP3   OH237186   4.468   4.377   0.973 -0.1212  0.2755 -0.4566
 5184TIP3    H137187   4.489   4.284   0.986  0.7700  0.2728 -1.6661
 5184TIP3    H237188   4.425   4.404   1.054 -0.1135 -1.1148  0.0372
 5185TIP3   OH237189   1.539   6.097   7.430 -0.0051 -0.0886 -0.0084
 5185TIP3    H137190   1.590   6.024   7.396  0.6181  0.4629 -0.2742
 5185TIP3    H237191   1.539   6.161   7.360 -0.4387  0.2240  0.2708
 5186TIP3   OH237192   4.379   5.501   1.077 -0.4651 -0.3038  0.7288
 5186TIP3    H137193   4.398   5.595   1.077 -1.3661 -0.1120  0.4477
 5186TIP3    H237194   4.391   5.474   0.986 -0.3992 -0.4228  0.7726
 5187TIP3   OH237195   3.856   5.180   6.405  0.0107  0.5166  0.4291
 5187TIP3    H137196   3.877   5.268   6.374 -0.9747  1.1844  1.5447
 5187TIP3    H237197   3.928   5.156   6.463 -0.2948  1.1009  1.0606
 5188TIP3   OH237198   4.589   6.243   0.520  0.2181 -0.2810  0.5208
 5188TIP3    H137199   4.620   6.153   0.530  1.9950  0.0413 -1.3925
 5188TIP3    H237200   4.668   6.293   0.498 -1.2296  1.1362 -1.7697
 5189TIP3   OH237201   1.667   6.516   6.914 -0.4965  0.1894 -0.3296
 5189TIP3    H137202   1.696   6.425   6.906 -0.4702 -0.0239  1.6197
 5189TIP3    H237203   1.667   6.549   6.825  2.1171 -0.9126 -0.8285
 5190TIP3   OH237204   3.058   5.797   1.211 -0.9654 -0.1935 -1.1160
 5190TIP3    H137205   3.005   5.877   1.210  1.7223  1.8038  0.4603
 5190TIP3    H237206   3.135   5.819   1.159  1.4664 -0.3730  2.1398
 5191TIP3   OH237207   3.223   6.926   7.338  0.1666 -0.1269  0.0415
 5191TIP3    H137208   3.300   6.889   7.295  0.8325  0.0480  1.0569
 5191TIP3    H237209   3.255   7.007   7.379 -0.2693 -0.6671  1.4965
 5192TIP3   OH237210   2.119   1.539   1.755  0.1787 -0.0259 -0.1513
 5192TIP3    H137211   2.210   1.515   1.737  0.1344 -0.7318  0.5009
 5192TIP3    H237212   2.077   1.456   1.779 -0.2710  0.5242  1.0262
 5193TIP3   OH237213   1.898   3.982   8.002 -0.2747  0.9495 -0.3394
 5193TIP3    H137214   1.887   4.073   7.974 -1.0380  0.7046 -0.8882
 5193TIP3    H237215   1.992   3.970   8.008 -0.1094  1.3803 -1.6619
 5194TIP3   OH237216   0.348   6.845   0.940 -0.7779 -0.3745  0.0681
 5194TIP3    H137217   0.409   6.890   0.883 -0.2439 -1.3238 -0.1342
 5194TIP3    H237218   0.402   6.786   0.992 -1.6004 -2.3374 -1.1406
 5195TIP3   OH237219   4.338   5.257   1.762  0.2712 -0.0625  0.3355
 5195TIP3    H137220   4.279   5.330   1.780  1.8447  1.5492 -0.6539
 5195TIP3    H237221   4.285   5.192   1.718 -1.1055  0.6165  0.9380
 5196TIP3   OH237222   5.432   4.800   1.751 -0.0247 -0.3237 -0.2942
 5196TIP3    H137223   5.471   4.881   1.720  1.8460 -1.1847 -0.3305
 5196TIP3    H237224   5.389   4.763   1.674 -0.3505  0.3206 -0.4245
 5197TIP3   OH237225   5.716   0.915   7.956 -0.7208 -0.4775  0.5315
 5197TIP3    H137226   5.696   0.895   8.048 -0.7281 -1.5617  0.3149
 5197TIP3    H237227   5.720   0.829   7.914  2.9979 -0.3661  0.2673
 5198TIP3   OH237228   5.977   2.249   2.328 -0.2552 -0.0167 -0.2162
 5198TIP3    H137229   6.051   2.304   2.300  0.0354  0.2487  0.9935
 5198TIP3    H237230   5.942   2.294   2.405 -0.6055 -1.0406  0.2435
 5199TIP3   OH237231   3.192   3.488   0.893 -0.2765 -0.6351 -0.1278
 5199TIP3    H137232   3.103   3.516   0.910 -0.7858 -1.4991 -1.2539
 5199TIP3    H237233   3.235   3.489   0.979 -1.0917  0.6716  0.2820
 5200TIP3   OH237234   2.909   4.345   7.605 -0.0744  0.3142  0.6562
 5200TIP3    H137235   2.895   4.251   7.595  0.6243  0.2546  0.1124
 5200TIP3    H237236   2.998   4.359   7.571  0.4122  0.9414  2.0843
 5201TIP3   OH237237   1.802   6.875   1.194  0.0246 -0.2432  0.1550
 5201TIP3    H137238   1.887   6.877   1.238  0.9649 -0.1313 -1.5846
 5201TIP3    H237239   1.823   6.880   1.101 -1.9157  0.1637 -0.3044
 5202TIP3   OH237240   5.167   2.517   8.086 -0.2602  0.3224 -0.0747
 5202TIP3    H137241   5.146   2.602   8.046 -2.3895 -0.4403 -0.7069
 5202TIP3    H237242   5.083   2.480   8.110  0.7473 -0.8615  1.8739
 5203TIP3   OH237243   6.253   3.330   8.458 -0.3015 -0.4235  0.3792
 5203TIP3    H137244   6.195   3.400   8.431  0.4936  1.0015  2.1524
 5203TIP3    H237245   6.341   3.360   8.433  0.0921 -0.5816  1.5027
 5204TIP3   OH237246   6.721   3.063   7.091  0.1721 -0.2326 -0.1064
 5204TIP3    H137247   6.770   3.134   7.050  0.6453 -0.1771  0.5492
 5204TIP3    H237248   6.782   3.024   7.153 -1.2619  1.2625  2.4158
 5205TIP3   OH237249   6.236   0.643   7.988  0.0119 -0.1144 -0.4060
 5205TIP3    H137250   6.174   0.684   8.049 -1.5001 -1.9659 -0.5943
 5205TIP3    H237251   6.236   0.550   8.012 -0.0552 -0.7782 -2.6800
 5206TIP3   OH237252   3.447   1.347   8.142 -0.0886  0.4116  0.6615
 5206TIP3    H137253   3.394   1.292   8.085 -0.0430  1.6465 -0.6306
 5206TIP3    H237254   3.384   1.387   8.202 -0.6414  1.6896 -0.7143
 5207TIP3   OH237255   1.804   0.951   7.213  0.1852  0.1335 -0.1563
 5207TIP3    H137256   1.859   1.001   7.153 -1.5651 -0.7492 -2.6520
 5207TIP3    H237257   1.831   0.860   7.201  1.1913  0.0804  2.0044
 5208TIP3   OH237258   2.975   0.634   0.963 -0.8159 -0.1517 -0.4967
 5208TIP3    H137259   2.919   0.587   0.902  0.6645  0.0265 -2.0864
 5208TIP3    H237260   3.040   0.677   0.907  2.0998 -1.9000  1.2801
 5209TIP3   OH237261   0.537   3.452   1.241 -0.3793 -0.1129  0.2545
 5209TIP3    H137262   0.500   3.405   1.316 -2.4706  1.8154  0.5381
 5209TIP3    H237263   0.539   3.544   1.269 -1.7497  0.7554 -2.1824
 5210TIP3   OH237264   1.216   4.794   8.165 -0.6629 -0.4100  0.0682
 5210TIP3    H137265   1.214   4.699   8.152  1.0252 -0.5742  0.7496
 5210TIP3    H237266   1.309   4.816   8.168 -1.0174  1.1600  0.7011
 5211TIP3   OH237267   2.395   1.810   0.031  0.1302  0.3298  0.2103
 5211TIP3    H137268   2.461   1.762   0.081  0.4182 -0.6038 -1.0079
 5211TIP3    H237269   2.443   1.850  -0.041 -0.5354  0.1153 -0.3700
 5212TIP3   OH237270   5.932   0.477   1.189 -0.2108 -0.0760 -0.4756
 5212TIP3    H137271   6.006   0.510   1.240  0.2021  0.3012 -1.2957
 5212TIP3    H237272   5.868   0.547   1.191 -1.0566 -0.8480  1.2030
 5213TIP3   OH237273   2.583   1.884   1.107  0.2982  0.3910 -1.0133
 5213TIP3    H137274   2.498   1.845   1.129  1.2855 -1.3602 -0.0714
 5213TIP3    H237275   2.571   1.978   1.122 -1.2137  0.0689 -0.0135
 5214TIP3   OH237276   4.487   4.192   6.540  0.0106  0.2417 -0.5428
 5214TIP3    H137277   4.404   4.153   6.510 -0.6361  1.5402 -0.5053
 5214TIP3    H237278   4.509   4.144   6.620  0.1808 -1.2373 -1.4412
 5215TIP3   OH237279   4.936   1.112   0.048  0.2302  0.8782  0.8454
 5215TIP3    H137280   4.879   1.180   0.083 -0.2762  0.3437  1.0790
 5215TIP3    H237281   4.902   1.031   0.086  0.9638  0.5192  0.7537
 5216TIP3   OH237282   1.251   0.702   0.092 -0.0143  0.1323 -0.1840
 5216TIP3    H137283   1.287   0.616   0.073  0.5483  0.3915 -0.3010
 5216TIP3    H237284   1.284   0.723   0.180 -0.0661  0.2723 -0.1973
 5217TIP3   OH237285   4.545   6.923   6.802  0.3050 -0.5033 -0.2630
 5217TIP3    H137286   4.604   6.994   6.826 -0.2655 -0.6888  1.9474
 5217TIP3    H237287   4.459   6.965   6.794  0.3221 -0.6128 -1.1659
 5218TIP3   OH237288   3.634   4.551   6.909 -0.5428  0.0259  0.4290
 5218TIP3    H137289   3.720   4.593   6.900 -0.2771 -0.1069  2.0456
 5218TIP3    H237290   3.576   4.622   6.937 -0.9439  0.0847 -0.5178
 5219TIP3   OH237291   0.369   4.767   8.058 -0.3419  0.6020 -0.3298
 5219TIP3    H137292   0.457   4.805   8.061 -1.0282  2.4182 -1.4155
 5219TIP3    H237293   0.321   4.811   8.128 -0.0569 -1.4769  1.2756
 5220TIP3   OH237294   6.548   2.418   8.315  0.3256 -0.1292  0.4117
 5220TIP3    H137295   6.603   2.383   8.385  0.3830  0.8662  0.8693
 5220TIP3    H237296   6.584   2.504   8.296  0.0141 -0.1890 -0.5233
 5221TIP3   OH237297   1.648   3.120   8.395  0.1632 -0.0974  0.1806
 5221TIP3    H137298   1.591   3.168   8.335 -0.8075 -1.1263  0.2405
 5221TIP3    H237299   1.731   3.168   8.393 -0.4272  0.9403 -0.5685
 5222TIP3   OH237300   6.979   5.082   7.718  0.9390 -0.3494  0.0002
 5222TIP3    H137301   7.019   5.054   7.636  1.5931 -0.8250  0.4683
 5222TIP3    H237302   7.005   5.174   7.727  0.2443 -0.0733 -0.6770
 5223TIP3   OH237303   3.466   5.597   2.258  0.2170  0.9136 -0.3166
 5223TIP3    H137304   3.459   5.669   2.320 -1.0623 -1.9064  3.1146
 5223TIP3    H237305   3.548   5.553   2.282  0.0822  0.1896 -1.1460
 5224TIP3   OH237306   3.316   2.454   0.331  0.1769  0.1142  0.5923
 5224TIP3    H137307   3.248   2.489   0.274 -0.2512  0.7936  1.4901
 5224TIP3    H237308   3.303   2.359   0.329 -1.1775  0.2626  1.1841
 5225TIP3   OH237309   5.013   1.378   6.726  0.2879 -0.2271 -0.4343
 5225TIP3    H137310   5.059   1.296   6.709  0.5965  0.1130 -1.2742
 5225TIP3    H237311   4.926   1.351   6.758  0.7557 -0.8696  0.3156
 5226TIP3   OH237312   3.111   3.913   2.492  0.4162 -0.2658  0.3686
 5226TIP3    H137313   3.142   3.945   2.577  0.1547 -0.3096  0.4814
 5226TIP3    H237314   3.039   3.853   2.514  0.9405 -0.9870  0.1718
 5227TIP3   OH237315   3.198   0.752   8.449 -0.0174  0.0992 -0.2477
 5227TIP3    H137316   3.211   0.709   8.534  1.1502 -1.4121 -1.1440
 5227TIP3    H237317   3.276   0.805   8.437 -0.7438  1.3012  0.1412
 5228TIP3   OH237318   4.657   6.055   1.527  0.0216 -0.3176 -0.4840
 5228TIP3    H137319   4.654   6.121   1.457  0.7712 -0.1443 -0.3576
 5228TIP3    H237320   4.590   6.084   1.589  2.2252  2.0122  1.0175
 5229TIP3   OH237321   0.166   3.006   7.471 -0.2696  0.3222 -0.1820
 5229TIP3    H137322   0.109   3.057   7.528 -0.1234  0.7227 -0.3895
 5229TIP3    H237323   0.227   2.962   7.531 -0.3296  0.4741 -0.0103
 5230TIP3   OH237324   5.589   5.377   7.115 -0.2514 -0.0437 -0.3950
 5230TIP3    H137325   5.626   5.360   7.028 -0.2085 -0.7810 -0.2359
 5230TIP3    H237326   5.505   5.420   7.097 -0.0678  0.1524 -0.7899
 5231TIP3   OH237327   5.856   2.779   0.878  0.1684 -0.1846 -0.1579
 5231TIP3    H137328   5.791   2.767   0.809  1.2560  0.8775 -1.4328
 5231TIP3    H237329   5.851   2.699   0.930 -0.2706 -1.2878 -1.8171
 5232TIP3   OH237330   0.854   1.846   6.469  0.2824 -0.2424 -0.2745
 5232TIP3    H137331   0.767   1.806   6.468 -0.6648  1.6853 -1.2573
 5232TIP3    H237332   0.914   1.774   6.485 -1.5311 -1.5674  0.9098
 5233TIP3   OH237333   6.444   2.765   8.009 -0.0330  0.3246 -0.3385
 5233TIP3    H137334   6.516   2.802   8.061  0.4983  0.4350 -1.1411
 5233TIP3    H237335   6.441   2.819   7.930  0.1641 -0.7815 -1.1221
 5234TIP3   OH237336   6.772   0.755   0.792 -0.6008 -0.2126 -0.4426
 5234TIP3    H137337   6.779   0.849   0.777 -0.6951 -0.3694 -1.5305
 5234TIP3    H237338   6.728   0.721   0.714 -2.7338 -0.8409  0.9305
 5235TIP3   OH237339   2.132   3.250   7.201  0.3946 -0.5454  0.3008
 5235TIP3    H137340   2.143   3.298   7.120  1.6129 -2.3911 -0.6938
 5235TIP3    H237341   2.037   3.238   7.209  0.0853  1.6746  0.4369
 5236TIP3   OH237342   3.525   2.185   8.326 -0.5179  0.1547  0.3002
 5236TIP3    H137343   3.566   2.149   8.247  0.1508  0.1985  0.6209
 5236TIP3    H237344   3.473   2.259   8.294 -0.1366  0.2610 -0.0914
 5237TIP3   OH237345   1.030   0.426   7.544  0.2437  0.6861 -0.2922
 5237TIP3    H137346   0.999   0.383   7.624 -2.0955 -2.2258 -2.5550
 5237TIP3    H237347   1.097   0.367   7.509 -1.7413 -0.3476 -2.5502
 5238TIP3   OH237348   0.509   0.197   7.679  0.5135  0.8321 -0.5427
 5238TIP3    H137349   0.453   0.267   7.644  0.0723  1.2597  0.9486
 5238TIP3    H237350   0.491   0.122   7.623  0.7879  1.8162 -2.0142
 5239TIP3   OH237351   5.508   5.812   8.398  0.4816 -0.1895  0.3048
 5239TIP3    H137352   5.477   5.877   8.460 -0.0025  0.2023 -0.3361
 5239TIP3    H237353   5.586   5.774   8.439  0.5327  0.5099  0.8565
 5240TIP3   OH237354   2.848   0.655   7.932 -0.0046 -0.2276 -0.6251
 5240TIP3    H137355   2.791   0.732   7.935 -1.1759 -1.1059  0.3953
 5240TIP3    H237356   2.812   0.595   7.997  1.1155 -1.5015 -1.1253
 5241TIP3   OH237357   2.800   5.421   2.041  0.4007 -0.9470  0.3155
 5241TIP3    H137358   2.727   5.368   2.072 -0.8304  0.8169  0.5824
 5241TIP3    H237359   2.830   5.469   2.119 -1.1283  1.6842 -0.5860
 5242TIP3   OH237360   5.177   0.087   7.196  0.0710 -0.0919 -0.3125
 5242TIP3    H137361   5.183   0.004   7.242  0.4672  0.8142  1.3623
 5242TIP3    H237362   5.099   0.129   7.232  0.0941  0.4284 -0.8472
 5243TIP3   OH237363   4.292   5.471   0.048 -0.5590  0.1632  0.0938
 5243TIP3    H137364   4.307   5.565   0.057  2.0510 -0.2077  0.3685
 5243TIP3    H237365   4.270   5.440   0.136  0.6730  0.2240  0.4353
 5244TIP3   OH237366   3.442   3.988   8.405 -0.5400 -0.3390  0.0332
 5244TIP3    H137367   3.452   3.951   8.317  1.4356  3.0412 -1.3539
 5244TIP3    H237368   3.515   3.950   8.454 -0.9778 -1.3762 -0.0867
 5245TIP3   OH237369   2.673   1.471   0.561  0.2024  0.5057  0.8304
 5245TIP3    H137370   2.613   1.428   0.622 -1.7303  1.3600 -0.3589
 5245TIP3    H237371   2.619   1.536   0.516  1.8652  0.8425 -0.8281
 5246TIP3   OH237372   1.456   6.417   0.851  0.0957  0.2003  0.4415
 5246TIP3    H137373   1.379   6.365   0.871 -0.4068  0.5342 -0.5610
 5246TIP3    H237374   1.529   6.370   0.892 -0.4770 -0.7373  0.3947
 5247TIP3   OH237375   4.263   4.446   7.095  0.2501 -0.1476  0.5258
 5247TIP3    H137376   4.282   4.357   7.065  1.9450 -0.3398  1.9877
 5247TIP3    H237377   4.321   4.502   7.042  2.3643 -0.3770  2.4585
 5248TIP3   OH237378   4.647   0.748   1.948 -0.3347  0.4084  0.1443
 5248TIP3    H137379   4.572   0.693   1.970 -0.3663  0.6138  0.5719
 5248TIP3    H237380   4.677   0.716   1.863 -2.3647  1.8586 -1.2191
 5249TIP3   OH237381   5.521   6.311   7.354  0.5602 -0.1934  0.2297
 5249TIP3    H137382   5.531   6.228   7.400 -0.2907 -0.2492  0.3305
 5249TIP3    H237383   5.560   6.297   7.268  1.0851 -0.4602  0.5070
 5250TIP3   OH237384   0.200   6.949   7.752  0.2949 -0.1487 -0.1267
 5250TIP3    H137385   0.247   6.911   7.827 -0.6203 -0.5766  0.2481
 5250TIP3    H237386   0.203   6.881   7.685 -1.5807 -1.0443  0.6409
 5251TIP3   OH237387   5.177   3.532   8.308 -0.2457  0.2286  0.1357
 5251TIP3    H137388   5.256   3.478   8.307 -0.4609 -0.2435  2.3534
 5251TIP3    H237389   5.117   3.485   8.366 -1.7505  1.1521 -0.5992
 5252TIP3   OH237390   3.040   3.978   0.495 -0.2135  0.1554 -0.8011
 5252TIP3    H137391   2.962   4.034   0.502  0.0093  0.4708 -0.8020
 5252TIP3    H237392   3.113   4.038   0.512  0.0612 -0.0286 -1.3253
 5253TIP3   OH237393   0.762   3.498   7.136  0.2893  0.6849  0.2759
 5253TIP3    H137394   0.852   3.510   7.167  0.5192 -1.6865  0.7304
 5253TIP3    H237395   0.709   3.500   7.216 -0.2125  2.8439 -0.0586
 5254TIP3   OH237396   2.158   5.511   7.465 -0.1570  0.7454  0.6881
 5254TIP3    H137397   2.083   5.477   7.415  0.2696  0.8347 -0.0323
 5254TIP3    H237398   2.230   5.514   7.401  0.0369  2.2011  0.9366
 5255TIP3   OH237399   3.896   4.657   7.881 -0.0464  0.1809  0.3580
 5255TIP3    H137400   3.917   4.623   7.968 -0.8023 -1.7081 -0.1536
 5255TIP3    H237401   3.966   4.720   7.863  1.5357 -1.2094  1.3269
 5256TIP3   OH237402   5.957   1.729   6.115  0.6543 -0.1237  0.4512
 5256TIP3    H137403   5.975   1.639   6.143 -1.4841 -0.1241  2.1624
 5256TIP3    H237404   6.040   1.775   6.125  0.8122 -0.8534  4.3381
 5257TIP3   OH237405   6.895   4.211   1.445 -0.0867  0.3838 -0.7685
 5257TIP3    H137406   6.869   4.238   1.357  0.3484  1.1559 -0.6713
 5257TIP3    H237407   6.902   4.293   1.494 -0.6803 -0.0697  0.0863
 5258TIP3   OH237408   5.089   5.829   8.262  0.5697  0.1071 -0.0302
 5258TIP3    H137409   4.996   5.844   8.279  0.3141 -0.7143 -0.6847
 5258TIP3    H237410   5.092   5.792   8.174  1.7643  3.1131 -1.4004
 5259TIP3   OH237411   4.642   1.573   0.046 -0.0356 -0.2299  0.0208
 5259TIP3    H137412   4.552   1.565   0.080 -1.4261 -0.1167 -3.2943
 5259TIP3    H237413   4.686   1.494   0.077 -1.6497 -0.9241  0.6531
 5260TIP3   OH237414   1.055   1.361   1.648  0.2041  0.3013  0.6071
 5260TIP3    H137415   1.140   1.362   1.694 -0.3552 -1.1492  1.7780
 5260TIP3    H237416   1.076   1.336   1.559  1.0513  0.3488  0.7853
 5261TIP3   OH237417   5.115   0.872   7.518  0.1996  0.5387 -0.1187
 5261TIP3    H137418   5.175   0.875   7.592 -3.8353  0.7573  3.5035
 5261TIP3    H237419   5.085   0.963   7.508 -1.5428  0.0061  0.0469
 5262TIP3   OH237420   6.525   3.031   1.582 -0.0726 -0.7067  0.0262
 5262TIP3    H137421   6.474   2.978   1.643  0.8700 -0.4710  1.0424
 5262TIP3    H237422   6.592   3.073   1.636 -1.6364  2.7259 -0.4526
 5263TIP3   OH237423   3.840   3.938   1.019 -0.1264 -0.3806  0.0008
 5263TIP3    H137424   3.876   3.864   0.971 -0.8912 -0.7911  0.0354
 5263TIP3    H237425   3.746   3.919   1.024 -0.1185 -0.1805  1.3457
 5264TIP3   OH237426   4.312   3.684   1.323  0.2718 -0.0676 -0.0444
 5264TIP3    H137427   4.239   3.742   1.299  0.6280  0.5004  0.2203
 5264TIP3    H237428   4.329   3.633   1.244 -0.3048 -0.0926 -0.1609
 5265TIP3   OH237429   6.274   6.057   6.451  0.4793 -0.3730  0.7299
 5265TIP3    H137430   6.320   6.094   6.527  1.6099 -0.7346  0.2493
 5265TIP3    H237431   6.343   6.045   6.386 -0.4407 -0.2642 -0.2807
 5266TIP3   OH237432   1.530   5.484   8.146  0.1131  0.5436  0.5120
 5266TIP3    H137433   1.485   5.472   8.063 -1.3945 -0.2920  1.4113
 5266TIP3    H237434   1.618   5.449   8.132  0.5051  2.0503 -1.2288
 5267TIP3   OH237435   4.405   1.099   7.579 -0.2408  0.0677 -0.3786
 5267TIP3    H137436   4.338   1.031   7.576 -1.5019  1.0020  2.6032
 5267TIP3    H237437   4.401   1.142   7.493 -2.5105 -0.7753 -0.7519
 5268TIP3   OH237438   3.182   5.434   7.875 -0.0976  0.0727 -0.4777
 5268TIP3    H137439   3.215   5.344   7.876 -0.2999 -0.0077  0.5706
 5268TIP3    H237440   3.124   5.438   7.799  1.7541  0.0213 -1.9660
 5269TIP3   OH237441   6.240   6.793   6.963 -0.2582 -0.0180 -0.4636
 5269TIP3    H137442   6.323   6.820   7.004  0.3083 -1.9329 -0.2344
 5269TIP3    H237443   6.236   6.698   6.979 -1.7154 -0.2245 -1.8841
 5270TIP3   OH237444   2.980   5.092   6.571 -0.4537 -0.3711  0.2303
 5270TIP3    H137445   3.072   5.083   6.547 -0.2012  1.3399  0.4189
 5270TIP3    H237446   2.949   5.002   6.580  0.9644 -0.9962 -0.6808
 5271TIP3   OH237447   3.768   4.050   2.342 -0.1745 -0.6550 -0.1854
 5271TIP3    H137448   3.712   3.973   2.330 -0.9027  0.1364 -2.3582
 5271TIP3    H237449   3.814   4.034   2.424 -1.7747 -2.4781  0.4230
 5272TIP3   OH237450   1.903   4.254   0.618  0.4730  0.7360  0.2767
 5272TIP3    H137451   1.998   4.263   0.623  0.6229  0.1811 -1.3133
 5272TIP3    H237452   1.881   4.275   0.528 -0.5066 -2.5465 -0.3672
 5273TIP3   OH237453   0.023   2.772   1.192 -0.5865  0.5175  0.5481
 5273TIP3    H137454  -0.065   2.735   1.187  0.5562 -2.4744  0.2767
 5273TIP3    H237455   0.022   2.826   1.271 -2.5852  0.3498  0.6834
 5274TIP3   OH237456   6.651   1.891   1.968  0.0040  0.2067 -0.2475
 5274TIP3    H137457   6.742   1.916   1.980 -0.2048  0.1873  1.6139
 5274TIP3    H237458   6.633   1.831   2.040 -1.8977  1.4014  0.3420
 5275TIP3   OH237459   1.750   1.111   0.401  0.1214 -0.3816  0.0337
 5275TIP3    H137460   1.808   1.187   0.395  0.4266 -0.4418  1.7483
 5275TIP3    H237461   1.788   1.056   0.468 -0.0686 -2.1347 -1.2283
 5276TIP3   OH237462   6.058   0.329   0.645 -0.2270  0.4330 -0.5772
 5276TIP3    H137463   5.979   0.280   0.667  0.4595 -2.4878 -3.6922
 5276TIP3    H237464   6.119   0.310   0.716 -1.1123 -0.4718 -0.0440
 5277TIP3   OH237465   5.046   3.314   0.365  0.3787  0.1038  0.0742
 5277TIP3    H137466   5.010   3.374   0.300 -1.7390  0.2060  1.2520
 5277TIP3    H237467   5.072   3.237   0.315  0.9221  1.0507 -1.1584
 5278TIP3   OH237468   1.520   6.559   1.467  0.0071 -0.1185 -0.2347
 5278TIP3    H137469   1.536   6.618   1.394  0.8075 -0.1022 -0.0555
 5278TIP3    H237470   1.446   6.598   1.514  0.0327  0.3224 -0.5551
 5279TIP3   OH237471   4.881   2.140   8.154  0.5719  0.2891  0.1100
 5279TIP3    H137472   4.941   2.164   8.083 -0.2010 -0.0817 -0.6835
 5279TIP3    H237473   4.795   2.140   8.113  0.1264 -0.0514  1.0323
 5280TIP3   OH237474   1.318   3.884   7.451 -0.4549 -0.3042 -0.1949
 5280TIP3    H137475   1.306   3.945   7.524  0.1305 -0.6336  0.1730
 5280TIP3    H237476   1.412   3.865   7.450 -0.4182 -0.1467 -1.1574
 5281TIP3   OH237477   6.769   4.316   8.333 -0.0012  0.4493  0.1983
 5281TIP3    H137478   6.705   4.244   8.328 -0.0093  0.5148 -0.7318
 5281TIP3    H237479   6.726   4.382   8.388  0.1781 -0.4086  1.4314
 5282TIP3   OH237480   5.659   4.783   8.048 -0.6360 -0.1010  0.4660
 5282TIP3    H137481   5.590   4.718   8.039 -1.0889  0.4405 -0.0976
 5282TIP3    H237482   5.734   4.735   8.082 -0.8445 -0.9980 -0.3074
 5283TIP3   OH237483   3.747   1.932   8.451  0.2037 -0.1249 -0.0435
 5283TIP3    H137484   3.664   1.890   8.477  0.9864 -0.6256  1.8456
 5283TIP3    H237485   3.810   1.860   8.451  0.8484  0.4357 -0.4650
 5284TIP3   OH237486   2.799   0.972   7.999 -0.0547  0.0687 -0.1155
 5284TIP3    H137487   2.878   1.012   7.963 -0.2714 -0.1443 -0.8440
 5284TIP3    H237488   2.739   0.965   7.925  0.0300 -1.7602 -0.0776
 5285TIP3   OH237489   4.547   6.644   6.834  0.0873  0.0824  0.1403
 5285TIP3    H137490   4.631   6.661   6.790  0.3372  0.3127  0.7043
 5285TIP3    H237491   4.483   6.692   6.781  0.5428  1.3375  0.6885
 5286TIP3   OH237492   2.909   4.073   8.127 -0.4461 -0.1838  0.4628
 5286TIP3    H137493   2.882   4.147   8.073  3.3093  0.9452 -0.1485
 5286TIP3    H237494   2.947   4.113   8.205  1.6794 -1.3773  0.1186
 5287TIP3   OH237495   4.109   6.203   0.240 -0.1374  0.0215  0.1857
 5287TIP3    H137496   4.061   6.138   0.291  1.7334 -1.5477  0.0391
 5287TIP3    H237497   4.142   6.155   0.164  0.0698  1.5018 -0.7033
 5288TIP3   OH237498   1.135   5.426   1.883  0.3637  0.3545  0.5286
 5288TIP3    H137499   1.088   5.405   1.963 -0.3616  0.4005  0.1254
 5288TIP3    H237500   1.149   5.341   1.840  0.8197  0.3213  0.7313
 5289TIP3   OH237501   0.183   3.330   6.868  0.1964 -0.2662 -0.0123
 5289TIP3    H137502   0.152   3.266   6.803 -0.2752  0.5636 -0.6282
 5289TIP3    H237503   0.104   3.358   6.913  0.4498 -0.3880  0.5071
 5290TIP3   OH237504   4.222   6.802   1.700 -0.4391  0.6991 -0.0423
 5290TIP3    H137505   4.223   6.713   1.736 -0.9912  1.3057  1.5308
 5290TIP3    H237506   4.313   6.820   1.678 -0.0689  0.3268  1.1294
 5291TIP3   OH237507   1.538   3.225   8.165 -0.7646  0.0501  0.2173
 5291TIP3    H137508   1.509   3.293   8.105  0.7242  0.9975  0.5185
 5291TIP3    H237509   1.566   3.153   8.108  1.5777  1.3152 -0.3500
 5292TIP3   OH237510   1.489   2.156   1.382 -0.2389  1.0738  0.5281
 5292TIP3    H137511   1.413   2.123   1.334  1.2710 -0.1590 -1.1102
 5292TIP3    H237512   1.475   2.125   1.472 -1.2018  0.0507  0.0496
 5293TIP3   OH237513   4.504   0.101   1.356  0.0122  0.2053  0.0160
 5293TIP3    H137514   4.427   0.130   1.306  1.1807  0.7546 -1.5371
 5293TIP3    H237515   4.498   0.005   1.353 -1.7434  0.2026  1.7944
 5294TIP3   OH237516   6.813   6.276   2.170  0.6171 -0.6197 -0.1706
 5294TIP3    H137517   6.828   6.368   2.148  1.1999 -0.1241  2.0610
 5294TIP3    H237518   6.723   6.273   2.201  0.4579 -0.9103 -0.6473
 5295TIP3   OH237519   1.424   2.159   7.580 -0.0513  0.0223 -0.0237
 5295TIP3    H137520   1.469   2.144   7.497  1.9229 -1.5162  1.2072
 5295TIP3    H237521   1.434   2.253   7.596 -1.6271  0.6018 -2.0862
 5296TIP3   OH237522   1.592   0.255   1.596  0.4695  0.0712  0.1457
 5296TIP3    H137523   1.500   0.229   1.591  0.5507 -0.1912 -0.0522
 5296TIP3    H237524   1.592   0.335   1.648 -0.0712  1.0268 -1.2634
 5297TIP3   OH237525   2.089   0.754   7.236  0.1221  0.3161  0.1701
 5297TIP3    H137526   2.069   0.733   7.145 -2.4162 -0.5097  0.8236
 5297TIP3    H237527   2.149   0.828   7.232  0.7063 -0.2129 -2.1571
 5298TIP3   OH237528   1.706   0.149   7.779 -0.1405  0.1872 -0.0406
 5298TIP3    H137529   1.757   0.071   7.757 -0.6065 -0.4495  1.0886
 5298TIP3    H237530   1.770   0.220   7.780  0.3671 -0.2547 -0.6092
 5299TIP3   OH237531   0.650   3.780   6.869  0.0640 -0.2562  0.1920
 5299TIP3    H137532   0.637   3.834   6.791  2.0946 -2.4747 -1.8616
 5299TIP3    H237533   0.730   3.814   6.909 -0.5817  0.4188  0.9513
 5300TIP3   OH237534   3.138   4.739   1.663  0.6153  0.0047  0.4545
 5300TIP3    H137535   3.119   4.654   1.624 -1.3838 -0.3956  2.0875
 5300TIP3    H237536   3.209   4.775   1.611 -0.8731 -1.0896 -2.5446
 5301TIP3   OH237537   6.648   6.917   8.437  0.2242  0.6416 -0.0903
 5301TIP3    H137538   6.721   6.877   8.485 -0.0187 -0.5896 -0.7062
 5301TIP3    H237539   6.586   6.846   8.425 -0.4810  1.3543 -0.7564
 5302TIP3   OH237540   4.168   0.906   1.972  0.2042  0.2180  0.0532
 5302TIP3    H137541   4.255   0.941   1.993 -0.0435  1.2490 -0.5539
 5302TIP3    H237542   4.166   0.821   2.014  1.5021  0.1878  0.1060
 5303TIP3   OH237543   5.466   2.788   1.259  0.2960 -0.3930  0.5278
 5303TIP3    H137544   5.553   2.749   1.270  1.5338  1.5476 -1.5191
 5303TIP3    H237545   5.462   2.810   1.166 -1.2185  2.2182  1.1278
 5304TIP3   OH237546   3.877   1.904   2.274 -0.2524 -0.0264 -0.3214
 5304TIP3    H137547   3.872   1.856   2.356  2.4045  0.9553  0.5242
 5304TIP3    H237548   3.786   1.917   2.248 -1.1033 -2.5128  1.1381
 5305TIP3   OH237549   5.773   5.231   0.795 -0.4760 -0.1592 -0.7427
 5305TIP3    H137550   5.809   5.286   0.865  0.5783  0.3178 -1.6246
 5305TIP3    H237551   5.803   5.272   0.714 -0.6388 -1.3743 -1.4526
 5306TIP3   OH237552   6.818   4.587   0.953  0.6317  0.3323  0.1755
 5306TIP3    H137553   6.776   4.580   1.039 -0.6132  0.8684 -0.3677
 5306TIP3    H237554   6.899   4.536   0.961  0.4501  0.2428  1.6067
 5307TIP3   OH237555   6.518   2.144   0.380 -0.1703 -0.3310  0.2528
 5307TIP3    H137556   6.466   2.109   0.452 -0.9033 -1.3062 -0.7168
 5307TIP3    H237557   6.516   2.076   0.314 -0.2116  0.8587 -1.0226
 5308TIP3   OH237558   4.162   3.396   7.452 -0.3097 -0.0587 -0.5793
 5308TIP3    H137559   4.200   3.333   7.512 -0.8867 -0.1101 -0.2602
 5308TIP3    H237560   4.149   3.346   7.371  1.4183  0.2755 -1.1059
 5309TIP3   OH237561   6.280   4.262   7.620 -0.4833  0.3657 -0.3629
 5309TIP3    H137562   6.344   4.333   7.621 -0.6822  0.5366  0.5181
 5309TIP3    H237563   6.238   4.269   7.534  0.6838  0.2358 -0.9620
 5310TIP3   OH237564   2.463   0.305   1.611 -0.5620  0.0193 -0.3924
 5310TIP3    H137565   2.368   0.315   1.618 -0.6168  0.5419 -1.5680
 5310TIP3    H237566   2.477   0.211   1.598 -1.0392  0.0753 -1.4728
 5311TIP3   OH237567   4.050   1.829   7.439 -0.3190  0.3610  0.4911
 5311TIP3    H137568   4.022   1.758   7.497  0.9922 -0.3823  0.2478
 5311TIP3    H237569   3.994   1.821   7.362 -1.0814  0.4507  1.0149
 5312TIP3   OH237570   2.035   4.853   6.870 -0.0743 -0.4254  0.5662
 5312TIP3    H137571   1.948   4.815   6.862  0.9474 -2.5777 -1.3041
 5312TIP3    H237572   2.076   4.837   6.785  1.7298  1.6866  0.9467
 5313TIP3   OH237573   5.368   4.596   0.385  0.3123  0.5156 -0.3020
 5313TIP3    H137574   5.348   4.520   0.330  1.5540 -1.4801  1.7777
 5313TIP3    H237575   5.462   4.609   0.375  0.7326 -0.4049  1.7837
 5314TIP3   OH237576   4.406   0.754   7.014  0.0544 -0.1028  0.3560
 5314TIP3    H137577   4.498   0.729   7.018 -0.2012 -1.2400 -0.4176
 5314TIP3    H237578   4.392   0.782   6.924 -0.4982 -0.5546  0.2929
 5315TIP3   OH237579   2.492   5.767   2.092 -0.3906 -0.3660 -0.2529
 5315TIP3    H137580   2.506   5.721   2.175  2.4690 -0.4514 -0.6886
 5315TIP3    H237581   2.449   5.848   2.116  0.3058 -0.4301  1.3294
 5316TIP3   OH237582   0.859   2.763   7.875 -0.1121 -0.0825 -0.1473
 5316TIP3    H137583   0.904   2.767   7.959 -0.4945 -0.4213  0.0776
 5316TIP3    H237584   0.767   2.779   7.895 -0.2394 -0.3819 -0.4677
 5317TIP3   OH237585   5.690   4.485   0.670 -0.1515  0.6492  0.4636
 5317TIP3    H137586   5.671   4.516   0.581 -0.1999  1.4981  0.7586
 5317TIP3    H237587   5.718   4.394   0.658 -0.9802  0.4855 -0.3285
 5318TIP3   OH237588   1.645   2.575   1.583 -0.5443 -0.2453 -0.0074
 5318TIP3    H137589   1.702   2.570   1.660 -0.2658 -1.7119 -0.2816
 5318TIP3    H237590   1.676   2.652   1.535  1.4160 -1.1669 -0.2975
 5319TIP3   OH237591   6.166   4.570   0.399 -0.7013 -0.0991  0.0388
 5319TIP3    H137592   6.122   4.584   0.483 -1.5808  0.2359 -0.4591
 5319TIP3    H237593   6.161   4.475   0.385  1.2260 -0.4336  1.2803
 5320TIP3   OH237594   5.166   5.772   2.133 -0.1921 -0.1822 -0.1990
 5320TIP3    H137595   5.170   5.793   2.040  0.6859  0.7779  0.0412
 5320TIP3    H237596   5.081   5.729   2.144 -0.0311 -0.8985 -1.5475
 5321TIP3   OH237597   6.123   5.288   7.792 -0.5284  0.0863  0.8336
 5321TIP3    H137598   6.064   5.296   7.867  0.1647  0.7666  1.3176
 5321TIP3    H237599   6.201   5.247   7.828  0.7447  2.5325  1.0375
 5322TIP3   OH237600   5.849   1.053   0.612  0.1507  0.7088 -0.3962
 5322TIP3    H137601   5.856   0.975   0.666  1.5685  1.3180  0.3674
 5322TIP3    H237602   5.802   1.116   0.666  1.7882  1.4014  0.2987
 5323TIP3   OH237603   4.843   2.147   7.124  0.8131  0.7848 -0.1895
 5323TIP3    H137604   4.839   2.133   7.029  0.5938 -0.5489 -0.0008
 5323TIP3    H237605   4.753   2.165   7.150  0.8332  0.9014 -0.2018
 5324TIP3   OH237606   3.954   6.945   1.131 -0.3435 -0.2206  0.2767
 5324TIP3    H137607   4.019   7.014   1.147 -1.6505  0.6593  2.3256
 5324TIP3    H237608   3.993   6.866   1.169  0.0186  0.0350  0.4451
 5325TIP3   OH237609   6.708   6.095   7.469 -0.4462 -0.2036  0.1164
 5325TIP3    H137610   6.792   6.138   7.482 -0.9910  0.7040  0.7530
 5325TIP3    H237611   6.648   6.142   7.528 -1.8474  0.5168 -1.8015
 5326TIP3   OH237612   3.982   4.722   1.879 -0.4387  0.1580  0.2590
 5326TIP3    H137613   3.918   4.669   1.831 -0.6328 -0.1977  0.9006
 5326TIP3    H237614   3.941   4.737   1.964 -0.9648  2.4388 -0.3350
 5327TIP3   OH237615   3.452   2.748   0.039 -0.2976  0.4661 -0.1482
 5327TIP3    H137616   3.357   2.740   0.037 -0.2568 -0.8930  1.5588
 5327TIP3    H237617   3.484   2.663   0.006  0.3050  0.2489  0.9618
 5328TIP3   OH237618   1.530   6.588   8.156 -0.0492  0.2208 -0.2892
 5328TIP3    H137619   1.519   6.536   8.077  0.7559  1.7253 -1.4414
 5328TIP3    H237620   1.551   6.523   8.224 -1.0807 -1.1327 -1.1943
 5329TIP3   OH237621   5.364   5.351   1.848 -0.3599 -0.1031 -0.1299
 5329TIP3    H137622   5.364   5.445   1.864 -0.4662 -0.3691  1.6059
 5329TIP3    H237623   5.347   5.343   1.754 -0.6633  1.5907 -0.2523
 5330TIP3   OH237624   0.815   4.217   7.614 -0.1544  0.2455  0.1648
 5330TIP3    H137625   0.868   4.230   7.535  0.7821  2.0512  1.0132
 5330TIP3    H237626   0.750   4.288   7.611 -2.5081 -1.8276 -0.7611
 5331TIP3   OH237627   2.022   1.937   7.967 -0.6013  0.0994  0.6703
 5331TIP3    H137628   2.064   1.958   7.883 -0.2112 -1.2427  0.5046
 5331TIP3    H237629   2.020   2.020   8.014 -0.3981  0.7826 -0.4798
 5332TIP3   OH237630   4.558   4.063   8.203 -0.2542  0.5483 -0.3590
 5332TIP3    H137631   4.477   4.020   8.174  0.5271 -0.8972 -0.5167
 5332TIP3    H237632   4.583   4.015   8.282  0.6330  0.7548 -0.5085
 5333TIP3   OH237633   0.706   4.151   0.320  0.1586 -0.5116 -0.1443
 5333TIP3    H137634   0.665   4.186   0.241 -0.5548 -1.7881 -0.3692
 5333TIP3    H237635   0.788   4.199   0.328  0.9671 -1.3553 -2.4986
 5334TIP3   OH237636   3.939   4.972   8.067  0.1307 -0.0222 -0.6752
 5334TIP3    H137637   3.987   5.054   8.065 -3.6318  2.6120  1.8092
 5334TIP3    H237638   3.904   4.962   7.978  0.8414  0.9574 -1.0783
 5335TIP3   OH237639   3.552   3.200   7.902  0.7966  0.4946 -0.1858
 5335TIP3    H137640   3.521   3.124   7.953  1.0780  0.2390 -0.3953
 5335TIP3    H237641   3.621   3.238   7.956  2.2973 -0.7864 -1.1341
 5336TIP3   OH237642   6.281   4.569   0.861 -0.0793 -0.3204 -0.1728
 5336TIP3    H137643   6.363   4.619   0.851  0.1957 -0.8227 -0.4623
 5336TIP3    H237644   6.290   4.526   0.946 -0.4883  0.4227  0.2590
 5337TIP3   OH237645   5.920   6.326   2.273 -0.3344 -0.2474  0.0551
 5337TIP3    H137646   5.922   6.230   2.267 -0.1780 -0.3728  1.6304
 5337TIP3    H237647   6.007   6.350   2.304 -0.3879  0.4108 -0.2889
 5338TIP3   OH237648   1.891   0.337   6.452  0.2381 -0.6565  0.3034
 5338TIP3    H137649   1.936   0.274   6.509  0.8600  0.4379  1.0507
 5338TIP3    H237650   1.871   0.287   6.372  1.5747 -1.5351  0.4931
 5339TIP3   OH237651   1.166   0.873   1.598  0.8216 -0.4323 -0.1063
 5339TIP3    H137652   1.134   0.824   1.522  0.2989 -1.0071  0.4780
 5339TIP3    H237653   1.137   0.963   1.581 -3.6577 -1.2698  1.6006
 5340TIP3   OH237654   5.340   5.604   1.935  0.0017  0.4800  0.0848
 5340TIP3    H137655   5.288   5.665   1.883 -0.1746 -0.6977 -1.1778
 5340TIP3    H237656   5.404   5.659   1.979 -0.4365  1.6290 -0.6543
 5341TIP3   OH237657   6.878   1.147   7.928  0.4746  0.5017  0.1330
 5341TIP3    H137658   6.922   1.155   8.013 -2.9647  0.9217  2.0354
 5341TIP3    H237659   6.898   1.058   7.899  1.1049  0.0906  1.7337
 5342TIP3   OH237660   1.884   1.420   8.173  0.2599 -0.3029  0.4445
 5342TIP3    H137661   1.924   1.507   8.186  0.4627 -0.4401  0.7651
 5342TIP3    H237662   1.848   1.423   8.085  1.0310 -0.1875  0.1223
 5343TIP3   OH237663   5.904   6.736   0.315 -1.0668 -0.2776  0.8970
 5343TIP3    H137664   5.973   6.696   0.366 -1.2840 -0.1730  1.2757
 5343TIP3    H237665   5.823   6.698   0.349 -1.1461 -1.0695 -0.1417
 5344TIP3   OH237666   6.303   0.392   8.054  0.6428 -0.3443 -0.9709
 5344TIP3    H137667   6.295   0.298   8.039  1.2347 -0.5977  0.1386
 5344TIP3    H237668   6.386   0.402   8.101  0.6831  0.7552 -1.2353
 5345TIP3   OH237669   3.542   5.391   7.130  0.4267 -0.0565  0.0251
 5345TIP3    H137670   3.542   5.458   7.198  0.8647  0.2076 -0.2267
 5345TIP3    H237671   3.586   5.433   7.055 -0.8189 -0.0358 -0.7233
 5346TIP3   OH237672   6.255   5.525   0.653 -0.2233 -0.3852 -0.7792
 5346TIP3    H137673   6.299   5.494   0.732  1.0168  0.4518 -1.1154
 5346TIP3    H237674   6.178   5.573   0.685  0.4341  0.2060 -0.0520
 5347TIP3   OH237675   1.428   1.601   0.188 -0.5408 -0.5632  0.0856
 5347TIP3    H137676   1.355   1.599   0.127  1.4804  0.7987 -2.5657
 5347TIP3    H237677   1.488   1.534   0.157 -0.2471 -1.1389  1.7584
 5348TIP3   OH237678   4.601   3.999   7.552  0.3192  0.5077 -0.6418
 5348TIP3    H137679   4.571   4.051   7.627 -1.5306 -0.9790 -0.2684
 5348TIP3    H237680   4.683   3.959   7.582  0.1462  0.7673  0.2055
 5349TIP3   OH237681   2.218   1.092   1.768  0.3814 -0.3655  0.5108
 5349TIP3    H137682   2.274   1.080   1.691  2.2214  0.4088  1.6723
 5349TIP3    H237683   2.231   1.014   1.820  0.3843 -0.1759  0.7963
 5350TIP3   OH237684   5.465   3.784   2.767 -0.2514 -0.3344  0.0220
 5350TIP3    H137685   5.381   3.827   2.749 -0.4697 -1.3362 -1.5046
 5350TIP3    H237686   5.453   3.695   2.736  1.3999 -0.4782 -0.2696
 5351TIP3   OH237687   3.361   4.677   7.649 -0.6064 -0.0857 -0.0002
 5351TIP3    H137688   3.429   4.744   7.639 -0.6679  0.1341  0.9125
 5351TIP3    H237689   3.407   4.594   7.636  0.2819 -0.0500  2.3968
 5352TIP3   OH237690   1.763   5.113   0.166 -0.6525  0.0972  0.2870
 5352TIP3    H137691   1.766   5.075   0.253  1.5496  0.2919  0.3490
 5352TIP3    H237692   1.703   5.187   0.174 -2.0718 -1.0735  1.0778
 5353TIP3   OH237693   1.013   1.007   0.280 -0.1158  0.2448  0.1055
 5353TIP3    H137694   1.057   0.997   0.196  0.4019 -1.3286  0.5218
 5353TIP3    H237695   1.080   1.044   0.338  0.0424 -0.1989  0.2149
 5354TIP3   OH237696   0.955   5.001   1.540 -0.0916 -0.6788  0.2001
 5354TIP3    H137697   0.985   5.092   1.533 -2.1247  0.0125 -0.3193
 5354TIP3    H237698   0.916   4.995   1.627 -1.0907 -0.6549 -0.2285
 5355TIP3   OH237699   5.146   0.064   0.364 -0.2451 -0.3422 -0.0418
 5355TIP3    H137700   5.084   0.127   0.400 -1.0209 -0.2947 -1.3932
 5355TIP3    H237701   5.178   0.015   0.440 -0.0541  1.2693  0.9759
 5356TIP3   OH237702   1.014   1.792   2.131 -0.2977 -0.1251 -0.1964
 5356TIP3    H137703   0.979   1.726   2.070 -2.3859  0.5743  0.1595
 5356TIP3    H237704   0.968   1.775   2.213 -0.2988  1.2707  0.1169
 5357TIP3   OH237705   2.214   3.345   6.624  0.2563 -0.3656 -0.9177
 5357TIP3    H137706   2.160   3.267   6.641  0.4840 -1.0018 -2.8187
 5357TIP3    H237707   2.221   3.388   6.709  1.1085 -3.0356  0.4873
 5358TIP3   OH237708   0.062   0.262   6.824 -0.3542  0.0962  0.2788
 5358TIP3    H137709   0.040   0.184   6.874 -0.8473 -0.2712 -0.4973
 5358TIP3    H237710  -0.015   0.278   6.769  0.0867  0.6224 -0.2003
 5359TIP3   OH237711   3.703   3.355   0.340 -0.8408 -0.3623  0.9164
 5359TIP3    H137712   3.787   3.395   0.363 -1.7830  0.6029  2.8832
 5359TIP3    H237713   3.687   3.384   0.250 -0.0689  1.2277  1.2518
 5360TIP3   OH237714   3.651   1.823   1.303 -0.5994 -0.0251  0.4754
 5360TIP3    H137715   3.565   1.842   1.340 -1.3230 -0.0372 -1.1281
 5360TIP3    H237716   3.634   1.754   1.238  0.9616 -1.5850  1.6374
 5361TIP3   OH237717   1.668   1.521   6.099  0.3618  0.0266  0.6597
 5361TIP3    H137718   1.737   1.485   6.155 -0.0039  0.1958  1.2297
 5361TIP3    H237719   1.590   1.471   6.123 -0.2238  1.3664  1.6825
 5362TIP3   OH237720   5.876   3.909   0.292 -0.5271 -0.2994 -0.4927
 5362TIP3    H137721   5.793   3.864   0.276 -0.5745  0.3854 -2.4517
 5362TIP3    H237722   5.927   3.847   0.345 -2.3428 -0.6306  0.9668
 5363TIP3   OH237723   4.574   4.798   6.726 -0.0831 -0.3218  0.0482
 5363TIP3    H137724   4.522   4.818   6.804 -1.2696 -1.9872 -0.2659
 5363TIP3    H237725   4.582   4.881   6.680 -1.8349  0.1399  0.5133
 5364TIP3   OH237726   0.042   5.810   8.333  0.4638 -0.2306  0.1447
 5364TIP3    H137727   0.098   5.869   8.382 -0.8018  0.4052  0.8796
 5364TIP3    H237728   0.052   5.725   8.376  0.9194 -0.1485  0.2024
 5365TIP3   OH237729   5.344   3.508   2.650 -0.6361  0.6692  0.0823
 5365TIP3    H137730   5.345   3.572   2.579 -2.3000  1.9159  1.1003
 5365TIP3    H237731   5.252   3.499   2.673 -0.2470 -0.5874  1.3212
 5366TIP3   OH237732   4.943   6.019   6.715  0.3748  0.3264 -0.3457
 5366TIP3    H137733   4.917   5.954   6.780 -0.6252  0.9235 -0.1324
 5366TIP3    H237734   4.861   6.052   6.678  0.9195 -0.0014 -1.9327
 5367TIP3   OH237735   6.806   4.548   1.208 -0.2495 -0.1593 -0.2964
 5367TIP3    H137736   6.733   4.547   1.270 -2.0344  1.6137 -2.1988
 5367TIP3    H237737   6.864   4.617   1.240  0.8622 -1.7335  1.3561
 5368TIP3   OH237738   4.385   6.530   0.914  0.2422 -0.3919 -0.5821
 5368TIP3    H137739   4.399   6.505   1.005  0.8463 -1.4698 -0.9565
 5368TIP3    H237740   4.440   6.470   0.864 -0.9510 -0.5710 -1.7319
 5369TIP3   OH237741   1.980   6.995   1.407  0.5729 -0.2189  0.6932
 5369TIP3    H137742   1.945   7.084   1.405 -2.6352 -1.3563 -1.1849
 5369TIP3    H237743   1.929   6.950   1.474 -2.0588 -1.9578 -2.1940
 5370TIP3   OH237744   2.932   1.565   2.144 -0.9456 -0.7337  0.5477
 5370TIP3    H137745   2.950   1.599   2.232 -0.7739 -2.9298  1.4112
 5370TIP3    H237746   3.017   1.561   2.101 -1.2282  2.3932 -0.6298
 5371TIP3   OH237747   0.968   2.107   0.058 -0.0437 -0.4676  0.4967
 5371TIP3    H137748   0.923   2.085  -0.024  0.3782 -0.2052  0.1922
 5371TIP3    H237749   1.042   2.046   0.062 -1.2974 -2.0132  1.8004
 5372TIP3   OH237750   0.028   2.166   8.087  0.4764 -0.2876 -0.3003
 5372TIP3    H137751  -0.029   2.238   8.110  0.2507 -0.8315  0.8879
 5372TIP3    H237752   0.043   2.177   7.993  1.7793  2.2363  0.1122
 5373TIP3   OH237753   3.600   6.128   0.521  0.0037  0.5677 -0.0243
 5373TIP3    H137754   3.641   6.124   0.607  0.7940 -2.3401 -0.4525
 5373TIP3    H237755   3.508   6.108   0.537 -0.1691  1.5534  0.2853
 5374TIP3   OH237756   2.823   2.894   6.670  0.4059 -0.1518  0.3874
 5374TIP3    H137757   2.909   2.918   6.702  0.6815 -1.0224  0.3253
 5374TIP3    H237758   2.831   2.802   6.644 -0.6536 -0.3889  0.8133
 5375TIP3   OH237759   2.574   3.129   1.907  0.1058 -0.0555  0.2843
 5375TIP3    H137760   2.565   3.120   1.812  0.5624 -0.3479  0.2644
 5375TIP3    H237761   2.493   3.092   1.942  0.2888 -0.7139  0.0369
 5376TIP3   OH237762   4.657   5.466   0.023 -0.3978  0.3445  0.1965
 5376TIP3    H137763   4.713   5.533   0.061 -0.1359  1.3232 -1.8307
 5376TIP3    H237764   4.580   5.464   0.080  1.2006 -0.3313  2.4539
 5377TIP3   OH237765   5.439   6.746   0.526  0.3102 -0.5576  0.5226
 5377TIP3    H137766   5.424   6.666   0.476 -1.2056 -0.0944  0.1913
 5377TIP3    H237767   5.446   6.717   0.617  2.0427 -1.2879  0.1899
 5378TIP3   OH237768   6.585   3.699   0.673 -0.4285 -0.2105  0.6314
 5378TIP3    H137769   6.679   3.716   0.668 -0.4670  0.4729  1.8111
 5378TIP3    H237770   6.575   3.609   0.641  0.6883 -0.4627  0.9414
 5379TIP3   OH237771   0.070   5.524   8.463 -0.3269 -0.1851  0.1908
 5379TIP3    H137772   0.129   5.460   8.423  0.7811  0.3243  0.9829
 5379TIP3    H237773  -0.002   5.532   8.399 -0.0666 -1.5545 -0.3251
 5380TIP3   OH237774   6.633   6.350   7.020 -0.1294 -0.1196 -0.4157
 5380TIP3    H137775   6.695   6.422   7.018  1.2601 -1.2588 -0.0368
 5380TIP3    H237776   6.666   6.287   6.957 -1.5475 -0.2870 -1.0441
 5381TIP3   OH237777   3.065   4.584   0.545 -0.2938 -0.2886  0.1319
 5381TIP3    H137778   3.151   4.546   0.563 -0.3753 -0.1694  0.7723
 5381TIP3    H237779   3.083   4.678   0.533 -0.4237 -0.1652  0.8993
 5382TIP3   OH237780   1.928   1.208   0.885  0.0985  0.5336 -0.0804
 5382TIP3    H137781   1.889   1.248   0.808  1.0016  0.0634 -0.7933
 5382TIP3    H237782   1.934   1.279   0.949  0.4525  1.2156 -0.8651
 5383TIP3   OH237783   6.437   5.448   0.465  0.2904 -0.3415 -0.4662
 5383TIP3    H137784   6.369   5.483   0.522  1.0127 -0.5493  0.5437
 5383TIP3    H237785   6.450   5.358   0.495  1.6629 -0.0210 -0.0015
 5384TIP3   OH237786   5.139   2.532   2.270  0.1924 -0.1684  0.4252
 5384TIP3    H137787   5.090   2.612   2.285  2.3007  1.0391  1.2391
 5384TIP3    H237788   5.163   2.501   2.357  1.7436 -0.1263  0.0445
 5385TIP3   OH237789   0.011   5.358   7.331 -0.2604 -0.0272 -0.0561
 5385TIP3    H137790   0.075   5.391   7.394 -0.0469  1.6070 -1.0716
 5385TIP3    H237791   0.051   5.279   7.295 -0.4666 -1.0924  1.9351
 5386TIP3   OH237792   0.693   0.979   8.466  0.1587  0.2975  0.1094
 5386TIP3    H137793   0.670   1.042   8.398 -0.2673 -0.6876 -0.6909
 5386TIP3    H237794   0.721   1.032   8.540  1.2619  1.3874 -1.0471
 5387TIP3   OH237795   1.915   4.734   0.831  0.4352  0.2323 -0.1508
 5387TIP3    H137796   1.988   4.673   0.822  1.0397  0.8748  0.2689
 5387TIP3    H237797   1.878   4.741   0.742 -1.2080 -2.5691  0.1776
 5388TIP3   OH237798   3.240   3.209   7.564 -0.4606 -0.4154  0.2145
 5388TIP3    H137799   3.201   3.139   7.617 -1.5106 -0.2814 -0.3533
 5388TIP3    H237800   3.170   3.235   7.504  0.9321 -1.1784 -1.8587
 5389TIP3   OH237801   6.671   0.516   2.552  0.1676  0.2852  0.3433
 5389TIP3    H137802   6.731   0.444   2.534  0.3293  0.7179 -0.9293
 5389TIP3    H237803   6.715   0.567   2.621  0.7804  0.0324  0.1464
 5390TIP3   OH237804   5.474   0.984   7.817 -0.3694 -0.2770  0.7703
 5390TIP3    H137805   5.403   0.932   7.855 -1.7370 -0.2471 -1.5013
 5390TIP3    H237806   5.553   0.934   7.834 -1.3873 -2.0565  0.5115
 5391TIP3   OH237807   5.437   6.625   0.805  0.7434 -0.7291 -0.5548
 5391TIP3    H137808   5.425   6.611   0.899 -1.2423  1.8544 -0.3085
 5391TIP3    H237809   5.524   6.590   0.787  1.4410 -0.7791  2.3661
 5392TIP3   OH237810   2.967   4.310   0.654  0.0369  0.2965 -0.7490
 5392TIP3    H137811   2.929   4.264   0.580 -0.9392  0.9078 -0.6435
 5392TIP3    H237812   3.041   4.358   0.617  0.3797 -0.4529 -1.0631
 5393TIP3   OH237813   3.409   5.641   1.995  0.8332 -0.3281 -0.5619
 5393TIP3    H137814   3.342   5.573   1.987  0.9367 -0.4985 -0.0360
 5393TIP3    H237815   3.463   5.612   2.068  1.0311  0.1974 -0.4994
 5394TIP3   OH237816   6.370   3.492   0.362  0.3188  0.3407 -0.2045
 5394TIP3    H137817   6.439   3.541   0.316  0.3398  0.9651  0.4793
 5394TIP3    H237818   6.348   3.420   0.302 -1.3326  2.4290 -2.3027
 5395TIP3   OH237819   4.670   4.194   7.811 -0.3169  0.2066  0.2836
 5395TIP3    H137820   4.696   4.146   7.889 -0.4364  0.1349  0.2798
 5395TIP3    H237821   4.663   4.285   7.840 -0.8301  0.1098  0.4740
 5396TIP3   OH237822   1.880   5.290   2.358  0.2863 -0.5939  0.3515
 5396TIP3    H137823   1.956   5.326   2.402 -1.4630  3.7876  0.2927
 5396TIP3    H237824   1.814   5.359   2.364 -2.5454 -2.7309 -2.6030
 5397TIP3   OH237825   5.704   5.357   2.480  0.4042 -0.3007  0.0031
 5397TIP3    H137826   5.693   5.295   2.552  1.5227  0.3978  0.8355
 5397TIP3    H237827   5.792   5.340   2.447  1.0988  1.3485  0.8339
 5398TIP3   OH237828   0.479   1.024   0.472  0.5321 -0.2675 -0.2996
 5398TIP3    H137829   0.527   1.072   0.404 -2.3514  1.1129 -1.5506
 5398TIP3    H237830   0.460   0.939   0.433 -1.4803  0.6678 -1.5611
 5399TIP3   OH237831   0.405   1.322   8.442 -0.5216  0.0584  0.6210
 5399TIP3    H137832   0.406   1.361   8.529 -1.0825 -1.3210  1.2686
 5399TIP3    H237833   0.413   1.396   8.382  0.8250  0.9512  1.8483
 5400TIP3   OH237834   4.953   0.505   0.767 -0.3760  1.0524  0.2188
 5400TIP3    H137835   4.907   0.560   0.705 -1.7313  1.4986  1.5593
 5400TIP3    H237836   4.889   0.439   0.794  0.9753 -0.7781 -0.7808
 5401TIP3   OH237837   2.598   3.133   2.321  0.3154 -0.2479 -0.5284
 5401TIP3    H137838   2.524   3.128   2.382  1.0761 -0.1990  0.4084
 5401TIP3    H237839   2.585   3.057   2.264  1.0874 -1.9415  1.4399
 5402TIP3   OH237840   1.653   4.275   7.353  0.2376 -0.9203  0.0536
 5402TIP3    H137841   1.687   4.364   7.352 -0.2499 -0.7316 -1.2151
 5402TIP3    H237842   1.726   4.220   7.327  0.5564 -0.9187  0.8996
 5403TIP3   OH237843   5.386   6.047   6.856  0.0146 -0.3593  1.0116
 5403TIP3    H137844   5.398   6.057   6.950  0.0037 -0.2288  0.9997
 5403TIP3    H237845   5.428   6.124   6.818 -0.8455  0.1033  0.9704
 5404TIP3   OH237846   5.412   6.297   1.753 -0.4442  0.0956  0.8103
 5404TIP3    H137847   5.328   6.254   1.769 -0.6071  0.1412  0.0918
 5404TIP3    H237848   5.477   6.227   1.766 -0.6229 -0.0617  0.8676
 5405TIP3   OH237849   4.013   6.984   0.608 -0.0503 -0.5923 -0.0420
 5405TIP3    H137850   3.996   6.909   0.550  1.5978 -1.0499  0.0275
 5405TIP3    H237851   3.943   6.980   0.673  0.6953 -2.8548  0.7202
 5406TIP3   OH237852   2.439   2.439   8.101  0.1718 -0.2711  0.0083
 5406TIP3    H137853   2.434   2.469   8.192  2.5540  1.9301 -0.4812
 5406TIP3    H237854   2.517   2.481   8.066 -0.4489 -1.3670 -2.9851
 5407TIP3   OH237855   4.762   1.299   8.138  0.2535  0.3040 -0.0720
 5407TIP3    H137856   4.808   1.262   8.213  2.0449  0.4190 -1.0641
 5407TIP3    H237857   4.831   1.327   8.078 -1.1188  0.2489 -1.7722
 5408TIP3   OH237858   0.638   5.716   7.639 -0.3549  0.1535  0.0749
 5408TIP3    H137859   0.698   5.788   7.657 -0.6259  0.1103  1.2390
 5408TIP3    H237860   0.679   5.640   7.681 -0.1118 -0.3666 -1.0706
 5409TIP3   OH237861   3.617   2.889   7.353  0.5340 -0.4310 -0.5130
 5409TIP3    H137862   3.625   2.980   7.382 -0.5664 -1.2587  2.7319
 5409TIP3    H237863   3.614   2.895   7.257 -0.9071  3.0706 -0.3981
 5410TIP3   OH237864   4.874   3.544   7.032 -0.3492 -0.5947  0.3298
 5410TIP3    H137865   4.933   3.575   6.963  1.5269 -2.0439  1.1928
 5410TIP3    H237866   4.833   3.466   6.996 -0.2809 -0.6712  0.4168
 5411TIP3   OH237867   0.833   3.630   1.246  0.6129 -0.0101 -0.0284
 5411TIP3    H137868   0.778   3.703   1.275 -0.9392 -1.0138 -0.2995
 5411TIP3    H237869   0.875   3.662   1.166 -1.1608  0.1612 -0.9629
 5412TIP3   OH237870   4.856   4.951   6.536 -0.8122  0.0095  0.2160
 5412TIP3    H137871   4.846   4.983   6.626 -1.3471  0.6386 -0.0539
 5412TIP3    H237872   4.850   5.030   6.482 -1.2842 -0.4477 -0.4221
 5413TIP3   OH237873   1.772   4.798   6.867 -0.1204 -0.6586  0.0021
 5413TIP3    H137874   1.775   4.716   6.818  1.8146  0.0670 -1.1944
 5413TIP3    H237875   1.701   4.848   6.826  0.4417 -0.6920 -1.0367
 5414TIP3   OH237876   3.869   1.687   1.268  0.1122 -0.1329  0.1676
 5414TIP3    H137877   3.784   1.723   1.295 -1.6754 -2.8273 -1.4039
 5414TIP3    H237878   3.911   1.660   1.350 -2.4869 -2.6067  0.8393
 5415TIP3   OH237879   6.221   2.052   7.557  0.2370  0.3237  0.0031
 5415TIP3    H137880   6.140   2.100   7.536 -1.6224 -2.0476  1.2943
 5415TIP3    H237881   6.260   2.102   7.628 -0.2613  1.3162 -0.3975
 5416TIP3   OH237882   4.302   5.990   1.503 -0.3352  0.0525  0.6793
 5416TIP3    H137883   4.322   5.938   1.581  1.2928  0.4288  0.5429
 5416TIP3    H237884   4.239   5.937   1.454 -2.2584  0.2755  2.7178
 5417TIP3   OH237885   6.638   6.749   1.557  0.1884  0.4365 -0.0797
 5417TIP3    H137886   6.553   6.752   1.512  0.5483  1.0886 -0.7315
 5417TIP3    H237887   6.679   6.669   1.524  0.0509  0.4073 -0.1810
 5418TIP3   OH237888   3.581   1.154   0.469  0.5538  0.0432 -0.0967
 5418TIP3    H137889   3.662   1.202   0.455 -0.3457  1.6994  0.1478
 5418TIP3    H237890   3.522   1.217   0.510 -0.4850 -1.4653  0.8412
 5419TIP3   OH237891   2.740   3.185   7.673  0.0542  0.6800  0.0663
 5419TIP3    H137892   2.819   3.225   7.710 -0.5373  1.5124  0.4461
 5419TIP3    H237893   2.770   3.142   7.593  0.9359  0.7792  0.3370
 5420TIP3   OH237894   4.544   0.230   7.789 -0.1632  0.5221 -0.1331
 5420TIP3    H137895   4.475   0.197   7.846 -0.1536  0.3021 -0.2506
 5420TIP3    H237896   4.505   0.230   7.701 -0.4142  1.5066 -0.0338
 5421TIP3   OH237897   3.968   2.312   0.658  0.5627  0.1088  0.2998
 5421TIP3    H137898   3.908   2.386   0.653  1.7087  0.9708 -1.7894
 5421TIP3    H237899   3.979   2.296   0.752 -3.2078 -0.3826  0.8088
 5422TIP3   OH237900   3.579   2.421   2.133  0.1457 -0.3167  0.2034
 5422TIP3    H137901   3.545   2.373   2.208 -1.9197 -0.2383 -0.6059
 5422TIP3    H237902   3.522   2.497   2.125  0.6607 -0.0395 -1.1099
 5423TIP3   OH237903   1.288   2.575   1.336  0.1834 -0.1482 -0.2418
 5423TIP3    H137904   1.347   2.504   1.310 -0.3765  0.0628 -2.2238
 5423TIP3    H237905   1.281   2.630   1.258 -2.1407  0.1713  0.1264
 5424TIP3   OH237906   5.243   5.538   1.290  0.1892 -0.6093 -0.2085
 5424TIP3    H137907   5.283   5.579   1.214  0.1907 -1.9107 -0.9392
 5424TIP3    H237908   5.149   5.547   1.276  0.1594 -1.7780 -0.9381
 5425TIP3   OH237909   1.570   1.869   7.376  0.0721  0.2929  0.0797
 5425TIP3    H137910   1.529   1.788   7.405 -0.6352  0.8064  0.5661
 5425TIP3    H237911   1.664   1.855   7.390 -0.0593 -0.3619  0.3557
 5426TIP3   OH237912   1.851   3.433   7.114 -0.6074  0.4161  0.4758
 5426TIP3    H137913   1.789   3.427   7.187  0.3044 -0.7106  1.1935
 5426TIP3    H237914   1.916   3.497   7.143 -1.1195  1.1966 -0.0548
 5427TIP3   OH237915   4.125   5.861   0.744 -0.1221 -0.0570 -0.0812
 5427TIP3    H137916   4.111   5.888   0.834  1.6426 -0.5542  0.3820
 5427TIP3    H237917   4.132   5.765   0.749  0.3129 -0.0606 -0.7042
 5428TIP3   OH237918   6.599   2.464   1.198 -0.1619 -0.0822  0.2966
 5428TIP3    H137919   6.538   2.530   1.164 -0.8909 -0.9515 -0.1104
 5428TIP3    H237920   6.584   2.463   1.292  2.6921  3.1955  1.0066
 5429TIP3   OH237921   4.374   2.537   2.239  0.1860  0.1446  0.6038
 5429TIP3    H137922   4.464   2.522   2.269  1.5252  0.7081 -2.6451
 5429TIP3    H237923   4.356   2.465   2.179 -1.2569  0.4679  0.6108
 5430TIP3   OH237924   4.446   4.737   1.825  0.0929  0.3904  0.1371
 5430TIP3    H137925   4.376   4.734   1.760  0.3509 -0.3055 -0.1159
 5430TIP3    H237926   4.492   4.820   1.807  0.8825 -0.3252 -1.3443
 5431TIP3   OH237927   4.353   6.171   0.117 -0.2899 -0.0826  0.3269
 5431TIP3    H137928   4.428   6.128   0.076  0.2444  0.5665  0.6171
 5431TIP3    H237929   4.390   6.242   0.169 -1.2071  1.1951 -0.7055
 5432TIP3   OH237930   3.939   5.430   6.885 -0.0722 -0.4153 -0.7962
 5432TIP3    H137931   3.983   5.398   6.806 -0.2875  2.0212 -1.9785
 5432TIP3    H237932   3.853   5.459   6.855 -0.0189  0.9231  0.2265
 5433TIP3   OH237933   2.752   4.550   7.700  0.6431 -0.0309  0.1437
 5433TIP3    H137934   2.808   4.626   7.713  0.4549  0.2845 -0.8463
 5433TIP3    H237935   2.810   4.483   7.664  1.2248 -0.9964  2.6349
 5434TIP3   OH237936   4.132   2.227   0.454 -0.8270 -0.1112  0.0829
 5434TIP3    H137937   4.216   2.260   0.486 -0.7863  0.2552 -0.3932
 5434TIP3    H237938   4.067   2.263   0.514 -0.5742 -1.1540  1.0181
 5435TIP3   OH237939   3.668   4.203   7.305 -0.7174  0.0817  0.0939
 5435TIP3    H137940   3.647   4.197   7.212 -1.3851 -1.3996  0.3049
 5435TIP3    H237941   3.743   4.144   7.317 -0.8402  0.0056  0.5369
 5436TIP3   OH237942   2.435   3.722   1.551 -0.1785 -0.0420 -0.3213
 5436TIP3    H137943   2.523   3.682   1.550  0.0727  0.4655 -2.2841
 5436TIP3    H237944   2.379   3.655   1.512 -0.2182  0.5203 -1.2482
 5437TIP3   OH237945   1.285   6.705   1.558 -0.2187  0.1797  0.3333
 5437TIP3    H137946   1.211   6.649   1.535 -0.9978  0.6344  1.6131
 5437TIP3    H237947   1.292   6.698   1.653  0.5118  1.2252  0.3795
 5438TIP3   OH237948   2.489   3.764   7.895 -0.0913 -0.2290 -0.2953
 5438TIP3    H137949   2.511   3.671   7.888 -1.3168 -0.5527 -0.2434
 5438TIP3    H237950   2.498   3.783   7.988 -2.9840 -1.2119  0.3033
 5439TIP3   OH237951   4.753   0.534   6.711 -0.4676 -0.4052 -0.2320
 5439TIP3    H137952   4.789   0.452   6.678 -0.0314 -0.1923 -0.2892
 5439TIP3    H237953   4.789   0.601   6.653  0.1439 -0.0465  0.5527
 5440TIP3   OH237954   3.928   1.548   8.279  1.0084  0.0331  0.3281
 5440TIP3    H137955   3.991   1.563   8.209 -0.5877  1.0455 -0.9611
 5440TIP3    H237956   3.960   1.601   8.352  1.1846  1.2637 -0.6106
 5441TIP3   OH237957   0.278   0.049   2.581 -0.0968 -0.7250  0.1493
 5441TIP3    H137958   0.291   0.098   2.500 -0.6396 -0.2045  0.3647
 5441TIP3    H237959   0.357  -0.004   2.590  0.4118 -0.0461 -0.2064
 5442TIP3   OH237960   4.945   5.517   1.292  0.5930 -0.4819  0.1127
 5442TIP3    H137961   4.941   5.519   1.388  0.4512  0.4809  0.0908
 5442TIP3    H237962   4.881   5.582   1.264  0.1307 -1.2485 -0.6586
 5443TIP3   OH237963   2.853   1.610   7.770  0.2046  0.2464 -0.2320
 5443TIP3    H137964   2.784   1.676   7.775  0.8590  1.0104 -1.0107
 5443TIP3    H237965   2.810   1.528   7.794 -0.8642  0.7860 -0.2637
 5444TIP3   OH237966   3.333   6.455   7.167 -0.3666 -0.3755  0.0246
 5444TIP3    H137967   3.257   6.486   7.118 -0.1987 -0.8588 -0.5541
 5444TIP3    H237968   3.301   6.439   7.255 -0.7777  0.0739 -0.0412
 5445TIP3   OH237969   4.087   4.872   6.630  0.4186 -0.1705 -0.0550
 5445TIP3    H137970   4.001   4.841   6.603 -0.1943  0.5121  1.0425
 5445TIP3    H237971   4.134   4.792   6.657 -0.5868 -0.3343  1.2664
 5446TIP3   OH237972   2.105   3.845   0.182  0.0296  0.0055  0.1730
 5446TIP3    H137973   2.090   3.769   0.126  2.0598 -0.5014  0.2576
 5446TIP3    H237974   2.099   3.920   0.122  0.4632 -0.4015 -0.3813
 5447TIP3   OH237975   1.434   4.522   7.521  0.0384 -0.2232 -0.1061
 5447TIP3    H137976   1.417   4.615   7.538  0.8571 -0.4675  2.5032
 5447TIP3    H237977   1.506   4.521   7.458 -0.0095  0.9140 -0.1968
 5448TIP3   OH237978   3.063   0.888   6.571 -0.1492 -0.0259  0.2413
 5448TIP3    H137979   3.029   0.973   6.599 -1.7827 -0.9446  1.2313
 5448TIP3    H237980   3.099   0.904   6.484 -1.1807  1.5059  0.0556
 5449TIP3   OH237981   0.121   1.712   1.337  0.2612 -0.3769 -0.1170
 5449TIP3    H137982   0.198   1.661   1.311 -0.1956 -1.1653  0.0443
 5449TIP3    H237983   0.084   1.663   1.411 -1.3738 -0.9774 -1.2851
 5450TIP3   OH237984   1.707   2.044   1.629  0.4677 -0.1206  0.1716
 5450TIP3    H137985   1.642   2.087   1.685  0.3646  2.1357 -1.5145
 5450TIP3    H237986   1.757   2.117   1.591  1.9000 -1.6545 -1.0257
 5451TIP3   OH237987   0.366   1.497   6.118  0.1669  0.1937  0.0879
 5451TIP3    H137988   0.433   1.466   6.179  0.9652 -0.5126 -1.0922
 5451TIP3    H237989   0.383   1.591   6.110  1.5206 -0.0936 -0.7491
 5452TIP3   OH237990   2.079   1.291   1.878  0.0369 -0.6105 -0.1074
 5452TIP3    H137991   1.995   1.271   1.838 -0.9401 -0.0793  1.5731
 5452TIP3    H237992   2.136   1.219   1.850 -1.0996 -1.2500 -0.8832
 5453TIP3   OH237993   5.230   0.768   7.762 -0.2000  0.7961 -0.1229
 5453TIP3    H137994   5.283   0.694   7.731 -2.1488 -0.5311 -0.4064
 5453TIP3    H237995   5.213   0.749   7.854  0.2423  1.5023  0.1143
 5454TIP3   OH237996   6.698   2.922   1.018 -0.1591 -0.3205 -0.1996
 5454TIP3    H137997   6.723   3.014   1.028 -0.7660 -0.2597  0.8309
 5454TIP3    H237998   6.626   2.923   0.955  0.2560 -0.1659 -0.6811
 5455TIP3   OH237999   1.614   4.232   0.672  0.3404 -0.2143 -0.0959
 5455TIP3    H138000   1.645   4.322   0.666 -0.0124  0.1190  2.3283
 5455TIP3    H238001   1.689   4.179   0.645  0.9280  0.7623 -0.4244
 5456TIP3   OH238002   0.812   6.117   0.326 -0.2887  0.6470 -0.0971
 5456TIP3    H138003   0.890   6.098   0.274 -0.1340  2.4876 -0.6079
 5456TIP3    H238004   0.740   6.104   0.265 -0.5215 -1.8337  0.5851
 5457TIP3   OH238005   5.098   2.715   1.998  0.8645  0.5808 -0.6544
 5457TIP3    H138006   5.048   2.635   1.984 -2.5522  2.6251 -1.5614
 5457TIP3    H238007   5.054   2.757   2.072  2.9411  1.4031  0.1890
 5458TIP3   OH238008   5.886   4.636   7.714  0.3980  0.4265  0.2820
 5458TIP3    H138009   5.960   4.592   7.754 -1.4976 -1.3391  2.0834
 5458TIP3    H238010   5.854   4.574   7.648  0.4089  1.1054 -0.3744
 5459TIP3   OH238011   3.511   3.600   1.156  0.0574 -0.2216 -0.3163
 5459TIP3    H138012   3.510   3.524   1.098 -0.1029  0.0961 -0.7357
 5459TIP3    H238013   3.603   3.611   1.180  0.1205 -0.3774 -0.4839
 5460TIP3   OH238014   2.181   3.270   7.824  0.6532  0.2404 -0.3752
 5460TIP3    H138015   2.187   3.199   7.888  1.9557  0.2220 -0.4818
 5460TIP3    H238016   2.272   3.292   7.805  0.2945  0.3060 -2.1778
 5461TIP3   OH238017   1.709   2.441   6.340  0.3826  0.3130 -0.0874
 5461TIP3    H138018   1.706   2.526   6.384  0.0653  0.2656 -0.0154
 5461TIP3    H238019   1.795   2.439   6.298  0.7098  0.3307  0.5760
 5462TIP3   OH238020   4.514   0.969   2.536  0.1856  0.0190  0.1298
 5462TIP3    H138021   4.443   0.955   2.599 -1.2049 -0.5158 -1.4870
 5462TIP3    H238022   4.575   1.026   2.583 -1.2085  0.3741  1.6562
 5463TIP3   OH238023   4.354   6.291   2.250  0.5332  0.6537  0.2547
 5463TIP3    H138024   4.416   6.323   2.317  1.0397 -0.6784  0.4471
 5463TIP3    H238025   4.341   6.199   2.271 -1.7632  0.9464  0.3732
 5464TIP3   OH238026   4.737   2.425   6.226 -0.0929  0.2899 -0.6958
 5464TIP3    H138027   4.829   2.431   6.198 -0.0589 -0.0381 -0.6648
 5464TIP3    H238028   4.688   2.466   6.155  0.1356  1.2511 -0.3203
 5465TIP3   OH238029   0.583   4.591   7.003 -0.9661  0.0150  0.5558
 5465TIP3    H138030   0.618   4.577   6.915 -2.3925  0.3358 -0.0872
 5465TIP3    H238031   0.586   4.686   7.015 -1.3194  0.0215  0.6086
 5466TIP3   OH238032   1.377   5.516   7.907  0.2397 -0.0535 -0.3764
 5466TIP3    H138033   1.293   5.483   7.940 -0.8984  1.4143 -1.6434
 5466TIP3    H238034   1.370   5.611   7.916  1.0610  0.1979 -2.0446
 5467TIP3   OH238035   1.953   1.855   1.573 -0.1922  0.3172 -0.0961
 5467TIP3    H138036   1.905   1.932   1.604  0.8148  0.6232  0.7467
 5467TIP3    H238037   2.021   1.841   1.638  0.2177 -0.7403 -0.7268
 5468TIP3   OH238038   3.056   1.269   2.169 -0.5230 -0.3263  0.2629
 5468TIP3    H138039   3.145   1.274   2.134 -0.4951  2.0744  0.4953
 5468TIP3    H238040   3.067   1.226   2.254  0.4177 -0.1042  0.2715
 5469TIP3   OH238041   6.604   6.961   1.814  0.2732 -0.7987  0.3801
 5469TIP3    H138042   6.521   6.992   1.778  0.7810 -0.4564 -0.5312
 5469TIP3    H238043   6.646   7.040   1.849  1.8416 -0.2203 -2.4915
 5470TIP3   OH238044   5.375   5.479   6.847 -0.1523  0.3262  0.3049
 5470TIP3    H138045   5.317   5.522   6.910 -0.9618  0.4117 -0.4859
 5470TIP3    H238046   5.393   5.546   6.781 -1.1110 -0.4042 -0.7322
 5471TIP3   OH238047   6.320   1.716   7.187 -0.0334 -0.2413 -0.1259
 5471TIP3    H138048   6.262   1.759   7.250  0.6749 -0.4603  0.7012
 5471TIP3    H238049   6.366   1.787   7.143  0.3468 -0.1136  0.4702
 5472TIP3   OH238050   0.369   4.256   6.328  0.7948  0.7186 -0.4873
 5472TIP3    H138051   0.399   4.165   6.334 -2.2261 -0.3017  1.1253
 5472TIP3    H238052   0.311   4.257   6.253 -2.3224  0.1401  1.7187
 5473TIP3   OH238053   5.483   2.555   8.038 -0.6133  0.4069  0.0150
 5473TIP3    H138054   5.526   2.470   8.048  1.4223  1.5076  1.4133
 5473TIP3    H238055   5.390   2.535   8.045 -0.2707 -1.8255 -0.8289
 5474TIP3   OH238056   5.706   6.330   0.384  0.1008  0.0300  0.1804
 5474TIP3    H138057   5.763   6.256   0.361  0.3276  0.3864 -0.4102
 5474TIP3    H238058   5.619   6.292   0.392  0.6297 -0.8790  2.8137
 5475TIP3   OH238059   1.403   4.183   8.094  0.5939  0.0513 -0.2264
 5475TIP3    H138060   1.438   4.095   8.077  1.2955 -0.0707  1.6553
 5475TIP3    H238061   1.350   4.203   8.016  0.2552 -2.1002 -0.6071
 5476TIP3   OH238062   3.963   5.292   7.186  0.6338 -0.8129  0.1951
 5476TIP3    H138063   4.027   5.294   7.114  0.5263  2.3580  0.0694
 5476TIP3    H238064   3.883   5.259   7.146  0.7942  0.1505 -0.9609
 5477TIP3   OH238065   3.978   1.058   1.850 -0.5525  0.3710  0.0431
 5477TIP3    H138066   3.915   1.012   1.905 -1.3132  0.7283 -0.4982
 5477TIP3    H238067   4.063   1.019   1.871 -1.1247 -1.0045 -0.1322
 5478TIP3   OH238068   3.219   3.424   1.539  0.1370  0.2511  0.3312
 5478TIP3    H138069   3.299   3.462   1.503  1.9110 -2.9068  0.5079
 5478TIP3    H238070   3.167   3.400   1.463  0.1242  0.8672  0.1469
 5479TIP3   OH238071   3.060   1.150   1.219 -0.2103 -0.0899 -0.4205
 5479TIP3    H138072   3.095   1.083   1.278  2.4621 -0.0900 -1.8600
 5479TIP3    H238073   2.981   1.111   1.183  0.0594 -1.5407  0.4763
 5480TIP3   OH238074   3.586   0.581   6.710 -0.1362 -0.1575  0.3192
 5480TIP3    H138075   3.512   0.525   6.689 -0.3180  0.2476 -0.1350
 5480TIP3    H238076   3.601   0.566   6.804  0.6581 -1.9523 -0.0475
 5481TIP3   OH238077   2.953   2.762   7.686  0.2199  0.5117  0.2217
 5481TIP3    H138078   2.910   2.703   7.748  0.4611  1.3305  1.1750
 5481TIP3    H238079   2.883   2.787   7.625  0.4026 -1.8962 -1.1445
 5482TIP3   OH238080   3.500   2.895   8.243  0.1915 -0.0441 -0.0764
 5482TIP3    H138081   3.483   2.966   8.305  2.4508  0.5685 -0.0689
 5482TIP3    H238082   3.493   2.815   8.296  0.6801  0.3858  0.6525
 5483TIP3   OH238083   1.100   6.256   7.124 -0.0895  0.0845 -0.2599
 5483TIP3    H138084   1.082   6.209   7.043 -0.2109  0.3146 -0.3682
 5483TIP3    H238085   1.014   6.268   7.165  0.0823 -1.0225  0.4653
 5484TIP3   OH238086   1.154   2.625   6.068 -0.0038 -0.0629  0.4464
 5484TIP3    H138087   1.063   2.597   6.067  0.3955 -1.4020  0.0627
 5484TIP3    H238088   1.149   2.721   6.066 -1.3949 -0.1182 -1.2530
 5485TIP3   OH238089   5.377   4.738   7.000 -0.5403  0.3480  0.2525
 5485TIP3    H138090   5.345   4.649   6.983 -0.2947  0.5473 -1.4022
 5485TIP3    H238091   5.473   4.730   6.995 -0.5084  0.6605  0.3698
 5486TIP3   OH238092   3.905   3.706   0.813  0.1084  0.6213 -0.3224
 5486TIP3    H138093   3.858   3.755   0.746  0.1771  1.1697  0.0180
 5486TIP3    H238094   3.895   3.614   0.789 -0.3766  0.7860 -0.7442
 5487TIP3   OH238095   1.993   5.943   7.901 -0.6751 -0.5779  0.3411
 5487TIP3    H138096   2.017   5.860   7.859 -0.8929 -1.3161  1.6141
 5487TIP3    H238097   2.060   5.955   7.968 -1.2672 -0.2875  0.8826
 5488TIP3   OH238098   2.946   5.355   7.065  0.7588  0.0113  0.2082
 5488TIP3    H138099   3.007   5.429   7.066  0.0122  0.6552 -0.0581
 5488TIP3    H238100   2.979   5.297   6.997  0.8093  0.5871 -0.2625
 5489TIP3   OH238101   4.786   3.296   8.340  0.0637 -0.6488 -0.5918
 5489TIP3    H138102   4.794   3.285   8.245 -0.3132 -1.1054 -0.5698
 5489TIP3    H238103   4.870   3.265   8.374 -0.2557 -1.6498 -0.6821
 5490TIP3   OH238104   3.408   3.192   6.561  0.5580  0.1635 -0.1799
 5490TIP3    H138105   3.435   3.178   6.651 -1.8345  0.6387  0.6977
 5490TIP3    H238106   3.418   3.107   6.518  0.4294 -0.4219  0.9319
 5491TIP3   OH238107   6.518   2.704   0.377 -0.0243  0.5486 -0.2458
 5491TIP3    H138108   6.492   2.762   0.304  3.2957  2.1160 -0.3754
 5491TIP3    H238109   6.558   2.629   0.334  0.5512  0.7490 -0.0685
 5492TIP3   OH238110   2.062   6.763   0.592  0.2021 -0.0294 -0.1408
 5492TIP3    H138111   2.153   6.786   0.609 -0.4806  2.9995 -0.0881
 5492TIP3    H238112   2.011   6.837   0.626 -2.4069 -2.1360  0.9406
 5493TIP3   OH238113   6.985   1.567   1.531 -0.2442 -0.2713  0.3207
 5493TIP3    H138114   6.961   1.601   1.618 -1.1123 -1.9326  0.7966
 5493TIP3    H238115   6.907   1.519   1.503  1.3555 -3.2443  0.4874
 5494TIP3   OH238116   5.387   2.010   7.758  0.2367  0.0951 -0.4051
 5494TIP3    H138117   5.354   2.095   7.728  2.3172  1.4922  1.0026
 5494TIP3    H238118   5.388   2.016   7.853  0.1643 -1.6319 -0.2636
 5495TIP3   OH238119   5.004   0.797   0.859  0.1340  0.0642  0.2119
 5495TIP3    H138120   4.991   0.834   0.771  1.3568 -0.4917 -0.2218
 5495TIP3    H238121   5.097   0.778   0.864  0.0226 -0.2395  1.5184
 5496TIP3   OH238122   4.457   6.323   7.940 -0.1466  0.4336  0.2010
 5496TIP3    H138123   4.480   6.409   7.905 -0.5350  0.4408 -0.0499
 5496TIP3    H238124   4.527   6.265   7.911  0.9402  0.9540  1.6745
 5497TIP3   OH238125   1.582   0.772   1.482 -0.4443 -0.3351 -0.3786
 5497TIP3    H138126   1.609   0.854   1.524  1.0859 -0.1664 -1.5917
 5497TIP3    H238127   1.503   0.795   1.433  0.5139  0.7282 -1.5165
 5498TIP3   OH238128   3.628   1.520   7.675 -0.0526 -0.0927 -0.0305
 5498TIP3    H138129   3.692   1.466   7.628 -1.0810 -1.5928  0.2212
 5498TIP3    H238130   3.615   1.475   7.758 -0.9189  0.5598  0.2021
 5499TIP3   OH238131   1.508   3.554   1.341  0.5921 -0.3474 -0.5159
 5499TIP3    H138132   1.509   3.491   1.414 -1.5930  0.8271  0.6107
 5499TIP3    H238133   1.585   3.609   1.357  1.4940 -1.5695 -0.4933
 5500TIP3   OH238134   4.461   3.064   1.428 -0.0482 -0.6698 -0.0362
 5500TIP3    H138135   4.396   3.113   1.378  0.1809 -0.1930  0.1293
 5500TIP3    H238136   4.431   3.068   1.519  0.5116  0.0601  0.1302
 5501TIP3   OH238137   2.836   2.518   7.789  0.4847 -0.5661 -0.3850
 5501TIP3    H138138   2.760   2.460   7.796  0.6129 -0.7161 -0.2532
 5501TIP3    H238139   2.893   2.492   7.861  0.4804 -0.1893 -0.2445
 5502TIP3   OH238140   2.789   1.425   0.031  0.0412  0.1779  0.0537
 5502TIP3    H138141   2.846   1.468  -0.032 -0.9979  2.8972  0.8432
 5502TIP3    H238142   2.811   1.332   0.023  3.5600  0.9249 -0.6056
 5503TIP3   OH238143   6.148   2.972   7.607 -0.0059 -0.1329  0.5860
 5503TIP3    H138144   6.185   2.956   7.520  0.6393 -2.1066  1.1612
 5503TIP3    H238145   6.099   3.054   7.598  2.0763  1.0406 -0.9870
 5504TIP3   OH238146   2.536   4.547   6.107  0.5303 -0.1915  0.3829
 5504TIP3    H138147   2.610   4.520   6.160  0.9119 -1.5405 -0.7843
 5504TIP3    H238148   2.516   4.471   6.052  0.0465  1.0838 -1.2781
 5505TIP3   OH238149   3.113   3.809   1.008 -0.1918 -0.3492 -0.0729
 5505TIP3    H138150   3.089   3.901   0.999 -0.0571 -0.4320 -1.4452
 5505TIP3    H238151   3.030   3.764   1.026 -0.3435 -0.0460 -0.0129
 5506TIP3   OH238152   1.363   1.432   8.063  0.0788  0.3045  0.1627
 5506TIP3    H138153   1.349   1.526   8.049 -0.7126  0.1651 -0.0372
 5506TIP3    H238154   1.379   1.397   7.975 -0.3126  0.1442  0.1561
 5507TIP3   OH238155   4.523   4.307   8.131 -0.3516 -0.0325 -0.2037
 5507TIP3    H138156   4.577   4.354   8.067  0.7004 -1.8127 -0.6910
 5507TIP3    H238157   4.568   4.223   8.143  0.7964  0.9615  4.5518
 5508TIP3   OH238158   1.819   3.445   0.000  0.2496 -0.0037  0.0928
 5508TIP3    H138159   1.745   3.500  -0.025  0.0927  0.3432  1.2283
 5508TIP3    H238160   1.831   3.384  -0.073 -3.5897 -2.6572  1.3604
 5509TIP3   OH238161   0.019   1.668   7.760 -0.5005  0.5096 -0.6625
 5509TIP3    H138162   0.043   1.732   7.692 -1.5292  0.3031 -1.2430
 5509TIP3    H238163  -0.061   1.628   7.727  0.6806 -1.8521 -0.8267
 5510TIP3   OH238164   4.416   2.531   1.490 -1.2974 -0.5810  0.0100
 5510TIP3    H138165   4.358   2.600   1.456 -3.1459 -1.8076  0.5187
 5510TIP3    H238166   4.442   2.481   1.412  0.2698  0.7804 -0.3971
 5511TIP3   OH238167   4.498   1.245   8.448 -0.4033 -0.0153 -0.3147
 5511TIP3    H138168   4.463   1.255   8.360  1.4906  0.6663 -1.0552
 5511TIP3    H238169   4.469   1.323   8.495  1.5748  1.5259 -1.4886
 5512TIP3   OH238170   1.457   2.971   1.687  0.3436  0.0640  0.0144
 5512TIP3    H138171   1.368   2.946   1.714 -0.4338  1.3568 -1.1995
 5512TIP3    H238172   1.465   2.935   1.599  0.8786  0.2780 -0.0245
 5513TIP3   OH238173   5.585   1.202   7.394  0.1541 -0.0498 -0.4221
 5513TIP3    H138174   5.638   1.138   7.346 -2.2325 -1.1713 -1.7557
 5513TIP3    H238175   5.516   1.149   7.434 -0.3569  1.4230  0.7167
 5514TIP3   OH238176   6.575   3.730   1.750 -0.5801 -0.0833 -0.3634
 5514TIP3    H138177   6.538   3.642   1.740  0.2266 -0.5869  0.8905
 5514TIP3    H238178   6.670   3.717   1.746 -0.3952  0.4924  1.2663
 5515TIP3   OH238179   6.557   6.304   7.642  0.3971  0.7834  0.6976
 5515TIP3    H138180   6.561   6.366   7.569  1.0173 -1.6428 -1.4941
 5515TIP3    H238181   6.464   6.284   7.650  0.3776  0.6272  0.1518
 5516TIP3   OH238182   6.017   0.865   0.762  0.2117 -0.4565 -0.3734
 5516TIP3    H138183   6.036   0.820   0.680  2.3546  1.3477 -0.9668
 5516TIP3    H238184   6.048   0.954   0.748 -0.5024  0.2283  1.9897
 5517TIP3   OH238185   6.975   1.688   8.146  0.8270 -0.5469 -0.4891
 5517TIP3    H138186   6.885   1.673   8.117  0.8017 -0.3295 -0.5239
 5517TIP3    H238187   6.974   1.775   8.185  1.2615 -0.0785 -1.4811
 5518TIP3   OH238188   2.192   0.444   6.861  0.4728  0.1655 -0.2310
 5518TIP3    H138189   2.108   0.421   6.822 -0.0298 -0.9465  1.3841
 5518TIP3    H238190   2.258   0.413   6.798 -0.3035 -0.5706 -0.6969
 5519TIP3   OH238191   3.559   0.095   7.053  0.7632 -0.3971  0.0292
 5519TIP3    H138192   3.616   0.158   7.009  1.2440 -0.9014 -0.0820
 5519TIP3    H238193   3.602   0.010   7.039 -0.2862 -0.8574 -0.4983
 5520TIP3   OH238194   2.864   6.404   1.700 -0.2407 -0.0354 -0.2091
 5520TIP3    H138195   2.878   6.482   1.646 -0.7690  0.7308  0.7240
 5520TIP3    H238196   2.917   6.419   1.778 -2.0653  0.4782  0.9985
 5521TIP3   OH238197   5.118   3.093   0.863  0.1889  0.0845 -0.2097
 5521TIP3    H138198   5.026   3.072   0.872  0.0305  0.4722 -0.8490
 5521TIP3    H238199   5.148   3.113   0.952 -0.1796 -0.6767  0.0893
 5522TIP3   OH238200   4.959   0.902   1.123 -0.4515 -0.3591  0.0682
 5522TIP3    H138201   5.006   0.849   1.188  2.8867 -0.2139 -1.9766
 5522TIP3    H238202   4.955   0.846   1.045  0.8044  1.4005 -1.3312
 5523TIP3   OH238203   1.981   5.140   0.436  0.1524  0.0085 -0.5501
 5523TIP3    H138204   2.051   5.166   0.495  0.2600  2.6928 -1.7025
 5523TIP3    H238205   2.027   5.099   0.362  0.5467  1.4374 -1.1384
 5524TIP3   OH238206   3.973   3.262   2.037  0.2913 -0.0992  0.4226
 5524TIP3    H138207   3.932   3.346   2.013  1.8854  0.5155 -0.2739
 5524TIP3    H238208   3.978   3.265   2.133 -0.0856  0.4028  0.4292
 5525TIP3   OH238209   4.323   3.708   1.792  0.1545  0.0024  0.2414
 5525TIP3    H138210   4.378   3.702   1.714  1.0294 -0.5286  0.8817
 5525TIP3    H238211   4.306   3.617   1.816  1.6088  0.1003  1.8297
 5526TIP3   OH238212   6.974   1.936   8.242 -0.7250  0.1171 -0.1921
 5526TIP3    H138213   6.906   1.975   8.298  1.3235  1.3223  1.6114
 5526TIP3    H238214   7.008   2.009   8.191  1.2291  0.2172  1.1502
 5527TIP3   OH238215   3.875   4.241   1.577 -0.3436 -0.7255  0.2540
 5527TIP3    H138216   3.867   4.239   1.481 -0.4298 -0.1987  0.2476
 5527TIP3    H238217   3.786   4.226   1.608 -0.1203 -2.0948  0.2711
 5528TIP3   OH238218   2.494   0.822   7.621 -0.3938  0.2104 -1.0332
 5528TIP3    H138219   2.502   0.742   7.571 -0.7415  0.9767 -2.3585
 5528TIP3    H238220   2.434   0.877   7.570  0.0862  1.4338 -0.3267
 5529TIP3   OH238221   2.062   2.645   0.715  0.1013 -0.6835  0.3233
 5529TIP3    H138222   2.122   2.719   0.726 -0.6600 -0.2067  1.4814
 5529TIP3    H238223   1.999   2.675   0.650  0.8603 -1.0365 -0.5991
 5530TIP3   OH238224   6.173   4.056   1.393  0.3674 -0.2165 -0.0900
 5530TIP3    H138225   6.267   4.041   1.382  0.7118  1.0077  0.9258
 5530TIP3    H238226   6.160   4.147   1.367 -0.3850 -0.1294  0.5520
 5531TIP3   OH238227   6.687   0.312   7.703  0.3929  0.4320 -0.1966
 5531TIP3    H138228   6.664   0.337   7.792 -0.1833  0.1436 -0.2580
 5531TIP3    H238229   6.608   0.330   7.652 -0.1088 -1.5703 -0.2201
 5532TIP3   OH238230   2.006   4.529   8.449  0.3206 -0.1012 -0.1243
 5532TIP3    H138231   2.073   4.491   8.392 -1.0888 -0.6550 -1.4631
 5532TIP3    H238232   1.934   4.553   8.390 -1.3858 -1.1113  1.4364
 5533TIP3   OH238233   2.692   1.734   0.121 -0.4015  0.1873 -0.3560
 5533TIP3    H138234   2.776   1.731   0.167 -0.7699  1.2351  0.4354
 5533TIP3    H238235   2.703   1.804   0.056 -0.5112  0.0206 -0.5550
 5534TIP3   OH238236   0.548   6.062   7.777 -0.1068  0.6085  0.2737
 5534TIP3    H138237   0.551   6.095   7.687 -0.5017 -1.5813 -0.6077
 5534TIP3    H238238   0.517   5.972   7.768 -1.8483  0.8744  2.7745
 5535TIP3   OH238239   0.569   5.108   1.008  0.2906 -0.5462  1.1634
 5535TIP3    H138240   0.570   5.017   0.980  0.2351 -0.0844 -0.3999
 5535TIP3    H238241   0.619   5.155   0.941 -1.8648  0.9502  0.4820
 5536TIP3   OH238242   1.633   6.949   7.145 -0.4212 -0.3345  0.1022
 5536TIP3    H138243   1.646   7.017   7.079 -0.2086  1.4908  1.9141
 5536TIP3    H238244   1.715   6.947   7.194 -0.2401 -2.3087 -0.1982
 5537TIP3   OH238245   5.789   1.463   8.438 -0.1984 -0.2602 -0.3226
 5537TIP3    H138246   5.813   1.505   8.521  1.2992 -0.7317 -0.4820
 5537TIP3    H238247   5.856   1.492   8.377  0.1014 -1.8140 -0.7616
 5538TIP3   OH238248   0.300   0.930   1.232 -0.0711 -0.0870  0.3231
 5538TIP3    H138249   0.229   0.973   1.184  0.7386  1.0263  0.0866
 5538TIP3    H238250   0.377   0.944   1.177  0.3896 -1.0347  0.7205
 5539TIP3   OH238251   2.261   0.973   7.230 -0.0765  0.0696 -0.5594
 5539TIP3    H138252   2.304   1.053   7.261 -1.2755 -0.4913  3.0462
 5539TIP3    H238253   2.323   0.903   7.250 -0.5193 -0.2301 -0.2162
 5540TIP3   OH238254   6.447   1.029   0.538  0.6800  0.1995  0.3663
 5540TIP3    H138255   6.381   1.049   0.604  0.8208  1.1367  0.2407
 5540TIP3    H238256   6.522   1.083   0.561  1.3668 -0.7679  0.4335
 5541TIP3   OH238257   6.171   4.725   0.658  0.6700 -0.5774  0.8142
 5541TIP3    H138258   6.191   4.711   0.750  0.1967 -2.0059  0.7225
 5541TIP3    H238259   6.076   4.725   0.653  0.5985  1.9899  0.6437
 5542TIP3   OH238260   3.838   3.168   1.301 -0.3450  0.3697  0.2586
 5542TIP3    H138261   3.787   3.247   1.318  0.5254  0.5095  2.5825
 5542TIP3    H238262   3.817   3.110   1.374  0.7072 -0.6703 -0.2350
 5543TIP3   OH238263   5.380   3.262   8.064 -0.9604 -1.2160 -0.6058
 5543TIP3    H138264   5.311   3.310   8.018 -1.0507 -1.1568 -0.4129
 5543TIP3    H238265   5.374   3.173   8.030 -2.3566 -1.6660  0.7220
 5544TIP3   OH238266   3.767   4.081   1.949 -0.1842  0.0712  0.6887
 5544TIP3    H138267   3.699   4.122   2.002 -0.0552  3.0201 -1.1886
 5544TIP3    H238268   3.720   4.041   1.876 -0.1306 -1.2835  1.3682
 5545TIP3   OH238269   5.444   6.005   0.103 -0.2558  0.1614  0.0422
 5545TIP3    H138270   5.505   5.965   0.165 -1.1810 -0.3920  0.6278
 5545TIP3    H238271   5.491   6.080   0.068  0.4085  0.3176  1.2004
 5546TIP3   OH238272   1.212   4.032   0.585 -0.2298 -0.4166  0.1052
 5546TIP3    H138273   1.247   4.121   0.584  3.0516 -1.5267 -1.9732
 5546TIP3    H238274   1.278   3.981   0.632 -1.0720 -2.0757 -0.4304
 5547TIP3   OH238275   1.837   3.684   7.452  0.1164 -0.2672  0.1402
 5547TIP3    H138276   1.847   3.613   7.516  2.4042  0.9227  1.2220
 5547TIP3    H238277   1.862   3.763   7.500 -0.5794  1.0353 -1.5457
 5548TIP3   OH238278   5.089   6.345   2.685 -0.4814  0.5212  0.1710
 5548TIP3    H138279   5.163   6.404   2.696  0.0647 -0.1770  0.3612
 5548TIP3    H238280   5.122   6.276   2.627 -0.7567 -0.1432  0.7809
 5549TIP3   OH238281   0.917   2.981   7.675 -0.3134  0.4998 -0.0431
 5549TIP3    H138282   0.947   2.901   7.717  0.8978  0.7083 -0.4433
 5549TIP3    H238283   0.935   3.050   7.739  0.1696  0.6403 -0.3244
 5550TIP3   OH238284   1.674   0.777   6.703 -0.0257 -0.1977  0.4740
 5550TIP3    H138285   1.702   0.694   6.665  0.4690 -0.5984  1.6703
 5550TIP3    H238286   1.589   0.757   6.743  0.2492 -0.2236  1.0542
 5551TIP3   OH238287   2.083   5.378   1.516  0.1076 -0.0693 -0.3137
 5551TIP3    H138288   2.063   5.299   1.465 -0.3478  0.6945 -1.3522
 5551TIP3    H238289   2.138   5.347   1.588 -1.2862 -1.5803  0.1807
 5552TIP3   OH238290   6.900   1.522   1.233  0.7852 -0.3684 -0.0535
 5552TIP3    H138291   6.974   1.469   1.262  0.3164 -1.0777 -0.1204
 5552TIP3    H238292   6.937   1.609   1.218  1.6947 -0.8140 -0.5028
 5553TIP3   OH238293   5.479   1.491   6.611  0.0518  0.7638 -0.2269
 5553TIP3    H138294   5.436   1.406   6.621 -0.6944  1.3113  1.5192
 5553TIP3    H238295   5.528   1.483   6.529 -1.1588 -0.8410 -0.8574
 5554TIP3   OH238296   6.184   0.518   2.011 -0.6884  0.3815  1.3036
 5554TIP3    H138297   6.199   0.436   2.059 -1.3061 -0.3062  0.3651
 5554TIP3    H238298   6.251   0.578   2.044  1.7052 -1.3956 -0.0506
 5555TIP3   OH238299   4.488   4.738   2.360  0.5056  0.0259  0.3760
 5555TIP3    H138300   4.511   4.831   2.355 -0.1474  0.1330 -1.5481
 5555TIP3    H238301   4.411   4.729   2.303  0.0882 -1.5639  1.1263
 5556TIP3   OH238302   4.703   4.813   1.055  0.4931  0.5840  0.0754
 5556TIP3    H138303   4.737   4.882   1.000 -1.5203  1.5381 -0.0783
 5556TIP3    H238304   4.694   4.853   1.141  0.6168  0.0837  0.3251
 5557TIP3   OH238305   1.623   2.307   2.228 -0.1208 -0.1729  0.1686
 5557TIP3    H138306   1.558   2.244   2.197  0.6924 -0.7022 -0.5163
 5557TIP3    H238307   1.574   2.367   2.283 -0.7279 -2.0999  1.8482
 5558TIP3   OH238308   1.301   0.434   1.665 -0.1932  0.0789  0.1137
 5558TIP3    H138309   1.282   0.475   1.581 -0.0323  1.5629  0.7559
 5558TIP3    H238310   1.384   0.473   1.693  0.5723 -1.5609  0.2636
 5559TIP3   OH238311   0.021   4.066   7.383  0.2356 -0.1357  0.2543
 5559TIP3    H138312  -0.073   4.050   7.381 -0.1612  1.7057  1.5750
 5559TIP3    H238313   0.051   4.024   7.464 -0.0474  1.8517  1.4502
 5560TIP3   OH238314   6.808   6.641   6.568  0.2601 -0.1693  0.0483
 5560TIP3    H138315   6.787   6.719   6.517  0.6649  0.4257  0.7629
 5560TIP3    H238316   6.903   6.644   6.579  0.0537  0.4658  1.9670
 5561TIP3   OH238317   4.641   1.205   1.265 -0.2038  0.4021  0.1067
 5561TIP3    H138318   4.698   1.158   1.204  0.5252  2.1316 -0.6387
 5561TIP3    H238319   4.555   1.165   1.255  0.5221 -1.2404  0.0984
 5562TIP3   OH238320   3.786   5.781   0.588 -0.1873  0.4050 -0.6857
 5562TIP3    H138321   3.699   5.811   0.562 -1.6443 -2.7829  0.0073
 5562TIP3    H238322   3.831   5.765   0.506 -1.1175 -0.1005 -1.1191
 5563TIP3   OH238323   4.025   2.808   1.278 -0.0664  0.2550  0.3040
 5563TIP3    H138324   3.963   2.801   1.205  0.1465 -1.1171  0.2304
 5563TIP3    H238325   4.002   2.736   1.336  0.1627  0.9691  1.3005
 5564TIP3   OH238326   3.109   0.776   7.853 -0.3653  0.0033  0.0332
 5564TIP3    H138327   3.039   0.714   7.875 -0.5890  0.1569 -0.2363
 5564TIP3    H238328   3.074   0.825   7.779  0.5725 -0.8318 -0.9900
 5565TIP3   OH238329   3.457   6.284   2.252  0.5199 -0.2856  0.2648
 5565TIP3    H138330   3.419   6.296   2.165  0.6084  1.1860  0.4045
 5565TIP3    H238331   3.385   6.306   2.312  0.7666 -0.2683  0.5526
 5566TIP3   OH238332   6.810   5.065   7.419 -0.2388  1.0141 -0.1409
 5566TIP3    H138333   6.905   5.052   7.419 -0.0551  2.0660  1.9861
 5566TIP3    H238334   6.779   5.014   7.493 -1.5556 -0.3614 -1.5556
 5567TIP3   OH238335   5.346   4.914   7.778 -0.7443  0.3448 -0.0166
 5567TIP3    H138336   5.304   4.841   7.824  1.0701 -0.6712  0.1208
 5567TIP3    H238337   5.408   4.950   7.841  0.4374  0.1308 -1.0104
 5568TIP3   OH238338   4.288   4.238   7.871  0.3000  0.0380 -0.0684
 5568TIP3    H138339   4.295   4.251   7.966  0.6769 -1.6721  0.1781
 5568TIP3    H238340   4.285   4.326   7.835 -2.5134  0.7964  1.7073
 5569TIP3   OH238341   3.719   1.218   6.532  0.7594  0.0474 -0.0403
 5569TIP3    H138342   3.702   1.129   6.563  0.9406  0.4366  1.2297
 5569TIP3    H238343   3.811   1.234   6.552  0.8412  0.3659 -0.6599
 5570TIP3   OH238344   3.544   1.258   0.074  0.3555 -0.8276 -0.1301
 5570TIP3    H138345   3.448   1.256   0.068  0.3197 -2.8477  0.4777
 5570TIP3    H238346   3.572   1.293  -0.011 -0.8973 -0.1886 -0.3099
 5571TIP3   OH238347   1.386   2.598   8.079  0.3191  0.1002 -0.0652
 5571TIP3    H138348   1.384   2.549   8.161  0.0593  1.5140  0.8051
 5571TIP3    H238349   1.375   2.531   8.011  0.2882 -1.0687  1.0492
 5572TIP3   OH238350   5.593   0.862   0.702 -0.0951 -0.2718 -0.2589
 5572TIP3    H138351   5.601   0.796   0.633 -2.7079 -0.8510 -0.1241
 5572TIP3    H238352   5.655   0.835   0.769 -0.1023 -1.7911 -0.8352
 5573TIP3   OH238353   4.551   4.416   0.162 -0.1805  0.0992 -0.0989
 5573TIP3    H138354   4.598   4.491   0.198 -1.9517  1.3814 -0.2856
 5573TIP3    H238355   4.616   4.369   0.110  0.9874  1.5342 -0.0128
 5574TIP3   OH238356   5.976   4.053   1.854  0.3114  0.1311 -0.7224
 5574TIP3    H138357   6.028   4.134   1.846 -2.0373  2.1389  2.2147
 5574TIP3    H238358   5.978   4.032   1.947 -1.0915 -1.8952 -1.0782
 5575TIP3   OH238359   6.076   3.066   8.401 -0.1983  0.1415 -0.0756
 5575TIP3    H138360   6.154   3.046   8.349  1.7701  1.4743  2.1534
 5575TIP3    H238361   6.083   3.008   8.478  0.0827  2.0558  1.4249
 5576TIP3   OH238362   4.926   3.588   7.279  0.6991  0.1584  0.1898
 5576TIP3    H138363   4.893   3.558   7.194  0.3523 -0.7954  0.6487
 5576TIP3    H238364   4.971   3.512   7.316  1.6022  0.8192  0.4996
 5577TIP3   OH238365   0.024   4.219   8.385  0.2765  0.5499 -0.3152
 5577TIP3    H138366  -0.060   4.248   8.348  0.2112 -0.5501 -1.0742
 5577TIP3    H238367   0.034   4.272   8.464 -1.3839  0.3664  0.0721
 5578TIP3   OH238368   2.751   0.474   7.212 -0.0344 -0.0589  0.7135
 5578TIP3    H138369   2.731   0.543   7.150 -1.7278 -0.9842  0.1662
 5578TIP3    H238370   2.801   0.517   7.281 -1.7331  1.8801  0.8076
 5579TIP3   OH238371   1.231   4.177   6.390  0.2575 -0.1249 -0.1624
 5579TIP3    H138372   1.177   4.238   6.340 -0.1313  0.3737  0.8240
 5579TIP3    H238373   1.260   4.112   6.326 -2.5088 -1.1293 -0.5276
 5580TIP3   OH238374   0.923   2.977   6.300 -0.8656  0.6753 -0.4594
 5580TIP3    H138375   1.010   2.996   6.265 -2.2866  1.6440 -3.8431
 5580TIP3    H238376   0.896   3.057   6.344  0.0436  0.2483  0.9234
 5581TIP3   OH238377   1.999   4.609   7.789 -0.4499  0.2893 -0.1792
 5581TIP3    H138378   1.944   4.565   7.724 -1.8272  2.2264 -0.4191
 5581TIP3    H238379   2.053   4.669   7.737  1.0834 -0.7206  0.1755
 5582TIP3   OH238380   2.499   5.970   0.856  0.1982 -0.0515 -0.2352
 5582TIP3    H138381   2.408   5.987   0.883 -0.0234 -0.9123 -0.4146
 5582TIP3    H238382   2.509   6.018   0.774 -1.1743 -2.5708 -2.0143
 5583TIP3   OH238383   1.378   2.395   6.573  0.2621 -0.0247 -0.0251
 5583TIP3    H138384   1.419   2.448   6.505 -0.5652  0.4530 -0.1697
 5583TIP3    H238385   1.450   2.368   6.630  0.6876  1.4105  0.1632
 5584TIP3   OH238386   4.159   6.379   1.244 -0.0769  0.5810  0.0593
 5584TIP3    H138387   4.120   6.374   1.331  1.3649  0.5765  0.7246
 5584TIP3    H238388   4.248   6.346   1.256  0.4221  1.4076 -1.2444
 5585TIP3   OH238389   1.083   4.487   8.068 -0.2892  0.5413 -0.1718
 5585TIP3    H138390   1.004   4.480   8.121 -0.5697 -0.5958 -0.6974
 5585TIP3    H238391   1.057   4.538   7.992 -0.1832  1.2152  0.2397
 5586TIP3   OH238392   4.733   3.696   8.123 -0.3459 -0.2280  0.1452
 5586TIP3    H138393   4.692   3.775   8.088  0.8189 -0.0034 -0.7643
 5586TIP3    H238394   4.713   3.628   8.059  1.5670  0.1263 -0.9091
 5587TIP3   OH238395   0.467   6.706   1.797 -0.0990  0.6079  0.0358
 5587TIP3    H138396   0.512   6.761   1.862 -0.6257  1.1244 -0.0242
 5587TIP3    H238397   0.374   6.723   1.813 -0.2265  1.4425 -1.4236
 5588TIP3   OH238398   5.342   5.094   7.393  0.5021  0.4580  0.1333
 5588TIP3    H138399   5.427   5.051   7.406 -0.1201 -1.2300 -1.0827
 5588TIP3    H238400   5.330   5.147   7.472  1.7773 -0.8321  1.2595
 5589TIP3   OH238401   1.221   4.546   6.303 -0.1394 -0.6226  0.3885
 5589TIP3    H138402   1.154   4.479   6.290  0.8501 -1.6958  0.6086
 5589TIP3    H238403   1.193   4.619   6.248 -1.7560 -0.8299  0.8984
 5590TIP3   OH238404   5.266   2.286   1.256  0.2597  0.1155  0.0447
 5590TIP3    H138405   5.272   2.300   1.351  0.6051  1.8599 -0.2008
 5590TIP3    H238406   5.331   2.218   1.238 -0.1531 -0.5951  1.1058
 5591TIP3   OH238407   2.090   6.393   0.158  0.3027  0.6026 -0.4351
 5591TIP3    H138408   2.109   6.307   0.197 -0.3485  0.2660 -0.8319
 5591TIP3    H238409   2.100   6.379   0.064 -0.7094  0.7062 -0.5745
 5592TIP3   OH238410   1.385   4.567   0.309  0.1834 -0.2924 -0.4043
 5592TIP3    H138411   1.432   4.490   0.342 -1.2018  0.4113  3.7474
 5592TIP3    H238412   1.440   4.641   0.335 -0.9932  0.3130  0.4489
 5593TIP3   OH238413   6.202   1.249   0.935 -0.4401  0.3482  0.1929
 5593TIP3    H138414   6.285   1.296   0.946 -0.1091 -0.6073  2.3995
 5593TIP3    H238415   6.159   1.257   1.021 -3.0293  1.4348 -1.0713
 5594TIP3   OH238416   1.351   5.076   1.472  0.5773 -0.0179 -0.1235
 5594TIP3    H138417   1.440   5.049   1.452  0.4653  0.2263 -0.9958
 5594TIP3    H238418   1.327   5.023   1.549  0.9478 -1.1741 -0.7724
 5595TIP3   OH238419   0.163   4.473   1.271 -0.0122 -0.4259 -0.1409
 5595TIP3    H138420   0.118   4.510   1.347  0.7199 -0.3899  0.2846
 5595TIP3    H238421   0.128   4.522   1.197 -0.6157 -0.3479  0.1912
 5596TIP3   OH238422   2.915   0.818   8.217  0.4574  0.5414 -0.8119
 5596TIP3    H138423   2.891   0.852   8.131  2.7494 -0.1035 -1.7868
 5596TIP3    H238424   2.963   0.738   8.198 -0.7276 -0.7314  1.2094
 5597TIP3   OH238425   4.081   0.524   0.407  0.2593 -0.3928 -0.1597
 5597TIP3    H138426   4.092   0.433   0.435 -0.1609 -0.9376 -1.6425
 5597TIP3    H238427   3.999   0.552   0.449  1.2004 -0.1417  1.5865
 5598TIP3   OH238428   4.972   3.086   2.059 -0.5858 -0.3068  0.3113
 5598TIP3    H138429   4.946   3.022   2.125  1.5344 -1.0480  0.5327
 5598TIP3    H238430   5.068   3.081   2.058 -0.4058  2.1838 -0.3890
 5599TIP3   OH238431   0.473   0.395   6.389 -0.1321 -0.0945  0.2507
 5599TIP3    H138432   0.389   0.439   6.374 -0.0901 -0.4756 -1.2624
 5599TIP3    H238433   0.538   0.464   6.383 -0.2609  0.0545  0.5308
 5600TIP3   OH238434   0.434   6.484   0.734  0.3318 -0.1795 -0.2068
 5600TIP3    H138435   0.409   6.400   0.771 -1.0127  1.0094  1.8148
 5600TIP3    H238436   0.355   6.514   0.687  0.9025 -0.1581 -1.1804
 5601TIP3   OH238437   0.081   0.839   2.458 -0.0528  0.0603 -0.3500
 5601TIP3    H138438   0.144   0.909   2.442  0.8291 -0.9192 -1.4124
 5601TIP3    H238439   0.133   0.758   2.452 -1.0735 -0.6998  0.6213
 5602TIP3   OH238440   4.581   5.094   0.762  0.3334  0.0836  0.5675
 5602TIP3    H138441   4.529   5.051   0.830 -0.4640 -0.5270 -0.4022
 5602TIP3    H238442   4.672   5.076   0.786  0.0283 -1.3354  0.7126
 5603TIP3   OH238443   2.468   0.556   7.236 -0.5377 -0.4704 -0.6792
 5603TIP3    H138444   2.535   0.576   7.301  0.0148 -0.5046 -1.2246
 5603TIP3    H238445   2.471   0.461   7.227 -0.3747 -0.4391 -0.9906
 5604TIP3   OH238446   0.185   0.422   6.374  0.4813  0.2352 -0.1570
 5604TIP3    H138447   0.184   0.456   6.284  1.7512 -0.8349 -0.6095
 5604TIP3    H238448   0.115   0.356   6.375  1.9498 -1.4051 -1.0847
 5605TIP3   OH238449   4.005   0.241   1.892 -0.4086  0.2551 -0.0849
 5605TIP3    H138450   4.066   0.219   1.822  0.3451  1.1926  0.2526
 5605TIP3    H238451   3.982   0.156   1.932  0.4502 -0.1357 -0.3983
 5606TIP3   OH238452   0.313   2.809   6.441  0.1446 -0.1094  0.4531
 5606TIP3    H138453   0.344   2.757   6.367 -0.3925 -1.4501  1.1342
 5606TIP3    H238454   0.254   2.751   6.489 -0.8547  1.2883  1.0066
 5607TIP3   OH238455   2.515   4.884   2.483 -0.4375 -0.5161  0.0870
 5607TIP3    H138456   2.576   4.831   2.535  0.3827 -0.7581 -1.0791
 5607TIP3    H238457   2.475   4.821   2.423 -0.5253 -0.0575 -0.3386
 5608TIP3   OH238458   5.506   0.046   1.460  0.0311 -0.5850 -0.0989
 5608TIP3    H138459   5.601   0.045   1.472  0.0111 -0.1836  0.1099
 5608TIP3    H238460   5.471   0.072   1.546 -0.1600  1.3220 -0.7107
 5609TIP3   OH238461   4.793   5.964   0.910 -0.5795  0.4733 -0.1487
 5609TIP3    H138462   4.807   5.930   0.999  0.1149  0.0025 -0.4304
 5609TIP3    H238463   4.790   5.885   0.855  3.5795  0.8304 -1.1945
 5610TIP3   OH238464   5.912   5.625   1.182 -0.1094  0.3418 -0.3817
 5610TIP3    H138465   5.969   5.561   1.224  1.2599  0.6228 -1.7560
 5610TIP3    H238466   5.864   5.575   1.116 -1.9174 -0.0001  1.0806
 5611TIP3   OH238467   2.370   6.685   7.214  0.0585  0.4643  0.0085
 5611TIP3    H138468   2.318   6.741   7.157  2.1069  1.9934 -0.4943
 5611TIP3    H238469   2.457   6.683   7.174  0.7875 -0.8556  1.5008
 5612TIP3   OH238470   4.664   1.838   8.376 -0.1184 -0.1990  0.4036
 5612TIP3    H138471   4.625   1.904   8.434 -0.8943  0.4552 -0.8356
 5612TIP3    H238472   4.654   1.755   8.424 -0.0427  0.4191  1.5323
 5613TIP3   OH238473   4.009   2.724   2.123 -0.0765  0.0380  0.2276
 5613TIP3    H138474   3.999   2.819   2.134 -0.0500  0.2559 -1.2980
 5613TIP3    H238475   4.028   2.691   2.210  1.3832  1.6401  0.5719
 5614TIP3   OH238476   4.924   4.858   1.473  0.4216  0.6355 -0.0583
 5614TIP3    H138477   4.939   4.877   1.566  1.5291  2.1303 -0.4999
 5614TIP3    H238478   5.004   4.813   1.445 -0.1929 -0.4233 -0.1490
 5615TIP3   OH238479   6.203   1.573   0.316 -0.0140  0.5814 -0.4464
 5615TIP3    H138480   6.213   1.480   0.335  0.8415  1.0774  1.7359
 5615TIP3    H238481   6.239   1.583   0.227 -1.7369 -1.4007 -1.4649
 5616TIP3   OH238482   1.697   5.918   2.377  0.6926  0.0870 -0.2217
 5616TIP3    H138483   1.679   6.012   2.377 -0.9305 -0.1892 -0.4040
 5616TIP3    H238484   1.691   5.893   2.285 -0.7131 -0.4723 -0.0117
 5617TIP3   OH238485   2.783   1.939   8.475  0.3360 -0.0703  0.0657
 5617TIP3    H138486   2.780   1.921   8.381  1.4136 -2.9076  0.4813
 5617TIP3    H238487   2.870   1.976   8.489 -0.6188  2.5253 -0.2779
 5618TIP3   OH238488   3.612   1.914   2.178 -0.2025  0.3778  0.2898
 5618TIP3    H138489   3.524   1.917   2.213 -0.4588  0.3577 -0.3334
 5618TIP3    H238490   3.612   1.977   2.106 -1.0356 -2.6251 -2.5964
 5619TIP3   OH238491   3.887   2.014   7.795 -0.5955 -0.8070  0.6421
 5619TIP3    H138492   3.808   1.962   7.779 -1.6533 -0.0516  2.9396
 5619TIP3    H238493   3.899   2.065   7.714 -1.1567 -2.5195 -0.5701
 5620TIP3   OH238494   6.626   3.490   0.896 -0.7603 -0.5624  0.0959
 5620TIP3    H138495   6.651   3.400   0.879  1.1548 -0.1418  0.4887
 5620TIP3    H238496   6.694   3.543   0.855 -1.5210  0.6924  0.3812
 5621TIP3   OH238497   5.630   3.767   0.323 -0.3787 -0.4659 -0.4545
 5621TIP3    H138498   5.555   3.821   0.297 -0.3640 -0.8374 -1.3180
 5621TIP3    H238499   5.600   3.720   0.401 -0.9055 -0.2993 -0.5533
 5622TIP3   OH238500   0.709   4.907   2.468  0.4976 -0.4883 -0.4018
 5622TIP3    H138501   0.777   4.972   2.449  0.5679 -0.4564 -0.0418
 5622TIP3    H238502   0.648   4.915   2.395  0.1067  0.5082  0.0118
 5623TIP3   OH238503   4.108   2.777   8.177 -0.4713  0.5423 -0.4801
 5623TIP3    H138504   4.023   2.760   8.218 -1.0395 -4.5931 -3.0076
 5623TIP3    H238505   4.171   2.737   8.237 -0.6012 -0.9502 -1.2795
 5624TIP3   OH238506   2.302   0.014   1.495  0.3219  0.2895 -0.0487
 5624TIP3    H138507   2.215  -0.002   1.533  0.0257  1.2484 -0.2800
 5624TIP3    H238508   2.347  -0.069   1.502 -1.0467 -0.5861 -1.0124
 5625TIP3   OH238509   0.407   1.410   7.536 -0.4637 -0.0215 -0.0222
 5625TIP3    H138510   0.389   1.455   7.618  2.0627  1.4412 -0.1616
 5625TIP3    H238511   0.483   1.356   7.555 -0.2783 -0.2106 -1.2155
 5626TIP3   OH238512   0.620   0.488   0.843 -0.5299  0.3567 -0.2336
 5626TIP3    H138513   0.707   0.527   0.845 -0.3699  0.0327  1.8491
 5626TIP3    H238514   0.636   0.393   0.841 -0.8973  0.2852 -2.4959
 5627TIP3   OH238515   2.817   3.897   1.425  0.0499 -0.2887  0.4473
 5627TIP3    H138516   2.764   3.967   1.464  1.1137  0.8972 -0.1662
 5627TIP3    H238517   2.775   3.816   1.455 -2.1262  0.5856 -0.0393
 5628TIP3   OH238518   6.980   6.869   7.329  0.0441 -0.0879  0.0556
 5628TIP3    H138519   6.980   6.870   7.425 -2.5351 -2.8969  0.2625
 5628TIP3    H238520   7.051   6.810   7.305  1.4263  1.4856  0.0903
 5629TIP3   OH238521   1.575   0.606   8.235 -0.2971  0.7436  0.6436
 5629TIP3    H138522   1.584   0.676   8.299 -2.3622 -0.4204  2.3642
 5629TIP3    H238523   1.659   0.561   8.236  0.1666  1.5953  1.5243
 5630TIP3   OH238524   1.330   1.836   0.641  0.1780  0.1258  0.9022
 5630TIP3    H138525   1.352   1.802   0.727 -0.9234 -0.0802  1.1203
 5630TIP3    H238526   1.346   1.930   0.647  0.3064  0.0806  1.2708
 5631TIP3   OH238527   1.056   5.858   1.649  0.5697  0.3337 -0.8574
 5631TIP3    H138528   1.138   5.860   1.600  0.7379 -2.7071 -0.9285
 5631TIP3    H238529   1.081   5.885   1.738  2.6394 -3.8713  0.1184
 5632TIP3   OH238530   5.834   0.193   8.297  0.1928 -0.7792 -1.0368
 5632TIP3    H138531   5.881   0.150   8.225 -0.3632  0.9208 -2.4886
 5632TIP3    H238532   5.745   0.205   8.264  0.2720  1.2477 -0.6327
 5633TIP3   OH238533   6.609   5.835   0.832  0.0201 -0.2381 -0.3113
 5633TIP3    H138534   6.515   5.847   0.845 -0.1350 -2.9714  2.3328
 5633TIP3    H238535   6.621   5.740   0.831  2.9577 -0.0371  1.9834
 5634TIP3   OH238536   1.236   2.493   8.432  0.1680  0.1584  0.0562
 5634TIP3    H138537   1.145   2.510   8.457  0.3552  0.3655  0.6225
 5634TIP3    H238538   1.230   2.426   8.364 -0.4526  0.7884 -0.5189
 5635TIP3   OH238539   5.332   5.203   7.654 -0.5040 -0.4766 -0.0538
 5635TIP3    H138540   5.327   5.123   7.708  2.2376  0.3411  1.6092
 5635TIP3    H238541   5.253   5.252   7.677 -1.7274 -2.2068 -0.3476
 5636TIP3   OH238542   1.113   1.535   7.805  0.0158 -0.1982 -0.0182
 5636TIP3    H138543   1.105   1.483   7.726 -0.9503 -0.7529  0.4314
 5636TIP3    H238544   1.157   1.615   7.777 -1.1834  0.0417 -1.2997
 5637TIP3   OH238545   4.385   3.965   0.072 -0.4878  0.7648 -0.3405
 5637TIP3    H138546   4.339   3.938   0.152 -1.4951  2.3476 -0.3477
 5637TIP3    H238547   4.315   3.984   0.010  0.2785 -0.0120 -1.4873
 5638TIP3   OH238548   3.856   1.504   1.806  0.1357  0.3962 -0.3575
 5638TIP3    H138549   3.799   1.475   1.734 -1.0972 -1.5419  1.2719
 5638TIP3    H238550   3.933   1.447   1.800 -0.3243 -0.3116  0.2837
 5639TIP3   OH238551   5.631   4.876   0.442 -0.0153  0.0279 -0.8692
 5639TIP3    H138552   5.562   4.907   0.500 -1.5416  0.2732 -2.7102
 5639TIP3    H238553   5.711   4.886   0.493 -1.3268 -0.5932  1.4778
 5640TIP3   OH238554   3.858   0.980   7.671 -0.2883 -0.7922 -0.2311
 5640TIP3    H138555   3.779   1.007   7.716 -0.5366 -0.4349 -0.8602
 5640TIP3    H238556   3.829   0.913   7.609 -0.1637 -0.4056 -0.7138
 5641TIP3   OH238557   2.241   3.402   0.148 -0.2479 -0.2553 -0.0926
 5641TIP3    H138558   2.309   3.461   0.115 -0.3471  0.5045  1.0225
 5641TIP3    H238559   2.182   3.458   0.198 -0.9940 -1.1157  0.0145
 5642TIP3   OH238560   1.842   2.747   6.739  0.4661 -0.1098 -0.4480
 5642TIP3    H138561   1.753   2.744   6.774  0.8054 -0.9628  0.4027
 5642TIP3    H238562   1.832   2.782   6.650 -0.8095 -0.8923 -0.6401
 5643TIP3   OH238563   0.988   4.228   0.741  0.7689 -0.1433 -0.0510
 5643TIP3    H138564   0.904   4.192   0.767  0.6563  0.8180  1.0054
 5643TIP3    H238565   1.013   4.178   0.663 -1.4604  0.5221 -1.2837
 5644TIP3   OH238566   1.440   2.112   1.696  0.5710  0.0063  0.3436
 5644TIP3    H138567   1.364   2.086   1.747  0.3751 -1.4910 -0.6531
 5644TIP3    H238568   1.467   2.195   1.734  1.5322 -1.7930  4.1153
 5645TIP3   OH238569   2.214   3.088   6.843 -0.1165 -0.4011 -0.2213
 5645TIP3    H138570   2.186   2.999   6.867 -0.9283  0.2920  1.5780
 5645TIP3    H238571   2.133   3.135   6.825  0.2232  0.3106  0.0810
 5646TIP3   OH238572   6.737   0.585   6.673  0.5384  0.0793  0.7047
 5646TIP3    H138573   6.762   0.673   6.648  1.1186  0.3417  2.0886
 5646TIP3    H238574   6.644   0.579   6.653  0.4183  1.1237  0.8980
 5647TIP3   OH238575   6.928   2.714   0.368  0.3703  0.4331 -0.9649
 5647TIP3    H138576   6.877   2.712   0.287  1.1520 -0.0588 -1.4546
 5647TIP3    H238577   6.977   2.797   0.364 -0.9034  1.2668 -0.1485
 5648TIP3   OH238578   3.868   2.156   7.006  0.1169 -0.2860  0.7141
 5648TIP3    H138579   3.893   2.237   6.962 -0.2541 -0.4018  0.2738
 5648TIP3    H238580   3.873   2.089   6.937 -0.8282 -0.4052  0.7518
 5649TIP3   OH238581   4.428   2.088   7.061  0.6675  0.1836 -0.1849
 5649TIP3    H138582   4.344   2.077   7.107  1.8434 -2.0491  1.6308
 5649TIP3    H238583   4.410   2.057   6.972 -0.8238  1.3909 -0.3568
 5650TIP3   OH238584   6.272   5.425   0.263 -0.6889 -0.1582  0.1311
 5650TIP3    H138585   6.328   5.466   0.329  0.0403  1.5295 -1.4550
 5650TIP3    H238586   6.196   5.483   0.258  0.7422  1.6955 -2.7654
 5651TIP3   OH238587   5.420   5.196   1.011  0.2065  0.1095  0.6078
 5651TIP3    H138588   5.430   5.267   0.949  0.6576 -0.3134  0.1831
 5651TIP3    H238589   5.465   5.227   1.090 -0.0688  0.5075  0.6079
 5652TIP3   OH238590   6.410   2.400   0.259  0.0354 -0.1246  0.1175
 5652TIP3    H138591   6.406   2.310   0.228  0.5171 -0.1801  0.2027
 5652TIP3    H238592   6.504   2.422   0.258 -0.0798  0.3848  0.0639
 5653TIP3   OH238593   5.894   0.078   7.397 -0.4370 -0.2287 -0.5855
 5653TIP3    H138594   5.866   0.025   7.472 -1.2152 -1.1877 -1.5246
 5653TIP3    H238595   5.990   0.077   7.401 -0.4499  0.9045  1.1752
 5654TIP3   OH238596   2.031   2.525   8.086 -0.2307 -0.0932 -0.2571
 5654TIP3    H138597   2.098   2.593   8.083  0.1661 -0.4261  0.6491
 5654TIP3    H238598   1.974   2.551   8.158  1.8467 -2.4048  2.4285
 5655TIP3   OH238599   1.313   6.166   0.756  0.5563  0.0595  0.0795
 5655TIP3    H138600   1.351   6.151   0.670  1.3339  1.4971  0.1361
 5655TIP3    H238601   1.369   6.116   0.816  0.3080 -0.5491 -0.1892
 5656TIP3   OH238602   6.090   6.692   7.993 -0.3279  0.8562  0.1953
 5656TIP3    H138603   6.112   6.731   8.077 -0.5185  1.2757  0.0573
 5656TIP3    H238604   5.995   6.675   7.998 -0.2920  0.6392  0.1614
 5657TIP3   OH238605   3.160   3.963   7.611 -0.0420  0.0754 -0.4259
 5657TIP3    H138606   3.115   3.980   7.528 -0.0859 -2.8186 -1.0994
 5657TIP3    H238607   3.119   4.024   7.673  1.0840  3.4988 -2.7275
 5658TIP3   OH238608   5.331   4.869   8.476 -0.5977 -0.0665 -0.4545
 5658TIP3    H138609   5.289   4.954   8.490 -0.9075 -0.1036 -1.0848
 5658TIP3    H238610   5.423   4.890   8.458 -0.3434  0.0193  0.8965
 5659TIP3   OH238611   1.890   2.951   7.738  0.7527 -0.0472  0.2194
 5659TIP3    H138612   1.970   2.984   7.696  0.9762 -0.8035  0.0325
 5659TIP3    H238613   1.922   2.898   7.811  0.4479 -0.7243 -0.1247
 5660TIP3   OH238614   5.503   4.851   2.094 -0.5829 -0.1721 -0.8012
 5660TIP3    H138615   5.512   4.769   2.142  1.4025  1.0501  1.0999
 5660TIP3    H238616   5.579   4.852   2.035 -0.0849  0.6631 -0.1649
 5661TIP3   OH238617   5.243   3.541   1.667 -0.1619 -0.1617  0.4004
 5661TIP3    H138618   5.223   3.600   1.740 -1.2571  0.3044 -0.2522
 5661TIP3    H238619   5.160   3.498   1.647  0.2796 -0.7830 -0.1440
 5662TIP3   OH238620   4.152   3.452   1.883 -1.0659  0.4276 -0.7920
 5662TIP3    H138621   4.204   3.399   1.943 -0.3539  0.6596 -1.1876
 5662TIP3    H238622   4.130   3.392   1.811 -0.8173  0.4932 -0.9233
 5663TIP3   OH238623   4.670   0.087   2.499  0.1326  0.0244 -0.1252
 5663TIP3    H138624   4.606   0.026   2.536 -0.7362  0.6900 -0.5002
 5663TIP3    H238625   4.745   0.031   2.475  0.1170 -0.6220  1.2215
 5664TIP3   OH238626   0.887   0.705   1.569 -0.0194 -0.0692  0.1449
 5664TIP3    H138627   0.864   0.798   1.564 -1.7051 -0.4942 -0.4221
 5664TIP3    H238628   0.935   0.688   1.488 -1.1675 -0.0563 -0.5546
 5665TIP3   OH238629   0.677   5.053   7.406 -0.3459  0.3454 -0.4451
 5665TIP3    H138630   0.597   5.038   7.457 -0.9662  1.2090 -1.1315
 5665TIP3    H238631   0.648   5.107   7.332  1.1199  1.8050 -0.0051
 5666TIP3   OH238632   1.287   0.427   8.436 -0.2274  0.2250  0.1593
 5666TIP3    H138633   1.322   0.350   8.389 -0.2816  0.9385 -1.0898
 5666TIP3    H238634   1.222   0.464   8.376  0.4705  1.7936  0.3402
 5667TIP3   OH238635   5.992   6.276   7.168  0.9049  0.1650  0.1958
 5667TIP3    H138636   5.994   6.213   7.240  2.4490 -0.2907 -0.1942
 5667TIP3    H238637   5.981   6.361   7.211 -0.8806 -0.3168  0.7514
 5668TIP3   OH238638   0.325   4.406   8.182  0.4010 -0.1121 -0.3274
 5668TIP3    H138639   0.254   4.467   8.167 -0.1917 -0.7972 -0.3649
 5668TIP3    H238640   0.294   4.323   8.145  1.3202 -0.3577 -0.5807
 5669TIP3   OH238641   5.837   4.804   0.992 -0.1486  0.4836  0.4025
 5669TIP3    H138642   5.778   4.748   0.942  0.9840  0.1974 -0.6681
 5669TIP3    H238643   5.781   4.874   1.026 -1.2175 -0.1772  0.0458
 5670TIP3   OH238644   0.878   1.979   2.003  0.5290  0.3288 -0.3301
 5670TIP3    H138645   0.857   2.012   2.091 -1.1670  1.1753 -0.9970
 5670TIP3    H238646   0.940   1.908   2.018  2.3509  2.1224  1.3778
 5671TIP3   OH238647   5.399   0.225   8.428 -0.7328 -0.1357 -0.3900
 5671TIP3    H138648   5.380   0.133   8.410 -0.6416 -0.0602 -0.8837
 5671TIP3    H238649   5.474   0.246   8.372 -0.9158  0.3084 -0.4742
 5672TIP3   OH238650   6.620   6.838   6.754  0.0209 -0.1352 -0.3575
 5672TIP3    H138651   6.683   6.783   6.801  0.0283  0.3738  0.2293
 5672TIP3    H238652   6.674   6.907   6.714 -0.0698 -0.1645 -0.5312
 5673TIP3   OH238653   2.153   4.472   6.296  0.2427  0.3313 -0.1680
 5673TIP3    H138654   2.246   4.462   6.317  0.1751 -1.0119 -0.4203
 5673TIP3    H238655   2.125   4.549   6.346  0.8755 -0.7708  2.0122
 5674TIP3   OH238656   3.413   4.542   2.746  0.6050 -0.1844 -0.1596
 5674TIP3    H138657   3.484   4.479   2.760  0.3688 -0.2238  0.8804
 5674TIP3    H238658   3.335   4.488   2.738  0.4953 -0.0557  0.0628
 5675TIP3   OH238659   3.414   1.992   7.403  0.4587 -0.7121  0.0534
 5675TIP3    H138660   3.472   2.065   7.426  0.8791 -1.3737  1.1567
 5675TIP3    H238661   3.408   1.940   7.483 -2.2179 -0.3195  0.1851
 5676TIP3   OH238662   5.040   1.119   1.915  0.0914 -0.4790  0.1795
 5676TIP3    H138663   4.953   1.152   1.892 -0.2942 -2.0583 -0.8540
 5676TIP3    H238664   5.089   1.196   1.944 -1.2469  0.6585 -0.4672
 5677TIP3   OH238665   0.942   1.901   1.134  0.2192 -0.0900 -0.4832
 5677TIP3    H138666   1.003   1.829   1.118  2.0733  0.8268  1.8424
 5677TIP3    H238667   0.861   1.874   1.091  1.3631 -2.7194 -1.1950
 5678TIP3   OH238668   4.378   3.530   1.109 -0.4545  0.1906  0.7517
 5678TIP3    H138669   4.432   3.570   1.042 -0.3941 -0.0446  0.6594
 5678TIP3    H238670   4.428   3.453   1.138 -1.4058 -0.8938 -0.3905
 5679TIP3   OH238671   4.499   4.743   0.086 -0.1436  0.1603 -0.1002
 5679TIP3    H138672   4.506   4.743   0.181  0.7874  1.1402 -0.1477
 5679TIP3    H238673   4.483   4.652   0.063  2.6089 -0.6453  0.8083
 5680TIP3   OH238674   0.509   1.922   0.065 -0.5036  0.2686  0.3829
 5680TIP3    H138675   0.455   1.862   0.015  0.2587  0.9304 -1.3232
 5680TIP3    H238676   0.461   1.937   0.147 -1.3964 -1.4652  0.2044
 5681TIP3   OH238677   4.008   1.110   8.115  0.0272  0.0544  0.0801
 5681TIP3    H138678   4.061   1.032   8.132  0.2694 -0.3796 -2.3069
 5681TIP3    H238679   4.020   1.164   8.192  2.7761 -0.6792  0.2711
 5682TIP3   OH238680   0.031   3.912   7.119 -0.3788 -0.1860  0.2321
 5682TIP3    H138681   0.051   3.988   7.173 -2.2148  0.4651  0.0675
 5682TIP3    H238682   0.072   3.931   7.035  0.2999 -0.0074  0.5945
 5683TIP3   OH238683   2.116   5.493   7.071 -0.2460  0.2969 -0.2142
 5683TIP3    H138684   2.058   5.456   7.137  0.4732 -2.5798 -1.0467
 5683TIP3    H238685   2.200   5.502   7.116 -0.2574  0.2594 -0.1854
 5684TIP3   OH238686   3.918   6.023   1.536  0.4348 -0.6364  0.0882
 5684TIP3    H138687   3.924   6.103   1.485  0.8786  1.0812  2.6588
 5684TIP3    H238688   4.004   5.982   1.528  0.2851 -0.7479 -1.0325
 5685TIP3   OH238689   2.794   0.989   7.465  0.1055  0.0298  0.8866
 5685TIP3    H138690   2.855   1.063   7.457  0.9075 -0.6113  0.8495
 5685TIP3    H238691   2.777   0.962   7.375 -0.5449  0.4448  0.8801
 5686TIP3   OH238692   2.552   3.507   7.910 -0.0070 -0.0432  0.6050
 5686TIP3    H138693   2.507   3.469   7.834 -2.9419  0.9356  1.7015
 5686TIP3    H238694   2.535   3.444   7.981  1.5568 -0.2856  0.8028
 5687TIP3   OH238695   0.933   1.927   0.399 -0.3125  0.3407  0.0990
 5687TIP3    H138696   0.916   2.016   0.430 -0.3257  0.0659  0.9040
 5687TIP3    H238697   0.881   1.919   0.320 -0.6332  0.9175  0.2453
 5688TIP3   OH238698   4.412   6.725   2.067  0.1741 -0.5817  0.0607
 5688TIP3    H138699   4.421   6.717   2.162 -1.5702  0.5193  0.3591
 5688TIP3    H238700   4.473   6.794   2.043  0.7040 -0.9425  0.3506
 5689TIP3   OH238701   4.133   2.894   7.338 -0.2802  0.5430  0.4281
 5689TIP3    H138702   4.161   2.985   7.339 -0.3906  0.5942 -0.7140
 5689TIP3    H238703   4.058   2.892   7.278 -0.9701 -0.1060  1.2778
 5690TIP3   OH238704   2.981   0.747   1.972 -0.2502 -0.1877  0.8080
 5690TIP3    H138705   2.951   0.662   1.939 -1.2386  1.2241 -2.3180
 5690TIP3    H238706   3.046   0.725   2.039 -1.2459 -3.3633  0.8890
 5691TIP3   OH238707   2.940   2.661   1.012  0.1134  0.1092  0.2448
 5691TIP3    H138708   2.896   2.651   1.096 -0.7448 -0.0673 -0.2119
 5691TIP3    H238709   3.033   2.646   1.031  0.0210  0.7386  1.2735
 5692TIP3   OH238710   5.737   5.700   1.891  0.0971 -0.3787  0.4026
 5692TIP3    H138711   5.796   5.774   1.907  0.1896 -0.5286  0.7673
 5692TIP3    H238712   5.652   5.741   1.872  0.2376 -0.1713  0.2151
 5693TIP3   OH238713   5.980   6.243   6.870 -0.6295 -0.0247  0.2001
 5693TIP3    H138714   6.027   6.315   6.827  0.3809 -0.7456  0.0541
 5693TIP3    H238715   6.000   6.254   6.963 -0.9895  0.2517  0.2428
 5694TIP3   OH238716   0.164   3.973   1.706 -0.7184  0.1047  0.4791
 5694TIP3    H138717   0.181   3.953   1.798  0.5693 -1.6009 -0.0936
 5694TIP3    H238718   0.234   4.034   1.681 -0.3328 -0.3989  0.3167
 5695TIP3   OH238719   2.129   4.471   8.013 -0.2942 -0.3613 -0.2621
 5695TIP3    H138720   2.203   4.504   7.962  1.0355  0.6227  2.0937
 5695TIP3    H238721   2.053   4.518   7.979  0.4719  0.0116 -1.5151
 5696TIP3   OH238722   3.989   6.280   7.802  0.6766  0.4212  0.3353
 5696TIP3    H138723   3.949   6.193   7.793  0.9795  0.0037  2.5182
 5696TIP3    H238724   4.069   6.264   7.852 -0.7786  2.2662  3.5358
 5697TIP3   OH238725   2.849   1.330   0.399 -1.1876 -0.3726 -0.3858
 5697TIP3    H138726   2.797   1.385   0.458 -0.9726 -0.4315 -0.1363
 5697TIP3    H238727   2.784   1.283   0.346 -1.4610 -1.5240  0.8991
 5698TIP3   OH238728   6.431   3.688   8.130 -0.2558  0.1335 -0.0733
 5698TIP3    H138729   6.418   3.698   8.036 -0.0592  3.1731  0.1041
 5698TIP3    H238730   6.498   3.621   8.139  0.9219  0.9393 -2.2026
 5699TIP3   OH238731   2.757   1.849   0.638  0.2324  0.0933  0.0369
 5699TIP3    H138732   2.761   1.808   0.725  1.6320 -1.4450 -0.6812
 5699TIP3    H238733   2.664   1.870   0.625  0.2780  2.7502  2.8898
 5700TIP3   OH238734   5.874   3.782   0.755  0.0562  0.1993 -0.2194
 5700TIP3    H138735   5.894   3.734   0.674 -0.5709  1.0019 -0.8723
 5700TIP3    H238736   5.958   3.815   0.785  0.2383  0.3096 -0.8244
 5701TIP3   OH238737   2.066   3.898   7.018  0.0990 -0.0989 -0.0152
 5701TIP3    H138738   2.021   3.878   7.100 -0.4654  0.8221 -0.0850
 5701TIP3    H238739   2.015   3.855   6.950 -0.9811  1.2874 -0.1413
 5702TIP3   OH238740   4.795   0.130   7.866 -0.1168  0.1205  0.4148
 5702TIP3    H138741   4.712   0.162   7.830 -0.4410 -0.6317  0.4741
 5702TIP3    H238742   4.831   0.206   7.912 -1.0211  0.3217  0.8247
 5703TIP3   OH238743   4.998   1.431   7.985  0.4818 -0.0917 -0.4860
 5703TIP3    H138744   5.029   1.388   7.905 -1.1315  0.8278 -1.6736
 5703TIP3    H238745   5.072   1.428   8.045  2.9677  2.0823 -3.1570
 5704TIP3   OH238746   4.433   1.026   1.997 -0.0616  0.2876  0.4152
 5704TIP3    H138747   4.454   1.117   2.021  1.0393  0.8245 -2.2408
 5704TIP3    H238748   4.509   0.976   2.028 -0.0324  0.4785  0.6598
 5705TIP3   OH238749   1.566   4.320   0.341 -0.3958 -0.1008  0.4119
 5705TIP3    H138750   1.509   4.243   0.346 -0.3208 -0.0916  1.5672
 5705TIP3    H238751   1.592   4.324   0.249 -3.4093  0.7293 -0.5296
 5706TIP3   OH238752   5.826   1.347   7.357  0.8087 -0.4551 -0.3970
 5706TIP3    H138753   5.731   1.332   7.349  0.2422  2.7680 -1.4634
 5706TIP3    H238754   5.862   1.315   7.274  0.5208 -0.9385 -0.3389
 5707TIP3   OH238755   2.457   1.644   6.715  0.3944  0.1327  0.2915
 5707TIP3    H138756   2.365   1.663   6.734  0.7910  0.8058  1.6719
 5707TIP3    H238757   2.456   1.555   6.681 -0.9855  0.8496 -1.7581
 5708TIP3   OH238758   2.264   6.438   8.395 -0.1658 -0.4645  0.2759
 5708TIP3    H138759   2.217   6.502   8.342  0.4432  0.4049  0.7658
 5708TIP3    H238760   2.356   6.465   8.389 -0.1212 -0.0903  2.1032
 5709TIP3   OH238761   5.736   1.152   1.086  0.8030  0.0503  0.1113
 5709TIP3    H138762   5.750   1.210   1.161  1.6468  0.4252 -0.3178
 5709TIP3    H238763   5.652   1.110   1.103  1.0286  0.0510  1.3155
 5710TIP3   OH238764   2.094   4.972   0.254  0.5318 -0.4575 -0.1615
 5710TIP3    H138765   2.091   4.888   0.300 -1.3569  0.7118  2.0636
 5710TIP3    H238766   2.024   4.967   0.189  1.6666 -1.2504 -1.3652
 5711TIP3   OH238767   3.950   0.320   0.687 -0.4927 -0.6395 -1.0480
 5711TIP3    H138768   3.979   0.360   0.769 -0.4010 -0.9773 -0.9133
 5711TIP3    H238769   3.906   0.390   0.641 -0.4585 -0.4191 -0.7510
 5712TIP3   OH238770   5.351   1.842   2.084  0.0395 -0.3753 -0.7425
 5712TIP3    H138771   5.288   1.771   2.072 -0.5023  0.1666 -1.2119
 5712TIP3    H238772   5.351   1.860   2.178  0.4407 -1.2152 -0.5720
 5713TIP3   OH238773   6.805   2.420   7.093  0.2312 -0.0447  0.0055
 5713TIP3    H138774   6.832   2.497   7.042  2.0000 -0.7768 -0.2344
 5713TIP3    H238775   6.801   2.452   7.183 -3.6673  1.4593 -0.5217
 5714TIP3   OH238776   6.493   5.933   2.110 -0.2615 -0.2276 -0.3760
 5714TIP3    H138777   6.404   5.900   2.118 -0.3833 -0.1163 -1.1831
 5714TIP3    H238778   6.496   6.010   2.166 -0.9306  0.2687 -1.0143
 5715TIP3   OH238779   5.034   3.795   1.344 -0.3911 -0.0758 -0.5345
 5715TIP3    H138780   5.102   3.827   1.403 -1.1226 -1.5857  1.2289
 5715TIP3    H238781   4.994   3.874   1.309  0.2741  0.8854  0.7780
 5716TIP3   OH238782   2.197   5.870   6.369 -0.0513 -0.7830  0.0321
 5716TIP3    H138783   2.275   5.844   6.320  0.5262 -1.0313  1.0548
 5716TIP3    H238784   2.192   5.807   6.441 -1.3389 -0.9164 -0.1609
 5717TIP3   OH238785   6.306   3.099   2.045 -0.0208  0.0475  0.4402
 5717TIP3    H138786   6.292   3.160   2.117 -0.0789  0.5413  0.0105
 5717TIP3    H238787   6.220   3.089   2.004  0.1043  0.1169  0.1588
 5718TIP3   OH238788   6.734   1.461   7.391  0.0207  0.3791 -0.2531
 5718TIP3    H138789   6.661   1.452   7.330  0.4800 -0.7865 -0.6551
 5718TIP3    H238790   6.737   1.377   7.437  0.0258  1.0446  1.0059
 5719TIP3   OH238791   0.490   0.744   7.304 -0.5828  0.4778  0.1015
 5719TIP3    H138792   0.553   0.720   7.236 -1.6451  1.6689 -1.3960
 5719TIP3    H238793   0.412   0.773   7.255 -1.8215  0.2754  1.8539
 5720TIP3   OH238794   6.310   6.241   2.348 -0.4426  0.2756 -0.0893
 5720TIP3    H138795   6.267   6.177   2.291 -0.6723  0.3963 -0.0517
 5720TIP3    H238796   6.245   6.310   2.360 -0.5087  0.1058  0.5698
 5721TIP3   OH238797   6.653   1.277   0.056  0.3024  0.0379  0.2872
 5721TIP3    H138798   6.583   1.313   0.002 -0.1202 -0.6749  0.3519
 5721TIP3    H238799   6.614   1.202   0.100  1.1697 -0.5311  0.1204
 5722TIP3   OH238800   2.504   2.875   6.063  0.8373  0.2313  0.1450
 5722TIP3    H138801   2.533   2.890   6.153  1.1148  1.8137 -0.1829
 5722TIP3    H238802   2.563   2.929   6.010 -1.6867  2.3807 -0.6792
 5723TIP3   OH238803   4.554   1.229   2.107  0.0045 -0.1062  0.3893
 5723TIP3    H138804   4.526   1.185   2.187  1.7275  0.1811  1.1767
 5723TIP3    H238805   4.594   1.310   2.137 -0.3261  0.5401 -0.8560
 5724TIP3   OH238806   3.447   0.907   7.415 -0.1495 -0.0353 -0.1433
 5724TIP3    H138807   3.443   0.845   7.488 -0.8534 -0.3994 -0.4758
 5724TIP3    H238808   3.477   0.989   7.455  1.7080 -0.8124  0.1313
 5725TIP3   OH238809   2.024   3.086   8.420 -0.0672  0.0595 -0.5357
 5725TIP3    H138810   1.997   3.094   8.512  0.4537  1.9160 -0.5149
 5725TIP3    H238811   2.004   2.995   8.398  2.5350 -1.4002  2.2969
 5726TIP3   OH238812   5.716   1.711   7.601  0.3103 -0.1526 -0.5246
 5726TIP3    H138813   5.683   1.748   7.682  0.8456 -0.9978  0.1089
 5726TIP3    H238814   5.679   1.623   7.598 -1.5737  0.6269 -2.3853
 5727TIP3   OH238815   5.720   6.888   0.144  0.6590 -0.4974  0.4331
 5727TIP3    H138816   5.766   6.830   0.204  0.2957  1.2722  2.5806
 5727TIP3    H238817   5.629   6.887   0.175  0.2028 -0.4062 -0.8381
 5728TIP3   OH238818   0.603   4.909   8.052  0.3191  0.0890  0.4140
 5728TIP3    H138819   0.600   4.887   7.959 -0.9709  0.6006  0.3104
 5728TIP3    H238820   0.570   4.999   8.056  0.5243  0.1280  1.3494
 5729TIP3   OH238821   1.217   1.596   8.451 -0.2808 -0.2046  0.2563
 5729TIP3    H138822   1.150   1.659   8.478  0.9825  0.9532  0.8646
 5729TIP3    H238823   1.259   1.637   8.375  0.1885 -0.5662  0.3165
 5730TIP3   OH238824   0.810   2.337   0.106 -0.1546  0.1400  0.6530
 5730TIP3    H138825   0.758   2.314   0.029 -0.4803 -1.4534  1.2990
 5730TIP3    H238826   0.880   2.271   0.108  1.4861  1.8042  0.2259
 5731TIP3   OH238827   1.862   1.387   0.321 -0.4734  0.0253  0.3904
 5731TIP3    H138828   1.919   1.347   0.255  0.4422  0.7568  0.7211
 5731TIP3    H238829   1.787   1.420   0.271  0.0427  0.2661 -0.2366
 5732TIP3   OH238830   5.444   1.085   1.077 -0.2083  0.2272 -0.2366
 5732TIP3    H138831   5.473   1.148   1.011 -0.2308  0.7974  0.2820
 5732TIP3    H238832   5.348   1.084   1.070 -0.1194 -2.0952 -2.3487
 5733TIP3   OH238833   5.216   1.293   2.737  0.2513  0.6143  0.4741
 5733TIP3    H138834   5.152   1.346   2.689  1.6208  1.9758  0.0782
 5733TIP3    H238835   5.300   1.336   2.720  0.9992  0.1985  2.7827
 5734TIP3   OH238836   5.430   1.700   7.408  0.0795 -0.3907 -0.7210
 5734TIP3    H138837   5.480   1.778   7.386  0.5597 -0.5506 -0.2024
 5734TIP3    H238838   5.390   1.720   7.493 -2.5382  0.5992 -2.0575
 5735TIP3   OH238839   5.450   5.706   7.690 -0.3001 -0.5465 -0.2171
 5735TIP3    H138840   5.445   5.622   7.736 -0.0025 -0.8768 -0.7697
 5735TIP3    H238841   5.481   5.768   7.756  0.7921 -1.1450 -0.1330
 5736TIP3   OH238842   3.861   5.573   8.414  0.2104  0.3185 -0.2696
 5736TIP3    H138843   3.787   5.530   8.456 -0.7501  1.4788 -0.7097
 5736TIP3    H238844   3.938   5.525   8.444 -0.8769 -3.9230 -3.2873
 5737TIP3   OH238845   3.757   1.256   2.592  1.0401 -0.3171  0.5379
 5737TIP3    H138846   3.684   1.197   2.575  3.5526 -3.3951 -0.4561
 5737TIP3    H238847   3.818   1.205   2.645  3.5232  1.1966 -0.6461
 5738TIP3   OH238848   2.391   6.377   7.438 -0.5015 -0.2025  0.1617
 5738TIP3    H138849   2.458   6.444   7.431 -2.3136  1.5614 -1.7084
 5738TIP3    H238850   2.319   6.420   7.485 -0.2297 -2.2489  2.7405
 5739TIP3   OH238851   1.165   2.205   7.894 -0.8816 -0.6499  0.4146
 5739TIP3    H138852   1.163   2.132   7.956 -0.1826  0.6135  2.0110
 5739TIP3    H238853   1.233   2.263   7.928 -0.5143  0.1415 -1.5389
 5740TIP3   OH238854   2.321   1.042   2.261  0.0260 -0.1289  0.3939
 5740TIP3    H138855   2.261   1.116   2.266 -1.0337 -0.6638 -2.3856
 5740TIP3    H238856   2.267   0.966   2.283  0.1768 -0.4161 -0.2160
 5741TIP3   OH238857   1.778   4.013   1.090  0.1128  0.1677  0.4684
 5741TIP3    H138858   1.748   4.072   1.020  0.8411  0.6840  0.5728
 5741TIP3    H238859   1.825   4.070   1.150  0.4445 -0.4569  0.8069
 5742TIP3   OH238860   3.533   1.916   1.003  0.2691  0.0009 -0.5490
 5742TIP3    H138861   3.610   1.871   1.039 -0.8735 -0.2199  1.7741
 5742TIP3    H238862   3.486   1.848   0.955  0.7559 -0.2282 -0.7113
 5743TIP3   OH238863   3.678   1.089   1.453 -0.3537 -0.0580 -0.1166
 5743TIP3    H138864   3.657   0.999   1.430  1.5789 -0.2566 -1.3797
 5743TIP3    H238865   3.593   1.134   1.457 -1.2650 -1.6768 -0.5295
 5744TIP3   OH238866   2.435   0.717   1.684 -0.2734 -0.0368 -0.4477
 5744TIP3    H138867   2.452   0.762   1.602 -2.3535 -1.7461 -1.9645
 5744TIP3    H238868   2.390   0.782   1.739  1.9370  1.3958 -0.2225
 5745TIP3   OH238869   5.124   2.674   8.344  0.1975 -0.4916  0.2934
 5745TIP3    H138870   5.031   2.695   8.345  0.4186  0.5137  1.0012
 5745TIP3    H238871   5.134   2.616   8.269 -0.5577  1.4916 -1.4346
 5746TIP3   OH238872   4.299   1.079   1.774  0.7149 -0.1278  0.0603
 5746TIP3    H138873   4.262   1.161   1.806  0.0216 -0.4299  0.0401
 5746TIP3    H238874   4.337   1.038   1.851 -0.5373 -0.6317  0.4379
 5747TIP3   OH238875   0.012   5.209   1.612  0.9692  0.6449  0.1509
 5747TIP3    H138876   0.054   5.125   1.631 -1.6411 -0.9665 -0.6917
 5747TIP3    H238877  -0.074   5.202   1.654  0.0540  2.2253 -1.3592
 5748TIP3   OH238878   6.581   6.969   8.019  0.4020  0.4033 -0.2859
 5748TIP3    H138879   6.563   6.933   7.933  2.0149 -3.0610  0.6363
 5748TIP3    H238880   6.676   6.983   8.021  0.3435  0.8076  0.7891
 5749TIP3   OH238881   2.665   5.605   8.150  0.3792  0.5309 -0.5205
 5749TIP3    H138882   2.571   5.598   8.131  0.2384 -0.4964  0.4442
 5749TIP3    H238883   2.706   5.542   8.090  0.0659 -1.6987  1.4703
 5750TIP3   OH238884   3.812   6.078   0.336 -0.3651  0.2233  0.2448
 5750TIP3    H138885   3.750   6.107   0.402  1.0823  1.7587  0.9958
 5750TIP3    H238886   3.888   6.049   0.386 -0.4537 -1.7218 -0.6514
 5751TIP3   OH238887   2.943   1.589   0.295 -0.3406  0.3760 -0.1848
 5751TIP3    H138888   3.013   1.539   0.337  0.0212 -0.8238 -2.1170
 5751TIP3    H238889   2.864   1.536   0.306 -0.7037  1.0816  0.7967
 5752TIP3   OH238890   1.886   0.518   8.034  0.2248 -0.2444  0.6369
 5752TIP3    H138891   1.826   0.444   8.029 -0.0345  0.0015 -0.0182
 5752TIP3    H238892   1.861   0.574   7.960  0.0360  0.7829  1.4630
 5753TIP3   OH238893   5.475   4.695   7.506 -0.1328  0.7646  0.1397
 5753TIP3    H138894   5.490   4.786   7.531 -0.1702  0.9999 -0.6716
 5753TIP3    H238895   5.416   4.661   7.574 -1.0766  1.6899 -0.2066
 5754TIP3   OH238896   3.308   1.107   2.023  0.0486 -0.1760  0.5370
 5754TIP3    H138897   3.246   1.048   2.065 -3.8880  3.0428 -0.1182
 5754TIP3    H238898   3.338   1.165   2.093 -0.1639  0.2198  0.3034
 5755TIP3   OH238899   0.111   4.432   7.811 -0.4453  0.4413 -0.1945
 5755TIP3    H138900   0.033   4.417   7.757  0.0936  1.6116 -1.3542
 5755TIP3    H238901   0.078   4.480   7.887 -1.2851 -1.6187  0.8158
 5756TIP3   OH238902   4.974   0.300   7.961  0.3129  0.7547  0.5504
 5756TIP3    H138903   4.952   0.393   7.964 -3.1007  0.1692 -1.3548
 5756TIP3    H238904   5.053   0.296   7.906  0.2775  2.4781  0.3322
 5757TIP3   OH238905   5.444   4.162   1.382  0.4651  0.0703  0.3111
 5757TIP3    H138906   5.537   4.143   1.367  0.5239  0.2921  0.3915
 5757TIP3    H238907   5.444   4.225   1.454  0.2575  0.1526  0.2396
 5758TIP3   OH238908   1.143   1.450   1.316 -0.4727 -0.3337 -0.0702
 5758TIP3    H138909   1.110   1.447   1.226 -0.7766  0.6685 -0.0071
 5758TIP3    H238910   1.140   1.360   1.346 -0.8166 -0.6111 -0.9072
 5759TIP3   OH238911   4.815   3.674   1.477 -0.3185 -0.2669  0.3509
 5759TIP3    H138912   4.761   3.743   1.439 -0.4937 -0.8009 -0.3705
 5759TIP3    H238913   4.888   3.664   1.416 -0.3754 -0.8284  0.3736
 5760TIP3   OH238914   3.419   5.522   6.516 -0.1984  0.0718  0.3858
 5760TIP3    H138915   3.420   5.535   6.610  1.3155  3.0545  0.0905
 5760TIP3    H238916   3.492   5.462   6.499  1.7895  2.1970  0.9389
 5761TIP3   OH238917   3.626   2.298   0.961 -0.5844 -0.1609 -0.1518
 5761TIP3    H138918   3.558   2.235   0.983 -1.4129  0.1362 -1.6986
 5761TIP3    H238919   3.579   2.369   0.916  0.7697 -0.1099 -1.5838
 5762TIP3   OH238920   6.026   4.977   7.914 -0.0776  0.5419  0.3884
 5762TIP3    H138921   5.996   4.952   7.827  0.6391  0.3738  0.1843
 5762TIP3    H238922   6.044   5.071   7.908  0.2525  0.4719  0.2716
 5763TIP3   OH238923   0.237   5.355   7.518  0.2560 -0.0644 -0.2011
 5763TIP3    H138924   0.200   5.393   7.598 -0.0948 -0.3607 -0.2190
 5763TIP3    H238925   0.308   5.299   7.549  0.5750  0.3600 -0.1523
 5764TIP3   OH238926   4.476   2.477   7.274  0.1867 -0.3737 -0.1908
 5764TIP3    H138927   4.483   2.475   7.369  1.2736 -0.7067 -0.2636
 5764TIP3    H238928   4.407   2.541   7.256  0.9019  0.7143  0.7911
 5765TIP3   OH238929   5.933   1.619   0.186  0.0028  0.5521  0.3846
 5765TIP3    H138930   5.944   1.699   0.135  1.9175 -0.0318 -0.2174
 5765TIP3    H238931   6.005   1.621   0.249  0.2517 -0.7985  0.1808
 5766TIP3   OH238932   5.326   5.541   7.133  0.6859 -0.6147  0.1098
 5766TIP3    H138933   5.334   5.636   7.124  0.6468 -0.6840 -0.7205
 5766TIP3    H238934   5.320   5.526   7.227  0.9683  0.1844  0.2585
 5767TIP3   OH238935   6.093   5.102   1.413  0.4204  0.4666 -0.1101
 5767TIP3    H138936   6.184   5.129   1.425  0.5728  0.3305 -0.9492
 5767TIP3    H238937   6.098   5.017   1.370 -0.0867 -0.3349  1.3224
 5768TIP3   OH238938   2.991   4.717   7.147 -0.1702  0.0992  0.0353
 5768TIP3    H138939   2.933   4.713   7.072 -1.2690 -0.0192  0.8631
 5768TIP3    H238940   2.959   4.648   7.206  0.8501 -0.0157  0.4767
 5769TIP3   OH238941   1.892   1.600   0.604  0.2299  0.0893 -0.3714
 5769TIP3    H138942   1.924   1.616   0.693  0.9535  0.5367 -0.7040
 5769TIP3    H238943   1.942   1.660   0.549  0.8703 -1.2184 -1.2752
 5770TIP3   OH238944   5.303   4.465   0.634  0.2843 -0.8729 -0.2500
 5770TIP3    H138945   5.315   4.546   0.684 -0.6050 -0.5308 -0.5702
 5770TIP3    H238946   5.353   4.480   0.553 -1.3210  0.1272 -1.1204
 5771TIP3   OH238947   2.500   0.083   8.444 -0.7075  0.1444 -0.3819
 5771TIP3    H138948   2.507   0.093   8.349 -0.6118 -0.5609 -0.4519
 5771TIP3    H238949   2.407   0.071   8.460 -0.8835  1.5654 -0.2485
 5772TIP3   OH238950   5.871   1.890   6.562  0.4248  0.1018  0.1279
 5772TIP3    H138951   5.921   1.970   6.546  0.2523  0.1929  0.0350
 5772TIP3    H238952   5.827   1.872   6.479  1.6059 -0.9125 -0.2984
 5773TIP3   OH238953   2.272   5.656   0.423 -0.3978  0.6226 -0.6561
 5773TIP3    H138954   2.226   5.585   0.379 -0.3066 -0.5457  1.0208
 5773TIP3    H238955   2.277   5.627   0.515 -2.0479  3.6451  0.5218
 5774TIP3   OH238956   4.285   1.442   2.534 -0.7058 -0.0426 -0.5633
 5774TIP3    H138957   4.306   1.381   2.605 -0.1669 -0.2314 -0.8832
 5774TIP3    H238958   4.369   1.469   2.499 -0.8277  2.5036  0.8933
 5775TIP3   OH238959   5.611   6.670   1.709 -0.3805 -0.2155  0.1968
 5775TIP3    H138960   5.522   6.646   1.737 -0.0749 -1.6872  0.0179
 5775TIP3    H238961   5.627   6.754   1.751 -1.9227  0.1773  0.0820
 5776TIP3   OH238962   0.151   0.700   1.047  0.0030  0.0037  0.0780
 5776TIP3    H138963   0.138   0.793   1.029 -1.7697  0.0787  1.4328
 5776TIP3    H238964   0.246   0.689   1.053  0.2117  1.9102  0.8584
 5777TIP3   OH238965   2.605   3.589   1.009  0.1217 -0.0698 -0.3287
 5777TIP3    H138966   2.684   3.618   0.962  1.3068 -0.8394  1.1078
 5777TIP3    H238967   2.629   3.503   1.045 -1.7952 -0.8709 -0.8344
 5778TIP3   OH238968   6.443   0.615   7.162 -0.3876 -0.1319  0.5388
 5778TIP3    H138969   6.488   0.624   7.078 -1.3153  1.4188  0.1670
 5778TIP3    H238970   6.385   0.691   7.166 -2.3931 -1.6277  1.3398
 5779TIP3   OH238971   6.398   6.350   6.808  0.3033 -0.4520 -0.2074
 5779TIP3    H138972   6.393   6.255   6.810  0.0330 -0.4508 -0.8048
 5779TIP3    H238973   6.332   6.379   6.871 -0.6558 -0.6360 -1.1141
 5780TIP3   OH238974   1.345   1.869   7.156  0.4880 -0.2714  0.0557
 5780TIP3    H138975   1.395   1.856   7.075  0.6866 -0.8273  0.2626
 5780TIP3    H238976   1.409   1.906   7.217  0.3615  0.0620 -0.0134
 5781TIP3   OH238977   3.811   5.443   0.603  0.3464  0.1839 -0.0501
 5781TIP3    H138978   3.759   5.511   0.562 -0.0298  1.0633  1.7857
 5781TIP3    H238979   3.834   5.479   0.689  0.3652 -1.8884  0.8729
 5782TIP3   OH238980   2.665   6.034   1.418 -0.1708 -0.7224  0.1588
 5782TIP3    H138981   2.571   6.042   1.401  0.0863 -0.9928 -1.6447
 5782TIP3    H238982   2.700   6.120   1.395  0.2415 -1.2029 -1.1193
 5783TIP3   OH238983   2.297   6.465   0.406 -0.0392 -0.1082 -0.5335
 5783TIP3    H138984   2.269   6.462   0.314  1.2436  0.0020 -0.9489
 5783TIP3    H238985   2.218   6.444   0.456 -0.3454 -2.1246 -1.7365
 5784TIP3   OH238986   1.553   5.794   0.169 -0.3211 -0.3457  0.0591
 5784TIP3    H138987   1.523   5.872   0.216  1.1979 -0.1704  0.8209
 5784TIP3    H238988   1.527   5.809   0.079  0.2426  1.2320  0.1210
 5785TIP3   OH238989   0.584   5.364   7.474  0.3317 -0.6429 -0.2041
 5785TIP3    H138990   0.512   5.321   7.522 -0.5327  0.8495 -0.0927
 5785TIP3    H238991   0.633   5.411   7.541 -1.0539  1.7008 -0.7168
 5786TIP3   OH238992   2.400   3.652   8.241 -0.2545  0.1339 -0.2535
 5786TIP3    H138993   2.310   3.676   8.222 -0.3206  0.5723  0.5720
 5786TIP3    H238994   2.453   3.712   8.188 -0.4372 -0.3433 -0.9940
 5787TIP3   OH238995   4.073   0.191   6.723  0.5135 -0.1433 -0.5127
 5787TIP3    H138996   4.043   0.102   6.743  0.0750 -0.6183 -2.8825
 5787TIP3    H238997   4.035   0.210   6.637  0.2594  2.5369  0.1011
 5788TIP3   OH238998   2.955   6.296   2.064 -0.1129 -0.2238  0.2965
 5788TIP3    H138999   2.997   6.220   2.104  2.8488  0.5321 -1.0378
 5788TIP3    H239000   2.929   6.351   2.137  2.8847  0.0007  1.3462
 5789TIP3   OH239001   6.694   4.753   1.866  0.4930 -0.6456  0.1556
 5789TIP3    H139002   6.734   4.792   1.944 -1.4595  2.7996 -0.3670
 5789TIP3    H239003   6.763   4.755   1.800  1.0251  0.1689  0.7200
 5790TIP3   OH239004   2.567   6.386   7.144 -0.2212 -0.0533  0.2382
 5790TIP3    H139005   2.657   6.417   7.154 -0.4548  0.1575  2.1141
 5790TIP3    H239006   2.516   6.465   7.127 -0.1870 -0.0495  0.1516
 5791TIP3   OH239007   2.586   3.612   0.418  0.1273 -0.6599 -0.3202
 5791TIP3    H139008   2.643   3.547   0.460 -1.0216 -1.7496 -0.3876
 5791TIP3    H239009   2.521   3.632   0.485 -0.1278 -0.3397 -0.6649
 5792TIP3   OH239010   2.562   1.074   2.368 -0.0422 -0.4648 -0.2976
 5792TIP3    H139011   2.471   1.077   2.338 -0.8838 -0.6431  2.0185
 5792TIP3    H239012   2.574   0.984   2.396  0.5609 -0.2228  0.2299
 5793TIP3   OH239013   5.791   2.876   8.239  0.0832 -0.2807 -0.0780
 5793TIP3    H139014   5.872   2.923   8.220  0.3062  0.2879  2.0317
 5793TIP3    H239015   5.820   2.796   8.284 -0.4923 -0.5796 -0.2296
 5794TIP3   OH239016   5.012   3.885   6.715 -0.5465 -0.1521 -0.0788
 5794TIP3    H139017   4.953   3.957   6.736  0.4025  0.6201 -0.0237
 5794TIP3    H239018   5.076   3.922   6.654  0.6222 -0.6334  0.8174
 5795TIP3   OH239019   0.655   0.037   7.086 -0.1421 -0.6277  0.6008
 5795TIP3    H139020   0.637   0.006   6.997  1.1502  0.1104  0.0507
 5795TIP3    H239021   0.612   0.123   7.090 -0.8586 -0.9945  0.9699
 5796TIP3   OH239022   0.441   0.690   1.039 -0.1336  0.1111  0.1999
 5796TIP3    H139023   0.536   0.684   1.027 -0.1274 -1.2149  0.7925
 5796TIP3    H239024   0.406   0.614   0.994 -0.8781  0.2876  0.4671
 5797TIP3   OH239025   5.782   1.047   0.358 -0.0055 -0.8937 -0.2998
 5797TIP3    H139026   5.824   0.978   0.308  0.4152  0.1306 -1.4004
 5797TIP3    H239027   5.812   1.033   0.448 -0.9254 -2.8737 -0.2353
 5798TIP3   OH239028   2.483   2.383   6.330 -0.3179 -0.1778  0.1793
 5798TIP3    H139029   2.492   2.358   6.238 -1.0902 -0.6194  0.2188
 5798TIP3    H239030   2.435   2.311   6.370 -1.2541  0.6749  0.6193
 5799TIP3   OH239031   0.137   5.688   8.059 -0.1189 -0.1463  0.1830
 5799TIP3    H139032   0.113   5.699   8.151  0.6656 -2.7002  0.8004
 5799TIP3    H239033   0.231   5.670   8.061 -0.2032 -0.8677 -1.0228
 5800TIP3   OH239034   1.121   1.406   0.294 -0.4940 -0.1700  0.0065
 5800TIP3    H139035   1.032   1.411   0.260 -0.5704 -0.0493  0.2174
 5800TIP3    H239036   1.168   1.350   0.233 -0.8741 -0.7385  0.2277
 5801TIP3   OH239037   2.977   0.427   7.511  0.4392  0.0404 -0.7006
 5801TIP3    H139038   2.941   0.340   7.490  0.8716 -0.3484  0.0978
 5801TIP3    H239039   3.045   0.409   7.576  0.2059  1.0273 -0.1656
 5802TIP3   OH239040   6.022   4.424   0.640 -0.2434  0.4514  0.4496
 5802TIP3    H139041   6.006   4.335   0.672  0.1631  0.4036  0.5233
 5802TIP3    H239042   6.027   4.478   0.719  1.4070  0.2288  0.5231
 5803TIP3   OH239043   2.863   1.623   7.291 -0.0939 -0.1999  0.7082
 5803TIP3    H139044   2.768   1.624   7.277 -0.0088  0.1850  0.1259
 5803TIP3    H239045   2.893   1.705   7.253  0.6453 -0.9239 -0.3031
 5804TIP3   OH239046   5.676   2.662   1.068  0.1138  0.5228 -0.0020
 5804TIP3    H139047   5.621   2.733   1.034  0.0159  0.2257 -0.4754
 5804TIP3    H239048   5.700   2.690   1.157 -2.5126 -0.2489  1.0479
 5805TIP3   OH239049   0.984   2.697   1.253  0.3465 -0.2314  0.0593
 5805TIP3    H139050   1.040   2.689   1.330  1.5701 -0.9210 -0.8650
 5805TIP3    H239051   0.978   2.609   1.218 -2.1845 -0.3759  0.6644
 5806TIP3   OH239052   3.504   2.506   8.380 -0.0537 -0.3718 -0.0899
 5806TIP3    H139053   3.580   2.538   8.332 -0.4588 -1.5093 -1.5341
 5806TIP3    H239054   3.446   2.470   8.313 -2.1765  1.0046  0.8749
 5807TIP3   OH239055   0.224   2.624   0.481 -0.2650 -0.4030  0.0830
 5807TIP3    H139056   0.154   2.667   0.530 -0.7069 -1.4303  0.3788
 5807TIP3    H239057   0.268   2.696   0.435 -0.5764  0.4386  1.0501
 5808TIP3   OH239058   5.608   0.193   7.939  0.8519 -0.3284 -0.3248
 5808TIP3    H139059   5.631   0.146   7.859  2.0358  1.2204 -0.9524
 5808TIP3    H239060   5.556   0.267   7.909  0.9410  0.0311  0.3895
 5809TIP3   OH239061   4.221   6.979   1.391  0.0289  0.1637 -0.1170
 5809TIP3    H139062   4.266   6.909   1.345  0.2175 -0.5033  1.0463
 5809TIP3    H239063   4.206   7.046   1.324  0.0820 -0.8614 -1.1843
 5810TIP3   OH239064   2.038   3.571   7.252 -0.0115 -0.3804 -0.0561
 5810TIP3    H139065   2.110   3.634   7.262 -0.1218 -0.2972  0.2186
 5810TIP3    H239066   2.021   3.540   7.341 -0.6470 -0.0307 -0.0479
 5811TIP3   OH239067   0.351   6.466   8.242 -0.3580  0.3321 -0.4998
 5811TIP3    H139068   0.304   6.391   8.278 -0.7637  0.9120  0.1978
 5811TIP3    H239069   0.425   6.479   8.300 -1.0151  1.2714  0.1520
 5812TIP3   OH239070   2.396   0.854   8.434 -0.3962  0.1646  0.0236
 5812TIP3    H139071   2.427   0.944   8.446 -0.5231  0.0207  1.6384
 5812TIP3    H239072   2.316   0.849   8.486 -1.3252 -0.4405 -1.3800
 5813TIP3   OH239073   1.029   4.408   1.378  0.6327  0.1797 -0.8164
 5813TIP3    H139074   1.071   4.490   1.351  0.2617 -0.3919 -3.4249
 5813TIP3    H239075   0.994   4.371   1.297 -1.5974 -1.2517  0.6705
 5814TIP3   OH239076   1.999   1.082   7.507 -0.7548 -0.0350 -0.3211
 5814TIP3    H139077   1.925   1.135   7.536 -2.3652 -0.6908 -2.9704
 5814TIP3    H239078   2.045   1.137   7.444  0.1990 -0.1884  0.2179
 5815TIP3   OH239079   3.597   3.720   1.751 -0.5059 -0.0465 -0.2469
 5815TIP3    H139080   3.537   3.785   1.715  0.7047  2.3116  1.6671
 5815TIP3    H239081   3.554   3.690   1.831  0.3828  1.0060  0.6670
 5816TIP3   OH239082   3.299   0.943   1.551  0.5235 -0.1162  0.1418
 5816TIP3    H139083   3.272   0.994   1.627 -0.8771 -0.3955 -0.1435
 5816TIP3    H239084   3.324   1.009   1.486  0.7698  0.1443  0.4960
 5817TIP3   OH239085   2.013   5.192   0.024 -0.6659  0.3083  0.3943
 5817TIP3    H139086   1.925   5.198   0.062 -0.6532 -2.2943  1.0457
 5817TIP3    H239087   2.072   5.208   0.098 -0.6092  0.1185  0.3908
 5818TIP3   OH239088   1.218   3.640   7.931 -0.0825 -0.2985  0.6668
 5818TIP3    H139089   1.219   3.548   7.954 -0.8656 -0.3639  0.4807
 5818TIP3    H239090   1.310   3.664   7.921  0.1088 -1.1756  0.2456
 5819TIP3   OH239091   3.866   3.541   1.599 -0.4346  0.6787  0.2222
 5819TIP3    H139092   3.842   3.456   1.636 -0.4630  0.7295  0.3204
 5819TIP3    H239093   3.871   3.599   1.675 -0.9957  0.9016  0.0905
 5820TIP3   OH239094   3.962   0.659   6.981 -0.4788 -0.1299  0.0107
 5820TIP3    H139095   3.949   0.646   6.887  1.4384  2.1612 -0.6714
 5820TIP3    H239096   4.023   0.590   7.007  0.7474  0.5514 -0.9681
 5821TIP3   OH239097   6.096   2.877   1.666  0.0505 -0.1819 -0.4100
 5821TIP3    H139098   6.159   2.873   1.594 -0.5756  0.9262 -1.0456
 5821TIP3    H239099   6.077   2.786   1.686  0.7895 -0.5167 -1.1592
 5822TIP3   OH239100   5.743   1.000   2.264  0.3769  0.2400  0.2815
 5822TIP3    H139101   5.826   1.029   2.226 -0.0114  1.7153  0.4753
 5822TIP3    H239102   5.681   1.004   2.191  0.0015  1.3894  0.6446
 5823TIP3   OH239103   0.198   1.385   7.166 -0.4292  0.2575 -0.7413
 5823TIP3    H139104   0.202   1.359   7.074 -1.3596 -2.5998 -0.0875
 5823TIP3    H239105   0.276   1.346   7.205  0.5934  2.4455 -0.4690
 5824TIP3   OH239106   2.309   4.908   0.060 -0.4530 -0.1612 -0.0852
 5824TIP3    H139107   2.268   4.940   0.141 -2.3489 -0.6833 -0.7966
 5824TIP3    H239108   2.236   4.886   0.003  0.8485 -0.4806 -1.7020
 5825TIP3   OH239109   4.635   4.381   7.455 -0.4343 -0.5633 -0.1337
 5825TIP3    H139110   4.710   4.325   7.435 -1.0258 -1.1747 -0.6714
 5825TIP3    H239111   4.558   4.328   7.432 -0.9989  0.9370 -1.9611
 5826TIP3   OH239112   0.876   6.364   0.544 -0.5924  0.1559 -0.5809
 5826TIP3    H139113   0.827   6.419   0.604 -1.1678 -1.1645  0.1909
 5826TIP3    H239114   0.810   6.328   0.484  0.1751  3.0157 -3.3887
 5827TIP3   OH239115   0.536   6.343   1.278  0.2661 -0.0735  0.1249
 5827TIP3    H139116   0.602   6.401   1.316  0.3126  1.3131 -1.9085
 5827TIP3    H239117   0.483   6.315   1.353 -0.0567  3.0147  1.2175
 5828TIP3   OH239118   5.532   2.463   7.465 -0.2869 -0.2313 -0.7184
 5828TIP3    H139119   5.438   2.480   7.475 -0.5873 -2.2065  0.3376
 5828TIP3    H239120   5.565   2.539   7.416 -2.4025  0.5447 -1.0558
 5829TIP3   OH239121   0.204   0.925   0.754 -0.0859  0.5090 -0.1141
 5829TIP3    H139122   0.260   0.853   0.725  0.1191  1.2352 -1.5946
 5829TIP3    H239123   0.166   0.960   0.673 -0.0924  2.1457  0.5635
 5830TIP3   OH239124   5.710   3.148   7.928 -0.0235 -0.1042 -0.2112
 5830TIP3    H139125   5.741   3.188   7.846  3.3917 -0.4100  0.7782
 5830TIP3    H239126   5.684   3.223   7.982  0.3224  0.3070 -0.6004
 5831TIP3   OH239127   1.058   2.430   0.806 -0.0524 -0.2302  0.0705
 5831TIP3    H139128   1.011   2.400   0.884 -0.9407 -1.6485 -0.9670
 5831TIP3    H239129   0.998   2.491   0.764  0.9541  1.5775  1.1276
 5832TIP3   OH239130   4.706   3.977   2.019 -0.0821 -0.5240  0.1082
 5832TIP3    H139131   4.782   3.920   2.028 -0.7555 -1.3468  0.7559
 5832TIP3    H239132   4.701   4.024   2.103 -0.5853 -0.8598  0.2710
 5833TIP3   OH239133   6.412   3.735   0.973  0.0906 -0.0730 -0.4490
 5833TIP3    H139134   6.492   3.711   0.926 -0.5265  0.3207 -1.7457
 5833TIP3    H239135   6.372   3.804   0.919 -1.0794 -0.1943  0.2246
 5834TIP3   OH239136   0.539   4.461   1.217 -0.1443 -0.6152 -0.7633
 5834TIP3    H139137   0.604   4.487   1.283 -2.4827 -0.6562  1.7237
 5834TIP3    H239138   0.547   4.527   1.149  1.1370  0.5079  0.4069
 5835TIP3   OH239139   1.427   5.747   0.593 -0.0125 -0.2683 -0.3871
 5835TIP3    H139140   1.390   5.800   0.663  1.4972  1.0888 -0.5556
 5835TIP3    H239141   1.357   5.686   0.568 -1.4333  0.9418  0.5313
 5836TIP3   OH239142   6.587   3.650   7.398 -0.3466 -0.1350  0.1210
 5836TIP3    H139143   6.524   3.629   7.467 -0.0902  0.3504  0.5067
 5836TIP3    H239144   6.600   3.567   7.352 -1.5233 -0.1733 -0.1839
 5837TIP3   OH239145   4.770   6.052   0.341 -0.6653  0.2112 -0.3635
 5837TIP3    H139146   4.802   6.141   0.355 -0.6071  0.2018 -0.4419
 5837TIP3    H239147   4.730   6.028   0.425 -0.0820  0.0638 -0.1241
 5838TIP3   OH239148   1.063   2.468   6.433  0.5167  0.0857  0.0699
 5838TIP3    H139149   1.033   2.499   6.519 -2.0812  2.7829 -1.5951
 5838TIP3    H239150   0.984   2.433   6.392  1.4854 -0.2280 -1.6160
 5839TIP3   OH239151   4.484   5.708   0.409 -0.6949  0.0935 -0.4191
 5839TIP3    H139152   4.474   5.744   0.321  0.5899  2.9405  0.4788
 5839TIP3    H239153   4.396   5.708   0.445 -1.1142 -0.3125 -1.4097
 5840TIP3   OH239154   5.444   2.472   2.198  0.4784 -0.4455 -0.3138
 5840TIP3    H139155   5.375   2.419   2.239 -0.9379 -0.3237 -2.3603
 5840TIP3    H239156   5.425   2.561   2.225  0.0811 -0.4730 -0.4796
 5841TIP3   OH239157   1.660   3.035   6.627 -0.3913 -0.1097  0.3237
 5841TIP3    H139158   1.709   2.958   6.601  1.8612  1.3890 -0.1595
 5841TIP3    H239159   1.625   3.071   6.545  0.1099  0.3576  0.3089
 5842TIP3   OH239160   5.837   3.649   1.739 -0.5468 -0.1188 -0.0755
 5842TIP3    H139161   5.866   3.719   1.681  0.7834 -0.6665 -0.1048
 5842TIP3    H239162   5.788   3.589   1.683 -1.7978  0.8246 -0.0265
 5843TIP3   OH239163   3.372   0.654   0.986  0.1931  0.2486 -0.3269
 5843TIP3    H139164   3.309   0.701   0.931  0.4150 -1.0302 -1.7568
 5843TIP3    H239165   3.457   0.690   0.963  0.4927 -1.4755 -2.2563
 5844TIP3   OH239166   3.504   4.843   2.537  0.0647 -0.0562 -0.0590
 5844TIP3    H139167   3.416   4.833   2.573  0.0780  1.3970  0.4431
 5844TIP3    H239168   3.561   4.797   2.599 -0.3275 -1.0585 -0.4199
 5845TIP3   OH239169   0.025   3.332   0.241 -0.6384  0.0558 -0.3003
 5845TIP3    H139170   0.107   3.332   0.191  1.0386  0.6538  2.2017
 5845TIP3    H239171  -0.017   3.249   0.219  0.8303 -0.4496 -1.3820
 5846TIP3   OH239172   3.862   3.718   0.284 -0.5367 -0.4572 -0.5448
 5846TIP3    H139173   3.933   3.746   0.227  0.0472  1.5995  1.1103
 5846TIP3    H239174   3.899   3.645   0.334 -0.0350 -0.2782 -0.6468
 5847TIP3   OH239175   5.760   6.093   6.902  0.5770  0.0482  0.2909
 5847TIP3    H139176   5.680   6.103   6.849  0.8954  0.8562 -0.0560
 5847TIP3    H239177   5.814   6.168   6.878  1.6300 -0.7137  0.2103
 5848TIP3   OH239178   3.315   1.077   6.468  0.1917 -1.0810  0.4221
 5848TIP3    H139179   3.307   1.105   6.377 -0.1380 -1.1538  0.4271
 5848TIP3    H239180   3.334   1.158   6.516 -1.5646 -0.6846  0.5472
 5849TIP3   OH239181   1.670   4.475   6.646 -0.3778 -0.5473  0.0722
 5849TIP3    H139182   1.588   4.515   6.676 -0.4454 -1.5589  1.3344
 5849TIP3    H239183   1.734   4.500   6.712  0.4490  0.5439 -1.1026
 5850TIP3   OH239184   0.124   2.240   1.308  0.2697  0.7151 -0.1926
 5850TIP3    H139185   0.040   2.196   1.320  0.8849  0.0068  2.2995
 5850TIP3    H239186   0.102   2.327   1.276 -1.1011 -0.6681 -3.4721
 5851TIP3   OH239187   3.810   4.645   8.340 -0.3213 -0.2007 -0.7196
 5851TIP3    H139188   3.758   4.646   8.420  1.9300  1.1234  0.8397
 5851TIP3    H239189   3.791   4.729   8.298  1.9715  1.3257  0.9860
 5852TIP3   OH239190   4.852   2.030   1.773  0.3636  0.0541 -0.2723
 5852TIP3    H139191   4.824   1.938   1.778  3.4215 -0.9532  1.9166
 5852TIP3    H239192   4.901   2.035   1.690  1.6089 -0.8609  0.3620
 5853TIP3   OH239193   4.812   0.077   7.602  0.2105 -0.1817 -0.1155
 5853TIP3    H139194   4.718   0.075   7.584  0.5232 -1.3203 -1.7961
 5853TIP3    H239195   4.817   0.090   7.697 -1.6601 -1.2484  0.1839
 5854TIP3   OH239196   4.231   1.713   8.294  0.6311  0.3803 -0.2720
 5854TIP3    H139197   4.185   1.778   8.241  1.8044 -0.6172 -2.6615
 5854TIP3    H239198   4.277   1.657   8.231  2.7044 -0.4998  1.8211
 5855TIP3   OH239199   0.683   3.048   0.456  0.1058  0.7288  0.5350
 5855TIP3    H139200   0.614   2.993   0.420  0.7647 -0.3733  0.9160
 5855TIP3    H239201   0.746   3.057   0.384  1.2601 -1.1980  1.2440
 5856TIP3   OH239202   1.775   6.087   8.147 -0.4411 -0.4198  0.2787
 5856TIP3    H139203   1.727   6.132   8.217 -0.9157  0.0060 -0.3094
 5856TIP3    H239204   1.828   6.021   8.193 -1.0861 -0.4551  0.9930
 5857TIP3   OH239205   1.384   4.867   8.472 -0.4324 -0.4275 -0.2735
 5857TIP3    H139206   1.293   4.894   8.484 -0.3054 -0.8029  1.9235
 5857TIP3    H239207   1.435   4.948   8.481 -0.4645 -0.4375  0.0140
 5858TIP3   OH239208   4.525   6.182   7.090 -0.3647  0.4059  0.5865
 5858TIP3    H139209   4.589   6.127   7.045 -0.9355 -0.2160  0.5119
 5858TIP3    H239210   4.460   6.203   7.023  0.4160  2.1189  0.3195
 5859TIP3   OH239211   4.464   6.532   0.005  0.6543  0.0982 -0.1229
 5859TIP3    H139212   4.540   6.521   0.061 -1.0728 -1.2674  2.1214
 5859TIP3    H239213   4.469   6.460  -0.058  1.7911  0.7177 -0.7636
 5860TIP3   OH239214   6.696   2.630   8.265 -0.3493 -0.5439  0.4034
 5860TIP3    H139215   6.659   2.714   8.238  1.1976  0.4233  1.1740
 5860TIP3    H239216   6.752   2.651   8.339  2.0062 -1.8592 -0.8914
 5861TIP3   OH239217   4.846   6.329   6.684 -0.3891  0.2804 -0.5763
 5861TIP3    H139218   4.865   6.273   6.759 -1.2217 -0.5524 -0.9614
 5861TIP3    H239219   4.762   6.298   6.651 -0.8002  1.6606 -0.9157
 5862TIP3   OH239220   0.097   0.993   1.016 -0.4585 -0.3138  0.1608
 5862TIP3    H139221   0.001   0.990   1.018 -0.5601  0.3809 -1.7947
 5862TIP3    H239222   0.119   0.985   0.924  1.4760 -2.1136  0.7009
 5863TIP3   OH239223   0.642   6.369   1.746  0.0496 -0.0146  0.2120
 5863TIP3    H139224   0.627   6.278   1.773  1.4733 -0.5403 -0.6353
 5863TIP3    H239225   0.596   6.377   1.663  1.5564 -0.6180 -0.7285
 5864TIP3   OH239226   1.484   3.541   7.693  0.2891  0.1082 -0.0245
 5864TIP3    H139227   1.470   3.447   7.696 -1.4826  0.2410 -1.8477
 5864TIP3    H239228   1.443   3.569   7.612  0.5580  2.5122  0.5764
 5865TIP3   OH239229   6.941   6.986   6.894 -0.6297  0.5330 -0.6243
 5865TIP3    H139230   6.998   6.909   6.897  0.1120  1.1018  0.3232
 5865TIP3    H239231   6.884   6.970   6.818 -0.2354 -0.7587 -0.6790
 5866TIP3   OH239232   0.898   5.435   6.328 -0.3833 -0.0278 -0.1229
 5866TIP3    H139233   0.850   5.357   6.356 -1.5808  0.6508 -0.1962
 5866TIP3    H239234   0.879   5.442   6.234  0.5834 -0.2329 -0.3400
 5867TIP3   OH239235   5.739   1.370   0.555 -0.1607  0.2163  0.6641
 5867TIP3    H139236   5.773   1.398   0.640 -1.7698 -1.4887  1.9482
 5867TIP3    H239237   5.706   1.451   0.515 -0.1879  0.9246  2.0481
 5868TIP3   OH239238   2.989   4.876   2.135  0.1802  0.1935  0.5740
 5868TIP3    H139239   3.053   4.817   2.096 -1.5308 -1.1651 -0.3231
 5868TIP3    H239240   2.969   4.836   2.220 -0.6942 -0.3337  0.1312
 5869TIP3   OH239241   0.232   6.208   8.280  0.2163 -0.7353 -1.0651
 5869TIP3    H139242   0.148   6.231   8.241  0.1654  0.7274 -0.1794
 5869TIP3    H239243   0.221   6.119   8.312 -1.4432 -0.1297  0.1830
 5870TIP3   OH239244   2.182   2.481   7.536  0.0099 -0.4647  0.7803
 5870TIP3    H139245   2.272   2.460   7.515  0.0321 -0.0337  0.4102
 5870TIP3    H239246   2.188   2.548   7.605 -0.0417 -0.9285  1.2408
 5871TIP3   OH239247   4.231   1.297   1.540 -0.2425  0.1929  0.4670
 5871TIP3    H139248   4.296   1.228   1.555 -1.4210 -0.9720  0.3917
 5871TIP3    H239249   4.209   1.290   1.448 -0.3492  0.6986  0.4525
 5872TIP3   OH239250   4.185   0.534   2.668  0.0297 -0.0594  0.0208
 5872TIP3    H139251   4.157   0.590   2.596 -1.9499 -1.7877 -0.6547
 5872TIP3    H239252   4.114   0.539   2.732 -0.0342 -1.4705  0.1017
 5873TIP3   OH239253   4.697   3.243   2.152  0.1285  0.3832  0.3807
 5873TIP3    H139254   4.762   3.193   2.104 -1.3264 -1.0426 -0.1905
 5873TIP3    H239255   4.661   3.305   2.088 -0.4437 -0.1852  0.1422
 5874TIP3   OH239256   2.109   4.963   8.372  0.4837  0.3889 -0.0993
 5874TIP3    H139257   2.069   5.049   8.382 -2.0221 -0.5247 -1.3018
 5874TIP3    H239258   2.170   4.972   8.299 -0.6623  0.9136 -1.0315
 5875TIP3   OH239259   5.379   4.204   2.078  0.3273  0.0077  0.1368
 5875TIP3    H139260   5.315   4.202   2.007 -0.6334  0.7919  0.9429
 5875TIP3    H239261   5.417   4.292   2.073  0.7467 -0.1658  0.1947
 5876TIP3   OH239262   1.236   1.325   0.049  0.4642  0.3403  0.2188
 5876TIP3    H139263   1.273   1.277  -0.025  1.3351  1.3565 -0.0297
 5876TIP3    H239264   1.193   1.401   0.010 -2.0016 -0.8078  0.4995
 5877TIP3   OH239265   4.436   3.358   0.610 -0.7027  0.9365  0.5206
 5877TIP3    H139266   4.350   3.327   0.583  0.2279  0.4333 -2.1485
 5877TIP3    H239267   4.466   3.294   0.674 -1.1622 -0.5044 -0.6581
 5878TIP3   OH239268   3.118   3.872   7.033  0.3746  0.1912  0.2749
 5878TIP3    H139269   3.100   3.845   6.943  1.5043  0.3571 -0.0129
 5878TIP3    H239270   3.053   3.940   7.052  0.4557  0.5143 -0.5889
 5879TIP3   OH239271   0.459   1.086   6.951  0.4585  0.4463 -0.1192
 5879TIP3    H139272   0.512   1.060   7.027 -3.2004 -2.6177  1.7988
 5879TIP3    H239273   0.455   1.007   6.897 -1.5185  0.7411 -0.4797
 5880TIP3   OH239274   4.568   3.621   8.324  0.7073  0.7597 -0.0990
 5880TIP3    H139275   4.626   3.667   8.263  0.0738  1.0579 -0.4949
 5880TIP3    H239276   4.532   3.549   8.272  2.0709 -0.5212  0.6583
 5881TIP3   OH239277   0.956   1.072   7.053 -0.2663 -0.0133  0.0495
 5881TIP3    H139278   0.944   1.166   7.062  0.2272 -0.0850  1.9324
 5881TIP3    H239279   1.039   1.054   7.098 -0.3631 -1.3479 -0.2508
 5882TIP3   OH239280   3.547   6.090   8.116 -0.6800  0.2671  0.2316
 5882TIP3    H139281   3.462   6.047   8.119 -0.0993 -1.1775 -1.8213
 5882TIP3    H239282   3.526   6.183   8.109 -2.0997 -0.0589 -0.2232
 5883TIP3   OH239283   6.476   0.847   7.952  0.1370 -0.9364  0.0027
 5883TIP3    H139284   6.513   0.889   7.874 -2.5914  0.3445 -0.7459
 5883TIP3    H239285   6.483   0.753   7.936 -0.7201 -0.6977 -2.0408
 5884TIP3   OH239286   5.739   0.645   1.809  0.3632 -0.1483  0.6166
 5884TIP3    H139287   5.814   0.648   1.869  0.8560 -0.1653  0.0074
 5884TIP3    H239288   5.696   0.562   1.829 -0.2899  0.4553  1.9039
 5885TIP3   OH239289   2.329   2.821   6.376 -0.4436  0.3485 -0.3679
 5885TIP3    H139290   2.424   2.834   6.371 -0.2496 -0.9100 -0.2527
 5885TIP3    H239291   2.292   2.898   6.333  0.6454  0.5345 -1.0072
 5886TIP3   OH239292   5.179   2.608   1.071 -0.0691 -0.0347  0.6896
 5886TIP3    H139293   5.112   2.560   1.118  0.6731  0.0509  1.8683
 5886TIP3    H239294   5.261   2.581   1.113  0.8152 -1.2238 -1.5987
 5887TIP3   OH239295   5.373   4.120   7.652  0.4479 -0.4760 -0.0636
 5887TIP3    H139296   5.355   4.182   7.582  0.3480  0.9425  1.1580
 5887TIP3    H239297   5.323   4.042   7.629 -0.9401  0.5640 -0.7165
 5888TIP3   OH239298   3.955   3.274   6.853  0.2408  0.1372 -0.5372
 5888TIP3    H139299   3.870   3.233   6.842 -0.0254  0.6539 -0.4579
 5888TIP3    H239300   4.000   3.260   6.770  0.1185 -0.2186 -0.5468
 5889TIP3   OH239301   5.385   0.109   1.707 -0.3855  0.3069 -0.8606
 5889TIP3    H139302   5.321   0.045   1.677  0.4187 -0.6948 -0.4733
 5889TIP3    H239303   5.333   0.177   1.749 -1.1438 -0.9618  0.3122
 5890TIP3   OH239304   2.993   6.592   2.107 -0.6975  0.1246 -0.1110
 5890TIP3    H139305   2.902   6.596   2.137 -0.8927 -0.7526 -0.5462
 5890TIP3    H239306   2.989   6.623   2.016 -0.3059  1.5680  0.3353
 5891TIP3   OH239307   3.653   1.295   8.308 -0.3281 -0.2162 -0.3428
 5891TIP3    H139308   3.587   1.310   8.241 -0.6902 -1.1990 -0.2209
 5891TIP3    H239309   3.710   1.373   8.304 -0.6211 -0.0469 -1.4535
 5892TIP3   OH239310   2.954   6.929   1.834  0.2307  0.1403  0.5977
 5892TIP3    H139311   2.917   6.843   1.856 -0.6916  0.0819 -1.0501
 5892TIP3    H239312   3.044   6.910   1.808 -0.7347 -0.8203 -2.4873
 5893TIP3   OH239313   3.299   6.470   8.193  0.1775 -0.1557 -0.3277
 5893TIP3    H139314   3.257   6.496   8.111  1.1761 -0.9329 -1.1177
 5893TIP3    H239315   3.381   6.428   8.165  0.7623  0.0047  1.0960
 5894TIP3   OH239316   4.107   6.428   1.548 -0.4509  0.2015  0.3736
 5894TIP3    H139317   4.129   6.447   1.640 -0.8713  0.0984  0.4999
 5894TIP3    H239318   4.053   6.502   1.521 -0.9935 -0.1575  0.4596
 5895TIP3   OH239319   1.140   4.123   6.907  0.4825 -0.1701  0.3860
 5895TIP3    H139320   1.220   4.163   6.872  1.1556 -1.7649  0.0033
 5895TIP3    H239321   1.104   4.189   6.966  1.4528  1.0368 -0.3289
 5896TIP3   OH239322   2.211   0.426   7.137 -0.8722  0.6899 -0.9030
 5896TIP3    H139323   2.281   0.491   7.146  0.1108 -0.5726  1.5639
 5896TIP3    H239324   2.211   0.403   7.045 -1.4045  4.2634 -1.9460
 5897TIP3   OH239325   1.897   4.196   1.268 -0.8882  0.0857  0.3888
 5897TIP3    H139326   1.987   4.175   1.293 -0.8416 -1.7001 -1.0737
 5897TIP3    H239327   1.846   4.184   1.348 -0.1289 -1.1097  0.7217
 5898TIP3   OH239328   2.751   6.934   0.946  0.2259  0.1528  0.3798
 5898TIP3    H139329   2.792   6.907   1.028  3.3440 -1.4153 -1.4911
 5898TIP3    H239330   2.821   6.979   0.898 -1.2325  0.3391 -1.7189
 5899TIP3   OH239331   0.570   4.045   0.817 -0.3422 -0.7376 -0.1409
 5899TIP3    H139332   0.610   4.131   0.831 -2.0396  0.1873 -0.7309
 5899TIP3    H239333   0.603   4.017   0.732 -0.0642 -0.5153 -0.1070
 5900TIP3   OH239334   5.100   1.103   2.507 -0.0108 -0.0306 -0.1667
 5900TIP3    H139335   5.024   1.080   2.561  0.7227 -0.6125  0.6548
 5900TIP3    H239336   5.175   1.065   2.554  0.8102  0.6893 -0.8595
 5901TIP3   OH239337   5.366   4.659   0.833 -0.4455 -0.6835 -0.7444
 5901TIP3    H139338   5.277   4.670   0.866 -0.2353  0.2152 -0.4477
 5901TIP3    H239339   5.374   4.724   0.764 -0.5456 -1.8726 -1.9226
 5902TIP3   OH239340   5.112   4.933   7.425 -0.2963  0.4901  0.0717
 5902TIP3    H139341   5.057   4.978   7.488 -0.0247 -0.5152  1.0624
 5902TIP3    H239342   5.196   4.979   7.428  0.2690 -0.5463  1.7273
 5903TIP3   OH239343   5.199   3.221   1.107 -0.2089  0.4444  0.8432
 5903TIP3    H139344   5.197   3.154   1.175 -0.9973 -0.2901  0.1185
 5903TIP3    H239345   5.137   3.288   1.138 -0.7620 -0.0113  0.7439
 5904TIP3   OH239346   6.227   2.105   7.848  0.3007 -0.2816 -0.3086
 5904TIP3    H139347   6.278   2.143   7.920  0.5451 -0.1734 -0.5387
 5904TIP3    H239348   6.142   2.150   7.852  1.4115  2.2054 -2.1627
 5905TIP3   OH239349   6.772   2.326   7.932  0.5390 -0.5212 -0.4924
 5905TIP3    H139350   6.818   2.393   7.982  0.8182 -0.7721 -0.4118
 5905TIP3    H239351   6.679   2.339   7.955  0.6010 -0.2309 -0.4003
 5906TIP3   OH239352   2.128   3.647   1.143 -0.4131  0.3770 -0.5562
 5906TIP3    H139353   2.210   3.693   1.125 -0.7943  0.2288 -2.9328
 5906TIP3    H239354   2.151   3.554   1.136 -0.2743  0.2158  1.3851
 5907TIP3   OH239355   6.969   6.077   2.219 -0.2020  0.0389  0.3151
 5907TIP3    H139356   6.919   6.158   2.223  1.7612  1.3562 -0.6469
 5907TIP3    H239357   6.978   6.050   2.311 -0.3048  1.2707  0.6967
 5908TIP3   OH239358   6.398   0.681   1.819  0.0555 -0.3472 -0.1160
 5908TIP3    H139359   6.396   0.670   1.914 -1.4594 -0.4056 -0.1286
 5908TIP3    H239360   6.372   0.596   1.784 -1.4327  0.2282 -0.5007
 5909TIP3   OH239361   2.718   4.506   8.190  0.0419  0.2882  0.9635
 5909TIP3    H139362   2.662   4.558   8.248 -1.5331  0.1595 -0.3552
 5909TIP3    H239363   2.674   4.421   8.185  0.1573  0.2864 -0.3635
 5910TIP3   OH239364   2.223   4.920   7.846 -0.4580 -1.1150 -0.2485
 5910TIP3    H139365   2.314   4.912   7.819  0.6066  0.8273  2.4396
 5910TIP3    H239366   2.203   5.013   7.839 -2.6805 -1.6122 -1.8670
 5911TIP3   OH239367   4.019   3.842   0.101 -0.2727  0.0123  0.9336
 5911TIP3    H139368   4.017   3.936   0.083 -0.6826  0.0412  1.1279
 5911TIP3    H239369   4.101   3.829   0.148  0.0608  0.1799  0.4094
 5912TIP3   OH239370   3.980   1.826   0.363  0.6214 -0.2196 -0.1049
 5912TIP3    H139371   4.067   1.809   0.397 -0.0291 -3.5700  0.2482
 5912TIP3    H239372   3.939   1.883   0.429  2.1925  0.6896  0.1368
 5913TIP3   OH239373   6.424   0.891   7.082 -0.0685 -0.4074  0.6478
 5913TIP3    H139374   6.404   0.981   7.109 -0.5308 -0.0043 -0.8878
 5913TIP3    H239375   6.519   0.883   7.091  0.0498  0.4454  0.2626
 5914TIP3   OH239376   5.596   0.400   0.098 -0.0506 -0.3541  0.3052
 5914TIP3    H139377   5.514   0.352   0.089 -1.7730  1.3850  4.2646
 5914TIP3    H239378   5.656   0.338   0.139 -0.1996 -0.8470 -0.1989
 5915TIP3   OH239379   1.171   3.663   7.375  0.0833  0.0690  0.0916
 5915TIP3    H139380   1.175   3.597   7.444  1.6409  0.3964  0.3652
 5915TIP3    H239381   1.212   3.740   7.414  1.6408  0.0420 -1.3983
 5916TIP3   OH239382   6.386   2.448   7.259 -0.3924 -0.0096 -0.4378
 5916TIP3    H139383   6.472   2.406   7.249 -1.0380 -1.6171  0.3947
 5916TIP3    H239384   6.369   2.489   7.174  0.9325 -0.1576 -0.7929
 5917TIP3   OH239385   2.297   5.820   7.046  0.0805  0.2963  0.1469
 5917TIP3    H139386   2.316   5.739   6.999  1.9316 -0.0367  1.3551
 5917TIP3    H239387   2.215   5.803   7.092 -0.3851 -0.2955 -0.8606
 5918TIP3   OH239388   5.468   3.370   7.478  0.5428  0.2820  0.1413
 5918TIP3    H139389   5.415   3.302   7.519  0.2210  0.4411  0.0011
 5918TIP3    H239390   5.435   3.375   7.388  0.6479  0.5337  0.1157
 5919TIP3   OH239391   2.154   2.130   0.543  0.1574  0.2264 -0.2746
 5919TIP3    H139392   2.061   2.116   0.561  0.0615  0.4378 -0.6115
 5919TIP3    H239393   2.165   2.224   0.548  0.1182  0.3008 -1.3821
 5920TIP3   OH239394   1.791   6.182   0.186  0.3988 -0.2148  0.2201
 5920TIP3    H139395   1.737   6.194   0.264 -0.7686 -2.6389 -0.1357
 5920TIP3    H239396   1.852   6.112   0.210  0.6014 -0.3891 -0.7552
 5921TIP3   OH239397   0.898   3.362   8.138 -0.5024  0.2363  0.2957
 5921TIP3    H139398   0.828   3.423   8.112 -0.6777  0.3755  1.0479
 5921TIP3    H239399   0.857   3.306   8.204 -0.0857 -0.1068  0.2657
 5922TIP3   OH239400   1.263   3.170   8.367 -0.4188 -0.0747 -0.4385
 5922TIP3    H139401   1.297   3.256   8.343 -0.6800  0.3676  0.7227
 5922TIP3    H239402   1.202   3.187   8.438 -0.3510 -1.2348 -0.0768
 5923TIP3   OH239403   5.721   5.601   7.177 -0.9302  0.1412 -0.5053
 5923TIP3    H139404   5.653   5.537   7.154 -0.2879 -0.2070 -1.5089
 5923TIP3    H239405   5.792   5.548   7.214 -1.4321  0.5690  1.1327
 5924TIP3   OH239406   1.158   1.356   0.580  0.0116  0.3352 -0.0255
 5924TIP3    H139407   1.154   1.371   0.485  0.5049  0.3810 -0.0395
 5924TIP3    H239408   1.105   1.277   0.594  0.4665 -0.0441 -0.4218
 5925TIP3   OH239409   3.650   2.489   1.418 -0.4405 -0.5650 -0.0146
 5925TIP3    H139410   3.652   2.476   1.513 -2.0134 -1.2532 -0.0432
 5925TIP3    H239411   3.623   2.404   1.383 -1.3954  0.1064 -0.9613
 5926TIP3   OH239412   1.824   4.265   7.033  0.4613 -0.9485  0.3182
 5926TIP3    H139413   1.907   4.271   6.984  0.6860  0.1069  0.8030
 5926TIP3    H239414   1.851   4.250   7.124  0.2468  1.5039  0.8521
 5927TIP3   OH239415   6.212   6.051   2.192  0.1560  0.2075 -0.5222
 5927TIP3    H139416   6.226   5.956   2.197  0.9079  0.3129 -0.5417
 5927TIP3    H239417   6.133   6.061   2.139  1.6806 -0.3239 -3.0892
 5928TIP3   OH239418   1.896   3.797   8.226  0.0139 -0.3218  0.4988
 5928TIP3    H139419   1.896   3.890   8.249  1.3445 -0.1288 -0.1844
 5928TIP3    H239420   1.858   3.794   8.138 -0.3940 -0.4746  0.6781
 5929TIP3   OH239421   0.522   6.617   1.006 -0.5771  0.2056  0.5033
 5929TIP3    H139422   0.485   6.605   0.918 -1.9215  0.2504  1.0323
 5929TIP3    H239423   0.563   6.533   1.027 -0.4961  0.1011 -0.0546
 5930TIP3   OH239424   5.653   2.443   6.773 -0.6379 -0.0132 -0.4463
 5930TIP3    H139425   5.564   2.441   6.737 -1.2548 -2.0606  0.9468
 5930TIP3    H239426   5.681   2.351   6.771  0.4038  0.2127  1.4723
 5931TIP3   OH239427   5.021   1.712   0.900 -0.0852  0.5494  0.8145
 5931TIP3    H139428   5.040   1.733   0.809 -0.5109  0.2793  0.6617
 5931TIP3    H239429   4.934   1.750   0.916 -0.4605 -0.2794  0.8010
 5932TIP3   OH239430   0.174   6.732   2.470  0.0022  0.0562 -0.6489
 5932TIP3    H139431   0.135   6.811   2.509  0.0456  0.0474 -0.5884
 5932TIP3    H239432   0.246   6.709   2.528  0.5403  0.4739 -1.1326
 5933TIP3   OH239433   3.208   3.526   7.626  0.1130  0.2001 -0.6308
 5933TIP3    H139434   3.138   3.565   7.679 -1.1042 -0.5142 -1.6825
 5933TIP3    H239435   3.222   3.440   7.665 -2.0195 -1.0623 -2.4410
 5934TIP3   OH239436   5.786   0.108   1.519 -0.1619 -0.2261  0.1704
 5934TIP3    H139437   5.873   0.112   1.557  0.4168  0.1049 -1.1481
 5934TIP3    H239438   5.739   0.182   1.558  0.2019 -0.2737  0.7149
 5935TIP3   OH239439   4.835   1.149   2.261  0.2304 -0.0853 -0.2130
 5935TIP3    H139440   4.812   1.186   2.346  1.2560  0.6996 -0.2704
 5935TIP3    H239441   4.759   1.094   2.238 -0.2060 -0.0326  1.0312
 5936TIP3   OH239442   2.580   3.122   8.465 -0.1716  0.5445  0.7289
 5936TIP3    H139443   2.488   3.105   8.447 -0.6697  1.4390  2.2365
 5936TIP3    H239444   2.603   3.193   8.405 -0.2892 -0.0671 -0.0510
 5937TIP3   OH239445   2.210   0.046   0.390  0.8210  1.0238  0.4661
 5937TIP3    H139446   2.273  -0.020   0.421  0.2013 -1.1561 -2.4639
 5937TIP3    H239447   2.244   0.074   0.305  0.1160  3.2538  0.8565
 5938TIP3   OH239448   0.860   5.718   0.846  0.8767  0.2128 -0.0071
 5938TIP3    H139449   0.920   5.791   0.863 -0.3883  1.5651 -1.1581
 5938TIP3    H239450   0.807   5.712   0.925  2.8959 -1.4848  1.3499
 5939TIP3   OH239451   5.311   6.693   2.181 -0.1839  0.3961  0.3478
 5939TIP3    H139452   5.403   6.715   2.165 -0.2746  1.6951  1.4199
 5939TIP3    H239453   5.268   6.712   2.097  0.3221  1.0731  0.2283
 5940TIP3   OH239454   1.111   6.462   8.309  0.1800 -0.1310  0.3335
 5940TIP3    H139455   1.161   6.533   8.349  0.9433 -1.1119  1.2110
 5940TIP3    H239456   1.144   6.457   8.220 -1.0016  1.6088 -0.2422
 5941TIP3   OH239457   3.976   3.071   2.629 -0.3568 -0.3201 -0.0984
 5941TIP3    H139458   3.954   2.990   2.582 -2.8171  0.5745 -0.6614
 5941TIP3    H239459   4.028   3.042   2.703 -1.4522 -2.4949 -0.0806
 5942TIP3   OH239460   6.479   3.926   1.189 -0.3478 -0.4449  1.1077
 5942TIP3    H139461   6.452   3.852   1.135 -0.6292  0.3440  0.1287
 5942TIP3    H239462   6.547   3.969   1.137 -0.0900 -0.0956  1.7282
 5943TIP3   OH239463   1.580   2.778   0.361  0.2281 -0.9344  0.0465
 5943TIP3    H139464   1.630   2.697   0.372  0.5027 -0.7799 -0.0464
 5943TIP3    H239465   1.496   2.760   0.403  0.2784 -1.2749  0.0084
 5944TIP3   OH239466   0.072   4.736   0.061  0.0453 -0.3628 -0.1430
 5944TIP3    H139467   0.147   4.689   0.026  0.1911  0.3918 -0.8817
 5944TIP3    H239468   0.010   4.668   0.086  1.0105 -0.9977  0.5866
 5945TIP3   OH239469   1.178   5.098   1.254  0.3906  0.4131  0.7002
 5945TIP3    H139470   1.174   5.005   1.231  0.5909  0.9979 -2.0861
 5945TIP3    H239471   1.245   5.103   1.322  1.3751 -1.3380 -0.0697
 5946TIP3   OH239472   0.208   2.775   6.995 -0.2425  0.0131  0.0382
 5946TIP3    H139473   0.129   2.805   7.040 -0.9274 -1.4561 -0.0933
 5946TIP3    H239474   0.266   2.851   6.994 -1.3522  0.9122  0.8152
 5947TIP3   OH239475   0.573   4.458   1.568  0.4952 -0.1690 -0.0756
 5947TIP3    H139476   0.529   4.509   1.636 -0.4612 -1.3965  0.2665
 5947TIP3    H239477   0.647   4.418   1.612 -0.8299 -1.9789  0.6346
 5948TIP3   OH239478   4.166   5.452   2.067 -0.1047  0.1738 -0.7309
 5948TIP3    H139479   4.259   5.462   2.045  0.4848 -0.7764  1.0819
 5948TIP3    H239480   4.162   5.371   2.117 -1.7649  0.6927  0.0530
 5949TIP3   OH239481   0.044   3.617   8.362 -0.4754  0.4398 -0.3020
 5949TIP3    H139482  -0.048   3.591   8.355 -0.3111 -0.0091 -0.8990
 5949TIP3    H239483   0.072   3.630   8.271  0.8686 -2.3696 -0.4062
 5950TIP3   OH239484   2.436   3.810   7.278 -0.3683  0.7293 -0.5360
 5950TIP3    H139485   2.358   3.774   7.319  0.4299  0.5183  0.8533
 5950TIP3    H239486   2.410   3.825   7.187 -1.3125 -1.6140 -0.7408
 5951TIP3   OH239487   3.840   4.832   2.516  0.3015  0.2054  0.5783
 5951TIP3    H139488   3.798   4.916   2.533 -0.8841 -0.6349  1.8951
 5951TIP3    H239489   3.830   4.782   2.597  2.8565 -0.4674  0.5703
 5952TIP3   OH239490   1.188   2.878   7.787  0.3406  0.3964 -0.3465
 5952TIP3    H139491   1.163   2.964   7.820  0.7904  0.5793 -0.4788
 5952TIP3    H239492   1.195   2.823   7.865  1.2284  0.7827 -0.1479
 5953TIP3   OH239493   6.912   3.576   7.722 -0.2973  0.0058  0.0160
 5953TIP3    H139494   6.986   3.565   7.662 -0.3769  0.5505 -0.1840
 5953TIP3    H239495   6.855   3.501   7.704  0.3104 -0.5489  0.3363
 5954TIP3   OH239496   1.677   5.533   6.121  0.2484 -0.0216 -0.4874
 5954TIP3    H139497   1.662   5.447   6.081  0.1200 -1.3301  2.1241
 5954TIP3    H239498   1.589   5.567   6.138  0.2943  0.8489 -1.8570
 5955TIP3   OH239499   4.310   4.266   0.228 -0.0258 -0.3481  0.5138
 5955TIP3    H139500   4.393   4.313   0.217 -0.0802 -0.2288  0.6094
 5955TIP3    H239501   4.273   4.261   0.140  0.4860 -1.1541  0.3328
 5956TIP3   OH239502   3.527   4.253   8.139  0.5798  0.0053  0.4978
 5956TIP3    H139503   3.543   4.279   8.230 -1.2175  1.3800  0.4746
 5956TIP3    H239504   3.434   4.233   8.136  0.9033 -1.4314 -0.7470
 5957TIP3   OH239505   2.818   4.661   7.986  0.2003  0.4697  0.2933
 5957TIP3    H139506   2.752   4.729   7.972 -0.3161 -0.0877 -0.0417
 5957TIP3    H239507   2.790   4.617   8.067  0.4860  0.5955  0.4629
 5958TIP3   OH239508   0.644   3.489   8.099 -0.4135  0.0391  0.3803
 5958TIP3    H139509   0.652   3.561   8.162  0.9094  0.6452 -0.4463
 5958TIP3    H239510   0.647   3.532   8.013 -0.0408 -0.9567 -0.1181
 5959TIP3   OH239511   4.701   0.729   0.853  0.3702 -0.3000 -0.0856
 5959TIP3    H139512   4.786   0.773   0.847 -0.4844  1.6699  1.3261
 5959TIP3    H239513   4.698   0.695   0.943 -0.0577 -0.9401 -0.3382
 5960TIP3   OH239514   3.099   3.645   8.350  0.2659  0.3878 -0.3038
 5960TIP3    H139515   3.122   3.655   8.442  1.0549 -2.0959 -0.1492
 5960TIP3    H239516   3.047   3.564   8.346 -0.7920  1.0803 -1.8942
 5961TIP3   OH239517   3.593   3.118   2.090  0.2249 -0.6430 -0.0257
 5961TIP3    H139518   3.498   3.123   2.075  0.5861  0.6191 -2.3882
 5961TIP3    H239519   3.629   3.188   2.036  2.4139  0.1570  2.3132
 5962TIP3   OH239520   6.331   5.143   8.228 -0.6480 -0.1221 -0.1174
 5962TIP3    H139521   6.271   5.154   8.302  0.9356 -1.4254  1.4675
 5962TIP3    H239522   6.348   5.049   8.224  1.9821  0.2506  0.1537
 5963TIP3   OH239523   2.876   0.060   1.529 -0.3413 -0.1315 -0.2273
 5963TIP3    H139524   2.819   0.126   1.489 -0.9643  0.4109  1.4614
 5963TIP3    H239525   2.819   0.012   1.589  0.8507  0.0581  1.1043
 5964TIP3   OH239526   1.846   0.910   7.936  0.0083  0.0771 -0.1012
 5964TIP3    H139527   1.840   0.820   7.904 -0.0760 -0.6783  1.9351
 5964TIP3    H239528   1.756   0.943   7.929 -0.2424 -0.4738  0.4217
 5965TIP3   OH239529   1.533   3.468   6.395  0.2512 -0.2073  0.3794
 5965TIP3    H139530   1.568   3.385   6.363  0.0926 -0.4173  0.7505
 5965TIP3    H239531   1.606   3.509   6.441  0.2616 -0.2437  0.3949
 5966TIP3   OH239532   1.820   1.448   7.902 -0.4720 -0.6337 -0.1923
 5966TIP3    H139533   1.820   1.353   7.893 -2.3187 -0.7583  0.8060
 5966TIP3    H239534   1.787   1.480   7.819 -0.1987 -0.8699 -0.3958
 5967TIP3   OH239535   2.334   3.854   0.385  0.1288  0.4813 -0.0813
 5967TIP3    H139536   2.365   3.944   0.395  0.8180  0.3684 -1.0726
 5967TIP3    H239537   2.299   3.850   0.296  0.8530 -0.4379 -0.3465
 5968TIP3   OH239538   2.548   3.335   0.748  0.0226 -0.2787  0.6415
 5968TIP3    H139539   2.539   3.303   0.838 -2.5062  0.4935  0.7380
 5968TIP3    H239540   2.482   3.286   0.698 -1.9041  2.5084  0.2192
 5969TIP3   OH239541   5.622   3.779   2.482 -0.1013 -0.1843 -0.6111
 5969TIP3    H139542   5.622   3.781   2.578 -0.3584  0.3524 -0.6148
 5969TIP3    H239543   5.635   3.870   2.456 -3.1309  0.2506 -1.0575
 5970TIP3   OH239544   6.775   0.010   0.283  0.2951  0.0038  0.2639
 5970TIP3    H139545   6.806  -0.065   0.232  1.5307  0.4612  0.2872
 5970TIP3    H239546   6.720   0.060   0.222 -1.8054 -1.6699  0.6962
 5971TIP3   OH239547   1.301   6.410   7.209  0.0417  0.1295 -0.0085
 5971TIP3    H139548   1.227   6.357   7.180 -0.8261  1.1604  0.2453
 5971TIP3    H239549   1.262   6.493   7.236  0.9704 -0.1802  2.5949
 5972TIP3   OH239550   2.316   6.318   6.734  0.8772  0.5885  0.4932
 5972TIP3    H139551   2.404   6.346   6.758  0.4581  1.5364  0.9545
 5972TIP3    H239552   2.298   6.243   6.790  1.5643  0.0881  0.0626
 5973TIP3   OH239553   3.104   6.460   7.986 -0.2567 -0.1478  0.0050
 5973TIP3    H139554   3.073   6.493   7.901 -0.0839 -0.5997 -0.2438
 5973TIP3    H239555   3.024   6.433   8.032 -0.6961  3.0903  1.3516
 5974TIP3   OH239556   0.482   6.642   2.082 -0.2810  0.3960  0.0665
 5974TIP3    H139557   0.512   6.634   2.173 -1.7548 -0.3640  0.5167
 5974TIP3    H239558   0.430   6.723   2.081 -2.1307 -0.7147  0.5070
 5975TIP3   OH239559   1.552   6.824   8.300 -0.3003 -0.4124  0.2038
 5975TIP3    H139560   1.590   6.784   8.378  2.4669  0.4572 -0.5821
 5975TIP3    H239561   1.518   6.750   8.249  2.2893 -1.6047  0.0275
 5976TIP3   OH239562   3.110   0.608   8.207  0.3154  0.3437  0.4513
 5976TIP3    H139563   3.028   0.570   8.239  0.6068 -1.2202 -0.5410
 5976TIP3    H239564   3.150   0.648   8.285 -0.9256  0.2905  1.1427
 5977TIP3   OH239565   6.855   0.895   1.113  0.6369  0.3417 -0.1027
 5977TIP3    H139566   6.814   0.928   1.032  2.2773  0.5605 -0.8927
 5977TIP3    H239567   6.852   0.800   1.104 -1.0681  0.3002  0.5930
 5978TIP3   OH239568   5.133   6.821   0.259 -0.0022  0.5634  0.1310
 5978TIP3    H139569   5.189   6.813   0.182  0.3612  0.0877  0.4408
 5978TIP3    H239570   5.121   6.916   0.270  0.2094  0.6449 -0.3156
 5979TIP3   OH239571   0.757   6.232   7.553 -0.4789  0.3905  0.7837
 5979TIP3    H139572   0.815   6.235   7.477 -1.3343  1.3805  0.1317
 5979TIP3    H239573   0.805   6.275   7.623  0.0133  0.1767  0.5775
 5980TIP3   OH239574   2.952   6.217   6.058 -0.7102 -0.0176  0.2286
 5980TIP3    H139575   2.882   6.273   6.023 -1.1644 -1.8194 -1.9719
 5980TIP3    H239576   2.915   6.180   6.138 -0.6216  2.2593  1.3977
 5981TIP3   OH239577   6.305   2.969   8.269  0.2025 -0.5891  0.4712
 5981TIP3    H139578   6.286   2.876   8.259 -0.2303 -0.6276  1.5402
 5981TIP3    H239579   6.315   3.001   8.179 -3.1896 -0.9241 -0.1506
 5982TIP3   OH239580   0.011   5.085   0.103 -0.5380  0.2641  0.0744
 5982TIP3    H139581   0.037   4.996   0.123 -2.4602 -0.2983  0.2782
 5982TIP3    H239582   0.037   5.098   0.011  1.3691  0.1683  0.5700
 5983TIP3   OH239583   3.895   3.368   7.106 -0.7451 -0.0599  0.3875
 5983TIP3    H139584   3.912   3.337   7.017  1.0938  0.1255  0.6478
 5983TIP3    H239585   3.957   3.439   7.120 -0.8739 -0.2025  1.8941
 5984TIP3   OH239586   5.110   1.307   2.322  0.1098 -0.2042  0.0812
 5984TIP3    H139587   5.153   1.280   2.240 -0.1440  0.1381 -0.1686
 5984TIP3    H239588   5.106   1.227   2.374 -0.0850 -0.5153 -0.4027
 5985TIP3   OH239589   6.995   5.278   1.330 -0.1467 -0.4792  0.0391
 5985TIP3    H139590   6.956   5.295   1.416 -0.0056 -0.7983  0.1688
 5985TIP3    H239591   7.089   5.274   1.346 -0.1552 -1.1330 -0.0206
 5986TIP3   OH239592   5.382   4.032   8.257 -0.3676 -0.6091  0.0655
 5986TIP3    H139593   5.434   3.959   8.224  1.5110  0.2878  0.8856
 5986TIP3    H239594   5.380   4.095   8.185 -0.9393 -0.9248 -0.2046
 5987TIP3   OH239595   3.095   5.594   2.475 -0.1297 -0.3538  0.7457
 5987TIP3    H139596   3.013   5.595   2.525 -1.8582  0.4070 -1.9107
 5987TIP3    H239597   3.132   5.681   2.490 -1.2423  0.3040 -0.1568
 5988TIP3   OH239598   3.768   1.231   1.689  0.0254  0.6143 -0.5629
 5988TIP3    H139599   3.767   1.175   1.767 -1.8126  0.0513 -0.9417
 5988TIP3    H239600   3.797   1.173   1.618  3.0491  1.4578 -0.1569
 5989TIP3   OH239601   6.020   5.167   6.685 -0.4248 -0.2365 -0.1264
 5989TIP3    H139602   5.959   5.236   6.658 -0.1689 -0.3602 -1.0360
 5989TIP3    H239603   5.976   5.086   6.661  0.0478 -0.3289 -0.6875
 5990TIP3   OH239604   6.927   2.078   0.740  0.7995 -0.5999 -0.1442
 5990TIP3    H139605   6.949   2.163   0.779 -2.4666  0.5214 -0.4464
 5990TIP3    H239606   6.926   2.018   0.815  1.1489  0.0566  0.4045
 5991TIP3   OH239607   3.517   1.349   1.711 -0.7300  0.0678 -0.2788
 5991TIP3    H139608   3.496   1.373   1.620  1.2777  1.3118 -0.4757
 5991TIP3    H239609   3.601   1.304   1.705 -0.4443  0.4079  0.9809
 5992TIP3   OH239610   2.056   5.722   7.740  0.1456  0.2261  0.0111
 5992TIP3    H139611   2.143   5.694   7.712 -0.2669 -0.9160 -0.1926
 5992TIP3    H239612   2.018   5.762   7.662  0.0301 -0.4203 -0.2741
 5993TIP3   OH239613   0.735   5.561   7.318 -0.3304 -0.2267  0.1502
 5993TIP3    H139614   0.782   5.524   7.243 -1.3235  1.1267 -1.1800
 5993TIP3    H239615   0.686   5.487   7.354 -0.0843 -0.8292 -0.7204
 5994TIP3   OH239616   1.871   1.228   1.679  0.1609 -0.4392  0.0188
 5994TIP3    H139617   1.829   1.143   1.692 -0.1840 -0.0118  1.8208
 5994TIP3    H239618   1.819   1.270   1.610 -1.6931 -0.4015  1.3690
 5995TIP3   OH239619   6.507   1.017   0.886  1.0470 -0.5009  0.0304
 5995TIP3    H139620   6.570   0.955   0.850  1.0632 -1.4213  1.5789
 5995TIP3    H239621   6.423   0.973   0.880  0.5011  0.6766 -1.9190
 5996TIP3   OH239622   4.433   1.410   7.132  0.0722 -0.3482  0.0214
 5996TIP3    H139623   4.357   1.467   7.122 -0.5423 -1.1200  0.1978
 5996TIP3    H239624   4.396   1.323   7.147  0.9518 -0.3498  2.6257
 5997TIP3   OH239625   1.138   0.251   1.426  0.1364 -0.2524 -0.7352
 5997TIP3    H139626   1.064   0.242   1.486  1.2083  0.0988  0.7323
 5997TIP3    H239627   1.185   0.168   1.433  1.3265  0.4769  0.4716
 5998TIP3   OH239628   6.280   2.646   0.215 -0.4068 -0.2467 -0.1975
 5998TIP3    H139629   6.339   2.571   0.224  1.7413  1.2166 -1.1281
 5998TIP3    H239630   6.271   2.681   0.303 -0.3537 -0.8457  0.0463
 5999TIP3   OH239631   4.583   5.423   1.738 -0.2330  0.2077  0.8696
 5999TIP3    H139632   4.502   5.381   1.765 -0.2474  0.3177  0.9973
 5999TIP3    H239633   4.630   5.439   1.820 -1.2973  2.6928  1.0865
 6000TIP3   OH239634   6.577   1.038   0.264 -0.2614  0.4575  0.6098
 6000TIP3    H139635   6.636   0.964   0.273  1.1318  1.6565  2.0248
 6000TIP3    H239636   6.533   1.045   0.350 -1.1766  0.6427  0.1461
 6001TIP3   OH239637   6.335   2.134   8.144  0.1015 -0.1769 -0.0992
 6001TIP3    H139638   6.314   2.215   8.190  1.7643  0.5952 -0.6353
 6001TIP3    H239639   6.264   2.074   8.168  0.1200  0.6368  2.2767
 6002TIP3   OH239640   6.315   2.383   7.528 -0.1264  0.1974  0.0545
 6002TIP3    H139641   6.352   2.398   7.441  1.0139 -0.5890  0.3846
 6002TIP3    H239642   6.390   2.387   7.587 -0.7649 -0.1335  0.9115
 6003TIP3   OH239643   2.499   1.977   7.791 -0.1356  0.9733  0.3207
 6003TIP3    H139644   2.569   2.024   7.837  0.6643  0.4927 -0.3865
 6003TIP3    H239645   2.541   1.899   7.755 -1.3102  0.0314  0.9202
 6004TIP3   OH239646   0.631   1.631   2.467  0.1107  0.1491  0.7610
 6004TIP3    H139647   0.668   1.695   2.406 -0.9285 -0.3477 -0.4400
 6004TIP3    H239648   0.701   1.616   2.531  1.0320  1.1104  0.0271
 6005TIP3   OH239649   2.779   2.392   6.331  0.7284  0.0024 -0.0063
 6005TIP3    H139650   2.803   2.299   6.341  0.0311 -0.4899 -2.3066
 6005TIP3    H239651   2.686   2.390   6.310  1.0928  1.0499 -1.9078
 6006TIP3   OH239652   3.019   0.880   1.166 -0.0336  1.0432 -0.0352
 6006TIP3    H139653   3.019   0.867   1.261  0.2670  1.2297 -0.0090
 6006TIP3    H239654   2.927   0.872   1.141  0.1645 -2.4040 -0.1961
 6007TIP3   OH239655   1.788   4.254   7.623  0.0807  0.8660  0.1571
 6007TIP3    H139656   1.734   4.229   7.548  0.1898  0.0627  0.3354
 6007TIP3    H239657   1.873   4.276   7.585  0.8620 -1.7830  0.2200
 6008TIP3   OH239658   3.481   0.085   7.930 -0.3202 -0.3987  0.1425
 6008TIP3    H139659   3.514   0.167   7.967 -1.3543  0.3070 -0.4309
 6008TIP3    H239660   3.559   0.035   7.909  0.3680  0.7791 -0.2169
 6009TIP3   OH239661   6.564   3.630   0.224  0.2175  0.3265  0.1841
 6009TIP3    H139662   6.605   3.623   0.138  2.1133  0.8592  0.9974
 6009TIP3    H239663   6.561   3.725   0.242 -1.7165  0.3475  0.0345
 6010TIP3   OH239664   0.709   1.561   1.843 -0.2674  0.0713 -0.3724
 6010TIP3    H139665   0.670   1.649   1.838 -1.1789 -0.2687  0.5257
 6010TIP3    H239666   0.635   1.503   1.856  0.3442 -0.8414 -0.8473
 6011TIP3   OH239667   6.107   1.450   1.952 -0.4467 -0.5215  0.2023
 6011TIP3    H139668   6.121   1.400   2.033 -1.2886 -0.7701  0.2008
 6011TIP3    H239669   6.115   1.384   1.883  1.5698 -0.0881 -0.0306
 6012TIP3   OH239670   2.679   0.777   1.992  0.4192  0.1047  0.3752
 6012TIP3    H139671   2.707   0.757   1.903 -2.1753 -1.1569 -0.2739
 6012TIP3    H239672   2.649   0.868   1.989 -2.3578 -0.7342 -0.9330
 6013TIP3   OH239673   6.711   0.348   0.579  0.1758 -0.0380  0.1690
 6013TIP3    H139674   6.651   0.331   0.507 -0.9291  0.1162  1.0341
 6013TIP3    H239675   6.780   0.282   0.568 -1.4992 -1.9706  0.6507
 6014TIP3   OH239676   0.334   2.526   0.951 -0.2404  0.5063 -0.1542
 6014TIP3    H139677   0.407   2.526   0.890 -1.3214 -0.4224 -1.5086
 6014TIP3    H239678   0.305   2.435   0.955  1.0510  0.0841  3.4054
 6015TIP3   OH239679   5.475   2.823   0.981  0.9487  1.0808 -0.7396
 6015TIP3    H139680   5.388   2.783   0.992  1.1975  0.1888 -1.8734
 6015TIP3    H239681   5.457   2.912   0.951  0.4256  0.9021 -0.9616
 6016TIP3   OH239682   1.594   4.156   6.878 -0.6568 -0.1336 -0.2639
 6016TIP3    H139683   1.604   4.076   6.826 -1.3927 -1.1494  1.0974
 6016TIP3    H239684   1.684   4.184   6.896 -0.3884 -0.9189 -0.3516
 6017TIP3   OH239685   1.546   5.627   7.440  0.0857 -0.0687 -0.5356
 6017TIP3    H139686   1.515   5.551   7.489 -0.5307  1.3979  1.4848
 6017TIP3    H239687   1.467   5.680   7.425  0.5189  0.2760 -1.7673
 6018TIP3   OH239688   0.628   0.732   0.051 -0.3953  0.0387 -0.1138
 6018TIP3    H139689   0.650   0.821   0.024  0.0956  0.0397  0.2631
 6018TIP3    H239690   0.602   0.688  -0.029 -0.8882  0.5936 -0.2659
 6019TIP3   OH239691   0.020   2.811   8.005  0.4097  0.2406  0.9683
 6019TIP3    H139692   0.003   2.865   8.082 -0.2621 -0.2153  1.1451
 6019TIP3    H239693   0.057   2.730   8.040 -0.8082 -0.3601  0.9012
 6020TIP3   OH239694   3.800   3.600   8.094 -0.2392  0.2527 -0.0450
 6020TIP3    H139695   3.723   3.595   8.151  2.6821 -1.1071  4.2732
 6020TIP3    H239696   3.819   3.694   8.088 -2.0748  0.6215 -1.2302
 6021TIP3   OH239697   3.719   4.931   8.229  0.0526  0.1722 -0.1095
 6021TIP3    H139698   3.769   4.940   8.148 -1.7076 -1.5503 -1.4824
 6021TIP3    H239699   3.628   4.925   8.201 -0.5369 -1.3965  1.8772
 6022TIP3   OH239700   3.222   3.561   0.387 -0.3442 -0.2128 -0.0471
 6022TIP3    H139701   3.286   3.626   0.415  0.6673 -0.1466 -2.2557
 6022TIP3    H239702   3.162   3.552   0.461  0.7169  1.6468  1.1155
 6023TIP3   OH239703   0.822   4.412   8.438  0.0456  0.1154  0.1359
 6023TIP3    H139704   0.854   4.477   8.375 -1.7620  0.2709 -0.6993
 6023TIP3    H239705   0.901   4.375   8.477  1.1952  3.9264  1.8798
 6024TIP3   OH239706   1.707   5.619   8.374 -0.2521  0.2090 -0.0873
 6024TIP3    H139707   1.622   5.664   8.371  0.1011  1.0491  1.3045
 6024TIP3    H239708   1.756   5.655   8.301 -1.6739 -1.6407 -2.0934
 6025TIP3   OH239709   0.276   4.777   6.046  0.0203 -0.6078  0.6731
 6025TIP3    H139710   0.331   4.703   6.072  0.8232 -0.4221 -0.4381
 6025TIP3    H239711   0.304   4.849   6.103  0.4097 -0.7131  0.6202
 6026TIP3   OH239712   5.053   2.156   7.318  0.0764 -0.6341  0.2352
 6026TIP3    H139713   4.981   2.136   7.258 -1.0315 -0.4503  1.4666
 6026TIP3    H239714   5.104   2.223   7.272 -2.0675  1.2627  0.4043
 6027TIP3   OH239715   2.463   4.387   7.381 -0.0693  0.4837  0.0277
 6027TIP3    H139716   2.464   4.382   7.476  1.5432 -0.0022  0.0150
 6027TIP3    H239717   2.445   4.479   7.361  2.1933  1.1780  0.8766
 6028TIP3   OH239718   6.437   1.380   8.367 -0.2299  0.1812 -0.7355
 6028TIP3    H139719   6.465   1.468   8.340  0.5196  0.1911  0.0390
 6028TIP3    H239720   6.350   1.393   8.404  0.1532  0.7095 -0.0108
 6029TIP3   OH239721   3.942   6.578   8.102 -0.5463  0.3475  0.1987
 6029TIP3    H139722   3.967   6.594   8.011  0.7073  0.0161  0.4768
 6029TIP3    H239723   3.847   6.593   8.103 -0.5810  0.3451 -1.1570
 6030TIP3   OH239724   1.477   5.546   1.592 -0.1973  0.0720 -0.3068
 6030TIP3    H139725   1.480   5.513   1.681 -2.7130  1.0985  0.2524
 6030TIP3    H239726   1.489   5.469   1.537  1.3269 -0.5899  0.8638
 6031TIP3   OH239727   2.462   6.863   0.897  0.1926 -0.1743 -0.2979
 6031TIP3    H139728   2.462   6.769   0.877  0.9181 -0.2093 -0.1895
 6031TIP3    H239729   2.537   6.875   0.956  0.7907  0.6322 -1.1814
 6032TIP3   OH239730   0.477   3.668   8.480 -0.1895  0.3856  0.1419
 6032TIP3    H139731   0.569   3.650   8.493 -0.1193  0.7243  0.1419
 6032TIP3    H239732   0.475   3.755   8.440 -0.5531  0.8618  1.1536
 6033TIP3   OH239733   4.724   5.204   0.038  0.0376 -0.1180  0.3680
 6033TIP3    H139734   4.641   5.157   0.036  0.1498 -0.3391 -1.5176
 6033TIP3    H239735   4.700   5.296   0.025  0.0754 -0.2195 -0.5113
 6034TIP3   OH239736   4.414   1.199   2.368  0.8231  0.0541  0.0977
 6034TIP3    H139737   4.452   1.283   2.393  2.6523 -0.3988 -1.0033
 6034TIP3    H239738   4.432   1.141   2.441  1.5704  0.0423 -0.0941
 6035TIP3   OH239739   6.699   6.533   8.466  0.2036 -0.4990 -0.1241
 6035TIP3    H139740   6.762   6.489   8.409  1.6639  1.0510  0.1909
 6035TIP3    H239741   6.675   6.612   8.418 -0.5176 -0.4418  0.3184
 6036TIP3   OH239742   2.273   0.597   1.194  0.5034 -0.7360 -0.2718
 6036TIP3    H139743   2.182   0.612   1.169  0.5958 -0.9114 -0.7130
 6036TIP3    H239744   2.272   0.599   1.290  0.0908 -0.4227 -0.2808
 6037TIP3   OH239745   4.182   5.706   1.505  0.0750  0.2413  0.3841
 6037TIP3    H139746   4.224   5.624   1.479 -2.2181 -0.8438 -0.1990
 6037TIP3    H239747   4.176   5.757   1.425 -2.0348 -0.7592 -0.1570
 6038TIP3   OH239748   6.700   6.248   6.330  0.4442 -0.5240 -0.1657
 6038TIP3    H139749   6.671   6.339   6.328  1.2183 -0.2501  0.6575
 6038TIP3    H239750   6.786   6.251   6.371  0.4348 -1.6433 -0.0303
 6039TIP3   OH239751   5.152   5.380   7.799  0.5231 -0.2122  0.3395
 6039TIP3    H139752   5.153   5.370   7.894  0.3410 -0.5727  0.3066
 6039TIP3    H239753   5.073   5.333   7.771  0.2361  0.4273  0.0659
 6040TIP3   OH239754   0.014   6.587   7.707 -0.1789  0.2350 -0.1932
 6040TIP3    H139755   0.039   6.608   7.617 -0.9184  1.2430 -0.1761
 6040TIP3    H239756   0.083   6.527   7.738 -0.9439 -1.7263 -2.0551
 6041TIP3   OH239757   3.648   1.524   2.498 -0.1220 -0.5821  0.1133
 6041TIP3    H139758   3.561   1.489   2.481 -0.2054 -0.6314  0.6161
 6041TIP3    H239759   3.696   1.451   2.536 -0.3752 -0.1052  1.4233
 6042TIP3   OH239760   0.757   5.228   0.767  0.4836  0.0564 -0.2377
 6042TIP3    H139761   0.852   5.234   0.762  0.4524  0.8269 -0.0504
 6042TIP3    H239762   0.733   5.164   0.701  1.3326 -2.1897  1.5000
 6043TIP3   OH239763   1.668   4.731   7.133 -0.4082  0.0080  0.2929
 6043TIP3    H139764   1.735   4.780   7.085 -1.7533  1.8155  0.1821
 6043TIP3    H239765   1.651   4.654   7.078  0.1544  0.5483 -0.6664
 6044TIP3   OH239766   4.952   5.589   2.260 -0.0462 -0.6970  0.6549
 6044TIP3    H139767   4.866   5.589   2.303  0.0681  1.4517  1.0071
 6044TIP3    H239768   5.001   5.520   2.304  0.0659  1.3641  4.1284
 6045TIP3   OH239769   3.191   0.624   0.272  0.3673  0.2451 -0.2815
 6045TIP3    H139770   3.137   0.702   0.285 -1.1419 -0.7502 -0.2390
 6045TIP3    H239771   3.202   0.588   0.360  2.1149  1.0361 -0.1365
 6046TIP3   OH239772   1.796   6.659   7.574 -0.3520  0.0655 -0.1015
 6046TIP3    H139773   1.800   6.564   7.588 -1.2430  0.2712  1.8264
 6046TIP3    H239774   1.760   6.694   7.655  3.2967  2.4176  0.7716
 6047TIP3   OH239775   1.203   4.454   6.632  0.7398  0.3803 -0.2498
 6047TIP3    H139776   1.148   4.488   6.562  0.6678  0.4698 -0.1504
 6047TIP3    H239777   1.284   4.428   6.589  0.5915  0.1786 -0.4082
 6048TIP3   OH239778   0.414   2.251   1.796 -0.3160 -0.2501 -0.0686
 6048TIP3    H139779   0.392   2.249   1.703 -1.0157 -0.7797  0.0988
 6048TIP3    H239780   0.441   2.341   1.812  1.8016 -0.6158 -1.2102
 6049TIP3   OH239781   0.328   1.772   1.132 -0.3730 -0.1397  0.3275
 6049TIP3    H139782   0.295   1.782   1.043  1.5405 -1.3474 -0.5756
 6049TIP3    H239783   0.253   1.792   1.188 -1.5665  0.8063 -1.5410
 6050TIP3   OH239784   6.613   5.260   7.974  0.0065  0.1026 -0.6173
 6050TIP3    H139785   6.534   5.207   7.961 -0.1332 -0.5492  2.3212
 6050TIP3    H239786   6.622   5.309   7.892 -3.1689 -0.1422 -1.2479
 6051TIP3   OH239787   6.624   3.956   0.562  0.3653  0.5887  0.4196
 6051TIP3    H139788   6.563   3.990   0.496 -0.1490  0.5834  0.8852
 6051TIP3    H239789   6.591   3.869   0.583  1.8317 -0.3425 -0.9561
 6052TIP3   OH239790   3.098   5.760   2.111 -0.2107  0.0663  0.3507
 6052TIP3    H139791   3.069   5.820   2.042  0.3593 -0.2025 -0.1316
 6052TIP3    H239792   3.188   5.786   2.130 -0.3807  0.1751  1.0478
 6053TIP3   OH239793   5.947   0.680   2.053  0.2483 -0.6822  0.0920
 6053TIP3    H139794   6.018   0.719   2.104 -0.2258 -0.7139  0.7804
 6053TIP3    H239795   5.901   0.755   2.015 -0.5798 -0.5471  1.3067
 6054TIP3   OH239796   5.431   1.792   0.603  0.4285 -0.2586 -0.2740
 6054TIP3    H139797   5.506   1.750   0.561  0.4913  1.0351 -1.5400
 6054TIP3    H239798   5.418   1.873   0.554  0.1277  1.0651  1.8718
 6055TIP3   OH239799   4.143   0.473   7.117  0.1320 -0.0646 -0.1221
 6055TIP3    H139800   4.111   0.384   7.097  1.1861 -0.5365  0.2191
 6055TIP3    H239801   4.236   0.461   7.133 -0.0164  0.8490  1.5817
 6056TIP3   OH239802   1.410   4.595   0.020  0.6085  0.1594  0.4393
 6056TIP3    H139803   1.387   4.688   0.018  1.5126  0.3875 -0.5932
 6056TIP3    H239804   1.388   4.566   0.108 -1.3959  0.9020  0.2308
 6057TIP3   OH239805   3.841   0.594   1.333 -0.0479 -0.4529 -0.3058
 6057TIP3    H139806   3.802   0.667   1.285  0.0755 -0.9157 -1.1315
 6057TIP3    H239807   3.828   0.616   1.425 -1.5586 -0.2323 -0.5540
 6058TIP3   OH239808   3.451   2.965   7.690  0.9305  0.0509  0.3832
 6058TIP3    H139809   3.449   2.884   7.741  0.2471 -1.0848 -1.3558
 6058TIP3    H239810   3.449   3.034   7.756  0.3782 -1.3309  1.8989
 6059TIP3   OH239811   3.639   6.481   0.153 -0.2497 -0.1652 -0.5562
 6059TIP3    H139812   3.674   6.392   0.149 -0.1452 -0.1353 -0.3117
 6059TIP3    H239813   3.688   6.528   0.085  0.4398 -0.0377  0.0185
 6060TIP3   OH239814   0.360   4.506   6.106  0.5079  0.2490 -0.1578
 6060TIP3    H139815   0.321   4.419   6.102 -0.4828  0.6390  0.5959
 6060TIP3    H239816   0.400   4.518   6.020 -0.8469 -0.2642 -0.8892
 6061TIP3   OH239817   6.937   1.551   7.210  0.2880  0.1169 -0.0365
 6061TIP3    H139818   7.007   1.486   7.217  1.0798  1.0835  1.7911
 6061TIP3    H239819   6.864   1.513   7.260  0.0287 -0.2037 -0.6398
 6062TIP3   OH239820   1.310   2.188   6.955  0.1845 -0.2746 -0.2063
 6062TIP3    H139821   1.312   2.244   7.032  1.1621 -0.4639 -0.0832
 6062TIP3    H239822   1.255   2.114   6.980 -0.2836  0.1268 -0.0270
 6063TIP3   OH239823   3.297   1.590   0.557  0.1515 -0.1177  0.4515
 6063TIP3    H139824   3.253   1.598   0.642  0.1965  1.1385  0.3843
 6063TIP3    H239825   3.248   1.523   0.510  0.0905 -0.8001  1.4445
 6064TIP3   OH239826   6.101   6.952   6.774 -0.3830  0.5839 -0.1211
 6064TIP3    H139827   6.082   6.882   6.836 -1.5083  0.6506 -0.3695
 6064TIP3    H239828   6.107   6.908   6.689 -0.8880  0.7613 -0.2492
 6065TIP3   OH239829   1.792   5.736   2.548 -0.1233 -0.5070  0.2120
 6065TIP3    H139830   1.764   5.809   2.493  1.8251 -0.1724 -0.4146
 6065TIP3    H239831   1.719   5.723   2.609 -1.1865  0.8983 -0.6822
 6066TIP3   OH239832   5.741   0.034   1.063  0.1663  0.1244 -0.2710
 6066TIP3    H139833   5.795   0.034   1.143 -0.0199  0.3420 -0.1439
 6066TIP3    H239834   5.804   0.024   0.992  0.2424 -1.3431 -0.0368
 6067TIP3   OH239835   1.456   1.561   6.851  0.0009  0.4262  0.6326
 6067TIP3    H139836   1.505   1.488   6.888 -1.0879 -0.0122  1.2458
 6067TIP3    H239837   1.440   1.536   6.760  1.5150  0.9079  0.1928
 6068TIP3   OH239838   1.151   1.999   1.639  0.1328  0.0618 -0.5062
 6068TIP3    H139839   1.165   2.060   1.712 -0.3682 -0.0402 -0.3217
 6068TIP3    H239840   1.057   1.985   1.637  0.3860 -2.1482  0.6403
 6069TIP3   OH239841   0.833   3.558   8.422  0.1395 -0.3284  0.3267
 6069TIP3    H139842   0.825   3.612   8.343  0.8275 -0.4311  0.1803
 6069TIP3    H239843   0.898   3.603   8.476  1.1782 -1.3015 -0.0639
 6070TIP3   OH239844   0.344   4.175   5.877 -0.2645 -0.4374 -1.1753
 6070TIP3    H139845   0.370   4.102   5.932  1.5208  2.6210  2.5647
 6070TIP3    H239846   0.251   4.188   5.896 -0.5176 -1.4663 -1.6383
 6071TIP3   OH239847   3.588   6.274   7.401  0.2427 -0.5555  0.3622
 6071TIP3    H139848   3.666   6.226   7.431  0.4417  0.1520  1.0079
 6071TIP3    H239849   3.522   6.253   7.467  0.4104  0.2630  0.8019
 6072TIP3   OH239850   0.035   5.820   7.105  0.8112  0.2407 -0.0501
 6072TIP3    H139851  -0.049   5.775   7.098 -0.0711  1.8865 -0.6107
 6072TIP3    H239852   0.078   5.805   7.021  0.9658 -0.3596  0.1309
 6073TIP3   OH239853   0.188   0.860   7.910 -0.3810 -0.2769 -0.2198
 6073TIP3    H139854   0.209   0.771   7.883  2.5682  0.0921  0.5630
 6073TIP3    H239855   0.137   0.849   7.991 -0.9518 -1.2281 -0.6888
 6074TIP3   OH239856   4.076   1.219   2.724 -0.4644  0.4143  0.0238
 6074TIP3    H139857   4.065   1.128   2.695 -0.0111  0.6544 -0.9418
 6074TIP3    H239858   4.161   1.221   2.768 -0.2692  0.4634 -0.3527
 6075TIP3   OH239859   5.907   4.928   8.180 -0.7427 -0.2967 -0.6086
 6075TIP3    H139860   5.968   4.882   8.237 -0.2620  0.2424 -0.6742
 6075TIP3    H239861   5.930   4.900   8.092 -1.2772 -0.8840 -0.5734
 6076TIP3   OH239862   6.872   0.544   1.816 -0.5898 -0.4587  0.4516
 6076TIP3    H139863   6.842   0.459   1.785 -1.8032  0.7545 -1.9888
 6076TIP3    H239864   6.939   0.570   1.754  1.8261 -0.7495  2.7743
 6077TIP3   OH239865   0.935   3.924   7.487 -0.1248 -0.0795  0.7721
 6077TIP3    H139866   0.987   3.920   7.568 -0.4239 -0.4307  0.9503
 6077TIP3    H239867   0.926   3.832   7.461  0.1763  0.0454  0.2041
 6078TIP3   OH239868   4.922   4.066   2.390 -0.3132 -0.0161 -0.0478
 6078TIP3    H139869   4.866   3.997   2.426  0.5754 -1.2148 -0.8581
 6078TIP3    H239870   5.003   4.060   2.440  0.3116 -0.5782 -1.0791
 6079TIP3   OH239871   3.532   0.758   6.418  0.1298  0.3292  0.0465
 6079TIP3    H139872   3.465   0.690   6.428 -2.3101  2.5989  0.0336
 6079TIP3    H239873   3.521   0.814   6.494  1.5442  1.1847 -0.3424
 6080TIP3   OH239874   2.131   6.934   1.156 -0.0239 -0.6518  0.4879
 6080TIP3    H139875   2.209   6.912   1.206 -0.1104  1.2879  1.5604
 6080TIP3    H239876   2.073   6.976   1.219  0.0111  2.2011 -1.2080
 6081TIP3   OH239877   2.904   5.072   7.845  0.1047 -0.4024 -0.4644
 6081TIP3    H139878   2.917   5.048   7.753 -0.3093 -2.4221 -0.0437
 6081TIP3    H239879   2.981   5.037   7.890 -1.4164 -2.8130  0.4482
 6082TIP3   OH239880   5.525   6.790   2.499  0.1597  0.5010 -0.4779
 6082TIP3    H139881   5.507   6.754   2.586 -0.0505  0.6674 -0.4521
 6082TIP3    H239882   5.498   6.721   2.438  0.0575  0.4893 -0.4188
 6083TIP3   OH239883   2.935   0.725   0.461 -0.5229 -0.0728  0.4083
 6083TIP3    H139884   2.994   0.799   0.444 -1.7951  1.0541  0.7846
 6083TIP3    H239885   2.993   0.657   0.495  0.6233  0.8870  0.4636
 6084TIP3   OH239886   6.165   1.088   0.700  0.2820 -0.2641  0.3035
 6084TIP3    H139887   6.160   1.140   0.781 -0.2606 -0.0672  0.1454
 6084TIP3    H239888   6.128   1.145   0.633  0.7098 -0.4383 -0.0822
 6085TIP3   OH239889   6.059   4.041   6.297  0.5893  0.2986  0.4746
 6085TIP3    H139890   5.968   4.023   6.272  0.3858  1.2435  0.5054
 6085TIP3    H239891   6.083   4.118   6.245  1.0357  0.6629  1.2089
 6086TIP3   OH239892   4.573   0.953   0.382  0.5193  0.0478  0.1959
 6086TIP3    H139893   4.550   1.005   0.305  1.7537 -1.8134 -1.5509
 6086TIP3    H239894   4.547   0.864   0.360  3.8477 -1.1507  0.4600
 6087TIP3   OH239895   1.952   6.326   1.558 -0.4704  0.3896  0.5282
 6087TIP3    H139896   2.025   6.352   1.502 -1.3851  1.3446 -0.2475
 6087TIP3    H239897   1.973   6.363   1.644 -0.7051  1.8940 -0.0332
 6088TIP3   OH239898   3.404   5.700   7.348 -0.2307  0.2525  0.0405
 6088TIP3    H139899   3.380   5.717   7.257 -0.2352 -1.3741 -0.2994
 6088TIP3    H239900   3.485   5.649   7.342 -0.0636  0.3922  0.9627
 6089TIP3   OH239901   1.080   0.957   1.188  0.5944  0.7608  0.1501
 6089TIP3    H139902   1.063   1.008   1.268  1.3455 -0.6309  1.2231
 6089TIP3    H239903   1.159   0.995   1.151  1.5082  0.0038  1.2865
 6090TIP3   OH239904   6.448   5.421   1.740  0.4578 -0.0418  0.5269
 6090TIP3    H139905   6.457   5.369   1.820  3.2029  0.5727  0.7299
 6090TIP3    H239906   6.532   5.411   1.695  0.2710  2.4091 -0.5191
 6091TIP3   OH239907   0.292   3.333   0.612  0.1826 -0.6202  1.1352
 6091TIP3    H139908   0.292   3.421   0.650  2.7763 -0.3078  0.5553
 6091TIP3    H239909   0.270   3.275   0.685  0.6637  0.3307  2.0551
 6092TIP3   OH239910   0.016   0.659   1.612 -0.4141 -0.0339 -0.3905
 6092TIP3    H139911  -0.034   0.699   1.541  0.1708  0.0589 -0.7591
 6092TIP3    H239912   0.098   0.707   1.614 -0.6886  0.4088  0.8114
 6093TIP3   OH239913   2.730   3.193   8.026  0.0054 -0.2763 -0.0991
 6093TIP3    H139914   2.721   3.108   7.982 -0.1339 -0.0325 -0.5535
 6093TIP3    H239915   2.816   3.225   7.998 -0.4964  0.3261 -1.0079
 6094TIP3   OH239916   4.939   2.042   0.685 -0.4023  0.1541  0.2484
 6094TIP3    H139917   4.858   2.000   0.658 -0.6816 -1.2645  2.9301
 6094TIP3    H239918   5.007   1.976   0.670  0.1344  0.9404 -0.9677
 6095TIP3   OH239919   4.997   1.988   2.428  0.6175  0.5807 -0.4266
 6095TIP3    H139920   4.928   2.052   2.409  1.7340  1.4970 -1.5748
 6095TIP3    H239921   4.986   1.921   2.361  0.2286  0.2011  0.0103
 6096TIP3   OH239922   0.965   1.727   0.585 -0.4573  0.1537  0.2912
 6096TIP3    H139923   0.870   1.718   0.587 -0.3841 -1.1697 -0.8212
 6096TIP3    H239924   0.981   1.799   0.524 -0.7412  0.2820  0.3692
 6097TIP3   OH239925   0.715   5.585   7.963 -0.4320  0.2249 -0.3460
 6097TIP3    H139926   0.773   5.611   7.891 -1.6227 -1.1184 -1.8716
 6097TIP3    H239927   0.687   5.668   8.001 -0.6800  1.0546 -2.2121
 6098TIP3   OH239928   2.155   3.369   1.227 -0.8471 -0.6392  0.0418
 6098TIP3    H139929   2.063   3.358   1.249 -0.7723 -0.0396  0.7053
 6098TIP3    H239930   2.197   3.288   1.257 -0.7119  0.2322  2.4523
 6099TIP3   OH239931   1.629   4.975   1.396  0.2520  0.2105  0.3448
 6099TIP3    H139932   1.621   5.062   1.358  0.5818  0.0147 -0.1871
 6099TIP3    H239933   1.714   4.975   1.440 -0.4931  0.7178  1.8520
 6100TIP3   OH239934   2.772   2.562   0.288 -0.1170 -0.4704  0.2662
 6100TIP3    H139935   2.794   2.638   0.342 -0.5913  0.7975 -1.2359
 6100TIP3    H239936   2.843   2.499   0.305  1.2507  0.9976  0.2606
 6101TIP3   OH239937   4.373   4.607   7.987 -0.0710  0.2557  0.4243
 6101TIP3    H139938   4.432   4.672   8.026 -0.7968  1.6060 -0.6518
 6101TIP3    H239939   4.314   4.583   8.058  1.2757 -0.5662  1.3188
 6102TIP3   OH239940   5.715   1.764   0.324  0.6780 -0.4074 -0.0378
 6102TIP3    H139941   5.765   1.731   0.399 -2.8768  0.0704  2.8571
 6102TIP3    H239942   5.746   1.853   0.310  1.4664 -0.5385  0.8332
 6103TIP3   OH239943   2.795   0.568   7.685  0.5693 -0.0087 -0.0958
 6103TIP3    H139944   2.838   0.607   7.761  0.0909 -0.1563  0.2601
 6103TIP3    H239945   2.865   0.521   7.639  0.5094 -1.6320  1.3636
 6104TIP3   OH239946   0.934   2.129   0.779 -0.5973 -0.2698  0.2702
 6104TIP3    H139947   0.931   2.167   0.691  2.4735 -0.1155  0.1289
 6104TIP3    H239948   0.871   2.057   0.776  0.1228 -0.9144 -2.4408
 6105TIP3   OH239949   2.056   6.842   0.195 -0.3081  0.3399  0.4797
 6105TIP3    H139950   2.078   6.889   0.115  1.4697  0.5372  1.0493
 6105TIP3    H239951   2.102   6.889   0.264 -1.9185  0.2557  1.6664
 6106TIP3   OH239952   4.274   6.745   0.087  0.0272  0.2162  0.3202
 6106TIP3    H139953   4.343   6.703   0.036 -0.3423  0.4426 -0.3750
 6106TIP3    H239954   4.193   6.726   0.039 -0.5186 -0.6970  1.5203
 6107TIP3   OH239955   3.135   2.706   7.877  0.5410  0.8883  0.1995
 6107TIP3    H139956   3.097   2.724   7.791 -1.9735 -0.3597  0.9701
 6107TIP3    H239957   3.097   2.772   7.935 -0.2985 -0.1982  0.9327
 6108TIP3   OH239958   5.036   4.352   2.483  0.5353 -0.3506 -0.3056
 6108TIP3    H139959   5.055   4.266   2.521  1.1592 -1.5140 -2.9822
 6108TIP3    H239960   5.105   4.409   2.517  0.0839 -0.8694  1.5630
 6109TIP3   OH239961   6.793   0.304   6.687  0.0549 -0.5978 -0.5459
 6109TIP3    H139962   6.794   0.399   6.678 -1.2719 -0.3749  1.1888
 6109TIP3    H239963   6.704   0.283   6.716  0.4905 -2.3165 -0.3228
 6110TIP3   OH239964   6.442   0.251   7.824 -0.3269  0.2406 -0.0101
 6110TIP3    H139965   6.350   0.246   7.798  0.3683  0.6336 -2.8148
 6110TIP3    H239966   6.484   0.179   7.777  1.1327  1.3315 -0.4387
 6111TIP3   OH239967   5.813   1.954   0.924 -0.1182  0.7188  0.5357
 6111TIP3    H139968   5.775   1.894   0.988 -0.0650 -0.6299 -0.6242
 6111TIP3    H239969   5.840   2.031   0.974  1.4803 -0.9552  2.4139
 6112TIP3   OH239970   1.371   5.125   0.366 -0.0370 -0.1592 -0.1290
 6112TIP3    H139971   1.414   5.091   0.444 -2.2213 -0.7923  0.8529
 6112TIP3    H239972   1.416   5.208   0.348  0.7410 -0.1712  1.5803
 6113TIP3   OH239973   2.748   5.795   7.079 -0.0349  0.1504  0.4760
 6113TIP3    H139974   2.680   5.729   7.071 -0.5927  0.7007  0.6022
 6113TIP3    H239975   2.797   5.770   7.157  0.8034 -1.0449 -0.3902
 6114TIP3   OH239976   1.688   5.493   7.255 -0.1435  0.3152 -0.6610
 6114TIP3    H139977   1.720   5.554   7.188 -0.0058  0.7411 -0.2202
 6114TIP3    H239978   1.625   5.545   7.305 -0.2434  0.0020 -0.4650
 6115TIP3   OH239979   2.147   6.739   7.808 -0.3243  0.2082 -0.1078
 6115TIP3    H139980   2.094   6.666   7.839  0.2244  0.0995  0.6108
 6115TIP3    H239981   2.234   6.702   7.797  0.6228  1.2518  2.7413
 6116TIP3   OH239982   3.789   0.228   2.853  0.1211 -0.0988  0.2712
 6116TIP3    H139983   3.884   0.231   2.864  1.1052  1.5495 -5.3813
 6116TIP3    H239984   3.774   0.154   2.794 -1.4448  1.8285 -1.9269
 6117TIP3   OH239985   5.532   1.365   8.460 -0.0584  0.2477  0.0218
 6117TIP3    H139986   5.616   1.411   8.456 -0.2884  0.5795 -1.7672
 6117TIP3    H239987   5.551   1.284   8.508  1.3253  0.2478 -0.4886
 6118TIP3   OH239988   2.150   6.155   0.262 -0.3568 -0.3151  0.1374
 6118TIP3    H139989   2.090   6.081   0.266  1.0662 -1.4985  0.0938
 6118TIP3    H239990   2.236   6.118   0.277  0.3919  1.3493  0.1939
 6119TIP3   OH239991   5.227   6.906   0.588 -0.4039 -0.2451 -0.8963
 6119TIP3    H139992   5.301   6.965   0.607  0.4658 -1.9963  1.6687
 6119TIP3    H239993   5.268   6.831   0.545 -0.8347 -0.7890 -0.3626
 6120TIP3   OH239994   1.386   6.377   1.979  0.2823 -0.0746 -0.5311
 6120TIP3    H139995   1.433   6.382   1.896 -3.3473  0.9273 -2.7753
 6120TIP3    H239996   1.415   6.454   2.027  1.6172 -0.0293 -1.3620
 6121TIP3   OH239997   2.165   5.481   8.001 -0.0187  0.5841 -0.6086
 6121TIP3    H139998   2.141   5.409   7.941  2.0970 -1.2403  0.5552
 6121TIP3    H239999   2.084   5.502   8.047 -1.3855  1.0685 -3.0532
 6122TIP3   OH240000   6.080   6.782   7.363 -0.0505  0.2062  0.0404
 6122TIP3    H140001   6.023   6.818   7.295 -1.7148 -1.3592  0.5470
 6122TIP3    H240002   6.159   6.755   7.315 -1.4093 -1.4017 -1.4168
 6123TIP3   OH240003   0.394   4.300   7.007  0.5174 -0.5455  0.0727
 6123TIP3    H140004   0.412   4.235   7.075  2.1283 -0.8775 -0.6352
 6123TIP3    H240005   0.422   4.383   7.046  0.2272 -0.5493  0.2882
 6124TIP3   OH240006   3.869   6.528   1.716  0.3334 -0.2058 -0.5162
 6124TIP3    H140007   3.815   6.580   1.775 -0.5404 -1.5997 -0.0373
 6124TIP3    H240008   3.818   6.522   1.635 -0.0291 -1.1224 -0.2292
 6125TIP3   OH240009   2.102   5.292   0.712  0.5453 -0.1611  0.4604
 6125TIP3    H140010   2.110   5.365   0.650  0.7162 -0.3795  0.2172
 6125TIP3    H240011   2.097   5.333   0.798 -1.8815  0.2693  0.1878
 6126TIP3   OH240012   2.734   0.253   1.370 -0.1843 -0.1519 -0.3694
 6126TIP3    H140013   2.681   0.327   1.399 -0.8121 -1.6985  2.8363
 6126TIP3    H240014   2.824   0.279   1.389 -0.3807 -0.1041  0.5218
 6127TIP3   OH240015   5.705   3.864   1.841  0.4583  0.6120 -0.6459
 6127TIP3    H140016   5.755   3.795   1.799  3.5822  1.0088  1.9971
 6127TIP3    H240017   5.760   3.942   1.834 -1.4359  2.0341 -0.6361
 6128TIP3   OH240018   0.575   2.441   2.195 -0.6152  0.7582  0.0226
 6128TIP3    H140019   0.639   2.502   2.234  0.7761 -1.3482  1.2257
 6128TIP3    H240020   0.496   2.453   2.248 -0.8341  2.4437 -0.6304
 6129TIP3   OH240021   4.817   4.482   1.316 -0.1854  0.2867  0.1066
 6129TIP3    H140022   4.825   4.405   1.372  2.1737  1.0004  0.8766
 6129TIP3    H240023   4.722   4.495   1.306 -0.6407 -1.8202  1.1524
 6130TIP3   OH240024   0.239   4.177   7.802 -0.0926 -0.7098  0.5781
 6130TIP3    H140025   0.197   4.253   7.841 -1.0489 -0.3860 -1.0083
 6130TIP3    H240026   0.235   4.110   7.870 -0.4871  0.2295  1.5071
 6131TIP3   OH240027   2.682   4.689   7.272  0.2741  0.2738  0.3060
 6131TIP3    H140028   2.723   4.613   7.231 -0.1700  0.2972 -0.1946
 6131TIP3    H240029   2.745   4.718   7.338  1.6090  1.0260 -1.2165
 6132TIP3   OH240030   4.868   0.995   1.609 -0.1103  0.2388 -0.0541
 6132TIP3    H140031   4.830   1.020   1.693 -0.5103 -2.0405  0.5061
 6132TIP3    H240032   4.792   0.984   1.551  0.1688  1.9301 -0.8204
 6133TIP3   OH240033   5.101   0.178   0.020  0.0250  0.0075 -0.0992
 6133TIP3    H140034   5.145   0.130  -0.051  1.3089 -0.1881  0.8039
 6133TIP3    H240035   5.171   0.222   0.067 -0.8743  0.6350  0.7025
 6134TIP3   OH240036   0.481   2.916   2.296 -0.2358 -0.0273 -0.3835
 6134TIP3    H140037   0.562   2.910   2.346 -0.8377 -0.2046  0.5841
 6134TIP3    H240038   0.420   2.857   2.340 -1.0851  0.5677 -0.7200
 6135TIP3   OH240039   4.753   5.875   7.339 -0.2972  0.2797  0.2631
 6135TIP3    H140040   4.759   5.861   7.244 -0.3946  0.5195  0.2206
 6135TIP3    H240041   4.770   5.968   7.350  0.1275  0.1734  0.5199
 6136TIP3   OH240042   2.175   5.121   7.605 -0.4288 -0.1489 -0.2614
 6136TIP3    H140043   2.119   5.044   7.590  1.3277 -1.7390  0.8727
 6136TIP3    H240044   2.253   5.104   7.553  0.4244  0.3534  0.8344
 6137TIP3   OH240045   6.310   6.223   0.067  0.2691 -0.1952  0.1684
 6137TIP3    H140046   6.375   6.221   0.137 -1.1826  0.0230  1.6072
 6137TIP3    H240047   6.229   6.250   0.111 -0.3523  1.6307 -1.9080
 6138TIP3   OH240048   5.371   0.648   8.154 -0.5524  0.0938  0.0144
 6138TIP3    H140049   5.297   0.648   8.216  0.2925  0.9288  1.0706
 6138TIP3    H240050   5.356   0.725   8.100  0.2620  1.1093  1.1755
 6139TIP3   OH240051   0.833   3.415   2.070 -0.6321  0.0569  0.5150
 6139TIP3    H140052   0.895   3.343   2.071 -0.6304 -0.0115 -1.4222
 6139TIP3    H240053   0.885   3.492   2.046 -1.0775  0.1992 -0.0326
 6140TIP3   OH240054   0.737   6.862   0.603  0.0852 -0.0543  0.2142
 6140TIP3    H140055   0.823   6.828   0.627  0.0489 -0.1874  0.1590
 6140TIP3    H240056   0.732   6.849   0.508 -0.7685 -1.8572  0.4624
 6141TIP3   OH240057   4.952   5.899   0.472 -0.6649 -0.1196 -0.4305
 6141TIP3    H140058   4.929   5.948   0.552  0.2358  1.2669 -0.9990
 6141TIP3    H240059   4.928   5.958   0.401  2.2412  0.3701 -1.1069
 6142TIP3   OH240060   6.170   1.206   8.223  0.5967 -0.6707 -0.2829
 6142TIP3    H140061   6.208   1.254   8.151  0.2064 -0.2735 -0.2270
 6142TIP3    H240062   6.199   1.116   8.210  0.4963 -0.6090 -0.9530
 6143TIP3   OH240063   2.383   4.719   2.282 -0.6845 -0.2266 -0.1178
 6143TIP3    H140064   2.327   4.781   2.234  1.4948  1.0784 -1.1591
 6143TIP3    H240065   2.367   4.635   2.239 -0.1113  0.5828 -2.0229
 6144TIP3   OH240066   5.587   3.249   6.595  0.2465 -0.2414 -0.5906
 6144TIP3    H140067   5.595   3.182   6.663 -1.1694  1.4898  1.4302
 6144TIP3    H240068   5.676   3.277   6.578  0.8812 -2.5984 -1.5280
 6145TIP3   OH240069   3.067   1.280   1.662 -0.8487 -0.3303 -0.1416
 6145TIP3    H140070   3.003   1.211   1.684 -0.5213  0.1166  2.5768
 6145TIP3    H240071   3.151   1.242   1.685 -0.5214  0.4757  0.0038
 6146TIP3   OH240072   1.819   1.277   7.578  0.1215  0.0762  0.6244
 6146TIP3    H140073   1.817   1.363   7.620  1.7081  0.7853 -0.6315
 6146TIP3    H240074   1.799   1.295   7.486 -0.9366 -1.1176  0.5874
 6147TIP3   OH240075   5.514   2.002   0.185  0.4620 -0.2611  0.3784
 6147TIP3    H140076   5.471   1.924   0.220  1.7066 -1.6309 -0.9928
 6147TIP3    H240077   5.442   2.058   0.156 -0.4432 -1.1932  0.7598
 6148TIP3   OH240078   3.641   5.272   8.182 -0.6521  0.2104  0.6240
 6148TIP3    H140079   3.700   5.200   8.204 -1.6946 -0.8583  0.0318
 6148TIP3    H240080   3.668   5.299   8.094 -1.8512 -1.1927 -0.2271
 6149TIP3   OH240081   3.669   2.412   8.055 -0.1449 -0.4140  0.5357
 6149TIP3    H140082   3.589   2.453   8.088  0.5658  1.4986 -0.0081
 6149TIP3    H240083   3.732   2.423   8.126  0.1655 -0.2004  0.2262
 6150TIP3   OH240084   6.179   5.540   7.864  0.0242  0.3933 -0.1635
 6150TIP3    H140085   6.148   5.452   7.886  0.1859  0.5208  0.5887
 6150TIP3    H240086   6.202   5.535   7.771 -0.9239 -0.0814 -0.3799
 6151TIP3   OH240087   1.190   3.250   1.141  0.4406  0.5267  0.5849
 6151TIP3    H140088   1.225   3.339   1.141  1.7218  0.0397  1.0843
 6151TIP3    H240089   1.101   3.259   1.175 -0.0955  1.8348 -1.0019
 6152TIP3   OH240090   2.660   1.574   2.373 -0.0900 -0.8874  0.2500
 6152TIP3    H140091   2.629   1.485   2.387  0.3210 -1.3636 -1.6036
 6152TIP3    H240092   2.591   1.629   2.410 -0.4258 -1.9507  1.2845
 6153TIP3   OH240093   4.012   1.266   7.578 -0.2218 -0.0320  0.5055
 6153TIP3    H140094   4.062   1.265   7.659 -0.3529 -1.7495  0.5838
 6153TIP3    H240095   4.048   1.341   7.529  0.0445  0.8525  2.0000
 6154TIP3   OH240096   2.319   5.943   0.322  0.4614 -0.0671  0.5197
 6154TIP3    H140097   2.404   5.950   0.364  1.0076 -0.0367 -0.5760
 6154TIP3    H240098   2.283   5.859   0.353  1.0653 -0.2785  0.6493
 6155TIP3   OH240099   0.821   6.552   7.938  0.8815  1.1394  0.0105
 6155TIP3    H140100   0.901   6.599   7.916  2.2787 -1.3318 -0.5452
 6155TIP3    H240101   0.833   6.526   8.029  0.3077  1.4466  0.1828
 6156TIP3   OH240102   6.854   6.048   0.111 -0.2018  0.2973 -0.6978
 6156TIP3    H140103   6.767   6.009   0.117 -0.3202  0.6529  0.1568
 6156TIP3    H240104   6.884   6.029   0.022 -0.9889 -0.1675 -0.8689
 6157TIP3   OH240105   3.797   1.164   0.090  0.2924  0.4420  0.1596
 6157TIP3    H140106   3.717   1.212   0.109 -2.0998 -1.9202 -2.9630
 6157TIP3    H240107   3.866   1.230   0.093 -2.2636  3.3798 -0.5934
 6158TIP3   OH240108   6.097   4.839   0.927  0.7368 -0.2322 -0.2268
 6158TIP3    H140109   6.116   4.800   1.012  1.9874  2.0511  0.6385
 6158TIP3    H240110   6.003   4.824   0.914  0.7529 -1.5889  0.9897
 6159TIP3   OH240111   4.687   6.640   1.883  0.2045  0.2806  0.2351
 6159TIP3    H140112   4.634   6.591   1.946  0.9452 -0.4574  0.2968
 6159TIP3    H240113   4.721   6.715   1.932 -0.6715  0.7055  0.2252
 6160TIP3   OH240114   4.980   3.279   1.786 -0.3624  0.3859  0.0365
 6160TIP3    H140115   5.059   3.224   1.786 -0.5157  0.1038 -1.5494
 6160TIP3    H240116   4.958   3.290   1.878  1.6407  0.6416  0.5287
 6161TIP3   OH240117   3.718   4.607   0.525  0.5045 -0.7419 -0.2457
 6161TIP3    H140118   3.763   4.687   0.498 -2.3319  1.8395  1.9372
 6161TIP3    H240119   3.774   4.570   0.594  1.0564  0.3287 -0.1018
 6162TIP3   OH240120   0.421   5.175   0.330 -0.2149 -0.3282 -0.7573
 6162TIP3    H140121   0.331   5.203   0.347  0.0970 -0.0151  0.4594
 6162TIP3    H240122   0.442   5.115   0.401  0.3151 -0.9315 -1.4108
 6163TIP3   OH240123   5.184   6.069   8.392  0.4529 -0.0344  0.0128
 6163TIP3    H140124   5.118   6.080   8.323  1.4078 -0.5565 -1.0234
 6163TIP3    H240125   5.140   6.017   8.459 -0.0628 -0.7832 -0.8706
 6164TIP3   OH240126   1.115   5.726   8.295  0.2710  0.2262 -0.4137
 6164TIP3    H140127   1.201   5.703   8.330  0.5049  0.4431 -0.8341
 6164TIP3    H240128   1.069   5.765   8.369  0.5768  0.2108 -0.2126
 6165TIP3   OH240129   0.387   4.217   7.569 -0.3093 -0.1374  0.3887
 6165TIP3    H140130   0.369   4.199   7.661 -0.1548 -3.6643 -0.1177
 6165TIP3    H240131   0.301   4.230   7.530 -0.3508  1.8234  1.0372
 6166TIP3   OH240132   1.987   0.842   0.171  0.1041  0.0713  0.3813
 6166TIP3    H140133   2.061   0.884   0.215 -0.8761  0.7075  1.4904
 6166TIP3    H240134   1.931   0.914   0.142  0.4899 -0.3646 -1.5273
 6167TIP3   OH240135   2.213   0.370   8.442  0.0329 -0.0658  0.6933
 6167TIP3    H140136   2.255   0.383   8.356 -0.7740 -1.7471 -0.0047
 6167TIP3    H240137   2.121   0.353   8.421 -0.3306  0.2593  1.9614
 6168TIP3   OH240138   5.487   3.306   7.193 -0.0018 -0.5733 -0.1636
 6168TIP3    H140139   5.582   3.310   7.183 -0.2528  0.0620 -3.1892
 6168TIP3    H240140   5.465   3.215   7.173  0.0439 -1.1169  2.0656
 6169TIP3   OH240141   6.206   1.323   7.352 -0.3368 -0.3467  0.4348
 6169TIP3    H140142   6.144   1.282   7.413 -0.0515 -1.2550  0.1348
 6169TIP3    H240143   6.154   1.340   7.274 -0.2762 -0.8656  0.2785
 6170TIP3   OH240144   3.065   0.462   6.370 -1.0142 -0.3610  0.1621
 6170TIP3    H140145   3.051   0.547   6.412  3.6143  1.2962 -1.0045
 6170TIP3    H240146   3.107   0.410   6.438  0.2246 -0.0676 -0.3479
 6171TIP3   OH240147   0.530   5.659   0.769  0.8849 -0.1021 -0.5215
 6171TIP3    H140148   0.462   5.715   0.804  0.8050  0.4034 -1.4517
 6171TIP3    H240149   0.600   5.662   0.835 -0.5673 -1.9152  1.2393
 6172TIP3   OH240150   5.046   5.262   1.157  0.0842 -0.1508 -0.1789
 6172TIP3    H140151   5.096   5.228   1.231 -0.5652 -1.6676 -0.3877
 6172TIP3    H240152   5.009   5.344   1.188  0.5093 -0.3426  0.8811
 6173TIP3   OH240153   4.454   6.952   2.584 -0.2760 -0.1249 -0.1154
 6173TIP3    H140154   4.455   6.857   2.596  1.1285  0.0228  1.3077
 6173TIP3    H240155   4.365   6.972   2.555 -1.4162 -1.5861  2.1019
 6174TIP3   OH240156   2.906   6.063   2.804  0.6749 -0.7805 -0.0848
 6174TIP3    H140157   2.948   5.986   2.766 -1.4766 -1.3488 -1.5161
 6174TIP3    H240158   2.858   6.029   2.880  1.3749 -0.4537  0.5135
 6175TIP3   OH240159   1.649   4.485   0.567 -0.2304 -0.1066 -0.1690
 6175TIP3    H140160   1.705   4.547   0.521  0.4439 -1.2138 -0.8964
 6175TIP3    H240161   1.609   4.433   0.498  0.4917 -1.5527  0.4564
 6176TIP3   OH240162   2.569   3.364   1.460  0.7932  0.5830 -0.2951
 6176TIP3    H140163   2.474   3.359   1.451  0.8311  0.0317 -0.4625
 6176TIP3    H240164   2.590   3.299   1.528  1.1432 -0.0555 -0.9961
 6177TIP3   OH240165   6.163   4.240   0.850 -0.1523 -0.0335 -0.6967
 6177TIP3    H140166   6.227   4.300   0.888  2.2606 -2.0020 -1.3825
 6177TIP3    H240167   6.100   4.224   0.920 -0.1543  2.2720 -0.1078
 6178TIP3   OH240168   6.947   4.395   6.802 -0.3705  0.6469 -0.1410
 6178TIP3    H140169   6.955   4.300   6.816 -0.0743  0.9917  2.4905
 6178TIP3    H240170   7.037   4.424   6.788 -0.0922  0.8432  1.7716
 6179TIP3   OH240171   1.643   5.346   7.873 -0.8492  0.0393 -0.1720
 6179TIP3    H140172   1.577   5.404   7.834 -0.6953  0.5108  0.2614
 6179TIP3    H240173   1.725   5.372   7.830 -1.2972 -2.4538 -2.8620
 6180TIP3   OH240174   0.486   1.636   7.099  0.1640  0.7795  0.0590
 6180TIP3    H140175   0.412   1.620   7.158  1.5805  0.5548  1.8495
 6180TIP3    H240176   0.465   1.718   7.055 -0.9834  0.8887  0.7782
 6181TIP3   OH240177   2.578   2.694   7.961  0.6792  0.1422  0.3437
 6181TIP3    H140178   2.593   2.698   7.867  1.8438 -0.1334  0.5036
 6181TIP3    H240179   2.665   2.703   8.000  0.2352  0.0760  1.3894
 6182TIP3   OH240180   1.877   4.245   7.908  0.2103  0.0539  0.3645
 6182TIP3    H140181   1.816   4.302   7.955  2.3015  2.0373  0.8502
 6182TIP3    H240182   1.836   4.233   7.822 -1.7190 -0.2547  1.2744
 6183TIP3   OH240183   4.684   2.255   1.756 -0.7097  0.2169  0.0912
 6183TIP3    H140184   4.740   2.179   1.768  0.2013  0.9660  0.7700
 6183TIP3    H240185   4.654   2.277   1.844 -0.6059  0.8959 -0.0361
 6184TIP3   OH240186   3.821   6.278   0.151 -0.2803  0.1086  0.5498
 6184TIP3    H140187   3.916   6.280   0.166 -0.2530 -0.1950  0.4378
 6184TIP3    H240188   3.790   6.208   0.209 -0.1600 -1.1477 -0.8304
 6185TIP3   OH240189   3.658   3.595   8.328  0.3867 -0.2248  0.3578
 6185TIP3    H140190   3.682   3.599   8.420 -1.2090  1.6678  0.7730
 6185TIP3    H240191   3.563   3.609   8.327  0.2566 -0.9443 -1.5262
 6186TIP3   OH240192   2.379   4.302   1.598 -0.2210 -0.3479  0.2181
 6186TIP3    H140193   2.388   4.246   1.521 -0.1251 -0.6233  0.4272
 6186TIP3    H240194   2.396   4.390   1.565  1.5848 -0.6516  0.2547
 6187TIP3   OH240195   4.248   6.990   0.447  0.0313 -0.2867  0.2792
 6187TIP3    H140196   4.164   6.996   0.493 -0.2846 -1.2174 -0.1675
 6187TIP3    H240197   4.225   6.996   0.354  0.2272 -2.5837  0.0464
 6188TIP3   OH240198   6.749   6.820   0.863 -0.5383 -0.5708 -0.3824
 6188TIP3    H140199   6.839   6.851   0.855 -0.7442  0.1573  0.0842
 6188TIP3    H240200   6.700   6.869   0.797 -0.7552 -0.3278 -0.0430
 6189TIP3   OH240201   6.773   5.478   0.726 -0.3916  0.2698 -0.9073
 6189TIP3    H140202   6.804   5.461   0.636 -1.1928 -2.1621 -0.8118
 6189TIP3    H240203   6.851   5.463   0.780 -0.3224 -0.0059 -1.0785
 6190TIP3   OH240204   2.063   6.278   8.299  0.3831 -0.1460 -0.8873
 6190TIP3    H140205   2.044   6.186   8.319  1.6690 -0.8740 -2.7482
 6190TIP3    H240206   2.147   6.295   8.342 -0.5251  0.6309  0.6478
 6191TIP3   OH240207   6.938   4.794   0.841 -0.4069  0.3527 -0.7195
 6191TIP3    H140208   6.876   4.727   0.868  0.4864 -0.9844 -1.8495
 6191TIP3    H240209   6.889   4.851   0.782 -0.6420 -0.5327 -1.3852
 6192TIP3   OH240210   3.624   3.425   2.000  0.0725  0.7507  0.4322
 6192TIP3    H140211   3.623   3.469   2.085  3.3031 -0.8007  1.4189
 6192TIP3    H240212   3.713   3.435   1.968 -0.8579  0.6961 -2.5564
 6193TIP3   OH240213   0.026   2.724   7.352  0.3225 -0.2187  0.0451
 6193TIP3    H140214   0.025   2.717   7.448  1.7324  0.9340  0.1818
 6193TIP3    H240215   0.006   2.636   7.321  1.3530 -0.9893  1.4311
 6194TIP3   OH240216   2.890   3.551   6.222 -0.3785 -1.0317 -0.0929
 6194TIP3    H140217   2.853   3.494   6.289  1.4737 -0.3107  1.6553
 6194TIP3    H240218   2.980   3.568   6.251 -0.0342  0.6954 -1.8805
 6195TIP3   OH240219   2.932   4.757   7.709 -0.0194  0.1891  0.0845
 6195TIP3    H140220   2.983   4.774   7.788  0.8397  0.3741 -0.4958
 6195TIP3    H240221   2.997   4.735   7.643 -0.7599 -0.4192 -0.4626
 6196TIP3   OH240222   4.737   1.757   7.860  0.3059  0.0421 -0.5855
 6196TIP3    H140223   4.681   1.814   7.808 -0.4733 -0.7296 -0.6185
 6196TIP3    H240224   4.702   1.761   7.948 -0.4660 -1.2225 -0.8032
 6197TIP3   OH240225   4.566   3.414   1.953 -0.3068 -0.4391  0.3367
 6197TIP3    H140226   4.500   3.353   1.920 -1.9624  0.5725  1.5808
 6197TIP3    H240227   4.618   3.438   1.876 -1.2922 -1.4047 -0.6582
 6198TIP3   OH240228   3.431   3.456   1.810 -0.5221 -0.0206  0.0923
 6198TIP3    H140229   3.506   3.453   1.869 -0.8895  0.5303  0.6107
 6198TIP3    H240230   3.390   3.370   1.818  0.3522 -0.5111 -0.6089
 6199TIP3   OH240231   4.501   3.351   1.282  0.0842 -0.2570  0.0525
 6199TIP3    H140232   4.448   3.362   1.361  0.0782  0.6445 -0.0660
 6199TIP3    H240233   4.455   3.283   1.232  0.9046 -1.9487  1.4831
 6200TIP3   OH240234   4.837   2.986   7.250 -0.1879  0.0335  0.2742
 6200TIP3    H140235   4.932   2.978   7.248 -0.1674 -0.1180 -2.2288
 6200TIP3    H240236   4.807   2.908   7.297  0.9072  0.4478  1.7341
 6201TIP3   OH240237   0.152   0.398   0.176 -0.1992  0.4719 -0.3523
 6201TIP3    H140238   0.210   0.432   0.245 -0.0040 -0.0034 -0.2842
 6201TIP3    H240239   0.069   0.445   0.190 -1.0955 -1.5905  1.9752
 6202TIP3   OH240240   1.359   2.797   1.110 -0.7779  0.1021 -0.4001
 6202TIP3    H140241   1.337   2.889   1.100 -0.5349  0.4158  1.5494
 6202TIP3    H240242   1.448   2.789   1.076  0.4763  1.3410  2.2390
 6203TIP3   OH240243   5.891   2.447   2.542  0.9536  0.5164 -0.2522
 6203TIP3    H140244   5.797   2.460   2.528  1.1253 -0.5369 -3.1166
 6203TIP3    H240245   5.926   2.534   2.559 -0.1047  1.4696 -2.6080
 6204TIP3   OH240246   3.122   4.334   0.890 -0.1351 -0.2905 -0.2071
 6204TIP3    H140247   3.070   4.343   0.810 -1.4321 -0.9723  0.5231
 6204TIP3    H240248   3.110   4.242   0.915  1.3871 -0.4497  0.0286
 6205TIP3   OH240249   4.106   5.240   2.794  0.5435 -0.5644 -0.3226
 6205TIP3    H140250   4.016   5.258   2.767 -0.0022 -1.9724  0.4292
 6205TIP3    H240251   4.133   5.166   2.740  0.3240 -1.7879  1.1626
 6206TIP3   OH240252   3.978   3.221   2.411  0.0199  0.3894 -0.6010
 6206TIP3    H140253   3.951   3.184   2.496 -1.1155 -0.7812 -1.4410
 6206TIP3    H240254   4.027   3.151   2.368 -0.8740  0.3639 -1.6054
 6207TIP3   OH240255   5.317   4.011   6.781 -0.1028  0.1928 -0.2199
 6207TIP3    H140256   5.316   3.981   6.872 -0.9206 -0.8108 -0.5358
 6207TIP3    H240257   5.231   4.053   6.769 -1.0428 -1.8438 -1.1736
 6208TIP3   OH240258   2.133   2.532   2.243 -0.6152  0.1076  0.2463
 6208TIP3    H140259   2.081   2.489   2.175  1.5706 -2.4248  0.0175
 6208TIP3    H240260   2.197   2.466   2.270 -0.1806  1.6364  3.4746
 6209TIP3   OH240261   0.392   3.084   1.290 -0.0772 -0.4669 -0.6359
 6209TIP3    H140262   0.420   3.175   1.294  1.0125 -0.7806 -0.8197
 6209TIP3    H240263   0.302   3.085   1.323  0.3678  0.4759  0.6327
 6210TIP3   OH240264   2.565   6.512   6.699 -0.1252  0.3523 -0.1975
 6210TIP3    H140265   2.501   6.515   6.628 -1.0809 -0.4433  0.5949
 6210TIP3    H240266   2.637   6.568   6.669 -1.0720  1.0636 -1.2234
 6211TIP3   OH240267   2.386   1.103   0.749 -0.1509 -0.3849  0.0512
 6211TIP3    H140268   2.300   1.139   0.768 -0.1557 -0.9774  1.2693
 6211TIP3    H240269   2.378   1.010   0.770 -0.0720 -1.1157 -2.7586
 6212TIP3   OH240270   2.050   1.242   0.191  0.2988 -0.1449  0.1085
 6212TIP3    H140271   1.989   1.188   0.139 -1.2416  2.3366 -0.8755
 6212TIP3    H240272   2.119   1.265   0.129  0.4594 -0.2292  0.2569
 6213TIP3   OH240273   4.362   5.942   0.628  0.5833  0.0970 -0.6107
 6213TIP3    H140274   4.337   6.011   0.566 -0.7532 -1.1262 -1.4924
 6213TIP3    H240275   4.283   5.925   0.678  1.0675 -0.4060  0.0033
 6214TIP3   OH240276   1.629   5.235   1.328 -0.2618 -0.3883 -0.3570
 6214TIP3    H140277   1.556   5.291   1.302 -0.6341 -0.1146  1.1537
 6214TIP3    H240278   1.690   5.294   1.372 -0.0505 -0.9422  0.1061
 6215TIP3   OH240279   3.908   0.749   1.838 -0.3416  0.5931 -0.2676
 6215TIP3    H140280   3.925   0.677   1.899 -1.0947 -1.2777 -2.0992
 6215TIP3    H240281   3.884   0.823   1.893  0.7442 -0.4462  1.7387
 6216TIP3   OH240282   1.016   3.475   1.402 -0.4163  0.3744  0.1041
 6216TIP3    H140283   0.979   3.505   1.485 -3.6854 -1.3521 -0.5719
 6216TIP3    H240284   0.964   3.518   1.335  1.6857  1.1565 -1.1181
 6217TIP3   OH240285   5.231   5.446   7.403 -0.4746 -0.2189  0.1720
 6217TIP3    H140286   5.216   5.353   7.388 -1.2252 -0.1127  0.2084
 6217TIP3    H240287   5.162   5.472   7.465  1.0007 -0.0841  1.8317
 6218TIP3   OH240288   4.820   2.184   7.511 -0.2125  0.0378  0.3094
 6218TIP3    H140289   4.796   2.093   7.527 -2.3126  0.3743 -0.5618
 6218TIP3    H240290   4.900   2.179   7.459  0.4612 -1.2513  1.4184
 6219TIP3   OH240291   1.954   4.639   7.467 -0.9155 -0.6329  0.0734
 6219TIP3    H140292   2.002   4.695   7.528 -1.2487  1.4081 -1.4518
 6219TIP3    H240293   2.000   4.650   7.384 -2.0828 -1.2461 -0.6724
 6220TIP3   OH240294   1.315   6.245   6.728 -0.1976  1.0484 -0.0810
 6220TIP3    H140295   1.333   6.279   6.816 -0.9434  1.8742 -0.2401
 6220TIP3    H240296   1.396   6.260   6.680  0.5099 -0.1671  0.6735
 6221TIP3   OH240297   3.528   1.675   0.688 -0.2983 -0.0972 -0.0119
 6221TIP3    H140298   3.562   1.764   0.676  0.1942 -0.0186  1.6477
 6221TIP3    H240299   3.439   1.678   0.653 -1.3852  1.9072  2.5537
 6222TIP3   OH240300   4.708   4.199   0.290  0.2316  0.6355  0.1921
 6222TIP3    H140301   4.627   4.162   0.326  0.2138  1.3925  0.9568
 6222TIP3    H240302   4.687   4.218   0.198 -0.9106  2.0776  0.7162
 6223TIP3   OH240303   0.170   1.318   6.214 -0.3637  0.0372  0.3505
 6223TIP3    H140304   0.235   1.373   6.171  0.8443  0.8801  3.0257
 6223TIP3    H240305   0.203   1.229   6.205  0.4317  0.3169  0.4549
 6224TIP3   OH240306   0.535   4.775   7.398  0.3016  0.7440  0.1236
 6224TIP3    H140307   0.580   4.797   7.317  0.1060  0.0948 -0.1679
 6224TIP3    H240308   0.584   4.702   7.434 -0.8037 -0.3262 -0.4652
 6225TIP3   OH240309   6.580   5.533   7.211 -0.0427  0.6101 -0.8156
 6225TIP3    H140310   6.665   5.535   7.167 -1.0468  0.2931 -2.9121
 6225TIP3    H240311   6.536   5.613   7.181 -0.7719  0.3768 -0.3972
 6226TIP3   OH240312   5.266   0.503   7.647 -0.1411  0.3734 -0.3704
 6226TIP3    H140313   5.331   0.470   7.709 -0.4475  1.2257  0.4220
 6226TIP3    H240314   5.276   0.447   7.570 -0.0739 -1.0218  0.6128
 6227TIP3   OH240315   2.641   2.692   0.085  0.6283 -0.0293 -0.2165
 6227TIP3    H140316   2.694   2.697   0.005  1.3988 -0.1550  0.2800
 6227TIP3    H240317   2.703   2.670   0.154 -0.1965 -0.9584  0.2551
 6228TIP3   OH240318   3.957   6.645   1.466  1.0310  0.1038 -0.9417
 6228TIP3    H140319   3.867   6.619   1.452  1.0379  0.7138 -2.2232
 6228TIP3    H240320   3.952   6.717   1.529  0.8402 -1.3365  0.7838
 6229TIP3   OH240321   5.367   2.032   6.350 -0.5667 -0.4911 -0.3470
 6229TIP3    H140322   5.350   2.115   6.396  0.9991 -1.0047  1.3026
 6229TIP3    H240323   5.307   1.969   6.391  0.2727 -0.7729  0.4941
 6230TIP3   OH240324   5.859   6.719   2.144  0.1977 -0.8463  0.0503
 6230TIP3    H140325   5.950   6.690   2.144  0.5476  0.2083 -0.0938
 6230TIP3    H240326   5.861   6.804   2.188 -0.8928 -1.3103  1.0487
 6231TIP3   OH240327   5.159   3.773   7.509  0.2031 -0.7021  0.0929
 6231TIP3    H140328   5.248   3.782   7.475 -0.3251 -2.4314 -1.9679
 6231TIP3    H240329   5.157   3.684   7.546 -1.1158 -1.4384 -1.6021
 6232TIP3   OH240330   5.932   5.171   8.284 -1.0435 -0.2769  0.4309
 6232TIP3    H140331   5.871   5.158   8.357 -0.6665  0.4334  0.8775
 6232TIP3    H240332   5.925   5.090   8.233 -0.0090 -1.5272  2.1926
 6233TIP3   OH240333   4.003   0.395   1.184  0.5570 -0.4698 -0.3564
 6233TIP3    H140334   3.952   0.471   1.211  1.0273 -0.4417  0.4757
 6233TIP3    H240335   3.975   0.378   1.094 -0.6196 -0.2110 -0.0547
 6234TIP3   OH240336   4.851   4.317   0.500  0.3553  0.1347 -0.0543
 6234TIP3    H140337   4.813   4.301   0.414  0.1269  3.6358 -0.7505
 6234TIP3    H240338   4.946   4.309   0.486  0.3180  0.6562 -0.6277
 6235TIP3   OH240339   6.446   0.125   1.571  0.3190 -0.0764  0.1682
 6235TIP3    H140340   6.418   0.144   1.661  2.5214  1.2410  0.6742
 6235TIP3    H240341   6.439   0.030   1.563 -0.3439 -0.1686  1.5918
 6236TIP3   OH240342   3.182   5.811   7.181  0.2088  0.5744 -0.0265
 6236TIP3    H140343   3.137   5.869   7.119 -1.5898 -0.1217  0.5867
 6236TIP3    H240344   3.180   5.858   7.264 -0.4516  0.0547  0.2650
 6237TIP3   OH240345   5.789   6.824   8.355 -0.2993  0.0838 -0.2179
 6237TIP3    H140346   5.806   6.809   8.448 -0.2569  0.2721 -0.1937
 6237TIP3    H240347   5.829   6.750   8.310 -0.7815 -0.2846 -0.0504
 6238TIP3   OH240348   4.357   3.985   7.772  0.4085 -0.0283  0.1291
 6238TIP3    H140349   4.320   4.073   7.786  0.7026  0.0087  0.7045
 6238TIP3    H240350   4.349   3.970   7.678 -0.9758  0.0224  0.2185
 6239TIP3   OH240351   5.221   5.845   7.636  0.0100 -0.1340 -0.4040
 6239TIP3    H140352   5.158   5.782   7.670 -0.5081  0.1949 -0.7417
 6239TIP3    H240353   5.304   5.796   7.631 -0.8815 -1.5578 -2.9745
 6240TIP3   OH240354   6.864   1.459   0.703 -0.1568  0.0232  0.3873
 6240TIP3    H140355   6.897   1.545   0.732  3.4488 -1.8456  2.5898
 6240TIP3    H240356   6.861   1.407   0.784  2.2058 -3.1308 -1.3162
 6241TIP3   OH240357   0.710   6.903   0.004  0.2543  0.1686  0.4326
 6241TIP3    H140358   0.647   6.833   0.021  1.0180 -0.4338  0.8255
 6241TIP3    H240359   0.656   6.978  -0.022 -0.5539 -0.6597 -0.3322
 6242TIP3   OH240360   1.759   4.972   8.405 -0.8436 -0.1522 -0.5303
 6242TIP3    H140361   1.738   5.041   8.468 -1.4852  0.6988 -1.6317
 6242TIP3    H240362   1.801   4.903   8.457 -2.1807  0.1118  0.9866
 6243TIP3   OH240363   3.507   5.651   8.220 -0.2620  0.2520 -0.3134
 6243TIP3    H140364   3.503   5.633   8.126 -0.0633  0.1964 -0.3134
 6243TIP3    H240365   3.421   5.685   8.243 -0.0989  0.9067 -0.6509
 6244TIP3   OH240366   2.439   2.368   2.018  0.2132  0.0585  0.1785
 6244TIP3    H140367   2.389   2.334   2.091  0.0800  0.8977  0.4937
 6244TIP3    H240368   2.489   2.293   1.986 -0.3760 -0.5154  0.5808
 6245TIP3   OH240369   2.632   6.689   7.105  0.2531 -0.8086 -0.3637
 6245TIP3    H140370   2.612   6.766   7.051 -0.3165  1.5142  2.8383
 6245TIP3    H240371   2.727   6.685   7.106  0.3178  0.3886  0.0414
 6246TIP3   OH240372   6.474   5.806   1.686  0.3431  0.1265  0.1350
 6246TIP3    H140373   6.472   5.900   1.703  0.4586  0.4278 -1.3569
 6246TIP3    H240374   6.388   5.775   1.714 -0.1606  0.9057 -0.4873
 6247TIP3   OH240375   0.991   2.790   8.114  0.4462 -0.0730 -0.5525
 6247TIP3    H140376   1.081   2.822   8.119  0.5282 -0.3179 -0.4644
 6247TIP3    H240377   0.959   2.793   8.204  0.6059 -0.6775 -0.4746
 6248TIP3   OH240378   1.709   4.635   1.018  0.6741 -0.2470 -0.3657
 6248TIP3    H140379   1.753   4.551   1.031 -0.0853 -0.5662  0.2343
 6248TIP3    H240380   1.769   4.686   0.964  1.0471 -1.2533 -0.9199
 6249TIP3   OH240381   3.613   4.311   0.917 -0.0001  0.1181  0.1725
 6249TIP3    H140382   3.635   4.382   0.977  0.1981 -0.9013  1.3449
 6249TIP3    H240383   3.687   4.305   0.857  1.7821 -1.4780  2.3662
 6250TIP3   OH240384   6.803   6.878   1.390 -0.1768 -0.0348  0.1372
 6250TIP3    H140385   6.743   6.818   1.435 -0.1344 -1.3388 -1.4149
 6250TIP3    H240386   6.777   6.871   1.298  0.5227  1.5832 -0.2028
 6251TIP3   OH240387   2.765   1.088   2.180  0.5475  0.0218  0.2637
 6251TIP3    H140388   2.718   1.055   2.103  1.0452  1.9077 -0.9281
 6251TIP3    H240389   2.703   1.081   2.252 -0.0544 -1.4724 -0.3721
 6252TIP3   OH240390   0.756   3.744   8.201  0.2259 -0.4891 -0.3030
 6252TIP3    H140391   0.827   3.731   8.138  0.2175  1.1502 -0.6880
 6252TIP3    H240392   0.721   3.830   8.181 -1.4575 -0.9827  0.3272
 6253TIP3   OH240393   5.515   5.437   1.374 -0.4490 -0.1404 -1.0295
 6253TIP3    H140394   5.426   5.420   1.404 -0.5488  1.2920 -0.4379
 6253TIP3    H240395   5.509   5.431   1.278 -0.4168 -3.3742 -0.9435
 6254TIP3   OH240396   4.619   3.941   1.519  0.5730 -0.3381 -0.5679
 6254TIP3    H140397   4.696   3.986   1.485  1.9352 -1.8514  0.3758
 6254TIP3    H240398   4.619   3.960   1.613  0.4119 -1.2028 -0.3818
 6255TIP3   OH240399   6.359   2.568   6.668 -0.1343 -0.2111  0.3429
 6255TIP3    H140400   6.322   2.568   6.579 -0.2520 -0.0855  0.3918
 6255TIP3    H240401   6.323   2.647   6.709  1.1491  0.6061 -0.0094
 6256TIP3   OH240402   5.824   4.928   2.040 -0.1962  0.0267  0.2146
 6256TIP3    H140403   5.841   4.870   2.114 -0.3996 -0.1971  0.0883
 6256TIP3    H240404   5.837   4.872   1.963 -1.7163 -0.2267  0.1140
 6257TIP3   OH240405   2.079   6.893   8.178  0.0485  0.1357 -0.9133
 6257TIP3    H140406   2.045   6.813   8.138  0.3521 -0.3918 -0.1398
 6257TIP3    H240407   2.066   6.960   8.111 -3.2609  0.1496 -0.4210
 6258TIP3   OH240408   5.923   3.439   1.905 -0.1849 -0.1356 -0.1177
 6258TIP3    H140409   5.845   3.394   1.939 -1.2291  1.8296  0.2725
 6258TIP3    H240410   5.887   3.509   1.849  1.2851  0.9693  0.2712
 6259TIP3   OH240411   3.874   5.796   1.953  0.0088 -0.4316  0.2319
 6259TIP3    H140412   3.894   5.889   1.969 -0.6673 -0.3972  0.9020
 6259TIP3    H240413   3.905   5.751   2.031 -0.0551 -0.7245  0.0894
 6260TIP3   OH240414   5.904   1.251   1.473  0.3257 -0.5932  0.3765
 6260TIP3    H140415   5.890   1.303   1.552  0.2125 -0.2512  0.1348
 6260TIP3    H240416   5.870   1.305   1.402 -0.2703 -1.2213  0.1779
 6261TIP3   OH240417   3.792   1.011   1.036 -0.7164 -0.2523 -0.1788
 6261TIP3    H140418   3.734   1.081   1.064 -0.4622 -0.3041  0.4969
 6261TIP3    H240419   3.880   1.050   1.039 -0.7909  0.2782 -2.5700
 6262TIP3   OH240420   0.700   6.786   7.287 -0.0310 -0.3205 -0.0926
 6262TIP3    H140421   0.619   6.758   7.330 -0.0878 -1.3078 -0.8022
 6262TIP3    H240422   0.670   6.842   7.215  0.0295  0.7268  0.6586
 6263TIP3   OH240423   1.241   5.911   1.425  0.3027  0.1528 -0.1635
 6263TIP3    H140424   1.335   5.895   1.439  0.6916  1.6324 -0.9063
 6263TIP3    H240425   1.234   6.006   1.415 -1.5115  0.2435  1.4625
 6264TIP3   OH240426   5.097   1.672   6.187 -0.1644 -0.1692 -0.0281
 6264TIP3    H140427   5.090   1.633   6.274 -0.9342 -0.5908 -0.2669
 6264TIP3    H240428   5.008   1.668   6.151 -0.1981  1.5094 -0.2045
 6265TIP3   OH240429   1.005   6.263   2.230  0.4695 -0.6160 -0.4092
 6265TIP3    H140430   1.068   6.331   2.253 -0.5736 -0.0863  0.9900
 6265TIP3    H240431   0.920   6.304   2.239 -0.1771 -2.0009  0.1814
 6266TIP3   OH240432   1.170   6.911   1.927  0.1074  0.0685 -0.4709
 6266TIP3    H140433   1.195   6.836   1.981 -0.1201  0.6803  0.4906
 6266TIP3    H240434   1.251   6.940   1.887  0.5390  0.5001  0.6835
 6267TIP3   OH240435   2.359   4.995   6.783 -0.7811 -0.5902 -0.2413
 6267TIP3    H140436   2.385   5.061   6.719  1.1329 -1.2293 -0.1899
 6267TIP3    H240437   2.290   4.945   6.740 -0.9353  0.2708 -1.0007
 6268TIP3   OH240438   6.175   4.364   0.087 -0.5861 -0.3477  0.1164
 6268TIP3    H140439   6.105   4.302   0.068  0.2822 -1.2742 -0.1098
 6268TIP3    H240440   6.235   4.356   0.014 -1.3373  2.1122 -0.8928
 6269TIP3   OH240441   3.931   1.596   2.203 -0.6183 -0.0496 -0.1833
 6269TIP3    H140442   4.018   1.557   2.212 -1.3121 -1.2243  2.1142
 6269TIP3    H240443   3.935   1.677   2.254 -1.1101 -0.5915  0.7463
 6270TIP3   OH240444   6.164   2.971   1.179  0.1270  0.3341 -0.5447
 6270TIP3    H140445   6.210   3.018   1.249 -0.4894  1.9412 -1.1944
 6270TIP3    H240446   6.157   3.034   1.108 -2.2794 -0.1485 -0.8094
 6271TIP3   OH240447   2.075   5.763   2.253  0.0766 -0.2190  0.0775
 6271TIP3    H140448   2.138   5.712   2.202 -0.6265 -0.4197 -0.6170
 6271TIP3    H240449   2.115   5.850   2.261  1.8592 -1.1601  2.3379
 6272TIP3   OH240450   3.899   2.413   6.894 -0.4876 -0.1484  0.2154
 6272TIP3    H140451   3.964   2.483   6.893  1.5879 -1.9770 -1.4318
 6272TIP3    H240452   3.855   2.419   6.809 -3.8453  2.0809  1.8702
 6273TIP3   OH240453   4.476   6.501   7.098 -0.5591 -0.0546  0.3977
 6273TIP3    H140454   4.391   6.484   7.138 -0.2464  1.4788  1.8444
 6273TIP3    H240455   4.458   6.509   7.004 -2.0717  0.4823  0.7099
 6274TIP3   OH240456   1.271   4.319   7.423  0.1707  0.1301  0.0360
 6274TIP3    H140457   1.318   4.246   7.383  1.8587  0.9271  0.4541
 6274TIP3    H240458   1.340   4.374   7.461 -1.2502 -0.3907  3.8090
 6275TIP3   OH240459   0.830   3.285   8.471  0.1380  0.0522 -0.0834
 6275TIP3    H140460   0.834   3.380   8.456  0.6850  0.0157 -0.2237
 6275TIP3    H240461   0.763   3.274   8.538  0.1449  0.5517  0.0139
 6276TIP3   OH240462   5.791   0.343   7.730  0.7578  0.5481  0.1811
 6276TIP3    H140463   5.849   0.306   7.797  1.3818  0.5828 -0.3356
 6276TIP3    H240464   5.807   0.437   7.734  0.8798  0.5398 -0.0940
 6277TIP3   OH240465   3.772   4.456   0.134 -0.5323  0.0040 -0.1867
 6277TIP3    H140466   3.735   4.544   0.129 -1.2345 -0.3442 -3.2883
 6277TIP3    H240467   3.867   4.469   0.127 -0.5649  0.5310  0.2864
 6278TIP3   OH240468   6.625   4.659   0.197 -0.8215 -0.0774  0.0393
 6278TIP3    H140469   6.676   4.691   0.271  0.3403 -0.8908 -0.3715
 6278TIP3    H240470   6.534   4.672   0.223 -0.4193  0.9933  0.9884
 6279TIP3   OH240471   1.223   1.306   1.035  0.1259 -0.3349 -0.4696
 6279TIP3    H140472   1.294   1.357   1.073  0.9583 -0.2769 -2.0269
 6279TIP3    H240473   1.242   1.216   1.060  0.0061 -0.1673  0.2339
 6280TIP3   OH240474   1.636   1.106   0.110  0.0651 -0.7963  0.3606
 6280TIP3    H140475   1.568   1.057   0.064 -2.7074  2.7878  0.2321
 6280TIP3    H240476   1.646   1.061   0.194 -0.4509 -2.9408 -0.6589
 6281TIP3   OH240477   6.114   5.193   0.226  0.1018 -0.0775  0.0215
 6281TIP3    H140478   6.091   5.164   0.314  0.7545 -1.0291 -0.1081
 6281TIP3    H240479   6.192   5.248   0.239 -1.8477  2.8207  0.4157
 6282TIP3   OH240480   2.981   2.242   8.253 -0.1973  0.9017 -0.3915
 6282TIP3    H140481   3.060   2.274   8.210  0.7644 -0.1503  0.5309
 6282TIP3    H240482   3.012   2.174   8.313 -2.0843 -2.2363 -2.6009
 6283TIP3   OH240483   2.844   6.651   0.322  0.1192 -0.0916  0.4215
 6283TIP3    H140484   2.939   6.639   0.326  0.0778 -0.0276  3.0704
 6283TIP3    H240485   2.829   6.734   0.366 -1.1615  0.2027 -0.5222
 6284TIP3   OH240486   3.021   1.710   0.078 -0.3593 -0.4393  0.2062
 6284TIP3    H140487   3.034   1.802   0.104 -2.5813  0.4063 -1.3108
 6284TIP3    H240488   2.990   1.667   0.158  1.2334 -0.0275  1.0779
 6285TIP3   OH240489   2.279   3.547   0.749  0.2589 -0.4312 -0.1053
 6285TIP3    H140490   2.330   3.469   0.773  0.5904  0.0420  0.7563
 6285TIP3    H240491   2.345   3.615   0.736 -0.1419  0.1830  0.9976
 6286TIP3   OH240492   1.774   0.868   6.314 -0.0790 -0.2861  0.3273
 6286TIP3    H140493   1.842   0.926   6.350 -1.1745 -0.3671  2.7073
 6286TIP3    H240494   1.823   0.793   6.279  1.0855 -0.6130  2.4998
 6287TIP3   OH240495   0.819   6.070   7.954 -0.3237 -0.7570 -0.3862
 6287TIP3    H140496   0.757   6.104   7.889 -3.4458  0.5741  3.0007
 6287TIP3    H240497   0.867   6.148   7.984 -0.6580 -0.9319  0.6231
 6288TIP3   OH240498   4.281   3.615   7.328  0.1257 -0.0704  0.0911
 6288TIP3    H140499   4.236   3.536   7.357 -1.1179  0.7067  0.3426
 6288TIP3    H240500   4.330   3.645   7.405 -1.4922  0.8237  0.8165
 6289TIP3   OH240501   6.910   1.257   8.481 -0.0741  0.3252  0.0090
 6289TIP3    H140502   6.959   1.245   8.562  0.5014  0.3946 -0.3193
 6289TIP3    H240503   6.818   1.256   8.507  0.0201 -1.6049  0.4200
 6290TIP3   OH240504   1.417   1.494   1.102 -0.1176  0.0267  0.2011
 6290TIP3    H140505   1.364   1.564   1.140 -0.4399 -0.5705  0.8785
 6290TIP3    H240506   1.463   1.456   1.177 -0.0870 -0.6004 -0.1269
 6291TIP3   OH240507   1.211   2.214   0.231 -0.5248  0.2825 -0.7325
 6291TIP3    H140508   1.158   2.171   0.164 -1.2064 -0.6513  0.3669
 6291TIP3    H240509   1.290   2.159   0.237 -0.1790  0.7217 -1.1977
 6292TIP3   OH240510   1.821   6.859   2.316 -0.1910  0.1112  0.2329
 6292TIP3    H140511   1.853   6.793   2.378  0.6954  0.6893  0.4075
 6292TIP3    H240512   1.893   6.870   2.255 -0.4541  0.7039  0.0294
 6293TIP3   OH240513   3.464   3.825   8.136  0.1225 -0.0559 -0.2727
 6293TIP3    H140514   3.499   3.753   8.083  0.4668 -0.2504  0.2206
 6293TIP3    H240515   3.426   3.782   8.213  0.5607  0.3094  0.1509
 6294TIP3   OH240516   6.988   1.885   1.165 -0.1221 -0.1511 -0.0164
 6294TIP3    H140517   7.044   1.832   1.221  1.8118 -0.0835 -1.7691
 6294TIP3    H240518   6.945   1.946   1.225 -0.7953 -2.2745  1.7697
 6295TIP3   OH240519   0.238   3.859   7.949 -0.3324  0.1693 -0.7470
 6295TIP3    H140520   0.147   3.831   7.940 -0.1278 -0.2790 -1.4870
 6295TIP3    H240521   0.260   3.839   8.040 -1.5797  2.1820  0.0767
 6296TIP3   OH240522   6.984   3.966   8.203  0.1426 -0.0657  0.1511
 6296TIP3    H140523   7.059   3.912   8.227  0.8056  0.6515 -0.2893
 6296TIP3    H240524   6.972   4.024   8.278 -0.9623 -1.2027  0.9023
 6297TIP3   OH240525   3.730   4.860   1.466 -0.6425 -0.0052 -0.1092
 6297TIP3    H140526   3.751   4.947   1.434  0.6517 -0.2728 -0.0659
 6297TIP3    H240527   3.761   4.860   1.557  1.3579 -1.1379 -0.7265
 6298TIP3   OH240528   4.672   1.205   7.569 -0.1488  0.2069 -0.7138
 6298TIP3    H140529   4.594   1.158   7.599 -0.7480  1.1259 -0.7825
 6298TIP3    H240530   4.639   1.290   7.539  0.9172  0.7289 -0.4664
 6299TIP3   OH240531   6.805   1.700   0.341  0.5028  0.8308  0.2654
 6299TIP3    H140532   6.781   1.791   0.322  1.6277  1.2340  0.6705
 6299TIP3    H240533   6.758   1.649   0.275 -1.5642  1.5214  1.1388
 6300TIP3   OH240534   1.672   4.876   0.704  0.2259 -0.5773 -0.5715
 6300TIP3    H140535   1.715   4.907   0.783  1.0526 -0.8891 -0.8881
 6300TIP3    H240536   1.742   4.868   0.640 -0.4323 -0.3352 -1.3404
 6301TIP3   OH240537   4.503   2.152   0.322 -0.1754 -0.2147 -0.3248
 6301TIP3    H140538   4.542   2.176   0.406  0.5853 -2.6232  0.0992
 6301TIP3    H240539   4.471   2.062   0.335 -0.4479 -0.4858 -2.4679
 6302TIP3   OH240540   6.754   5.184   1.679  0.1519  0.3659  0.2198
 6302TIP3    H140541   6.732   5.092   1.665  2.2867 -0.0956 -0.3795
 6302TIP3    H240542   6.729   5.201   1.770  0.6995 -1.1028  0.6716
 6303TIP3   OH240543   4.489   3.797   2.015 -0.4614 -0.3155  0.8950
 6303TIP3    H140544   4.539   3.877   2.000  0.5099 -0.9038  0.9171
 6303TIP3    H240545   4.436   3.786   1.935 -0.6406  0.3675  0.9159
 6304TIP3   OH240546   5.703   5.912   1.620 -0.2414 -0.0252  0.5238
 6304TIP3    H140547   5.659   5.827   1.619  0.9970 -0.7301 -1.4232
 6304TIP3    H240548   5.789   5.895   1.658  0.4687  0.0355 -0.9599
 6305TIP3   OH240549   4.484   6.102   1.736 -0.1942 -0.4473 -0.1503
 6305TIP3    H140550   4.445   6.154   1.807 -1.0690 -1.9227  0.4968
 6305TIP3    H240551   4.452   6.014   1.751  0.4572 -0.9971 -1.8074
 6306TIP3   OH240552   0.770   0.438   0.257 -0.1949  0.8527 -0.1722
 6306TIP3    H140553   0.823   0.496   0.202 -0.3918  0.1218 -1.1544
 6306TIP3    H240554   0.826   0.419   0.332  0.5350  0.9363 -0.6875
 6307TIP3   OH240555   3.110   6.108   2.160  0.2001  0.1896  0.8612
 6307TIP3    H140556   3.143   6.046   2.224  0.1909 -0.1407  0.5472
 6307TIP3    H240557   3.151   6.083   2.077  1.1890  1.3780  0.9596
 6308TIP3   OH240558   2.756   2.150   6.465  0.4041  0.3575  0.8032
 6308TIP3    H140559   2.740   2.099   6.544  0.5324 -0.3556  0.3796
 6308TIP3    H240560   2.729   2.093   6.393  1.1613  0.6342  0.2852
 6309TIP3   OH240561   1.477   0.626   6.238 -0.0507  0.6888  0.4767
 6309TIP3    H140562   1.567   0.598   6.257 -0.2191 -0.3533 -0.1884
 6309TIP3    H240563   1.485   0.719   6.217  1.7627 -0.3172 -4.7557
 6310TIP3   OH240564   5.844   6.806   6.498 -0.0941  0.4744 -0.1509
 6310TIP3    H140565   5.780   6.741   6.467  0.4114 -0.3149  0.4281
 6310TIP3    H240566   5.894   6.760   6.565  0.8467  1.2021 -0.3416
 6311TIP3   OH240567   3.127   0.113   6.205  0.3285  0.2803 -0.4565
 6311TIP3    H140568   3.211   0.117   6.250 -0.1072 -0.8519  0.4931
 6311TIP3    H240569   3.124   0.026   6.166 -0.8397 -0.1279  0.4594
 6312TIP3   OH240570   2.628   4.795   1.910  0.6034 -0.2371  0.1184
 6312TIP3    H140571   2.561   4.852   1.871  1.7930  1.0216 -0.1564
 6312TIP3    H240572   2.633   4.824   2.002 -0.1893 -1.2806  0.5125
 6313TIP3   OH240573   4.654   5.691   1.847 -0.5037  0.0912 -0.6536
 6313TIP3    H140574   4.564   5.660   1.848 -0.1282 -1.0960  1.1694
 6313TIP3    H240575   4.648   5.784   1.872 -1.1794 -0.2080  0.3685
 6314TIP3   OH240576   6.016   5.940   8.160 -0.1301  0.0173  0.0098
 6314TIP3    H140577   5.952   6.001   8.196 -1.3843 -0.8991 -0.5590
 6314TIP3    H240578   5.990   5.855   8.196 -1.6914 -1.0210 -3.1823
 6315TIP3   OH240579   4.426   1.348   0.915  0.1583  0.3662 -0.0231
 6315TIP3    H140580   4.512   1.309   0.896  0.2290  0.5565 -0.0916
 6315TIP3    H240581   4.386   1.362   0.830 -0.7000 -1.4048  0.0483
 6316TIP3   OH240582   5.202   3.754   0.642  0.6876 -0.2125  0.6336
 6316TIP3    H140583   5.189   3.664   0.674  1.3612 -0.5871 -0.0900
 6316TIP3    H240584   5.122   3.773   0.593 -1.0518  0.9355  3.6341
 6317TIP3   OH240585   2.015   3.523   0.891  0.5281  0.2006 -0.6769
 6317TIP3    H140586   2.010   3.601   0.945 -0.3101  0.8374 -1.6451
 6317TIP3    H240587   1.925   3.505   0.866  0.8289 -0.4562 -1.3339
 6318TIP3   OH240588   2.541   5.028   7.217 -0.0924  0.5382 -0.2698
 6318TIP3    H140589   2.561   5.036   7.124 -0.8056  0.3854 -0.4427
 6318TIP3    H240590   2.621   4.992   7.255  0.6536  1.7744 -0.6052
 6319TIP3   OH240591   0.438   2.949   0.395 -0.2859  0.0830 -0.9258
 6319TIP3    H140592   0.394   2.876   0.352  0.1316 -1.1328  0.6260
 6319TIP3    H240593   0.394   3.027   0.360 -1.1776 -0.9176 -2.1402
 6320TIP3   OH240594   2.526   1.360   7.587 -0.0784  0.5179  0.1489
 6320TIP3    H140595   2.449   1.395   7.630 -1.2413 -2.3877  0.6799
 6320TIP3    H240596   2.491   1.302   7.519  1.6435 -0.3286 -0.0671
 6321TIP3   OH240597   0.999   3.766   7.734 -0.3257  0.2983 -0.3951
 6321TIP3    H140598   1.001   3.752   7.828 -1.2177 -0.0499 -0.4181
 6321TIP3    H240599   0.955   3.689   7.699 -1.3085  1.0885 -0.9505
 6322TIP3   OH240600   2.056   5.124   7.949 -0.1632 -0.2268 -0.0987
 6322TIP3    H140601   1.986   5.081   7.998 -0.2202 -1.0821 -0.9030
 6322TIP3    H240602   2.026   5.214   7.939 -0.3946 -0.1676  0.9632
 6323TIP3   OH240603   2.355   6.589   7.779 -0.4597 -0.1166 -0.1276
 6323TIP3    H140604   2.451   6.595   7.776 -0.4427  0.8481  1.5225
 6323TIP3    H240605   2.338   6.528   7.850 -1.0824 -0.1338 -0.2924
 6324TIP3   OH240606   6.019   4.085   0.678 -0.0932 -0.1848  0.5269
 6324TIP3    H140607   5.971   4.050   0.753  1.6749  0.1077  1.8634
 6324TIP3    H240608   6.071   4.157   0.714 -0.0677  0.7297 -1.2280
 6325TIP3   OH240609   0.243   6.263   7.490  0.7193 -0.0703 -0.0337
 6325TIP3    H140610   0.298   6.320   7.542  0.2640 -0.3602  0.7749
 6325TIP3    H240611   0.295   6.183   7.479 -0.2590 -1.1360  2.4205
 6326TIP3   OH240612   3.105   5.238   8.245  0.1388  0.6780  0.2429
 6326TIP3    H140613   3.084   5.192   8.163  1.5411 -1.2028  0.8642
 6326TIP3    H240614   3.197   5.264   8.234  0.5438 -0.1920  1.4718
 6327TIP3   OH240615   2.071   6.064   1.652 -0.8147 -0.5277 -0.1610
 6327TIP3    H140616   2.121   6.144   1.669 -1.0572 -0.1232 -1.3103
 6327TIP3    H240617   2.019   6.052   1.732  1.3435 -1.1849  1.2535
 6328TIP3   OH240618   6.092   4.783   8.385 -0.4457 -0.4792 -0.5030
 6328TIP3    H140619   6.112   4.871   8.416  2.0157 -0.4083 -2.0326
 6328TIP3    H240620   6.153   4.726   8.432  0.3613 -0.9041 -2.0159
 6329TIP3   OH240621   0.841   6.793   7.067 -0.5831  1.1875 -0.6840
 6329TIP3    H140622   0.847   6.769   7.159  0.5781 -0.7806 -1.1951
 6329TIP3    H240623   0.752   6.768   7.042  0.1405 -1.6788 -0.8436
 6330TIP3   OH240624   5.765   1.377   1.277 -0.3412 -0.1674  0.3180
 6330TIP3    H140625   5.674   1.350   1.294 -0.2124 -0.2797  0.8498
 6330TIP3    H240626   5.757   1.456   1.224 -0.7445 -0.4027  0.0147
 6331TIP3   OH240627   5.461   3.669   8.328 -0.8898 -0.3740  0.5393
 6331TIP3    H140628   5.410   3.647   8.406 -0.3806  0.6079  1.1848
 6331TIP3    H240629   5.514   3.591   8.310 -0.9032 -0.5568  1.2710
 6332TIP3   OH240630   3.000   3.412   2.422  0.1396  0.7983 -0.3076
 6332TIP3    H140631   3.050   3.474   2.475 -0.9458  1.2894  0.1689
 6332TIP3    H240632   2.909   3.439   2.432 -0.3672 -0.8476 -0.1139
 6333TIP3   OH240633   1.380   5.652   8.323  0.1787  0.6326 -0.4508
 6333TIP3    H140634   1.409   5.581   8.267 -0.7484  1.2678 -1.8137
 6333TIP3    H240635   1.424   5.730   8.288  1.5776  0.6963  1.3282
 6334TIP3   OH240636   5.066   1.542   1.382  0.4833  0.3556 -0.3560
 6334TIP3    H140637   5.124   1.533   1.458 -0.5238 -0.1394  0.3799
 6334TIP3    H240638   5.094   1.473   1.322 -0.5223 -1.1209  0.8067
 6335TIP3   OH240639   5.714   5.935   7.639  0.4732  0.6241  0.2850
 6335TIP3    H140640   5.739   5.966   7.726 -0.8557 -1.0268  1.3358
 6335TIP3    H240641   5.714   5.839   7.647 -0.4094  0.4561 -1.3063
 6336TIP3   OH240642   1.256   4.747   0.574 -0.1035  0.2066  0.3175
 6336TIP3    H140643   1.180   4.750   0.631  0.1425 -1.9528  0.8689
 6336TIP3    H240644   1.220   4.728   0.487 -0.2152 -3.1827  0.9450
 6337TIP3   OH240645   6.836   5.512   1.424  0.2629  0.4694 -0.6111
 6337TIP3    H140646   6.862   5.570   1.495 -1.7944 -2.7032  3.1091
 6337TIP3    H240647   6.764   5.558   1.380  0.3539  1.7757  0.5599
 6338TIP3   OH240648   0.298   5.067   1.701  0.4678 -0.1754  0.1361
 6338TIP3    H140649   0.312   5.053   1.795 -0.4526  1.4066  0.5423
 6338TIP3    H240650   0.359   5.136   1.677  0.8098 -0.6797 -0.4896
 6339TIP3   OH240651   3.982   1.659   6.810 -0.0167  0.2280  0.8011
 6339TIP3    H140652   4.063   1.635   6.767 -0.9016 -1.2056 -0.1518
 6339TIP3    H240653   3.982   1.609   6.892 -0.4718 -0.7434  0.2268
 6340TIP3   OH240654   0.435   3.677   6.388  0.0841  0.3200  0.1202
 6340TIP3    H140655   0.441   3.718   6.302  0.8815  1.0032  0.4913
 6340TIP3    H240656   0.526   3.661   6.414 -0.1581 -0.2194  0.6791
 6341TIP3   OH240657   6.675   5.027   7.665  0.5880  0.0271 -0.0162
 6341TIP3    H140658   6.741   5.087   7.699  0.6769 -0.3659  0.5250
 6341TIP3    H240659   6.593   5.076   7.670  0.6650  0.1184  0.3868
 6342TIP3   OH240660   5.681   2.239   8.397  0.0387  0.0724 -0.2022
 6342TIP3    H140661   5.696   2.145   8.401  1.2472  0.1955 -1.1858
 6342TIP3    H240662   5.590   2.248   8.371 -0.0624 -0.8245 -0.1837
 6343TIP3   OH240663   0.445   4.901   6.926 -0.1981  0.4526  0.3087
 6343TIP3    H140664   0.438   4.809   6.900  1.3877  0.2413  0.5076
 6343TIP3    H240665   0.390   4.948   6.863 -0.2667 -0.5322 -0.3932
 6344TIP3   OH240666   1.797   0.041   1.909  0.1716 -0.3113 -0.1087
 6344TIP3    H140667   1.752   0.067   1.989 -0.6420  0.6445 -0.8404
 6344TIP3    H240668   1.839   0.121   1.877 -0.6100 -0.3487 -1.3066
 6345TIP3   OH240669   3.926   1.069   1.300  0.1375 -0.3793 -0.0072
 6345TIP3    H140670   3.890   1.113   1.376 -0.4802 -0.6351 -0.1408
 6345TIP3    H240671   3.964   0.988   1.334 -0.1025 -0.4738  0.0413
 6346TIP3   OH240672   4.956   3.159   6.867 -0.2575 -0.4517 -0.3586
 6346TIP3    H140673   5.041   3.138   6.907  0.5572  1.3259 -1.0833
 6346TIP3    H240674   4.951   3.102   6.791 -0.1163 -1.1713  0.1580
 6347TIP3   OH240675   2.891   3.304   1.669 -0.3673  0.4123  0.0504
 6347TIP3    H140676   2.965   3.306   1.730  0.3943 -0.2778 -0.8044
 6347TIP3    H240677   2.820   3.348   1.715  0.9716  2.3582  0.3720
 6348TIP3   OH240678   0.335   2.340   7.521 -0.2741 -0.5032  0.8000
 6348TIP3    H140679   0.339   2.265   7.580 -0.9671 -2.8229 -1.8601
 6348TIP3    H240680   0.241   2.349   7.502 -0.2821  1.5919  1.6405
 6349TIP3   OH240681   2.124   3.408   6.991 -0.2927  0.3236  0.4511
 6349TIP3    H140682   2.071   3.476   7.033  0.5515  0.3378  1.5522
 6349TIP3    H240683   2.199   3.455   6.955 -0.4556  0.1612 -0.1046
 6350TIP3   OH240684   2.865   1.168   0.669  0.5600 -0.6457  0.4264
 6350TIP3    H140685   2.818   1.085   0.678  1.9838 -1.8196 -1.9482
 6350TIP3    H240686   2.843   1.199   0.581 -1.3513  2.5122  1.8616
 6351TIP3   OH240687   4.233   5.225   7.709  0.2019  0.3712  0.1243
 6351TIP3    H140688   4.251   5.155   7.772 -0.7895  2.3037  2.7650
 6351TIP3    H240689   4.317   5.269   7.697  0.2302  0.5101  0.7996
 6352TIP3   OH240690   5.529   5.015   0.658 -0.3722 -0.0984 -0.2927
 6352TIP3    H140691   5.471   5.091   0.658 -1.9615 -1.1720  1.6237
 6352TIP3    H240692   5.472   4.943   0.688  1.5263 -1.6150 -0.1560
 6353TIP3   OH240693   5.018   6.682   0.613  0.0218  0.1664 -0.1206
 6353TIP3    H140694   5.037   6.772   0.637 -0.5848  0.0391  0.9166
 6353TIP3    H240695   5.057   6.630   0.684  0.8107 -0.4243 -0.9688
 6354TIP3   OH240696   6.330   4.972   7.198  0.9552 -0.3037 -0.2795
 6354TIP3    H140697   6.306   4.904   7.135  1.5549 -0.3023 -0.5142
 6354TIP3    H240698   6.425   4.978   7.193  1.1307 -1.0786  1.4526
 6355TIP3   OH240699   3.965   4.595   0.998 -0.3566 -0.6574  0.4385
 6355TIP3    H140700   3.983   4.670   1.054  0.6175 -0.5808  0.0326
 6355TIP3    H240701   3.878   4.565   1.025 -0.6094  0.4061  0.8328
 6356TIP3   OH240702   0.026   3.407   0.823  0.0625 -0.0882 -0.3028
 6356TIP3    H140703   0.073   3.338   0.870 -0.1959 -0.7393 -0.9935
 6356TIP3    H240704  -0.039   3.361   0.770  0.1989  0.6534 -1.1401
 6357TIP3   OH240705   3.737   0.767   1.137  0.2020 -0.0019  0.4216
 6357TIP3    H140706   3.778   0.841   1.091  2.3587 -1.2340  0.2169
 6357TIP3    H240707   3.710   0.707   1.068 -0.1557 -0.0956  0.6392
 6358TIP3   OH240708   5.019   0.776   7.965 -0.2576  0.1818  0.3750
 6358TIP3    H140709   5.008   0.692   7.921 -1.6113  0.4522  0.1523
 6358TIP3    H240710   4.985   0.761   8.054  1.0311  0.0597  0.8665
 6359TIP3   OH240711   5.457   3.786   2.122  0.1510  0.7255 -0.0278
 6359TIP3    H140712   5.533   3.842   2.139  1.4832 -0.7515 -0.8637
 6359TIP3    H240713   5.387   3.847   2.097  1.5524  2.0057 -0.9986
 6360TIP3   OH240714   4.517   2.979   7.097  0.1614  0.3392 -0.3832
 6360TIP3    H140715   4.492   3.036   7.169  0.8054  0.1603 -0.0115
 6360TIP3    H240716   4.572   2.911   7.137  1.9240  1.1752 -1.2542
 6361TIP3   OH240717   0.763   0.682   6.857  0.9512  0.4068 -0.1903
 6361TIP3    H140718   0.703   0.669   6.783  1.7717 -0.7040 -0.6963
 6361TIP3    H240719   0.844   0.711   6.816  0.4211  3.2719  0.6018
 6362TIP3   OH240720   2.811   4.090   0.158 -0.0149  0.3441 -0.0342
 6362TIP3    H140721   2.870   4.017   0.174 -0.5351  0.4482  2.8546
 6362TIP3    H240722   2.855   4.165   0.198 -1.2476  0.7983  0.4951
 6363TIP3   OH240723   0.284   1.170   0.168  0.4039 -0.0944  0.0279
 6363TIP3    H140724   0.320   1.212   0.089  1.3131  0.4580  0.7078
 6363TIP3    H240725   0.358   1.121   0.204 -0.1127 -0.6492  0.3363
 6364TIP3   OH240726   4.896   1.441   0.736 -0.0649 -0.2186  0.2301
 6364TIP3    H140727   4.839   1.517   0.745 -0.3918 -0.3733 -0.4147
 6364TIP3    H240728   4.952   1.462   0.661  2.2225  0.8429  2.1468
 6365TIP3   OH240729   0.626   1.348   2.321  0.6589  0.5082 -0.2319
 6365TIP3    H140730   0.592   1.275   2.371  0.6856  1.2296  0.8749
 6365TIP3    H240731   0.549   1.396   2.293  0.6319 -0.0573 -1.1573
 6366TIP3   OH240732   6.086   2.911   0.424  0.1065  0.5213 -0.0156
 6366TIP3    H140733   6.144   2.977   0.463  0.6394  0.1916 -0.2416
 6366TIP3    H240734   6.120   2.827   0.455  0.1580  0.2882 -0.6790
 6367TIP3   OH240735   5.859   3.011   0.308  0.1108  0.2080  0.0511
 6367TIP3    H140736   5.875   3.103   0.288 -1.2165  0.7064  1.1475
 6367TIP3    H240737   5.943   2.979   0.343  0.1682  1.4219  1.0963
 6368TIP3   OH240738   6.827   3.733   0.544  0.4926  0.4168 -0.6481
 6368TIP3    H140739   6.871   3.667   0.490 -0.1476  0.0327 -0.7217
 6368TIP3    H240740   6.814   3.807   0.485 -0.9355 -0.3024 -1.3060
 6369TIP3   OH240741   5.735   2.276   1.780  0.4999 -0.1983  0.1073
 6369TIP3    H140742   5.772   2.238   1.860  0.8957  1.2867  0.6642
 6369TIP3    H240743   5.775   2.225   1.709 -0.5254 -2.1232  0.8286
 6370TIP3   OH240744   0.563   0.169   8.416  0.0355  0.5590 -0.2194
 6370TIP3    H140745   0.488   0.226   8.433 -0.6354 -0.6033  0.9226
 6370TIP3    H240746   0.568   0.164   8.321 -2.2985 -0.4979 -0.3698
 6371TIP3   OH240747   5.610   2.988   0.223 -0.0959 -0.7166  0.4769
 6371TIP3    H140748   5.688   3.000   0.277  1.6010 -0.3393 -1.8720
 6371TIP3    H240749   5.611   3.063   0.163 -0.8783 -1.9693 -1.1877
 6372TIP3   OH240750   5.138   6.136   7.469  0.5682  0.3676 -0.9467
 6372TIP3    H140751   5.099   6.084   7.539 -0.3161  2.5455  0.2730
 6372TIP3    H240752   5.229   6.106   7.465  0.5245 -0.1341  0.8592
 6373TIP3   OH240753   4.328   1.111   5.995  0.1117 -0.1241  0.4488
 6373TIP3    H140754   4.331   1.171   5.920 -2.7407 -0.5287 -0.1027
 6373TIP3    H240755   4.320   1.169   6.071  1.8154  0.2518  0.3858
 6374TIP3   OH240756   2.611   5.478   0.242  0.4553  0.0071 -0.2975
 6374TIP3    H140757   2.660   5.441   0.316  1.1109 -1.3878 -1.3785
 6374TIP3    H240758   2.667   5.462   0.166 -1.8352 -2.1595 -1.6787
 6375TIP3   OH240759   5.018   5.649   0.523 -0.3500  0.3953 -0.7233
 6375TIP3    H140760   4.926   5.622   0.520 -0.5135  0.9870 -3.0120
 6375TIP3    H240761   5.017   5.741   0.496  0.7324  1.1246  1.4687
 6376TIP3   OH240762   4.253   2.820   7.014 -0.1126  0.8211  0.0208
 6376TIP3    H140763   4.337   2.822   7.059 -0.1976  0.5628  0.1983
 6376TIP3    H240764   4.265   2.872   6.936 -0.0823  1.6494  0.5694
 6377TIP3   OH240765   6.837   4.167   7.110 -0.0468 -0.4907 -0.3133
 6377TIP3    H140766   6.906   4.231   7.125 -0.8731  0.2249  0.6138
 6377TIP3    H240767   6.857   4.129   7.024  1.5921 -0.4605  0.0271
 6378TIP3   OH240768   0.399   5.225   7.952  0.0866  0.0838  0.2081
 6378TIP3    H140769   0.416   5.319   7.942 -0.4651  0.2028  0.3774
 6378TIP3    H240770   0.304   5.216   7.943 -0.1790 -0.1249  2.5232
 6379TIP3   OH240771   5.633   2.679   7.359 -0.3651  0.2401  0.0420
 6379TIP3    H140772   5.721   2.713   7.343 -0.0513 -1.1477 -1.5062
 6379TIP3    H240773   5.587   2.691   7.275 -0.1064 -3.2596 -0.7642
 6380TIP3   OH240774   2.561   2.313   6.725 -0.1594  0.3830 -0.1748
 6380TIP3    H140775   2.542   2.240   6.668 -1.4001 -0.1169  0.8329
 6380TIP3    H240776   2.513   2.387   6.688  0.4655  0.5146 -0.7486
 6381TIP3   OH240777   2.531   1.019   0.484  0.4282  0.2196  0.7489
 6381TIP3    H140778   2.541   1.038   0.390  0.0030  1.5591  0.9425
 6381TIP3    H240779   2.594   0.950   0.502 -0.3871 -0.9742 -0.7879
 6382TIP3   OH240780   0.885   5.960   0.593  0.3597  0.2671  0.2125
 6382TIP3    H140781   0.912   5.904   0.520  1.4071 -1.8368  2.0899
 6382TIP3    H240782   0.897   5.906   0.671 -1.1369  2.2527  1.9524
 6383TIP3   OH240783   2.242   4.631   1.949  0.2296 -0.0618 -0.4507
 6383TIP3    H140784   2.290   4.576   2.011 -0.1174 -1.2166 -1.1729
 6383TIP3    H240785   2.283   4.613   1.865  0.8599  1.6777 -0.5483
 6384TIP3   OH240786   6.454   6.625   7.658 -0.1520 -0.5386  0.1233
 6384TIP3    H140787   6.496   6.606   7.574  1.1979  0.0173  0.6496
 6384TIP3    H240788   6.409   6.543   7.681  0.7331 -1.2056 -0.4182
 6385TIP3   OH240789   1.752   1.711   6.493  0.0820 -0.4969  0.4926
 6385TIP3    H140790   1.693   1.637   6.508 -1.6231  0.3695 -1.3989
 6385TIP3    H240791   1.693   1.784   6.475  1.7296  0.5806 -0.7725
 6386TIP3   OH240792   4.446   0.819   7.842  0.3591 -0.5492 -0.1652
 6386TIP3    H140793   4.375   0.878   7.869  0.6082 -0.6320  0.7154
 6386TIP3    H240794   4.523   0.876   7.835 -0.1306 -0.1040 -2.9517
 6387TIP3   OH240795   4.721   4.987   1.716  0.2155 -0.2112  0.4047
 6387TIP3    H140796   4.667   4.988   1.795 -0.6946 -1.2563 -0.1864
 6387TIP3    H240797   4.660   5.005   1.645  1.1366  1.4045 -0.0406
 6388TIP3   OH240798   0.825   2.372   1.297  0.1981 -0.3055  0.0333
 6388TIP3    H140799   0.815   2.278   1.284  0.8782 -0.6303  1.5797
 6388TIP3    H240800   0.742   2.400   1.335  0.5264 -0.5966  1.0061
 6389TIP3   OH240801   0.761   1.016   8.163  0.0159  0.3299 -0.0570
 6389TIP3    H140802   0.799   0.964   8.233 -0.0298 -0.7142 -0.7806
 6389TIP3    H240803   0.814   1.096   8.161  0.4837  0.0470  0.6713
 6390TIP3   OH240804   0.366   0.750   0.613  0.6363  0.6659 -0.4979
 6390TIP3    H140805   0.347   0.673   0.666  2.1948  0.7800  0.2641
 6390TIP3    H240806   0.437   0.722   0.555 -0.1519  0.9460 -1.6561
 6391TIP3   OH240807   5.927   4.622   0.165  0.3511  0.0743 -0.2464
 6391TIP3    H140808   5.937   4.600   0.073 -0.0281  1.6461 -0.6885
 6391TIP3    H240809   5.982   4.558   0.211 -0.5981 -1.6634 -1.4114
 6392TIP3   OH240810   4.662   2.878   1.355 -0.5015 -0.3457 -0.3765
 6392TIP3    H140811   4.650   2.864   1.261 -0.8977  1.0414 -0.5565
 6392TIP3    H240812   4.591   2.938   1.380  0.4683  0.4779  0.4998
 6393TIP3   OH240813   2.626   4.246   8.230 -0.1861  0.5309  0.5544
 6393TIP3    H140814   2.639   4.151   8.228 -1.5022  0.2041  2.9803
 6393TIP3    H240815   2.572   4.260   8.307  2.0509  3.5436  1.7328
 6394TIP3   OH240816   6.274   4.469   7.178  0.4442  0.0883 -0.3146
 6394TIP3    H140817   6.357   4.506   7.209  1.4456 -0.6616 -1.9688
 6394TIP3    H240818   6.263   4.389   7.229  0.0645  0.8188  0.7916
 6395TIP3   OH240819   1.098   4.473   1.917  0.0224  0.4861  0.3568
 6395TIP3    H140820   1.082   4.474   1.822 -0.6122 -0.2293  0.4494
 6395TIP3    H240821   1.188   4.441   1.925 -0.1156  0.0111  0.0216
 6396TIP3   OH240822   3.929   4.263   2.248  0.0132 -0.4773  0.5344
 6396TIP3    H140823   3.996   4.236   2.184 -0.4106 -0.8012  0.2230
 6396TIP3    H240824   3.880   4.183   2.267  0.2213 -0.4083  1.3796
 6397TIP3   OH240825   3.268   4.276   2.753 -0.6075  0.7768 -0.1592
 6397TIP3    H140826   3.215   4.272   2.833  0.5375 -2.4922  0.5898
 6397TIP3    H240827   3.210   4.241   2.685 -0.9504  1.7806 -0.4035
 6398TIP3   OH240828   4.945   2.680   1.461 -0.3975 -0.6239 -0.3313
 6398TIP3    H140829   4.883   2.731   1.410 -1.6356  1.6486  3.0496
 6398TIP3    H240830   5.030   2.699   1.422 -1.3195  0.3900 -1.9562
 6399TIP3   OH240831   5.121   1.617   6.605  0.2432 -0.8341  0.4838
 6399TIP3    H140832   5.098   1.601   6.696  0.4902  0.3942  0.7874
 6399TIP3    H240833   5.155   1.534   6.573 -0.6386 -1.5149  1.2539
 6400TIP3   OH240834   3.607   2.294   1.234 -0.1534 -0.4269  0.3809
 6400TIP3    H140835   3.678   2.231   1.248 -1.4529 -1.3026  4.4315
 6400TIP3    H240836   3.540   2.244   1.188  1.1916  0.0370 -2.2923
 6401TIP3   OH240837   2.021   2.887   8.166  0.2667 -0.2930  0.0259
 6401TIP3    H140838   1.968   2.954   8.125  0.0618 -0.1739  0.4792
 6401TIP3    H240839   1.967   2.854   8.238  0.0278 -1.5282 -0.7003
 6402TIP3   OH240840   3.098   6.543   1.157  0.6101  0.0512 -0.0481
 6402TIP3    H140841   3.162   6.473   1.170 -0.3909 -0.8367  0.1905
 6402TIP3    H240842   3.013   6.499   1.158 -0.0828  1.3513  0.7736
 6403TIP3   OH240843   0.048   1.264   1.115 -0.3629 -0.3091  0.0909
 6403TIP3    H140844   0.104   1.283   1.190  0.6466 -0.2061 -0.6728
 6403TIP3    H240845   0.065   1.172   1.096  1.9009  0.4282 -1.9928
 6404TIP3   OH240846   5.491   1.720   1.585  0.1764 -0.3666 -0.0871
 6404TIP3    H140847   5.513   1.634   1.621 -0.7371 -1.0508 -1.0855
 6404TIP3    H240848   5.436   1.761   1.652 -1.0917 -1.4161 -0.4345
 6405TIP3   OH240849   1.504   2.853   1.953  0.0366 -0.0501 -0.5217
 6405TIP3    H140850   1.513   2.913   1.879  2.0394  0.8399  0.3629
 6405TIP3    H240851   1.419   2.812   1.940 -1.1828  2.5358 -1.5032
 6406TIP3   OH240852   6.187   5.441   1.633  0.1367 -0.1488 -0.3581
 6406TIP3    H140853   6.168   5.348   1.649  1.3275 -0.4161 -0.3990
 6406TIP3    H240854   6.266   5.458   1.683 -0.1171  0.8857 -0.2831
 6407TIP3   OH240855   0.090   6.518   7.414  0.0384 -0.2731 -0.6660
 6407TIP3    H140856   0.134   6.435   7.397 -2.2132 -1.5218 -0.7066
 6407TIP3    H240857   0.161   6.579   7.435  1.6638 -2.4681  0.5625
 6408TIP3   OH240858   1.519   1.865   0.997 -0.2623 -0.3969  0.5846
 6408TIP3    H140859   1.447   1.807   0.974 -1.4331  1.8920 -2.1579
 6408TIP3    H240860   1.483   1.923   1.064 -0.8719  0.4255 -0.4262
 6409TIP3   OH240861   3.606   0.474   1.106  0.4536 -0.1312  0.0348
 6409TIP3    H140862   3.591   0.535   1.179  0.7510  1.3238 -1.0827
 6409TIP3    H240863   3.526   0.421   1.103 -0.1461  0.7112  0.5666
 6410TIP3   OH240864   0.628   6.926   6.268  0.2310 -0.4234  0.4766
 6410TIP3    H140865   0.708   6.971   6.240  1.3018 -2.2315  0.4334
 6410TIP3    H240866   0.609   6.864   6.197 -0.9206 -0.3842  0.7333
 6411TIP3   OH240867   3.533   0.533   1.886 -0.1484 -0.0298  0.8228
 6411TIP3    H140868   3.460   0.480   1.917 -0.9614  0.1475 -0.6932
 6411TIP3    H240869   3.577   0.479   1.821 -0.7391  0.9509 -0.4393
 6412TIP3   OH240870   0.114   4.429   0.470  0.0629 -0.2104  0.7115
 6412TIP3    H140871   0.046   4.363   0.481 -2.3488  2.2730  1.8093
 6412TIP3    H240872   0.074   4.510   0.500  2.7238  1.8838 -0.9321
 6413TIP3   OH240873   2.138   4.253   7.307 -0.7654 -0.2142 -0.6561
 6413TIP3    H140874   2.153   4.296   7.222 -1.0654 -1.0209 -1.1216
 6413TIP3    H240875   2.221   4.208   7.325 -0.0165  1.4636  0.4006
 6414TIP3   OH240876   6.408   3.853   1.445 -0.6939  0.0276  0.3257
 6414TIP3    H140877   6.424   3.933   1.494  0.5112 -0.0876  0.1669
 6414TIP3    H240878   6.400   3.882   1.354 -2.7563  0.2225  0.5167
 6415TIP3   OH240879   4.841   6.506   0.819  0.0812 -0.2674  0.3851
 6415TIP3    H140880   4.831   6.601   0.810  0.2706 -0.3986 -2.0114
 6415TIP3    H240881   4.936   6.492   0.815  0.0064 -0.6134 -0.8365
 6416TIP3   OH240882   2.639   1.769   7.611  0.3103  0.1438 -0.1635
 6416TIP3    H140883   2.655   1.728   7.526  1.8320 -0.9835  0.6380
 6416TIP3    H240884   2.704   1.838   7.617  0.5165 -0.0872  0.2840
 6417TIP3   OH240885   2.202   6.640   1.883 -0.4195 -0.0146 -0.1198
 6417TIP3    H140886   2.254   6.657   1.962 -0.1684  0.8005 -0.4455
 6417TIP3    H240887   2.123   6.691   1.895 -1.7352 -2.1653  0.9074
 6418TIP3   OH240888   2.469   1.341   1.289  0.5123 -0.0194 -0.0689
 6418TIP3    H140889   2.396   1.315   1.345 -0.6764  0.7925 -1.1967
 6418TIP3    H240890   2.489   1.262   1.238 -0.4403  0.1038 -0.6569
 6419TIP3   OH240891   2.703   6.720   6.553 -0.1119  0.5944 -0.0165
 6419TIP3    H140892   2.667   6.703   6.466 -1.3270 -0.1273  0.5991
 6419TIP3    H240893   2.651   6.794   6.586 -0.0121  0.5235  0.2985
 6420TIP3   OH240894   5.290   5.504   1.575 -0.2794  0.0956  0.5649
 6420TIP3    H140895   5.282   5.409   1.571  1.4319 -0.0423 -1.3980
 6420TIP3    H240896   5.225   5.537   1.514 -0.0213  0.1199  0.3041
 6421TIP3   OH240897   4.777   0.314   0.823 -0.8373  0.2654 -0.5748
 6421TIP3    H140898   4.737   0.256   0.887  0.7361  1.2720  1.4164
 6421TIP3    H240899   4.763   0.270   0.739 -4.6478 -0.2130  0.1157
 6422TIP3   OH240900   6.594   1.892   7.547  0.1903  0.3166 -0.1218
 6422TIP3    H140901   6.553   1.807   7.536  0.6700 -0.1049  1.1814
 6422TIP3    H240902   6.647   1.884   7.626 -0.5979  2.1343  0.6721
 6423TIP3   OH240903   4.944   4.368   1.836 -0.7369 -0.1752  0.0556
 6423TIP3    H140904   4.926   4.448   1.786  0.6221 -0.3062 -0.6894
 6423TIP3    H240905   4.858   4.338   1.865 -1.3180  1.2781 -0.0827
 6424TIP3   OH240906   2.073   5.332   2.741  0.1389 -0.2535  0.1680
 6424TIP3    H140907   2.027   5.265   2.691 -1.4263  0.8985 -0.0189
 6424TIP3    H240908   2.012   5.406   2.743  1.8142  1.1873  0.3210
 6425TIP3   OH240909   0.985   5.427   6.645  0.6467  0.0558  0.6239
 6425TIP3    H140910   0.973   5.482   6.723  1.5843  1.0429  0.0972
 6425TIP3    H240911   0.988   5.488   6.572 -0.8302 -0.9004 -0.2967
 6426TIP3   OH240912   0.119   0.227   7.448 -0.4659  0.3140  0.1914
 6426TIP3    H140913   0.181   0.277   7.501 -0.0027 -0.0857  0.0252
 6426TIP3    H240914   0.046   0.210   7.508 -0.9705  1.8111  0.0436
 6427TIP3   OH240915   1.684   2.739   7.087  0.0254  0.0128 -0.4719
 6427TIP3    H140916   1.677   2.815   7.030 -0.3617  1.1112  0.9829
 6427TIP3    H240917   1.630   2.760   7.163 -0.6356 -2.0064 -0.3159
 6428TIP3   OH240918   0.102   0.148   7.927  0.4515 -0.5742  0.7315
 6428TIP3    H140919   0.112   0.085   7.998 -1.1480 -1.7772 -0.0391
 6428TIP3    H240920   0.114   0.096   7.848 -0.5477  0.1528  0.0851
 6429TIP3   OH240921   2.786   2.834   7.463  0.8721  0.9248 -0.1289
 6429TIP3    H140922   2.837   2.796   7.391 -1.0121  3.1070 -2.8099
 6429TIP3    H240923   2.788   2.928   7.447  0.2887  1.4921  2.6779
 6430TIP3   OH240924   1.588   5.221   7.224  0.1387  0.2373  0.2736
 6430TIP3    H140925   1.637   5.303   7.220  2.1603 -0.9259 -1.7991
 6430TIP3    H240926   1.639   5.165   7.282 -0.4553 -0.0159  0.5606
 6431TIP3   OH240927   1.140   3.050   1.604 -0.3716 -0.4071 -0.1751
 6431TIP3    H140928   1.108   3.117   1.665 -0.4893 -0.4539 -0.1857
 6431TIP3    H240929   1.177   2.982   1.660 -1.2890 -0.8706 -0.1197
 6432TIP3   OH240930   0.962   3.245   1.276 -0.1707 -0.3115 -0.0466
 6432TIP3    H140931   0.875   3.279   1.258 -0.6672 -2.0238 -1.0762
 6432TIP3    H240932   1.002   3.310   1.334 -2.2676  0.2818  0.7952
 6433TIP3   OH240933   1.401   2.939   6.987 -0.0064  0.1206  0.0879
 6433TIP3    H140934   1.383   2.957   7.080  1.0216  0.6067  0.2023
 6433TIP3    H240935   1.379   3.020   6.942  1.7227  0.7176  0.2245
 6434TIP3   OH240936   1.927   5.912   0.858 -0.0201  0.2956 -0.2780
 6434TIP3    H140937   1.867   5.948   0.923  0.5605  0.5830  0.0992
 6434TIP3    H240938   1.933   5.980   0.791 -1.4315 -0.4092 -1.1844
 6435TIP3   OH240939   5.796   0.613   1.548  0.3165  1.3465 -0.0911
 6435TIP3    H140940   5.777   0.653   1.633  1.6337  1.5737  0.1058
 6435TIP3    H240941   5.856   0.542   1.568 -0.7606  0.2512 -0.6378
 6436TIP3   OH240942   6.925   0.553   7.881  0.2437  0.4124  0.0673
 6436TIP3    H140943   6.912   0.634   7.930 -0.3053  0.5004 -0.2250
 6436TIP3    H240944   6.854   0.551   7.818  1.4842  0.7777 -1.4036
 6437TIP3   OH240945   2.449   5.100   0.271 -0.2079  0.4078 -0.9169
 6437TIP3    H140946   2.508   5.025   0.260  0.5577  0.5998  1.3956
 6437TIP3    H240947   2.462   5.128   0.361 -2.1581  1.9380 -1.0412
 6438TIP3   OH240948   1.211   2.988   0.168  0.9255 -0.5261  0.0154
 6438TIP3    H140949   1.139   2.985   0.231 -0.0184 -1.2544 -1.0535
 6438TIP3    H240950   1.195   3.067   0.118  0.4332 -1.0585 -0.6911
 6439TIP3   OH240951   6.910   1.117   2.455  0.1185  0.0436  0.1534
 6439TIP3    H140952   6.989   1.086   2.499  1.3517  1.2693 -1.0993
 6439TIP3    H240953   6.931   1.113   2.362 -1.3605  0.2723 -0.2215
 6440TIP3   OH240954   4.385   4.447   6.840 -0.1096  0.0884 -0.0268
 6440TIP3    H140955   4.377   4.352   6.829 -0.5825  0.1837 -0.5428
 6440TIP3    H240956   4.458   4.472   6.783 -1.7140  0.3965 -2.0602
 6441TIP3   OH240957   1.440   4.137   7.303  0.0009 -0.4880  0.2729
 6441TIP3    H140958   1.459   4.066   7.242  0.3326  0.9338 -1.3900
 6441TIP3    H240959   1.524   4.182   7.314 -0.8369  1.8628 -1.8136
 6442TIP3   OH240960   0.962   1.723   1.596  0.1110 -0.1220 -0.4543
 6442TIP3    H140961   0.957   1.818   1.586  2.4846  0.2414  1.0412
 6442TIP3    H240962   0.892   1.702   1.656  1.0189  1.0807  1.1042
 6443TIP3   OH240963   1.496   3.311   0.484 -0.2394  0.2144 -0.1545
 6443TIP3    H140964   1.493   3.218   0.463  1.4453 -0.2156  1.2491
 6443TIP3    H240965   1.551   3.350   0.416 -0.0524 -0.0168 -0.1364
 6444TIP3   OH240966   0.231   4.459   6.792  0.1944 -0.5735 -0.0105
 6444TIP3    H140967   0.254   4.551   6.784  1.6286 -0.9145 -0.1302
 6444TIP3    H240968   0.269   4.432   6.876  0.9263 -1.3500 -0.5689
 6445TIP3   OH240969   2.368   6.138   0.060  0.1186 -0.3128 -0.2761
 6445TIP3    H140970   2.447   6.190   0.076 -0.8088  1.0753 -0.0133
 6445TIP3    H240971   2.297   6.194   0.091 -0.9319 -1.7425 -0.0372
 6446TIP3   OH240972   6.105   1.889   6.319 -0.6199 -0.7360  0.1989
 6446TIP3    H140973   6.191   1.851   6.336 -1.1205 -1.9220  0.1584
 6446TIP3    H240974   6.094   1.956   6.386  0.4296 -0.4108  0.0537
 6447TIP3   OH240975   6.887   5.605   7.585  0.2428  0.3973 -0.8863
 6447TIP3    H140976   6.805   5.648   7.609 -0.3650 -0.9483 -0.5162
 6447TIP3    H240977   6.886   5.603   7.489 -0.7769 -0.7463 -0.8715
 6448TIP3   OH240978   3.619   4.692   0.097  0.2857 -0.6842 -0.0209
 6448TIP3    H140979   3.530   4.683   0.063 -0.3829 -2.5223  1.9883
 6448TIP3    H240980   3.617   4.773   0.148  0.1397 -0.0862 -0.9510
 6449TIP3   OH240981   2.555   5.605   7.516  0.7412 -0.6548  0.3703
 6449TIP3    H140982   2.617   5.669   7.482  1.2503 -2.4098 -2.3286
 6449TIP3    H240983   2.590   5.520   7.489 -2.1304 -1.7992 -0.1489
 6450TIP3   OH240984   5.835   2.339   1.244 -0.3263 -0.2709 -0.0891
 6450TIP3    H140985   5.786   2.342   1.162  0.4824  1.8362 -0.5558
 6450TIP3    H240986   5.770   2.355   1.312 -0.5544  0.8964 -0.5698
 6451TIP3   OH240987   1.579   1.031   7.977 -0.0914 -0.0892  0.0870
 6451TIP3    H140988   1.504   1.053   8.031 -0.1350 -1.5592  0.6954
 6451TIP3    H240989   1.541   0.995   7.897 -0.1442 -2.3909  1.0471
 6452TIP3   OH240990   5.410   2.312   8.323  0.2509  0.5694  0.0376
 6452TIP3    H140991   5.412   2.407   8.336 -0.7228  1.0227 -2.3959
 6452TIP3    H240992   5.380   2.276   8.406  0.7818  2.3732  1.0526
 6453TIP3   OH240993   6.812   6.619   0.604 -0.1896  0.0833 -0.1992
 6453TIP3    H140994   6.838   6.646   0.692  3.6681  1.3736 -1.5414
 6453TIP3    H240995   6.761   6.693   0.571  1.1171  1.0782 -0.0947
 6454TIP3   OH240996   2.414   4.877   8.108 -0.0407 -0.1206  0.2166
 6454TIP3    H140997   2.494   4.921   8.080  1.1847 -2.2808  0.1760
 6454TIP3    H240998   2.355   4.949   8.130  2.6002  1.5902  2.3391
 6455TIP3   OH240999   5.909   4.723   0.622  0.0538 -0.1933  0.1662
 6455TIP3    H141000   5.864   4.651   0.666  1.2970 -1.0388  0.1054
 6455TIP3    H241001   5.865   4.802   0.653 -0.3317 -0.8887  1.4401
 6456TIP3   OH241002   3.699   3.294   8.114 -0.2572 -0.3780  0.5353
 6456TIP3    H141003   3.659   3.242   8.185 -0.6256  0.8917  1.2821
 6456TIP3    H241004   3.723   3.376   8.155  0.2970  0.0654 -0.6436
 6457TIP3   OH241005   0.202   1.677   6.845 -0.4611 -0.3677  0.6958
 6457TIP3    H141006   0.270   1.709   6.904 -0.0499 -1.2614  0.7235
 6457TIP3    H241007   0.247   1.661   6.762 -0.8482  0.0013  0.4074
 6458TIP3   OH241008   3.126   1.354   1.029  0.5173 -0.4620 -0.4987
 6458TIP3    H141009   3.065   1.331   1.099  1.0658  2.5921  1.1961
 6458TIP3    H241010   3.189   1.413   1.071  1.6421  0.5214 -3.3084
 6459TIP3   OH241011   0.689   3.952   7.605 -0.7780 -0.3495  0.2111
 6459TIP3    H141012   0.776   3.919   7.583 -1.0067  0.2681 -1.8238
 6459TIP3    H241013   0.700   4.047   7.610 -1.4376 -0.1999 -0.7908
 6460TIP3   OH241014   2.270   5.095   0.588  0.0646 -0.2891  0.6976
 6460TIP3    H141015   2.277   5.130   0.677 -0.6522  1.4062  0.1185
 6460TIP3    H241016   2.354   5.115   0.547 -0.0460  0.0060  0.6173
 6461TIP3   OH241017   5.841   3.009   1.042 -0.1807 -0.5727 -0.1158
 6461TIP3    H141018   5.858   2.919   1.014 -0.5649 -1.4701  2.2359
 6461TIP3    H241019   5.927   3.045   1.063  0.1343  0.1931 -2.4807
 6462TIP3   OH241020   2.882   5.319   7.585 -0.2271 -0.1774 -0.3766
 6462TIP3    H141021   2.888   5.224   7.595 -1.8440 -0.2971 -0.3099
 6462TIP3    H241022   2.889   5.333   7.491  0.7997 -0.2748 -0.3294
 6463TIP3   OH241023   1.173   0.654   6.539  0.3082  0.7108  0.5947
 6463TIP3    H141024   1.159   0.721   6.473 -0.4941 -1.0874 -1.1863
 6463TIP3    H241025   1.150   0.572   6.495  0.9459 -0.7162  2.7433
 6464TIP3   OH241026   5.999   2.454   7.306  0.3146 -0.4395  0.4284
 6464TIP3    H141027   5.971   2.423   7.220  1.4610  0.3423 -0.2486
 6464TIP3    H241028   5.997   2.376   7.361  1.3844 -1.3618 -0.7848
 6465TIP3   OH241029   3.559   0.101   0.024  0.2842  0.2859  0.7044
 6465TIP3    H141030   3.468   0.085  -0.001  0.8312  0.7018 -1.8406
 6465TIP3    H241031   3.598   0.144  -0.052  3.1755 -1.8025  0.7970
 6466TIP3   OH241032   0.579   4.446   2.227 -0.4845  0.6171 -0.0291
 6466TIP3    H141033   0.546   4.458   2.138  0.4042  0.1384 -0.4260
 6466TIP3    H241034   0.499   4.440   2.281 -1.0256  0.7958 -0.7931
 6467TIP3   OH241035   3.831   1.285   2.222 -1.2352 -0.2136 -0.6964
 6467TIP3    H141036   3.863   1.340   2.293 -1.8785 -1.6295  0.7596
 6467TIP3    H241037   3.735   1.292   2.228 -1.2846  0.3726 -2.0229
 6468TIP3   OH241038   1.846   1.194   7.972 -0.2386 -0.0523 -0.0999
 6468TIP3    H141039   1.751   1.180   7.975 -0.2105 -0.1047  0.5099
 6468TIP3    H241040   1.881   1.109   7.944 -0.4537  0.3314 -1.6830
 6469TIP3   OH241041   2.439   4.333   7.690 -0.4587 -1.1891  0.2797
 6469TIP3    H141042   2.359   4.309   7.737 -0.1972  0.3284  1.5603
 6469TIP3    H241043   2.508   4.330   7.756  0.5735 -2.4223 -0.7982
 6470TIP3   OH241044   6.957   1.678   0.830 -0.1795  0.2025  0.5376
 6470TIP3    H141045   6.992   1.633   0.907 -1.1872  0.4759  1.1833
 6470TIP3    H241046   6.928   1.763   0.863 -1.9905 -0.2434  0.1959
 6471TIP3   OH241047   3.022   3.353   7.417 -0.2675 -0.6862  0.0400
 6471TIP3    H141048   3.089   3.409   7.458  0.2123 -2.3943  1.7228
 6471TIP3    H241049   2.943   3.408   7.417  0.8728  1.0567 -1.1753
 6472TIP3   OH241050   6.509   4.425   7.674  0.3974  0.3777 -0.1517
 6472TIP3    H141051   6.560   4.435   7.755  2.2399  0.2026 -1.2351
 6472TIP3    H241052   6.558   4.360   7.623 -1.7225 -0.8742 -0.6747
 6473TIP3   OH241053   0.449   6.023   0.305  0.0844  0.3892 -0.1589
 6473TIP3    H141054   0.354   6.035   0.299 -0.1011 -0.3264  1.0750
 6473TIP3    H241055   0.460   5.941   0.353  1.3295  0.9253  0.5203
 6474TIP3   OH241056   3.874   6.528   0.842  0.2808  0.9512 -0.0223
 6474TIP3    H141057   3.947   6.514   0.903 -0.5519  0.6679  0.9350
 6474TIP3    H241058   3.913   6.513   0.756  1.0848 -0.4561  0.5364
 6475TIP3   OH241059   1.850   0.145   7.521 -0.0755  0.0720 -0.3379
 6475TIP3    H141060   1.910   0.087   7.568  1.0615  1.1714 -0.3870
 6475TIP3    H241061   1.878   0.233   7.544 -0.8702  0.6249 -1.3766
 6476TIP3   OH241062   6.429   3.962   2.188  0.2250 -0.2358  0.6467
 6476TIP3    H141063   6.345   3.985   2.229 -0.4770 -3.5236  1.3223
 6476TIP3    H241064   6.429   4.011   2.106 -0.9092  2.1938  1.9667
 6477TIP3   OH241065   0.763   4.025   8.445  0.8078 -0.7363 -0.5531
 6477TIP3    H141066   0.763   3.945   8.497 -1.7795  0.9690  2.3808
 6477TIP3    H241067   0.772   3.994   8.355  1.8816 -4.1247  0.5360
 6478TIP3   OH241068   0.087   2.001   0.536 -0.9158 -0.8195 -0.2036
 6478TIP3    H141069   0.034   2.021   0.614 -0.7033  2.0522 -0.6745
 6478TIP3    H241070   0.177   2.001   0.569 -0.8700 -0.2806 -0.3256
 6479TIP3   OH241071   2.526   0.811   2.290 -0.1244 -0.5024  0.1831
 6479TIP3    H141072   2.465   0.781   2.223 -0.2550 -0.9346  0.4886
 6479TIP3    H241073   2.610   0.770   2.267  0.1796  0.4712 -0.5083
 6480TIP3   OH241074   6.830   1.913   6.628  0.5770 -0.0418 -0.6199
 6480TIP3    H141075   6.817   1.942   6.538  2.4647  0.4833 -0.7873
 6480TIP3    H241076   6.747   1.874   6.654 -0.2817  0.5824 -2.2858
 6481TIP3   OH241077   4.450   3.074   8.315  0.1793 -0.0237 -0.3889
 6481TIP3    H141078   4.467   3.164   8.343  2.4843 -0.9955  1.8188
 6481TIP3    H241079   4.449   3.078   8.220 -0.3404  2.3962 -0.3474
 6482TIP3   OH241080   5.542   1.948   6.191 -0.2016  0.2742 -0.1688
 6482TIP3    H141081   5.492   1.977   6.267  0.0653  2.8625 -0.8946
 6482TIP3    H241082   5.493   1.873   6.157 -0.4765 -0.7744  2.3319
 6483TIP3   OH241083   5.985   4.154   0.031 -0.7008  0.1967  0.2279
 6483TIP3    H141084   5.947   4.221  -0.026 -0.8434  0.8680  1.0855
 6483TIP3    H241085   5.933   4.075   0.014 -1.9557  0.8790  0.7683
 6484TIP3   OH241086   5.987   0.272   0.224 -0.6748  0.0981 -0.2459
 6484TIP3    H141087   5.917   0.272   0.159 -1.5594 -0.5070  0.6735
 6484TIP3    H241088   6.033   0.189   0.209  0.6365  1.0403 -1.6419
 6485TIP3   OH241089   1.242   3.674   1.362 -0.4043 -0.3381 -0.2601
 6485TIP3    H141090   1.178   3.605   1.346 -1.0950 -0.2517  1.7897
 6485TIP3    H241091   1.326   3.629   1.360 -0.4340 -0.4444 -3.0299
 6486TIP3   OH241092   0.857   2.891   7.431  0.7708 -0.2816 -0.1465
 6486TIP3    H141093   0.874   2.940   7.512  0.9667  2.2907 -1.6370
 6486TIP3    H241094   0.812   2.812   7.460  2.2062 -0.2251  2.6069
 6487TIP3   OH241095   6.438   1.449   7.394 -1.0926 -0.1970 -0.1571
 6487TIP3    H141096   6.352   1.408   7.387 -1.1905 -0.1334  0.5810
 6487TIP3    H241097   6.493   1.381   7.433 -1.1901  0.2676  0.8144
 6488TIP3   OH241098   3.412   0.582   0.098 -0.4465 -0.4293  0.0276
 6488TIP3    H141099   3.467   0.519   0.144 -0.6950  0.9474  2.3837
 6488TIP3    H241100   3.348   0.611   0.163 -1.6313  0.7505 -1.5548
 6489TIP3   OH241101   6.319   4.565   2.083  0.1262 -0.0338  0.1210
 6489TIP3    H141102   6.359   4.589   2.167  1.2989 -0.6424 -0.2382
 6489TIP3    H241103   6.344   4.474   2.070  0.7426  0.3253 -1.3272
 6490TIP3   OH241104   3.576   6.344   7.070 -0.1212 -0.3491  0.6371
 6490TIP3    H141105   3.555   6.332   6.977  0.7237  1.8003  0.0992
 6490TIP3    H241106   3.494   6.374   7.109 -0.2358 -0.3150  0.3745
 6491TIP3   OH241107   3.968   2.114   7.548  0.2779  0.4256  0.1577
 6491TIP3    H141108   3.920   2.130   7.467  0.1578 -0.4249  0.0495
 6491TIP3    H241109   4.045   2.064   7.521 -0.4125 -0.9731  0.7025
 6492TIP3   OH241110   3.451   3.934   7.896  0.9972  0.4676  0.7466
 6492TIP3    H141111   3.438   3.889   7.979 -0.5414  0.4210  0.5283
 6492TIP3    H241112   3.418   4.022   7.910  2.4227  1.0355  0.6824
 6493TIP3   OH241113   6.404   4.068   0.456  0.2542 -0.2368 -0.3869
 6493TIP3    H141114   6.315   4.061   0.420 -0.8923 -0.0081  2.1645
 6493TIP3    H241115   6.420   4.162   0.460  0.1496 -0.2413  0.1689
 6494TIP3   OH241116   1.534   0.286   1.949 -0.2726 -0.0934 -0.1821
 6494TIP3    H141117   1.440   0.299   1.946 -0.5624 -2.0296 -1.1530
 6494TIP3    H241118   1.560   0.317   2.036 -2.0737 -0.9791  0.7232
 6495TIP3   OH241119   2.759   1.795   0.910  0.1603 -0.4154 -0.2025
 6495TIP3    H141120   2.741   1.701   0.911  1.0420 -0.5899 -0.2173
 6495TIP3    H241121   2.698   1.832   0.974 -0.9758 -0.8415 -1.0035
 6496TIP3   OH241122   2.786   4.974   7.335 -0.0024  1.0781 -0.0247
 6496TIP3    H141123   2.867   4.934   7.305 -0.0447  1.9136 -1.3356
 6496TIP3    H241124   2.810   5.064   7.357 -0.2734  0.8900  1.1063
 6497TIP3   OH241125   5.017   5.796   1.081 -0.1004 -0.0623  0.0493
 6497TIP3    H141126   5.045   5.855   1.151 -1.4413  1.7220 -0.8353
 6497TIP3    H241127   5.066   5.827   1.004  1.3360 -1.9758  0.1177
 6498TIP3   OH241128   3.098   3.020   7.687  0.1631  0.4032 -0.0608
 6498TIP3    H141129   3.069   2.928   7.683  2.3707 -0.3199 -0.9281
 6498TIP3    H241130   3.119   3.034   7.779  0.3677 -0.1653 -0.0155
 6499TIP3   OH241131   2.176   0.465   2.130 -0.5466 -0.1729  0.5662
 6499TIP3    H141132   2.082   0.463   2.148 -1.1060  2.8601 -1.4131
 6499TIP3    H241133   2.187   0.410   2.052 -1.1843  1.5127 -0.7722
 6500TIP3   OH241134   3.282   5.187   7.828 -0.0650 -0.0431 -0.0207
 6500TIP3    H141135   3.258   5.105   7.869 -1.6678 -0.2113 -1.1586
 6500TIP3    H241136   3.351   5.164   7.765 -0.8149 -0.6327 -0.6531
 6501TIP3   OH241137   2.551   6.063   2.016 -0.2042 -0.2441 -0.0332
 6501TIP3    H141138   2.597   6.144   1.997 -0.7829  0.0531 -0.1980
 6501TIP3    H241139   2.518   6.074   2.105 -1.6641  0.3842 -0.6209
 6502TIP3   OH241140   3.229   5.284   1.988  0.1740  0.4799  0.1796
 6502TIP3    H141141   3.191   5.263   2.073 -1.4730  0.3909 -0.5413
 6502TIP3    H241142   3.209   5.377   1.975 -0.6772  0.1925 -0.6341
 6503TIP3   OH241143   0.081   6.702   0.856 -0.2701  0.2342  0.3576
 6503TIP3    H141144   0.096   6.752   0.776 -0.4347  0.6679  0.5940
 6503TIP3    H241145   0.164   6.659   0.874 -0.1483  0.3650  0.1082
 6504TIP3   OH241146   6.859   4.507   0.127 -0.1283 -0.2431  0.1891
 6504TIP3    H141147   6.862   4.412   0.140 -0.4358 -0.6918 -2.4305
 6504TIP3    H241148   6.793   4.537   0.188 -1.0515 -1.9512  0.0971
 6505TIP3   OH241149   3.300   4.152   7.389  0.0455  0.6100 -0.1947
 6505TIP3    H141150   3.224   4.150   7.332  0.0750 -0.3746 -0.2186
 6505TIP3    H241151   3.351   4.075   7.364  0.7092  0.8801  0.2814
 6506TIP3   OH241152   0.322   2.707   7.315  0.3487 -0.2256  0.2392
 6506TIP3    H141153   0.238   2.754   7.316  0.2783 -0.3439 -0.0289
 6506TIP3    H241154   0.387   2.776   7.302  0.2117 -0.2400 -0.5987
 6507TIP3   OH241155   2.913   0.456   1.176  0.1919 -0.4127  0.1760
 6507TIP3    H141156   2.982   0.412   1.126  1.3497  1.3745  0.1038
 6507TIP3    H241157   2.865   0.507   1.111  0.5423  0.4794  0.6006
 6508TIP3   OH241158   2.061   4.670   1.418 -0.2671 -0.0937  0.5886
 6508TIP3    H141159   2.073   4.590   1.468 -0.4363  0.2347  1.1658
 6508TIP3    H241160   2.115   4.659   1.340 -1.0522 -1.1820  0.1747
 6509TIP3   OH241161   4.357   1.633   6.373 -0.2513 -0.2097  0.4963
 6509TIP3    H141162   4.432   1.619   6.431  0.0774 -0.7755 -0.0483
 6509TIP3    H241163   4.285   1.585   6.415  0.0362 -0.7891  0.3351
 6510TIP3   OH241164   5.168   1.135   1.079  0.4403 -0.4983 -0.0900
 6510TIP3    H141165   5.129   1.195   1.016 -2.2671 -0.6096  1.3622
 6510TIP3    H241166   5.105   1.064   1.088  1.3290 -1.1394  1.7885
 6511TIP3   OH241167   0.433   3.136   8.421 -0.3425 -0.1629  0.0194
 6511TIP3    H141168   0.458   3.149   8.330  1.2468 -2.3062  0.0812
 6511TIP3    H241169   0.487   3.199   8.470 -0.7921  0.6016 -0.4412
 6512TIP3   OH241170   2.552   0.121   0.778 -0.1219  0.3138 -0.5795
 6512TIP3    H141171   2.516   0.082   0.857 -0.5232 -1.0330 -1.3814
 6512TIP3    H241172   2.646   0.106   0.784 -0.1935 -0.1246 -0.5316
 6513TIP3   OH241173   2.983   5.613   2.934  0.3365  0.2051 -0.3869
 6513TIP3    H141174   2.935   5.600   2.853  0.5568 -1.4388 -0.2954
 6513TIP3    H241175   3.053   5.674   2.911 -0.9977  1.6091 -0.8251
 6514TIP3   OH241176   3.511   5.461   1.249 -0.0660 -0.1254 -0.1461
 6514TIP3    H141177   3.429   5.451   1.298  0.4675  1.1086  1.0620
 6514TIP3    H241178   3.494   5.530   1.186  0.1651  0.4318  0.3972
 6515TIP3   OH241179   6.689   4.097   7.917 -0.1639  0.3407 -0.0579
 6515TIP3    H141180   6.705   4.060   7.830  0.6884  0.0552  0.2083
 6515TIP3    H241181   6.651   4.026   7.968 -0.7387  0.5315 -0.2127
 6516TIP3   OH241182   2.756   6.227   1.868 -0.1486 -0.1789 -0.0984
 6516TIP3    H141183   2.827   6.232   1.931 -1.0668  3.1398  0.8392
 6516TIP3    H241184   2.794   6.259   1.786  0.1344 -1.1728 -0.3714
 6517TIP3   OH241185   2.553   6.492   1.500 -0.2026  0.0692 -0.0342
 6517TIP3    H141186   2.506   6.461   1.578  0.6040 -0.4978  0.2367
 6517TIP3    H241187   2.602   6.416   1.470  0.3309  0.5819 -0.4684
 6518TIP3   OH241188   5.305   3.052   7.775  0.0440  0.1976  0.1898
 6518TIP3    H141189   5.383   3.078   7.725  0.1781 -0.4670  0.0400
 6518TIP3    H241190   5.255   3.133   7.786  0.6361  0.5858  0.0755
 6519TIP3   OH241191   1.106   4.620   7.278 -0.3155 -0.3083  0.4812
 6519TIP3    H141192   1.108   4.542   7.333  0.6631  1.0933  2.5706
 6519TIP3    H241193   1.196   4.654   7.281 -0.7268  0.9294 -0.3282
 6520TIP3   OH241194   2.783   6.081   0.186  0.1841  0.3212  0.5924
 6520TIP3    H141195   2.833   6.162   0.172  1.6211 -0.6719 -0.2462
 6520TIP3    H241196   2.834   6.013   0.143 -1.0424 -1.0462  1.2015
 6521TIP3   OH241197   6.948   5.163   0.953  0.1313  0.0127 -0.2300
 6521TIP3    H141198   6.911   5.075   0.942 -1.9022  0.7994 -0.0545
 6521TIP3    H241199   7.042   5.151   0.939 -0.3597 -1.7634 -2.6843
 6522TIP3   OH241200   6.996   6.016   2.488 -1.0121  0.2275 -0.1421
 6522TIP3    H141201   7.021   5.926   2.510 -2.4815  0.1019  1.1082
 6522TIP3    H241202   6.992   6.062   2.572 -0.0707  1.5608 -0.7751
 6523TIP3   OH241203   6.488   0.354   6.099 -0.5439 -0.2237 -0.1833
 6523TIP3    H141204   6.488   0.424   6.034  1.0484  0.0251  0.0443
 6523TIP3    H241205   6.406   0.306   6.084  0.0313 -0.5299 -2.7383
 6524TIP3   OH241206   4.528   5.445   1.284 -0.1438  0.4260 -0.4715
 6524TIP3    H141207   4.501   5.476   1.198  0.1109  2.3700  0.1030
 6524TIP3    H241208   4.457   5.473   1.343  0.6991  1.0582  0.2674
 6525TIP3   OH241209   3.567   6.485   7.629  0.4311  0.1586 -0.0923
 6525TIP3    H141210   3.545   6.572   7.596 -0.4342  0.5513  1.4142
 6525TIP3    H241211   3.485   6.436   7.623  0.5287 -0.0767  0.4944
 6526TIP3   OH241212   1.816   2.951   0.415 -0.1452 -0.2836 -0.0446
 6526TIP3    H141213   1.896   2.944   0.363  0.1219 -0.0236  0.3323
 6526TIP3    H241214   1.746   2.928   0.353  0.2167 -0.5353 -0.3696
 6527TIP3   OH241215   6.446   1.391   0.456 -0.3917  0.1862 -0.2213
 6527TIP3    H141216   6.393   1.422   0.529  0.6618  3.7973 -0.8083
 6527TIP3    H241217   6.534   1.425   0.473  0.0949  0.3208 -2.6612
 6528TIP3   OH241218   6.775   6.049   8.335  0.1354 -0.5755  0.3191
 6528TIP3    H141219   6.691   6.094   8.323 -0.6904 -2.1029  0.0709
 6528TIP3    H241220   6.839   6.105   8.292 -0.8515  0.3175 -0.0394
 6529TIP3   OH241221   2.091   4.324   6.779  0.2894  0.0549  0.2344
 6529TIP3    H141222   2.062   4.233   6.773 -0.4969  0.3353 -0.3395
 6529TIP3    H241223   2.184   4.321   6.754  0.4731 -0.6825  0.9403
 6530TIP3   OH241224   1.253   3.335   7.159 -0.1679 -0.0701  0.8525
 6530TIP3    H141225   1.317   3.347   7.229  1.1295  1.5089 -0.5242
 6530TIP3    H241226   1.247   3.240   7.148  3.3699 -0.3200 -0.1482
 6531TIP3   OH241227   0.825   6.578   7.388 -0.2322  0.0850  0.4172
 6531TIP3    H141228   0.808   6.636   7.314  0.8366  0.4532  0.4367
 6531TIP3    H241229   0.768   6.609   7.458  0.5068  1.2974  0.5063
 6532TIP3   OH241230   2.416   4.640   7.306  0.2620 -0.1329  0.5450
 6532TIP3    H141231   2.402   4.702   7.378  0.7653  0.0949  0.4447
 6532TIP3    H241232   2.501   4.663   7.269 -0.0774 -0.1266 -0.2548
 6533TIP3   OH241233   3.367   6.342   7.865 -0.1639 -0.6757 -0.2211
 6533TIP3    H141234   3.284   6.306   7.896  0.1929  0.4472  2.2894
 6533TIP3    H241235   3.367   6.433   7.895  1.6958 -0.4674 -0.7085
 6534TIP3   OH241236   2.497   4.246   0.491 -0.0295  0.0548  0.0108
 6534TIP3    H141237   2.546   4.316   0.535  0.2576 -0.8986  1.2496
 6534TIP3    H241238   2.441   4.209   0.560 -1.3898  0.1100 -1.0064
 6535TIP3   OH241239   2.654   1.744   7.967 -0.4082 -0.1740  0.2151
 6535TIP3    H141240   2.574   1.727   7.917 -1.2847  1.9389  0.7763
 6535TIP3    H241241   2.630   1.722   8.057  0.4617 -1.8785  0.0566
 6536TIP3   OH241242   5.363   3.103   8.479 -0.2916  0.5393 -0.1980
 6536TIP3    H141243   5.332   3.062   8.560  0.2811  0.3944 -0.0529
 6536TIP3    H241244   5.367   3.031   8.416 -1.6436  0.8132 -0.6292
 6537TIP3   OH241245   3.518   0.615   8.333  0.1168 -0.5520  0.1223
 6537TIP3    H141246   3.480   0.640   8.417 -0.2269 -1.1312  0.1461
 6537TIP3    H241247   3.512   0.519   8.331  1.5735 -0.6718  0.1289
 6538TIP3   OH241248   1.555   0.504   6.810  0.4670  0.1431  0.6130
 6538TIP3    H141249   1.637   0.488   6.764  0.9337  2.8386  0.3277
 6538TIP3    H241250   1.489   0.457   6.760  1.4656  0.2008 -0.7984
 6539TIP3   OH241251   1.141   5.523   7.731 -0.2091  0.3846  0.1241
 6539TIP3    H141252   1.234   5.520   7.753 -0.2666 -0.7103  0.2982
 6539TIP3    H241253   1.136   5.478   7.647 -0.7879 -1.1503  0.9468
 6540TIP3   OH241254   4.907   0.602   1.207 -0.1732  0.3936 -0.5414
 6540TIP3    H141255   4.829   0.612   1.152  1.2617  1.8326 -2.4409
 6540TIP3    H241256   4.974   0.570   1.148  1.3353  1.6135  0.4317
 6541TIP3   OH241257   3.653   1.017   8.377 -0.0639  0.0709  0.4651
 6541TIP3    H141258   3.720   1.058   8.432 -0.9809 -0.1443  1.7762
 6541TIP3    H241259   3.642   1.078   8.304  0.0964  1.1244  1.2986
 6542TIP3   OH241260   6.057   4.329   6.132  0.1055 -0.4782  0.2354
 6542TIP3    H141261   6.060   4.303   6.040 -1.3013 -0.4431  0.1570
 6542TIP3    H241262   6.052   4.424   6.130  0.6382 -0.4404  0.3842
 6543TIP3   OH241263   5.139   4.191   7.038  0.2511 -0.4380 -0.3275
 6543TIP3    H141264   5.143   4.224   6.949 -1.5044  0.5334 -0.0954
 6543TIP3    H241265   5.170   4.264   7.092  1.3160 -1.0238 -0.1107
 6544TIP3   OH241266   1.202   0.502   1.405 -0.4846 -0.0843 -0.2625
 6544TIP3    H141267   1.241   0.518   1.319 -0.9335  1.1486 -0.2695
 6544TIP3    H241268   1.181   0.409   1.405  2.5900 -0.8618 -0.1675
 6545TIP3   OH241269   4.752   6.752   1.247 -0.0859  0.0623  0.5838
 6545TIP3    H141270   4.821   6.801   1.204 -1.4179  0.8852 -0.7172
 6545TIP3    H241271   4.704   6.710   1.175 -2.5313  1.6813  1.1146
 6546TIP3   OH241272   6.001   1.772   1.998 -0.1976  0.0399  0.2775
 6546TIP3    H141273   6.068   1.705   2.013  1.5527  1.9300  1.3951
 6546TIP3    H241274   5.934   1.755   2.064  0.6585 -0.0997  1.1258
 6547TIP3   OH241275   1.964   4.522   1.963  0.3690  0.4750  0.2922
 6547TIP3    H141276   2.055   4.550   1.963 -0.1421  2.2442 -0.4680
 6547TIP3    H241277   1.968   4.428   1.943  1.9130  0.9873 -2.2094
 6548TIP3   OH241278   0.266   1.894   7.978  0.1949 -0.1883  0.3175
 6548TIP3    H141279   0.215   1.918   8.055 -1.7442  0.2245 -1.0356
 6548TIP3    H241280   0.218   1.930   7.904  0.7380 -2.5316 -1.3031
 6549TIP3   OH241281   5.072   6.348   0.609  0.3028 -0.1362  0.3034
 6549TIP3    H141282   5.129   6.307   0.544  0.0421 -0.5202  0.3147
 6549TIP3    H241283   5.127   6.413   0.651  0.4270  0.2267 -0.4122
 6550TIP3   OH241284   1.364   1.592   2.213  0.5688 -0.3296 -0.3319
 6550TIP3    H141285   1.295   1.613   2.275 -1.0142 -2.0553 -1.4176
 6550TIP3    H241286   1.387   1.676   2.173 -1.7398  0.1598 -0.7638
 6551TIP3   OH241287   2.720   6.837   0.526  0.6602 -0.1911 -0.5628
 6551TIP3    H141288   2.797   6.826   0.583  1.6283 -1.4786 -2.0474
 6551TIP3    H241289   2.654   6.779   0.563  0.7390  0.1559  0.1401
 6552TIP3   OH241290   5.763   5.101   8.477 -0.4242 -0.2006  0.3186
 6552TIP3    H141291   5.800   5.157   8.544  2.3921 -0.5175 -0.8482
 6552TIP3    H241292   5.768   5.013   8.514 -1.0246 -0.1564  0.5325
 6553TIP3   OH241293   4.008   3.969   8.291 -0.0003  0.6015 -0.0357
 6553TIP3    H141294   4.068   3.901   8.320  0.3307  0.5155 -0.8892
 6553TIP3    H241295   3.967   3.933   8.212 -0.4615  1.0411 -0.0025
 6554TIP3   OH241296   4.928   2.042   6.544 -0.1530  0.1647  0.2594
 6554TIP3    H141297   4.958   2.131   6.526 -0.5003 -0.0986 -1.7615
 6554TIP3    H241298   4.901   2.007   6.459  0.3448 -2.0196  0.9307
 6555TIP3   OH241299   1.262   2.395   7.124 -0.4069 -0.0722  0.0964
 6555TIP3    H141300   1.309   2.467   7.083 -1.0488 -0.3583 -1.1910
 6555TIP3    H241301   1.212   2.436   7.195 -0.2362  0.6439 -0.1904
 6556TIP3   OH241302   6.228   3.930   6.463 -0.0107  0.2390  0.0953
 6556TIP3    H141303   6.248   3.853   6.409 -0.2464 -0.0610  0.4374
 6556TIP3    H241304   6.153   3.970   6.419 -0.1375  0.0532  0.1386
 6557TIP3   OH241305   2.728   4.300   7.331 -0.2168  0.7481  0.2234
 6557TIP3    H141306   2.780   4.287   7.411  0.0362 -0.5049 -0.1224
 6557TIP3    H241307   2.639   4.315   7.363 -0.2027 -0.1811  0.7589
 6558TIP3   OH241308   6.288   3.917   8.043 -0.2383 -0.0691  0.1260
 6558TIP3    H141309   6.335   3.852   8.095  2.1609  1.5400  0.1200
 6558TIP3    H241310   6.278   3.992   8.102  2.5926  1.8283 -1.5657
 6559TIP3   OH241311   4.628   4.590   7.041 -0.2751 -0.2052 -0.3835
 6559TIP3    H141312   4.646   4.503   7.006 -1.4202 -0.9118  0.7088
 6559TIP3    H241313   4.671   4.592   7.126 -0.6860  0.1002 -0.1748
 6560TIP3   OH241314   3.434   0.745   8.102 -0.0974 -0.4456  0.0315
 6560TIP3    H141315   3.516   0.790   8.082  0.2426 -1.1479 -0.1900
 6560TIP3    H241316   3.449   0.703   8.187 -0.6001  0.2895  0.4956
 6561TIP3   OH241317   1.292   6.048   8.242  0.0670  0.6729  0.3926
 6561TIP3    H141318   1.328   5.959   8.232  0.4042  0.8352  0.1296
 6561TIP3    H241319   1.212   6.047   8.190 -0.6161  0.1468  1.4093
 6562TIP3   OH241320   5.147   3.282   7.163  0.1973 -0.6062 -0.4026
 6562TIP3    H141321   5.146   3.344   7.090 -0.7957 -1.5961 -1.2655
 6562TIP3    H241322   5.218   3.222   7.142  0.9180 -0.0082  0.2494
 6563TIP3   OH241323   4.486   1.337   6.519  0.5878 -0.4872 -0.5503
 6563TIP3    H141324   4.520   1.423   6.543  0.9601 -0.6479 -0.4896
 6563TIP3    H241325   4.531   1.277   6.579  1.7342 -0.9263 -1.8165
 6564TIP3   OH241326   2.913   6.675   6.771 -0.0598 -0.0920  0.0609
 6564TIP3    H141327   2.909   6.729   6.850 -0.4959  0.8964 -0.6260
 6564TIP3    H241328   2.833   6.695   6.723  0.0104 -0.9752 -0.4512
 6565TIP3   OH241329   0.576   4.567   8.173  0.4488  0.2335 -0.3607
 6565TIP3    H141330   0.508   4.544   8.237  1.1175  1.4942  0.8596
 6565TIP3    H241331   0.527   4.594   8.095 -0.3939 -0.6412 -0.1623
 6566TIP3   OH241332   4.158   1.592   0.125 -0.8321  0.1049  0.1936
 6566TIP3    H141333   4.181   1.659   0.189 -3.5463  1.4036 -0.0590
 6566TIP3    H241334   4.159   1.637   0.041 -0.5576 -0.7475 -0.2761
 6567TIP3   OH241335   1.789   6.522   0.809 -0.3234 -0.6867 -0.9655
 6567TIP3    H141336   1.796   6.538   0.903  0.3346 -1.1143 -0.9361
 6567TIP3    H241337   1.757   6.605   0.773 -1.0186 -0.6617 -0.3181
 6568TIP3   OH241338   0.705   5.871   8.084 -0.1257  0.0884  0.3250
 6568TIP3    H141339   0.750   5.826   8.155  0.0822 -1.0868 -0.5134
 6568TIP3    H241340   0.761   5.947   8.064 -1.0275  1.4004  2.4679
 6569TIP3   OH241341   3.980   2.335   7.878  0.5471 -0.7679  0.3309
 6569TIP3    H141342   3.966   2.308   7.968  2.0324  1.0043  1.1656
 6569TIP3    H241343   3.893   2.350   7.842 -0.0434  0.1280  2.0360
 6570TIP3   OH241344   5.892   4.514   1.291  0.2494  0.0828 -0.2647
 6570TIP3    H141345   5.797   4.518   1.282  0.3216  1.0042 -0.7919
 6570TIP3    H241346   5.908   4.520   1.385 -0.2680 -1.9124 -0.0113
 6571TIP3   OH241347   4.270   0.629   1.771  0.4873  0.2985  0.4372
 6571TIP3    H141348   4.222   0.570   1.715 -1.5865  1.4852  0.8463
 6571TIP3    H241349   4.212   0.705   1.781  3.0679  2.5144 -0.2310
 6572TIP3   OH241350   1.246   1.154   6.927  0.3088 -0.1798  0.6797
 6572TIP3    H141351   1.217   1.242   6.905 -0.8011 -0.5386  0.6845
 6572TIP3    H241352   1.194   1.096   6.872  2.3318 -0.7901 -0.7104
 6573TIP3   OH241353   3.041   0.082   8.345 -0.1899  0.2875  0.1225
 6573TIP3    H141354   3.030   0.025   8.421  3.0518 -0.2261  0.3715
 6573TIP3    H241355   3.106   0.037   8.291  0.5453  2.5076 -0.9718
 6574TIP3   OH241356   4.862   1.954   1.420  0.4099 -0.5656  0.7119
 6574TIP3    H141357   4.774   1.982   1.443  1.2356  0.3914  2.9690
 6574TIP3    H241358   4.848   1.878   1.363 -1.8354  0.5030 -0.3182
 6575TIP3   OH241359   0.698   4.557   6.752 -0.3318 -0.2085  0.7149
 6575TIP3    H141360   0.674   4.567   6.660  0.4840 -0.2293  0.4988
 6575TIP3    H241361   0.782   4.512   6.751 -0.0786  0.2312  1.4627
 6576TIP3   OH241362   2.210   4.410   0.146 -0.4076 -0.9989  0.3988
 6576TIP3    H141363   2.233   4.318   0.143  3.2192 -0.2489  0.1439
 6576TIP3    H241364   2.252   4.448   0.069 -1.3419  0.9730  0.7879
 6577TIP3   OH241365   5.598   6.737   7.948  0.1098  0.1038 -0.0524
 6577TIP3    H141366   5.578   6.831   7.942 -0.0351  0.0336 -0.7115
 6577TIP3    H241367   5.520   6.698   7.987 -0.1532  0.1402 -0.5454
 6578TIP3   OH241368   3.246   1.780   7.480  0.1773  0.4544 -0.3166
 6578TIP3    H141369   3.276   1.822   7.561 -2.5448  1.4989  0.2443
 6578TIP3    H241370   3.170   1.728   7.507  1.9981 -3.1428 -1.4180
 6579TIP3   OH241371   6.014   3.985   8.153 -0.0564  0.4259 -0.1318
 6579TIP3    H141372   5.939   3.939   8.192 -0.4073  1.7678  0.8327
 6579TIP3    H241373   6.073   4.001   8.226  1.1532 -0.5030 -0.8608
 6580TIP3   OH241374   1.471   1.365   7.139  0.0441 -0.0734 -0.0429
 6580TIP3    H141375   1.547   1.368   7.081  1.9322  0.1566  2.2667
 6580TIP3    H241376   1.502   1.321   7.218 -2.9539 -2.1828  0.1224
 6581TIP3   OH241377   3.922   1.640   7.089 -0.3096 -0.1268 -0.3724
 6581TIP3    H141378   3.886   1.726   7.112 -0.4518  0.3426 -2.1989
 6581TIP3    H241379   3.865   1.577   7.134 -0.8030  0.6947  0.1906
 6582TIP3   OH241380   6.461   0.144   0.683 -0.2381  0.2888  0.0616
 6582TIP3    H141381   6.446   0.217   0.744  0.5410 -0.6739  1.4361
 6582TIP3    H241382   6.461   0.186   0.597  1.0076  2.0663  0.8604
 6583TIP3   OH241383   4.260   1.780   1.115  0.0383 -0.1260  0.1691
 6583TIP3    H141384   4.294   1.718   1.051  1.6957  0.6817  0.2177
 6583TIP3    H241385   4.241   1.727   1.192 -0.2942 -0.8313 -0.3852
 6584TIP3   OH241386   5.538   2.577   0.504  0.2254 -0.2297  0.1788
 6584TIP3    H141387   5.465   2.605   0.559  0.6546  0.3751  0.4451
 6584TIP3    H241388   5.613   2.628   0.535  0.8120 -0.9978  0.0503
 6585TIP3   OH241389   1.907   6.848   0.919 -0.0866 -0.0847 -0.0230
 6585TIP3    H141390   1.996   6.822   0.899 -0.2571  0.0623 -1.0228
 6585TIP3    H241391   1.863   6.851   0.834 -0.6943  1.1107  0.3057
 6586TIP3   OH241392   2.008   5.786   1.712  0.2969  0.4254  0.6770
 6586TIP3    H141393   2.049   5.855   1.660 -1.5202 -0.3145 -1.9072
 6586TIP3    H241394   2.077   5.722   1.726  0.5372 -0.1522 -2.4075
 6587TIP3   OH241395   0.382   0.430   1.566 -0.0211  0.6599  0.0482
 6587TIP3    H141396   0.317   0.406   1.631 -0.8028  1.2165 -0.5185
 6587TIP3    H241397   0.332   0.460   1.490  0.8412 -0.5113 -1.0447
 6588TIP3   OH241398   5.601   1.871   1.993  0.1789  0.7982  0.0447
 6588TIP3    H141399   5.662   1.858   2.065  0.9377 -3.6917 -1.0931
 6588TIP3    H241400   5.515   1.878   2.035  0.4618 -2.7418  1.5449
 6589TIP3   OH241401   4.673   3.522   1.702  0.7599 -0.2135  0.0202
 6589TIP3    H141402   4.707   3.485   1.621  0.2237 -0.6797  0.0030
 6589TIP3    H241403   4.598   3.575   1.674 -1.8203 -3.3142  0.5008
 6590TIP3   OH241404   3.780   1.524   6.652  0.3624  0.2958  0.2216
 6590TIP3    H141405   3.836   1.587   6.697  0.3009  2.0484 -1.9393
 6590TIP3    H241406   3.828   1.501   6.572  0.2399 -2.2471  0.7882
 6591TIP3   OH241407   6.343   4.505   1.116 -0.0437 -0.2110  0.3761
 6591TIP3    H141408   6.400   4.557   1.174 -0.1243  0.0351  0.2370
 6591TIP3    H241409   6.375   4.415   1.125  0.6700 -0.0095 -0.0523
 6592TIP3   OH241410   2.706   1.365   7.781 -0.3155 -0.1135 -0.0695
 6592TIP3    H141411   2.754   1.286   7.755 -0.0075 -0.1526  0.5900
 6592TIP3    H241412   2.633   1.370   7.720  0.5633 -0.0187 -1.1308
 6593TIP3   OH241413   4.740   3.064   1.024  0.1236  0.2839 -0.1422
 6593TIP3    H141414   4.773   3.135   1.079 -2.0563  0.1163  1.5020
 6593TIP3    H241415   4.742   2.987   1.080 -1.7134  0.0017 -0.4055
 6594TIP3   OH241416   2.184   1.512   1.230  0.7578 -0.8280  0.0830
 6594TIP3    H141417   2.175   1.594   1.279  1.7079 -1.2560  1.0257
 6594TIP3    H241418   2.182   1.444   1.297 -0.5641 -1.6358 -0.7350
 6595TIP3   OH241419   1.489   6.441   1.170 -0.1353 -0.1362  0.8820
 6595TIP3    H141420   1.523   6.441   1.260  2.4871 -0.4604 -0.0102
 6595TIP3    H241421   1.538   6.510   1.126 -2.0159  0.6152 -0.1329
 6596TIP3   OH241422   3.594   4.047   0.707 -0.5018 -0.0791  0.1913
 6596TIP3    H141423   3.615   3.955   0.698 -0.7483 -0.0740 -0.5199
 6596TIP3    H241424   3.510   4.049   0.753  1.0119 -0.0952  3.2214
 6597TIP3   OH241425   0.196   4.974   6.232  0.4261 -0.2040 -0.3339
 6597TIP3    H141426   0.244   4.989   6.313 -1.6894  1.3895  0.7017
 6597TIP3    H241427   0.228   5.041   6.172 -0.7556  1.1622  0.5064
 6598TIP3   OH241428   4.670   1.059   7.213 -0.1775  0.2551 -0.1305
 6598TIP3    H141429   4.649   1.034   7.123  1.1765 -1.9837  0.1093
 6598TIP3    H241430   4.736   0.996   7.241 -0.6331  0.8281  2.4933
 6599TIP3   OH241431   4.524   5.350   8.018 -0.5555 -0.0061 -0.2897
 6599TIP3    H141432   4.615   5.324   8.029 -0.2799  0.4392 -1.4110
 6599TIP3    H241433   4.483   5.331   8.103  0.2322 -1.5476 -0.2334
 6600TIP3   OH241434   4.929   5.161   1.496 -0.4533  0.1991  1.1102
 6600TIP3    H141435   4.865   5.228   1.518  0.0553  1.1131 -0.0737
 6600TIP3    H241436   4.877   5.091   1.456 -0.9580 -0.0321  2.1341
 6601TIP3   OH241437   1.308   2.553   0.224  0.2244 -0.5702  0.2104
 6601TIP3    H141438   1.399   2.581   0.226  1.0602 -3.1099  0.5945
 6601TIP3    H241439   1.292   2.527   0.133  0.0464 -0.6017  0.2499
 6602TIP3   OH241440   3.543   1.390   6.714  0.0519 -0.5243  0.1975
 6602TIP3    H141441   3.608   1.460   6.724  0.0853 -0.3234 -1.2395
 6602TIP3    H241442   3.588   1.322   6.665 -0.4436 -0.9357  0.3008
 6603TIP3   OH241443   1.299   2.104   1.193  0.1805 -0.2560  0.2057
 6603TIP3    H141444   1.230   2.129   1.130  2.2973  0.8273 -1.8449
 6603TIP3    H241445   1.254   2.050   1.257 -2.1727 -1.4249 -2.2240
 6604TIP3   OH241446   4.062   0.600   6.389 -0.0159 -0.2980  0.0897
 6604TIP3    H141447   4.142   0.641   6.357 -0.4229  0.1200 -0.4124
 6604TIP3    H241448   4.007   0.673   6.417 -0.7822 -0.4881 -0.8943
 6605TIP3   OH241449   4.197   1.798   6.984 -0.6316 -0.3227 -0.3622
 6605TIP3    H141450   4.203   1.723   6.925 -0.0628  0.9407 -1.9791
 6605TIP3    H241451   4.259   1.862   6.949 -0.6426  0.6930  1.3323
 6606TIP3   OH241452   0.485   2.716   1.523  0.3596 -0.3488  0.4276
 6606TIP3    H141453   0.517   2.637   1.479  1.6622  0.3363  0.0868
 6606TIP3    H241454   0.550   2.733   1.591  0.9955  1.2989 -0.5248
 6607TIP3   OH241455   5.131   5.773   1.847 -0.3464 -0.9255  0.0948
 6607TIP3    H141456   5.070   5.837   1.886 -0.9117 -1.4885  0.1511
 6607TIP3    H241457   5.100   5.763   1.757  0.5328 -0.1585 -0.3107
 6608TIP3   OH241458   3.864   2.744   8.319  0.2201  0.0199  0.0674
 6608TIP3    H141459   3.796   2.694   8.275  0.6929 -0.1125 -0.5069
 6608TIP3    H241460   3.851   2.725   8.412 -0.5486  0.0233 -0.0327
 6609TIP3   OH241461   5.939   4.828   0.381  0.1445  0.5650 -0.3000
 6609TIP3    H141462   5.956   4.756   0.320 -1.0057  0.5772 -0.6649
 6609TIP3    H241463   5.973   4.797   0.465 -1.8325 -1.1753 -0.0462
 6610TIP3   OH241464   1.987   6.019   8.318  0.0808  0.3115  0.3978
 6610TIP3    H141465   1.982   5.970   8.237 -2.8159  2.5117 -0.9336
 6610TIP3    H241466   1.923   5.978   8.376  0.7441 -0.0571  0.8903
 6611TIP3   OH241467   0.239   5.951   0.022 -0.1571  0.0639  0.1599
 6611TIP3    H141468   0.276   6.030   0.061  0.7902 -0.3262  0.0825
 6611TIP3    H241469   0.303   5.924  -0.044  0.4321 -1.7098  1.3641
 6612TIP3   OH241470   1.480   3.409   7.994  0.7958 -0.0132 -0.4441
 6612TIP3    H141471   1.536   3.351   7.942  0.8403 -0.3255 -0.0536
 6612TIP3    H241472   1.496   3.496   7.959 -0.0077 -0.3515 -1.7018
 6613TIP3   OH241473   2.940   2.415   0.882  0.2527 -0.6911  0.2233
 6613TIP3    H141474   2.903   2.488   0.931  2.3975  0.9620 -0.4385
 6613TIP3    H241475   2.926   2.438   0.790 -2.9154 -3.3182 -0.1452
 6614TIP3   OH241476   0.159   6.040   1.398  0.5965 -0.2172 -0.0260
 6614TIP3    H141477   0.081   5.985   1.392 -1.9667  2.9264  1.5148
 6614TIP3    H241478   0.183   6.057   1.307 -0.1827 -1.6662 -0.5263
 6615TIP3   OH241479   2.642   5.726   1.225 -0.0918  0.0112 -0.0741
 6615TIP3    H141480   2.626   5.632   1.213  0.5074 -0.3280  1.4869
 6615TIP3    H241481   2.730   5.730   1.263 -0.0772  1.2182 -0.2179
 6616TIP3   OH241482   5.413   2.630   6.931 -0.3018  0.2641 -0.5563
 6616TIP3    H141483   5.419   2.573   6.854  1.2139  1.0376 -1.0590
 6616TIP3    H241484   5.328   2.673   6.922 -1.6184 -2.0792 -0.0054
 6617TIP3   OH241485   5.955   1.930   1.751 -0.0231 -0.2668  0.3095
 6617TIP3    H141486   6.018   1.949   1.682 -0.0362  0.8303  0.5777
 6617TIP3    H241487   6.004   1.878   1.815  0.4900  0.1666  0.2820
 6618TIP3   OH241488   1.971   3.263   6.791  0.0310  0.4806  0.0168
 6618TIP3    H141489   1.886   3.308   6.789  0.2723  0.9801  0.5691
 6618TIP3    H241490   2.020   3.310   6.858  0.4699 -0.3101  0.2531
 6619TIP3   OH241491   1.391   0.679   0.865 -0.0501 -0.1303  0.2380
 6619TIP3    H141492   1.304   0.662   0.901 -0.1228 -0.8628 -0.2600
 6619TIP3    H241493   1.408   0.771   0.885 -0.9465  0.0245  0.3282
 6620TIP3   OH241494   3.446   5.708   0.839  0.5132  0.4437  0.4431
 6620TIP3    H141495   3.428   5.729   0.747  0.0723 -0.1028  0.3960
 6620TIP3    H241496   3.517   5.766   0.864  0.8190  0.4122 -0.3287
 6621TIP3   OH241497   5.890   3.460   8.161  0.4159 -0.2870 -0.7672
 6621TIP3    H141498   5.866   3.509   8.240  1.1253 -1.4049  0.1782
 6621TIP3    H241499   5.808   3.428   8.126  0.0630  0.4952 -0.6768
 6622TIP3   OH241500   0.087   5.596   1.329  0.1884  0.1727 -0.2483
 6622TIP3    H141501   0.009   5.544   1.349  0.8251 -1.2387 -1.2088
 6622TIP3    H241502   0.148   5.576   1.400  1.1562 -2.0470 -1.5985
 6623TIP3   OH241503   1.596   3.581   8.377 -0.4221 -0.1127  0.1255
 6623TIP3    H141504   1.568   3.611   8.464 -0.6673  3.5513 -1.0551
 6623TIP3    H241505   1.520   3.535   8.342 -0.1504 -2.1108  1.9418
 6624TIP3   OH241506   1.350   3.194   1.431  0.2604  0.9463  0.1052
 6624TIP3    H141507   1.276   3.139   1.455 -0.2812  1.6240  0.0028
 6624TIP3    H241508   1.331   3.279   1.471  1.0328  1.0985  0.1685
 6625TIP3   OH241509   6.717   6.466   1.747  0.3514 -0.1854 -0.0995
 6625TIP3    H141510   6.706   6.400   1.816  0.6250 -0.2985 -0.1622
 6625TIP3    H241511   6.717   6.416   1.665 -1.3027  0.0818 -0.2796
 6626TIP3   OH241512   2.404   3.136   5.885 -0.4021 -0.0982 -0.1678
 6626TIP3    H141513   2.489   3.092   5.877 -1.4529 -1.9121 -3.3415
 6626TIP3    H241514   2.346   3.069   5.921 -1.3642 -0.4393 -2.1942
 6627TIP3   OH241515   5.490   4.328   8.461 -0.4034 -0.6328 -0.0403
 6627TIP3    H141516   5.515   4.239   8.485  0.0945 -0.4064  0.2927
 6627TIP3    H241517   5.555   4.384   8.504 -0.7205 -0.1081 -0.2322
 6628TIP3   OH241518   2.573   0.660   1.224  0.0525 -0.5525 -0.5453
 6628TIP3    H141519   2.602   0.585   1.173  0.2339 -0.7806 -0.1009
 6628TIP3    H241520   2.477   0.651   1.227 -0.5854  1.8787 -4.7448
 6629TIP3   OH241521   2.317   3.074   8.412 -0.3486  0.0439 -0.2077
 6629TIP3    H141522   2.287   3.060   8.501 -0.5786  2.2139  0.1009
 6629TIP3    H241523   2.244   3.117   8.368 -0.2754 -1.0913 -1.4859
 6630TIP3   OH241524   4.381   3.311   0.185 -0.7335 -0.2719  0.0163
 6630TIP3    H141525   4.399   3.302   0.091 -1.3194  0.4939 -0.1812
 6630TIP3    H241526   4.467   3.310   0.226 -0.4028  0.3758 -0.6302
 6631TIP3   OH241527   5.995   2.713   1.215  0.2880  0.6873 -0.3986
 6631TIP3    H141528   6.005   2.648   1.145 -0.2380  1.8857 -1.6370
 6631TIP3    H241529   6.075   2.766   1.209  0.0015  1.1179 -0.4471
 6632TIP3   OH241530   3.985   0.349   6.481  0.1441  0.7102 -0.3547
 6632TIP3    H141531   4.014   0.433   6.447 -0.6102  0.7834 -0.8332
 6632TIP3    H241532   3.903   0.367   6.526 -0.5186  0.1098 -1.2574
 6633TIP3   OH241533   3.170   4.645   2.376 -0.0431 -0.3568 -0.4366
 6633TIP3    H141534   3.080   4.676   2.365 -0.2447 -0.3616  1.0851
 6633TIP3    H241535   3.166   4.552   2.352 -1.1819 -1.2127  2.6771
 6634TIP3   OH241536   2.668   3.049   1.222  0.5848  0.5022 -0.1931
 6634TIP3    H141537   2.695   3.049   1.314 -1.4761 -0.4040  0.4801
 6634TIP3    H241538   2.748   3.034   1.173  1.8332  1.6499  1.4123
 6635TIP3   OH241539   1.790   0.673   7.838  0.5298  0.1543 -0.0681
 6635TIP3    H141540   1.701   0.662   7.872 -0.1656  0.2691 -1.7209
 6635TIP3    H241541   1.792   0.618   7.759  2.0610 -0.1436  0.1581
 6636TIP3   OH241542   6.419   0.957   1.653 -0.0596 -0.0746 -0.0177
 6636TIP3    H141543   6.407   1.052   1.646 -0.4756 -0.2213 -1.7719
 6636TIP3    H241544   6.417   0.940   1.748 -0.6299  1.5807  0.3119
 6637TIP3   OH241545   2.681   6.285   0.860  0.2160 -0.4090 -0.0911
 6637TIP3    H141546   2.730   6.203   0.856  2.9105  0.9384  1.9447
 6637TIP3    H241547   2.657   6.294   0.953 -0.6050  0.8221 -0.4011
 6638TIP3   OH241548   2.508   0.867   7.312 -0.3959  0.2189  0.1550
 6638TIP3    H141549   2.562   0.812   7.368  0.4019  2.3671  1.6421
 6638TIP3    H241550   2.570   0.901   7.246 -0.1774  1.5664  1.0098
 6639TIP3   OH241551   1.752   6.451   1.306 -0.7499 -0.3821 -0.2375
 6639TIP3    H141552   1.691   6.475   1.376 -1.0500 -3.9665  0.9065
 6639TIP3    H241553   1.834   6.432   1.351  0.5734  1.8200 -1.4981
 6640TIP3   OH241554   1.979   1.777   6.352  0.1729  0.6097  0.6713
 6640TIP3    H141555   1.892   1.773   6.393  0.1212  1.1909  0.6280
 6640TIP3    H241556   1.964   1.755   6.260  0.1890 -0.0400  0.8205
 6641TIP3   OH241557   3.582   4.512   7.666  0.2804 -0.1453 -0.0374
 6641TIP3    H141558   3.564   4.434   7.613  1.1833 -0.8165  0.6227
 6641TIP3    H241559   3.675   4.506   7.687  0.3312  1.0529  0.1377
 6642TIP3   OH241560   0.885   0.971   7.468  0.1065 -0.4063 -0.0399
 6642TIP3    H141561   0.880   1.007   7.556 -0.4365 -0.9447  0.1589
 6642TIP3    H241562   0.912   0.880   7.481  1.3335 -0.1391 -0.5211
 6643TIP3   OH241563   0.436   5.467   8.474  0.3527  0.2975  0.5979
 6643TIP3    H141564   0.370   5.398   8.474  0.0517  0.5336 -1.4770
 6643TIP3    H241565   0.454   5.483   8.567 -1.3603 -0.8533  1.1705
 6644TIP3   OH241566   6.573   4.733   8.344 -0.5284  0.1213 -0.0359
 6644TIP3    H141567   6.577   4.707   8.436  0.0347  1.1873  0.2505
 6644TIP3    H241568   6.662   4.762   8.323 -0.8715  0.7561 -0.6502
 6645TIP3   OH241569   3.321   6.202   0.975 -0.5037 -0.7941  0.0863
 6645TIP3    H141570   3.245   6.258   0.958 -0.0738 -0.0285  0.6546
 6645TIP3    H241571   3.383   6.223   0.905  0.1790  0.3971  1.0275
 6646TIP3   OH241572   0.704   3.627   6.467 -0.1725 -0.4410 -0.4032
 6646TIP3    H141573   0.672   3.539   6.487  2.0076 -1.0861  0.6150
 6646TIP3    H241574   0.795   3.614   6.442 -0.6286  1.2443 -3.3863
 6647TIP3   OH241575   1.824   2.481   7.522 -0.0540  0.1880 -0.3116
 6647TIP3    H141576   1.888   2.456   7.455 -2.2887 -2.2667 -1.7074
 6647TIP3    H241577   1.756   2.528   7.475 -1.0636 -0.4774  0.4504
 6648TIP3   OH241578   0.720   2.531   6.629 -0.3791  0.2202 -0.5280
 6648TIP3    H141579   0.808   2.526   6.667 -0.4016  1.3975 -0.2982
 6648TIP3    H241580   0.673   2.591   6.687 -2.0050 -2.0282  0.6234
 6649TIP3   OH241581   4.209   4.596   8.212 -0.2348 -0.2442 -0.4997
 6649TIP3    H141582   4.123   4.561   8.189  0.3536 -0.7086 -2.1750
 6649TIP3    H241583   4.190   4.681   8.251 -1.4978 -0.8085  0.1706
 6650TIP3   OH241584   0.918   5.996   6.637  0.0871  0.4567  0.0104
 6650TIP3    H141585   0.871   6.034   6.562  0.6153  0.1821 -0.4656
 6650TIP3    H241586   0.874   5.912   6.651 -1.7197  1.5844  1.6755
 6651TIP3   OH241587   2.930   4.482   1.517 -0.5828 -0.0386  0.6668
 6651TIP3    H141588   2.902   4.567   1.484  0.1229 -0.2782 -0.6233
 6651TIP3    H241589   3.026   4.488   1.519 -0.5637 -0.5264  1.3328
 6652TIP3   OH241590   4.803   6.786   7.555 -0.5492  0.2791  0.8491
 6652TIP3    H141591   4.779   6.741   7.636 -2.4058  1.1917  0.8538
 6652TIP3    H241592   4.852   6.863   7.584  1.2097 -0.8095  0.9180
 6653TIP3   OH241593   2.910   2.618   1.293  0.5712  0.1152 -0.1759
 6653TIP3    H141594   2.822   2.632   1.327 -0.7168 -2.8341 -1.8677
 6653TIP3    H241595   2.958   2.579   1.366 -0.2948 -0.5251  0.0730
 6654TIP3   OH241596   5.435   2.199   7.316 -0.1147  0.1887  0.0239
 6654TIP3    H141597   5.394   2.229   7.234  0.1949  0.5434 -0.0022
 6654TIP3    H241598   5.484   2.275   7.347 -0.1430  0.0174  0.4839
 6655TIP3   OH241599   1.285   1.956   6.504 -0.0080  0.2435  0.3081
 6655TIP3    H141600   1.268   1.893   6.433  0.4998 -1.0210  1.2705
 6655TIP3    H241601   1.236   2.034   6.478  0.2160 -0.1497 -1.4711
 6656TIP3   OH241602   4.095   6.350   8.173 -0.1492 -0.6637 -0.2840
 6656TIP3    H141603   4.083   6.443   8.153  0.3161 -0.6486 -0.4927
 6656TIP3    H241604   4.145   6.316   8.099  0.1434 -0.9704  0.0559
 6657TIP3   OH241605   5.941   6.387   0.913  0.1102  0.1609 -0.2857
 6657TIP3    H141606   5.868   6.427   0.960  0.7244  0.6364  0.2884
 6657TIP3    H241607   5.991   6.341   0.981  0.7872  0.5149 -0.5359
 6658TIP3   OH241608   3.362   5.441   1.508 -0.2375  0.0009 -0.3220
 6658TIP3    H141609   3.426   5.482   1.565 -1.7557  0.8701  0.8478
 6658TIP3    H241610   3.295   5.508   1.495 -0.6305 -0.6738 -1.9655
 6659TIP3   OH241611   1.647   6.623   1.734  0.0917  0.0580 -0.4213
 6659TIP3    H141612   1.604   6.547   1.696  0.1167 -0.9906  1.4928
 6659TIP3    H241613   1.577   6.671   1.777  0.2096  0.6681 -0.8966
 6660TIP3   OH241614   3.163   3.623   1.707 -0.4227  0.1131 -0.1641
 6660TIP3    H141615   3.221   3.692   1.676  0.3905  0.3224  1.7008
 6660TIP3    H241616   3.186   3.547   1.655  0.7770  0.4818 -0.1996
 6661TIP3   OH241617   2.653   6.099   7.791  0.0540 -0.4406  0.0716
 6661TIP3    H141618   2.606   6.104   7.708 -1.6069  0.8654  1.0148
 6661TIP3    H241619   2.674   6.007   7.802 -1.0229 -0.8464 -1.0867
 6662TIP3   OH241620   2.157   4.117   1.085 -0.3217 -0.3732 -0.2987
 6662TIP3    H141621   2.147   4.078   1.172  1.3275 -0.7785 -0.2581
 6662TIP3    H241622   2.183   4.208   1.103 -0.7823 -0.2230 -0.3803
 6663TIP3   OH241623   6.223   0.348   7.288  0.1854 -0.4543  0.4243
 6663TIP3    H141624   6.247   0.366   7.379  1.6173  1.3473 -0.2643
 6663TIP3    H241625   6.306   0.340   7.243 -0.5028  0.7916 -1.1243
 6664TIP3   OH241626   3.802   1.324   0.453 -0.1781  0.8224 -1.1064
 6664TIP3    H141627   3.850   1.360   0.528 -2.1951  0.5477  0.3925
 6664TIP3    H241628   3.788   1.400   0.396  0.2382  1.3170 -0.5701
 6665TIP3   OH241629   0.901   0.288   0.691 -0.3494  0.3458 -0.4936
 6665TIP3    H141630   0.834   0.244   0.744  0.5473 -1.1468 -0.5433
 6665TIP3    H241631   0.941   0.352   0.750 -0.9927  0.3913 -0.1043
 6666TIP3   OH241632   4.436   6.351   0.292 -0.2182 -0.2436 -0.5777
 6666TIP3    H141633   4.412   6.440   0.319  1.8531  0.6205 -1.3554
 6666TIP3    H241634   4.493   6.320   0.362 -2.9491 -2.0520  0.9913
 6667TIP3   OH241635   1.436   3.695   0.933  0.4917  0.0292  0.4669
 6667TIP3    H141636   1.491   3.629   0.890  0.9731  0.9863 -0.4258
 6667TIP3    H241637   1.497   3.763   0.960 -0.2191  1.1110 -0.5508
 6668TIP3   OH241638   1.461   1.214   6.558 -0.1234  0.9496 -0.6510
 6668TIP3    H141639   1.519   1.138   6.567 -0.6722  0.5458 -0.4193
 6668TIP3    H241640   1.388   1.195   6.617 -0.7770  1.1641 -1.3723
 6669TIP3   OH241641   2.388   5.269   1.134  0.6960  0.8056 -0.6687
 6669TIP3    H141642   2.431   5.199   1.183 -1.4277  0.9046  1.5298
 6669TIP3    H241643   2.426   5.264   1.046  2.9678 -0.9436  0.3105
 6670TIP3   OH241644   5.904   2.851   7.346  0.5290 -0.0208  0.3094
 6670TIP3    H141645   5.916   2.903   7.266  4.7392  0.1425  0.8575
 6670TIP3    H241646   5.838   2.900   7.396 -1.0607  0.7108 -2.3154
 6671TIP3   OH241647   3.219   6.142   0.373  0.1060  0.0773 -0.0330
 6671TIP3    H141648   3.179   6.227   0.394 -2.7076 -0.6761 -1.8020
 6671TIP3    H241649   3.264   6.156   0.290  0.0432 -0.0547 -0.0897
 6672TIP3   OH241650   1.369   6.682   7.657 -0.1366 -0.3713  0.3960
 6672TIP3    H141651   1.389   6.659   7.567  2.2917  0.2478  0.7231
 6672TIP3    H241652   1.361   6.777   7.657  0.0179 -0.3543  0.8566
 6673TIP3   OH241653   1.070   3.261   0.872  0.6474  0.0121 -0.0460
 6673TIP3    H141654   1.033   3.175   0.891  0.0196  0.2548 -0.1537
 6673TIP3    H241655   1.101   3.293   0.956 -0.1972  0.1841  0.2052
 6674TIP3   OH241656   1.304   5.633   6.907 -0.0104 -0.3227  0.1487
 6674TIP3    H141657   1.395   5.603   6.910 -0.2738 -1.2356 -0.4327
 6674TIP3    H241658   1.287   5.647   6.814 -0.3920  0.1170  0.2782
 6675TIP3   OH241659   1.020   6.815   7.645  0.1741 -0.3733  0.0817
 6675TIP3    H141660   1.036   6.780   7.732 -0.6505  0.0032  0.3976
 6675TIP3    H241661   1.018   6.910   7.657  1.9847 -0.2026 -0.6936
 6676TIP3   OH241662   3.172   4.952   1.120  0.2364 -0.7144 -0.1591
 6676TIP3    H141663   3.222   4.990   1.193 -2.7561  2.5835  0.4192
 6676TIP3    H241664   3.203   5.000   1.043 -1.4120  0.8603  0.1032
 6677TIP3   OH241665   3.907   0.630   0.912  0.0944  0.1340 -0.4255
 6677TIP3    H141666   3.978   0.574   0.945 -0.2389  0.2157  0.4517
 6677TIP3    H241667   3.941   0.719   0.919 -0.0959  0.1733 -0.0029
 6678TIP3   OH241668   2.669   4.001   8.365  0.2559  0.3287 -0.0106
 6678TIP3    H141669   2.683   3.909   8.390 -1.7168  0.2042  0.9211
 6678TIP3    H241670   2.712   4.051   8.434 -0.1350  0.0426  0.4587
 6679TIP3   OH241671   2.433   0.260   7.300 -0.1948 -0.0018  0.2696
 6679TIP3    H141672   2.469   0.175   7.276  1.2412  0.7439 -0.3151
 6679TIP3    H241673   2.481   0.285   7.379  0.7031  1.0687 -0.5891
 6680TIP3   OH241674   2.465   4.819   1.074 -0.5163  0.3584 -0.1940
 6680TIP3    H141675   2.395   4.826   1.009  0.0381  0.1245 -0.8260
 6680TIP3    H241676   2.545   4.840   1.026  0.0113 -0.6998  0.2016
 6681TIP3   OH241677   1.104   4.467   0.262  0.0200 -0.0942 -0.5190
 6681TIP3    H141678   1.050   4.539   0.294 -1.0722 -1.6246  1.2428
 6681TIP3    H241679   1.194   4.495   0.278 -0.4234  0.3307  1.4299
 6682TIP3   OH241680   1.712   1.344   1.481 -0.3681 -0.4786 -0.0124
 6682TIP3    H141681   1.628   1.374   1.516  0.7237  0.8808  1.5941
 6682TIP3    H241682   1.709   1.366   1.388 -1.9632 -0.9210 -0.1069
 6683TIP3   OH241683   3.177   1.509   2.038  0.0126 -0.2656  0.0467
 6683TIP3    H141684   3.196   1.437   1.978  1.5725  0.8199 -0.8380
 6683TIP3    H241685   3.255   1.513   2.094  1.0595  2.1682 -1.4390
 6684TIP3   OH241686   3.550   0.952   1.702  0.2617  0.6477 -0.0746
 6684TIP3    H141687   3.529   0.883   1.764  1.6482 -0.0014 -0.2842
 6684TIP3    H241688   3.488   0.940   1.630 -1.6051  1.6419  1.2985
 6685TIP3   OH241689   2.814   4.434   0.026  0.5258 -0.2790  0.0450
 6685TIP3    H141690   2.762   4.507  -0.008  0.3779 -0.1614  0.5269
 6685TIP3    H241691   2.759   4.357   0.012  0.6785 -0.3001 -0.4562
 6686TIP3   OH241692   1.648   0.039   2.161 -0.0875 -0.0342  0.0161
 6686TIP3    H141693   1.580  -0.025   2.143  0.0522 -0.0049 -0.6518
 6686TIP3    H241694   1.716  -0.010   2.206 -0.2037 -0.2432 -0.0329
 6687TIP3   OH241695   2.444   3.485   2.247 -0.2150  0.5089  0.5620
 6687TIP3    H141696   2.378   3.417   2.233 -1.0749  1.6869 -1.7500
 6687TIP3    H241697   2.527   3.441   2.231 -0.6232 -0.3802  0.8093
 6688TIP3   OH241698   6.894   0.443   0.166  0.4583  0.1403 -0.1453
 6688TIP3    H141699   6.801   0.432   0.187  0.3719 -1.1868 -1.1336
 6688TIP3    H241700   6.896   0.521   0.109  0.2127  1.2865  1.3386
 6689TIP3   OH241701   0.229   2.727   2.169  0.3605 -0.1873  0.0054
 6689TIP3    H141702   0.178   2.705   2.091 -1.2516 -0.5287  1.0977
 6689TIP3    H241703   0.167   2.775   2.225  1.1380 -0.8981  1.5370
 6690TIP3   OH241704   1.862   2.140   7.226  0.8355  0.1140  0.1907
 6690TIP3    H141705   1.934   2.196   7.254 -0.2285  0.9896  1.3267
 6690TIP3    H241706   1.881   2.120   7.135  1.7636  1.5470  0.0304
 6691TIP3   OH241707   0.501   3.893   0.369 -0.4932  0.4222 -0.3576
 6691TIP3    H141708   0.554   3.931   0.439  0.3009 -0.4221 -0.4851
 6691TIP3    H241709   0.481   3.805   0.398 -2.7722  1.0580  0.1683
 6692TIP3   OH241710   5.161   3.262   2.308 -0.1616 -0.0976 -0.3637
 6692TIP3    H141711   5.201   3.244   2.394  3.6357  1.2927 -1.6454
 6692TIP3    H241712   5.195   3.193   2.251 -0.5904  0.4652 -1.3177
 6693TIP3   OH241713   6.754   1.910   7.795 -0.7813 -0.7961 -0.0668
 6693TIP3    H141714   6.674   1.950   7.829  0.4215 -0.2724  2.4218
 6693TIP3    H241715   6.798   1.877   7.873  2.4581  0.8992 -1.0140
 6694TIP3   OH241716   4.084   1.600   8.055 -0.4662  0.6088  0.1614
 6694TIP3    H141717   4.173   1.567   8.062 -1.0758 -1.4469 -1.0392
 6694TIP3    H241718   4.094   1.687   8.015  1.0244  0.7025  0.6855
 6695TIP3   OH241719   0.893   6.451   0.926 -0.0755 -0.1990 -0.4601
 6695TIP3    H141720   0.861   6.402   1.002 -1.1789  0.1629 -0.6822
 6695TIP3    H241721   0.880   6.391   0.852  1.3173 -0.6856 -0.3411
 6696TIP3   OH241722   1.037   0.720   1.343  0.3607  0.4049  0.4945
 6696TIP3    H141723   1.071   0.786   1.282  0.2089  1.1211  1.1729
 6696TIP3    H241724   1.107   0.656   1.350  1.4250  1.6323  1.5352
 6697TIP3   OH241725   1.239   0.554   1.981  0.0184  0.1835 -0.0341
 6697TIP3    H141726   1.312   0.592   2.030  0.2710  1.4610 -1.3317
 6697TIP3    H241727   1.274   0.474   1.942  0.9348  1.0859 -1.1253
 6698TIP3   OH241728   3.756   5.775   0.860 -0.0565  0.3223 -0.5313
 6698TIP3    H141729   3.845   5.768   0.896 -0.7424 -2.4867  0.8925
 6698TIP3    H241730   3.770   5.797   0.768  2.2524 -1.8381 -0.8072
 6699TIP3   OH241731   3.309   6.857   0.026  0.9059  0.2979  0.1240
 6699TIP3    H141732   3.366   6.815   0.090  2.0374  0.2748 -0.8588
 6699TIP3    H241733   3.255   6.785  -0.008  0.7233  0.2034  0.6074
 6700TIP3   OH241734   2.727   0.411   8.058  0.0186  0.1735  0.6386
 6700TIP3    H141735   2.637   0.443   8.059 -0.3346 -0.7254 -0.1634
 6700TIP3    H241736   2.721   0.325   8.017  1.4186  0.6818 -0.7446
 6701TIP3   OH241737   6.837   6.918   8.090 -0.5221 -0.1033  0.3705
 6701TIP3    H141738   6.885   6.874   8.019  1.9274  4.4259 -1.2094
 6701TIP3    H241739   6.890   6.904   8.168  0.4419  0.2986 -0.1931
 6702TIP3   OH241740   4.192   6.457   0.065  0.1380 -0.1641  0.1232
 6702TIP3    H141741   4.286   6.474   0.067  0.2180 -0.4395 -0.9114
 6702TIP3    H241742   4.185   6.362   0.077  0.0345 -0.2380 -0.4930
 6703TIP3   OH241743   5.937   5.182   6.315  0.2109  0.1540  0.8152
 6703TIP3    H141744   6.013   5.236   6.340  0.6040  0.1265 -0.2844
 6703TIP3    H241745   5.958   5.096   6.350  1.0168 -0.0211 -0.0531
 6704TIP3   OH241746   2.002   0.213   6.649  0.0179  0.6497 -0.1348
 6704TIP3    H141747   1.995   0.206   6.744 -2.0782  1.5252 -0.1646
 6704TIP3    H241748   2.093   0.236   6.633  0.0429  2.1426  1.7916
 6705TIP3   OH241749   5.563   1.589   1.861  0.2118 -0.0259 -0.3217
 6705TIP3    H141750   5.565   1.641   1.942  1.1495 -0.5813  0.0230
 6705TIP3    H241751   5.650   1.551   1.854 -0.6366 -2.2151 -0.1183
 6706TIP3   OH241752   1.191   1.989   8.239  0.2120 -0.3683 -0.4666
 6706TIP3    H141753   1.096   1.999   8.236  0.0817 -1.4094 -0.1793
 6706TIP3    H241754   1.219   1.998   8.149  0.0165  1.4463 -0.3747
 6707TIP3   OH241755   3.303   4.887   0.751  0.2717 -0.2366  0.4308
 6707TIP3    H141756   3.326   4.811   0.698 -0.9229 -0.6030  0.4073
 6707TIP3    H241757   3.382   4.907   0.800  0.3483 -2.0527  1.1098
 6708TIP3   OH241758   1.313   0.790   6.914  0.0978  0.1759  0.0683
 6708TIP3    H141759   1.358   0.786   6.830  1.3303  1.3689  0.6387
 6708TIP3    H241760   1.223   0.812   6.893  0.3136  0.1052 -0.9562
 6709TIP3   OH241761   0.489   5.878   2.614  0.1759  0.2744 -0.6588
 6709TIP3    H141762   0.468   5.927   2.694 -0.5010 -0.0889 -0.6063
 6709TIP3    H241763   0.562   5.926   2.575  0.6445  0.3467  0.2739
 6710TIP3   OH241764   2.337   3.693   0.966 -0.8075 -0.3199 -0.0907
 6710TIP3    H141765   2.416   3.640   0.965 -0.6529 -0.0963  0.1440
 6710TIP3    H241766   2.282   3.656   0.897 -1.5768 -2.0971  1.3951
 6711TIP3   OH241767   2.742   1.117   0.243 -0.1615  0.1172 -0.6869
 6711TIP3    H141768   2.770   1.124   0.151 -1.7497 -2.5874 -1.5140
 6711TIP3    H241769   2.782   1.036   0.273 -0.5356  0.4297  0.6903
 6712TIP3   OH241770   2.189   1.561   8.101  0.3771  0.0399 -0.0502
 6712TIP3    H141771   2.135   1.486   8.125  1.8325 -0.6366  1.3160
 6712TIP3    H241772   2.127   1.628   8.075 -1.0507 -1.0629  0.3860
 6713TIP3   OH241773   4.582   3.153   8.084 -0.0628  0.1534 -0.3270
 6713TIP3    H141774   4.654   3.127   8.028  0.2812  0.9119 -0.2463
 6713TIP3    H241775   4.622   3.171   8.169 -0.6528 -1.5671  0.3609
 6714TIP3   OH241776   1.355   6.983   7.951  0.1789  0.1108 -0.1141
 6714TIP3    H141777   1.322   6.896   7.974  2.9564 -1.4925 -1.6726
 6714TIP3    H241778   1.364   7.028   8.034 -0.7254 -1.3113  0.7998
 6715TIP3   OH241779   4.221   6.665   8.124 -0.1438  0.6064  0.8290
 6715TIP3    H141780   4.129   6.674   8.150 -0.1898  0.7442  0.6170
 6715TIP3    H241781   4.270   6.701   8.198 -0.3320  3.1037 -0.1799
 6716TIP3   OH241782   3.467   4.392   1.615  0.2078  0.0239  0.4020
 6716TIP3    H141783   3.554   4.370   1.584 -0.0872 -0.8963  0.1988
 6716TIP3    H241784   3.476   4.480   1.652  1.7447 -0.8885  2.4203
 6717TIP3   OH241785   5.231   6.050   0.424 -0.0835 -0.5258  0.5555
 6717TIP3    H141786   5.204   6.138   0.396  2.5222  0.0450 -0.5363
 6717TIP3    H241787   5.243   6.058   0.519 -0.4089  0.1547  0.5476
 6718TIP3   OH241788   3.980   6.249   1.753  0.3893 -0.2093 -0.6173
 6718TIP3    H141789   3.942   6.336   1.742  0.8967 -0.0928 -1.5607
 6718TIP3    H241790   3.981   6.212   1.665 -0.6343 -1.5376 -0.1194
 6719TIP3   OH241791   1.516   5.845   1.367  0.7138  0.4219  0.1754
 6719TIP3    H141792   1.574   5.889   1.430  1.4002  0.0205 -0.1614
 6719TIP3    H241793   1.545   5.753   1.369  1.5229  0.5972 -1.5426
 6720TIP3   OH241794   3.505   5.444   0.804 -0.0873 -0.4230 -0.1654
 6720TIP3    H141795   3.461   5.529   0.809 -0.2007 -0.4959  0.0692
 6720TIP3    H241796   3.487   5.413   0.715  1.3117  0.5326 -0.8142
 6721TIP3   OH241797   5.390   1.228   7.911 -0.0287 -0.0522  0.0429
 6721TIP3    H141798   5.400   1.278   7.830  1.8041  0.9661  0.8413
 6721TIP3    H241799   5.435   1.146   7.894 -1.1953 -0.6010 -0.5395
 6722TIP3   OH241800   0.776   1.470   1.608  0.0794 -0.0439 -0.3089
 6722TIP3    H141801   0.754   1.510   1.692 -0.1576 -1.0399  0.1055
 6722TIP3    H241802   0.870   1.455   1.613 -0.3358 -2.8292  1.0175
 6723TIP3   OH241803   5.315   4.131   7.908 -0.0091 -0.3742  0.3937
 6723TIP3    H141804   5.352   4.096   7.827 -0.6693  0.3553 -0.2267
 6723TIP3    H241805   5.221   4.134   7.893 -0.0395  0.8940  0.7305
 6724TIP3   OH241806   5.886   6.605   8.232 -0.0104 -0.0116  0.0402
 6724TIP3    H141807   5.868   6.601   8.138 -0.1647 -1.2392  0.1021
 6724TIP3    H241808   5.930   6.522   8.251  1.3501  0.8417  0.7914
 6725TIP3   OH241809   1.002   4.405   7.464 -0.2174  0.3267  0.4965
 6725TIP3    H141810   1.075   4.364   7.418  0.7673  2.6863 -0.2262
 6725TIP3    H241811   1.043   4.450   7.538 -0.3389  4.0980 -1.5058
 6726TIP3   OH241812   4.240   0.135   0.881  0.6246  0.0480 -0.1145
 6726TIP3    H141813   4.187   0.090   0.815  0.7019 -0.4126  0.1378
 6726TIP3    H241814   4.318   0.163   0.833 -0.6699  2.4742 -0.9900
 6727TIP3   OH241815   0.287   4.113   8.386 -0.1126  0.1519  0.7078
 6727TIP3    H141816   0.335   4.176   8.332  2.5341 -0.9621  1.6367
 6727TIP3    H241817   0.196   4.144   8.382  0.5124  2.0141 -1.6252
 6728TIP3   OH241818   0.104   5.397   1.885 -0.3184  0.2271  0.3543
 6728TIP3    H141819   0.158   5.389   1.964 -0.5210 -0.8543  0.3954
 6728TIP3    H241820   0.016   5.370   1.913 -0.5689  0.6060 -0.0523
 6729TIP3   OH241821   0.127   1.575   2.015 -0.1493  0.1901  0.1353
 6729TIP3    H141822   0.125   1.588   2.110  1.4920 -1.6815  0.4770
 6729TIP3    H241823   0.188   1.641   1.983 -0.5052  0.6528  0.3864
 6730TIP3   OH241824   3.877   6.239   1.396 -0.0672 -0.0141 -0.0905
 6730TIP3    H141825   3.887   6.184   1.319 -0.4483  1.7493 -1.4679
 6730TIP3    H241826   3.783   6.247   1.408 -0.0103 -0.1782  0.4990
 6731TIP3   OH241827   4.153   5.462   1.765  0.6574 -0.1774 -0.1433
 6731TIP3    H141828   4.110   5.436   1.847  1.9594  0.1283  0.6801
 6731TIP3    H241829   4.085   5.506   1.714  0.1527  0.9619  1.4264
 6732TIP3   OH241830   1.513   2.657   6.522  0.3161 -0.3675  0.4629
 6732TIP3    H141831   1.600   2.682   6.494 -0.7815  3.9050  0.1920
 6732TIP3    H241832   1.454   2.700   6.460 -2.0316 -1.1644  1.9765
 6733TIP3   OH241833   2.561   3.086   1.638  0.3489 -0.2691  0.2704
 6733TIP3    H141834   2.481   3.035   1.620  0.4585 -0.8956  1.4138
 6733TIP3    H241835   2.632   3.031   1.605  0.2702  1.1272 -2.5168
 6734TIP3   OH241836   1.678   1.096   1.282  0.1332  0.5228  0.5458
 6734TIP3    H141837   1.738   1.156   1.325 -1.0311  1.9352  0.2881
 6734TIP3    H241838   1.606   1.084   1.345 -0.2491  0.3959  0.0933
 6735TIP3   OH241839   4.240   5.941   7.989  0.1865  0.3391 -0.2307
 6735TIP3    H141840   4.276   5.949   8.077 -0.5296  1.5390 -0.0248
 6735TIP3    H241841   4.170   5.876   7.998  0.1471  0.4217  0.0842
 6736TIP3   OH241842   5.329   6.789   0.071  0.0543  0.4800  0.2686
 6736TIP3    H141843   5.286   6.715   0.027 -0.5873  0.8763  0.2309
 6736TIP3    H241844   5.417   6.790   0.033 -0.5662  0.9727 -1.2185
 6737TIP3   OH241845   6.834   0.635   6.935  0.2447 -0.0322 -0.3175
 6737TIP3    H141846   6.819   0.649   6.842 -2.6653 -2.5011 -0.3672
 6737TIP3    H241847   6.918   0.589   6.939  0.4011  0.1036 -1.7060
 6738TIP3   OH241848   6.265   0.873   0.912 -0.2519 -0.0207  0.6810
 6738TIP3    H141849   6.189   0.862   0.854 -0.0136  0.6443  0.2186
 6738TIP3    H241850   6.237   0.939   0.976  0.7345  2.2515 -1.0510
 6739TIP3   OH241851   4.120   6.723   1.189  0.6215  0.3185 -0.0564
 6739TIP3    H141852   4.205   6.762   1.169  0.1052  2.0126  0.8470
 6739TIP3    H241853   4.141   6.648   1.245  1.5268  0.9174  0.4371
 6740TIP3   OH241854   1.409   5.701   2.531  0.1215 -0.5142 -0.4001
 6740TIP3    H141855   1.375   5.622   2.574  0.0592 -0.1177  0.3101
 6740TIP3    H241856   1.363   5.705   2.447 -0.3208 -0.9136 -0.1819
 6741TIP3   OH241857   4.165   1.517   2.275 -0.5986 -0.2964  0.0638
 6741TIP3    H141858   4.236   1.581   2.264  0.2682 -1.2980 -0.3135
 6741TIP3    H241859   4.175   1.486   2.365 -1.1658  0.2534  0.3237
 6742TIP3   OH241860   4.494   2.397   7.764 -0.0481 -0.4418  0.3261
 6742TIP3    H141861   4.479   2.396   7.669 -1.5181 -1.9962  0.5463
 6742TIP3    H241862   4.468   2.485   7.791  1.6056  0.4796 -0.8439
 6743TIP3   OH241863   1.254   3.544   1.099 -0.2126  0.1794 -0.1686
 6743TIP3    H141864   1.295   3.555   1.185 -0.4076  0.9462 -0.1591
 6743TIP3    H241865   1.311   3.592   1.039  1.2319 -2.3048 -0.9095
 6744TIP3   OH241866   0.609   6.340   2.100 -0.0772 -0.2000 -0.8438
 6744TIP3    H141867   0.700   6.323   2.075  0.2933 -1.1116  0.9599
 6744TIP3    H241868   0.571   6.253   2.114 -0.3926  0.2101  1.1281
 6745TIP3   OH241869   3.488   2.694   1.316  0.5942 -0.4277  0.4592
 6745TIP3    H141870   3.423   2.627   1.335 -0.0853 -0.5256 -1.8599
 6745TIP3    H241871   3.572   2.652   1.333  0.1088 -0.8023  2.0436
 6746TIP3   OH241872   6.187   1.638   7.719  0.7401 -0.1819  0.2368
 6746TIP3    H141873   6.221   1.600   7.800  2.7222 -0.7225 -0.7922
 6746TIP3    H241874   6.231   1.590   7.649 -1.5739 -0.3291 -1.2234
 6747TIP3   OH241875   5.810   1.904   0.661 -0.9842  0.5308 -0.4673
 6747TIP3    H141876   5.844   1.982   0.615 -0.4795  0.1197 -0.8023
 6747TIP3    H241877   5.803   1.931   0.752 -0.1377  0.7577 -0.4614
 6748TIP3   OH241878   0.886   1.320   2.554  0.2703  0.1919 -0.5891
 6748TIP3    H141879   0.816   1.265   2.589 -0.1709  1.8561  1.3516
 6748TIP3    H241880   0.966   1.267   2.564 -0.3347 -0.6576 -0.1631
 6749TIP3   OH241881   2.950   0.293   0.492  0.1085  0.4267 -0.1795
 6749TIP3    H141882   2.953   0.310   0.398 -4.5605  2.8278 -0.1569
 6749TIP3    H241883   3.020   0.348   0.528  1.0528  0.5544 -2.0748
 6750TIP3   OH241884   0.138   4.316   7.447  0.1501 -0.0892 -0.4667
 6750TIP3    H141885   0.085   4.383   7.489 -0.8204 -1.2599  0.2479
 6750TIP3    H241886   0.075   4.253   7.413  1.0111 -0.2857 -1.7686
 6751TIP3   OH241887   5.291   0.613   7.076 -0.6860 -0.0209  0.0134
 6751TIP3    H141888   5.373   0.639   7.035 -0.1548 -1.0494  0.4205
 6751TIP3    H241889   5.283   0.670   7.152  0.0287 -0.4276  0.3989
 6752TIP3   OH241890   0.325   0.863   7.584  0.2828  0.0307  0.0423
 6752TIP3    H141891   0.333   0.878   7.490  0.0577  0.9215  0.1484
 6752TIP3    H241892   0.366   0.940   7.624  1.9859 -1.1557  0.7083
 6753TIP3   OH241893   4.213   2.253   0.191 -0.2986 -0.4074 -0.0795
 6753TIP3    H141894   4.173   2.217   0.271 -1.6896  0.1841 -0.4780
 6753TIP3    H241895   4.252   2.335   0.220 -0.4904 -0.3635  0.0585
 6754TIP3   OH241896   2.473   3.298   7.340  0.0390 -0.3972  0.6858
 6754TIP3    H141897   2.446   3.234   7.274 -0.9296 -0.0782  0.7560
 6754TIP3    H241898   2.566   3.282   7.352  0.0630 -0.9823 -0.1883
 6755TIP3   OH241899   1.186   6.028   6.524  0.4219 -0.0147 -0.1222
 6755TIP3    H141900   1.107   6.016   6.576  0.3315  0.1444 -0.2228
 6755TIP3    H241901   1.222   6.111   6.554  1.2560 -0.6905  0.8500
 6756TIP3   OH241902   5.067   4.612   8.055 -0.3870  0.2183  0.2149
 6756TIP3    H141903   5.122   4.627   8.132  0.0212 -0.0595 -0.0211
 6756TIP3    H241904   5.117   4.552   8.000 -0.3846  0.9183 -0.5702
 6757TIP3   OH241905   5.363   1.821   8.101 -0.1918  0.2856 -0.0344
 6757TIP3    H141906   5.271   1.820   8.075  0.1301  0.3475 -1.2379
 6757TIP3    H241907   5.406   1.876   8.035  0.9550 -1.0661 -0.4728
 6758TIP3   OH241908   6.648   1.810   6.350  0.3083  0.0727  0.4645
 6758TIP3    H141909   6.688   1.736   6.397 -0.2270 -0.5526 -0.0408
 6758TIP3    H241910   6.651   1.784   6.258 -0.1194  0.5729  0.3077
 6759TIP3   OH241911   0.771   5.336   1.560 -0.0268  0.6260 -0.2177
 6759TIP3    H141912   0.717   5.258   1.567 -1.0466  1.3435  0.1156
 6759TIP3    H241913   0.861   5.304   1.570 -0.4921 -0.3727  0.9723
 6760TIP3   OH241914   1.937   6.649   2.536  0.3458  0.6805 -0.1798
 6760TIP3    H141915   1.942   6.559   2.504  0.3691  1.0543 -1.2666
 6760TIP3    H241916   1.847   6.658   2.568  1.0957 -0.5449  2.5281
 6761TIP3   OH241917   5.272   4.373   7.205  0.7245 -0.2096 -0.4700
 6761TIP3    H141918   5.291   4.352   7.296  1.5079 -0.7810 -0.7605
 6761TIP3    H241919   5.264   4.468   7.203 -1.1781 -0.2834  0.5415
 6762TIP3   OH241920   0.995   1.026   8.465 -0.0485  0.2642  0.3110
 6762TIP3    H141921   0.909   1.066   8.456  0.1003  0.3225 -1.2216
 6762TIP3    H241922   1.033   1.032   8.377  0.7928 -1.3878  0.5257
 6763TIP3   OH241923   2.117   5.587   1.282  0.4739 -0.1724 -0.0947
 6763TIP3    H141924   2.027   5.579   1.252  1.0102  1.3661 -2.3612
 6763TIP3    H241925   2.128   5.515   1.345 -2.8399  0.7110  1.7215
 6764TIP3   OH241926   5.740   6.459   1.085 -0.1530 -0.0375 -0.2106
 6764TIP3    H141927   5.790   6.464   1.166 -0.0510 -2.9779  0.0495
 6764TIP3    H241928   5.658   6.505   1.104  0.0627 -0.2650  1.4184
 6765TIP3   OH241929   6.690   0.605   0.542 -0.1720  0.3063  0.0473
 6765TIP3    H141930   6.678   0.513   0.566 -2.5441 -0.5892 -3.6863
 6765TIP3    H241931   6.601   0.638   0.526  0.6610  3.0661  0.4966
 6766TIP3   OH241932   5.240   4.152   0.002  0.1117 -0.1281 -0.1472
 6766TIP3    H141933   5.271   4.125  -0.084  0.0264 -0.0842 -0.1915
 6766TIP3    H241934   5.317   4.147   0.058 -0.2971 -2.5452  0.3349
 6767TIP3   OH241935   6.823   4.724   0.468  0.9635  0.3569 -0.3041
 6767TIP3    H141936   6.911   4.722   0.507  1.6392  0.8074 -1.7029
 6767TIP3    H241937   6.814   4.638   0.427  0.0252 -0.3290  1.2494
 6768TIP3   OH241938   5.308   2.525   0.011  0.0441 -0.4364  0.2190
 6768TIP3    H141939   5.271   2.604  -0.029 -1.6278 -1.2109  0.1397
 6768TIP3    H241940   5.367   2.558   0.079  0.5476  0.8737 -0.8195
 6769TIP3   OH241941   4.310   0.191   1.810  0.1569  0.3333  0.1799
 6769TIP3    H141942   4.319   0.163   1.901  0.6193  1.4021  0.4800
 6769TIP3    H241943   4.369   0.265   1.802  1.1420 -0.5623 -1.3649
 6770TIP3   OH241944   3.685   5.382   0.071  0.1420  0.2741 -0.4133
 6770TIP3    H141945   3.612   5.324   0.090 -0.5232  1.6819  1.6309
 6770TIP3    H241946   3.743   5.330   0.014 -0.3092 -2.4497  1.4453
 6771TIP3   OH241947   4.568   4.584   7.633  0.0633 -0.2992 -0.3243
 6771TIP3    H141948   4.650   4.613   7.672 -0.0195  1.4669 -1.4081
 6771TIP3    H241949   4.594   4.530   7.558  0.2074 -3.0160  1.5017
 6772TIP3   OH241950   5.794   1.297   1.725 -0.0991  0.9071 -0.3842
 6772TIP3    H141951   5.806   1.348   1.805  1.3257 -0.1628  0.1314
 6772TIP3    H241952   5.711   1.251   1.738  1.1885 -1.0647  1.5978
 6773TIP3   OH241953   6.074   5.722   1.969  0.3235 -0.2437  0.2993
 6773TIP3    H141954   6.130   5.782   2.019 -1.5269  0.2650  1.8579
 6773TIP3    H241955   5.987   5.760   1.975 -0.3827 -1.5290 -1.2478
 6774TIP3   OH241956   0.588   5.493   1.433  1.0169 -0.1102  0.6308
 6774TIP3    H141957   0.661   5.447   1.474  1.1834 -0.1322  0.3116
 6774TIP3    H241958   0.511   5.462   1.480  0.9722 -1.7398 -0.4538
 6775TIP3   OH241959   5.913   6.149   8.287 -0.0824 -0.4055  0.4525
 6775TIP3    H141960   5.959   6.225   8.251 -0.0695 -0.1280  1.0376
 6775TIP3    H241961   5.917   6.162   8.382 -0.2747 -1.0265  0.5474
 6776TIP3   OH241962   3.699   1.824   7.521  0.2835  0.1613 -0.0776
 6776TIP3    H141963   3.676   1.833   7.614 -1.1404 -1.1082 -0.2764
 6776TIP3    H241964   3.659   1.900   7.480 -0.2111  0.0489  0.1765
 6777TIP3   OH241965   0.931   2.575   1.600  0.3555 -0.3978 -0.2667
 6777TIP3    H141966   0.961   2.661   1.569  0.4934 -0.0238  0.8748
 6777TIP3    H241967   1.006   2.517   1.586  0.4087 -0.2394 -0.6481
 6778TIP3   OH241968   6.129   5.985   6.827  0.3554 -0.8425  0.5057
 6778TIP3    H141969   6.125   5.950   6.916 -0.5197 -0.9214  0.4434
 6778TIP3    H241970   6.073   6.062   6.829 -0.8864 -1.6938 -0.3495
 6779TIP3   OH241971   4.590   0.370   0.589 -0.2812 -0.1699  0.3609
 6779TIP3    H141972   4.602   0.311   0.514  0.0404 -0.6589  0.7883
 6779TIP3    H241973   4.511   0.337   0.632 -0.9478  0.6237 -0.2265
 6780TIP3   OH241974   2.103   4.646   0.233 -0.3082  0.4118  0.2611
 6780TIP3    H141975   2.122   4.642   0.327 -1.4821  0.4556  0.5085
 6780TIP3    H241976   2.110   4.555   0.203 -0.0088  0.3884  0.3922
 6781TIP3   OH241977   0.410   2.256   2.357  0.0489 -0.2966  0.2886
 6781TIP3    H141978   0.377   2.208   2.281 -2.3136  0.0017  1.0430
 6781TIP3    H241979   0.331   2.278   2.407  1.5202 -0.6938  2.9683
 6782TIP3   OH241980   6.635   3.999   7.628  0.2459 -0.4315 -0.5575
 6782TIP3    H141981   6.697   3.928   7.611  0.0835 -1.0088  1.1150
 6782TIP3    H241982   6.552   3.955   7.644  0.2269  0.0886  0.8924
 6783TIP3   OH241983   0.068   2.376   2.136  0.0781 -0.5337 -0.1874
 6783TIP3    H141984   0.147   2.399   2.088 -0.7154  0.1923 -1.1708
 6783TIP3    H241985   0.060   2.281   2.126  0.9219 -0.6459  0.1039
 6784TIP3   OH241986   2.923   6.427   6.379 -0.3545  0.1144  0.1647
 6784TIP3    H141987   2.852   6.382   6.425 -1.0609  1.2813  0.2784
 6784TIP3    H241988   2.878   6.474   6.308  0.1337  1.7206  0.8684
 6785TIP3   OH241989   5.698   3.257   1.923  0.4195 -0.4618  0.4322
 6785TIP3    H141990   5.652   3.311   1.859  2.0527  0.9707  0.3805
 6785TIP3    H241991   5.671   3.167   1.904 -0.6228  0.1340 -0.9848
 6786TIP3   OH241992   1.495   5.470   0.789 -0.5615 -0.0163 -0.8023
 6786TIP3    H141993   1.408   5.486   0.754 -0.6130 -2.7390 -2.2252
 6786TIP3    H241994   1.479   5.436   0.877 -0.9102  0.0837 -0.8244
 6787TIP3   OH241995   3.615   1.068   7.012  0.0977  0.1682 -0.4299
 6787TIP3    H141996   3.651   0.989   7.052 -2.2265 -0.9598 -0.3678
 6787TIP3    H241997   3.629   1.137   7.077  0.6124 -0.5852  0.2782
 6788TIP3   OH241998   2.260   0.286   6.591 -0.2567  0.3873 -0.3035
 6788TIP3    H141999   2.284   0.195   6.607 -1.1008 -0.1033 -1.6298
 6788TIP3    H242000   2.326   0.337   6.637  0.9287 -0.8998 -0.5059
 6789TIP3   OH242001   6.787   4.927   1.571 -0.2684 -0.0856  0.3824
 6789TIP3    H142002   6.864   4.898   1.619 -0.0734  2.1634  1.5890
 6789TIP3    H242003   6.720   4.862   1.589  0.8410 -1.1770  0.7067
 6790TIP3   OH242004   1.424   3.713   6.432 -0.5410  0.7707 -0.2442
 6790TIP3    H142005   1.509   3.753   6.414 -1.0123  1.4458 -1.0359
 6790TIP3    H242006   1.435   3.622   6.406  0.4588  0.3942  1.3121
 6791TIP3   OH242007   0.007   0.020   0.841 -0.3601 -0.0933  0.1320
 6791TIP3    H142008   0.103   0.012   0.843 -0.3977 -1.3862 -1.1006
 6791TIP3    H242009  -0.009   0.104   0.800  0.2089  1.0150  2.0532
 6792TIP3   OH242010   2.377   2.584   0.296  0.2084 -0.4325 -0.3291
 6792TIP3    H142011   2.299   2.537   0.264 -1.0126  1.1322  0.2209
 6792TIP3    H242012   2.418   2.619   0.217 -1.1629  0.9522 -0.4831
 6793TIP3   OH242013   4.980   3.486   1.602  0.5394  0.6430  0.3928
 6793TIP3    H142014   4.907   3.548   1.603  0.1162  0.1594  0.1784
 6793TIP3    H242015   4.967   3.433   1.681 -0.1950 -0.3932 -0.3864
 6794TIP3   OH242016   2.832   3.544   8.016 -0.2620 -0.0172  0.4094
 6794TIP3    H142017   2.738   3.528   8.000 -0.1680  0.3170 -0.5377
 6794TIP3    H242018   2.838   3.638   8.029 -0.1197 -0.1024  0.9782
 6795TIP3   OH242019   2.917   3.033   0.341  0.2460 -0.7104 -0.0247
 6795TIP3    H142020   2.891   3.091   0.413  1.8687 -0.7446  0.6474
 6795TIP3    H242021   2.923   3.091   0.265  1.5590  0.0094  0.5787
 6796TIP3   OH242022   1.508   2.812   2.230  0.0524  0.0786 -1.0871
 6796TIP3    H142023   1.448   2.879   2.264  0.1951 -0.8492  1.2364
 6796TIP3    H242024   1.522   2.836   2.139 -1.8969  1.7349 -1.0337
 6797TIP3   OH242025   2.640   6.569   7.788 -0.4322  0.3949  0.2982
 6797TIP3    H142026   2.728   6.543   7.761 -0.7790 -0.3680 -0.1077
 6797TIP3    H242027   2.632   6.539   7.878  0.2836  1.8712  0.8943
 6798TIP3   OH242028   4.666   3.464   2.330 -0.1927  0.4077  0.6938
 6798TIP3    H142029   4.633   3.380   2.299 -0.4047 -0.5826  3.3931
 6798TIP3    H242030   4.640   3.469   2.422  3.2495  1.5683  1.7814
 6799TIP3   OH242031   2.634   0.413   0.173 -0.3532 -0.2083  0.3223
 6799TIP3    H142032   2.566   0.431   0.237  1.8445 -0.1628  2.7847
 6799TIP3    H242033   2.657   0.321   0.187 -0.0877 -0.3139 -0.6970
 6800TIP3   OH242034   2.584   5.480   0.557 -0.2119 -0.0582 -0.3489
 6800TIP3    H142035   2.500   5.466   0.513 -0.4301  0.2229 -0.0229
 6800TIP3    H242036   2.569   5.555   0.614  1.0319  1.7803 -2.3123
 6801TIP3   OH242037   3.608   2.927   1.343 -0.0196  0.1258 -0.0239
 6801TIP3    H142038   3.549   2.853   1.330 -0.8421  0.6465  0.6286
 6801TIP3    H242039   3.614   2.968   1.257 -1.4686  0.6699  0.1023
 6802TIP3   OH242040   0.183   6.307   0.628  0.4586 -0.2320 -0.0562
 6802TIP3    H142041   0.217   6.287   0.715 -0.5270  0.3743  0.4841
 6802TIP3    H242042   0.089   6.318   0.641  0.2261 -0.5981 -1.2830
 6803TIP3   OH242043   5.637   6.731   1.216 -0.3698  0.3047 -0.3748
 6803TIP3    H142044   5.722   6.773   1.197 -0.6617  0.0613 -2.4142
 6803TIP3    H242045   5.649   6.693   1.303  0.9572  1.9346  0.2184
 6804TIP3   OH242046   6.451   4.652   7.343 -0.0793  0.3422 -0.7267
 6804TIP3    H142047   6.366   4.692   7.327 -0.1791  0.0804 -0.8685
 6804TIP3    H242048   6.497   4.713   7.401 -0.9250 -0.2189  0.5694
 6805TIP3   OH242049   1.011   4.226   0.080 -0.2387 -0.2501  0.5428
 6805TIP3    H142050   1.055   4.284   0.141  0.1835  0.4722 -0.4216
 6805TIP3    H242051   0.996   4.146   0.129 -0.5851  0.5713  1.8134
 6806TIP3   OH242052   3.665   1.855   7.816 -0.0598  0.5000  0.1434
 6806TIP3    H142053   3.595   1.857   7.882 -0.2358  1.7181 -0.0469
 6806TIP3    H242054   3.719   1.780   7.840 -2.7173 -1.9854 -1.0762
 6807TIP3   OH242055   6.135   2.893   0.131 -0.6951  0.4081 -0.3055
 6807TIP3    H142056   6.185   2.816   0.103 -2.2277 -0.9702  0.5974
 6807TIP3    H242057   6.096   2.867   0.214  1.8708  3.5470  2.1724
 6808TIP3   OH242058   2.898   4.025   7.130 -0.1175  0.0338 -0.5073
 6808TIP3    H142059   2.810   3.996   7.155 -0.8409 -1.5633 -4.2091
 6808TIP3    H242060   2.951   4.013   7.209 -2.8293 -0.6890  1.3292
 6809TIP3   OH242061   5.394   5.017   6.946  0.3432  0.1259  0.4749
 6809TIP3    H142062   5.394   4.925   6.971 -0.5744  0.1162  0.4689
 6809TIP3    H242063   5.484   5.034   6.915  0.3863 -0.8795  0.0215
 6810TIP3   OH242064   6.407   1.877   0.986  0.1489 -0.4704 -0.8024
 6810TIP3    H142065   6.471   1.946   1.005 -0.6212 -0.1590  0.8142
 6810TIP3    H242066   6.460   1.804   0.955  1.1380  0.3188 -1.0465
 6811TIP3   OH242067   5.738   1.576   1.085 -0.2602  0.1726 -0.2765
 6811TIP3    H142068   5.762   1.558   0.994 -1.7199 -2.8121 -0.2023
 6811TIP3    H242069   5.644   1.563   1.088 -0.3484  0.9382  1.5387
 6812TIP3   OH242070   3.231   5.496   7.282 -0.2033  0.2554  0.0402
 6812TIP3    H142071   3.302   5.543   7.324  0.4382  0.3290 -1.0800
 6812TIP3    H242072   3.228   5.531   7.193 -2.2003  0.8713  0.2791
 6813TIP3   OH242073   4.911   2.412   6.604 -0.0091  0.6134  0.8102
 6813TIP3    H142074   4.901   2.344   6.538 -0.4960  0.8892  0.5940
 6813TIP3    H242075   5.003   2.406   6.631  0.6237  1.4778 -0.9855
 6814TIP3   OH242076   1.163   5.191   1.732  0.3341  0.3714 -0.3517
 6814TIP3    H142077   1.200   5.201   1.644 -2.8224 -1.4949 -2.0948
 6814TIP3    H242078   1.078   5.148   1.718 -1.0129  1.2882  3.5209
 6815TIP3   OH242079   3.416   2.136   0.641  0.3941  0.1361  0.0532
 6815TIP3    H142080   3.407   2.215   0.695  2.0284  0.4756 -0.1090
 6815TIP3    H242081   3.349   2.076   0.674  2.9927 -0.8121  4.4965
 6816TIP3   OH242082   4.157   5.035   2.622  0.4281  0.5218  0.5633
 6816TIP3    H142083   4.165   4.954   2.572 -0.2547  1.2186 -0.7248
 6816TIP3    H242084   4.068   5.065   2.604 -0.8486 -0.4710  4.2177
 6817TIP3   OH242085   6.690   0.294   1.708  0.3003 -0.7295 -0.3072
 6817TIP3    H142086   6.719   0.255   1.790 -2.5368 -2.1219  0.1500
 6817TIP3    H242087   6.664   0.220   1.653  1.3457  0.2105 -2.1850
 6818TIP3   OH242088   5.649   6.978   7.764 -0.3921  0.4241  0.1085
 6818TIP3    H142089   5.739   6.959   7.740 -0.8375 -2.0557  0.2041
 6818TIP3    H242090   5.605   6.995   7.680 -0.4171 -1.2418 -0.2542
 6819TIP3   OH242091   6.022   2.683   2.553  0.0544 -0.0150 -0.1116
 6819TIP3    H142092   6.102   2.634   2.532  1.0297  1.1230  0.8093
 6819TIP3    H242093   6.053   2.766   2.587 -1.5580  1.5542 -2.2446
 6820TIP3   OH242094   0.561   2.882   0.072 -0.5332 -0.1768 -0.2472
 6820TIP3    H142095   0.550   2.976   0.080 -0.6329  0.0090 -2.1729
 6820TIP3    H242096   0.655   2.867   0.081 -0.1443  0.4640 -2.5863
 6821TIP3   OH242097   1.183   0.332   2.495  0.0219  0.1796  0.5147
 6821TIP3    H142098   1.126   0.314   2.420 -0.1786  1.6603  0.2879
 6821TIP3    H242099   1.138   0.401   2.543  1.0470  0.5275  1.0014
 6822TIP3   OH242100   1.021   3.997   8.014 -0.2758  0.5345 -0.6684
 6822TIP3    H142101   0.978   4.073   7.974 -0.0200  0.5370 -0.9401
 6822TIP3    H242102   1.106   3.991   7.970  0.3994  1.0851  0.5299
 6823TIP3   OH242103   5.927   1.090   2.081  0.3072  0.9044 -0.1678
 6823TIP3    H142104   6.015   1.115   2.053  0.1649  0.8305 -0.6957
 6823TIP3    H242105   5.901   1.020   2.021 -0.1323  0.9639 -0.0555
 6824TIP3   OH242106   0.368   0.509   0.761 -0.4640 -0.1512  0.6224
 6824TIP3    H142107   0.317   0.469   0.831  0.1509 -0.4856  0.8838
 6824TIP3    H242108   0.459   0.484   0.780 -0.3984 -1.2423 -0.9376
 6825TIP3   OH242109   4.521   3.226   6.938  0.2538 -0.3953  0.3490
 6825TIP3    H142110   4.509   3.283   7.014 -1.6867  1.3835 -1.1556
 6825TIP3    H242111   4.509   3.138   6.973 -0.6629  0.3690  2.1131
 6826TIP3   OH242112   1.245   4.700   6.957 -0.3964  0.2886  0.0889
 6826TIP3    H142113   1.153   4.722   6.946 -0.1729  0.4965 -1.6302
 6826TIP3    H242114   1.291   4.783   6.944 -0.0003  0.4324  2.1240
 6827TIP3   OH242115   0.931   0.049   1.847  0.4863 -0.4251 -0.4806
 6827TIP3    H142116   0.987  -0.011   1.895  2.5825 -0.1685 -2.4205
 6827TIP3    H242117   0.989   0.121   1.821 -1.4600  1.4291 -0.0214
 6828TIP3   OH242118   4.081   2.465   7.210 -0.1275  0.0271 -0.6647
 6828TIP3    H142119   4.051   2.497   7.125  0.1964  1.0628 -0.3955
 6828TIP3    H242120   4.162   2.514   7.227  0.0257 -0.4584  0.0662
 6829TIP3   OH242121   0.654   6.124   1.869  0.0955 -0.1913  0.1888
 6829TIP3    H142122   0.733   6.171   1.894 -1.5958  2.1678  1.4774
 6829TIP3    H242123   0.618   6.091   1.951 -0.2347 -1.3061 -0.3823
 6830TIP3   OH242124   0.356   1.583   1.435 -0.6958 -0.4268 -0.6516
 6830TIP3    H142125   0.428   1.519   1.436  1.8681  2.0876 -3.4265
 6830TIP3    H242126   0.372   1.638   1.512  1.2831  0.8811 -1.9064
 6831TIP3   OH242127   3.395   4.967   0.021 -0.3095  0.0719 -0.3430
 6831TIP3    H142128   3.362   4.877   0.023  2.7946 -1.2303 -0.9654
 6831TIP3    H242129   3.393   4.991  -0.072  0.0586  0.1152 -0.3425
 6832TIP3   OH242130   6.315   6.472   0.353 -0.1729 -0.8639  0.4853
 6832TIP3    H142131   6.330   6.414   0.427  1.1031 -1.9824 -0.5923
 6832TIP3    H242132   6.402   6.505   0.330 -0.7184  0.5089  0.3006
 6833TIP3   OH242133   1.703   0.035   8.142  0.1674  0.2472  0.4009
 6833TIP3    H142134   1.779  -0.011   8.105  0.1738 -0.4321  1.2467
 6833TIP3    H242135   1.653  -0.032   8.187  0.6454  1.1928  2.4332
 6834TIP3   OH242136   2.558   3.691   0.162 -0.0556  0.2151 -0.0045
 6834TIP3    H142137   2.540   3.783   0.178  1.1151  0.5205 -0.3502
 6834TIP3    H242138   2.562   3.651   0.249  1.5464  0.9270  0.2832
 6835TIP3   OH242139   4.851   0.880   6.744  0.0182  0.9112 -0.2109
 6835TIP3    H142140   4.778   0.932   6.778 -0.1519  0.4686  0.1045
 6835TIP3    H242141   4.917   0.883   6.813  0.6436  1.9883 -0.8222
 6836TIP3   OH242142   0.910   4.993   7.604  0.4146  0.0256 -0.0209
 6836TIP3    H142143   0.831   4.998   7.550 -0.3681  0.1367  1.0900
 6836TIP3    H242144   0.982   4.985   7.541 -0.4845 -0.1875 -1.0546
 6837TIP3   OH242145   1.235   5.063   6.725 -0.5355  0.2154  0.4929
 6837TIP3    H142146   1.229   5.159   6.718 -1.1439  0.1699  0.3205
 6837TIP3    H242147   1.231   5.032   6.635  0.4784  0.0613  0.4938
 6838TIP3   OH242148   2.327   3.724   2.485 -0.4108 -0.0014 -0.1216
 6838TIP3    H142149   2.364   3.713   2.398 -1.4088 -1.6455 -0.3829
 6838TIP3    H242150   2.238   3.755   2.470  0.6526  3.8559  0.4911
 6839TIP3   OH242151   5.519   3.011   1.429 -0.3520  0.2983  0.5365
 6839TIP3    H142152   5.500   2.943   1.365 -1.4176  0.2757  0.8557
 6839TIP3    H242153   5.561   3.081   1.378 -0.2302 -0.1513  0.0136
 6840TIP3   OH242154   2.732   2.299   7.326 -0.2385 -0.0338  0.0246
 6840TIP3    H142155   2.777   2.296   7.242  0.0876 -1.2650  0.2185
 6840TIP3    H242156   2.663   2.363   7.314 -0.4737 -0.5040 -1.3250
 6841TIP3   OH242157   5.316   2.992   8.034 -0.3951 -0.0118  0.2667
 6841TIP3    H142158   5.301   3.008   7.941 -1.5897 -1.4199  0.1822
 6841TIP3    H242159   5.394   2.937   8.036  0.5966  1.3477  0.2306
 6842TIP3   OH242160   5.936   2.211   6.966  0.0594  0.3222 -0.1912
 6842TIP3    H142161   5.944   2.181   7.056  2.8646 -1.1931 -0.8086
 6842TIP3    H242162   5.842   2.217   6.950 -0.5083 -0.5290  2.4360
 6843TIP3   OH242163   3.046   4.672   1.215  0.2272 -0.0380  0.1236
 6843TIP3    H142164   2.961   4.677   1.259 -0.1184 -1.3429 -0.3522
 6843TIP3    H242165   3.081   4.761   1.222 -1.8860  0.9676 -1.0752
 6844TIP3   OH242166   3.962   4.242   8.106 -0.4343 -0.2558 -0.3617
 6844TIP3    H142167   4.051   4.206   8.103 -0.2263  0.2098  0.1112
 6844TIP3    H242168   3.932   4.220   8.194  0.4999  2.6016  0.7756
 6845TIP3   OH242169   2.502   5.390   2.471  0.5040 -0.4074  0.2713
 6845TIP3    H142170   2.563   5.422   2.537  1.1382 -1.0624  0.0149
 6845TIP3    H242171   2.422   5.371   2.519  0.8888 -0.6589  0.8221
 6846TIP3   OH242172   4.965   4.699   7.531 -1.1420 -0.0156  0.1847
 6846TIP3    H142173   4.994   4.707   7.622  1.0384 -0.7040 -0.3919
 6846TIP3    H242174   5.025   4.754   7.482 -1.5734 -0.5524 -0.9779
 6847TIP3   OH242175   5.571   1.153   1.791 -0.5269  0.4263  0.3324
 6847TIP3    H142176   5.541   1.150   1.882  1.4878 -1.4808  1.0246
 6847TIP3    H242177   5.517   1.089   1.746  0.0201 -0.3376  0.7422
 6848TIP3   OH242178   0.553   1.494   6.855 -0.2357 -0.1774  0.0281
 6848TIP3    H142179   0.613   1.561   6.820 -0.1952 -1.1077 -1.7835
 6848TIP3    H242180   0.549   1.513   6.949  1.4188  1.0766 -0.0989
 6849TIP3   OH242181   5.110   4.870   6.427 -0.6762 -0.1881  0.1009
 6849TIP3    H142182   5.153   4.828   6.502  1.2177  1.4849  0.0315
 6849TIP3    H242183   5.041   4.923   6.467  0.3992  0.7952  0.7190
 6850TIP3   OH242184   2.483   4.691   0.173 -0.3778  0.5641  0.2684
 6850TIP3    H142185   2.400   4.737   0.156 -1.4302 -1.3188  0.0015
 6850TIP3    H242186   2.546   4.761   0.190 -1.2090  2.2673 -2.8583
 6851TIP3   OH242187   3.267   6.194   8.315 -0.0332  0.5742 -0.3599
 6851TIP3    H142188   3.259   6.289   8.306 -1.4218  0.3840 -1.7423
 6851TIP3    H242189   3.183   6.161   8.284  0.4926 -1.1227 -0.0622
 6852TIP3   OH242190   5.477   4.454   2.060 -0.2770 -0.2677  0.0324
 6852TIP3    H142191   5.505   4.469   1.969 -1.2005  0.6290 -0.1270
 6852TIP3    H242192   5.487   4.540   2.102 -2.4982  0.0602  0.0142
 6853TIP3   OH242193   4.745   6.562   0.445 -0.1484  0.0143 -0.5510
 6853TIP3    H142194   4.653   6.586   0.437 -1.0747 -2.4405  1.5509
 6853TIP3    H242195   4.790   6.645   0.459 -2.2438  1.1466 -0.1217
 6854TIP3   OH242196   1.816   3.560   8.030  0.0055  0.7636  0.3032
 6854TIP3    H142197   1.788   3.575   8.120 -1.2960 -1.3427  0.3241
 6854TIP3    H242198   1.898   3.512   8.038 -1.0766 -1.1662  0.4818
 6855TIP3   OH242199   1.145   3.960   8.321  0.0317 -1.0428 -0.7206
 6855TIP3    H142200   1.201   3.925   8.253  1.2815 -1.9565  0.7089
 6855TIP3    H242201   1.093   4.027   8.277  1.3777 -1.0078 -2.3727
 6856TIP3   OH242202   2.188   4.151   6.476  0.7213 -0.2173  0.8565
 6856TIP3    H142203   2.275   4.115   6.458  0.3098 -0.8663  0.0675
 6856TIP3    H242204   2.128   4.088   6.436 -0.0761  0.7352  0.5302
 6857TIP3   OH242205   4.469   0.545   1.950  0.6538 -0.3053  0.2716
 6857TIP3    H142206   4.427   0.487   2.014 -0.5784 -0.9497 -1.0500
 6857TIP3    H242207   4.398   0.572   1.893  1.4018  1.7146  0.2182
 6858TIP3   OH242208   6.926   5.848   0.546 -0.5860  0.1736 -0.0253
 6858TIP3    H142209   6.894   5.926   0.591  1.3521  0.4421  0.9713
 6858TIP3    H242210   7.015   5.835   0.580  0.3900 -0.5323 -2.6252
 6859TIP3   OH242211   6.246   5.945   8.438  0.9984 -0.0249 -0.3039
 6859TIP3    H142212   6.251   5.942   8.342  1.3483 -3.1299 -0.2865
 6859TIP3    H242213   6.305   6.016   8.463  2.6533 -0.6078 -2.3219
 6860TIP3   OH242214   1.701   3.233   7.507 -0.1201  0.3043 -0.0481
 6860TIP3    H142215   1.796   3.225   7.515 -0.3009 -1.0250  1.0653
 6860TIP3    H242216   1.688   3.296   7.436  1.5856  0.2050 -0.4832
 6861TIP3   OH242217   5.790   1.866   6.306  0.0953  0.1043  0.6395
 6861TIP3    H142218   5.853   1.835   6.240 -1.3010 -1.0857 -0.1830
 6861TIP3    H242219   5.720   1.906   6.256  0.4816  2.0858  1.5881
 6862TIP3   OH242220   5.175   1.847   6.423 -0.2509 -0.3465  0.3344
 6862TIP3    H142221   5.152   1.784   6.491  1.5486  2.1484  3.5111
 6862TIP3    H242222   5.091   1.866   6.380 -1.8314 -0.8723  2.9414
 6863TIP3   OH242223   6.049   1.310   7.102 -0.0571  0.3741 -0.2291
 6863TIP3    H142224   6.029   1.216   7.111  0.5179  0.4153  2.2688
 6863TIP3    H242225   6.019   1.333   7.014 -0.5962 -2.0544 -0.7508
 6864TIP3   OH242226   2.133   5.879   0.061  0.2989  0.2446 -0.1299
 6864TIP3    H142227   2.081   5.802   0.084  1.4577 -1.0843 -1.6592
 6864TIP3    H242228   2.088   5.917  -0.015  1.6480 -1.1654 -1.7406
 6865TIP3   OH242229   1.440   6.029   0.234 -0.5269 -0.0018 -0.4263
 6865TIP3    H142230   1.390   6.092   0.285  0.4622  2.2651 -2.0894
 6865TIP3    H242231   1.391   6.021   0.152 -0.7619 -1.6456 -0.1624
 6866TIP3   OH242232   3.259   1.996   2.068 -0.3294 -0.0204 -0.2199
 6866TIP3    H142233   3.329   2.014   2.005 -0.1580  0.9419  0.2268
 6866TIP3    H242234   3.300   1.940   2.134 -0.1992 -0.1288 -0.3941
 6867TIP3   OH242235   5.514   0.793   0.053 -0.1773 -0.0670  0.0913
 6867TIP3    H142236   5.573   0.745  -0.005 -0.0891 -0.2856  0.3597
 6867TIP3    H242237   5.522   0.749   0.138 -1.0994 -0.4310  0.0095
 6868TIP3   OH242238   6.989   2.379   6.424  0.1735  0.5933 -0.2755
 6868TIP3    H142239   6.946   2.459   6.453  2.1196  1.3889  0.5672
 6868TIP3    H242240   7.083   2.396   6.435  0.7000 -1.3740 -1.1942
 6869TIP3   OH242241   2.949   6.059   7.143  0.4168  0.4713 -0.3348
 6869TIP3    H142242   2.904   5.982   7.180 -1.3280  0.6124 -2.0287
 6869TIP3    H242243   3.015   6.081   7.209 -1.0347 -0.6416  1.6278
 6870TIP3   OH242244   4.069   1.481   0.881 -0.4459 -0.0799 -0.4746
 6870TIP3    H142245   4.145   1.424   0.868 -0.3521  0.2902 -1.6608
 6870TIP3    H242246   4.016   1.436   0.947  0.5427 -0.5993 -0.0078
 6871TIP3   OH242247   6.936   4.272   8.083 -0.5675 -0.1844  0.5151
 6871TIP3    H142248   6.873   4.300   8.149  0.2251  1.2172  0.7103
 6871TIP3    H242249   6.883   4.231   8.015 -1.5505 -0.1912  1.2604
 6872TIP3   OH242250   2.154   4.617   7.255  0.6380  0.2327  0.2592
 6872TIP3    H142251   2.246   4.623   7.280  1.1334 -0.8889 -1.1687
 6872TIP3    H242252   2.149   4.539   7.199 -0.8955  1.0935 -0.8915
 6873TIP3   OH242253   2.746   4.067   1.791 -0.0373  0.2505  0.4237
 6873TIP3    H142254   2.799   3.995   1.823 -2.0976 -1.3062  0.5256
 6873TIP3    H242255   2.809   4.130   1.757  1.8462 -1.4622  0.5795
 6874TIP3   OH242256   1.965   3.218   7.533 -0.2572 -0.1127 -0.7937
 6874TIP3    H142257   1.993   3.220   7.624  0.2830  0.3502 -0.9682
 6874TIP3    H242258   2.046   3.222   7.482 -0.5359 -0.7083 -1.2985
 6875TIP3   OH242259   3.611   4.008   7.537  0.4749 -0.3030 -0.8136
 6875TIP3    H142260   3.620   4.008   7.441  0.0360 -0.7708 -0.8572
 6875TIP3    H242261   3.682   4.065   7.567  1.6103 -1.3988 -1.3231
 6876TIP3   OH242262   5.763   2.047   6.027  0.1521  0.0412  0.3315
 6876TIP3    H142263   5.757   1.984   5.955  0.0609  1.0861 -0.5933
 6876TIP3    H242264   5.702   2.013   6.093  0.7474 -1.2988  0.2248
 6877TIP3   OH242265   2.942   6.408   7.488 -0.6705 -0.3177 -1.3560
 6877TIP3    H142266   2.946   6.381   7.580  1.7668  1.1237 -0.9590
 6877TIP3    H242267   2.865   6.363   7.453  0.6892 -4.3582  0.2660
 6878TIP3   OH242268   1.961   5.420   7.282 -0.0303  0.4168 -0.1599
 6878TIP3    H142269   1.964   5.353   7.350  1.2453  0.4601 -0.1421
 6878TIP3    H242270   1.869   5.446   7.277 -0.0927  0.8125  1.9274
 6879TIP3   OH242271   2.894   3.183   1.408 -0.2276  0.1144 -0.3536
 6879TIP3    H142272   2.925   3.222   1.490  0.8692  0.8365 -1.0814
 6879TIP3    H242273   2.961   3.206   1.343 -1.3158  0.0139 -1.5698
 6880TIP3   OH242274   0.399   2.005   7.459 -0.2723  0.0574  0.2822
 6880TIP3    H142275   0.495   1.994   7.460 -0.4998 -3.2676 -1.1505
 6880TIP3    H242276   0.382   2.054   7.379  0.1462 -1.4773 -0.7810
 6881TIP3   OH242277   1.173   4.893   0.296 -0.4769  0.1554 -0.4991
 6881TIP3    H142278   1.208   4.972   0.336  1.1472 -1.5129  1.6221
 6881TIP3    H242279   1.186   4.906   0.202 -0.8129  2.6059 -0.2759
 6882TIP3   OH242280   2.414   4.966   1.891 -0.3631 -0.7184 -0.1943
 6882TIP3    H142281   2.333   4.964   1.943  0.6295 -1.6083  1.3849
 6882TIP3    H242282   2.444   5.057   1.898 -2.2592  0.1857 -2.5481
 6883TIP3   OH242283   3.743   1.132   7.992 -0.0484  0.0676 -0.2851
 6883TIP3    H142284   3.763   1.061   8.052 -0.5421  0.3419  0.2135
 6883TIP3    H242285   3.810   1.198   8.008  1.1891 -0.7993 -1.6540
 6884TIP3   OH242286   6.603   2.077   6.881 -0.3336 -0.2169 -0.3602
 6884TIP3    H142287   6.644   2.008   6.934  2.8209  2.5912  1.2434
 6884TIP3    H242288   6.520   2.095   6.926  0.6237 -0.3277  1.5518
 6885TIP3   OH242289   3.288   4.657   8.153 -0.1517 -0.0185  0.0357
 6885TIP3    H142290   3.351   4.585   8.161  0.7070  0.4385 -2.0377
 6885TIP3    H242291   3.343   4.735   8.150 -0.7282  0.3686 -2.1056
 6886TIP3   OH242292   3.108   2.275   6.675  0.6493 -0.3036 -0.4201
 6886TIP3    H142293   3.014   2.292   6.684  0.6749 -0.9619  1.8621
 6886TIP3    H242294   3.117   2.236   6.588 -0.9975  0.8479 -1.1568
 6887TIP3   OH242295   3.514   0.828   6.707  0.1756 -0.1008  0.6210
 6887TIP3    H142296   3.436   0.833   6.762 -0.2820 -0.0171 -0.0294
 6887TIP3    H242297   3.560   0.750   6.739  0.7701  0.8707  2.2133
 6888TIP3   OH242298   2.361   5.560   7.294 -0.4796 -0.3731 -0.8379
 6888TIP3    H142299   2.419   5.597   7.361 -0.2213  2.1656 -2.3498
 6888TIP3    H242300   2.415   5.494   7.250 -0.7776 -2.3904  1.6015
 6889TIP3   OH242301   2.201   0.142   0.762  0.0256 -0.0282  0.1661
 6889TIP3    H142302   2.247   0.066   0.726 -1.0220 -1.4952  1.8411
 6889TIP3    H242303   2.242   0.157   0.847  1.4760  2.5057 -0.8381
 6890TIP3   OH242304   4.107   4.329   8.480 -0.3960 -0.0137  0.4096
 6890TIP3    H142305   4.150   4.307   8.398  2.1226  1.6060  1.1856
 6890TIP3    H242306   4.087   4.422   8.473  1.1411  0.4924  2.1036
 6891TIP3   OH242307   5.720   6.526   7.072  0.2667  0.4573  0.1425
 6891TIP3    H142308   5.776   6.598   7.041  0.1475  1.0097  1.1729
 6891TIP3    H242309   5.649   6.521   7.008  1.2783 -0.0185 -0.9945
 6892TIP3   OH242310   2.505   0.883   8.169 -0.4223  0.1757  0.1563
 6892TIP3    H142311   2.433   0.900   8.229 -0.6964 -0.2368 -0.0518
 6892TIP3    H242312   2.478   0.923   8.086 -0.2601  0.3212  0.1738
 6893TIP3   OH242313   6.190   1.962   6.698 -0.8627 -0.0399 -0.6995
 6893TIP3    H142314   6.105   1.985   6.659 -0.7866  1.0519 -0.2489
 6893TIP3    H242315   6.175   1.968   6.792  0.9629  5.4744 -0.4274
 6894TIP3   OH242316   5.166   3.371   1.448 -0.6741 -0.4571  0.5093
 6894TIP3    H142317   5.089   3.409   1.490  0.8626 -0.5937  3.7638
 6894TIP3    H242318   5.209   3.322   1.517  2.5618 -0.0898 -1.0600
 6895TIP3   OH242319   2.473   1.474   8.187 -0.0034  0.3641  0.4647
 6895TIP3    H142320   2.515   1.552   8.223  0.5524 -0.2504  1.1800
 6895TIP3    H242321   2.400   1.508   8.135 -0.1262  1.3274  1.2440
 6896TIP3   OH242322   5.271   6.550   8.422  0.2627 -0.4490  0.3171
 6896TIP3    H142323   5.277   6.531   8.328  0.6220  0.8912  0.0473
 6896TIP3    H242324   5.186   6.516   8.449 -0.7658  0.9836 -0.9617
 6897TIP3   OH242325   6.262   3.624   1.284  0.4243  0.4518  0.1712
 6897TIP3    H142326   6.351   3.647   1.312 -0.0801  0.6994  1.6780
 6897TIP3    H242327   6.273   3.589   1.196  1.8032  2.0991 -0.3718
 6898TIP3   OH242328   5.749   2.748   1.320  0.4444  0.4630  0.1863
 6898TIP3    H142329   5.836   2.741   1.282  0.5142  1.2905  0.1915
 6898TIP3    H242330   5.762   2.728   1.413  0.5065 -0.1091  0.0598
 6899TIP3   OH242331   3.110   1.838   2.394  0.6119 -0.1903 -0.1910
 6899TIP3    H142332   3.054   1.762   2.411 -0.0420  0.1229 -0.8852
 6899TIP3    H242333   3.053   1.900   2.349  1.7511 -0.2176 -1.7447
 6900TIP3   OH242334   4.691   5.607   7.420 -0.2225  0.0446  0.2719
 6900TIP3    H142335   4.692   5.696   7.386  0.9294 -0.7702 -1.9900
 6900TIP3    H242336   4.601   5.578   7.409  0.3101 -0.6045 -3.4839
 6901TIP3   OH242337   2.371   3.956   0.994  0.0596  0.4831  0.0285
 6901TIP3    H142338   2.285   3.986   1.022  0.3959  1.2091  0.3003
 6901TIP3    H242339   2.364   3.860   0.992 -0.5499  0.5115  0.6939
 6902TIP3   OH242340   2.790   1.783   6.311 -0.0447  0.1870 -0.2502
 6902TIP3    H142341   2.869   1.786   6.364 -0.4109 -0.5276  0.3643
 6902TIP3    H242342   2.763   1.875   6.302  1.4923  0.5648 -1.4981
 6903TIP3   OH242343   3.276   3.202   1.734  0.5415 -0.3435  0.4013
 6903TIP3    H142344   3.189   3.225   1.765 -0.2448  0.1534 -1.9234
 6903TIP3    H242345   3.282   3.243   1.647  2.7591 -1.0884  0.1313
 6904TIP3   OH242346   2.210   2.003   7.748 -0.3977  0.6512  0.4901
 6904TIP3    H142347   2.150   2.075   7.727 -1.3628 -0.3712 -0.3828
 6904TIP3    H242348   2.297   2.043   7.743 -0.7242  1.2167 -2.6410
 6905TIP3   OH242349   0.056   5.081   6.633 -0.1025 -0.4304  0.5224
 6905TIP3    H142350  -0.001   5.100   6.559 -1.0255 -0.2734  1.2619
 6905TIP3    H242351   0.138   5.126   6.612  0.0036 -1.1774 -0.8467
 6906TIP3   OH242352   0.970   4.730   1.004  0.5079 -0.1305 -0.0130
 6906TIP3    H142353   0.909   4.665   1.039  0.3631  0.6526  1.2396
 6906TIP3    H242354   1.012   4.767   1.082  0.1555  1.7061 -0.6608
 6907TIP3   OH242355   3.676   1.722   8.201 -0.4211 -0.2181 -0.3856
 6907TIP3    H142356   3.750   1.665   8.223  0.0543 -0.1357 -1.6671
 6907TIP3    H242357   3.665   1.778   8.278 -1.3281 -2.4167  1.1932
 6908TIP3   OH242358   3.267   2.271   0.883 -0.5449 -0.1843 -0.4113
 6908TIP3    H142359   3.301   2.348   0.839  0.6946 -0.7365 -0.4578
 6908TIP3    H242360   3.220   2.223   0.815 -1.8532  0.8056 -0.2427
 6909TIP3   OH242361   2.041   2.803   7.916 -0.2457 -0.4673 -0.1712
 6909TIP3    H142362   2.135   2.806   7.899 -0.3351  0.2093 -0.5817
 6909TIP3    H242363   2.032   2.835   8.005 -0.2755  1.9686 -0.9766
 6910TIP3   OH242364   6.493   0.639   0.157 -0.3429 -0.0965  0.0314
 6910TIP3    H142365   6.559   0.701   0.187  0.5043  0.5100 -2.7735
 6910TIP3    H242366   6.416   0.658   0.211  0.7738  1.3962  1.1949
 6911TIP3   OH242367   0.451   5.492   7.984 -0.1036  0.2240 -0.2816
 6911TIP3    H142368   0.545   5.477   7.996 -0.1215  0.5250  0.2532
 6911TIP3    H242369   0.446   5.581   7.948 -0.0870 -0.4413 -2.0539
 6912TIP3   OH242370   1.734   0.565   1.359  0.3402  0.6308  0.7570
 6912TIP3    H142371   1.743   0.474   1.387  0.0461  0.1298 -0.7123
 6912TIP3    H242372   1.662   0.599   1.412 -0.3266 -0.3463  0.5136
 6913TIP3   OH242373   5.325   4.818   6.262  0.1359 -0.9202 -1.0151
 6913TIP3    H142374   5.240   4.800   6.301  0.4397 -1.3263 -0.5364
 6913TIP3    H242375   5.327   4.764   6.183  0.6864 -2.3846 -0.0485
 6914TIP3   OH242376   1.769   2.401   0.133 -0.0694 -0.1547  0.1536
 6914TIP3    H142377   1.688   2.391   0.081  0.2911  0.2224 -0.4947
 6914TIP3    H242378   1.835   2.354   0.082  1.2624  3.6036 -2.0113
 6915TIP3   OH242379   5.084   2.281   6.881 -0.3172 -0.1648  0.5388
 6915TIP3    H142380   5.154   2.260   6.819 -2.7715 -0.5635 -2.2701
 6915TIP3    H242381   5.013   2.221   6.860 -1.9877  0.9912  2.4754
 6916TIP3   OH242382   4.697   3.962   0.461 -0.4406  0.6507  0.5357
 6916TIP3    H142383   4.745   4.045   0.452  0.1104  0.3090  0.3008
 6916TIP3    H242384   4.656   3.949   0.376 -3.0147  2.1833  1.4467
 6917TIP3   OH242385   0.724   1.265   2.037  0.6553  0.3955  0.4208
 6917TIP3    H142386   0.739   1.298   2.126  0.1052  2.5275 -0.2085
 6917TIP3    H242387   0.629   1.268   2.026  0.6500 -0.7322  0.0546
 6918TIP3   OH242388   5.233   2.731   0.423  0.3734  0.0440 -0.0810
 6918TIP3    H142389   5.261   2.682   0.501  1.1639 -0.4460 -0.6544
 6918TIP3    H242390   5.191   2.810   0.458  0.4941 -0.2811  0.8391
 6919TIP3   OH242391   5.467   3.388   0.690  0.0291 -0.2454  0.0575
 6919TIP3    H142392   5.415   3.391   0.771 -0.5267  0.6741 -0.3169
 6919TIP3    H242393   5.447   3.302   0.652  0.1278 -0.5952  0.7849
 6920TIP3   OH242394   4.278   2.940   0.008 -0.1231  0.1090  0.4153
 6920TIP3    H142395   4.342   2.992  -0.040  0.9992 -0.1171  1.6180
 6920TIP3    H242396   4.285   2.853  -0.030  1.0088 -0.1537  1.1797
 6921TIP3   OH242397   6.850   2.630   6.911  0.4578 -0.3411 -0.4506
 6921TIP3    H142398   6.865   2.721   6.936  1.1147 -0.4982 -0.2436
 6921TIP3    H242399   6.788   2.634   6.839 -0.7133  0.1800  0.5546
 6922TIP3   OH242400   5.849   1.078   0.046 -0.5192 -0.5110 -0.5526
 6922TIP3    H142401   5.939   1.103   0.066 -1.0319  1.7785 -0.7422
 6922TIP3    H242402   5.832   1.115  -0.041 -1.8774 -0.1356 -0.1635
 6923TIP3   OH242403   5.640   1.183   7.700 -0.2008  0.8639 -0.1211
 6923TIP3    H142404   5.592   1.230   7.632 -0.2625 -0.6231 -1.1307
 6923TIP3    H242405   5.579   1.117   7.732 -0.3394  1.8249  1.7465
 6924TIP3   OH242406   3.663   6.638   8.142 -0.5895  0.4108  0.0094
 6924TIP3    H142407   3.630   6.663   8.055 -0.3328  0.9973  0.0703
 6924TIP3    H242408   3.601   6.677   8.203 -1.0191 -0.3811  0.0901
 6925TIP3   OH242409   4.459   4.903   0.926  0.0716  0.6269 -0.0499
 6925TIP3    H142410   4.516   4.839   0.969  1.9793  0.7800 -2.1544
 6925TIP3    H242411   4.379   4.854   0.906  1.6919 -1.4419 -2.1464
 6926TIP3   OH242412   2.165   2.938   0.624 -0.3810 -0.2220  0.0401
 6926TIP3    H142413   2.238   2.919   0.565  1.4108  0.8813  1.7922
 6926TIP3    H242414   2.137   3.026   0.599 -1.4416 -0.7913 -0.8890
 6927TIP3   OH242415   3.115   5.337   0.116 -0.6275  0.0124 -0.4357
 6927TIP3    H142416   3.104   5.418   0.166  0.0423 -0.1380 -0.0283
 6927TIP3    H242417   3.126   5.269   0.182 -2.3921 -0.6264 -0.7471
 6928TIP3   OH242418   0.363   6.888   6.823  0.0236 -0.3077 -0.1249
 6928TIP3    H142419   0.334   6.893   6.914 -0.3221 -1.0064 -0.1857
 6928TIP3    H242420   0.349   6.976   6.788 -1.8559 -0.5503 -0.0838
 6929TIP3   OH242421   5.740   3.721   8.031 -0.2725  0.4752 -0.3800
 6929TIP3    H142422   5.730   3.754   7.942 -0.4978  0.6524 -0.2882
 6929TIP3    H242423   5.831   3.741   8.054 -0.7682  2.2735  0.1780
 6930TIP3   OH242424   3.412   2.143   1.100  0.5310 -0.0159 -0.1578
 6930TIP3    H142425   3.330   2.168   1.057 -0.4062 -0.7399  1.1377
 6930TIP3    H242426   3.436   2.060   1.059 -0.2697 -0.6229  0.5853
 6931TIP3   OH242427   0.224   3.355   0.020  0.1674  0.1607  0.2705
 6931TIP3    H142428   0.258   3.404   0.095  0.1571 -2.2373  1.9681
 6931TIP3    H242429   0.291   3.288   0.003 -0.9865 -0.9283 -0.1644
 6932TIP3   OH242430   3.232   4.833   7.122  0.1203 -0.1625  0.4913
 6932TIP3    H142431   3.140   4.808   7.119 -0.0553  0.3605  1.1552
 6932TIP3    H242432   3.270   4.798   7.042 -0.9634  0.8125 -0.4742
 6933TIP3   OH242433   2.872   0.460   1.620  0.2416  0.2899 -0.2390
 6933TIP3    H142434   2.889   0.437   1.711  0.0517 -1.0294 -0.5182
 6933TIP3    H242435   2.930   0.402   1.569 -2.8774 -2.3581 -1.1127
 6934TIP3   OH242436   5.422   2.205   1.812 -0.7443  0.6146  0.0003
 6934TIP3    H142437   5.362   2.269   1.772  1.1810  2.3332 -0.2959
 6934TIP3    H242438   5.490   2.258   1.852 -1.2478 -1.1101  3.5572
 6935TIP3   OH242439   3.365   5.754   1.349 -0.4823  0.0278 -0.1201
 6935TIP3    H142440   3.309   5.693   1.397 -0.8893  1.0265  0.7179
 6935TIP3    H242441   3.357   5.727   1.258 -0.0010 -1.6669  0.3150
 6936TIP3   OH242442   2.538   0.529   6.324 -0.1312  0.4271  0.3304
 6936TIP3    H142443   2.481   0.451   6.327 -0.2153  0.4397 -0.6392
 6936TIP3    H242444   2.511   0.581   6.399  0.8895 -1.1302  1.8489
 6937TIP3   OH242445   6.911   2.104   7.273  0.6650 -0.3354 -0.3034
 6937TIP3    H142446   6.908   2.014   7.306  3.7210 -0.3653  0.2186
 6937TIP3    H242447   6.960   2.152   7.341 -0.4841  1.6381 -0.7971
 6938TIP3   OH242448   6.147   0.169   1.118  0.4976  0.3566  0.2534
 6938TIP3    H142449   6.128   0.132   1.031  1.6274 -1.8740  0.8859
 6938TIP3    H242450   6.063   0.165   1.164  0.3766 -0.6063 -0.0182
 6939TIP3   OH242451   2.096   3.249   6.359 -0.1788 -0.6213  0.1089
 6939TIP3    H142452   2.091   3.188   6.285  0.4906  0.1602 -0.5981
 6939TIP3    H242453   2.048   3.205   6.429  0.2746 -1.9588 -0.3824
 6940TIP3   OH242454   0.855   3.898   0.840  0.3813  0.0380 -0.1494
 6940TIP3    H142455   0.780   3.900   0.898  0.9256  0.5395  0.5515
 6940TIP3    H242456   0.906   3.822   0.869  1.1247  0.8176  0.6626
 6941TIP3   OH242457   4.465   2.558   8.007  0.1494  0.3678  0.3777
 6941TIP3    H142458   4.549   2.590   7.975 -0.2221  1.0716  0.0795
 6941TIP3    H242459   4.475   2.556   8.102  1.4824 -2.3539  0.2870
 6942TIP3   OH242460   2.420   6.434   8.019 -0.1734  0.0854 -0.9430
 6942TIP3    H142461   2.396   6.341   8.028  0.1460  0.1173  0.4279
 6942TIP3    H242462   2.433   6.464   8.109 -0.6614  1.5735 -1.3542
 6943TIP3   OH242463   3.041   2.845   1.575 -0.1786  0.2608 -1.0508
 6943TIP3    H142464   3.077   2.756   1.567  0.9865  0.7464 -1.4633
 6943TIP3    H242465   3.053   2.884   1.489  0.0592  1.0859 -0.6590
 6944TIP3   OH242466   4.421   3.682   7.867 -0.0028  0.4481 -0.3152
 6944TIP3    H142467   4.349   3.701   7.807  0.2471  1.7222 -0.2563
 6944TIP3    H242468   4.379   3.655   7.948 -0.3570 -0.6768 -0.8601
 6945TIP3   OH242469   1.475   5.393   0.286 -0.5954  0.2978 -0.2317
 6945TIP3    H142470   1.417   5.412   0.213 -0.2210  0.3326 -0.5272
 6945TIP3    H242471   1.520   5.476   0.303  0.2096 -0.0103 -0.7707
 6946TIP3   OH242472   3.891   5.589   7.163  0.0614  0.2782  1.0348
 6946TIP3    H142473   3.939   5.513   7.195  1.7769  1.4858  1.4395
 6946TIP3    H242474   3.903   5.586   7.068  0.5675  0.3216  1.0945
 6947TIP3   OH242475   2.835   6.285   7.036 -0.0327  0.4587  0.0712
 6947TIP3    H142476   2.867   6.199   7.064  0.7814  0.5879 -0.4559
 6947TIP3    H242477   2.882   6.347   7.091 -2.2806  0.5291  2.0917
 6948TIP3   OH242478   1.033   0.334   1.767  0.6449 -0.2735 -0.2202
 6948TIP3    H142479   1.080   0.393   1.707 -0.0626  1.5002  0.9019
 6948TIP3    H242480   0.957   0.306   1.717  0.2119  0.9656 -0.2985
 6949TIP3   OH242481   3.236   5.139   0.326  0.6436 -0.3920 -0.1388
 6949TIP3    H142482   3.215   5.046   0.317  1.3676 -0.5417 -0.3075
 6949TIP3    H242483   3.311   5.142   0.385 -0.4572  0.2130  1.3093
 6950TIP3   OH242484   5.994   2.085   7.196 -0.0943  0.7527 -0.1990
 6950TIP3    H142485   6.078   2.107   7.236  0.6431 -1.4031 -0.4207
 6950TIP3    H242486   5.949   2.033   7.263 -0.2213 -0.1152 -0.9432
 6951TIP3   OH242487   1.696   3.244   0.722  0.5894 -0.7082  0.5668
 6951TIP3    H142488   1.769   3.298   0.692  0.3698  0.6322  2.2544
 6951TIP3    H242489   1.621   3.275   0.670  1.1422 -2.0312 -1.1084
 6952TIP3   OH242490   0.489   6.103   7.492  0.0055 -0.4045 -0.3561
 6952TIP3    H142491   0.485   6.085   7.398 -1.2011 -0.1959 -0.3610
 6952TIP3    H242492   0.570   6.152   7.504 -0.2515  0.3167 -1.4335
 6953TIP3   OH242493   2.032   1.810   0.247  0.6368  0.0503  0.3657
 6953TIP3    H142494   2.043   1.855   0.164 -0.7927 -0.6742 -0.2617
 6953TIP3    H242495   2.121   1.790   0.276  1.1581 -0.6333 -1.5317
 6954TIP3   OH242496   2.073   4.161   0.384  0.1362  0.8010  0.0861
 6954TIP3    H142497   2.006   4.218   0.346 -1.0684 -1.3255 -1.1824
 6954TIP3    H242498   2.024   4.091   0.427  1.5469  0.3210  0.9974
 6955TIP3   OH242499   0.409   5.381   1.659 -0.5952 -0.7501 -0.3407
 6955TIP3    H142500   0.380   5.460   1.704 -0.6531 -0.5024 -0.8007
 6955TIP3    H242501   0.478   5.345   1.714 -0.2188 -0.1003 -0.3808
 6956TIP3   OH242502   1.972   6.456   0.493  0.6276 -0.4839 -0.6248
 6956TIP3    H142503   1.936   6.512   0.425  1.4864  2.1259  0.9477
 6956TIP3    H242504   1.896   6.411   0.529 -1.0374  3.4496  1.3482
 6957TIP3   OH242505   4.808   4.108   8.053 -0.4599  0.7425  0.1762
 6957TIP3    H142506   4.847   4.178   8.105 -1.5084  0.0456  1.9912
 6957TIP3    H242507   4.740   4.071   8.109 -0.4687 -1.2177 -1.0207
 6958TIP3   OH242508   2.891   6.867   1.206  0.4298 -0.6144 -0.1032
 6958TIP3    H142509   2.958   6.882   1.272  0.9631  0.3710 -0.8450
 6958TIP3    H242510   2.808   6.882   1.251  0.7163 -1.2657  0.6691
 6959TIP3   OH242511   5.610   2.003   6.535 -0.2605  0.8692 -0.5162
 6959TIP3    H142512   5.669   2.039   6.469  0.0895  0.7939 -0.2470
 6959TIP3    H242513   5.584   1.917   6.500  1.3115  0.0405  0.2332
 6960TIP3   OH242514   1.905   2.789   8.402 -0.9817  0.6138  0.0403
 6960TIP3    H142515   1.874   2.737   8.476  2.9282 -2.6816 -0.2324
 6960TIP3    H242516   1.854   2.757   8.327 -0.0975 -1.4061  0.2476
 6961TIP3   OH242517   4.235   5.579   8.100 -0.2222 -0.2688 -0.4215
 6961TIP3    H142518   4.149   5.562   8.061  0.0564  1.1416 -1.7087
 6961TIP3    H242519   4.243   5.513   8.169 -1.1319 -2.2777 -2.1328
 6962TIP3   OH242520   1.759   4.680   0.383 -0.1841 -0.5950 -0.1649
 6962TIP3    H142521   1.783   4.644   0.298  1.0304  1.4452 -0.7328
 6962TIP3    H242522   1.685   4.738   0.365  0.5196  0.3801  0.0415
 6963TIP3   OH242523   4.155   2.300   7.634  0.8559 -0.5313 -0.0315
 6963TIP3    H142524   4.104   2.314   7.714  0.6716 -0.4688 -0.1611
 6963TIP3    H242525   4.102   2.239   7.582  0.8804 -0.4109 -0.1973
 6964TIP3   OH242526   4.185   1.550   7.103  0.2552  0.2564 -0.3738
 6964TIP3    H142527   4.092   1.538   7.085 -0.0938  0.0144  1.4147
 6964TIP3    H242528   4.197   1.645   7.107  0.3249  0.3141 -1.6648
 6965TIP3   OH242529   5.328   2.872   8.356 -0.3709  0.5884 -0.3116
 6965TIP3    H142530   5.394   2.858   8.289  0.2678 -1.2124  0.6251
 6965TIP3    H242531   5.271   2.795   8.351  2.0996 -1.8833  3.7736
 6966TIP3   OH242532   5.103   3.096   1.554 -0.3826  0.5658 -0.3944
 6966TIP3    H142533   5.027   3.141   1.517 -0.8142  1.9735  2.0178
 6966TIP3    H242534   5.069   3.052   1.632  1.1498  0.7936  0.4385
 6967TIP3   OH242535   6.559   0.372   8.187 -0.5033  0.4145 -0.6142
 6967TIP3    H142536   6.606   0.298   8.226  0.7905  0.6031 -1.7794
 6967TIP3    H242537   6.545   0.432   8.260 -0.4009 -0.3706  0.0724
 6968TIP3   OH242538   2.140   4.290   8.246 -0.4948  0.2354  0.0920
 6968TIP3    H142539   2.056   4.258   8.278 -0.0322 -0.6591  0.4304
 6968TIP3    H242540   2.118   4.336   8.164 -1.2128 -0.6714 -0.2387
 6969TIP3   OH242541   3.760   0.037   2.672  0.4943 -0.2034  0.0479
 6969TIP3    H142542   3.801  -0.004   2.596  0.9024  1.3856 -0.6317
 6969TIP3    H242543   3.669   0.051   2.645  0.8896  1.3268 -0.5998
 6970TIP3   OH242544   1.462   5.368   2.289 -0.4067 -0.0430  0.1092
 6970TIP3    H142545   1.538   5.346   2.342 -1.1385 -0.4319  1.0231
 6970TIP3    H242546   1.419   5.284   2.272 -0.1315  0.0554 -1.2126
 6971TIP3   OH242547   0.781   2.154   8.062 -0.3400 -0.0242  0.1295
 6971TIP3    H142548   0.836   2.233   8.053  1.6402 -1.2894  0.4443
 6971TIP3    H242549   0.692   2.187   8.062  0.4514  2.4180  1.9143
 6972TIP3   OH242550   3.079   4.538   7.996 -0.4367 -0.1418  0.2381
 6972TIP3    H142551   3.142   4.596   8.039  0.2920 -1.2758  0.7395
 6972TIP3    H242552   2.995   4.581   8.008 -0.1032  0.1114  1.8886
 6973TIP3   OH242553   1.689   5.207   1.797 -0.1132  0.5344  0.6797
 6973TIP3    H142554   1.777   5.190   1.762 -0.6710  1.0257 -1.0949
 6973TIP3    H242555   1.677   5.301   1.785 -1.0518  0.3943  0.4214
 6974TIP3   OH242556   1.557   3.813   1.165  0.1700 -0.1924  0.0130
 6974TIP3    H142557   1.616   3.888   1.168  2.3886 -1.8275  2.3555
 6974TIP3    H242558   1.483   3.837   1.219  0.0590  0.8591 -0.5884
 6975TIP3   OH242559   2.609   5.951   0.409 -0.0525 -0.2914 -0.4441
 6975TIP3    H142560   2.634   5.967   0.500 -0.6504 -1.0638 -0.1226
 6975TIP3    H242561   2.673   5.998   0.357  0.5244 -0.1526  0.3771
 6976TIP3   OH242562   1.553   1.771   1.628 -0.2954 -0.3869 -0.3261
 6976TIP3    H142563   1.601   1.854   1.629  0.3465 -0.7316  1.2067
 6976TIP3    H242564   1.469   1.791   1.669  0.0097 -0.5590  0.3985
 6977TIP3   OH242565   0.263   5.793   1.157 -0.2214 -0.1132 -0.0499
 6977TIP3    H142566   0.168   5.800   1.158 -0.2329 -0.2176  0.8430
 6977TIP3    H242567   0.283   5.723   1.219  0.4742  0.6859  0.6750
 6978TIP3   OH242568   2.614   2.851   0.487  0.4299 -0.1392 -0.2668
 6978TIP3    H142569   2.587   2.839   0.578 -0.4261 -0.8631 -0.6042
 6978TIP3    H242570   2.697   2.803   0.480  0.8783  0.5346  0.3053
 6979TIP3   OH242571   5.409   6.371   8.244 -0.0068  0.1765  0.6878
 6979TIP3    H142572   5.487   6.402   8.289  1.2520 -0.5262 -0.8698
 6979TIP3    H242573   5.389   6.286   8.284  0.4087  0.0815  0.6956
 6980TIP3   OH242574   0.567   4.420   7.239 -0.2374  0.3557 -0.2442
 6980TIP3    H142575   0.511   4.453   7.309  0.0342 -0.3716  0.3256
 6980TIP3    H242576   0.579   4.496   7.181 -1.1701  0.7296  0.0240
 6981TIP3   OH242577   1.880   4.146   7.321  0.3808  0.4713 -0.1470
 6981TIP3    H142578   1.899   4.064   7.367 -2.6021 -0.8498 -0.9903
 6981TIP3    H242579   1.966   4.179   7.295  1.7717 -1.8459  1.1024
 6982TIP3   OH242580   6.822   2.951   6.794  0.5003 -0.3728 -0.9107
 6982TIP3    H142581   6.832   2.985   6.705  0.0237  0.8472 -0.5114
 6982TIP3    H242582   6.759   3.010   6.835  1.0903 -0.6238  0.3930
 6983TIP3   OH242583   4.260   5.450   1.393 -0.3247 -0.0319  0.0737
 6983TIP3    H142584   4.243   5.371   1.446 -1.3526 -0.5187 -0.9462
 6983TIP3    H242585   4.211   5.436   1.312  0.6223  1.0336 -0.7184
 6984TIP3   OH242586   5.718   1.659   6.691 -0.2317 -0.0408 -0.3652
 6984TIP3    H142587   5.778   1.731   6.670  0.9341 -0.7921  0.2723
 6984TIP3    H242588   5.718   1.604   6.612  1.0322 -0.7628  0.1059
 6985TIP3   OH242589   4.200   0.024   0.167  0.6724 -0.2970 -0.2027
 6985TIP3    H142590   4.226  -0.065   0.143  0.0402 -0.0723 -1.8004
 6985TIP3    H242591   4.107   0.029   0.144  0.7154  0.8090 -0.1880
 6986TIP3   OH242592   1.483   6.042   6.190  1.0229 -0.2757 -0.6200
 6986TIP3    H142593   1.416   5.986   6.228  0.8053 -1.2431 -2.3180
 6986TIP3    H242594   1.436   6.123   6.168  0.5559 -0.6785 -1.1465
 6987TIP3   OH242595   4.674   3.713   7.730  0.3302  0.2022 -0.2843
 6987TIP3    H142596   4.595   3.695   7.781 -0.5252  0.6732 -1.3941
 6987TIP3    H242597   4.717   3.784   7.778  0.0724 -0.0495  0.3265
 6988TIP3   OH242598   1.683   3.324   2.320  0.4694  0.4228  0.1160
 6988TIP3    H142599   1.714   3.318   2.411  0.7220 -0.9456 -0.0466
 6988TIP3    H242600   1.682   3.418   2.302  1.0709  0.6840  1.3103
 6989TIP3   OH242601   2.286   4.805   0.859 -0.4250 -0.2164 -0.0742
 6989TIP3    H142602   2.212   4.745   0.870 -1.4213  1.2082  1.3495
 6989TIP3    H242603   2.295   4.815   0.764 -1.1193 -1.5024 -0.3037
 6990TIP3   OH242604   1.375   4.028   0.916 -0.2145 -0.2604 -1.0012
 6990TIP3    H142605   1.432   3.981   0.856  1.4621 -1.1894  1.1877
 6990TIP3    H242606   1.346   4.105   0.866  1.5915 -0.6280 -2.7496
 6991TIP3   OH242607   1.429   1.853   7.720  0.0390 -0.2638  0.2332
 6991TIP3    H142608   1.378   1.930   7.695  2.8336  1.5364 -0.3409
 6991TIP3    H242609   1.457   1.814   7.637 -1.3182 -1.9889  0.5167
 6992TIP3   OH242610   6.546   6.166   1.390  0.2457  0.0879  0.1729
 6992TIP3    H142611   6.615   6.123   1.340  0.0906 -0.5074  0.4647
 6992TIP3    H242612   6.484   6.096   1.411 -1.2665  0.8769 -1.4150
 6993TIP3   OH242613   2.244   5.738   0.870 -0.6249 -0.1394 -0.5094
 6993TIP3    H142614   2.196   5.792   0.933 -2.3424 -0.8086 -1.1864
 6993TIP3    H242615   2.310   5.693   0.923 -2.6071 -1.3864  1.0692
 6994TIP3   OH242616   2.749   0.996   6.658  0.0357 -0.1081  0.4283
 6994TIP3    H142617   2.733   0.986   6.564 -2.3865  0.6746  0.6637
 6994TIP3    H242618   2.839   1.028   6.664 -0.2910  1.5109 -1.7762
 6995TIP3   OH242619   2.264   0.164   8.178  0.2733 -0.3335  0.5216
 6995TIP3    H142620   2.278   0.242   8.125  2.6920 -1.4343 -0.6360
 6995TIP3    H242621   2.175   0.173   8.211  0.1639  2.4499 -0.2839
 6996TIP3   OH242622   2.680   0.810   8.402 -0.3125  0.8182  0.0895
 6996TIP3    H142623   2.748   0.794   8.338  0.3646  1.2257  0.6943
 6996TIP3    H242624   2.605   0.841   8.351 -0.6032 -1.1462 -0.7582
 6997TIP3   OH242625   5.917   5.381   6.564  0.4901 -0.1494 -0.1740
 6997TIP3    H142626   5.981   5.450   6.550  0.8227 -0.8432 -2.5435
 6997TIP3    H242627   5.858   5.387   6.489  0.7500 -2.6266 -0.6675
 6998TIP3   OH242628   5.293   5.443   2.124  0.8684 -0.3457 -0.4055
 6998TIP3    H142629   5.299   5.519   2.065 -0.6617  0.1722  0.0543
 6998TIP3    H242630   5.224   5.467   2.186  1.4426 -1.4851  0.7134
 6999TIP3   OH242631   6.102   3.295   7.871  0.6950  0.5011  1.0793
 6999TIP3    H142632   6.110   3.284   7.965  1.4188  1.5176  1.1644
 6999TIP3    H242633   6.190   3.320   7.842  0.5815 -0.1885  0.0687
 7000TIP3   OH242634   6.147   4.037   0.431  0.2078 -0.2077  0.0064
 7000TIP3    H142635   6.110   4.035   0.519 -0.5612 -1.5659 -0.3086
 7000TIP3    H242636   6.098   3.969   0.383  0.7845  0.3208 -1.3882
 7001TIP3   OH242637   0.035   1.831   0.046 -0.0673  0.1370  0.1211
 7001TIP3    H142638   0.002   1.856  -0.040  0.7426 -0.0919 -0.2668
 7001TIP3    H242639   0.129   1.820   0.034  0.0744  0.1954  1.0615
 7002TIP3   OH242640   5.257   1.672   2.499 -0.4036 -0.0162  0.4048
 7002TIP3    H142641   5.308   1.611   2.552  1.3881  1.6608  0.7562
 7002TIP3    H242642   5.189   1.704   2.558  0.2654  0.2464  1.0555
 7003TIP3   OH242643   2.600   5.357   7.419  0.1097  0.7554 -0.0304
 7003TIP3    H142644   2.602   5.269   7.457 -0.7527  1.3279  1.3729
 7003TIP3    H242645   2.611   5.341   7.325  0.4598 -0.8143  0.2373
 7004TIP3   OH242646   1.671   0.132   1.193 -0.7013 -0.1282 -0.0094
 7004TIP3    H142647   1.580   0.146   1.218 -1.2842 -2.1610 -0.8072
 7004TIP3    H242648   1.700   0.058   1.247 -0.7174 -1.8884 -2.2620
 7005TIP3   OH242649   0.300   0.372   1.000 -0.0264  0.1904  0.4268
 7005TIP3    H142650   0.323   0.292   1.047 -0.8496  1.1408  2.5594
 7005TIP3    H242651   0.220   0.348   0.952 -0.1420 -0.3295  0.8637
 7006TIP3   OH242652   2.807   4.987   6.785  0.6872  0.0134  0.2365
 7006TIP3    H142653   2.863   4.922   6.743  1.0148  0.7066 -0.4325
 7006TIP3    H242654   2.743   5.010   6.718  0.9308  0.7998  0.2624
 7007TIP3   OH242655   5.865   6.295   0.073  0.1498  0.3758 -0.1414
 7007TIP3    H142656   5.944   6.263   0.117 -0.5866 -0.6310  0.4937
 7007TIP3    H242657   5.864   6.389   0.092  1.8040  0.6353 -1.1525
 7008TIP3   OH242658   2.215   1.722   7.664 -1.0098 -0.2339 -0.2821
 7008TIP3    H142659   2.147   1.691   7.723 -0.2691 -0.6810  0.3497
 7008TIP3    H242660   2.233   1.812   7.693  1.0121 -1.1927  1.7876
 7009TIP3   OH242661   3.611   2.072   8.073  0.0406  0.3013 -0.2881
 7009TIP3    H142662   3.596   2.122   7.993  1.2418  2.0093  0.4813
 7009TIP3    H242663   3.707   2.070   8.083 -0.0220  2.8805  2.6319
 7010TIP3   OH242664   2.441   3.508   8.477  0.3331  0.1988  0.2091
 7010TIP3    H142665   2.415   3.562   8.402 -1.6260 -0.6304  0.2281
 7010TIP3    H242666   2.495   3.567   8.531  0.0613  1.4491 -0.8230
 7011TIP3   OH242667   0.486   1.901   1.316  0.5481 -0.6223 -0.6537
 7011TIP3    H142668   0.435   1.853   1.250  1.8293 -1.1217 -1.3211
 7011TIP3    H242669   0.567   1.850   1.324  0.9069  0.1038  0.4307
 7012TIP3   OH242670   3.492   3.863   2.063  0.0414  0.0679 -0.2570
 7012TIP3    H142671   3.520   3.946   2.026  0.9911  0.0155  0.3088
 7012TIP3    H242672   3.542   3.855   2.145  1.7290 -2.1134 -1.3879
 7013TIP3   OH242673   3.620   3.551   0.524 -0.0450  0.0959 -0.1104
 7013TIP3    H142674   3.657   3.483   0.467 -2.1325 -0.5781 -0.7538
 7013TIP3    H242675   3.580   3.502   0.596 -2.2509  0.5240 -0.9727
 7014TIP3   OH242676   6.657   3.652   1.166  0.0148 -0.9569 -0.2287
 7014TIP3    H142677   6.653   3.618   1.256 -1.6026 -2.3213 -0.7886
 7014TIP3    H242678   6.634   3.578   1.111 -1.2222  0.4165 -1.6489
 7015TIP3   OH242679   0.121   3.668   1.022  0.1670 -0.1408 -0.0090
 7015TIP3    H142680   0.140   3.576   1.038  2.1889  0.2214 -0.0350
 7015TIP3    H242681   0.202   3.713   1.044 -0.0061  1.3912 -2.1713
 7016TIP3   OH242682   1.490   4.290   7.702 -0.3329  0.1621  0.6022
 7016TIP3    H142683   1.488   4.373   7.655 -0.0550 -0.6002 -0.7968
 7016TIP3    H242684   1.583   4.275   7.719 -0.2627 -0.4899 -0.3135
 7017TIP3   OH242685   4.421   0.495   0.077 -0.0099  0.0065  0.6664
 7017TIP3    H142686   4.363   0.421   0.093  0.2503 -0.3427  0.0194
 7017TIP3    H242687   4.365   0.572   0.090 -0.3857 -0.3099  0.9349
 7018TIP3   OH242688   5.503   2.168   1.291  0.0619 -0.3500  0.7113
 7018TIP3    H142689   5.572   2.149   1.228 -0.0622  1.0459  0.1219
 7018TIP3    H242690   5.508   2.096   1.355 -0.6985 -2.6160 -1.5966
 7019TIP3   OH242691   0.547   2.140   1.542  0.7186 -0.2391  0.1336
 7019TIP3    H142692   0.530   2.078   1.471 -1.9294 -2.4533  2.4489
 7019TIP3    H242693   0.640   2.130   1.560  0.8825 -1.6794 -1.2071
 7020TIP3   OH242694   2.596   2.421   0.142 -0.1722 -0.2020 -0.0246
 7020TIP3    H142695   2.664   2.468   0.192 -0.4575 -1.7231  1.9255
 7020TIP3    H242696   2.645   2.360   0.088  0.0628 -0.1839  0.1646
 7021TIP3   OH242697   0.138   6.449   6.894 -0.2714 -0.3369 -1.0581
 7021TIP3    H142698   0.230   6.437   6.870 -0.8512  1.2440 -4.6574
 7021TIP3    H242699   0.093   6.375   6.853 -0.9226  0.4254 -1.7330
 7022TIP3   OH242700   6.076   5.942   7.100  0.0359  0.2318  0.3924
 7022TIP3    H142701   6.094   5.951   7.193 -3.1471  1.0238  1.0606
 7022TIP3    H242702   5.993   5.893   7.096  0.5661 -0.6006 -2.0728
 7023TIP3   OH242703   3.809   1.579   0.236 -0.1180 -0.4111 -0.4735
 7023TIP3    H142704   3.828   1.622   0.319 -0.0925 -1.3088 -0.0067
 7023TIP3    H242705   3.714   1.571   0.234 -0.3011  1.3793 -1.4512
 7024TIP3   OH242706   6.365   6.858   1.550  0.1025 -0.2781  0.4542
 7024TIP3    H142707   6.291   6.889   1.498  1.2130 -1.1760 -1.8033
 7024TIP3    H242708   6.325   6.812   1.624 -1.5419  1.7743  0.9282
 7025TIP3   OH242709   2.650   6.244   8.040 -0.4143 -0.0754 -0.2571
 7025TIP3    H142710   2.639   6.207   7.952 -0.0025 -0.3050 -0.2121
 7025TIP3    H242711   2.593   6.190   8.095 -2.9937  1.8372 -0.8142
 7026TIP3   OH242712   3.033   1.091   6.923 -0.0164  0.1413 -0.2515
 7026TIP3    H142713   3.105   1.029   6.908  0.8896  1.0742  0.1132
 7026TIP3    H242714   3.001   1.113   6.836  0.1661 -0.2641 -0.4219
 7027TIP3   OH242715   1.580   2.699   6.787  0.0388  0.4413  0.6219
 7027TIP3    H142716   1.538   2.704   6.701  1.1578  1.6688  0.1063
 7027TIP3    H242717   1.514   2.661   6.844 -0.4961 -1.0893 -0.9175
 7028TIP3   OH242718   6.243   6.250   1.386  0.4721 -0.0958  0.1768
 7028TIP3    H142719   6.182   6.222   1.454  1.7424 -2.2619  0.5155
 7028TIP3    H242720   6.291   6.170   1.362  1.5286  1.0440 -1.7489
 7029TIP3   OH242721   0.664   1.245   1.255  0.2098 -0.1388  0.0434
 7029TIP3    H142722   0.643   1.156   1.285 -2.0972 -0.2804 -1.7601
 7029TIP3    H242723   0.699   1.233   1.167 -0.3602  0.7480 -0.3128
 7030TIP3   OH242724   0.192   1.535   0.698 -0.2588  0.3975 -0.3502
 7030TIP3    H142725   0.225   1.539   0.788 -0.4230 -0.5856 -0.2380
 7030TIP3    H242726   0.104   1.572   0.703  0.1052  1.2755 -0.3001
 7031TIP3   OH242727   2.112   0.461   7.782  0.0692 -0.2383  0.5148
 7031TIP3    H142728   2.110   0.460   7.878  0.0292 -0.8535  0.5081
 7031TIP3    H242729   2.180   0.525   7.761  1.0137 -1.0627  0.9765
 7032TIP3   OH242730   5.576   0.270   8.226 -0.0194 -0.5511  0.4460
 7032TIP3    H142731   5.578   0.363   8.205 -2.8669  0.0386  2.2818
 7032TIP3    H242732   5.608   0.226   8.146  1.7050  1.9281 -0.3413
 7033TIP3   OH242733   2.636   5.071   6.589 -0.5065  0.6611 -0.2328
 7033TIP3    H142734   2.564   5.132   6.603 -0.0051  1.2262 -0.0512
 7033TIP3    H242735   2.602   5.007   6.527 -1.7730 -0.1192  1.1809
 7034TIP3   OH242736   0.427   6.409   6.583 -0.5545  0.5803  0.3471
 7034TIP3    H142737   0.437   6.504   6.585 -0.9318  0.6123  0.9381
 7034TIP3    H242738   0.416   6.384   6.674  0.4717 -0.1415  0.2816
 7035TIP3   OH242739   3.975   6.630   0.150 -0.4195  0.1721 -0.0992
 7035TIP3    H142740   4.049   6.571   0.136 -0.0636  0.4486  0.5676
 7035TIP3    H242741   3.918   6.615   0.075 -1.1818 -2.2751  0.8844
 7036TIP3   OH242742   6.406   2.681   1.171 -1.0124  0.6456 -0.1697
 7036TIP3    H142743   6.419   2.700   1.078  0.5798  1.5222  0.1914
 7036TIP3    H242744   6.338   2.614   1.173 -0.4148 -0.0654 -2.0269
 7037TIP3   OH242745   1.124   4.857   7.480  0.1312 -0.0730  0.0447
 7037TIP3    H142746   1.212   4.862   7.518 -0.4067 -2.4998  1.8332
 7037TIP3    H242747   1.130   4.790   7.413 -0.2520  0.1756 -0.2446
 7038TIP3   OH242748   5.916   5.394   1.594  0.6211  0.3404  0.5702
 7038TIP3    H142749   5.859   5.410   1.670  0.1991  0.3126  0.2623
 7038TIP3    H242750   6.005   5.401   1.629  0.4531  1.8677  0.7555
 7039TIP3   OH242751   4.309   0.116   2.157  0.5289  0.4029  0.5304
 7039TIP3    H142752   4.253   0.069   2.095  0.6931  1.7809 -0.7246
 7039TIP3    H242753   4.355   0.047   2.204  0.5495 -0.7101 -1.0291
 7040TIP3   OH242754   6.826   6.482   7.331 -0.3268  0.0902 -0.2904
 7040TIP3    H142755   6.892   6.528   7.383 -1.0975  0.6232  0.2468
 7040TIP3    H242756   6.874   6.413   7.286  1.2991  2.6397 -2.7945
 7041TIP3   OH242757   1.086   1.808   7.379 -0.0040  0.2536 -0.5327
 7041TIP3    H142758   1.150   1.753   7.334  0.2312  0.1846 -0.1183
 7041TIP3    H242759   1.134   1.887   7.404 -0.4429  0.8279 -1.4742
 7042TIP3   OH242760   1.611   2.969   7.690  0.0089  0.3564  0.5038
 7042TIP3    H142761   1.610   3.013   7.605 -0.9438 -1.1426 -0.2996
 7042TIP3    H242762   1.700   2.937   7.700 -0.3308 -1.1022 -0.8402
 7043TIP3   OH242763   4.335   6.305   2.771  0.3983  0.4568 -0.0011
 7043TIP3    H142764   4.314   6.219   2.736  0.8021  0.9156 -1.4458
 7043TIP3    H242765   4.251   6.349   2.779  0.1546 -0.1710  1.0798
 7044TIP3   OH242766   0.670   0.276   7.881 -0.8313  0.0766 -0.6986
 7044TIP3    H142767   0.610   0.228   7.824  2.1945 -2.7451 -1.9057
 7044TIP3    H242768   0.689   0.357   7.833  0.4425 -1.5265 -3.1547
 7045TIP3   OH242769   6.559   3.441   8.040 -0.0597  0.3624  0.3614
 7045TIP3    H142770   6.476   3.404   8.070 -0.4250 -0.5377 -1.6033
 7045TIP3    H242771   6.595   3.374   7.981  0.7143  1.8974 -0.9827
 7046TIP3   OH242772   0.438   1.535   8.266  0.9144  0.1592 -0.6506
 7046TIP3    H142773   0.343   1.543   8.259  0.8810  0.6947  0.2088
 7046TIP3    H242774   0.472   1.587   8.194  0.5542  0.1631 -0.8176
 7047TIP3   OH242775   0.140   4.982   2.149 -0.2388 -0.3522 -0.4162
 7047TIP3    H142776   0.133   5.049   2.080 -0.1806 -1.0217 -1.0857
 7047TIP3    H242777   0.230   4.990   2.180  0.2730 -1.1491 -1.5976
 7048TIP3   OH242778   4.912   4.612   1.683  0.3851 -0.4142  0.5358
 7048TIP3    H142779   4.927   4.651   1.597 -2.3014  0.7549  0.4963
 7048TIP3    H242780   4.912   4.686   1.743  2.4669 -1.2446  1.6534
 7049TIP3   OH242781   3.305   6.731   7.709 -0.0064 -0.5366  0.3024
 7049TIP3    H142782   3.360   6.750   7.633  0.6257  0.8305  1.0685
 7049TIP3    H242783   3.366   6.728   7.782 -0.7667 -0.5418  0.9457
 7050TIP3   OH242784   0.389   1.116   8.239 -0.3771 -0.4770  0.4598
 7050TIP3    H142785   0.381   1.179   8.311 -1.9734  0.1175 -0.1885
 7050TIP3    H242786   0.331   1.044   8.264  0.5925 -1.2121  0.6724
 7051TIP3   OH242787   1.808   2.082   1.943 -0.5492 -0.8737 -0.1968
 7051TIP3    H142788   1.856   2.110   2.021 -2.8162  0.6387  0.7617
 7051TIP3    H242789   1.817   2.155   1.882 -2.0393 -0.2927  0.2296
 7052TIP3   OH242790   3.075   6.008   6.266 -0.0624 -0.3041 -0.0886
 7052TIP3    H142791   3.004   6.072   6.275 -0.0945 -0.4506  0.8305
 7052TIP3    H242792   3.046   5.933   6.318  0.3055 -0.7777 -0.5556
 7053TIP3   OH242793   1.592   6.732   7.825 -0.9499 -0.7991 -0.1159
 7053TIP3    H142794   1.557   6.773   7.904  0.1192  0.5300 -0.2784
 7053TIP3    H242795   1.517   6.723   7.767 -1.2843  0.7928  0.0174
 7054TIP3   OH242796   2.502   3.107   7.124 -0.4648 -0.7184 -0.4520
 7054TIP3    H142797   2.436   3.040   7.142 -1.3653  0.1252 -0.5041
 7054TIP3    H242798   2.489   3.128   7.031 -1.7299  1.0962  0.0838
 7055TIP3   OH242799   3.556   5.439   7.691  0.3814  0.9881  0.8938
 7055TIP3    H142800   3.633   5.453   7.636 -0.4921  3.3425  0.1737
 7055TIP3    H242801   3.489   5.495   7.654 -1.1482  0.4178  2.6363
 7056TIP3   OH242802   3.822   5.233   1.682  0.7701 -0.1817  0.0486
 7056TIP3    H142803   3.862   5.268   1.762  1.5844  0.9106 -0.8079
 7056TIP3    H242804   3.772   5.307   1.647  0.4084 -0.6594 -0.4522
 7057TIP3   OH242805   4.478   6.773   1.631  0.1804 -0.3955  0.0409
 7057TIP3    H142806   4.547   6.726   1.678 -0.7772 -2.0470 -0.1293
 7057TIP3    H242807   4.477   6.733   1.544 -0.4794  0.1492 -0.2116
 7058TIP3   OH242808   5.558   1.480   7.530  0.0361  0.5412  0.5991
 7058TIP3    H142809   5.534   1.562   7.486  0.5451  0.8530  0.8931
 7058TIP3    H242810   5.546   1.413   7.462 -0.6954  0.8070  0.4477
 7059TIP3   OH242811   1.911   0.367   2.169  0.0347  0.5994  0.4973
 7059TIP3    H142812   1.829   0.320   2.182 -0.0222  0.8961  1.2831
 7059TIP3    H242813   1.979   0.302   2.186 -0.0110  0.1156 -1.0216
 7060TIP3   OH242814   1.865   1.999   6.179 -0.5435 -0.1381  0.1650
 7060TIP3    H142815   1.804   1.982   6.251  1.7249 -0.0361  2.2614
 7060TIP3    H242816   1.840   1.937   6.111 -1.4050 -1.8589  1.9449
 7061TIP3   OH242817   5.279   0.054   0.907  0.3298  0.4307  0.1026
 7061TIP3    H142818   5.375   0.046   0.912  0.2293 -2.2420 -0.8015
 7061TIP3    H242819   5.247  -0.029   0.942 -1.6635  1.0649 -0.1333
 7062TIP3   OH242820   5.789   1.995   7.434  0.1926  0.1554  0.3109
 7062TIP3    H142821   5.768   1.998   7.528 -1.4425 -1.1792  0.0417
 7062TIP3    H242822   5.829   1.909   7.422  2.7119  1.2762  0.1578
 7063TIP3   OH242823   2.415   1.395   6.656 -0.5870  0.4926 -0.5656
 7063TIP3    H142824   2.331   1.355   6.679  0.0734 -1.0814 -0.7021
 7063TIP3    H242825   2.451   1.336   6.589  1.7834 -0.4118  1.3582
 7064TIP3   OH242826   4.762   6.802   6.706  0.0223 -0.0382  0.8106
 7064TIP3    H142827   4.715   6.796   6.623  0.6025 -0.0733  0.4773
 7064TIP3    H242828   4.710   6.862   6.759  0.1729  0.7902  0.0470
 7065TIP3   OH242829   6.192   4.796   1.952  0.3146  0.1673  0.0164
 7065TIP3    H142830   6.207   4.706   1.983  0.1102  0.3659  0.7076
 7065TIP3    H242831   6.114   4.790   1.897  0.9765 -0.2807 -0.9085
 7066TIP3   OH242832   1.478   1.369   7.494 -0.8281  0.1697 -0.0871
 7066TIP3    H142833   1.569   1.373   7.464 -0.3208  0.8753  1.4370
 7066TIP3    H242834   1.458   1.276   7.496  0.2132 -0.0673  0.4866
 7067TIP3   OH242835   6.080   3.258   8.177  0.1746  0.2879 -0.1076
 7067TIP3    H142836   6.003   3.315   8.178  0.1816  0.2925  0.3423
 7067TIP3    H242837   6.087   3.224   8.266  0.0035 -0.6467 -0.4349
 7068TIP3   OH242838   5.442   2.803   1.687 -0.5899  0.1213  0.0401
 7068TIP3    H142839   5.373   2.856   1.647 -0.1453  0.4702 -0.2874
 7068TIP3    H242840   5.426   2.809   1.781 -1.2860 -0.2013 -0.0534
 7069TIP3   OH242841   0.805   2.541   8.157 -0.1334 -0.5344 -0.4100
 7069TIP3    H142842   0.811   2.481   8.083  0.2437  0.1583 -0.9597
 7069TIP3    H242843   0.854   2.618   8.129 -4.2463  1.9556 -1.6469
 7070TIP3   OH242844   0.167   3.090   1.485  0.0042 -0.0067  0.3904
 7070TIP3    H142845   0.110   3.013   1.484 -0.0153  0.0093 -0.1808
 7070TIP3    H242846   0.111   3.159   1.521  0.9162 -0.8912  3.8673
 7071TIP3   OH242847   3.584   2.140   2.022 -0.3678  0.5744  0.5293
 7071TIP3    H142848   3.559   2.226   2.057  0.5744  0.6516  1.0768
 7071TIP3    H242849   3.609   2.157   1.931 -3.8788  0.1908 -0.6278
 7072TIP3   OH242850   6.163   2.614   7.555 -0.3992 -0.3398 -0.3659
 7072TIP3    H142851   6.232   2.549   7.572  0.0401  0.1096 -0.4172
 7072TIP3    H242852   6.124   2.629   7.641  0.7637  0.7368  0.0020
 7073TIP3   OH242853   6.764   4.459   0.425  0.0445 -0.5777 -0.0017
 7073TIP3    H142854   6.772   4.429   0.515 -0.0953 -0.7939 -0.0598
 7073TIP3    H242855   6.687   4.413   0.391  0.2352 -0.6792 -0.3026
 7074TIP3   OH242856   2.257   0.716   8.187  0.2409 -0.0837  0.0467
 7074TIP3    H142857   2.259   0.801   8.143  1.5633  0.0172  0.2655
 7074TIP3    H242858   2.306   0.730   8.268  0.1290 -0.9582  0.2745
 7075TIP3   OH242859   2.547   2.766   7.336 -0.5270 -0.4495 -0.0145
 7075TIP3    H142860   2.630   2.788   7.378 -1.4705 -0.4275  1.9634
 7075TIP3    H242861   2.552   2.807   7.250  1.2921 -0.0167  0.2477
 7076TIP3   OH242862   6.279   6.344   7.395 -0.5425  0.4111 -0.6039
 7076TIP3    H142863   6.234   6.262   7.375 -2.7750  1.3123  0.4298
 7076TIP3    H242864   6.316   6.373   7.312  0.5552 -1.7383 -0.9408
 7077TIP3   OH242865   0.659   2.393   7.345  0.3192  0.3689 -0.3090
 7077TIP3    H142866   0.669   2.329   7.416 -0.1549  0.1412 -0.4390
 7077TIP3    H242867   0.604   2.462   7.382  0.2841  0.3768 -0.3754
 7078TIP3   OH242868   1.850   2.718   5.883  0.2860 -0.1700 -0.4692
 7078TIP3    H142869   1.798   2.651   5.838  0.9508 -0.7270 -0.4322
 7078TIP3    H242870   1.857   2.789   5.820 -1.8875  0.6444  0.0962
 7079TIP3   OH242871   3.361   5.285   8.155  0.2131 -0.2025  0.1213
 7079TIP3    H142872   3.451   5.282   8.188  0.2648  1.0033  0.1665
 7079TIP3    H242873   3.370   5.280   8.060  0.2778 -0.7794  0.1580
 7080TIP3   OH242874   4.826   6.255   6.947  0.5073 -0.2741  0.3217
 7080TIP3    H142875   4.773   6.177   6.965 -0.6949  0.1451 -1.1751
 7080TIP3    H242876   4.780   6.325   6.993  1.1715 -0.2984  1.0459
 7081TIP3   OH242877   4.520   1.066   1.048  0.6890 -0.2915  0.8040
 7081TIP3    H142878   4.598   1.111   1.016 -1.2013  2.0204 -1.0357
 7081TIP3    H242879   4.466   1.054   0.970 -1.5160 -0.1939  2.2282
 7082TIP3   OH242880   0.417   4.983   1.930  0.4113 -0.5661  0.5834
 7082TIP3    H142881   0.433   4.890   1.948 -0.8539 -0.7064  1.1490
 7082TIP3    H242882   0.397   5.021   2.016  0.6103  0.1661  0.3114
 7083TIP3   OH242883   5.602   1.181   0.177  0.0614 -0.5023 -0.2437
 7083TIP3    H142884   5.517   1.138   0.188  0.4030 -1.3063 -0.6688
 7083TIP3    H242885   5.663   1.110   0.164  1.0103  0.0023  1.2290
 7084TIP3   OH242886   5.927   6.115   0.629  0.4025  0.0460 -0.5663
 7084TIP3    H142887   5.980   6.040   0.656  0.5300  0.9223  1.8571
 7084TIP3    H242888   5.837   6.088   0.647  0.3401  0.0096 -0.9266
 7085TIP3   OH242889   6.103   3.009   6.327  0.0492  0.0154 -0.0998
 7085TIP3    H142890   6.039   3.061   6.278  0.7935 -0.0953 -1.2270
 7085TIP3    H242891   6.135   3.068   6.395 -2.1054 -0.2913  1.2950
 7086TIP3   OH242892   1.850   4.344   0.363  0.2050 -0.4108 -0.3738
 7086TIP3    H142893   1.757   4.322   0.376 -0.1260  0.9630 -0.1924
 7086TIP3    H242894   1.847   4.428   0.317  1.3742 -1.1715 -1.9477
 7087TIP3   OH242895   1.437   3.024   0.387  0.4451  0.1054  0.3845
 7087TIP3    H142896   1.512   2.995   0.439  0.1621 -1.3423  0.0029
 7087TIP3    H242897   1.367   2.963   0.409 -0.1876  0.5357 -0.3895
 7088TIP3   OH242898   6.368   4.512   0.593  0.2655 -0.3663  0.0339
 7088TIP3    H142899   6.328   4.482   0.675 -0.1192 -2.6097 -0.8923
 7088TIP3    H242900   6.298   4.559   0.548  0.1643 -0.0237  0.5470
 7089TIP3   OH242901   6.284   4.780   7.010  0.1679  0.3158 -0.3727
 7089TIP3    H142902   6.337   4.701   6.998  2.4720  0.8372  4.3729
 7089TIP3    H242903   6.195   4.746   7.023  1.2838 -1.8801  2.8748
 7090TIP3   OH242904   3.832   6.641   7.430  0.0923  0.6024 -0.3326
 7090TIP3    H142905   3.797   6.721   7.471 -2.8398 -0.9661  0.5364
 7090TIP3    H242906   3.866   6.590   7.503  1.4017  0.7470 -0.8135
 7091TIP3   OH242907   2.180   5.575   1.783 -0.1872  0.1485 -0.0854
 7091TIP3    H142908   2.217   5.492   1.753 -2.9086 -1.1945 -0.0205
 7091TIP3    H242909   2.254   5.636   1.783  1.8537 -2.1944 -0.3523
 7092TIP3   OH242910   1.779   3.323   1.137  0.3048 -0.3989  0.0595
 7092TIP3    H142911   1.723   3.295   1.210 -0.9082 -0.4278 -0.8457
 7092TIP3    H242912   1.820   3.242   1.105 -1.1474 -0.8012 -0.8790
 7093TIP3   OH242913   1.117   1.700   8.146 -0.2309 -0.0823 -0.2082
 7093TIP3    H142914   1.073   1.785   8.140  3.4334  2.0978  0.5800
 7093TIP3    H242915   1.117   1.665   8.057 -1.9048  0.6671 -0.5229
 7094TIP3   OH242916   1.229   5.198   8.148  0.1491 -0.2699  0.6890
 7094TIP3    H142917   1.231   5.292   8.129  0.9693 -0.6796 -1.5691
 7094TIP3    H242918   1.137   5.179   8.164 -0.6281  0.3724 -2.3260
 7095TIP3   OH242919   4.353   1.283   6.234 -0.2330  0.1591 -0.4438
 7095TIP3    H142920   4.267   1.327   6.238  0.1523  0.8370  2.8796
 7095TIP3    H242921   4.412   1.342   6.279  1.3695 -1.6373 -0.0750
 7096TIP3   OH242922   0.187   3.441   8.100 -0.5198  0.3907 -0.5593
 7096TIP3    H142923   0.244   3.427   8.024  0.8201 -1.4129  0.6779
 7096TIP3    H242924   0.242   3.488   8.163 -1.0430  0.3540 -0.0656
 7097TIP3   OH242925   5.035   1.432   2.562  0.1707 -0.4960 -0.1345
 7097TIP3    H142926   5.079   1.417   2.479  0.1575  0.2739 -0.2857
 7097TIP3    H242927   4.942   1.422   2.543  0.0555  1.1391 -0.5582
 7098TIP3   OH242928   3.175   2.654   1.113  0.3828  0.4230 -0.3399
 7098TIP3    H142929   3.200   2.724   1.173 -0.4097 -0.5368  1.1827
 7098TIP3    H242930   3.253   2.637   1.061  1.4866  0.5011  1.2342
 7099TIP3   OH242931   4.523   3.669   0.925 -0.7647  0.3150 -0.3994
 7099TIP3    H142932   4.486   3.633   0.845  1.2150 -1.0032 -0.7990
 7099TIP3    H242933   4.485   3.757   0.932 -2.5814 -0.3183 -1.6164
 7100TIP3   OH242934   3.110   2.078   1.252 -0.9268 -0.0621 -0.4674
 7100TIP3    H142935   3.176   2.140   1.221 -1.5042  0.2653 -1.0603
 7100TIP3    H242936   3.038   2.087   1.191 -2.0621  0.5270  0.9119
 7101TIP3   OH242937   3.091   6.537   7.722 -0.3777 -0.1001  0.3456
 7101TIP3    H142938   3.146   6.612   7.745 -0.6008 -0.0835  0.8336
 7101TIP3    H242939   3.063   6.555   7.632 -0.3560  0.3583  0.4277
 7102TIP3   OH242940   1.989   0.127   8.001 -0.3932 -0.2551  0.0854
 7102TIP3    H142941   2.049   0.086   7.938  0.4837  1.4457 -0.2555
 7102TIP3    H242942   1.903   0.121   7.960 -0.0953 -0.6812 -0.4884
 7103TIP3   OH242943   5.453   1.762   0.272  0.4050  0.1229 -0.0143
 7103TIP3    H142944   5.449   1.720   0.186 -0.2358 -0.0529  0.0964
 7103TIP3    H242945   5.547   1.772   0.289  0.5688  2.0706 -1.6527
 7104TIP3   OH242946   0.939   2.471   7.543 -0.8225  0.0924 -0.3081
 7104TIP3    H142947   1.003   2.540   7.558 -0.5757 -0.1000 -0.4580
 7104TIP3    H242948   0.860   2.517   7.516  0.0495  0.2321 -2.9563
 7105TIP3   OH242949   2.269   1.964   0.841  0.2167 -0.2900  0.6373
 7105TIP3    H142950   2.246   1.921   0.759  1.0057 -0.9531  0.7434
 7105TIP3    H242951   2.209   2.038   0.848  1.5355  1.1189 -1.6404
 7106TIP3   OH242952   5.984   2.612   8.154 -0.8379  0.5163 -0.1050
 7106TIP3    H142953   5.963   2.540   8.096 -0.4271  1.6008 -1.6583
 7106TIP3    H242954   5.916   2.609   8.222  0.7270 -2.9646  1.5247
 7107TIP3   OH242955   5.755   5.476   8.403  0.1708  0.3597  0.1040
 7107TIP3    H142956   5.796   5.428   8.475 -1.4039  0.2923  1.0118
 7107TIP3    H242957   5.763   5.568   8.427 -0.5917  0.3243  0.5139
 7108TIP3   OH242958   6.782   3.985   7.316 -0.2188  0.5412 -0.1724
 7108TIP3    H142959   6.695   4.021   7.334 -0.8465 -1.0345  0.1087
 7108TIP3    H242960   6.813   4.034   7.241 -1.8701  0.3478 -1.0292
 7109TIP3   OH242961   0.556   2.612   0.802  0.5032 -0.1672  0.2976
 7109TIP3    H142962   0.624   2.544   0.804  2.0297  1.2562 -0.4634
 7109TIP3    H242963   0.526   2.614   0.711 -2.0575 -2.0966  0.9811
 7110TIP3   OH242964   2.281   2.419   6.897 -0.5010  0.1865 -0.3676
 7110TIP3    H142965   2.314   2.497   6.941 -0.7329  0.3420 -0.4663
 7110TIP3    H242966   2.209   2.451   6.843 -0.6202 -0.1034 -0.3797
 7111TIP3   OH242967   1.141   0.835   7.881  0.0034 -0.4181  0.0418
 7111TIP3    H142968   1.051   0.835   7.912 -0.0860 -0.9667 -0.2018
 7111TIP3    H242969   1.163   0.928   7.868 -0.7361 -0.3176 -0.5085
 7112TIP3   OH242970   1.766   2.628   2.433  0.3817 -0.8466  0.3109
 7112TIP3    H142971   1.783   2.639   2.340  1.0428 -0.3197  0.4861
 7112TIP3    H242972   1.708   2.551   2.438 -1.0457  0.1183 -0.6463
 7113TIP3   OH242973   0.315   3.495   0.229  0.1175 -0.5420  0.0396
 7113TIP3    H142974   0.363   3.569   0.189  1.5197 -1.2465  0.3495
 7113TIP3    H242975   0.280   3.531   0.310 -2.3959  0.7915 -1.5025
 7114TIP3   OH242976   6.673   4.671   6.574 -0.0023  0.0569  0.6776
 7114TIP3    H142977   6.634   4.697   6.491  1.1942 -1.6983 -0.5004
 7114TIP3    H242978   6.716   4.750   6.606  0.5136  0.4825 -0.9666
 7115TIP3   OH242979   3.502   5.730   0.338  0.0631 -0.0588  0.2824
 7115TIP3    H142980   3.578   5.680   0.308 -0.7999 -2.0392  1.2740
 7115TIP3    H242981   3.438   5.664   0.364 -1.5711  1.5711  0.5772
 7116TIP3   OH242982   6.038   3.751   7.276 -0.1749 -0.1608 -0.5977
 7116TIP3    H142983   6.004   3.668   7.241  2.8131 -1.4936 -0.6581
 7116TIP3    H242984   6.133   3.740   7.275  0.2447  1.8987  2.8310
 7117TIP3   OH242985   4.608   0.843   8.245 -0.0884  0.2226  0.2131
 7117TIP3    H142986   4.589   0.841   8.339  0.4583 -0.5879  0.3092
 7117TIP3    H242987   4.522   0.844   8.204 -0.3346  0.3333  0.7158
 7118TIP3   OH242988   5.806   1.012   1.605 -0.7492  0.0619 -0.4846
 7118TIP3    H142989   5.898   0.986   1.617 -0.8359 -1.0833 -1.9645
 7118TIP3    H242990   5.810   1.106   1.587  0.2627 -0.1695 -1.5842
 7119TIP3   OH242991   2.704   5.989   0.682  0.9428  0.5571 -0.1938
 7119TIP3    H142992   2.799   5.994   0.689  0.8748  2.9466 -0.3778
 7119TIP3    H242993   2.675   5.955   0.766  1.9457 -0.4168 -0.2159
 7120TIP3   OH242994   6.287   2.360   8.295  0.1630 -0.0749  0.0954
 7120TIP3    H142995   6.380   2.378   8.305  0.2349 -0.8026  0.7841
 7120TIP3    H242996   6.243   2.439   8.326  0.5224 -0.2125  0.9625
 7121TIP3   OH242997   2.192   3.769   7.369  0.6517 -0.4229 -0.3699
 7121TIP3    H142998   2.128   3.840   7.369 -0.9630 -1.7988 -0.5476
 7121TIP3    H242999   2.180   3.726   7.454  1.4446 -0.6367 -0.3525
 7122TIP3   OH243000   6.815   0.803   2.572  0.3896  0.7679 -0.6257
 7122TIP3    H143001   6.900   0.814   2.529 -0.8038  0.0669 -3.3668
 7122TIP3    H243002   6.828   0.731   2.634  1.2648 -1.0811 -2.8000
 7123TIP3   OH243003   1.924   1.183   2.315  0.2024 -0.0802 -0.6482
 7123TIP3    H143004   2.005   1.217   2.278 -0.2954 -0.8262 -2.5383
 7123TIP3    H243005   1.926   1.089   2.296 -0.6900 -0.2708  0.0830
 7124TIP3   OH243006   2.498   4.377   1.863 -0.9114 -0.0595  0.2847
 7124TIP3    H143007   2.434   4.358   1.794 -0.4541  1.5596 -0.6483
 7124TIP3    H243008   2.553   4.446   1.825 -0.4931  0.7022  2.1971
 7125TIP3   OH243009   0.013   2.863   1.477  0.1811  0.1322  0.3268
 7125TIP3    H143010   0.025   2.824   1.563 -2.0048 -1.5235 -0.0410
 7125TIP3    H243011  -0.063   2.921   1.488  0.0311  0.0826 -0.4150
 7126TIP3   OH243012   1.039   6.051   0.178  0.1033  0.4549  0.2426
 7126TIP3    H143013   1.129   6.025   0.160 -0.7011 -1.5250 -1.3937
 7126TIP3    H243014   1.021   6.121   0.115  0.4024  0.6549  0.3793
 7127TIP3   OH243015   5.543   4.860   1.114 -0.0776  0.0019 -0.5889
 7127TIP3    H143016   5.589   4.919   1.054 -0.7137 -0.2694 -1.3561
 7127TIP3    H243017   5.460   4.841   1.070 -0.8318  0.2992  0.6669
 7128TIP3   OH243018   1.272   3.471   0.519  0.3646 -0.6944  0.4536
 7128TIP3    H143019   1.333   3.420   0.465 -0.8793 -3.4819  1.5008
 7128TIP3    H243020   1.245   3.410   0.588 -2.5243  0.8765  0.8408
 7129TIP3   OH243021   6.037   1.946   2.254  0.6285  0.1801 -0.2540
 7129TIP3    H143022   5.947   1.923   2.228  1.0487  0.0901 -1.7107
 7129TIP3    H243023   6.042   2.041   2.241 -0.0332  0.6721  2.4120
 7130TIP3   OH243024   0.388   6.351   1.880  0.6244 -0.3288 -0.1595
 7130TIP3    H143025   0.303   6.386   1.907  0.1779 -0.0228 -1.8437
 7130TIP3    H243026   0.371   6.258   1.865  0.8879 -0.5130  0.6387
 7131TIP3   OH243027   1.737   3.643   7.753 -0.0851  0.1471  0.2078
 7131TIP3    H143028   1.778   3.599   7.828  0.1478  1.6304  0.9939
 7131TIP3    H243029   1.655   3.596   7.740  0.8382 -1.4730  0.0138
 7132TIP3   OH243030   2.242   2.151   6.862 -0.0796 -0.2145 -0.1163
 7132TIP3    H143031   2.255   2.245   6.876  1.0320 -0.3158 -0.3752
 7132TIP3    H243032   2.296   2.109   6.929  0.1356 -0.6734 -0.5705
 7133TIP3   OH243033   6.764   1.422   1.590  0.4849  0.3305  0.8683
 7133TIP3    H143034   6.764   1.352   1.655  0.9148  0.5416  1.0971
 7133TIP3    H243035   6.674   1.425   1.557  0.1536  0.5214  1.7759
 7134TIP3   OH243036   1.765   2.223   6.877 -0.2047 -0.3681 -0.1885
 7134TIP3    H143037   1.772   2.262   6.963  0.6752  0.6377 -0.7005
 7134TIP3    H243038   1.697   2.274   6.832  0.4126  0.0995 -0.6011
 7135TIP3   OH243039   0.956   3.947   0.596  0.3335 -0.1083 -0.0625
 7135TIP3    H143040   1.046   3.978   0.599 -0.3766  2.0378  0.4419
 7135TIP3    H243041   0.939   3.912   0.683  0.6309 -0.4635 -0.1420
 7136TIP3   OH243042   2.396   6.194   1.546 -0.5375  0.7568 -0.1436
 7136TIP3    H143043   2.366   6.105   1.566 -2.4719  1.6235  1.1333
 7136TIP3    H243044   2.422   6.230   1.631  0.8550  1.2275 -0.7417
 7137TIP3   OH243045   4.800   4.564   0.562 -0.0635  0.2382  0.5245
 7137TIP3    H143046   4.850   4.483   0.556 -0.2971  0.0358  1.1775
 7137TIP3    H243047   4.754   4.557   0.646  0.5458  1.4018  0.9757
 7138TIP3   OH243048   2.133   1.336   7.904 -0.2747  0.4152 -0.0541
 7138TIP3    H143049   2.179   1.271   7.957 -0.5354 -0.5304 -0.9647
 7138TIP3    H243050   2.068   1.374   7.964  1.8189  2.0132  1.3537
 7139TIP3   OH243051   6.169   0.544   7.119  0.3552 -0.2393 -0.0453
 7139TIP3    H143052   6.261   0.572   7.116  0.3640 -0.3206 -0.5928
 7139TIP3    H243053   6.168   0.472   7.181  0.7792 -0.6429 -0.4982
 7140TIP3   OH243054   1.994   2.074   6.981  0.7039 -0.1103  0.5871
 7140TIP3    H143055   1.917   2.111   6.939  0.6082 -0.7510  0.1826
 7140TIP3    H243056   2.068   2.104   6.928  0.5338 -1.4561 -0.4682
 7141TIP3   OH243057   0.869   1.453   2.338 -0.1327 -0.1332 -0.7096
 7141TIP3    H143058   0.775   1.437   2.333 -0.0257 -0.5680 -1.3788
 7141TIP3    H243059   0.897   1.404   2.416 -0.1366 -1.6914 -1.6432
 7142TIP3   OH243060   4.690   4.138   2.246  0.4934 -0.5725 -0.4022
 7142TIP3    H143061   4.770   4.133   2.299  0.8916 -0.2486 -0.9553
 7142TIP3    H243062   4.620   4.153   2.309  1.3103  3.2580 -0.1343
 7143TIP3   OH243063   5.261   3.948   1.379 -1.4623  0.7756  0.2626
 7143TIP3    H143064   5.275   4.043   1.377 -1.2455  0.7439  0.2214
 7143TIP3    H243065   5.349   3.911   1.387 -1.3331  0.4943 -1.9446
 7144TIP3   OH243066   3.646   0.185   0.491 -0.5462 -0.5450  0.0715
 7144TIP3    H143067   3.678   0.148   0.573  0.4338  0.3131  0.0932
 7144TIP3    H243068   3.631   0.278   0.511  1.9812  0.2549 -1.2941
 7145TIP3   OH243069   3.175   3.599   6.301  0.4096  0.0520 -0.3297
 7145TIP3    H143070   3.227   3.677   6.285  0.3039  0.0853 -0.5111
 7145TIP3    H243071   3.216   3.558   6.377 -0.8549  1.4292  1.1422
 7146TIP3   OH243072   0.427   2.614   6.997 -0.8312  0.3696 -0.2169
 7146TIP3    H143073   0.349   2.669   6.996 -1.1228  0.0041  0.7779
 7146TIP3    H243074   0.430   2.575   6.910 -0.3906  2.2355 -1.0817
 7147TIP3   OH243075   6.153   4.457   1.426  0.4869  0.5200 -0.0420
 7147TIP3    H143076   6.221   4.440   1.491  0.4860  1.3089  0.1752
 7147TIP3    H243077   6.121   4.545   1.447 -1.1309 -0.1132  0.3328
 7148TIP3   OH243078   5.430   1.907   1.788 -0.1982 -0.2248 -0.6422
 7148TIP3    H143079   5.474   1.873   1.866  0.3137  0.6583 -0.5335
 7148TIP3    H243080   5.443   2.002   1.792 -0.5124 -0.1286 -1.5955
 7149TIP3   OH243081   5.481   4.933   2.677  0.2439  0.2450 -0.2727
 7149TIP3    H143082   5.499   4.875   2.602  0.1519  0.2823 -0.3245
 7149TIP3    H243083   5.518   4.887   2.752 -2.5997 -1.4762  0.2240
 7150TIP3   OH243084   4.032   3.688   7.148  0.1897 -0.2701 -0.0371
 7150TIP3    H143085   3.951   3.703   7.198  1.3590  1.0726  1.5610
 7150TIP3    H243086   4.094   3.654   7.213  0.9352 -1.2601 -1.2351
 7151TIP3   OH243087   1.947   2.227   8.198  0.2368  0.0537  0.1739
 7151TIP3    H143088   1.953   2.304   8.141  1.1493  0.8829  1.3370
 7151TIP3    H243089   1.854   2.208   8.204  0.0761  0.3861 -1.0039
 7152TIP3   OH243090   6.525   3.393   8.447 -0.8120  0.1791  0.2780
 7152TIP3    H143091   6.582   3.363   8.376  0.8593  1.3188  1.0663
 7152TIP3    H243092   6.543   3.333   8.519 -0.4508  0.6426  0.5829
 7153TIP3   OH243093   4.640   3.106   0.630 -0.0297  0.2490 -0.2404
 7153TIP3    H143094   4.615   3.128   0.720  0.2555  1.6020 -0.4736
 7153TIP3    H243095   4.637   3.010   0.627 -3.9724  0.1663  0.1264
 7154TIP3   OH243096   5.603   0.878   1.490 -0.7400  0.4070 -0.6599
 7154TIP3    H143097   5.548   0.905   1.564  0.0175  0.3325 -0.0521
 7154TIP3    H243098   5.685   0.925   1.503  0.1271 -1.1370 -0.3091
 7155TIP3   OH243099   3.631   2.899   7.086  0.1759 -0.9652 -0.3237
 7155TIP3    H143100   3.619   2.827   7.024  2.1018 -0.3486 -1.5206
 7155TIP3    H243101   3.596   2.976   7.040  1.3980 -0.5427 -0.5837
 7156TIP3   OH243102   3.352   4.241   6.959  0.0861  0.1048  0.1764
 7156TIP3    H143103   3.340   4.244   6.864 -0.1845  0.2857  0.2145
 7156TIP3    H243104   3.366   4.148   6.979  2.1352  0.2812 -0.2616
 7157TIP3   OH243105   2.766   3.088   0.965  0.2779  0.0858 -0.4802
 7157TIP3    H143106   2.677   3.123   0.973  0.5108  0.4536  0.8572
 7157TIP3    H243107   2.760   3.018   0.901 -1.0852 -0.2141 -0.0445
 7158TIP3   OH243108   6.080   3.191   0.996 -0.3719  0.4722 -0.1768
 7158TIP3    H143109   6.023   3.249   1.045  0.6227  1.8405 -0.5784
 7158TIP3    H243110   6.169   3.222   1.015  0.0963  0.3824 -1.9937
 7159TIP3   OH243111   3.739   1.442   1.014 -0.3553  0.3211  0.0376
 7159TIP3    H143112   3.692   1.513   1.058 -0.6070  1.0850 -1.3917
 7159TIP3    H243113   3.728   1.366   1.071  0.4567  1.5571  1.9203
 7160TIP3   OH243114   4.807   4.943   7.297 -0.6713 -0.1328 -0.4744
 7160TIP3    H143115   4.844   5.030   7.283 -0.5949  0.4178  2.4936
 7160TIP3    H243116   4.724   4.959   7.342 -1.1521 -1.5846 -0.7919
 7161TIP3   OH243117   2.885   6.267   7.758 -0.0658 -0.2505 -0.0556
 7161TIP3    H143118   2.932   6.278   7.841  0.8739 -0.7516 -0.5058
 7161TIP3    H243119   2.798   6.236   7.784  0.3538 -0.8096  0.7275
 7162TIP3   OH243120   4.211   3.521   0.230 -0.5314 -0.7763  0.1134
 7162TIP3    H143121   4.281   3.456   0.221  1.2613  0.9580  0.6861
 7162TIP3    H243122   4.153   3.484   0.296  0.2461 -1.9642  0.1610
 7163TIP3   OH243123   4.460   0.601   1.355  0.4390  0.5458  0.5095
 7163TIP3    H143124   4.443   0.670   1.420 -2.3165 -0.1414  0.6425
 7163TIP3    H243125   4.455   0.519   1.405  1.2218  0.1267 -0.0797
 7164TIP3   OH243126   2.321   5.632   2.584  0.3254  0.4994  0.3291
 7164TIP3    H143127   2.353   5.626   2.494 -0.5419  2.5938 -0.1856
 7164TIP3    H243128   2.228   5.655   2.575 -0.3095 -1.2649  1.7829
 7165TIP3   OH243129   2.947   0.662   1.459  0.0821 -0.3407  0.6868
 7165TIP3    H143130   2.945   0.597   1.389  3.8604 -0.3225  0.3642
 7165TIP3    H243131   2.917   0.614   1.537  0.9254 -1.9456  0.0667
 7166TIP3   OH243132   2.590   5.085   6.958  0.2025 -0.5647 -0.1414
 7166TIP3    H143133   2.664   5.044   6.914  1.2124  0.2667  0.7454
 7166TIP3    H243134   2.526   5.099   6.888  1.6171  0.3720 -1.3142
 7167TIP3   OH243135   1.835   5.582   7.539 -0.3761 -0.2483  0.2223
 7167TIP3    H143136   1.777   5.560   7.466  1.8401 -2.6238 -1.0146
 7167TIP3    H243137   1.871   5.667   7.516 -3.0908  1.2185  0.9436
 7168TIP3   OH243138   5.683   2.949   6.663 -0.1803  0.1419 -0.2724
 7168TIP3    H143139   5.774   2.940   6.637 -0.3796 -2.6806 -0.2885
 7168TIP3    H243140   5.687   2.970   6.757  0.4874 -0.3593 -0.1819
 7169TIP3   OH243141   6.504   1.495   1.534 -0.1248 -0.0895  0.3352
 7169TIP3    H143142   6.458   1.458   1.610  0.4024 -0.6330  0.4021
 7169TIP3    H243143   6.555   1.568   1.570 -1.6554  1.1295  0.0954
 7170TIP3   OH243144   4.482   6.295   0.784 -0.1377 -0.0656  0.0590
 7170TIP3    H143145   4.528   6.289   0.700 -1.0966 -0.8701 -0.4187
 7170TIP3    H243146   4.544   6.259   0.847  0.2047 -0.4148 -0.4630
 7171TIP3   OH243147   2.959   6.250   8.338 -0.1485  0.2002 -0.3880
 7171TIP3    H143148   2.886   6.189   8.332  1.1249 -1.2663 -1.6741
 7171TIP3    H243149   2.987   6.244   8.430 -2.3649  1.7672  0.4886
 7172TIP3   OH243150   3.169   6.855   6.124  0.7208  0.3066  0.4727
 7172TIP3    H143151   3.106   6.794   6.164 -2.2598  0.9455 -2.7633
 7172TIP3    H243152   3.207   6.805   6.052  1.3045  1.0257  0.2782
 7173TIP3   OH243153   5.370   4.198   1.110  0.5323 -0.1522  0.0237
 7173TIP3    H143154   5.397   4.179   1.200  1.2754  1.9853  0.2979
 7173TIP3    H243155   5.447   4.238   1.069 -0.0551 -0.3393 -1.3395
 7174TIP3   OH243156   3.940   6.925   0.075 -0.4051  0.2251  0.0966
 7174TIP3    H143157   3.968   6.835   0.060 -0.8664  0.1520 -0.3582
 7174TIP3    H243158   3.844   6.922   0.069 -0.3933  0.8840 -0.7259
 7175TIP3   OH243159   4.498   3.439   8.094  0.2038 -0.1068  0.6055
 7175TIP3    H143160   4.467   3.353   8.065 -2.1365  0.9118 -0.1474
 7175TIP3    H243161   4.563   3.464   8.029  1.8615 -1.7865  1.5242
 7176TIP3   OH243162   4.653   2.155   1.487  0.6486 -0.2432 -0.4602
 7176TIP3    H143163   4.674   2.163   1.580  1.3643 -2.2569 -0.4094
 7176TIP3    H243164   4.563   2.126   1.485  0.7149 -0.4524 -0.3933
 7177LIG     O143165   6.820   1.391   4.192  0.2219  0.4802  0.2990
 7177LIG     O243166   7.047   1.580   3.833  0.0684  1.0722  0.0665
 7177LIG     N143167   7.161   1.409   3.958 -0.6049  0.0466 -0.0316
 7177LIG     N243168   7.075   1.220   4.242 -0.7428  0.0040 -1.2621
 7177LIG     N343169   6.936   1.474   4.010  0.2477 -0.3045 -0.3680
 7177LIG     N443170   7.259   1.240   4.114  0.0352  0.5525 -0.9383
 7177LIG     C143171   7.042   1.312   4.145  0.1203  0.4704 -0.7598
 7177LIG     C243172   7.155   1.319   4.061 -0.6579 -0.4869  0.0082
 7177LIG     C343173   6.925   1.389   4.127 -0.2350  0.0893 -0.1334
 7177LIG     C443174   7.046   1.493   3.925  0.4374 -0.6707 -0.0540
 7177LIG     C543175   7.205   1.185   4.224  0.1992  0.0915  0.3002
 7177LIG     C643176   7.271   1.415   3.862 -0.5392 -0.2309  0.5706
 7177LIG     C743177   6.999   1.194   4.360  0.2901  1.1833 -0.4405
 7177LIG     C843178   6.816   1.551   3.967 -0.1647  0.2403  0.7188
 7177LIG     H143179   7.255   1.113   4.289 -0.8680  0.3448  1.4295
 7177LIG     H243180   7.234   1.391   3.760 -3.5747  3.2022  0.6622
 7177LIG     H343181   7.352   1.342   3.884 -0.6617 -0.3820  0.5230
 7177LIG     H443182   7.314   1.516   3.850 -0.6710 -0.2468 -0.0565
 7177LIG     H543183   6.903   1.143   4.338 -0.0313  1.6907 -0.2053
 7177LIG     H643184   6.978   1.289   4.412  1.5120 -0.4097  3.3833
 7177LIG     H743185   7.052   1.126   4.430 -3.2492  0.5388  1.8502
 7177LIG     H843186   6.842   1.658   3.949 -1.2209  0.6214  1.3731
 7177LIG     H943187   6.736   1.542   4.043  0.7280 -0.5567  1.5770
 7177LIG    H1043188   6.774   1.502   3.876 -1.2611  1.2183  0.6704
   6.99811   6.99811   8.48142
